Title
43194
    1CHL1    C3    1   3.748   5.212   5.968  0.4135 -0.3180  0.2160
    1CHL1    H3    2   3.654   5.167   5.929  1.3345 -0.6360 -1.7989
    1CHL1    O3    3   3.714   5.299   6.076 -0.7836  0.5299  0.2786
    1CHL1   H3'    4   3.802   5.329   6.099 -0.1490 -1.1264  0.0872
    1CHL1    C4    5   3.837   5.086   6.023  0.8176 -0.8021 -0.1026
    1CHL1   H4A    6   3.923   5.134   6.075  0.2436  2.4304 -1.8408
    1CHL1   H4B    7   3.775   5.033   6.099  0.5695  1.1746  1.1531
    1CHL1    C5    8   3.872   4.991   5.911 -0.7481 -0.7595 -0.1084
    1CHL1    C6    9   3.857   4.857   5.923  0.0609 -0.4185  0.7126
    1CHL1    H6   10   3.819   4.808   6.013 -2.3990  0.0522  0.0216
    1CHL1    C7   11   3.889   4.766   5.812  0.5495  0.2088 -0.4687
    1CHL1   H7A   12   3.946   4.683   5.859  1.0019  1.3489  1.0992
    1CHL1   H7B   13   3.792   4.725   5.775  0.2061 -1.8355  2.3136
    1CHL1    C8   14   3.970   4.815   5.689  0.4826 -0.1277  0.3872
    1CHL1    H8   15   4.075   4.823   5.725  0.6480 -1.8419  0.3613
    1CHL1   C14   16   3.961   4.720   5.569  0.4849 -0.3496 -0.0829
    1CHL1   H14   17   3.853   4.708   5.544  0.1756  1.2144  0.3483
    1CHL1   C15   18   4.017   4.576   5.585 -0.3763  0.7065 -0.0778
    1CHL1  H15A   19   4.109   4.578   5.649  0.2859 -1.2627 -0.8890
    1CHL1  H15B   20   3.952   4.494   5.623  1.7188 -1.2511 -0.4811
    1CHL1   C16   21   4.072   4.531   5.446  0.0881  0.6677  0.1824
    1CHL1  H16A   22   4.183   4.528   5.444  0.0710 -1.6218 -0.1738
    1CHL1  H16B   23   4.044   4.428   5.415 -0.3716  0.6644  0.5940
    1CHL1   C17   24   4.026   4.648   5.345 -0.3698 -0.1029  0.1459
    1CHL1   H17   25   3.916   4.641   5.326 -0.5286  1.6535  0.1956
    1CHL1   C13   26   4.030   4.777   5.440 -0.1339 -0.1583  0.8008
    1CHL1   C18   27   4.182   4.818   5.465  0.9376 -0.0393  0.6901
    1CHL1  H18A   28   4.204   4.901   5.535  1.7053  1.0373 -0.7732
    1CHL1  H18B   29   4.240   4.734   5.509  1.5360 -0.0813 -0.1472
    1CHL1  H18C   30   4.221   4.850   5.366  3.5196 -1.1544  1.2844
    1CHL1   C12   31   3.940   4.900   5.406 -0.5119 -0.1998  0.2476
    1CHL1  H12A   32   3.961   4.931   5.301  0.4212 -3.1031 -0.5224
    1CHL1  H12B   33   3.835   4.869   5.389 -0.2312 -0.9124 -0.2436
    1CHL1   C11   34   3.947   5.010   5.512  0.1590 -0.4797  0.4180
    1CHL1  H11A   35   4.044   5.065   5.516 -0.5058  0.7420  0.0189
    1CHL1  H11B   36   3.869   5.084   5.485 -1.2971 -1.9420  0.5151
    1CHL1    C9   37   3.909   4.952   5.653 -0.4648 -0.6501  0.0937
    1CHL1    H9   38   3.802   4.926   5.639 -0.2398 -1.2163 -0.6422
    1CHL1   C10   39   3.920   5.053   5.776  0.3209 -0.2864  0.4524
    1CHL1   C19   40   4.068   5.083   5.795 -0.1992  0.1302  0.8862
    1CHL1  H19A   41   4.080   5.168   5.867  2.1079  0.4727  0.1775
    1CHL1  H19B   42   4.121   4.990   5.826 -1.8103 -0.6924  1.2596
    1CHL1  H19C   43   4.113   5.121   5.701 -2.9826 -0.2801 -0.6905
    1CHL1    C1   44   3.842   5.181   5.744 -0.6792  0.6350  0.0329
    1CHL1   H1A   45   3.890   5.236   5.660 -4.6376  0.1472 -2.8400
    1CHL1   H1B   46   3.743   5.142   5.712 -0.7362  1.6463 -1.1053
    1CHL1    C2   47   3.823   5.287   5.856  0.2775 -0.1348  0.6607
    1CHL1   H2A   48   3.753   5.369   5.826  0.0705 -0.1488  1.0936
    1CHL1   H2B   49   3.913   5.327   5.906  1.8118 -0.8208 -1.4057
    1CHL1   C20   50   4.106   4.648   5.217 -0.9248 -0.1350 -0.0683
    1CHL1   H20   51   4.213   4.669   5.240 -1.1923  0.7288  0.4460
    1CHL1   C21   52   4.059   4.754   5.118 -0.4160 -0.1090 -0.4892
    1CHL1  H21A   53   4.067   4.860   5.151 -0.0188  0.4456 -2.2558
    1CHL1  H21B   54   3.960   4.733   5.072 -0.0596  0.0505 -1.3433
    1CHL1  H21C   55   4.122   4.752   5.027  0.1103  0.9328 -0.1735
    1CHL1   C22   56   4.105   4.505   5.146 -0.1163 -0.1060 -0.3695
    1CHL1  H22A   57   4.148   4.432   5.218  1.6276  0.9019 -0.3293
    1CHL1  H22B   58   4.000   4.482   5.119  0.0555  0.5065 -1.6552
    1CHL1   C23   59   4.200   4.494   5.026  0.3298 -0.5925 -0.3072
    1CHL1  H23A   60   4.162   4.563   4.948 -2.0739 -1.4783 -0.0286
    1CHL1  H23B   61   4.300   4.535   5.052 -0.8458  2.0836  0.3545
    1CHL1   C24   62   4.218   4.357   4.975  0.7827 -0.0960  0.4211
    1CHL1  H24A   63   4.313   4.365   4.918  1.4320  3.4049  1.7129
    1CHL1  H24B   64   4.236   4.298   5.067 -0.7509  2.4000  2.4709
    1CHL1   C25   65   4.102   4.309   4.889  0.5012 -0.2155 -0.0268
    1CHL1   H25   66   4.003   4.322   4.935  0.6053 -2.3041  0.8875
    1CHL1   C26   67   4.079   4.376   4.749 -0.1875  0.3204 -1.0585
    1CHL1  H26A   68   4.049   4.480   4.775  1.4186  1.1019 -2.1407
    1CHL1  H26B   69   4.175   4.384   4.694 -0.8394 -3.6294 -3.1083
    1CHL1  H26C   70   4.002   4.332   4.683  0.5951 -0.4402 -1.4821
    1CHL1   C27   71   4.122   4.159   4.865 -0.7529 -0.2150  0.5740
    1CHL1  H27A   72   4.121   4.111   4.966  0.1087  0.9960  1.1775
    1CHL1  H27B   73   4.046   4.116   4.796 -1.1740 -0.7272  1.3301
    1CHL1  H27C   74   4.224   4.143   4.825 -1.1188 -0.4847 -0.2893
    2CHL1    C3   75   1.845   2.671   6.253  0.1604  0.1515 -0.1532
    2CHL1    H3   76   1.736   2.650   6.252  0.0895 -0.1181  3.2614
    2CHL1    O3   77   1.869   2.679   6.392  0.0656 -0.2770 -0.4978
    2CHL1   H3'   78   1.965   2.686   6.391  0.0743 -0.2218  0.1750
    2CHL1    C4   79   1.930   2.552   6.192  0.5477  0.0170 -0.6142
    2CHL1   H4A   80   2.038   2.568   6.210  0.3523 -0.8095  1.6394
    2CHL1   H4B   81   1.894   2.462   6.246 -1.5426  0.6965 -0.7593
    2CHL1    C5   82   1.899   2.541   6.044  0.0410  0.7084  0.4475
    2CHL1    C6   83   1.859   2.428   5.987  0.3113  0.0956  0.1236
    2CHL1    H6   84   1.840   2.340   6.050 -0.8284  1.2498  1.4699
    2CHL1    C7   85   1.842   2.404   5.834  0.6326  0.4683 -0.9880
    2CHL1   H7A   86   1.872   2.302   5.805  1.7858  0.6539 -0.5101
    2CHL1   H7B   87   1.732   2.410   5.818 -0.1681 -2.3403  2.3401
    2CHL1    C8   88   1.921   2.510   5.760  0.4087 -0.2709 -0.3004
    2CHL1    H8   89   2.028   2.484   5.772  0.4954 -1.1205 -2.4495
    2CHL1   C14   90   1.872   2.502   5.616 -0.7212  0.2486  0.5813
    2CHL1   H14   91   1.763   2.524   5.623 -1.2602 -1.8889 -0.2477
    2CHL1   C15   92   1.870   2.367   5.540  0.5187  0.8155  0.4484
    2CHL1  H15A   93   1.959   2.307   5.568 -1.0351 -0.6243  2.5898
    2CHL1  H15B   94   1.778   2.307   5.559 -0.2905  1.2599 -1.7394
    2CHL1   C16   95   1.871   2.403   5.396  0.0859 -0.6279  0.1892
    2CHL1  H16A   96   1.944   2.346   5.335  0.3225 -1.8108  1.5248
    2CHL1  H16B   97   1.775   2.370   5.351  0.0038 -0.4529  0.2362
    2CHL1   C17   98   1.885   2.558   5.385  0.0642  0.2740 -0.2360
    2CHL1   H17   99   1.779   2.590   5.391 -0.5168 -1.5489 -0.1972
    2CHL1   C13  100   1.939   2.605   5.518  0.6563  0.3053 -0.9680
    2CHL1   C18  101   2.089   2.588   5.508 -0.1183  0.2326 -0.0099
    2CHL1  H18A  102   2.123   2.491   5.466  1.3797 -0.0078  1.6413
    2CHL1  H18B  103   2.145   2.668   5.457  1.1911 -0.0606  0.9032
    2CHL1  H18C  104   2.128   2.570   5.611 -0.4281 -4.3341 -0.4478
    2CHL1   C12  105   1.907   2.746   5.570 -0.1075  0.1938  0.4872
    2CHL1  H12A  106   1.970   2.816   5.511  3.0552 -1.0357  2.1514
    2CHL1  H12B  107   1.798   2.767   5.562  0.1527  1.2661 -0.3960
    2CHL1   C11  108   1.956   2.759   5.714  0.0477 -0.2100  0.6008
    2CHL1  H11A  109   2.067   2.760   5.705 -0.0282 -0.1830 -0.4896
    2CHL1  H11B  110   1.912   2.858   5.735  0.4077  0.1822 -0.4325
    2CHL1    C9  111   1.897   2.652   5.814  0.2805  0.2938 -0.2791
    2CHL1    H9  112   1.789   2.673   5.800  0.4386  1.6364  0.3395
    2CHL1   C10  113   1.929   2.663   5.964  1.0051 -0.0300 -0.2864
    2CHL1   C19  114   2.088   2.683   5.967 -0.5879  0.1966  0.2242
    2CHL1  H19A  115   2.118   2.779   5.921  0.9788  0.9980  2.7159
    2CHL1  H19B  116   2.116   2.683   6.074 -3.6392 -1.8890  1.1416
    2CHL1  H19C  117   2.139   2.600   5.912  0.3359  0.9446 -0.0717
    2CHL1    C1  118   1.865   2.792   6.026 -0.0332  0.3943  0.0062
    2CHL1   H1A  119   1.911   2.878   5.974  2.9668 -0.8819  0.3371
    2CHL1   H1B  120   1.755   2.779   6.012 -0.1379  0.8225  0.4109
    2CHL1    C2  121   1.872   2.803   6.178 -0.3161 -0.6563  0.0270
    2CHL1   H2A  122   1.797   2.872   6.222 -0.3602 -1.8957  1.9962
    2CHL1   H2B  123   1.968   2.852   6.205 -0.0466 -1.3804  0.4111
    2CHL1   C20  124   1.930   2.607   5.244  0.3292  0.2289 -0.1234
    2CHL1   H20  125   2.040   2.590   5.235  0.4507 -0.0515  1.4700
    2CHL1   C21  126   1.923   2.758   5.240  0.3256 -0.7225  0.0998
    2CHL1  H21A  127   2.013   2.798   5.293  1.3057  0.9835 -2.6508
    2CHL1  H21B  128   1.829   2.801   5.281  0.3148 -0.3500 -0.3012
    2CHL1  H21C  129   1.936   2.810   5.143  0.5273  1.9327  1.4434
    2CHL1   C22  130   1.861   2.538   5.127  0.5170  0.5802  0.1006
    2CHL1  H22A  131   1.876   2.428   5.125 -0.2722  0.4771 -0.5289
    2CHL1  H22B  132   1.753   2.549   5.147  0.5353 -2.2570  2.5586
    2CHL1   C23  133   1.904   2.571   4.984 -0.0250 -0.0758  0.4252
    2CHL1  H23A  134   1.911   2.681   4.969 -2.5375  0.1454  0.3378
    2CHL1  H23B  135   2.007   2.539   4.958  0.7807  1.9565  0.9120
    2CHL1   C24  136   1.804   2.527   4.876  0.3902 -0.0219  0.6667
    2CHL1  H24A  137   1.796   2.416   4.880 -0.2196  0.0375  1.2411
    2CHL1  H24B  138   1.702   2.567   4.896  0.4999  1.1561 -0.9144
    2CHL1   C25  139   1.838   2.582   4.737 -0.0592 -0.3048 -0.8463
    2CHL1   H25  140   1.870   2.686   4.761 -1.8139 -0.3393  2.2750
    2CHL1   C26  141   1.962   2.515   4.668  0.0833 -0.1337 -0.9339
    2CHL1  H26A  142   2.043   2.514   4.745 -1.0750  1.2839  0.3757
    2CHL1  H26B  143   1.943   2.409   4.640  2.6735 -0.6079 -1.1556
    2CHL1  H26C  144   1.996   2.583   4.587 -0.1145  0.1082 -0.8184
    2CHL1   C27  145   1.715   2.584   4.643 -0.2132  0.2176  0.2494
    2CHL1  H27A  146   1.747   2.626   4.546  0.2948 -0.8752 -0.0751
    2CHL1  H27B  147   1.671   2.484   4.621  0.3763  0.2905 -1.3977
    2CHL1  H27C  148   1.642   2.655   4.686  0.4803  0.2193  1.4808
    3CHL1    C3  149   3.727   2.693   5.888  0.1249  0.0250 -0.4492
    3CHL1    H3  150   3.798   2.630   5.831  3.0516  2.3790  0.3043
    3CHL1    O3  151   3.767   2.699   6.020 -0.2307  0.0740 -0.8290
    3CHL1   H3'  152   3.771   2.792   6.046  1.1006 -0.0078 -0.6787
    3CHL1    C4  153   3.713   2.827   5.816  0.0933 -0.3145  0.1938
    3CHL1   H4A  154   3.646   2.897   5.870  0.0852  1.0379 -1.4769
    3CHL1   H4B  155   3.813   2.875   5.820  0.9822 -2.1461  1.7244
    3CHL1    C5  156   3.663   2.804   5.673  0.4888  0.0892  0.0522
    3CHL1    C6  157   3.735   2.853   5.570 -0.1197  0.0473 -0.2969
    3CHL1    H6  158   3.827   2.910   5.590 -0.2588  0.2762 -0.2962
    3CHL1    C7  159   3.676   2.842   5.433  0.2021  0.3058  0.0339
    3CHL1   H7A  160   3.697   2.934   5.373 -0.6082  1.3568  1.3073
    3CHL1   H7B  161   3.737   2.766   5.379 -1.0858 -1.2466  0.7261
    3CHL1    C8  162   3.533   2.787   5.413 -0.4797 -0.5207  0.1130
    3CHL1    H8  163   3.460   2.867   5.435  0.7206  0.7150 -0.2494
    3CHL1   C14  164   3.512   2.725   5.273 -0.8373  0.0891 -0.0603
    3CHL1   H14  165   3.569   2.630   5.269 -0.3082  0.3061  1.6548
    3CHL1   C15  166   3.576   2.796   5.151  0.0343 -0.0485  0.0414
    3CHL1  H15A  167   3.562   2.906   5.154  0.3107 -0.0216  0.4049
    3CHL1  H15B  168   3.685   2.778   5.140  0.6430  3.0834 -0.0005
    3CHL1   C16  169   3.480   2.747   5.036 -0.4198 -0.0720 -0.0624
    3CHL1  H16A  170   3.434   2.840   4.995  2.2588  1.3704  0.0362
    3CHL1  H16B  171   3.547   2.698   4.962  0.8956 -0.6410  1.4644
    3CHL1   C17  172   3.383   2.642   5.101  0.0208 -0.4378 -0.5559
    3CHL1   H17  173   3.443   2.548   5.097 -0.2047 -0.5471 -2.1088
    3CHL1   C13  174   3.371   2.683   5.247  0.3144 -0.3218 -0.1047
    3CHL1   C18  175   3.279   2.815   5.247 -0.0302  0.2641 -0.0849
    3CHL1  H18A  176   3.272   2.869   5.343  0.8350  1.8779 -0.8945
    3CHL1  H18B  177   3.314   2.882   5.166 -0.7065  1.4904  0.6158
    3CHL1  H18C  178   3.173   2.789   5.226 -0.2289 -0.5015  1.6937
    3CHL1   C12  179   3.332   2.577   5.351 -0.4495 -0.0924 -0.6401
    3CHL1  H12A  180   3.223   2.560   5.342 -1.0992  1.8989  2.1968
    3CHL1  H12B  181   3.387   2.483   5.328  1.0661  0.4979  0.4133
    3CHL1   C11  182   3.372   2.615   5.501  0.4245  0.0907 -0.7607
    3CHL1  H11A  183   3.293   2.690   5.522  2.6973  2.0710  1.2362
    3CHL1  H11B  184   3.348   2.525   5.561  0.1587  1.0220  0.5610
    3CHL1    C9  185   3.509   2.680   5.518 -0.1570 -0.1460  0.1063
    3CHL1    H9  186   3.585   2.604   5.490 -1.6903 -0.2157 -4.9036
    3CHL1   C10  187   3.532   2.716   5.668 -0.1771  0.2012  0.2596
    3CHL1   C19  188   3.409   2.795   5.721 -0.0670  0.0563 -0.3182
    3CHL1  H19A  189   3.422   2.825   5.827  1.0433 -1.9327  0.1449
    3CHL1  H19B  190   3.402   2.890   5.663  2.0257  0.6504  0.3250
    3CHL1  H19C  191   3.313   2.740   5.714 -0.8148  1.2383  0.3582
    3CHL1    C1  192   3.545   2.587   5.756 -0.4812 -0.2387  1.1630
    3CHL1   H1A  193   3.450   2.531   5.763 -0.1687 -1.1947 -1.2093
    3CHL1   H1B  194   3.617   2.525   5.698  1.2721  0.6423  2.2919
    3CHL1    C2  195   3.592   2.622   5.894  0.1284 -0.3236 -0.8670
    3CHL1   H2A  196   3.604   2.532   5.957  0.7992  0.6406  0.4407
    3CHL1   H2B  197   3.517   2.677   5.955  2.2714  1.3650  0.4037
    3CHL1   C20  198   3.263   2.612   5.014 -0.4248 -0.1157  0.4595
    3CHL1   H20  199   3.213   2.706   4.984 -0.8817 -0.1812  1.0045
    3CHL1   C21  200   3.159   2.522   5.085  0.5290  0.5431  0.2080
    3CHL1  H21A  201   3.072   2.508   5.016 -0.9132 -2.2279  2.3798
    3CHL1  H21B  202   3.115   2.575   5.172 -2.1448 -3.1374  1.3839
    3CHL1  H21C  203   3.198   2.421   5.111  0.5121  0.6780  0.7555
    3CHL1   C22  204   3.313   2.545   4.882  0.3927  0.6834  0.4874
    3CHL1  H22A  205   3.397   2.603   4.837  0.5318  3.0810  3.5267
    3CHL1  H22B  206   3.344   2.444   4.915  0.6713  1.0040  1.2217
    3CHL1   C23  207   3.203   2.518   4.771 -0.1255  0.1962 -0.0818
    3CHL1  H23A  208   3.137   2.439   4.812  0.8245 -0.0614  1.0005
    3CHL1  H23B  209   3.147   2.612   4.750  0.1286  0.0703 -1.3880
    3CHL1   C24  210   3.262   2.483   4.632 -0.1136  0.3355 -0.4806
    3CHL1  H24A  211   3.330   2.565   4.600 -1.6086  1.8008 -0.0342
    3CHL1  H24B  212   3.333   2.400   4.654 -1.3676 -0.5047  0.5163
    3CHL1   C25  213   3.166   2.431   4.524  0.0099  0.6086 -0.2931
    3CHL1   H25  214   3.125   2.335   4.563  0.0617 -0.0613 -1.8273
    3CHL1   C26  215   3.060   2.541   4.511  0.3281 -0.0280  1.3427
    3CHL1  H26A  216   3.108   2.639   4.489 -0.0880  0.0341  0.6813
    3CHL1  H26B  217   2.989   2.519   4.430 -0.4854  0.2220  1.9753
    3CHL1  H26C  218   2.995   2.541   4.601 -0.0376  0.3166  1.0840
    3CHL1   C27  219   3.234   2.415   4.390 -0.0584 -0.2123  0.6251
    3CHL1  H27A  220   3.303   2.500   4.370  1.5619 -1.2679  1.5483
    3CHL1  H27B  221   3.286   2.317   4.384 -0.0474 -0.1105 -2.0492
    3CHL1  H27C  222   3.155   2.405   4.312 -0.4684  1.5913  0.7696
    4CHL1    C3  223   2.930   3.118   6.302 -0.2337 -0.7080  0.2789
    4CHL1    H3  224   2.825   3.084   6.303 -0.9904  1.0258 -3.9511
    4CHL1    O3  225   2.968   3.170   6.434 -0.3281 -0.2677  0.7580
    4CHL1   H3'  226   2.910   3.244   6.455  0.1621  0.5903 -0.7430
    4CHL1    C4  227   3.028   3.003   6.262  0.1870  0.2113  0.4566
    4CHL1   H4A  228   3.133   3.038   6.276 -0.5821  1.4196  4.3406
    4CHL1   H4B  229   3.026   2.928   6.344  2.1895  1.0300  1.3241
    4CHL1    C5  230   3.011   2.955   6.122 -0.7372  0.0643  1.0214
    4CHL1    C6  231   2.989   2.821   6.101 -0.6526 -0.2330 -0.0182
    4CHL1    H6  232   2.992   2.748   6.183  0.2078  0.7308  0.8444
    4CHL1    C7  233   2.962   2.764   5.963  0.0548  0.1251  0.3253
    4CHL1   H7A  234   3.028   2.675   5.955  1.4280  1.2086 -0.9145
    4CHL1   H7B  235   2.854   2.738   5.957 -0.3747  2.0786 -2.7053
    4CHL1    C8  236   2.972   2.863   5.843 -0.4671  0.2883  0.0495
    4CHL1    H8  237   3.082   2.857   5.829 -0.3173 -1.4436  1.5985
    4CHL1   C14  238   2.911   2.806   5.715  0.3294 -0.2140  0.8388
    4CHL1   H14  239   2.800   2.803   5.726  0.2712  0.5333  0.5372
    4CHL1   C15  240   2.942   2.661   5.675 -0.1960 -0.1391  0.3039
    4CHL1  H15A  241   3.051   2.641   5.688 -0.2469 -0.0909  0.7906
    4CHL1  H15B  242   2.885   2.587   5.735  0.7179  0.7634  2.3552
    4CHL1   C16  243   2.909   2.667   5.526  0.2844  0.1031  0.3354
    4CHL1  H16A  244   2.996   2.638   5.463  0.8333 -0.6695  1.4081
    4CHL1  H16B  245   2.834   2.589   5.498  1.4159 -0.3387 -1.6143
    4CHL1   C17  246   2.871   2.810   5.486  0.2903  0.0292 -0.2715
    4CHL1   H17  247   2.762   2.827   5.500  0.2594  1.3123 -1.7709
    4CHL1   C13  248   2.943   2.895   5.592 -0.0328  0.5602 -0.4900
    4CHL1   C18  249   3.089   2.911   5.559 -0.0203 -0.0994  0.0050
    4CHL1  H18A  250   3.104   2.959   5.460  0.0631  0.6533  0.3702
    4CHL1  H18B  251   3.132   2.980   5.635  0.1165 -1.1817  0.9307
    4CHL1  H18C  252   3.147   2.817   5.554  2.1912  1.1018  1.3543
    4CHL1   C12  253   2.882   3.038   5.620  0.7011  0.2862 -0.5820
    4CHL1  H12A  254   2.899   3.107   5.535 -2.1513  1.7198 -0.1302
    4CHL1  H12B  255   2.774   3.013   5.631  0.9800 -0.1404  1.5979
    4CHL1   C11  256   2.927   3.108   5.756  0.5678 -0.8806  0.4419
    4CHL1  H11A  257   3.030   3.145   5.739  0.2019  0.3095  0.7059
    4CHL1  H11B  258   2.855   3.189   5.780 -0.5533 -1.6260 -0.3060
    4CHL1    C9  259   2.923   3.002   5.877 -0.1413 -1.0031 -0.6561
    4CHL1    H9  260   2.818   2.984   5.908  0.0203  1.4200  1.6524
    4CHL1   C10  261   2.991   3.056   6.010  0.5404  0.0268 -0.4321
    4CHL1   C19  262   3.141   3.104   5.976  0.4765  0.1734 -0.6046
    4CHL1  H19A  263   3.190   3.016   5.929  0.8190  0.3499 -0.5757
    4CHL1  H19B  264   3.142   3.187   5.903  1.7415  1.9024  1.2895
    4CHL1  H19C  265   3.196   3.133   6.068  1.6088  0.0053 -1.2198
    4CHL1    C1  266   2.895   3.167   6.063 -0.4249 -0.1297 -0.2488
    4CHL1   H1A  267   2.894   3.251   5.990  1.5846 -1.6153 -2.1176
    4CHL1   H1B  268   2.792   3.126   6.063 -0.2104 -1.0720  3.4297
    4CHL1    C2  269   2.950   3.226   6.198  0.1927 -0.2183  0.2397
    4CHL1   H2A  270   2.896   3.319   6.227  0.3697 -0.4238  1.2837
    4CHL1   H2B  271   3.058   3.253   6.192  0.6062 -1.3447  1.9064
    4CHL1   C20  272   2.898   2.835   5.341  0.7339  0.5117  0.2472
    4CHL1   H20  273   3.003   2.818   5.310  0.0068  0.4177 -2.4305
    4CHL1   C21  274   2.855   2.979   5.306 -0.0490 -0.0012  0.4835
    4CHL1  H21A  275   2.877   2.988   5.197  0.7773  1.4090  0.7390
    4CHL1  H21B  276   2.923   3.057   5.347 -0.0136  0.3172 -0.1708
    4CHL1  H21C  277   2.751   2.993   5.342  0.3944  2.0387  1.1091
    4CHL1   C22  278   2.808   2.734   5.257  1.0969 -0.2705 -1.1631
    4CHL1  H22A  279   2.835   2.629   5.280  1.2657  0.3299  1.7517
    4CHL1  H22B  280   2.700   2.734   5.284 -0.5204  1.6469 -6.2319
    4CHL1   C23  281   2.804   2.757   5.100 -0.4606  0.1798 -0.6066
    4CHL1  H23A  282   2.742   2.846   5.075 -1.8010 -0.7458 -0.6332
    4CHL1  H23B  283   2.912   2.764   5.074 -0.4127  1.3650 -0.1549
    4CHL1   C24  284   2.733   2.643   5.026 -0.0282 -0.0249  0.2954
    4CHL1  H24A  285   2.759   2.543   5.067  1.0937  1.1276  2.5874
    4CHL1  H24B  286   2.628   2.658   5.058 -0.3623 -0.5544 -0.5152
    4CHL1   C25  287   2.738   2.673   4.871 -0.6638  0.7936  0.1350
    4CHL1   H25  288   2.710   2.780   4.868 -0.8715  0.8785  2.9349
    4CHL1   C26  289   2.884   2.657   4.826  1.0529 -0.6205 -0.1456
    4CHL1  H26A  290   2.896   2.709   4.729  1.6661  0.8146  0.6718
    4CHL1  H26B  291   2.956   2.701   4.898 -0.1002 -0.6862  1.1026
    4CHL1  H26C  292   2.913   2.553   4.801  0.6663 -0.3033 -2.0373
    4CHL1   C27  293   2.637   2.590   4.791  1.1251 -0.4298 -0.5465
    4CHL1  H27A  294   2.536   2.632   4.811  0.9687 -0.7653 -0.6267
    4CHL1  H27B  295   2.654   2.599   4.682  0.4995  0.2359 -0.5982
    4CHL1  H27C  296   2.641   2.487   4.832 -2.0322 -0.0324  1.0749
    5CHL1    C3  297   1.438   4.305   6.070  0.1305 -0.3848  0.2559
    5CHL1    H3  298   1.460   4.400   6.018 -3.1215  1.0156  1.1922
    5CHL1    O3  299   1.464   4.329   6.208 -0.5893  0.2749  0.7361
    5CHL1   H3'  300   1.381   4.355   6.248 -1.7669  0.8020 -1.8917
    5CHL1    C4  301   1.293   4.266   6.040  0.2650  0.0216 -0.0129
    5CHL1   H4A  302   1.279   4.171   6.096  0.0324 -0.0126 -0.1286
    5CHL1   H4B  303   1.218   4.342   6.073 -0.0139  1.3258 -3.2358
    5CHL1    C5  304   1.276   4.247   5.895  0.1112  0.0876  0.2246
    5CHL1    C6  305   1.190   4.325   5.820 -0.1489 -0.3050  0.2122
    5CHL1    H6  306   1.119   4.389   5.875 -0.6463  0.1977 -0.9858
    5CHL1    C7  307   1.178   4.326   5.671 -0.4889 -0.2761  1.0026
    5CHL1   H7A  308   1.073   4.343   5.637  0.0180  1.3714  0.1252
    5CHL1   H7B  309   1.235   4.419   5.648 -0.8149  0.3440  2.5740
    5CHL1    C8  310   1.234   4.193   5.613  0.4141 -0.2083 -0.4951
    5CHL1    H8  311   1.157   4.120   5.643  1.6395 -0.6308  1.8227
    5CHL1   C14  312   1.227   4.202   5.458  0.4628 -0.6385 -0.5696
    5CHL1   H14  313   1.286   4.294   5.440 -1.3619  0.2850 -2.1315
    5CHL1   C15  314   1.099   4.226   5.383  0.6419 -0.2778 -0.1176
    5CHL1  H15A  315   1.032   4.142   5.409 -0.2285  0.5994  0.5442
    5CHL1  H15B  316   1.047   4.319   5.416 -1.1958 -0.3431 -2.5331
    5CHL1   C16  317   1.140   4.206   5.240  0.7100  0.0957  0.3678
    5CHL1  H16A  318   1.061   4.151   5.183 -0.0758  0.3909  1.1418
    5CHL1  H16B  319   1.155   4.303   5.187  0.6311  1.4423  2.6871
    5CHL1   C17  320   1.278   4.136   5.242 -0.2778 -0.1022  0.4836
    5CHL1   H17  321   1.351   4.215   5.214  0.2279 -0.3693  1.0327
    5CHL1   C13  322   1.303   4.092   5.386 -0.0788  0.3255 -0.2749
    5CHL1   C18  323   1.232   3.957   5.411  0.6985 -0.1186 -0.0713
    5CHL1  H18A  324   1.233   3.936   5.520  0.7224 -0.1612 -0.0797
    5CHL1  H18B  325   1.124   3.973   5.393  0.2918 -0.3872  1.8818
    5CHL1  H18C  326   1.270   3.876   5.344  0.7613  1.7157 -2.3665
    5CHL1   C12  327   1.450   4.089   5.431  0.0768  0.3709  0.1198
    5CHL1  H12A  328   1.506   4.014   5.371  1.8116  1.3157  0.5116
    5CHL1  H12B  329   1.506   4.183   5.412  2.2094 -0.7990  0.3280
    5CHL1   C11  330   1.465   4.070   5.579  1.0039  0.1635  0.5557
    5CHL1  H11A  331   1.434   3.968   5.613  0.9571  0.7765  2.4854
    5CHL1  H11B  332   1.572   4.076   5.607  1.6164 -1.0125 -1.3718
    5CHL1    C9  333   1.374   4.171   5.660 -0.4551 -0.0117 -0.6182
    5CHL1    H9  334   1.427   4.267   5.644  1.6509 -0.9199  0.4705
    5CHL1   C10  335   1.379   4.158   5.822  0.3384  0.1359 -0.5658
    5CHL1   C19  336   1.348   4.004   5.848  0.2455 -0.1632 -0.0377
    5CHL1  H19A  337   1.258   3.967   5.793 -0.4291  0.3022  0.7401
    5CHL1  H19B  338   1.430   3.936   5.818  0.2314  0.0468 -0.5693
    5CHL1  H19C  339   1.329   3.982   5.955 -2.3763 -0.0008 -0.3904
    5CHL1    C1  340   1.523   4.181   5.871  0.4284 -0.0446  0.5045
    5CHL1   H1A  341   1.585   4.100   5.829  0.1739  0.2240 -0.4124
    5CHL1   H1B  342   1.555   4.271   5.815 -1.8171  1.8602  2.0696
    5CHL1    C2  343   1.537   4.197   6.018 -0.0773  0.1306 -0.3530
    5CHL1   H2A  344   1.637   4.232   6.051 -0.7522  0.9689  0.9051
    5CHL1   H2B  345   1.508   4.102   6.066  2.3571  0.1538  1.3506
    5CHL1   C20  346   1.277   4.036   5.129  0.8400 -0.4464  0.0451
    5CHL1   H20  347   1.200   3.959   5.154 -0.9141  1.1556 -0.1992
    5CHL1   C21  348   1.409   3.967   5.111 -0.4620  0.2604  0.1150
    5CHL1  H21A  349   1.395   3.881   5.042  0.7016 -0.6511  0.9920
    5CHL1  H21B  350   1.461   3.927   5.200  1.0757  1.1987 -0.3172
    5CHL1  H21C  351   1.490   4.024   5.060 -0.4400  0.8282  0.7765
    5CHL1   C22  352   1.238   4.100   4.987  0.5203  0.0761  0.1883
    5CHL1  H22A  353   1.138   4.149   4.992  0.5206  0.2536 -1.1600
    5CHL1  H22B  354   1.304   4.181   4.952 -1.5708  1.3960 -0.9323
    5CHL1   C23  355   1.214   4.011   4.870  0.2786 -0.4559  0.0936
    5CHL1  H23A  356   1.309   3.957   4.855 -0.1367 -1.6521  1.4628
    5CHL1  H23B  357   1.141   3.931   4.895  1.9262 -1.5195  1.7152
    5CHL1   C24  358   1.181   4.095   4.737 -0.2499  0.4476 -0.5924
    5CHL1  H24A  359   1.080   4.138   4.755 -0.1085  0.4228  0.2740
    5CHL1  H24B  360   1.253   4.179   4.734  0.1597  0.1799  1.0077
    5CHL1   C25  361   1.191   4.020   4.601 -0.6303 -0.2983 -0.0227
    5CHL1   H25  362   1.281   3.955   4.597 -0.2525  0.1775  0.6085
    5CHL1   C26  363   1.076   3.912   4.593 -1.1927  0.5865  0.2679
    5CHL1  H26A  364   1.059   3.862   4.691 -1.0030 -0.0638 -0.0289
    5CHL1  H26B  365   0.986   3.971   4.564 -1.4154 -0.9196 -2.3371
    5CHL1  H26C  366   1.094   3.846   4.506 -0.2201  2.2116 -0.8217
    5CHL1   C27  367   1.188   4.118   4.488  0.0641  0.0745  0.5556
    5CHL1  H27A  368   1.289   4.162   4.473 -0.3007  0.4237 -1.0875
    5CHL1  H27B  369   1.176   4.060   4.394  0.0105  1.6663 -0.4491
    5CHL1  H27C  370   1.110   4.195   4.505 -0.5457 -0.4821  0.3070
    6CHL1    C3  371   1.320   2.598   6.199 -0.2482  0.4887  0.5705
    6CHL1    H3  372   1.253   2.674   6.154 -0.9234  0.3747  1.3627
    6CHL1    O3  373   1.325   2.618   6.338  0.0385 -0.2283  0.4745
    6CHL1   H3'  374   1.336   2.714   6.337  0.4634 -0.2395 -1.7814
    6CHL1    C4  375   1.276   2.453   6.179 -0.3427 -0.9885 -0.5455
    6CHL1   H4A  376   1.355   2.388   6.223 -0.2211 -0.2745  0.3088
    6CHL1   H4B  377   1.184   2.421   6.231 -0.5526 -0.9530 -0.8918
    6CHL1    C5  378   1.269   2.423   6.030 -0.0815  0.3326 -0.7068
    6CHL1    C6  379   1.149   2.395   5.978  0.2454  0.4764  0.0166
    6CHL1    H6  380   1.064   2.390   6.048  1.0574 -1.3578  0.9555
    6CHL1    C7  381   1.135   2.335   5.837  0.5340  0.0754  0.4673
    6CHL1   H7A  382   1.072   2.244   5.835 -1.2693  1.2856 -1.0376
    6CHL1   H7B  383   1.073   2.416   5.792 -0.6358 -0.3713  1.2419
    6CHL1    C8  384   1.261   2.308   5.766 -0.6013  0.5438 -0.4837
    6CHL1    H8  385   1.323   2.220   5.793  1.9001  2.2716 -0.1657
    6CHL1   C14  386   1.230   2.298   5.621 -0.8777  0.0364  0.2151
    6CHL1   H14  387   1.195   2.400   5.595  0.9660  0.8826  0.8702
    6CHL1   C15  388   1.127   2.197   5.577 -0.2192 -0.0020  1.0451
    6CHL1  H15A  389   1.142   2.099   5.627 -2.4131 -0.3211  1.1418
    6CHL1  H15B  390   1.022   2.233   5.583 -0.4890 -0.5962  0.1315
    6CHL1   C16  391   1.151   2.175   5.423 -0.0869  0.7348 -0.4063
    6CHL1  H16A  392   1.176   2.068   5.408  0.6724  0.9518 -0.7227
    6CHL1  H16B  393   1.069   2.215   5.360 -1.5659 -2.2554 -0.5462
    6CHL1   C17  394   1.271   2.268   5.387 -0.1717  0.0531  0.3247
    6CHL1   H17  395   1.240   2.369   5.354 -1.5875 -1.7091 -4.6137
    6CHL1   C13  396   1.355   2.284   5.520 -0.1362  0.1672 -0.4891
    6CHL1   C18  397   1.425   2.150   5.546  0.0547 -0.3739  0.0862
    6CHL1  H18A  398   1.461   2.145   5.651 -1.6148 -1.1665  0.6469
    6CHL1  H18B  399   1.362   2.061   5.525  0.9714 -0.6953 -1.5262
    6CHL1  H18C  400   1.507   2.131   5.472  0.6330 -1.9559  1.0887
    6CHL1   C12  401   1.442   2.405   5.544 -0.1412  1.0988 -0.0211
    6CHL1  H12A  402   1.537   2.412   5.486  1.5466 -0.1103  2.4208
    6CHL1  H12B  403   1.382   2.497   5.529 -2.2306 -0.3885 -1.1651
    6CHL1   C11  404   1.481   2.413   5.691 -0.0165 -0.2664  0.0755
    6CHL1  H11A  405   1.537   2.319   5.710  0.8556  0.2085 -0.0828
    6CHL1  H11B  406   1.547   2.499   5.716  0.1255 -0.9437  2.1696
    6CHL1    C9  407   1.362   2.426   5.788  0.0867  0.1080 -0.3530
    6CHL1    H9  408   1.314   2.521   5.756 -2.4710 -1.6694 -2.2185
    6CHL1   C10  409   1.396   2.433   5.948  0.2919  0.0210  0.0662
    6CHL1   C19  410   1.488   2.314   5.982  0.3044  0.2682  0.2420
    6CHL1  H19A  411   1.545   2.330   6.076  0.9099 -1.0335  0.1140
    6CHL1  H19B  412   1.421   2.226   5.991 -0.0755  0.6162  0.9621
    6CHL1  H19C  413   1.571   2.310   5.908 -2.1887  3.0824 -3.0586
    6CHL1    C1  414   1.464   2.570   5.978  0.4282 -0.4601 -0.3195
    6CHL1   H1A  415   1.571   2.565   5.949  0.5198  0.0334 -0.0686
    6CHL1   H1B  416   1.413   2.647   5.917 -1.1919 -1.8061 -0.7286
    6CHL1    C2  417   1.453   2.612   6.127  0.2619  0.0377  0.7119
    6CHL1   H2A  418   1.486   2.718   6.130  1.9632 -0.1672 -3.8785
    6CHL1   H2B  419   1.540   2.561   6.175  2.1861  2.7291  0.3045
    6CHL1   C20  420   1.336   2.218   5.263 -0.3841  0.2029 -0.6260
    6CHL1   H20  421   1.393   2.124   5.274 -0.1393  0.3345 -0.7379
    6CHL1   C21  422   1.450   2.311   5.224 -0.7698  0.4101  0.0895
    6CHL1  H21A  423   1.513   2.302   5.315 -0.0890  0.0786 -0.4030
    6CHL1  H21B  424   1.420   2.417   5.205 -0.2640  0.2250 -1.9966
    6CHL1  H21C  425   1.505   2.283   5.132  1.4568  1.4367  1.0304
    6CHL1   C22  426   1.244   2.190   5.147  0.1309  0.0245 -0.5439
    6CHL1  H22A  427   1.160   2.121   5.171  0.3652 -0.5406 -1.2867
    6CHL1  H22B  428   1.206   2.289   5.115  0.7310  1.4187  2.7573
    6CHL1   C23  429   1.316   2.108   5.031  0.3392 -0.4538 -0.2365
    6CHL1  H23A  430   1.402   2.157   4.980 -1.2057  0.4074 -2.1394
    6CHL1  H23B  431   1.351   2.016   5.082  0.4449 -0.6534 -0.6621
    6CHL1   C24  432   1.206   2.064   4.922 -0.2110 -0.2692 -0.3725
    6CHL1  H24A  433   1.124   2.019   4.981  2.0621 -1.4944  2.0573
    6CHL1  H24B  434   1.159   2.158   4.885  2.9154  0.4314 -3.0361
    6CHL1   C25  435   1.267   1.959   4.821 -0.1727 -0.5451  0.9880
    6CHL1   H25  436   1.324   1.883   4.878 -1.8182 -1.6240  1.2756
    6CHL1   C26  437   1.159   1.885   4.734  0.1055  0.3728  0.2961
    6CHL1  H26A  438   1.087   1.948   4.680  2.0478  1.1233 -1.5520
    6CHL1  H26B  439   1.201   1.810   4.663 -1.3011  0.5797 -0.7807
    6CHL1  H26C  440   1.106   1.816   4.803 -0.5933  0.5432 -0.0709
    6CHL1   C27  441   1.366   2.034   4.723 -0.4042  0.4644 -0.4067
    6CHL1  H27A  442   1.305   2.093   4.651 -0.2139 -0.1177 -1.0525
    6CHL1  H27B  443   1.443   2.098   4.771  1.6863 -1.2275 -1.3314
    6CHL1  H27C  444   1.426   1.958   4.668  1.4966  2.1158 -0.7294
    7CHL1    C3  445   4.554   2.193   6.146  0.0086 -0.0235 -0.0083
    7CHL1    H3  446   4.564   2.303   6.140 -0.6108  0.0306 -0.1180
    7CHL1    O3  447   4.557   2.154   6.282  0.2323 -0.1334  0.9474
    7CHL1   H3'  448   4.487   2.201   6.328  1.1273  2.0321  0.2492
    7CHL1    C4  449   4.423   2.146   6.089 -0.1954  0.0046  0.6043
    7CHL1   H4A  450   4.409   2.036   6.089  1.0525 -0.2588 -2.1247
    7CHL1   H4B  451   4.339   2.191   6.145 -0.5174 -0.6123  0.6295
    7CHL1    C5  452   4.413   2.187   5.938 -0.5030 -0.7723  0.4467
    7CHL1    C6  453   4.332   2.285   5.900  0.2651 -0.7989  0.1252
    7CHL1    H6  454   4.259   2.330   5.970 -0.8248  0.2851 -1.6229
    7CHL1    C7  455   4.314   2.331   5.754 -0.1915  0.4885 -0.3675
    7CHL1   H7A  456   4.206   2.331   5.729 -0.5413 -0.5288  1.0070
    7CHL1   H7B  457   4.357   2.434   5.746  0.5484  0.2437  0.2959
    7CHL1    C8  458   4.392   2.247   5.652  0.4380 -0.1444 -0.5993
    7CHL1    H8  459   4.330   2.158   5.630 -1.6597  1.4591 -1.5895
    7CHL1   C14  460   4.402   2.323   5.523  0.4083  0.0165 -0.1255
    7CHL1   H14  461   4.471   2.409   5.535  2.5998 -0.9259 -4.0471
    7CHL1   C15  462   4.276   2.381   5.460 -0.4361 -0.0971  0.5319
    7CHL1  H15A  463   4.187   2.314   5.466  1.0230 -2.3698 -1.1251
    7CHL1  H15B  464   4.239   2.473   5.509  0.6416 -0.4417  2.0355
    7CHL1   C16  465   4.317   2.398   5.313  0.0898  0.1491 -0.1219
    7CHL1  H16A  466   4.252   2.336   5.248  0.8624 -0.5260 -0.2720
    7CHL1  H16B  467   4.320   2.505   5.284 -0.4116 -0.1312 -1.2696
    7CHL1   C17  468   4.461   2.334   5.287  0.0346 -0.1041 -0.6821
    7CHL1   H17  469   4.523   2.424   5.303 -2.3298  1.3564  0.7888
    7CHL1   C13  470   4.481   2.239   5.410  0.2022  0.1260 -0.2959
    7CHL1   C18  471   4.410   2.105   5.386  0.6865  0.6151  0.2224
    7CHL1  H18A  472   4.443   2.052   5.294 -2.2313 -0.9560 -0.0438
    7CHL1  H18B  473   4.430   2.034   5.470  0.1965  2.3279  1.8490
    7CHL1  H18C  474   4.300   2.112   5.371  0.4948 -3.2631 -1.4654
    7CHL1   C12  475   4.627   2.230   5.468  0.0983  1.1208 -0.0579
    7CHL1  H12A  476   4.696   2.182   5.395  1.4628 -0.9476  2.4145
    7CHL1  H12B  477   4.657   2.332   5.499  0.4864  1.3106 -1.0484
    7CHL1   C11  478   4.627   2.147   5.595  0.1824 -0.4733  0.0953
    7CHL1  H11A  479   4.605   2.041   5.571 -2.6747  0.4255 -1.7871
    7CHL1  H11B  480   4.730   2.144   5.637  0.3289  1.5644 -0.0400
    7CHL1    C9  481   4.529   2.209   5.703  0.1395  0.8260 -0.1572
    7CHL1    H9  482   4.572   2.309   5.728 -1.3625  1.2827  0.6945
    7CHL1   C10  483   4.532   2.139   5.850 -0.2705 -0.7623  0.6666
    7CHL1   C19  484   4.533   1.983   5.815  0.1520 -0.0540 -0.3598
    7CHL1  H19A  485   4.439   1.949   5.766 -1.0728 -0.1594  1.9674
    7CHL1  H19B  486   4.622   1.953   5.755 -0.1620  0.6193 -1.1841
    7CHL1  H19C  487   4.533   1.919   5.905 -1.6448 -0.9570 -0.9390
    7CHL1    C1  488   4.671   2.174   5.912  0.9567  0.3158 -0.5854
    7CHL1   H1A  489   4.753   2.120   5.860  1.4974  0.5249  0.0351
    7CHL1   H1B  490   4.690   2.283   5.904 -1.5336  0.8400 -0.1280
    7CHL1    C2  491   4.669   2.123   6.057  0.1696  0.2606 -1.0764
    7CHL1   H2A  492   4.770   2.136   6.102 -0.5019  0.8669  0.3276
    7CHL1   H2B  493   4.661   2.013   6.064  2.0447  0.1959  3.5887
    7CHL1   C20  494   4.491   2.278   5.145 -0.0889 -1.0234  0.4083
    7CHL1   H20  495   4.448   2.178   5.129  2.9776 -2.4215  0.1458
    7CHL1   C21  496   4.651   2.253   5.125  0.8304  0.6593  0.8997
    7CHL1  H21A  497   4.722   2.325   5.170 -0.2089  1.3502  1.4691
    7CHL1  H21B  498   4.673   2.239   5.017  0.0251 -1.2454  0.9312
    7CHL1  H21C  499   4.665   2.153   5.172  3.7237  1.3505  1.6995
    7CHL1   C22  500   4.434   2.375   5.032  0.5986 -0.2753 -0.7174
    7CHL1  H22A  501   4.325   2.391   5.042  0.3978 -1.9643  0.2017
    7CHL1  H22B  502   4.483   2.475   5.026 -0.1142  0.0873 -0.5970
    7CHL1   C23  503   4.451   2.320   4.892 -0.1108  0.5773 -0.4233
    7CHL1  H23A  504   4.558   2.323   4.865 -0.0187  1.0623 -0.0240
    7CHL1  H23B  505   4.436   2.210   4.891  0.4672  0.4994 -0.9383
    7CHL1   C24  506   4.367   2.396   4.796  0.1362 -0.1225 -0.1843
    7CHL1  H24A  507   4.260   2.399   4.823 -0.1956  0.6415 -1.4849
    7CHL1  H24B  508   4.407   2.499   4.787 -0.7198  0.2890  0.6825
    7CHL1   C25  509   4.376   2.345   4.654 -1.0051 -0.1408  0.0322
    7CHL1   H25  510   4.479   2.309   4.637 -0.3727  0.8682  1.5011
    7CHL1   C26  511   4.310   2.211   4.647 -0.0580 -0.2661 -0.5700
    7CHL1  H26A  512   4.318   2.163   4.546  2.6293  1.0726 -1.0953
    7CHL1  H26B  513   4.363   2.140   4.713 -1.5899 -0.9273 -0.0016
    7CHL1  H26C  514   4.202   2.223   4.670  0.4262  1.1501  1.1330
    7CHL1   C27  515   4.332   2.440   4.548  0.3136 -0.3240  0.4928
    7CHL1  H27A  516   4.222   2.448   4.532  0.0940 -3.8123 -0.5741
    7CHL1  H27B  517   4.367   2.545   4.559  0.2223 -0.3021  0.5811
    7CHL1  H27C  518   4.370   2.416   4.447 -1.2847  1.6489 -0.6559
    8CHL1    C3  519   2.018   3.264   5.928  0.3491  0.4468 -0.2123
    8CHL1    H3  520   2.109   3.326   5.940  0.2697  0.7137 -0.9660
    8CHL1    O3  521   1.975   3.238   6.057  0.6723 -0.4152  0.0292
    8CHL1   H3'  522   2.037   3.188   6.112 -1.0615 -1.9224  0.7097
    8CHL1    C4  523   1.913   3.345   5.842 -0.2906 -0.0227 -0.0913
    8CHL1   H4A  524   1.808   3.315   5.864 -0.5343  2.0732  2.0186
    8CHL1   H4B  525   1.915   3.435   5.907 -1.9604 -2.2340  3.3753
    8CHL1    C5  526   1.954   3.354   5.695 -0.5119 -0.1144 -0.3113
    8CHL1    C6  527   1.963   3.475   5.636 -0.2906 -0.5328 -0.5170
    8CHL1    H6  528   1.937   3.566   5.692 -1.4978 -1.2458  0.1334
    8CHL1    C7  529   2.011   3.502   5.493  0.2051 -0.1287  0.4896
    8CHL1   H7A  530   1.961   3.590   5.447  0.6639  1.5924  3.0264
    8CHL1   H7B  531   2.121   3.511   5.507  0.2945 -1.6886  0.9265
    8CHL1    C8  532   1.984   3.371   5.407 -0.8392 -0.0290  0.1485
    8CHL1    H8  533   1.873   3.358   5.405 -0.7437 -1.3425  1.6035
    8CHL1   C14  534   2.049   3.383   5.275 -0.1759 -0.2734  0.0560
    8CHL1   H14  535   2.156   3.403   5.298 -0.3570  0.0057  0.6853
    8CHL1   C15  536   2.001   3.505   5.191  0.2379  0.3192 -0.2440
    8CHL1  H15A  537   1.890   3.509   5.193  0.0973 -2.1936  1.0647
    8CHL1  H15B  538   2.035   3.605   5.223  1.1555 -0.3757  1.0652
    8CHL1   C16  539   2.057   3.473   5.048  0.1371 -0.0212 -0.1609
    8CHL1  H16A  540   1.980   3.476   4.968  0.8571  0.6022 -0.8460
    8CHL1  H16B  541   2.131   3.544   5.005 -0.4847 -0.3888 -1.9371
    8CHL1   C17  542   2.119   3.326   5.059 -0.2428  0.0416  0.4490
    8CHL1   H17  543   2.221   3.344   5.097 -0.4046  0.5824  0.6358
    8CHL1   C13  544   2.047   3.266   5.182  0.0635  0.1539  1.4413
    8CHL1   C18  545   1.904   3.211   5.136 -0.8237 -0.2991 -0.3921
    8CHL1  H18A  546   1.839   3.175   5.219 -0.4866  0.9532  0.4520
    8CHL1  H18B  547   1.853   3.295   5.084 -1.7861  0.0604  1.0563
    8CHL1  H18C  548   1.912   3.128   5.063  0.0350 -1.1245  0.6150
    8CHL1   C12  549   2.112   3.146   5.251 -0.9298 -0.7192  0.6079
    8CHL1  H12A  550   2.099   3.060   5.182 -0.8094  0.1097 -0.4667
    8CHL1  H12B  551   2.218   3.164   5.282 -1.0794  0.9383  0.2588
    8CHL1   C11  552   2.047   3.119   5.386 -0.2363  0.5593  0.3286
    8CHL1  H11A  553   1.945   3.082   5.361 -0.3973  1.6019 -0.6559
    8CHL1  H11B  554   2.098   3.041   5.446 -0.1803 -0.1394 -0.6023
    8CHL1    C9  555   2.037   3.243   5.484 -0.4193  0.3872  0.5172
    8CHL1    H9  556   2.142   3.275   5.501 -0.0808 -0.6950  0.5618
    8CHL1   C10  557   1.981   3.223   5.629 -0.0183  0.8098 -0.1264
    8CHL1   C19  558   1.842   3.157   5.613 -0.5476  0.5707  0.4352
    8CHL1  H19A  559   1.849   3.051   5.580  0.0393  1.0861 -1.2011
    8CHL1  H19B  560   1.775   3.147   5.701  0.5889 -2.9647  1.0666
    8CHL1  H19C  561   1.786   3.208   5.532  0.2412 -0.2169 -0.6310
    8CHL1    C1  562   2.077   3.134   5.716  0.4628  0.5880 -0.3888
    8CHL1   H1A  563   2.084   3.031   5.674  1.0215 -0.5184  2.2084
    8CHL1   H1B  564   2.176   3.184   5.706  0.2799  0.6999 -1.8705
    8CHL1    C2  565   2.042   3.128   5.864  0.1367 -0.3425 -0.1408
    8CHL1   H2A  566   2.117   3.069   5.920  1.3259  1.6668  0.4622
    8CHL1   H2B  567   1.941   3.082   5.875  1.0336 -3.2327 -2.5913
    8CHL1   C20  568   2.133   3.259   4.922  0.2367 -0.0828  0.0414
    8CHL1   H20  569   2.148   3.152   4.951 -2.4623 -0.1493  1.4722
    8CHL1   C21  570   2.262   3.299   4.856  0.0790 -0.0137  0.1880
    8CHL1  H21A  571   2.344   3.276   4.928  0.9634  0.0395 -0.7883
    8CHL1  H21B  572   2.262   3.406   4.826 -0.3091  0.3966  1.5573
    8CHL1  H21C  573   2.278   3.241   4.763  1.2428 -0.1674  0.4636
    8CHL1   C22  574   2.013   3.271   4.822  1.0369 -0.6468  0.4478
    8CHL1  H22A  575   1.916   3.271   4.878 -0.6389 -4.6146 -2.0407
    8CHL1  H22B  576   2.019   3.365   4.764  0.3687 -0.6734  0.3282
    8CHL1   C23  577   1.987   3.150   4.716  0.0322  0.2457 -0.3769
    8CHL1  H23A  578   2.068   3.153   4.639 -0.9273 -1.7778 -1.5495
    8CHL1  H23B  579   1.997   3.058   4.776  0.1982 -0.5605 -1.6074
    8CHL1   C24  580   1.860   3.143   4.634  0.5684 -0.2177 -0.5721
    8CHL1  H24A  581   1.847   3.235   4.572  0.2748  1.1483  1.4138
    8CHL1  H24B  582   1.875   3.054   4.569  0.6247 -0.2315 -0.5402
    8CHL1   C25  583   1.732   3.114   4.709  0.2493  0.0267 -0.4850
    8CHL1   H25  584   1.704   3.202   4.772  0.3941 -1.0071  1.0721
    8CHL1   C26  585   1.618   3.089   4.610 -0.1485  0.3751  0.1606
    8CHL1  H26A  586   1.613   3.165   4.529  3.1231 -0.1177 -0.6428
    8CHL1  H26B  587   1.648   3.001   4.549  1.5008  0.6223  0.5637
    8CHL1  H26C  588   1.518   3.071   4.654 -1.6819  1.1708 -2.7412
    8CHL1   C27  589   1.738   2.986   4.794  0.2755  0.5808  0.4701
    8CHL1  H27A  590   1.797   2.998   4.888 -1.0953  2.8941  1.1195
    8CHL1  H27B  591   1.634   2.968   4.828 -0.0457  0.1496 -0.6876
    8CHL1  H27C  592   1.775   2.893   4.746 -0.8508 -0.3208  1.3095
    9CHL1    C3  593   4.106   3.147   5.788 -0.2211 -0.0371  0.8032
    9CHL1    H3  594   4.124   3.049   5.739 -0.4759 -0.5916  1.7875
    9CHL1    O3  595   4.155   3.138   5.924  0.0414 -0.8050 -0.3874
    9CHL1   H3'  596   4.129   3.213   5.979  1.6439 -1.0500  0.7659
    9CHL1    C4  597   4.168   3.258   5.711  0.2767  0.0569 -0.2852
    9CHL1   H4A  598   4.133   3.351   5.762  1.2777  0.1990  0.1531
    9CHL1   H4B  599   4.277   3.260   5.729  0.1854 -0.6235  0.4065
    9CHL1    C5  600   4.121   3.261   5.564  0.2081 -0.7663 -0.0484
    9CHL1    C6  601   4.214   3.260   5.467 -0.0110 -0.4481  0.5609
    9CHL1    H6  602   4.322   3.264   5.487  0.4270 -2.4198 -1.1021
    9CHL1    C7  603   4.186   3.260   5.313  0.4662 -0.0339 -0.6035
    9CHL1   H7A  604   4.233   3.343   5.258 -1.8744  1.3297 -0.6799
    9CHL1   H7B  605   4.219   3.162   5.271  4.3753  0.9949 -0.2694
    9CHL1    C8  606   4.033   3.277   5.294 -0.0921  0.0852  0.1082
    9CHL1    H8  607   4.008   3.385   5.294  1.4883  0.4868  1.0123
    9CHL1   C14  608   3.999   3.224   5.153 -0.8639  0.2277  0.5750
    9CHL1   H14  609   4.021   3.115   5.148 -1.3700  0.1845 -1.5189
    9CHL1   C15  610   4.079   3.288   5.039  0.1131  0.8661 -0.1255
    9CHL1  H15A  611   4.106   3.394   5.055  0.8137  0.9346 -1.6241
    9CHL1  H15B  612   4.169   3.226   5.020 -1.6766 -2.0474  0.2118
    9CHL1   C16  613   3.982   3.265   4.918 -0.5016 -0.0675 -0.2224
    9CHL1  H16A  614   3.952   3.366   4.884 -1.8957 -0.0066  1.0518
    9CHL1  H16B  615   4.031   3.200   4.842  2.2020  2.2644 -0.6515
    9CHL1   C17  616   3.856   3.190   4.969 -0.2338 -0.1677  0.2580
    9CHL1   H17  617   3.882   3.082   4.967  0.4844 -0.0365  1.4564
    9CHL1   C13  618   3.850   3.236   5.117  0.1253 -0.1550  0.1233
    9CHL1   C18  619   3.796   3.383   5.124  0.6758 -0.1272 -0.0850
    9CHL1  H18A  620   3.690   3.378   5.092  0.8940 -1.1548 -0.6923
    9CHL1  H18B  621   3.813   3.436   5.220 -1.4064 -0.6951  0.6498
    9CHL1  H18C  622   3.852   3.451   5.056 -0.9324 -0.0188 -1.3568
    9CHL1   C12  623   3.764   3.153   5.213 -0.1771  0.1539 -0.3912
    9CHL1  H12A  624   3.658   3.158   5.179 -0.1143  4.8076 -0.5026
    9CHL1  H12B  625   3.806   3.050   5.211  0.6983  0.5027 -0.0177
    9CHL1   C11  626   3.788   3.211   5.354 -0.2260 -0.7798 -0.1633
    9CHL1  H11A  627   3.763   3.318   5.366  1.8112 -0.4158  1.2379
    9CHL1  H11B  628   3.721   3.162   5.427 -1.6855  0.8970 -0.3089
    9CHL1    C9  629   3.940   3.202   5.395  0.1160  0.0152 -0.0526
    9CHL1    H9  630   3.961   3.094   5.381 -1.6070 -0.4661  0.8271
    9CHL1   C10  631   3.972   3.251   5.542  0.2757  0.6577  0.2012
    9CHL1   C19  632   3.903   3.380   5.573 -0.3047  0.5588  0.2706
    9CHL1  H19A  633   3.799   3.370   5.612  0.2491  1.4107  2.0893
    9CHL1  H19B  634   3.952   3.431   5.659 -0.0888 -0.9775  1.1056
    9CHL1  H19C  635   3.919   3.444   5.484  0.6947 -1.0130 -0.7296
    9CHL1    C1  636   3.916   3.140   5.633  0.2398 -0.3534 -0.0553
    9CHL1   H1A  637   3.806   3.148   5.630  0.1645 -0.2595  1.8193
    9CHL1   H1B  638   3.939   3.044   5.582 -2.0253 -1.2692  0.5431
    9CHL1    C2  639   3.954   3.152   5.783  0.2167 -0.4274  0.0938
    9CHL1   H2A  640   3.912   3.060   5.830 -0.6566 -0.3588 -0.5303
    9CHL1   H2B  641   3.916   3.240   5.839 -1.7555 -1.3968  0.3543
    9CHL1   C20  642   3.733   3.204   4.870 -0.3258 -0.2319 -0.0361
    9CHL1   H20  643   3.703   3.311   4.867 -1.6425 -0.5646  0.5743
    9CHL1   C21  644   3.609   3.134   4.903  0.5745  0.3136 -0.3381
    9CHL1  H21A  645   3.626   3.027   4.925  1.9639  0.4698 -0.5660
    9CHL1  H21B  646   3.528   3.147   4.828 -1.4370  1.0979  1.8373
    9CHL1  H21C  647   3.559   3.180   4.991  0.6306  0.1513 -0.2202
    9CHL1   C22  648   3.774   3.148   4.729  0.1757 -0.8353  0.2498
    9CHL1  H22A  649   3.681   3.155   4.670  0.6355  0.7442 -0.3357
    9CHL1  H22B  650   3.849   3.216   4.683  0.1064 -0.6745  0.3773
    9CHL1   C23  651   3.821   3.000   4.733  0.3185 -0.0766 -0.5715
    9CHL1  H23A  652   3.927   2.989   4.766  0.2293 -2.9835 -0.9294
    9CHL1  H23B  653   3.753   2.938   4.797 -0.6790 -0.8004 -2.2729
    9CHL1   C24  654   3.802   2.927   4.596  0.0607 -0.3109 -0.1910
    9CHL1  H24A  655   3.844   2.988   4.514  0.9020 -0.1617  0.3421
    9CHL1  H24B  656   3.861   2.833   4.597  0.5081 -0.0471  1.1297
    9CHL1   C25  657   3.656   2.895   4.551  0.3478  0.4734  0.4833
    9CHL1   H25  658   3.596   2.988   4.565 -0.9830 -0.2893 -0.0088
    9CHL1   C26  659   3.655   2.866   4.399  0.2790 -0.1141  1.0151
    9CHL1  H26A  660   3.719   2.778   4.377 -0.1050 -0.0643 -0.4077
    9CHL1  H26B  661   3.551   2.842   4.370  0.5103 -0.3544  0.3484
    9CHL1  H26C  662   3.694   2.954   4.343 -0.1574 -1.0461 -0.8401
    9CHL1   C27  663   3.579   2.784   4.629 -0.3506  0.0197 -0.2645
    9CHL1  H27A  664   3.641   2.692   4.624 -0.1838  0.1517 -0.6953
    9CHL1  H27B  665   3.565   2.804   4.737  0.1941  0.3444 -0.2512
    9CHL1  H27C  666   3.480   2.750   4.593 -0.6450  0.1203  0.4393
   10CHL1    C3  667   5.150   3.286   5.715 -0.1390 -0.0086 -0.1801
   10CHL1    H3  668   5.162   3.393   5.688 -2.8119  0.6091  0.7712
   10CHL1    O3  669   5.113   3.292   5.850  0.0582 -0.1154  0.9822
   10CHL1   H3'  670   5.194   3.316   5.895 -0.2662  1.6777  0.6835
   10CHL1    C4  671   5.040   3.219   5.632 -0.5184 -0.7849  0.7102
   10CHL1   H4A  672   5.014   3.132   5.696  1.9568 -1.1674  1.3259
   10CHL1   H4B  673   4.954   3.289   5.638 -0.8039 -1.0287 -0.4085
   10CHL1    C5  674   5.085   3.181   5.491  0.3436  0.3408  0.0116
   10CHL1    C6  675   5.009   3.224   5.385  0.1088  0.0762 -0.8402
   10CHL1    H6  676   4.923   3.291   5.400 -0.9370 -1.2661 -0.6170
   10CHL1    C7  677   5.037   3.171   5.247 -0.8116  0.7821  0.2238
   10CHL1   H7A  678   4.941   3.131   5.209 -0.1342 -2.0740  1.2533
   10CHL1   H7B  679   5.063   3.256   5.181  1.0589  0.5853  0.6323
   10CHL1    C8  680   5.145   3.055   5.239 -0.0111  0.4432 -0.7736
   10CHL1    H8  681   5.093   2.967   5.282 -0.0785  1.3871  1.1875
   10CHL1   C14  682   5.193   3.037   5.098  0.3007 -0.1957 -1.0636
   10CHL1   H14  683   5.231   3.134   5.060  3.5780 -0.7669  0.4775
   10CHL1   C15  684   5.079   2.997   5.002  0.0611  0.5884  0.0425
   10CHL1  H15A  685   5.016   2.913   5.037  0.0627  0.1946 -0.8604
   10CHL1  H15B  686   5.013   3.078   4.965  0.5463  0.2216 -1.7280
   10CHL1   C16  687   5.156   2.946   4.882 -0.0869  0.5254 -0.3254
   10CHL1  H16A  688   5.112   2.848   4.854 -0.7031  0.0294  2.1475
   10CHL1  H16B  689   5.146   3.016   4.797 -1.1150 -0.1734 -0.7893
   10CHL1   C17  690   5.312   2.939   4.920 -0.1978  0.6306  0.3807
   10CHL1   H17  691   5.356   3.035   4.885 -1.4879  0.8502 -0.7423
   10CHL1   C13  692   5.307   2.939   5.077  0.2860  0.1011 -0.9193
   10CHL1   C18  693   5.267   2.798   5.130 -0.7965 -0.1745 -0.2924
   10CHL1  H18A  694   5.181   2.766   5.066 -1.7631 -1.0230  1.3670
   10CHL1  H18B  695   5.358   2.736   5.116  0.4588  1.7115 -0.8682
   10CHL1  H18C  696   5.252   2.795   5.240  1.4947  1.0645  0.1004
   10CHL1   C12  697   5.430   2.988   5.159  0.0402 -0.3460  0.1431
   10CHL1  H12A  698   5.517   2.920   5.150 -1.4370 -2.1128 -1.7803
   10CHL1  H12B  699   5.459   3.092   5.130  1.5490 -1.0547 -1.0725
   10CHL1   C11  700   5.392   3.003   5.307  0.3412  0.1350  0.4271
   10CHL1  H11A  701   5.382   2.907   5.362  0.3728  1.5707  3.1177
   10CHL1  H11B  702   5.481   3.057   5.346 -0.5376  2.1352 -0.2148
   10CHL1    C9  703   5.265   3.091   5.329  0.4717 -0.2220  0.1754
   10CHL1    H9  704   5.295   3.195   5.301 -3.0190  1.0581  0.5710
   10CHL1   C10  705   5.219   3.098   5.474  0.2887  0.1328  0.4864
   10CHL1   C19  706   5.189   2.954   5.533  0.3437  0.3481  0.2839
   10CHL1  H19A  707   5.291   2.913   5.550  0.6509 -0.7736 -3.3168
   10CHL1  H19B  708   5.134   2.954   5.629 -1.4399 -0.5242 -0.6993
   10CHL1  H19C  709   5.131   2.889   5.464 -1.3372  1.4627  0.6005
   10CHL1    C1  710   5.332   3.166   5.558  0.0135 -0.1737 -0.4494
   10CHL1   H1A  711   5.411   3.092   5.581  0.1222  0.7117  2.3184
   10CHL1   H1B  712   5.369   3.254   5.501 -1.3921  0.5603 -0.2842
   10CHL1    C2  713   5.291   3.217   5.698  0.1683 -0.1552 -0.1085
   10CHL1   H2A  714   5.364   3.290   5.741  1.5291 -1.8876  0.6948
   10CHL1   H2B  715   5.292   3.127   5.763 -4.0904 -0.1416  0.2272
   10CHL1   C20  716   5.383   2.822   4.858  0.7089 -0.0154  0.2431
   10CHL1   H20  717   5.326   2.729   4.879 -0.7747  0.8355  0.1154
   10CHL1   C21  718   5.524   2.803   4.910  0.4344 -0.0993  0.2725
   10CHL1  H21A  719   5.596   2.763   4.835 -0.9931 -0.2293 -1.0827
   10CHL1  H21B  720   5.525   2.750   5.007 -0.8910  1.0039  0.9193
   10CHL1  H21C  721   5.553   2.906   4.939 -0.7502 -0.0825  1.4744
   10CHL1   C22  722   5.396   2.828   4.697 -0.3433  0.1350  0.3628
   10CHL1  H22A  723   5.303   2.858   4.643  0.6663 -1.3643 -2.4005
   10CHL1  H22B  724   5.469   2.911   4.691 -1.8104  1.6339  2.1700
   10CHL1   C23  725   5.448   2.702   4.625 -0.3404 -0.6838 -1.1437
   10CHL1  H23A  726   5.548   2.673   4.664 -0.3814  1.9339  1.2256
   10CHL1  H23B  727   5.391   2.614   4.660  1.5361 -0.6132  2.4764
   10CHL1   C24  728   5.473   2.709   4.471  0.0611  0.3297 -0.1349
   10CHL1  H24A  729   5.378   2.715   4.415  0.7452 -1.0695 -1.5326
   10CHL1  H24B  730   5.534   2.798   4.444 -0.4679  0.4904 -0.8184
   10CHL1   C25  731   5.538   2.581   4.419  0.1128  0.2555 -0.1178
   10CHL1   H25  732   5.640   2.590   4.463 -1.1204  3.8682  2.4378
   10CHL1   C26  733   5.461   2.456   4.458  0.1975  0.5787 -0.5120
   10CHL1  H26A  734   5.525   2.369   4.433 -2.3396 -1.4364 -0.4253
   10CHL1  H26B  735   5.444   2.443   4.567 -0.9604 -2.2737 -0.9517
   10CHL1  H26C  736   5.360   2.447   4.413 -1.4220 -4.1876  3.1081
   10CHL1   C27  737   5.548   2.584   4.269 -0.3707 -0.2540  0.1451
   10CHL1  H27A  738   5.627   2.654   4.234  0.6171 -1.0254  0.7474
   10CHL1  H27B  739   5.595   2.488   4.238 -0.8503 -0.5869  0.4269
   10CHL1  H27C  740   5.452   2.601   4.216  0.9107  0.9691 -1.9317
   11CHL1    C3  741   0.573   1.654   5.911  0.4495 -0.8396 -0.5904
   11CHL1    H3  742   0.507   1.736   5.876  0.0696  0.2979  2.4816
   11CHL1    O3  743   0.600   1.686   6.046  0.1371  0.1674  0.4911
   11CHL1   H3'  744   0.611   1.781   6.056  0.8907  0.1713 -0.2720
   11CHL1    C4  745   0.510   1.515   5.873 -0.2900 -0.2574 -0.8075
   11CHL1   H4A  746   0.584   1.449   5.923 -0.4947  0.7589  0.9343
   11CHL1   H4B  747   0.415   1.507   5.930 -0.0058  2.4248  0.1961
   11CHL1    C5  748   0.504   1.490   5.728  0.2847 -0.3440 -0.0816
   11CHL1    C6  749   0.386   1.463   5.664 -0.6092 -0.8346 -0.0711
   11CHL1    H6  750   0.292   1.459   5.722 -0.8079  0.4579 -0.2674
   11CHL1    C7  751   0.371   1.432   5.519 -0.1790  0.0262 -0.0582
   11CHL1   H7A  752   0.321   1.333   5.518  0.2784 -0.3741  3.3060
   11CHL1   H7B  753   0.309   1.505   5.462  0.3527  0.0247 -0.6512
   11CHL1    C8  754   0.513   1.412   5.446  0.2849 -0.3992  0.5189
   11CHL1    H8  755   0.565   1.319   5.476  0.2080 -0.2206  1.2334
   11CHL1   C14  756   0.488   1.415   5.292  0.1142 -0.5776 -0.7831
   11CHL1   H14  757   0.450   1.517   5.268 -0.9467 -0.2049  2.1070
   11CHL1   C15  758   0.392   1.313   5.233 -0.6079  0.5337 -0.1474
   11CHL1  H15A  759   0.407   1.211   5.274  0.4374  1.5429  2.1942
   11CHL1  H15B  760   0.287   1.337   5.257  0.2458  3.0328  1.5361
   11CHL1   C16  761   0.433   1.308   5.085 -0.1576  0.2293  0.6056
   11CHL1  H16A  762   0.472   1.208   5.057  0.8772  1.1776 -1.6077
   11CHL1  H16B  763   0.351   1.334   5.014  0.0058 -2.8227 -0.8512
   11CHL1   C17  764   0.556   1.410   5.071  0.4088 -0.6711  0.5195
   11CHL1   H17  765   0.524   1.516   5.071 -0.3241 -0.8713  1.9060
   11CHL1   C13  766   0.619   1.403   5.214  0.1526 -0.2007 -0.1061
   11CHL1   C18  767   0.700   1.275   5.227  0.4973  0.1710 -0.4013
   11CHL1  H18A  768   0.647   1.187   5.186 -1.7440  1.3378 -0.1391
   11CHL1  H18B  769   0.798   1.276   5.175  0.9045 -3.3224  0.0962
   11CHL1  H18C  770   0.721   1.252   5.333  0.3856 -0.1481 -0.4484
   11CHL1   C12  771   0.710   1.529   5.255  0.6116  0.3408 -0.1411
   11CHL1  H12A  772   0.805   1.527   5.198  1.0803 -1.3832  0.6197
   11CHL1  H12B  773   0.655   1.622   5.229  0.8739  0.2407 -1.0913
   11CHL1   C11  774   0.738   1.525   5.402 -0.5783  0.1193  0.6379
   11CHL1  H11A  775   0.802   1.437   5.426 -1.0287  0.2786  2.6130
   11CHL1  H11B  776   0.791   1.620   5.423  0.8719 -0.2206 -1.2392
   11CHL1    C9  777   0.606   1.528   5.487 -0.3408 -0.3933  0.8221
   11CHL1    H9  778   0.554   1.623   5.465 -1.1449 -1.0847 -0.4064
   11CHL1   C10  779   0.632   1.520   5.639 -0.9281 -0.5373  0.3460
   11CHL1   C19  780   0.744   1.419   5.677 -0.0622 -0.0827 -0.1420
   11CHL1  H19A  781   0.739   1.331   5.610 -0.1881 -0.7177  0.6892
   11CHL1  H19B  782   0.849   1.451   5.663 -0.0117  0.8997  2.0529
   11CHL1  H19C  783   0.737   1.380   5.781 -0.4074 -1.0547 -0.5215
   11CHL1    C1  784   0.690   1.657   5.687  0.0344  0.6234  0.1550
   11CHL1   H1A  785   0.785   1.673   5.631  0.1668 -1.0500 -0.1518
   11CHL1   H1B  786   0.609   1.727   5.658 -1.8809 -0.8787  1.5570
   11CHL1    C2  787   0.705   1.672   5.837 -0.0296  0.7357  1.0249
   11CHL1   H2A  788   0.754   1.767   5.865  1.5557  0.6257 -1.1350
   11CHL1   H2B  789   0.770   1.592   5.878 -0.1893 -0.9413 -1.7215
   11CHL1   C20  790   0.642   1.387   4.950 -0.1604 -0.2911  0.2370
   11CHL1   H20  791   0.698   1.293   4.970 -1.3103 -0.9298  0.5706
   11CHL1   C21  792   0.746   1.497   4.937 -0.4971 -0.2815  0.0512
   11CHL1  H21A  793   0.783   1.493   4.832 -0.9655  0.4010 -0.1473
   11CHL1  H21B  794   0.828   1.486   5.011 -1.9758  0.8912  1.9569
   11CHL1  H21C  795   0.700   1.596   4.955 -1.4275 -0.2105 -2.3772
   11CHL1   C22  796   0.561   1.369   4.822 -0.5361  0.5585  0.2737
   11CHL1  H22A  797   0.634   1.364   4.739 -1.0918  3.5112 -0.4876
   11CHL1  H22B  798   0.506   1.273   4.812  1.3247 -0.2852 -3.3104
   11CHL1   C23  799   0.462   1.477   4.783 -0.0533  0.1255  0.3109
   11CHL1  H23A  800   0.371   1.477   4.847  0.6535  0.2147  1.3427
   11CHL1  H23B  801   0.518   1.573   4.780 -0.9975  0.7067  0.7206
   11CHL1   C24  802   0.400   1.454   4.644 -0.2175 -0.6106 -0.0102
   11CHL1  H24A  803   0.482   1.473   4.572 -2.0151 -0.2130 -2.0595
   11CHL1  H24B  804   0.365   1.348   4.642  1.1697 -1.0782 -1.6943
   11CHL1   C25  805   0.270   1.541   4.625  0.3884 -0.2201  0.1466
   11CHL1   H25  806   0.203   1.534   4.714 -1.2028 -3.1815 -1.1305
   11CHL1   C26  807   0.295   1.692   4.599  0.2481 -0.5919 -0.6631
   11CHL1  H26A  808   0.207   1.755   4.620  0.9298  0.1917 -0.1005
   11CHL1  H26B  809   0.364   1.730   4.678 -1.4504  1.7504 -0.2165
   11CHL1  H26C  810   0.336   1.716   4.499 -0.2066 -0.0550 -0.7256
   11CHL1   C27  811   0.193   1.483   4.509 -0.3115  0.4353 -0.1730
   11CHL1  H27A  812   0.157   1.382   4.537  0.9157  0.4011  1.4770
   11CHL1  H27B  813   0.098   1.539   4.494 -0.5624  0.0171 -0.1465
   11CHL1  H27C  814   0.246   1.475   4.412 -2.0913 -3.0604 -0.9969
   12CHL1    C3  815   1.461   0.328   5.868  0.2442  0.1493 -0.5746
   12CHL1    H3  816   1.368   0.267   5.866  0.0799  0.3756 -0.1274
   12CHL1    O3  817   1.470   0.392   5.996 -0.4655 -0.0824 -0.0789
   12CHL1   H3'  818   1.383   0.379   6.034  0.3656 -1.9846  1.3287
   12CHL1    C4  819   1.571   0.226   5.857  0.3804  0.2731 -0.6835
   12CHL1   H4A  820   1.669   0.276   5.865  1.3628 -1.6912  0.6402
   12CHL1   H4B  821   1.554   0.149   5.935 -2.3351  2.4438  1.0531
   12CHL1    C5  822   1.580   0.159   5.721  0.5450  0.3085 -1.0627
   12CHL1    C6  823   1.572   0.024   5.702  0.0252 -0.1804  0.2601
   12CHL1    H6  824   1.565  -0.042   5.790 -1.8349 -1.0907 -0.5104
   12CHL1    C7  825   1.599  -0.044   5.566  0.2868  0.2463 -0.2638
   12CHL1   H7A  826   1.678  -0.122   5.558 -0.8579 -0.7710 -2.7776
   12CHL1   H7B  827   1.507  -0.089   5.522 -0.3009  0.9733  0.2043
   12CHL1    C8  828   1.641   0.061   5.455 -0.7515  0.2387  0.4784
   12CHL1    H8  829   1.746   0.081   5.483 -1.1292  1.8883  0.8320
   12CHL1   C14  830   1.624  -0.003   5.319  0.1299  0.7051  0.2354
   12CHL1   H14  831   1.514  -0.008   5.304  0.3830  0.7064 -2.0929
   12CHL1   C15  832   1.680  -0.143   5.297 -0.0088 -0.2324 -1.1136
   12CHL1  H15A  833   1.779  -0.162   5.345 -0.7299  0.1522  0.6181
   12CHL1  H15B  834   1.602  -0.205   5.347 -0.5987  2.9807  2.4715
   12CHL1   C16  835   1.701  -0.153   5.148 -0.2707  0.6353  0.3787
   12CHL1  H16A  836   1.809  -0.164   5.126 -0.2238 -1.8164  1.5787
   12CHL1  H16B  837   1.655  -0.243   5.101  2.3103  0.0627 -1.2704
   12CHL1   C17  838   1.651  -0.022   5.086 -0.2398 -0.0247 -0.4332
   12CHL1   H17  839   1.543  -0.046   5.074  0.3066 -2.7326 -0.5310
   12CHL1   C13  840   1.673   0.083   5.200  0.4242 -1.0799  0.6338
   12CHL1   C18  841   1.822   0.123   5.205  0.2203 -0.1991 -0.5776
   12CHL1  H18A  842   1.889   0.034   5.212 -1.7447 -1.8704 -1.7374
   12CHL1  H18B  843   1.859   0.180   5.117 -1.1810  1.3494 -0.1949
   12CHL1  H18C  844   1.841   0.188   5.292 -0.1054 -1.1435  0.2174
   12CHL1   C12  845   1.578   0.206   5.202  0.4802  0.2163 -0.1580
   12CHL1  H12A  846   1.583   0.285   5.124  0.1180  0.4080  0.0084
   12CHL1  H12B  847   1.477   0.161   5.195 -0.1629  1.7835 -1.8344
   12CHL1   C11  848   1.584   0.286   5.333  0.8777 -0.1215 -0.0915
   12CHL1  H11A  849   1.688   0.320   5.345  1.2432 -0.2147 -2.5328
   12CHL1  H11B  850   1.520   0.376   5.319  2.9858  1.4106 -0.3306
   12CHL1    C9  851   1.562   0.194   5.462  0.2787 -1.2271  0.4444
   12CHL1    H9  852   1.455   0.166   5.461 -0.0437 -0.0486  1.0868
   12CHL1   C10  853   1.586   0.266   5.601  0.4591 -0.5075 -0.0534
   12CHL1   C19  854   1.724   0.337   5.610  0.1326 -0.0076  0.1197
   12CHL1  H19A  855   1.737   0.398   5.702 -0.6423  0.4387 -0.0535
   12CHL1  H19B  856   1.801   0.257   5.605  1.3107  1.0422  1.1143
   12CHL1  H19C  857   1.744   0.411   5.529  1.7573 -0.5096  0.0301
   12CHL1    C1  858   1.472   0.377   5.618  0.5340 -0.8118 -0.0089
   12CHL1   H1A  859   1.486   0.452   5.538 -1.5726 -0.2986  0.0621
   12CHL1   H1B  860   1.373   0.329   5.607  0.5175 -0.7063 -0.3287
   12CHL1    C2  861   1.461   0.433   5.759 -0.4143  0.1137 -0.1522
   12CHL1   H2A  862   1.370   0.494   5.777 -1.6314 -1.2849 -1.2799
   12CHL1   H2B  863   1.549   0.498   5.778 -0.7636 -0.3149  3.8192
   12CHL1   C20  864   1.704   0.015   4.943 -0.3271  0.9741 -0.6811
   12CHL1   H20  865   1.815   0.020   4.951 -0.0401 -2.1556 -1.3316
   12CHL1   C21  866   1.643   0.150   4.895 -0.3461 -0.0527  0.7833
   12CHL1  H21A  867   1.688   0.242   4.939 -0.8685  0.6073 -0.0324
   12CHL1  H21B  868   1.537   0.168   4.925 -0.3950 -0.5588  0.9248
   12CHL1  H21C  869   1.667   0.161   4.787  0.2250 -2.2605  0.6261
   12CHL1   C22  870   1.690  -0.091   4.825  0.1843  0.2592 -0.8637
   12CHL1  H22A  871   1.702  -0.193   4.867  2.3818  1.2342  1.0567
   12CHL1  H22B  872   1.589  -0.071   4.782  0.1075  0.0662 -0.7736
   12CHL1   C23  873   1.797  -0.085   4.716  0.6192 -0.6405  0.2883
   12CHL1  H23A  874   1.820   0.019   4.685  0.0997  0.2208  2.5569
   12CHL1  H23B  875   1.886  -0.129   4.766  2.1184  2.0281  0.1896
   12CHL1   C24  876   1.757  -0.180   4.606  0.4736  0.1502 -0.1448
   12CHL1  H24A  877   1.767  -0.286   4.638 -1.0570  0.3994  1.2903
   12CHL1  H24B  878   1.651  -0.167   4.578  0.9320  2.1242 -1.1086
   12CHL1   C25  879   1.845  -0.174   4.476 -0.5118  0.4397  0.3507
   12CHL1   H25  880   1.866  -0.069   4.446 -3.6375  1.0024 -0.1564
   12CHL1   C26  881   1.976  -0.248   4.493  0.1591 -0.0512 -0.0099
   12CHL1  H26A  882   1.956  -0.351   4.530  1.1060 -0.9331 -1.7694
   12CHL1  H26B  883   2.046  -0.254   4.407 -0.4668 -1.9319 -0.4389
   12CHL1  H26C  884   2.024  -0.199   4.580  0.8527 -2.4373  1.0466
   12CHL1   C27  885   1.769  -0.230   4.353 -0.1139 -0.2763 -0.8974
   12CHL1  H27A  886   1.666  -0.189   4.349  0.3483  0.8811 -1.5023
   12CHL1  H27B  887   1.825  -0.201   4.261  0.0618 -1.1594 -1.0727
   12CHL1  H27C  888   1.756  -0.340   4.350  0.4991 -0.4533  1.4546
   13CHL1    C3  889   3.602   1.978   5.856 -0.1864 -0.4461 -0.7198
   13CHL1    H3  890   3.687   2.042   5.825  0.0167  0.4848  1.6100
   13CHL1    O3  891   3.613   1.972   5.997 -0.2579  0.2838 -0.6905
   13CHL1   H3'  892   3.546   1.910   6.027 -0.3367  1.0677  0.8908
   13CHL1    C4  893   3.475   2.041   5.805 -0.8905 -0.7673  0.7817
   13CHL1   H4A  894   3.384   1.981   5.828 -1.0628 -0.1959  1.6685
   13CHL1   H4B  895   3.459   2.126   5.875 -1.0373  0.4254 -0.6593
   13CHL1    C5  896   3.476   2.077   5.659  0.0582  0.7002  0.7896
   13CHL1    C6  897   3.464   2.197   5.599  0.1757 -0.2010 -0.0036
   13CHL1    H6  898   3.453   2.288   5.659 -3.4856 -1.1631  1.1076
   13CHL1    C7  899   3.470   2.207   5.450 -0.3125  0.0472 -0.2735
   13CHL1   H7A  900   3.399   2.282   5.409 -0.6835 -0.7589 -1.1356
   13CHL1   H7B  901   3.575   2.233   5.422  0.0130 -2.2090 -1.3562
   13CHL1    C8  902   3.434   2.077   5.363 -0.2156 -0.2384 -1.0903
   13CHL1    H8  903   3.327   2.060   5.384  0.0646 -0.4931  0.2269
   13CHL1   C14  904   3.461   2.093   5.212  1.1024  0.1904  0.4001
   13CHL1   H14  905   3.569   2.118   5.205  0.7561  1.3131 -2.4684
   13CHL1   C15  906   3.380   2.206   5.147 -0.7399 -0.3891 -0.7613
   13CHL1  H15A  907   3.278   2.195   5.190 -0.3899  0.0918  0.2355
   13CHL1  H15B  908   3.435   2.296   5.181  1.4231 -2.0267  0.2470
   13CHL1   C16  909   3.388   2.177   5.000  1.4175  0.6241  0.0204
   13CHL1  H16A  910   3.288   2.169   4.952  1.6687  0.4338 -0.4806
   13CHL1  H16B  911   3.451   2.251   4.946  0.4819  0.3946 -1.4345
   13CHL1   C17  912   3.459   2.041   4.984 -0.5517  0.0315  0.1418
   13CHL1   H17  913   3.568   2.064   4.992 -1.0106  2.2040  0.9452
   13CHL1   C13  914   3.447   1.973   5.125 -0.3545 -0.4694 -0.5270
   13CHL1   C18  915   3.304   1.912   5.118 -0.2142 -0.7510 -0.5542
   13CHL1  H18A  916   3.234   1.982   5.068 -0.9767 -1.2578 -0.2139
   13CHL1  H18B  917   3.308   1.816   5.062 -0.6859 -0.9804 -0.2029
   13CHL1  H18C  918   3.261   1.891   5.218 -0.6230 -0.2541 -0.6223
   13CHL1   C12  919   3.549   1.865   5.184  0.1336  0.2328 -0.6680
   13CHL1  H12A  920   3.545   1.772   5.123  2.6126  0.9280 -2.0728
   13CHL1  H12B  921   3.653   1.905   5.183  0.1768  0.2705  1.2602
   13CHL1   C11  922   3.512   1.841   5.334 -0.6436  0.6156 -0.1129
   13CHL1  H11A  923   3.417   1.785   5.349 -0.7304  0.4505 -1.2345
   13CHL1  H11B  924   3.598   1.774   5.359 -0.3425  0.6912 -0.9338
   13CHL1    C9  925   3.522   1.965   5.424  0.2999  0.4973 -0.1651
   13CHL1    H9  926   3.625   2.006   5.418  0.3315  0.3096 -0.9850
   13CHL1   C10  927   3.483   1.949   5.579  0.2561 -0.0526 -0.3539
   13CHL1   C19  928   3.351   1.874   5.588  0.2669  0.5665  0.0576
   13CHL1  H19A  929   3.325   1.850   5.694  1.2798  0.0549  0.2031
   13CHL1  H19B  930   3.262   1.928   5.552  0.3535 -0.0954 -1.1922
   13CHL1  H19C  931   3.360   1.775   5.539 -0.4167  0.4071  0.2520
   13CHL1    C1  932   3.602   1.865   5.641  0.3916 -0.5250 -0.0457
   13CHL1   H1A  933   3.587   1.767   5.591 -3.0316  0.0515 -0.3941
   13CHL1   H1B  934   3.697   1.910   5.605 -0.4776  1.0359 -0.4618
   13CHL1    C2  935   3.603   1.844   5.793  0.4647  0.2063 -0.4869
   13CHL1   H2A  936   3.695   1.792   5.828 -0.1469 -1.1160 -0.7644
   13CHL1   H2B  937   3.516   1.780   5.818  0.3872 -0.0426 -1.3450
   13CHL1   C20  938   3.432   1.961   4.851  0.2648 -0.1624  0.2779
   13CHL1   H20  939   3.333   1.911   4.854  0.0093  0.3268  0.1231
   13CHL1   C21  940   3.540   1.847   4.844 -0.2502 -0.0603  0.3547
   13CHL1  H21A  941   3.546   1.794   4.747  0.3098 -0.7577  0.7646
   13CHL1  H21B  942   3.518   1.770   4.921 -0.2686  0.3704  0.7860
   13CHL1  H21C  943   3.644   1.884   4.853 -0.1694 -0.6002  2.3337
   13CHL1   C22  944   3.432   2.048   4.727 -0.2654 -0.3487 -0.1760
   13CHL1  H22A  945   3.418   1.965   4.655  2.4496 -2.0875  1.1220
   13CHL1  H22B  946   3.345   2.116   4.736  0.0247 -0.0126  0.1077
   13CHL1   C23  947   3.559   2.114   4.698 -0.4235 -0.3825  0.2792
   13CHL1  H23A  948   3.579   2.184   4.782 -1.6990 -0.4522  0.6628
   13CHL1  H23B  949   3.644   2.043   4.701  0.3434  0.5597  1.3790
   13CHL1   C24  950   3.561   2.198   4.566 -0.2130  0.0810 -0.7809
   13CHL1  H24A  951   3.564   2.122   4.484  0.0241 -0.0703 -0.6315
   13CHL1  H24B  952   3.463   2.249   4.562 -0.8400 -1.1283 -3.4404
   13CHL1   C25  953   3.677   2.296   4.554 -0.9160 -0.0182  0.3215
   13CHL1   H25  954   3.679   2.344   4.654 -1.2643 -2.4447  1.5446
   13CHL1   C26  955   3.805   2.222   4.526  0.5659  0.1149 -0.2527
   13CHL1  H26A  956   3.793   2.161   4.435  2.1063  0.3957 -0.6811
   13CHL1  H26B  957   3.891   2.294   4.527 -0.6199  1.5901 -0.0008
   13CHL1  H26C  958   3.826   2.151   4.609  0.3270  1.5478  1.0908
   13CHL1   C27  959   3.648   2.395   4.444  0.5001  0.0476  0.3359
   13CHL1  H27A  960   3.726   2.467   4.411 -3.1700  4.5183  0.5019
   13CHL1  H27B  961   3.624   2.337   4.353 -0.3584  1.4287 -0.3526
   13CHL1  H27C  962   3.558   2.458   4.463  0.6572  0.6173 -0.7218
   14CHL1    C3  963   0.423   5.521   5.697 -0.7955  0.1395  0.1310
   14CHL1    H3  964   0.457   5.622   5.666 -0.7654 -0.3078 -1.3781
   14CHL1    O3  965   0.376   5.510   5.833  0.2002 -0.1417  0.3902
   14CHL1   H3'  966   0.357   5.597   5.868  1.5925 -0.1893  1.3845
   14CHL1    C4  967   0.303   5.502   5.611  0.3596  0.1560 -0.4030
   14CHL1   H4A  968   0.252   5.409   5.643  0.7009 -0.4549 -1.5556
   14CHL1   H4B  969   0.233   5.585   5.635 -0.2316 -0.6987  0.8897
   14CHL1    C5  970   0.335   5.488   5.467  0.4690 -0.2641  0.3230
   14CHL1    C6  971   0.273   5.571   5.380 -0.1928  0.3135 -0.2310
   14CHL1    H6  972   0.208   5.655   5.409 -2.3673 -1.3806  0.1085
   14CHL1    C7  973   0.301   5.563   5.234  0.4994 -0.3155 -0.0507
   14CHL1   H7A  974   0.208   5.578   5.175  0.9555  1.5251 -0.3625
   14CHL1   H7B  975   0.369   5.645   5.202 -2.1336  1.4950 -1.2942
   14CHL1    C8  976   0.361   5.424   5.188 -0.1370 -0.5542 -0.5615
   14CHL1    H8  977   0.273   5.359   5.209 -1.1262  1.3606  1.7438
   14CHL1   C14  978   0.400   5.426   5.045  0.1045 -0.4408 -0.0950
   14CHL1   H14  979   0.485   5.497   5.036 -0.2257 -0.2118 -1.5508
   14CHL1   C15  980   0.298   5.480   4.941 -0.2598  0.3407  0.1789
   14CHL1  H15A  981   0.208   5.420   4.966  1.9563 -3.9820 -1.2878
   14CHL1  H15B  982   0.297   5.591   4.951 -0.0518  0.2154  1.9901
   14CHL1   C16  983   0.353   5.418   4.812  0.5067 -1.0359  0.4990
   14CHL1  H16A  984   0.268   5.372   4.758 -0.4112  1.7235 -0.5961
   14CHL1  H16B  985   0.380   5.511   4.756 -2.7601 -0.0761  0.3142
   14CHL1   C17  986   0.474   5.332   4.847  0.7586  0.4255 -0.2359
   14CHL1   H17  987   0.560   5.402   4.835  0.6139  0.9067  1.2690
   14CHL1   C13  988   0.465   5.297   4.996  0.2355  0.0288 -0.0882
   14CHL1   C18  989   0.356   5.177   5.017 -0.3278 -0.5460  0.4210
   14CHL1  H18A  990   0.259   5.194   4.967 -0.7435  2.7280  2.0867
   14CHL1  H18B  991   0.401   5.081   4.981  0.4392  0.7721 -2.5040
   14CHL1  H18C  992   0.335   5.175   5.126 -1.8519 -0.6138  0.1444
   14CHL1   C12  993   0.597   5.273   5.074 -0.0165 -0.2308 -1.3090
   14CHL1  H12A  994   0.642   5.176   5.046 -0.6572 -1.6312  2.0834
   14CHL1  H12B  995   0.663   5.360   5.053 -0.4488  0.3856 -0.1900
   14CHL1   C11  996   0.563   5.263   5.225  0.0529 -0.2927  0.0132
   14CHL1  H11A  997   0.513   5.164   5.239 -1.7661  0.4711 -0.7538
   14CHL1  H11B  998   0.658   5.249   5.281  0.8569  3.8938  0.0169
   14CHL1    C9  999   0.483   5.385   5.281  0.1381  0.0888 -0.1448
   14CHL1    H9 1000   0.550   5.473   5.272 -1.5806  1.2686 -2.2473
   14CHL1   C10 1001   0.433   5.377   5.428  0.4175 -0.0431 -0.2420
   14CHL1   C19 1002   0.377   5.242   5.455 -0.1051  1.1400  0.4599
   14CHL1  H19A 1003   0.456   5.166   5.441  0.0464  1.3439  0.2036
   14CHL1  H19B 1004   0.329   5.233   5.556 -1.2535  1.5641 -0.0254
   14CHL1  H19C 1005   0.299   5.224   5.378  0.1654  2.8606 -0.2478
   14CHL1    C1 1006   0.558   5.399   5.522  0.2413  0.1302 -0.4257
   14CHL1   H1A 1007   0.634   5.321   5.502  0.8727  0.4493  0.6586
   14CHL1   H1B 1008   0.603   5.491   5.477  2.2990 -1.3608 -1.6383
   14CHL1    C2 1009   0.532   5.408   5.674  0.2954  0.1594  0.0630
   14CHL1   H2A 1010   0.625   5.435   5.728  0.9251 -0.9717 -0.4270
   14CHL1   H2B 1011   0.493   5.313   5.717  1.1978  0.1296  0.8438
   14CHL1   C20 1012   0.500   5.206   4.756  0.2906 -0.5148 -0.6967
   14CHL1   H20 1013   0.538   5.121   4.815 -1.1429  0.5922  1.9924
   14CHL1   C21 1014   0.624   5.241   4.668  0.1126  0.0038 -0.7712
   14CHL1  H21A 1015   0.668   5.150   4.622 -0.9857 -2.6045  2.8558
   14CHL1  H21B 1016   0.704   5.279   4.735 -0.4548  1.6819 -1.0095
   14CHL1  H21C 1017   0.612   5.314   4.585  0.1301  1.2135  0.2617
   14CHL1   C22 1018   0.377   5.165   4.675 -0.4889  0.2397  0.6876
   14CHL1  H22A 1019   0.294   5.159   4.748 -0.7754  0.3384  0.3730
   14CHL1  H22B 1020   0.346   5.224   4.586 -0.7338 -2.7784 -1.3738
   14CHL1   C23 1021   0.414   5.036   4.605  0.1504  0.3954  0.6639
   14CHL1  H23A 1022   0.494   5.057   4.531  3.6303 -1.9383  3.4351
   14CHL1  H23B 1023   0.449   4.976   4.692 -1.5140 -1.4852  0.1054
   14CHL1   C24 1024   0.291   4.960   4.549 -0.3696  0.8330  0.7890
   14CHL1  H24A 1025   0.221   4.941   4.634 -1.2076 -0.7290 -0.1840
   14CHL1  H24B 1026   0.242   5.013   4.465 -0.5200  2.4624  1.8594
   14CHL1   C25 1027   0.336   4.817   4.503  0.1256 -0.4826 -0.2747
   14CHL1   H25 1028   0.425   4.827   4.437 -0.9556 -0.5455 -1.7813
   14CHL1   C26 1029   0.380   4.728   4.631  0.3259 -0.2932 -0.1807
   14CHL1  H26A 1030   0.436   4.639   4.596 -0.7359 -0.3962 -1.7404
   14CHL1  H26B 1031   0.462   4.788   4.676  0.9903  0.1938 -1.9502
   14CHL1  H26C 1032   0.295   4.706   4.700 -0.0495  1.0615 -0.1713
   14CHL1   C27 1033   0.216   4.764   4.421 -0.2738 -0.0729 -0.0158
   14CHL1  H27A 1034   0.190   4.826   4.333 -0.3251 -1.6855 -1.1812
   14CHL1  H27B 1035   0.230   4.666   4.371  1.0906 -0.5211  1.1615
   14CHL1  H27C 1036   0.125   4.756   4.484 -0.4323 -2.6354 -0.4567
   15CHL1    C3 1037   1.352   4.904   5.944 -0.5072 -0.7618  0.0925
   15CHL1    H3 1038   1.398   4.805   5.926  1.4633  0.0619  0.3106
   15CHL1    O3 1039   1.306   4.909   6.081 -0.1594  0.3105 -0.1768
   15CHL1   H3' 1040   1.245   4.983   6.088  1.9447  2.2586 -1.0376
   15CHL1    C4 1041   1.451   5.020   5.931  0.0531  0.5354  0.2685
   15CHL1   H4A 1042   1.389   5.109   5.955 -0.9037  0.5366 -2.0367
   15CHL1   H4B 1043   1.534   4.995   6.001 -0.8850 -0.9270  0.9100
   15CHL1    C5 1044   1.507   5.031   5.789 -0.0989  0.2260  0.6549
   15CHL1    C6 1045   1.634   5.010   5.750  0.3614  0.8691  0.1025
   15CHL1    H6 1046   1.719   5.006   5.820  2.3161  3.0248 -2.0001
   15CHL1    C7 1047   1.689   5.007   5.605  0.2137  0.4810  0.1690
   15CHL1   H7A 1048   1.794   5.043   5.598  1.0805 -1.9324 -0.1624
   15CHL1   H7B 1049   1.692   4.904   5.565 -0.0557  0.3836  0.3975
   15CHL1    C8 1050   1.596   5.084   5.514  0.1074  0.0425  0.1885
   15CHL1    H8 1051   1.597   5.193   5.534  0.8484  0.1953 -0.5894
   15CHL1   C14 1052   1.641   5.073   5.373 -0.2866  0.2800  0.2016
   15CHL1   H14 1053   1.646   4.963   5.353 -1.5216  0.5260 -1.7268
   15CHL1   C15 1054   1.793   5.113   5.336 -0.0691 -0.3641  0.8544
   15CHL1  H15A 1055   1.811   5.209   5.388  0.7279  0.9827 -1.7235
   15CHL1  H15B 1056   1.869   5.035   5.361 -1.4676 -2.1790 -0.3003
   15CHL1   C16 1057   1.777   5.124   5.183 -0.2537  0.1997  0.6129
   15CHL1  H16A 1058   1.795   5.233   5.170 -2.3426  0.3184 -2.4540
   15CHL1  H16B 1059   1.858   5.073   5.127 -1.3830  0.0025 -0.9273
   15CHL1   C17 1060   1.632   5.088   5.139 -0.5419  0.0294 -0.1333
   15CHL1   H17 1061   1.620   4.978   5.133 -1.4099  0.0636  0.7941
   15CHL1   C13 1062   1.546   5.124   5.266  0.0262 -0.2103 -0.5463
   15CHL1   C18 1063   1.542   5.277   5.288  0.7429 -0.4762  0.1691
   15CHL1  H18A 1064   1.511   5.305   5.391 -2.3689  2.7780 -1.4597
   15CHL1  H18B 1065   1.644   5.319   5.274 -0.0187  1.5734  0.4226
   15CHL1  H18C 1066   1.467   5.332   5.228  0.7513 -0.1972  0.4081
   15CHL1   C12 1067   1.411   5.052   5.283 -0.5947  0.7056  0.8083
   15CHL1  H12A 1068   1.332   5.090   5.213  0.1808 -1.0238 -1.1101
   15CHL1  H12B 1069   1.419   4.943   5.264  0.7905  0.6845  1.4477
   15CHL1   C11 1070   1.356   5.075   5.422  0.3260  0.7536 -0.2335
   15CHL1  H11A 1071   1.315   5.178   5.424  0.9802  1.0047  1.5646
   15CHL1  H11B 1072   1.267   5.007   5.426 -0.2804  1.2302 -3.1312
   15CHL1    C9 1073   1.450   5.034   5.534 -0.4303 -0.0774 -0.4453
   15CHL1    H9 1074   1.455   4.924   5.519 -1.5390  0.1881 -3.4602
   15CHL1   C10 1075   1.396   5.045   5.678  0.3904  0.2974 -0.1949
   15CHL1   C19 1076   1.344   5.188   5.695  0.4447 -0.1123  0.4430
   15CHL1  H19A 1077   1.310   5.216   5.797 -0.2913 -1.2658  0.5304
   15CHL1  H19B 1078   1.426   5.258   5.667 -0.4712  1.2344  0.9933
   15CHL1  H19C 1079   1.261   5.209   5.624  1.0757 -1.8679 -0.8839
   15CHL1    C1 1080   1.278   4.944   5.711 -0.0432 -0.4560  0.2264
   15CHL1   H1A 1081   1.194   4.962   5.639  0.6106  1.2799 -0.1567
   15CHL1   H1B 1082   1.323   4.843   5.698 -2.0410 -1.3488 -0.2795
   15CHL1    C2 1083   1.233   4.935   5.857 -0.2058  0.4189  0.0144
   15CHL1   H2A 1084   1.154   4.858   5.868  0.2497  0.0719  0.9471
   15CHL1   H2B 1085   1.185   5.033   5.875  1.8577  1.4151  0.4480
   15CHL1   C20 1086   1.590   5.148   5.003  0.4986 -0.1217 -0.3297
   15CHL1   H20 1087   1.596   5.258   5.015 -0.2328 -0.3028  2.5870
   15CHL1   C21 1088   1.438   5.126   4.975 -0.0537  0.3209  0.5368
   15CHL1  H21A 1089   1.405   5.161   4.875 -0.6756 -0.5169  0.4408
   15CHL1  H21B 1090   1.378   5.194   5.040 -2.4952 -1.9849  0.8926
   15CHL1  H21C 1091   1.393   5.027   4.997  0.0330  0.0863 -0.3060
   15CHL1   C22 1092   1.672   5.101   4.880  0.0101 -0.6221  0.2649
   15CHL1  H22A 1093   1.637   5.154   4.789  0.1974  0.1033  0.6115
   15CHL1  H22B 1094   1.779   5.130   4.887 -0.2245  0.9808 -1.7816
   15CHL1   C23 1095   1.660   4.953   4.859  1.2503  0.3210  0.8092
   15CHL1  H23A 1096   1.688   4.894   4.949  3.4422 -0.5383 -0.3745
   15CHL1  H23B 1097   1.555   4.942   4.823  1.3890  1.9046 -0.1686
   15CHL1   C24 1098   1.746   4.898   4.748 -0.6308  0.2075  0.1805
   15CHL1  H24A 1099   1.705   4.932   4.651  2.4986  0.5438 -1.1369
   15CHL1  H24B 1100   1.847   4.942   4.765 -1.3670  1.5303  1.3336
   15CHL1   C25 1101   1.759   4.751   4.750  0.1628 -0.1922  0.1970
   15CHL1   H25 1102   1.663   4.701   4.773  0.0877  0.1288  0.5882
   15CHL1   C26 1103   1.810   4.688   4.618  0.4867 -0.0376 -0.0752
   15CHL1  H26A 1104   1.745   4.715   4.532 -1.0457  1.5428  1.5104
   15CHL1  H26B 1105   1.914   4.720   4.594  0.7615 -1.6495 -1.2227
   15CHL1  H26C 1106   1.813   4.577   4.626 -0.7364  0.0114  1.7027
   15CHL1   C27 1107   1.851   4.708   4.864  0.1849  0.7625  0.0730
   15CHL1  H27A 1108   1.794   4.727   4.957 -0.5346 -0.2265 -0.1514
   15CHL1  H27B 1109   1.865   4.598   4.856  1.4740  0.7226  1.9743
   15CHL1  H27C 1110   1.951   4.756   4.875  0.3083  0.6951 -0.7016
   16CHL1    C3 1111   5.380   5.233   6.251 -0.4368 -0.4407 -0.4150
   16CHL1    H3 1112   5.453   5.150   6.237  1.4736  1.0331  0.4101
   16CHL1    O3 1113   5.376   5.250   6.393 -0.3691 -0.2825 -0.0222
   16CHL1   H3' 1114   5.307   5.316   6.406 -0.8988  0.0152 -3.3875
   16CHL1    C4 1115   5.416   5.362   6.179  0.0184  0.2114 -0.0960
   16CHL1   H4A 1116   5.351   5.441   6.222 -1.2986 -0.9459  0.0902
   16CHL1   H4B 1117   5.516   5.393   6.217 -0.5205  1.8761  0.0510
   16CHL1    C5 1118   5.406   5.355   6.029  1.0615 -0.4379  0.1946
   16CHL1    C6 1119   5.504   5.403   5.952  0.0851 -1.1599 -0.1058
   16CHL1    H6 1120   5.596   5.446   5.996  0.1333 -0.8557 -0.4899
   16CHL1    C7 1121   5.492   5.412   5.796 -0.3150  0.1514  0.1102
   16CHL1   H7A 1122   5.541   5.504   5.758 -0.2896 -0.0731 -0.4057
   16CHL1   H7B 1123   5.547   5.328   5.749 -1.4285 -0.8491  0.5469
   16CHL1    C8 1124   5.346   5.405   5.744  0.1435  0.1489  0.2404
   16CHL1    H8 1125   5.292   5.497   5.777 -2.4486 -0.8898 -0.8296
   16CHL1   C14 1126   5.333   5.384   5.589  0.4101 -0.3073 -0.5587
   16CHL1   H14 1127   5.374   5.283   5.567  1.2268  0.4062 -2.5537
   16CHL1   C15 1128   5.406   5.472   5.498 -0.4835 -0.7505 -0.4768
   16CHL1  H15A 1129   5.386   5.577   5.528 -2.6568 -1.7852  2.1989
   16CHL1  H15B 1130   5.516   5.459   5.495 -0.5548 -1.2540 -1.0696
   16CHL1   C16 1131   5.350   5.436   5.359  0.1729 -0.5369  0.4390
   16CHL1  H16A 1132   5.329   5.532   5.308 -1.2564  1.0192  3.7244
   16CHL1  H16B 1133   5.430   5.385   5.301 -0.4953 -0.9357 -0.1553
   16CHL1   C17 1134   5.221   5.348   5.379  0.0044  0.3276 -0.1948
   16CHL1   H17 1135   5.255   5.243   5.366 -0.2938  0.1938  0.1010
   16CHL1   C13 1136   5.192   5.365   5.532 -0.3598  0.4932 -0.4821
   16CHL1   C18 1137   5.108   5.491   5.553  0.4386 -0.3011  0.3428
   16CHL1  H18A 1138   5.005   5.483   5.512  0.3978 -0.3417  0.4512
   16CHL1  H18B 1139   5.106   5.516   5.661 -1.3611 -1.3896  0.6090
   16CHL1  H18C 1140   5.155   5.578   5.504 -3.2800  2.0515  0.5381
   16CHL1   C12 1141   5.127   5.247   5.596  0.7727 -0.2921 -0.4063
   16CHL1  H12A 1142   5.019   5.242   5.575  0.3506  1.4510  1.1131
   16CHL1  H12B 1143   5.178   5.155   5.559  0.1784 -0.1299 -1.6696
   16CHL1   C11 1144   5.137   5.253   5.754 -0.6179  0.2986  0.2343
   16CHL1  H11A 1145   5.054   5.319   5.787 -1.0237 -0.4399  0.7127
   16CHL1  H11B 1146   5.109   5.152   5.789  0.5333  0.2513  1.0628
   16CHL1    C9 1147   5.276   5.283   5.819  0.1961 -0.5913  0.7862
   16CHL1    H9 1148   5.348   5.199   5.812 -0.6765 -1.2485 -0.9613
   16CHL1   C10 1149   5.266   5.300   5.972  0.0622  0.0561 -0.4753
   16CHL1   C19 1150   5.159   5.409   6.006 -0.0881 -0.8684  0.0218
   16CHL1  H19A 1151   5.168   5.491   5.932 -0.1771 -0.2884  0.6420
   16CHL1  H19B 1152   5.056   5.368   6.006  0.7071 -3.0247  0.6460
   16CHL1  H19C 1153   5.181   5.447   6.108  0.7027 -0.3849 -0.3167
   16CHL1    C1 1154   5.238   5.168   6.037  0.0566  0.3932  0.2497
   16CHL1   H1A 1155   5.144   5.127   5.995 -0.1856  0.7307  0.4676
   16CHL1   H1B 1156   5.314   5.091   6.008  0.4705 -0.0693  2.3970
   16CHL1    C2 1157   5.250   5.174   6.195  0.0385 -0.0069 -0.4544
   16CHL1   H2A 1158   5.245   5.070   6.236 -0.2542  0.0131 -0.4341
   16CHL1   H2B 1159   5.160   5.233   6.221  0.4518  1.1231 -1.5183
   16CHL1   C20 1160   5.125   5.367   5.259 -0.1933 -0.1703 -0.1003
   16CHL1   H20 1161   5.091   5.473   5.266 -3.1874 -0.9277 -1.4595
   16CHL1   C21 1162   5.011   5.268   5.296 -0.5949 -0.4300  0.4936
   16CHL1  H21A 1163   4.958   5.328   5.373  0.4432  3.4036 -1.5312
   16CHL1  H21B 1164   5.046   5.167   5.326  0.3383 -1.5642 -3.7326
   16CHL1  H21C 1165   4.943   5.259   5.208  0.0463  0.9584 -0.1699
   16CHL1   C22 1166   5.189   5.338   5.118  0.0554  0.0936  0.2973
   16CHL1  H22A 1167   5.281   5.400   5.123 -1.4813  2.3657  2.7359
   16CHL1  H22B 1168   5.213   5.229   5.111 -0.8389 -0.0545 -0.8110
   16CHL1   C23 1169   5.099   5.370   4.994 -0.2865 -0.6398 -0.0841
   16CHL1  H23A 1170   5.001   5.322   5.020  0.4383 -0.8993  2.5143
   16CHL1  H23B 1171   5.096   5.480   4.980  0.9671 -0.5298  0.3560
   16CHL1   C24 1172   5.159   5.308   4.865  0.0564  0.9724  0.0200
   16CHL1  H24A 1173   5.265   5.339   4.856  1.3600 -3.2239 -0.7690
   16CHL1  H24B 1174   5.159   5.197   4.868  0.3064  0.8878 -2.0444
   16CHL1   C25 1175   5.080   5.334   4.738 -0.0766  0.0035 -0.3711
   16CHL1   H25 1176   5.049   5.441   4.744  1.6069  0.4729  0.5236
   16CHL1   C26 1177   5.167   5.324   4.617 -0.2105  0.7230 -0.4338
   16CHL1  H26A 1178   5.251   5.396   4.614  0.9180 -0.5702 -1.1339
   16CHL1  H26B 1179   5.211   5.223   4.607 -0.8221  0.2687  1.2312
   16CHL1  H26C 1180   5.101   5.341   4.528 -2.1057 -1.0483  0.5389
   16CHL1   C27 1181   4.950   5.250   4.723  0.1889  0.1325 -0.2877
   16CHL1  H27A 1182   4.901   5.293   4.633  0.2881  0.2358 -0.2936
   16CHL1  H27B 1183   4.976   5.145   4.699  0.5780  0.0932  0.2880
   16CHL1  H27C 1184   4.890   5.261   4.816 -0.8133 -1.6234 -0.6873
   17CHL1    C3 1185   1.893   0.096   5.971 -0.5962 -0.3344 -0.2563
   17CHL1    H3 1186   1.808   0.097   5.899 -0.2321 -1.1941 -0.7091
   17CHL1    O3 1187   1.831   0.076   6.097 -0.3960  0.0838  0.7167
   17CHL1   H3' 1188   1.904   0.070   6.158 -1.1758 -0.1635  1.6638
   17CHL1    C4 1189   1.994  -0.017   5.962  0.8567  0.0424  0.0569
   17CHL1   H4A 1190   2.077  -0.004   6.034 -0.2198  0.6427  1.2328
   17CHL1   H4B 1191   1.932  -0.105   5.988  0.7682  0.0332 -0.1816
   17CHL1    C5 1192   2.053  -0.027   5.823 -0.1787 -0.0776  0.2335
   17CHL1    C6 1193   2.034  -0.132   5.739  0.3277  0.2969 -0.2043
   17CHL1    H6 1194   1.974  -0.216   5.777 -0.0834  0.8993  0.5121
   17CHL1    C7 1195   2.067  -0.131   5.594 -0.1029 -0.0061 -0.0555
   17CHL1   H7A 1196   2.112  -0.229   5.570 -0.3435 -0.0069 -0.5115
   17CHL1   H7B 1197   1.972  -0.125   5.537 -0.7272 -4.1624  0.2616
   17CHL1    C8 1198   2.169  -0.022   5.558  0.2095 -0.2181  0.0137
   17CHL1    H8 1199   2.271  -0.047   5.593 -0.2600  0.7491  2.3278
   17CHL1   C14 1200   2.163  -0.014   5.407  0.3974  0.3406  0.3952
   17CHL1   H14 1201   2.059   0.020   5.391 -0.1444 -0.8358  1.3032
   17CHL1   C15 1202   2.179  -0.144   5.324  0.5210  0.3924  0.2380
   17CHL1  H15A 1203   2.257  -0.212   5.364  0.6060 -0.9214 -1.9725
   17CHL1  H15B 1204   2.077  -0.189   5.324 -0.0645  1.6862 -0.1433
   17CHL1   C16 1205   2.216  -0.084   5.183  0.0328 -0.2085  0.8328
   17CHL1  H16A 1206   2.303  -0.141   5.147  0.0699 -0.2703  1.0232
   17CHL1  H16B 1207   2.124  -0.105   5.124  1.4450 -1.9247 -0.8719
   17CHL1   C17 1208   2.234   0.067   5.199  0.5899 -0.2261 -0.2912
   17CHL1   H17 1209   2.131   0.107   5.187  0.3881 -0.1450  1.4617
   17CHL1   C13 1210   2.262   0.087   5.347  0.1074 -0.3928 -0.0662
   17CHL1   C18 1211   2.403   0.043   5.381 -0.2541  0.1210 -0.1056
   17CHL1  H18A 1212   2.422  -0.062   5.351  3.3956  0.5757  0.2011
   17CHL1  H18B 1213   2.474   0.112   5.331  0.4039 -0.2287  0.3308
   17CHL1  H18C 1214   2.420   0.056   5.490  0.7837 -2.4094  0.0848
   17CHL1   C12 1215   2.229   0.226   5.403  0.1752  0.0607 -0.4045
   17CHL1  H12A 1216   2.306   0.300   5.373  1.8645 -1.9828 -1.3443
   17CHL1  H12B 1217   2.130   0.262   5.368 -0.6300 -1.7984 -0.1317
   17CHL1   C11 1218   2.226   0.226   5.556  0.1311  0.1144 -0.2321
   17CHL1  H11A 1219   2.324   0.213   5.607  0.2473  1.2932 -0.1324
   17CHL1  H11B 1220   2.186   0.324   5.588 -1.0884 -1.0732  2.0645
   17CHL1    C9 1221   2.137   0.116   5.620 -0.1401  0.6421 -0.2763
   17CHL1    H9 1222   2.037   0.129   5.574  0.1465 -0.5960 -1.3183
   17CHL1   C10 1223   2.114   0.109   5.779  0.4308 -0.2118 -0.0009
   17CHL1   C19 1224   2.250   0.132   5.843 -0.0710 -0.6632 -0.5738
   17CHL1  H19A 1225   2.286   0.235   5.819 -1.1794  0.1983  1.2285
   17CHL1  H19B 1226   2.247   0.128   5.954 -1.3266  3.3186 -0.2963
   17CHL1  H19C 1227   2.318   0.053   5.806  0.8225  0.3659 -1.1768
   17CHL1    C1 1228   2.019   0.229   5.815  0.1676  0.2123  0.4527
   17CHL1   H1A 1229   2.063   0.327   5.789 -0.7233  0.2384 -1.0932
   17CHL1   H1B 1230   1.930   0.216   5.750 -0.7862  0.4549  1.6700
   17CHL1    C2 1231   1.964   0.229   5.958 -0.1845  0.3662 -0.4385
   17CHL1   H2A 1232   1.894   0.313   5.976 -1.6190 -0.7717 -0.6013
   17CHL1   H2B 1233   2.044   0.238   6.035 -2.0000 -3.0843  2.1083
   17CHL1   C20 1234   2.323   0.141   5.104 -0.0758  0.4747  0.1932
   17CHL1   H20 1235   2.364   0.231   5.154 -1.5469  2.0669 -1.3165
   17CHL1   C21 1236   2.231   0.200   4.994 -0.6796 -0.3310  0.4034
   17CHL1  H21A 1237   2.178   0.117   4.941  1.9918 -1.7098 -0.2582
   17CHL1  H21B 1238   2.285   0.259   4.917  0.5615 -0.0230  1.4859
   17CHL1  H21C 1239   2.153   0.266   5.039 -2.9265 -0.8429 -2.4307
   17CHL1   C22 1240   2.450   0.062   5.049 -0.2715 -0.8994 -0.2291
   17CHL1  H22A 1241   2.496   0.004   5.132  0.1302 -2.5636 -1.5387
   17CHL1  H22B 1242   2.415  -0.022   4.985  1.0555 -0.9283 -0.9544
   17CHL1   C23 1243   2.561   0.135   4.967  0.5836 -0.4087  0.3136
   17CHL1  H23A 1244   2.624   0.059   4.917 -0.3115 -1.2385  0.4189
   17CHL1  H23B 1245   2.516   0.183   4.877  0.3619 -0.9999  0.1036
   17CHL1   C24 1246   2.646   0.233   5.046  0.0967 -0.3351  0.3021
   17CHL1  H24A 1247   2.587   0.315   5.092  0.8033  0.4155 -0.0905
   17CHL1  H24B 1248   2.687   0.182   5.136  1.3691  2.3094  1.3609
   17CHL1   C25 1249   2.772   0.286   4.965  0.1948  0.2172  0.5377
   17CHL1   H25 1250   2.846   0.204   4.953  0.6215  0.7161 -0.3632
   17CHL1   C26 1251   2.740   0.336   4.818 -0.3687 -0.3055  0.5642
   17CHL1  H26A 1252   2.835   0.384   4.788 -1.1703  2.0756  1.5730
   17CHL1  H26B 1253   2.713   0.254   4.748  0.6236 -1.2007  1.2057
   17CHL1  H26C 1254   2.670   0.422   4.815  1.5031  1.2831  0.7383
   17CHL1   C27 1255   2.835   0.400   5.041  0.5874  0.7062 -0.1276
   17CHL1  H27A 1256   2.761   0.483   5.052  1.5851  1.7787 -1.2470
   17CHL1  H27B 1257   2.849   0.363   5.145 -1.4265  1.0455  0.3089
   17CHL1  H27C 1258   2.925   0.454   5.006  1.2232  0.0885  0.5328
   18CHL1    C3 1259   0.925   2.808   5.621 -0.0747 -0.0062  0.8264
   18CHL1    H3 1260   0.994   2.880   5.571  0.4315 -1.0822 -0.0665
   18CHL1    O3 1261   0.897   2.827   5.757 -0.2839  0.2289  0.5805
   18CHL1   H3' 1262   0.974   2.787   5.798 -0.9100 -3.3192 -1.2682
   18CHL1    C4 1263   0.788   2.809   5.548 -0.3584  0.5667  0.1903
   18CHL1   H4A 1264   0.722   2.738   5.602  0.9706  0.2441  1.4384
   18CHL1   H4B 1265   0.742   2.909   5.564 -0.4900  0.2905  1.6056
   18CHL1    C5 1266   0.804   2.770   5.406 -0.1753 -0.8150 -0.4507
   18CHL1    C6 1267   0.770   2.849   5.303  0.1527 -0.5372  0.2652
   18CHL1    H6 1268   0.745   2.953   5.328  1.1299  0.8551 -3.8163
   18CHL1    C7 1269   0.783   2.818   5.155 -0.1592 -0.1649 -0.4080
   18CHL1   H7A 1270   0.696   2.849   5.093  0.5710  0.1598 -1.2939
   18CHL1   H7B 1271   0.875   2.861   5.111  0.2821 -1.5951 -0.9263
   18CHL1    C8 1272   0.789   2.658   5.146 -0.0508 -0.6367  0.3083
   18CHL1    H8 1273   0.690   2.616   5.172  0.2225 -1.5122 -0.0400
   18CHL1   C14 1274   0.827   2.639   4.999 -0.6037  0.1071 -0.5132
   18CHL1   H14 1275   0.925   2.690   4.981 -0.6531 -0.0297 -1.1887
   18CHL1   C15 1276   0.736   2.689   4.898 -0.0729  0.8601  0.2081
   18CHL1  H15A 1277   0.632   2.677   4.936  0.2203  0.5641  0.9569
   18CHL1  H15B 1278   0.751   2.797   4.878 -1.0449  0.7606 -1.1694
   18CHL1   C16 1279   0.765   2.611   4.761 -0.5236  0.0390  0.3564
   18CHL1  H16A 1280   0.669   2.573   4.720 -1.0543  3.2511 -1.7599
   18CHL1  H16B 1281   0.815   2.678   4.688 -1.3755  0.8932  0.5339
   18CHL1   C17 1282   0.869   2.505   4.808 -0.1503  0.1551 -0.0645
   18CHL1   H17 1283   0.958   2.570   4.802 -0.9654  1.3437  0.3689
   18CHL1   C13 1284   0.839   2.494   4.963  0.1587  0.5224  0.0347
   18CHL1   C18 1285   0.707   2.424   4.985  0.0955  0.7718 -0.7831
   18CHL1  H18A 1286   0.629   2.456   4.913 -2.7466  3.9215  3.2049
   18CHL1  H18B 1287   0.724   2.315   4.979  1.9938  0.9385  0.6623
   18CHL1  H18C 1288   0.663   2.445   5.085 -3.2196 -0.4978 -1.8521
   18CHL1   C12 1289   0.951   2.432   5.051  0.4352  0.0146  1.3336
   18CHL1  H12A 1290   0.960   2.323   5.035 -0.3890  0.1688 -0.3954
   18CHL1  H12B 1291   1.047   2.488   5.042  0.3453  0.0918  0.7775
   18CHL1   C11 1292   0.912   2.451   5.197  0.2589 -0.2039 -0.2552
   18CHL1  H11A 1293   0.819   2.394   5.220  0.3790  0.4955  2.2964
   18CHL1  H11B 1294   0.996   2.412   5.259 -0.4625  0.6106  1.2935
   18CHL1    C9 1295   0.896   2.603   5.236 -0.2847  0.1492 -0.4353
   18CHL1    H9 1296   0.992   2.653   5.212  0.9905 -0.7724  2.3456
   18CHL1   C10 1297   0.870   2.627   5.384 -0.5874  0.1336  0.2954
   18CHL1   C19 1298   0.777   2.518   5.436 -0.4546  0.6007  0.0586
   18CHL1  H19A 1299   0.682   2.515   5.378 -0.9268 -0.2411  0.8419
   18CHL1  H19B 1300   0.820   2.416   5.425  1.6747  1.4872 -0.2419
   18CHL1  H19C 1301   0.755   2.534   5.544 -1.6083 -0.1365 -0.0443
   18CHL1    C1 1302   1.004   2.632   5.463 -0.3986  0.5863 -0.1169
   18CHL1   H1A 1303   1.060   2.536   5.458  1.6761  1.7195  0.1509
   18CHL1   H1B 1304   1.077   2.707   5.426  1.3191 -1.4937 -1.2167
   18CHL1    C2 1305   0.990   2.672   5.608 -0.3319  0.4266 -0.2845
   18CHL1   H2A 1306   1.089   2.661   5.658 -0.5659 -1.2012 -0.1510
   18CHL1   H2B 1307   0.927   2.599   5.663  1.7503 -1.7331 -0.6104
   18CHL1   C20 1308   0.873   2.386   4.717  0.1994  0.0481 -0.9760
   18CHL1   H20 1309   0.789   2.316   4.736  0.6117 -0.2323 -0.1342
   18CHL1   C21 1310   1.001   2.307   4.745  1.0365 -1.1134 -0.4308
   18CHL1  H21A 1311   1.020   2.221   4.676 -0.9689 -1.0492 -1.1325
   18CHL1  H21B 1312   1.007   2.270   4.849 -1.8218  1.1108  0.6375
   18CHL1  H21C 1313   1.088   2.376   4.738 -0.1181  0.2972 -1.6103
   18CHL1   C22 1314   0.868   2.418   4.564  0.6249  0.1577 -0.2465
   18CHL1  H22A 1315   0.796   2.499   4.542  1.2289  1.0814  1.0776
   18CHL1  H22B 1316   0.971   2.449   4.535  0.3256  0.3321 -1.1623
   18CHL1   C23 1317   0.839   2.290   4.479  0.4242  0.5957 -0.8919
   18CHL1  H23A 1318   0.886   2.202   4.527 -0.6844  0.4892  0.0573
   18CHL1  H23B 1319   0.733   2.257   4.473  0.6635 -0.4931  0.4079
   18CHL1   C24 1320   0.896   2.314   4.341  0.4899  0.3781  0.2429
   18CHL1  H24A 1321   0.832   2.386   4.287 -3.9949 -2.2035  1.6095
   18CHL1  H24B 1322   1.000   2.355   4.343 -0.0557  2.0408 -1.8404
   18CHL1   C25 1323   0.907   2.185   4.258  0.3376 -0.5514  0.9206
   18CHL1   H25 1324   0.813   2.129   4.277 -0.2028  0.1551  0.3809
   18CHL1   C26 1325   0.905   2.230   4.112 -0.6750 -0.3563  0.2499
   18CHL1  H26A 1326   0.810   2.282   4.086  0.2207  2.0885  1.6218
   18CHL1  H26B 1327   0.989   2.298   4.089 -0.3786 -0.7206  0.2419
   18CHL1  H26C 1328   0.928   2.145   4.044  1.6211  0.9273 -0.6922
   18CHL1   C27 1329   1.033   2.107   4.291  0.6384  0.0618 -0.1824
   18CHL1  H27A 1330   1.027   2.096   4.401  0.6661  0.8503 -0.0926
   18CHL1  H27B 1331   1.018   2.010   4.240  0.1273 -0.1782  0.4109
   18CHL1  H27C 1332   1.119   2.167   4.254 -0.5455  2.0907  0.2196
   19CHL1    C3 1333   0.724   6.799   5.731 -0.2883 -0.7222 -0.1649
   19CHL1    H3 1334   0.797   6.873   5.770 -0.7017  0.6120 -1.7896
   19CHL1    O3 1335   0.695   6.700   5.824 -0.2442  0.4563  0.2859
   19CHL1   H3' 1336   0.697   6.623   5.767  1.6566  0.4320  0.3077
   19CHL1    C4 1337   0.596   6.870   5.694  0.6711  0.2029  0.7115
   19CHL1   H4A 1338   0.514   6.797   5.678  0.4379  0.6486 -0.1476
   19CHL1   H4B 1339   0.561   6.924   5.785 -0.9746  0.2504  0.0816
   19CHL1    C5 1340   0.613   6.968   5.573  0.3955  0.0972 -0.1389
   19CHL1    C6 1341   0.583   7.097   5.582  0.2129  0.2695 -0.0908
   19CHL1    H6 1342   0.567   7.136   5.684 -0.9566 -0.1326 -0.1001
   19CHL1    C7 1343   0.588   7.189   5.468 -0.3157  0.1782  0.2613
   19CHL1   H7A 1344   0.489   7.239   5.462 -0.1552  0.4936  0.2259
   19CHL1   H7B 1345   0.668   7.265   5.482  0.1551  0.0345 -1.4438
   19CHL1    C8 1346   0.600   7.115   5.327 -0.3622 -0.2770 -0.1698
   19CHL1    H8 1347   0.502   7.065   5.312  0.8870 -2.9011 -0.1891
   19CHL1   C14 1348   0.641   7.209   5.214  0.4765 -0.0480  0.4093
   19CHL1   H14 1349   0.749   7.231   5.229  0.5786  0.5987 -1.1483
   19CHL1   C15 1350   0.563   7.338   5.198  0.5811 -0.0595  0.4024
   19CHL1  H15A 1351   0.454   7.338   5.221  0.1026  1.1514 -1.5967
   19CHL1  H15B 1352   0.600   7.410   5.273  0.3796 -0.5325  0.9645
   19CHL1   C16 1353   0.582   7.371   5.044 -0.5800  0.0190  0.3412
   19CHL1  H16A 1354   0.485   7.383   4.992 -0.5802 -2.4141 -0.3363
   19CHL1  H16B 1355   0.640   7.466   5.050  1.4473 -1.0150 -1.5584
   19CHL1   C17 1356   0.674   7.263   4.982  0.0008 -0.4049 -0.1094
   19CHL1   H17 1357   0.780   7.283   5.010 -0.6637  1.1918  1.4756
   19CHL1   C13 1358   0.647   7.140   5.074 -0.1360  0.2743 -0.9618
   19CHL1   C18 1359   0.503   7.090   5.045 -0.0387  0.4167  0.0122
   19CHL1  H18A 1360   0.424   7.157   5.084  0.3340  0.0076  1.5032
   19CHL1  H18B 1361   0.492   7.075   4.935  1.6281 -0.0296 -0.1244
   19CHL1  H18C 1362   0.483   6.985   5.075 -0.6367 -0.2035 -2.3238
   19CHL1   C12 1363   0.754   7.034   5.084 -0.3793 -0.3922  0.4175
   19CHL1  H12A 1364   0.770   6.968   4.996  0.7111 -0.4160  0.6266
   19CHL1  H12B 1365   0.851   7.081   5.109  1.3972 -1.9734 -2.9109
   19CHL1   C11 1366   0.727   6.933   5.200 -0.7178  0.6643 -0.0629
   19CHL1  H11A 1367   0.644   6.872   5.159 -1.1618  1.2356 -0.0206
   19CHL1  H11B 1368   0.810   6.859   5.215 -0.6968  1.2375  3.5853
   19CHL1    C9 1369   0.700   6.999   5.334 -0.2757 -1.0268  0.4794
   19CHL1    H9 1370   0.800   7.033   5.368 -1.1091  0.2845  1.7369
   19CHL1   C10 1371   0.664   6.900   5.443 -0.3991  0.0101  0.3658
   19CHL1   C19 1372   0.545   6.811   5.389  0.2849  0.3032 -0.3237
   19CHL1  H19A 1373   0.465   6.869   5.339 -1.5977 -1.7436  0.1552
   19CHL1  H19B 1374   0.585   6.730   5.325  3.2540  1.1258  0.3666
   19CHL1  H19C 1375   0.490   6.771   5.477 -0.3557  2.3566  0.2848
   19CHL1    C1 1376   0.791   6.822   5.492  0.1306  0.0410  0.4075
   19CHL1   H1A 1377   0.824   6.764   5.403 -0.1074  1.9024 -0.9325
   19CHL1   H1B 1378   0.872   6.896   5.510  0.8909 -0.5480 -0.5205
   19CHL1    C2 1379   0.776   6.722   5.609 -0.7567  0.3397 -0.4130
   19CHL1   H2A 1380   0.875   6.679   5.634 -0.8620  0.2771 -0.1030
   19CHL1   H2B 1381   0.710   6.638   5.579  0.1155 -1.0236  1.3093
   19CHL1   C20 1382   0.663   7.254   4.830 -0.0935  0.0612 -0.0347
   19CHL1   H20 1383   0.563   7.212   4.804  1.0887 -3.6805  0.8601
   19CHL1   C21 1384   0.769   7.147   4.789  0.1440 -0.5390 -0.5076
   19CHL1  H21A 1385   0.716   7.049   4.798 -0.5198 -0.0264  1.6814
   19CHL1  H21B 1386   0.857   7.150   4.857 -0.6180 -0.3260  0.4969
   19CHL1  H21C 1387   0.811   7.172   4.690  0.0814  2.2763  0.0880
   19CHL1   C22 1388   0.685   7.388   4.752  0.4309  0.3308  0.9508
   19CHL1  H22A 1389   0.635   7.467   4.811  0.8295  0.2885  1.3465
   19CHL1  H22B 1390   0.794   7.406   4.744  0.6871 -1.4979 -0.2843
   19CHL1   C23 1391   0.634   7.372   4.603  0.0423 -0.4371  0.6797
   19CHL1  H23A 1392   0.658   7.270   4.568  2.1016  0.1446  0.2577
   19CHL1  H23B 1393   0.523   7.365   4.609 -0.0080 -2.8007 -1.3426
   19CHL1   C24 1394   0.674   7.484   4.512  0.0903 -0.1144  0.5064
   19CHL1  H24A 1395   0.649   7.582   4.560  0.7613  0.6931 -0.7342
   19CHL1  H24B 1396   0.785   7.481   4.505  0.0960 -1.8284  0.9660
   19CHL1   C25 1397   0.595   7.491   4.370 -0.2190 -1.0518 -0.4166
   19CHL1   H25 1398   0.489   7.477   4.400 -0.1603  0.5738  0.6785
   19CHL1   C26 1399   0.600   7.632   4.301 -0.2462  0.1085  0.0010
   19CHL1  H26A 1400   0.697   7.682   4.325 -0.1000 -0.4864  0.7034
   19CHL1  H26B 1401   0.607   7.625   4.191  1.1347  0.4370  0.0490
   19CHL1  H26C 1402   0.513   7.694   4.332 -0.7332  0.3867 -1.8245
   19CHL1   C27 1403   0.624   7.377   4.278 -0.0307  0.0504 -0.3593
   19CHL1  H27A 1404   0.559   7.394   4.189  1.3126  0.1313 -1.3574
   19CHL1  H27B 1405   0.733   7.368   4.258  0.2195 -2.8984  1.7161
   19CHL1  H27C 1406   0.583   7.282   4.320  0.3920  0.3637  0.7900
   20CHL1    C3 1407   0.381   3.329   5.734  0.7653  0.1600  0.1705
   20CHL1    H3 1408   0.363   3.221   5.718 -0.3058  0.4461 -0.7199
   20CHL1    O3 1409   0.352   3.367   5.871 -0.4327 -0.2354 -0.2283
   20CHL1   H3' 1410   0.340   3.462   5.874  1.3752  0.1109 -1.8225
   20CHL1    C4 1411   0.523   3.355   5.693  0.4781 -0.5405  0.6950
   20CHL1   H4A 1412   0.539   3.465   5.684  1.8668 -0.8316 -0.9207
   20CHL1   H4B 1413   0.593   3.300   5.760  0.4863 -1.3764  0.0161
   20CHL1    C5 1414   0.543   3.327   5.545  0.3144  0.0816 -0.2665
   20CHL1    C6 1415   0.637   3.242   5.512 -0.6195 -0.2082  0.2033
   20CHL1    H6 1416   0.699   3.194   5.589 -1.1694  0.2810  0.9825
   20CHL1    C7 1417   0.669   3.209   5.373  0.0203 -0.4483  0.5800
   20CHL1   H7A 1418   0.778   3.199   5.358 -0.1520 -0.5777 -0.7330
   20CHL1   H7B 1419   0.623   3.113   5.341 -0.0751 -0.0058 -0.6994
   20CHL1    C8 1420   0.611   3.311   5.265 -0.1513 -0.4935 -0.9577
   20CHL1    H8 1421   0.664   3.409   5.264  0.0366 -0.5696 -2.9806
   20CHL1   C14 1422   0.608   3.247   5.127 -0.0684  0.4549  0.0088
   20CHL1   H14 1423   0.561   3.147   5.137  0.6950  0.0910 -0.0352
   20CHL1   C15 1424   0.744   3.203   5.077 -0.4195  0.3058  0.3647
   20CHL1  H15A 1425   0.821   3.283   5.088 -0.8124  0.4755  2.0908
   20CHL1  H15B 1426   0.782   3.116   5.135  0.3550  0.4986  0.1567
   20CHL1   C16 1427   0.718   3.184   4.923  0.2213  1.2327  0.3948
   20CHL1  H16A 1428   0.797   3.233   4.861 -0.6748  1.3660 -0.6747
   20CHL1  H16B 1429   0.728   3.077   4.896  0.0151  1.4506 -0.6055
   20CHL1   C17 1430   0.577   3.241   4.891 -0.2269 -0.1951 -0.3145
   20CHL1   H17 1431   0.503   3.158   4.903  0.9715 -1.2837 -0.2308
   20CHL1   C13 1432   0.544   3.333   5.014  0.6306 -0.0370 -0.1886
   20CHL1   C18 1433   0.620   3.461   4.999 -0.5242 -0.3006  0.3129
   20CHL1  H18A 1434   0.629   3.514   5.097  3.4393 -0.1764  0.0420
   20CHL1  H18B 1435   0.721   3.445   4.956  0.0708 -0.4461  1.7078
   20CHL1  H18C 1436   0.562   3.520   4.925 -0.1085  2.6669  2.1429
   20CHL1   C12 1437   0.391   3.353   5.049  0.1623  0.0382  0.4186
   20CHL1  H12A 1438   0.332   3.407   4.971  0.2513  0.1853  0.4532
   20CHL1  H12B 1439   0.352   3.250   5.060 -0.5674  0.2638  0.0320
   20CHL1   C11 1440   0.386   3.422   5.188  0.8486  1.0084  0.0100
   20CHL1  H11A 1441   0.423   3.526   5.175 -0.9582  1.4287 -2.6723
   20CHL1  H11B 1442   0.280   3.441   5.217  0.4135  1.9551 -2.0390
   20CHL1    C9 1443   0.462   3.337   5.302  0.5784 -0.1117  0.5462
   20CHL1    H9 1444   0.413   3.237   5.296  0.9433 -0.2265 -0.6671
   20CHL1   C10 1445   0.442   3.389   5.442 -0.3982  0.9320  0.4794
   20CHL1   C19 1446   0.451   3.539   5.444  0.0137  0.4114 -0.5767
   20CHL1  H19A 1447   0.539   3.571   5.385  0.7712  0.3940  0.5158
   20CHL1  H19B 1448   0.361   3.589   5.401  0.1900  0.9066 -0.3780
   20CHL1  H19C 1449   0.456   3.586   5.545 -0.0545 -0.4229 -0.1722
   20CHL1    C1 1450   0.298   3.352   5.494 -0.5519 -0.0959  0.5428
   20CHL1   H1A 1451   0.226   3.411   5.433 -0.0087 -1.7841 -1.8564
   20CHL1   H1B 1452   0.283   3.244   5.475 -0.0732  0.0330 -0.6660
   20CHL1    C2 1453   0.269   3.386   5.639  0.6133 -0.4263  0.1769
   20CHL1   H2A 1454   0.179   3.344   5.689  1.1299  0.2316  1.7336
   20CHL1   H2B 1455   0.254   3.496   5.648 -0.7051 -0.4762 -1.1332
   20CHL1   C20 1456   0.562   3.278   4.744  0.2801  0.0811 -0.0459
   20CHL1   H20 1457   0.637   3.358   4.727 -0.5313  0.7571 -0.4745
   20CHL1   C21 1458   0.417   3.329   4.726  0.6400 -0.7154  0.5670
   20CHL1  H21A 1459   0.397   3.419   4.788 -0.2005 -2.7902  3.5346
   20CHL1  H21B 1460   0.347   3.247   4.757  2.3556 -1.9757  1.2624
   20CHL1  H21C 1461   0.396   3.351   4.619  0.3643 -0.4435  0.6766
   20CHL1   C22 1462   0.598   3.166   4.649  0.4731  0.2280 -0.1721
   20CHL1  H22A 1463   0.699   3.127   4.673  0.8487  0.0418 -1.9497
   20CHL1  H22B 1464   0.526   3.081   4.658  1.4106 -0.5472  0.2106
   20CHL1   C23 1465   0.609   3.205   4.495 -0.3035 -0.6208  0.6017
   20CHL1  H23A 1466   0.505   3.203   4.456  0.9523  0.2757 -3.1668
   20CHL1  H23B 1467   0.644   3.310   4.486  1.6342 -1.2940 -0.2235
   20CHL1   C24 1468   0.699   3.109   4.416  1.3637  0.2496  0.0977
   20CHL1  H24A 1469   0.804   3.105   4.452  2.3417 -1.6744 -2.6584
   20CHL1  H24B 1470   0.652   3.009   4.423  0.7350  0.5434  0.1718
   20CHL1   C25 1471   0.695   3.129   4.264  0.3219 -0.1897 -0.5898
   20CHL1   H25 1472   0.725   3.235   4.248  0.6138  0.5803  3.7711
   20CHL1   C26 1473   0.799   3.041   4.192 -0.4439  0.8565  0.3626
   20CHL1  H26A 1474   0.791   3.062   4.083  0.3412  0.8964  0.3116
   20CHL1  H26B 1475   0.900   3.075   4.223 -1.4870  2.6133  2.1065
   20CHL1  H26C 1476   0.790   2.931   4.201 -3.2095  0.8903 -0.7612
   20CHL1   C27 1477   0.559   3.094   4.203 -0.0439 -0.1779  0.8682
   20CHL1  H27A 1478   0.480   3.150   4.259  0.6857  0.9287  0.8106
   20CHL1  H27B 1479   0.560   3.124   4.096  0.7966 -1.0321  0.6237
   20CHL1  H27C 1480   0.529   2.987   4.198 -2.2607  0.4378 -0.3922
   21CHL1    C3 1481   4.807   2.479   6.223  0.1664  0.1390  0.5002
   21CHL1    H3 1482   4.781   2.372   6.207 -1.3494  0.5666 -0.0370
   21CHL1    O3 1483   4.830   2.497   6.362 -0.0531  1.0127  0.2215
   21CHL1   H3' 1484   4.820   2.592   6.374 -1.2844  1.3686 -2.7601
   21CHL1    C4 1485   4.934   2.504   6.143 -0.2594 -1.0950 -0.3070
   21CHL1   H4A 1486   4.990   2.599   6.152  1.2409 -1.8183 -1.5178
   21CHL1   H4B 1487   5.012   2.429   6.168 -0.5776 -1.2597  0.2100
   21CHL1    C5 1488   4.917   2.507   5.989  0.2460 -0.2310 -0.1176
   21CHL1    C6 1489   4.985   2.435   5.903 -0.1164 -0.0091 -0.0992
   21CHL1    H6 1490   5.056   2.363   5.947  0.1528 -0.5290 -1.3517
   21CHL1    C7 1491   4.974   2.442   5.752 -0.8156  0.9927 -0.5198
   21CHL1   H7A 1492   5.075   2.436   5.705  0.7230  2.5129  2.3002
   21CHL1   H7B 1493   4.925   2.350   5.716 -2.1480  0.2602  2.7751
   21CHL1    C8 1494   4.892   2.566   5.701 -0.3538  0.0026  0.0275
   21CHL1    H8 1495   4.960   2.652   5.719 -0.1715  0.1375 -1.2284
   21CHL1   C14 1496   4.857   2.553   5.559 -0.2917 -0.1208 -0.2582
   21CHL1   H14 1497   4.795   2.461   5.567 -1.1138  0.2580 -1.7961
   21CHL1   C15 1498   4.970   2.530   5.459  0.1365 -0.0136  0.2107
   21CHL1  H15A 1499   5.059   2.588   5.492 -1.3190  0.9501  2.7892
   21CHL1  H15B 1500   4.990   2.421   5.455  1.1902  0.2071 -3.2396
   21CHL1   C16 1501   4.905   2.569   5.326 -0.0027 -0.2432  0.0850
   21CHL1  H16A 1502   4.968   2.649   5.282 -2.4588  0.6746 -2.0516
   21CHL1  H16B 1503   4.893   2.487   5.252 -2.9149  1.3049 -1.3322
   21CHL1   C17 1504   4.763   2.629   5.356  0.7001 -0.0320 -0.3254
   21CHL1   H17 1505   4.692   2.544   5.353 -0.5334  0.9588  0.0923
   21CHL1   C13 1506   4.767   2.666   5.505  0.5423  0.5141 -0.1124
   21CHL1   C18 1507   4.845   2.801   5.509  0.5613  0.2348 -0.4661
   21CHL1  H18A 1508   4.884   2.822   5.611  2.3674 -1.1605 -0.8243
   21CHL1  H18B 1509   4.937   2.794   5.447 -1.4077  1.5406 -3.7692
   21CHL1  H18C 1510   4.775   2.884   5.488  0.2718  0.7413  2.1780
   21CHL1   C12 1511   4.633   2.674   5.584  0.1263  0.2382 -0.1861
   21CHL1  H12A 1512   4.573   2.758   5.543 -0.0252  1.0430  1.5965
   21CHL1  H12B 1513   4.575   2.582   5.561  2.5636 -1.2422 -0.7343
   21CHL1   C11 1514   4.668   2.703   5.735  0.0370 -0.3623  0.0921
   21CHL1  H11A 1515   4.717   2.803   5.729  0.4356 -0.5601  0.0136
   21CHL1  H11B 1516   4.574   2.705   5.794 -0.0511 -2.4869  0.0833
   21CHL1    C9 1517   4.767   2.590   5.788 -0.8016  0.1299 -0.5532
   21CHL1    H9 1518   4.708   2.496   5.782 -3.6360  1.6045  1.7971
   21CHL1   C10 1519   4.803   2.604   5.942  0.1249 -1.1393 -0.3144
   21CHL1   C19 1520   4.836   2.755   5.969 -0.3263 -0.2911 -0.0686
   21CHL1  H19A 1521   4.751   2.820   5.939  0.6909  1.3773  0.5381
   21CHL1  H19B 1522   4.863   2.780   6.073  0.8062 -0.5110 -0.2964
   21CHL1  H19C 1523   4.921   2.784   5.902 -0.3608 -0.4914 -0.1994
   21CHL1    C1 1524   4.676   2.558   6.017 -0.2129  0.3175  0.5590
   21CHL1   H1A 1525   4.589   2.622   5.989  0.7118  0.7603 -1.4748
   21CHL1   H1B 1526   4.646   2.454   5.989 -0.3458  0.5649 -0.2565
   21CHL1    C2 1527   4.689   2.556   6.172 -0.0329 -0.0453 -0.2172
   21CHL1   H2A 1528   4.597   2.511   6.215  1.1844 -2.6511 -0.1132
   21CHL1   H2B 1529   4.698   2.659   6.212  2.0941  0.1153 -1.0092
   21CHL1   C20 1530   4.713   2.731   5.253 -0.0301  0.1965  0.5409
   21CHL1   H20 1531   4.758   2.832   5.260  0.7335  0.2651 -3.0553
   21CHL1   C21 1532   4.556   2.745   5.248 -0.0779  0.2313 -0.5991
   21CHL1  H21A 1533   4.529   2.814   5.165  0.5728  1.3059  0.0629
   21CHL1  H21B 1534   4.528   2.789   5.346 -1.3607 -1.8579  0.0261
   21CHL1  H21C 1535   4.508   2.649   5.223 -0.4379 -0.5273  2.5839
   21CHL1   C22 1536   4.751   2.697   5.108 -0.6912  0.5826 -0.0355
   21CHL1  H22A 1537   4.860   2.676   5.100 -0.8541  0.1323 -1.3435
   21CHL1  H22B 1538   4.710   2.597   5.082  1.6660 -0.0950 -1.4322
   21CHL1   C23 1539   4.721   2.800   4.996 -0.2925 -0.3551 -0.3214
   21CHL1  H23A 1540   4.611   2.804   4.985 -0.2276  1.1415 -0.5297
   21CHL1  H23B 1541   4.753   2.898   5.038 -2.9231 -0.0829  1.2833
   21CHL1   C24 1542   4.777   2.780   4.856 -0.9563  0.8492  0.5343
   21CHL1  H24A 1543   4.887   2.775   4.866 -0.9601 -2.5951  0.0975
   21CHL1  H24B 1544   4.744   2.681   4.818  0.9430  0.7431 -0.9781
   21CHL1   C25 1545   4.737   2.877   4.748  0.7470  0.5127  0.2591
   21CHL1   H25 1546   4.630   2.860   4.722  0.4116 -0.3271  2.0065
   21CHL1   C26 1547   4.759   3.025   4.775 -0.5687  0.0498  0.4513
   21CHL1  H26A 1548   4.868   3.046   4.770 -0.4051 -0.9507 -0.4777
   21CHL1  H26B 1549   4.709   3.088   4.698  1.3360 -0.5934 -1.4165
   21CHL1  H26C 1550   4.723   3.053   4.876 -2.5883  0.6225 -0.3675
   21CHL1   C27 1551   4.798   2.817   4.618 -0.0633 -0.0028 -0.4859
   21CHL1  H27A 1552   4.908   2.832   4.606  0.4012  0.1784  2.9978
   21CHL1  H27B 1553   4.778   2.708   4.624  0.4654  0.0012  2.9097
   21CHL1  H27C 1554   4.745   2.858   4.529 -0.0728 -0.1754 -0.5611
   22CHL1    C3 1555   3.955   5.713   5.844 -0.4494 -0.2099  0.4975
   22CHL1    H3 1556   3.876   5.634   5.853 -0.7344 -0.1651 -1.1601
   22CHL1    O3 1557   3.985   5.762   5.970 -0.0006  0.3300  0.1797
   22CHL1   H3' 1558   4.022   5.685   6.014  1.0726  0.5095 -0.3857
   22CHL1    C4 1559   4.087   5.657   5.776  0.3321 -0.0526  0.4100
   22CHL1   H4A 1560   4.155   5.741   5.801  1.5464  0.0865 -2.8645
   22CHL1   H4B 1561   4.110   5.568   5.839  1.2390 -0.5754 -0.6161
   22CHL1    C5 1562   4.069   5.620   5.633  0.6300 -0.6576 -0.1328
   22CHL1    C6 1563   4.087   5.494   5.587 -0.0779 -0.3746 -0.3331
   22CHL1    H6 1564   4.117   5.416   5.659 -3.5245 -0.0426  1.6698
   22CHL1    C7 1565   4.072   5.458   5.438  0.9919  0.8223  0.2930
   22CHL1   H7A 1566   4.150   5.382   5.417  1.5327  0.3015  3.6744
   22CHL1   H7B 1567   3.974   5.407   5.425  1.7062 -0.0116 -2.6117
   22CHL1    C8 1568   4.083   5.577   5.341  0.8552 -0.3760  0.1828
   22CHL1    H8 1569   4.189   5.609   5.342  0.9564 -0.7123  0.5741
   22CHL1   C14 1570   4.040   5.542   5.199 -0.9678  0.1951 -0.5025
   22CHL1   H14 1571   3.931   5.522   5.199 -0.8274 -0.6357 -0.9577
   22CHL1   C15 1572   4.112   5.421   5.131  0.6560  0.0214  0.1250
   22CHL1  H15A 1573   4.214   5.413   5.174  0.4138  2.1098  1.2570
   22CHL1  H15B 1574   4.065   5.322   5.149  2.1233 -0.7561 -0.1886
   22CHL1   C16 1575   4.095   5.456   4.976  0.4318  0.5760  0.6495
   22CHL1  H16A 1576   4.202   5.465   4.947  0.0562 -0.5496 -1.2687
   22CHL1  H16B 1577   4.036   5.377   4.926 -2.0933  1.0174  2.7324
   22CHL1   C17 1578   4.021   5.588   4.962 -0.6203  0.2057 -0.7090
   22CHL1   H17 1579   3.911   5.568   4.964 -0.4424 -0.7603  0.4694
   22CHL1   C13 1580   4.053   5.655   5.098  0.2212 -0.8697 -0.9328
   22CHL1   C18 1581   4.192   5.721   5.089  0.0133 -0.1719  0.0288
   22CHL1  H18A 1582   4.270   5.647   5.060  1.0880 -0.6601  3.6652
   22CHL1  H18B 1583   4.205   5.799   5.011  2.3844 -2.1359 -1.6983
   22CHL1  H18C 1584   4.225   5.774   5.181  2.7475  0.7772 -1.3842
   22CHL1   C12 1585   3.951   5.758   5.149 -0.4306  0.2409  0.3266
   22CHL1  H12A 1586   3.950   5.842   5.076  2.4156  1.5155  1.5990
   22CHL1  H12B 1587   3.847   5.721   5.141  0.4029 -2.3888  0.7996
   22CHL1   C11 1588   3.972   5.806   5.293  0.2605  0.3317 -0.0868
   22CHL1  H11A 1589   4.070   5.858   5.291  2.0676 -2.6599  2.1535
   22CHL1  H11B 1590   3.893   5.874   5.333 -0.0898  0.2961 -0.6958
   22CHL1    C9 1591   3.992   5.688   5.391  0.5958  0.2004  0.3195
   22CHL1    H9 1592   3.889   5.648   5.387  0.1149  1.5215 -2.1173
   22CHL1   C10 1593   4.028   5.733   5.538  0.8643  0.0715 -0.1559
   22CHL1   C19 1594   4.147   5.827   5.536  0.0721 -0.4374  0.4883
   22CHL1  H19A 1595   4.120   5.924   5.490  1.9117 -0.1634 -0.1111
   22CHL1  H19B 1596   4.184   5.858   5.637 -0.9583  1.6866  0.2663
   22CHL1  H19C 1597   4.237   5.800   5.477  1.1019  1.1345  1.2776
   22CHL1    C1 1598   3.900   5.798   5.604  0.5400 -0.3235 -0.4275
   22CHL1   H1A 1599   3.872   5.889   5.548  0.8476 -1.9413 -3.4524
   22CHL1   H1B 1600   3.817   5.725   5.591  1.4638 -1.1044 -2.4587
   22CHL1    C2 1601   3.918   5.831   5.753 -0.3275  0.0469  0.7507
   22CHL1   H2A 1602   3.821   5.871   5.789  0.0521 -0.4451  2.4303
   22CHL1   H2B 1603   3.994   5.912   5.756 -0.4273  0.2629 -1.1849
   22CHL1   C20 1604   4.029   5.666   4.830  0.1220 -0.3000  0.3121
   22CHL1   H20 1605   4.110   5.742   4.829 -1.7968  1.8872 -1.4270
   22CHL1   C21 1606   3.891   5.732   4.812  0.2834  0.0831  0.4887
   22CHL1  H21A 1607   3.809   5.659   4.801  0.5673 -0.0172 -1.1746
   22CHL1  H21B 1608   3.889   5.803   4.726  2.0163  1.2983  1.3616
   22CHL1  H21C 1609   3.869   5.803   4.895 -0.3070 -0.5709  0.9058
   22CHL1   C22 1610   4.059   5.582   4.711 -0.2455  0.4166  0.0366
   22CHL1  H22A 1611   4.149   5.521   4.732  0.8813  2.9697  3.5541
   22CHL1  H22B 1612   3.976   5.508   4.703 -0.6477  0.8959 -0.3261
   22CHL1   C23 1613   4.068   5.660   4.581 -0.1957 -0.1382  0.3131
   22CHL1  H23A 1614   3.976   5.720   4.563 -1.7968 -2.5245  0.0020
   22CHL1  H23B 1615   4.151   5.734   4.583  1.2324 -1.7053  0.9308
   22CHL1   C24 1616   4.089   5.564   4.458  0.0342 -0.3470  0.0366
   22CHL1  H24A 1617   4.169   5.492   4.486  0.1384 -1.0593 -1.9126
   22CHL1  H24B 1618   3.992   5.513   4.444  0.5667 -1.7467  1.2002
   22CHL1   C25 1619   4.133   5.639   4.330 -0.6042  0.3968  0.3873
   22CHL1   H25 1620   4.238   5.672   4.343 -0.3945 -0.5044  1.0395
   22CHL1   C26 1621   4.130   5.564   4.200  0.0907 -0.1781 -0.2616
   22CHL1  H26A 1622   4.146   5.630   4.112 -1.4917 -1.5381 -1.6536
   22CHL1  H26B 1623   4.207   5.484   4.196  1.2098  0.9224 -2.3657
   22CHL1  H26C 1624   4.034   5.508   4.198 -1.3604  2.1215  0.9558
   22CHL1   C27 1625   4.048   5.764   4.308 -0.2413  0.4393 -0.8120
   22CHL1  H27A 1626   4.080   5.813   4.214  1.2719  1.0012 -0.0455
   22CHL1  H27B 1627   3.943   5.728   4.296 -0.0532  0.0348 -1.2841
   22CHL1  H27C 1628   4.056   5.833   4.395  2.0162 -0.0049 -0.6074
   23CHL1    C3 1629   5.521   4.804   6.282  0.5397 -0.0714  0.1645
   23CHL1    H3 1630   5.448   4.883   6.309  2.4782  1.9506 -0.1974
   23CHL1    O3 1631   5.556   4.738   6.404  0.3008  0.0936 -0.4159
   23CHL1   H3' 1632   5.644   4.768   6.427  0.8489 -1.6296 -0.1386
   23CHL1    C4 1633   5.447   4.702   6.186  0.8473  0.7747  0.8818
   23CHL1   H4A 1634   5.507   4.610   6.171  0.3785  0.2581  2.0480
   23CHL1   H4B 1635   5.349   4.676   6.231 -0.4863  1.8494 -1.2352
   23CHL1    C5 1636   5.419   4.759   6.045  0.0639 -0.3771  0.2752
   23CHL1    C6 1637   5.303   4.750   5.973  0.0843  0.2857  0.3763
   23CHL1    H6 1638   5.217   4.691   6.008  0.9150 -0.6253  0.9380
   23CHL1    C7 1639   5.292   4.793   5.835  0.2049 -0.1961  0.3220
   23CHL1   H7A 1640   5.232   4.724   5.772  0.0925  0.0528  0.1548
   23CHL1   H7B 1641   5.246   4.894   5.838 -1.1121 -0.7896  0.4749
   23CHL1    C8 1642   5.427   4.805   5.758 -0.4865 -0.9200 -0.2258
   23CHL1    H8 1643   5.464   4.702   5.739 -0.1799 -1.0607  1.0353
   23CHL1   C14 1644   5.407   4.879   5.627 -0.5117  0.0978  0.0692
   23CHL1   H14 1645   5.372   4.979   5.659 -0.2074  0.4325 -0.6199
   23CHL1   C15 1646   5.299   4.828   5.526  0.8726 -0.4277  0.0054
   23CHL1  H15A 1647   5.298   4.717   5.525  3.1150 -0.5036  0.2049
   23CHL1  H15B 1648   5.197   4.855   5.561  0.9181 -1.0546  0.6488
   23CHL1   C16 1649   5.325   4.891   5.392 -0.3953 -0.6509 -0.0095
   23CHL1  H16A 1650   5.327   4.819   5.308  1.3636  0.0613 -0.6330
   23CHL1  H16B 1651   5.245   4.963   5.364 -2.0222 -2.4937 -0.2601
   23CHL1   C17 1652   5.463   4.963   5.406  0.3871 -0.4387 -0.7950
   23CHL1   H17 1653   5.435   5.067   5.436 -1.3063 -0.3184 -2.6424
   23CHL1   C13 1654   5.532   4.893   5.535  0.1738 -0.6449  0.0169
   23CHL1   C18 1655   5.580   4.752   5.486 -0.2440  0.5756 -0.9011
   23CHL1  H18A 1656   5.614   4.698   5.576 -2.2186 -1.2472 -1.1637
   23CHL1  H18B 1657   5.505   4.689   5.433  2.2759 -0.3683 -3.6451
   23CHL1  H18C 1658   5.670   4.760   5.422 -0.4395 -0.6964 -1.3817
   23CHL1   C12 1659   5.631   4.982   5.618 -0.6883  0.4632  0.0767
   23CHL1  H12A 1660   5.723   4.980   5.556 -1.6698  0.3746 -1.4102
   23CHL1  H12B 1661   5.590   5.084   5.629  2.1468  1.5969  1.1723
   23CHL1   C11 1662   5.660   4.921   5.758  0.2926 -0.2246  0.1144
   23CHL1  H11A 1663   5.725   4.833   5.738  0.0869 -0.4380  0.3757
   23CHL1  H11B 1664   5.720   4.989   5.822 -2.1915 -0.3582  2.8117
   23CHL1    C9 1665   5.534   4.881   5.841  0.7861  0.1169 -0.9999
   23CHL1    H9 1666   5.477   4.975   5.853  0.2354 -0.4307  0.9841
   23CHL1   C10 1667   5.548   4.812   5.977  0.6319  0.4269  0.6492
   23CHL1   C19 1668   5.649   4.692   5.954 -0.9299  0.1278  0.1522
   23CHL1  H19A 1669   5.616   4.624   5.873  0.6299  1.0732 -1.3340
   23CHL1  H19B 1670   5.752   4.725   5.928 -0.4236 -2.9632 -2.3011
   23CHL1  H19C 1671   5.660   4.626   6.042  1.0058 -0.4033 -0.4331
   23CHL1    C1 1672   5.613   4.917   6.071  0.2858 -0.3299 -0.1849
   23CHL1   H1A 1673   5.704   4.968   6.032  1.6844 -1.8817  0.8934
   23CHL1   H1B 1674   5.536   4.996   6.080 -2.8542 -3.2995  1.4322
   23CHL1    C2 1675   5.649   4.867   6.212  0.5255  0.3971 -0.2905
   23CHL1   H2A 1676   5.679   4.951   6.279  2.0187 -0.0165 -0.3829
   23CHL1   H2B 1677   5.726   4.787   6.202  1.1767  1.3580 -4.5202
   23CHL1   C20 1678   5.543   4.977   5.272  0.0792 -0.1893 -0.6289
   23CHL1   H20 1679   5.569   4.873   5.246  1.2455 -0.3581  1.1011
   23CHL1   C21 1680   5.661   5.068   5.293 -0.2423 -0.4317  0.5430
   23CHL1  H21A 1681   5.638   5.155   5.357 -0.3576 -0.4043  0.4647
   23CHL1  H21B 1682   5.712   5.102   5.200 -0.5516 -1.2111  0.0715
   23CHL1  H21C 1683   5.743   5.006   5.337 -0.8582 -1.8858 -0.2785
   23CHL1   C22 1684   5.450   5.041   5.165  0.3385  1.3638 -0.5181
   23CHL1  H22A 1685   5.360   4.976   5.157  0.7105  0.9788 -1.9119
   23CHL1  H22B 1686   5.412   5.137   5.206 -2.3279  0.8057 -1.4960
   23CHL1   C23 1687   5.510   5.053   5.019 -0.1621  0.1807 -0.3206
   23CHL1  H23A 1688   5.451   5.128   4.962 -0.1142  1.4929  1.2862
   23CHL1  H23B 1689   5.614   5.093   5.009 -0.2632  0.4341 -0.3770
   23CHL1   C24 1690   5.499   4.920   4.949 -0.2576  0.0074 -0.4390
   23CHL1  H24A 1691   5.599   4.900   4.904  0.2049 -1.1019  0.9823
   23CHL1  H24B 1692   5.494   4.850   5.035  0.1249 -0.5442 -0.8557
   23CHL1   C25 1693   5.384   4.889   4.853  0.1909  0.0929  0.3380
   23CHL1   H25 1694   5.283   4.907   4.895 -0.3008  0.6537 -1.0304
   23CHL1   C26 1695   5.396   4.974   4.725 -0.0248 -0.1761  0.5964
   23CHL1  H26A 1696   5.369   5.080   4.744  3.8355  1.0108  0.2660
   23CHL1  H26B 1697   5.498   4.968   4.681  0.2176 -1.5362  1.2877
   23CHL1  H26C 1698   5.326   4.935   4.648  1.3021 -1.0859 -0.1843
   23CHL1   C27 1699   5.400   4.743   4.813 -0.8788 -0.8094  0.2420
   23CHL1  H27A 1700   5.314   4.710   4.750  0.0419 -1.9184 -0.4788
   23CHL1  H27B 1701   5.495   4.728   4.758 -0.6633 -0.9889  0.6648
   23CHL1  H27C 1702   5.419   4.671   4.895  0.2904 -0.0911  0.6181
   24CHL1    C3 1703   0.017   0.934   6.166 -0.0258 -0.3149  0.2972
   24CHL1    H3 1704   0.104   0.872   6.136  1.5939  1.2068  1.6953
   24CHL1    O3 1705   0.015   0.954   6.304 -0.3868  0.4433 -0.3176
   24CHL1   H3' 1706   0.100   0.993   6.324 -1.7235  2.3002  2.1653
   24CHL1    C4 1707   0.028   1.070   6.103 -0.4009 -0.6000 -0.2123
   24CHL1   H4A 1708  -0.057   1.136   6.130 -0.8669 -1.2080 -0.1714
   24CHL1   H4B 1709   0.125   1.107   6.142 -0.0041 -0.2399 -1.4860
   24CHL1    C5 1710   0.040   1.057   5.951  0.3423 -0.2152 -0.5902
   24CHL1    C6 1711   0.136   1.119   5.881  0.3859 -0.2702  0.5516
   24CHL1    H6 1712   0.216   1.170   5.937 -0.2037  2.2170 -0.7210
   24CHL1    C7 1713   0.149   1.123   5.730  0.3749 -0.3530 -0.8074
   24CHL1   H7A 1714   0.177   1.220   5.683  3.8567  0.0206  1.6767
   24CHL1   H7B 1715   0.222   1.046   5.698 -1.1999 -1.0469 -2.9942
   24CHL1    C8 1716   0.012   1.072   5.665  0.2068  0.6306 -0.0808
   24CHL1    H8 1717  -0.062   1.154   5.674 -0.0101  0.5185 -0.7725
   24CHL1   C14 1718   0.038   1.035   5.516  0.5326  0.9312 -0.1375
   24CHL1   H14 1719   0.101   0.944   5.510  1.0743  1.3271 -0.5712
   24CHL1   C15 1720   0.112   1.125   5.423  1.1795  0.3238 -0.0537
   24CHL1  H15A 1721   0.071   1.227   5.436 -2.5753 -0.8528 -1.3955
   24CHL1  H15B 1722   0.223   1.131   5.432  1.0886  3.3632 -0.0124
   24CHL1   C16 1723   0.074   1.073   5.284  0.1051 -0.3235 -0.2941
   24CHL1  H16A 1724   0.033   1.157   5.224 -1.0175  1.7400  3.0587
   24CHL1  H16B 1725   0.161   1.026   5.232  1.2379  0.8836  0.4336
   24CHL1   C17 1726  -0.034   0.974   5.304 -0.2552 -0.2913  0.1457
   24CHL1   H17 1727   0.013   0.873   5.296  0.8041  0.1353  0.7456
   24CHL1   C13 1728  -0.091   0.991   5.446 -0.2336 -0.6486  0.2734
   24CHL1   C18 1729  -0.199   1.101   5.449  0.1533 -0.1906 -0.0522
   24CHL1  H18A 1730  -0.179   1.184   5.378 -1.5970 -0.2115 -0.6056
   24CHL1  H18B 1731  -0.292   1.051   5.414  0.2152  0.1394 -0.7029
   24CHL1  H18C 1732  -0.219   1.142   5.550  1.2745 -1.1244  0.5756
   24CHL1   C12 1733  -0.144   0.867   5.521  0.0295  0.7898  0.3417
   24CHL1  H12A 1734  -0.240   0.833   5.476  0.1031  0.0412  0.7280
   24CHL1  H12B 1735  -0.070   0.784   5.511  1.0062  1.5750  0.9021
   24CHL1   C11 1736  -0.172   0.889   5.666  0.2535  0.1631  0.0189
   24CHL1  H11A 1737  -0.260   0.955   5.674 -0.1879 -0.3997 -0.1015
   24CHL1  H11B 1738  -0.189   0.789   5.712 -0.2284  1.4214  2.8381
   24CHL1    C9 1739  -0.048   0.953   5.747  0.0702 -0.5038 -0.1667
   24CHL1    H9 1740   0.035   0.879   5.746 -0.1475 -0.7504 -1.0453
   24CHL1   C10 1741  -0.081   0.981   5.894  0.2919  0.3958 -0.1438
   24CHL1   C19 1742  -0.211   1.062   5.912  0.2707  0.1149 -0.4727
   24CHL1  H19A 1743  -0.211   1.094   6.018 -1.8190 -0.9468 -0.1126
   24CHL1  H19B 1744  -0.215   1.154   5.850 -1.2346  0.1142 -0.4006
   24CHL1  H19C 1745  -0.303   1.006   5.886  0.6744 -1.3570  1.0740
   24CHL1    C1 1746  -0.097   0.844   5.967 -0.5600 -0.0855  0.1313
   24CHL1   H1A 1747  -0.196   0.806   5.934 -1.2570  1.0968  0.8097
   24CHL1   H1B 1748  -0.011   0.782   5.934 -0.3223  0.0968  0.4041
   24CHL1    C2 1749  -0.106   0.858   6.118  0.6312  0.1143  0.0229
   24CHL1   H2A 1750  -0.112   0.763   6.174 -0.4948 -0.3747 -0.8894
   24CHL1   H2B 1751  -0.192   0.925   6.140  1.8969  1.2906  1.6825
   24CHL1   C20 1752  -0.138   0.982   5.185 -0.3973  0.2311  0.2768
   24CHL1   H20 1753  -0.192   1.079   5.195 -0.9476  0.1344 -1.4367
   24CHL1   C21 1754  -0.244   0.868   5.196 -0.4998  0.9776 -0.4238
   24CHL1  H21A 1755  -0.198   0.769   5.214 -2.8813  0.3988  3.6274
   24CHL1  H21B 1756  -0.309   0.869   5.106 -0.0401  3.1924 -0.7889
   24CHL1  H21C 1757  -0.312   0.889   5.281  0.3739  1.2879  0.2200
   24CHL1   C22 1758  -0.065   0.982   5.045  0.1551 -0.7573  0.2713
   24CHL1  H22A 1759   0.004   1.068   5.033 -1.2693  0.2624 -0.8634
   24CHL1  H22B 1760   0.004   0.897   5.026  1.1916  0.0474  0.3173
   24CHL1   C23 1761  -0.156   0.999   4.917 -0.0602  0.2684 -0.6013
   24CHL1  H23A 1762  -0.203   0.902   4.893 -1.7918  0.6942  0.8131
   24CHL1  H23B 1763  -0.233   1.078   4.934  0.6769  0.8912 -0.0879
   24CHL1   C24 1764  -0.070   1.054   4.799 -0.0695 -0.3415 -0.6914
   24CHL1  H24A 1765  -0.037   1.157   4.823  2.2749 -1.1486 -0.2676
   24CHL1  H24B 1766   0.017   0.988   4.783 -0.5320 -1.0175 -0.4703
   24CHL1   C25 1767  -0.143   1.064   4.663  0.0430  0.1933 -0.5932
   24CHL1   H25 1768  -0.190   0.966   4.642 -2.9180  1.6829 -1.4820
   24CHL1   C26 1769  -0.262   1.170   4.674 -0.2288  0.1068  0.0077
   24CHL1  H26A 1770  -0.223   1.267   4.711  0.5411 -0.1015 -0.2510
   24CHL1  H26B 1771  -0.301   1.177   4.570  1.2338 -0.6540 -0.6072
   24CHL1  H26C 1772  -0.333   1.132   4.751 -1.3874  1.1687 -0.4862
   24CHL1   C27 1773  -0.047   1.108   4.547 -1.0325 -0.7136 -0.3385
   24CHL1  H27A 1774   0.021   1.026   4.513  1.3538  1.4569 -1.1168
   24CHL1  H27B 1775  -0.090   1.149   4.454  1.2877 -0.8239 -1.5267
   24CHL1  H27C 1776   0.025   1.185   4.582 -0.7952 -1.1936  0.2593
   25CHL1    C3 1777   3.634   0.409   5.199  0.9169  0.5871 -0.1002
   25CHL1    H3 1778   3.530   0.442   5.176  0.7437 -0.8745 -1.5785
   25CHL1    O3 1779   3.641   0.357   5.332  0.2988  0.1999 -0.1952
   25CHL1   H3' 1780   3.665   0.435   5.383  1.8321  0.1859 -0.8420
   25CHL1    C4 1781   3.666   0.299   5.094  0.0499 -0.1718 -0.1955
   25CHL1   H4A 1782   3.764   0.253   5.117  0.7580  2.4062  2.6470
   25CHL1   H4B 1783   3.581   0.230   5.110 -2.0851  2.6463  1.4308
   25CHL1    C5 1784   3.668   0.357   4.951  0.3385  0.3569 -0.2245
   25CHL1    C6 1785   3.599   0.305   4.850 -0.2621 -0.4404  0.0158
   25CHL1    H6 1786   3.532   0.222   4.877  0.3074 -0.8349  0.2231
   25CHL1    C7 1787   3.582   0.377   4.718  0.2233  0.2142  0.4927
   25CHL1   H7A 1788   3.568   0.302   4.637 -0.8550  0.0115  0.8529
   25CHL1   H7B 1789   3.486   0.431   4.733 -0.2169 -1.0114  2.4499
   25CHL1    C8 1790   3.703   0.462   4.684  0.4077 -0.1715  0.0897
   25CHL1    H8 1791   3.789   0.397   4.657  0.2745  0.0519 -0.9108
   25CHL1   C14 1792   3.675   0.555   4.569 -0.2102 -0.0046  0.4874
   25CHL1   H14 1793   3.601   0.627   4.610  1.5359  1.8097  0.6316
   25CHL1   C15 1794   3.614   0.502   4.436 -0.5880 -0.2336  0.3491
   25CHL1  H15A 1795   3.683   0.423   4.401  1.1267  0.4098  2.1032
   25CHL1  H15B 1796   3.506   0.476   4.449 -0.7135 -0.1908 -0.5327
   25CHL1   C16 1797   3.626   0.624   4.345  0.5059  0.6465 -0.0077
   25CHL1  H16A 1798   3.667   0.590   4.247  1.4497  0.3011  0.4993
   25CHL1  H16B 1799   3.525   0.668   4.327 -1.6258 -3.4964  0.7639
   25CHL1   C17 1800   3.719   0.731   4.409 -0.2631  0.8672 -0.3161
   25CHL1   H17 1801   3.649   0.807   4.449  0.7858  2.0150 -0.6222
   25CHL1   C13 1802   3.788   0.651   4.524 -0.0215 -0.2342  0.2555
   25CHL1   C18 1803   3.905   0.567   4.469  0.2789 -0.6765 -0.6009
   25CHL1  H18A 1804   3.994   0.623   4.432  0.5596 -0.0496  0.9586
   25CHL1  H18B 1805   3.947   0.508   4.553 -0.0537  1.6070  1.2695
   25CHL1  H18C 1806   3.867   0.500   4.389 -1.6923 -1.7319  1.1331
   25CHL1   C12 1807   3.831   0.735   4.646 -0.2330  1.5050 -0.2283
   25CHL1  H12A 1808   3.917   0.799   4.618  0.9209 -0.4562 -1.3766
   25CHL1  H12B 1809   3.743   0.800   4.668 -1.0678  0.3101  0.0986
   25CHL1   C11 1810   3.857   0.651   4.767  0.7578 -0.2023  0.5824
   25CHL1  H11A 1811   3.954   0.600   4.748  1.3133  0.8099  0.6246
   25CHL1  H11B 1812   3.876   0.711   4.859  1.1458  1.0973 -0.3118
   25CHL1    C9 1813   3.738   0.552   4.800 -0.0635 -0.6847 -0.4964
   25CHL1    H9 1814   3.652   0.620   4.818 -0.6263 -1.4088 -0.3815
   25CHL1   C10 1815   3.758   0.481   4.939  0.1645 -0.5319  0.3519
   25CHL1   C19 1816   3.908   0.435   4.948 -0.3507  0.3924 -0.0012
   25CHL1  H19A 1817   3.939   0.380   5.040  0.1207 -0.3513 -0.5854
   25CHL1  H19B 1818   3.917   0.376   4.854 -0.6065 -0.3859  0.4548
   25CHL1  H19C 1819   3.981   0.518   4.952 -0.4008  0.4709 -0.6126
   25CHL1    C1 1820   3.724   0.580   5.048  0.4695  0.4988 -0.6191
   25CHL1   H1A 1821   3.800   0.661   5.046  1.3921 -0.3302 -0.3990
   25CHL1   H1B 1822   3.622   0.623   5.039  0.8776  1.2406 -1.9851
   25CHL1    C2 1823   3.729   0.521   5.193 -0.0406  0.0015 -0.0819
   25CHL1   H2A 1824   3.707   0.596   5.272  1.4593 -1.7951  2.1340
   25CHL1   H2B 1825   3.827   0.473   5.211 -0.1481 -0.0679  0.3160
   25CHL1   C20 1826   3.817   0.809   4.317  0.3235  0.2364  0.0730
   25CHL1   H20 1827   3.890   0.841   4.394 -1.2113 -1.3863  2.3506
   25CHL1   C21 1828   3.742   0.938   4.268 -0.0944 -0.0055  0.2835
   25CHL1  H21A 1829   3.783   1.004   4.188 -2.5078 -0.0328 -1.0499
   25CHL1  H21B 1830   3.734   1.013   4.348  2.6579  1.9912 -1.1360
   25CHL1  H21C 1831   3.638   0.915   4.237 -0.3519  3.9946 -2.6809
   25CHL1   C22 1832   3.875   0.736   4.196  0.4944  0.1132  0.7054
   25CHL1  H22A 1833   3.906   0.635   4.232 -1.0687 -0.4089  0.6717
   25CHL1  H22B 1834   3.790   0.712   4.129 -1.1187  2.5943  1.7466
   25CHL1   C23 1835   4.000   0.795   4.119  0.1783  0.0114 -0.3727
   25CHL1  H23A 1836   3.977   0.904   4.112  2.8643  0.6635 -0.0550
   25CHL1  H23B 1837   4.084   0.758   4.181  0.1072 -1.1246 -0.9193
   25CHL1   C24 1838   4.022   0.734   3.981 -0.6156 -0.8343 -0.1952
   25CHL1  H24A 1839   4.047   0.626   3.984  1.3662 -0.4603 -1.4230
   25CHL1  H24B 1840   3.930   0.743   3.919 -0.3042  0.8022 -0.4697
   25CHL1   C25 1841   4.148   0.799   3.905 -0.1469 -0.3963  0.1214
   25CHL1   H25 1842   4.124   0.906   3.890 -0.7397 -0.3851  1.1029
   25CHL1   C26 1843   4.284   0.803   3.985  0.3572 -0.7092 -0.1397
   25CHL1  H26A 1844   4.368   0.813   3.913  0.0036 -0.7513 -0.5619
   25CHL1  H26B 1845   4.285   0.887   4.058  0.1657 -1.1701  0.3983
   25CHL1  H26C 1846   4.296   0.712   4.047  2.1672  0.7874  1.8653
   25CHL1   C27 1847   4.174   0.746   3.767 -0.3021  0.6143 -0.4584
   25CHL1  H27A 1848   4.147   0.638   3.758  1.9647 -0.0320 -0.2402
   25CHL1  H27B 1849   4.119   0.798   3.686 -0.5272 -1.8277 -2.0071
   25CHL1  H27C 1850   4.281   0.758   3.739 -0.4843  0.1499 -1.4026
   26CHL1    C3 1851   3.214   1.280   6.030 -0.4388 -0.1876  0.1137
   26CHL1    H3 1852   3.111   1.311   5.999 -1.1284 -1.1399  1.3706
   26CHL1    O3 1853   3.195   1.249   6.166  0.0641  0.1555  0.6484
   26CHL1   H3' 1854   3.123   1.186   6.163  0.1573  0.0788 -1.4846
   26CHL1    C4 1855   3.269   1.159   5.966 -0.2635  0.6527 -0.3386
   26CHL1   H4A 1856   3.371   1.136   6.003 -0.7436 -1.4032 -0.1592
   26CHL1   H4B 1857   3.213   1.067   5.992 -0.6576  0.7310 -0.9030
   26CHL1    C5 1858   3.275   1.177   5.816  0.5512 -0.7141 -0.2531
   26CHL1    C6 1859   3.188   1.109   5.742  0.4090  0.2222  0.2391
   26CHL1    H6 1860   3.137   1.018   5.777 -1.4600 -0.3106 -3.3527
   26CHL1    C7 1861   3.169   1.132   5.593 -0.0845  0.8704  0.2708
   26CHL1   H7A 1862   3.156   1.036   5.538  0.1285  0.9370  0.0998
   26CHL1   H7B 1863   3.076   1.192   5.584 -0.0985  0.5689 -2.2806
   26CHL1    C8 1864   3.286   1.212   5.533  0.2219 -0.0421 -0.2651
   26CHL1    H8 1865   3.377   1.149   5.532 -1.6411 -2.9464  0.3643
   26CHL1   C14 1866   3.239   1.260   5.393 -1.1152 -0.1202 -0.0384
   26CHL1   H14 1867   3.150   1.323   5.408 -2.4130 -1.9735  0.4245
   26CHL1   C15 1868   3.185   1.151   5.301 -0.2851 -0.2234 -0.6252
   26CHL1  H15A 1869   3.245   1.061   5.324  0.6754  0.0866 -1.7797
   26CHL1  H15B 1870   3.079   1.137   5.331  0.2286 -0.5322  1.1462
   26CHL1   C16 1871   3.199   1.207   5.159  0.3414  0.3054 -1.0255
   26CHL1  H16A 1872   3.256   1.140   5.091  1.3624  1.9248 -1.8423
   26CHL1  H16B 1873   3.102   1.227   5.110 -0.7209  2.2881  1.6477
   26CHL1   C17 1874   3.272   1.345   5.170 -0.6873  0.0673 -0.0401
   26CHL1   H17 1875   3.186   1.411   5.192 -0.3533  0.8902 -1.1396
   26CHL1   C13 1876   3.336   1.343   5.315  0.8121 -0.2922 -0.3382
   26CHL1   C18 1877   3.458   1.260   5.282 -0.6550  0.2850  0.3629
   26CHL1  H18A 1878   3.435   1.176   5.214 -0.8855  0.4124  0.2841
   26CHL1  H18B 1879   3.534   1.323   5.230 -0.4756 -0.1395  0.1131
   26CHL1  H18C 1880   3.511   1.227   5.374  1.6925 -0.6692 -1.2379
   26CHL1   C12 1881   3.360   1.465   5.402  0.4463  0.2389 -0.3720
   26CHL1  H12A 1882   3.445   1.522   5.359  1.9727 -1.3418  0.4290
   26CHL1  H12B 1883   3.266   1.525   5.404 -0.9950 -1.8547 -0.9932
   26CHL1   C11 1884   3.406   1.431   5.540  0.1998 -0.0029 -0.4031
   26CHL1  H11A 1885   3.507   1.386   5.523  0.3648  0.4035 -0.5180
   26CHL1  H11B 1886   3.431   1.522   5.598 -0.3229  0.1630 -0.4400
   26CHL1    C9 1887   3.313   1.340   5.620 -0.3594  0.5822  0.4387
   26CHL1    H9 1888   3.222   1.403   5.621 -0.6464  0.1812  1.5247
   26CHL1   C10 1889   3.351   1.305   5.767 -0.2712  0.5224 -0.4517
   26CHL1   C19 1890   3.505   1.272   5.771 -0.5717 -0.0506  0.4223
   26CHL1  H19A 1891   3.530   1.181   5.712  1.3166  0.1415  0.8690
   26CHL1  H19B 1892   3.560   1.357   5.725 -0.0132 -1.4920 -1.7574
   26CHL1  H19C 1893   3.530   1.278   5.879  2.6403  1.5511 -0.3026
   26CHL1    C1 1894   3.321   1.432   5.855  0.2482  0.7996  0.1269
   26CHL1   H1A 1895   3.400   1.508   5.844  0.6479  0.3078 -0.4611
   26CHL1   H1B 1896   3.227   1.482   5.823 -0.2079 -0.5274 -0.6885
   26CHL1    C2 1897   3.315   1.392   6.008  0.0586 -0.6648  0.3758
   26CHL1   H2A 1898   3.278   1.476   6.070 -0.9501 -1.2560  0.6015
   26CHL1   H2B 1899   3.410   1.358   6.054 -0.8367 -0.4790  2.4610
   26CHL1   C20 1900   3.350   1.392   5.043  0.3077  0.4310 -0.1045
   26CHL1   H20 1901   3.425   1.313   5.019  0.1464  0.2019  0.1277
   26CHL1   C21 1902   3.422   1.526   5.070  0.2601 -0.1975  0.4809
   26CHL1  H21A 1903   3.510   1.510   5.136  1.3684  1.6499 -0.4688
   26CHL1  H21B 1904   3.345   1.596   5.107  0.8111  2.1064 -2.3693
   26CHL1  H21C 1905   3.457   1.571   4.975 -3.2783 -1.0081 -1.3683
   26CHL1   C22 1906   3.250   1.401   4.929 -0.2786 -0.8978  0.0144
   26CHL1  H22A 1907   3.209   1.301   4.903 -0.3543 -0.1923 -3.0183
   26CHL1  H22B 1908   3.171   1.471   4.961 -0.8718 -0.2878 -2.5305
   26CHL1   C23 1909   3.300   1.454   4.793  0.2346 -0.5194  0.2861
   26CHL1  H23A 1910   3.317   1.564   4.795  0.4120 -0.5516  2.0872
   26CHL1  H23B 1911   3.390   1.398   4.761  0.1813 -2.0751  2.6123
   26CHL1   C24 1912   3.195   1.414   4.689 -0.1523 -0.1066  0.3544
   26CHL1  H24A 1913   3.197   1.303   4.678  2.4899  0.0614 -1.7242
   26CHL1  H24B 1914   3.097   1.453   4.726 -0.8062  0.3977 -1.7909
   26CHL1   C25 1915   3.222   1.472   4.550  0.2532 -0.1390 -0.1187
   26CHL1   H25 1916   3.255   1.576   4.573 -0.8247 -0.0690  1.2732
   26CHL1   C26 1917   3.322   1.392   4.460  0.6874 -0.1002  1.1237
   26CHL1  H26A 1918   3.265   1.310   4.411  2.4061 -0.2874 -0.6833
   26CHL1  H26B 1919   3.371   1.448   4.377 -1.3283 -1.3124 -1.0061
   26CHL1  H26C 1920   3.394   1.339   4.525 -0.3527 -1.7065  1.0216
   26CHL1   C27 1921   3.090   1.489   4.478 -0.4189  0.1851 -0.1867
   26CHL1  H27A 1922   3.035   1.393   4.470 -0.4308  0.3512 -3.9331
   26CHL1  H27B 1923   3.034   1.573   4.524  0.9926 -1.1641  4.5584
   26CHL1  H27C 1924   3.104   1.524   4.373 -1.5914  1.0744 -0.0721
   27CHL1    C3 1925   1.478   5.410   6.017  0.1374  0.2200 -0.1602
   27CHL1    H3 1926   1.440   5.331   5.949 -1.2637 -2.4145  3.4025
   27CHL1    O3 1927   1.449   5.388   6.152  0.1981  0.2619  0.8334
   27CHL1   H3' 1928   1.495   5.306   6.173 -0.9257 -0.8050 -0.5973
   27CHL1    C4 1929   1.632   5.436   6.009 -0.2394 -0.0058 -0.6553
   27CHL1   H4A 1930   1.654   5.514   6.084 -3.5378 -0.4690  0.9734
   27CHL1   H4B 1931   1.686   5.347   6.049  4.5348  1.2033 -3.6032
   27CHL1    C5 1932   1.671   5.476   5.868  0.5299  0.2620 -0.7250
   27CHL1    C6 1933   1.760   5.405   5.800 -0.4569  0.1745  0.0116
   27CHL1    H6 1934   1.800   5.317   5.854  0.2463 -0.1515 -1.0050
   27CHL1    C7 1935   1.796   5.424   5.658 -0.2579  0.0092  0.2968
   27CHL1   H7A 1936   1.906   5.417   5.650 -0.2338 -0.7280  1.0866
   27CHL1   H7B 1937   1.749   5.337   5.608 -2.2658  1.2671 -0.1189
   27CHL1    C8 1938   1.737   5.555   5.593  0.3449 -0.7081 -0.0463
   27CHL1    H8 1939   1.805   5.633   5.634  1.3314 -2.1449  1.2101
   27CHL1   C14 1940   1.742   5.556   5.445  0.6753 -0.4253  0.2798
   27CHL1   H14 1941   1.668   5.481   5.411 -1.8672  1.7542  0.5822
   27CHL1   C15 1942   1.877   5.527   5.372  0.5875  0.0302 -1.0055
   27CHL1  H15A 1943   1.967   5.575   5.416  0.6525 -0.3206 -0.7536
   27CHL1  H15B 1944   1.894   5.417   5.377  2.7737  0.3607  0.2721
   27CHL1   C16 1945   1.848   5.583   5.234 -0.5476 -0.1710  0.0165
   27CHL1  H16A 1946   1.928   5.659   5.219 -0.3744 -0.7012 -2.0871
   27CHL1  H16B 1947   1.854   5.503   5.157 -1.0059 -0.2573  0.0691
   27CHL1   C17 1948   1.715   5.660   5.239  0.5225 -0.1420  0.1148
   27CHL1   H17 1949   1.636   5.592   5.200 -0.3737 -0.6130  2.5106
   27CHL1   C13 1950   1.687   5.691   5.388  0.3695  0.3077  0.3461
   27CHL1   C18 1951   1.778   5.808   5.432 -0.5950  0.3153  0.6599
   27CHL1  H18A 1952   1.885   5.791   5.404 -0.4617  1.4887  0.4039
   27CHL1  H18B 1953   1.751   5.904   5.384 -1.6586  0.1647  0.9290
   27CHL1  H18C 1954   1.774   5.822   5.543  0.9062  1.6812  0.5800
   27CHL1   C12 1955   1.543   5.724   5.432  0.1433  0.6715  0.4910
   27CHL1  H12A 1956   1.509   5.821   5.390  1.5839  1.3395  0.7980
   27CHL1  H12B 1957   1.493   5.636   5.387  2.0635 -0.4918  0.5560
   27CHL1   C11 1958   1.539   5.719   5.583  0.2148 -0.1836 -0.1497
   27CHL1  H11A 1959   1.599   5.803   5.623 -0.1283 -0.6746  1.4509
   27CHL1  H11B 1960   1.437   5.740   5.620 -0.2667 -2.9162  0.3035
   27CHL1    C9 1961   1.595   5.588   5.644 -0.3075  0.0044  0.4325
   27CHL1    H9 1962   1.529   5.507   5.605 -3.1307 -0.2098  4.9148
   27CHL1   C10 1963   1.578   5.582   5.799 -0.5474  0.6913 -0.7610
   27CHL1   C19 1964   1.630   5.710   5.856 -0.2155  0.0218  0.6824
   27CHL1  H19A 1965   1.555   5.790   5.842 -1.0675 -0.5255  1.9615
   27CHL1  H19B 1966   1.664   5.704   5.962 -0.2815 -0.4257  0.6819
   27CHL1  H19C 1967   1.724   5.737   5.803  0.5195  2.3193  2.9665
   27CHL1    C1 1968   1.433   5.559   5.827  0.1544 -0.0996  0.1634
   27CHL1   H1A 1969   1.384   5.655   5.801  0.9129  0.1691 -0.3008
   27CHL1   H1B 1970   1.406   5.475   5.760  1.5721 -0.4393 -0.0134
   27CHL1    C2 1971   1.399   5.535   5.972 -0.3788 -0.0885 -0.6026
   27CHL1   H2A 1972   1.293   5.529   6.004 -0.7617  2.5543 -1.1487
   27CHL1   H2B 1973   1.446   5.623   6.021 -1.1195  1.6427 -2.8340
   27CHL1   C20 1974   1.719   5.783   5.143 -0.5611  0.2646 -0.4090
   27CHL1   H20 1975   1.804   5.848   5.174  0.5837  0.3349 -3.3559
   27CHL1   C21 1976   1.589   5.866   5.146 -0.2000  0.1093  0.0485
   27CHL1  H21A 1977   1.569   5.944   5.070 -1.3309  2.2148  2.3490
   27CHL1  H21B 1978   1.591   5.923   5.242 -1.7648 -0.2343  0.2991
   27CHL1  H21C 1979   1.498   5.803   5.157 -2.4804  3.3930  1.6610
   27CHL1   C22 1980   1.748   5.730   4.999 -0.7167 -0.0678 -0.3663
   27CHL1  H22A 1981   1.840   5.668   4.998  0.8883  2.1832 -1.5576
   27CHL1  H22B 1982   1.672   5.663   4.955 -0.3015 -0.3811 -0.6188
   27CHL1   C23 1983   1.773   5.846   4.899 -0.3568 -0.2718 -0.4057
   27CHL1  H23A 1984   1.679   5.899   4.876  0.0918  0.6836 -0.0733
   27CHL1  H23B 1985   1.847   5.917   4.942  0.7490 -1.0433 -0.9696
   27CHL1   C24 1986   1.829   5.791   4.764 -0.6121  0.0204 -0.5231
   27CHL1  H24A 1987   1.939   5.773   4.765 -0.7013 -1.3383 -3.6602
   27CHL1  H24B 1988   1.771   5.700   4.736  1.4554 -0.6445 -2.9586
   27CHL1   C25 1989   1.815   5.889   4.644 -0.2453  0.3140  0.9854
   27CHL1   H25 1990   1.706   5.912   4.651 -0.0312  1.1298  1.8795
   27CHL1   C26 1991   1.893   6.020   4.660  0.0985 -0.4835  0.0091
   27CHL1  H26A 1992   1.892   6.036   4.770  0.5755 -1.0754  0.1025
   27CHL1  H26B 1993   1.998   6.017   4.624  0.1563 -2.4656  0.2274
   27CHL1  H26C 1994   1.846   6.106   4.607 -1.5523  0.2333  2.4801
   27CHL1   C27 1995   1.869   5.818   4.512 -0.4392 -0.6477 -0.1060
   27CHL1  H27A 1996   1.810   5.725   4.494  0.9729 -1.4757 -0.6464
   27CHL1  H27B 1997   1.851   5.890   4.429  3.3455 -0.2303 -0.7406
   27CHL1  H27C 1998   1.978   5.799   4.516 -0.2445 -0.0659 -1.6622
   28CHL1    C3 1999   5.891   0.680   6.232  0.3556  0.2107  0.3142
   28CHL1    H3 2000   5.987   0.681   6.176  2.1450  0.0341  3.1454
   28CHL1    O3 2001   5.913   0.742   6.359 -0.6079 -0.2689  0.5395
   28CHL1   H3' 2002   5.823   0.752   6.392  0.4125 -0.5941  3.7350
   28CHL1    C4 2003   5.785   0.763   6.151  0.2128  0.8971 -0.4158
   28CHL1   H4A 2004   5.692   0.783   6.207 -0.2955 -0.8949 -0.5673
   28CHL1   H4B 2005   5.838   0.860   6.136  0.4996  0.7085 -0.6612
   28CHL1    C5 2006   5.754   0.695   6.024 -0.3000  0.6774 -0.0554
   28CHL1    C6 2007   5.775   0.754   5.904  0.5220  0.3016 -0.2554
   28CHL1    H6 2008   5.808   0.859   5.896 -0.0144  0.4769 -0.2597
   28CHL1    C7 2009   5.744   0.682   5.776 -0.5704 -0.1708 -0.2033
   28CHL1   H7A 2010   5.688   0.757   5.716  0.3460  2.3649  1.8883
   28CHL1   H7B 2011   5.841   0.654   5.730 -0.3096 -1.0461  0.8358
   28CHL1    C8 2012   5.650   0.556   5.792 -0.4660  0.6236 -0.4102
   28CHL1    H8 2013   5.547   0.585   5.820  0.5756  2.4463  1.9325
   28CHL1   C14 2014   5.652   0.481   5.660  0.2876 -0.3645  0.0479
   28CHL1   H14 2015   5.760   0.459   5.648  0.6286 -0.8122  3.1668
   28CHL1   C15 2016   5.595   0.553   5.529  0.2269 -0.1263 -0.0859
   28CHL1  H15A 2017   5.493   0.592   5.546 -0.4684 -1.2024 -1.5627
   28CHL1  H15B 2018   5.668   0.633   5.501  0.6436 -0.3685  0.2913
   28CHL1   C16 2019   5.592   0.438   5.426 -0.4285  1.0103 -0.1148
   28CHL1  H16A 2020   5.502   0.442   5.362  0.0887  1.4205 -0.8213
   28CHL1  H16B 2021   5.680   0.444   5.359 -0.1586  2.1801  0.3306
   28CHL1   C17 2022   5.596   0.303   5.515 -0.6773  0.0214  0.1786
   28CHL1   H17 2023   5.704   0.275   5.522 -0.5401  0.7083  1.1865
   28CHL1   C13 2024   5.580   0.345   5.660  0.4375  0.0282 -0.7228
   28CHL1   C18 2025   5.431   0.372   5.679 -0.1813 -0.1386 -0.0873
   28CHL1  H18A 2026   5.373   0.277   5.672 -0.9734 -0.1219  4.1067
   28CHL1  H18B 2027   5.403   0.420   5.775 -1.3716  0.5754 -0.7648
   28CHL1  H18C 2028   5.385   0.440   5.604  3.2188  1.1067 -1.2271
   28CHL1   C12 2029   5.639   0.258   5.779 -0.3441  0.4827 -0.7168
   28CHL1  H12A 2030   5.590   0.158   5.784  1.3962 -0.4072 -0.8330
   28CHL1  H12B 2031   5.746   0.240   5.755  0.5189  0.9043  2.3824
   28CHL1   C11 2032   5.630   0.329   5.915  0.0662  0.3116 -0.5120
   28CHL1  H11A 2033   5.523   0.354   5.931  0.2687  0.2748  1.0917
   28CHL1  H11B 2034   5.666   0.265   5.998 -1.1486  1.2424  0.7914
   28CHL1    C9 2035   5.706   0.463   5.906 -0.3075 -0.0016 -0.0875
   28CHL1    H9 2036   5.812   0.441   5.882 -0.3404 -0.6314  0.3022
   28CHL1   C10 2037   5.723   0.546   6.039  0.0725 -0.0788 -0.4932
   28CHL1   C19 2038   5.586   0.548   6.105  0.2652 -0.4273  0.2916
   28CHL1  H19A 2039   5.581   0.604   6.201  0.6487 -1.3262  0.8430
   28CHL1  H19B 2040   5.514   0.589   6.031 -0.0780 -0.7413  0.4523
   28CHL1  H19C 2041   5.546   0.447   6.125  0.9980 -0.6210  0.8386
   28CHL1    C1 2042   5.822   0.469   6.125 -0.0327  0.2294  0.5900
   28CHL1   H1A 2043   5.783   0.369   6.153  0.5811 -0.0205  0.5667
   28CHL1   H1B 2044   5.918   0.464   6.069 -0.7477  0.4876 -0.6822
   28CHL1    C2 2045   5.848   0.535   6.256 -0.1805 -0.0459 -0.6297
   28CHL1   H2A 2046   5.919   0.478   6.320 -0.3807 -1.3403 -1.5060
   28CHL1   H2B 2047   5.762   0.535   6.326 -0.0361  3.8948 -0.2676
   28CHL1   C20 2048   5.519   0.183   5.449  0.0991 -0.5783 -0.3436
   28CHL1   H20 2049   5.414   0.213   5.433 -0.7779 -3.2250 -0.0389
   28CHL1   C21 2050   5.522   0.056   5.537  0.0975 -0.6183  0.3361
   28CHL1  H21A 2051   5.512  -0.029   5.466  1.0557 -0.1454 -0.3882
   28CHL1  H21B 2052   5.443   0.042   5.613 -0.4042 -1.8612 -0.3868
   28CHL1  H21C 2053   5.623   0.044   5.581  0.5337 -2.0314 -0.9737
   28CHL1   C22 2054   5.584   0.151   5.311  0.6624 -0.0233 -0.3197
   28CHL1  H22A 2055   5.615   0.248   5.267 -2.2580  1.0150 -0.3272
   28CHL1  H22B 2056   5.680   0.094   5.318 -1.1700 -3.2218  1.5631
   28CHL1   C23 2057   5.471   0.089   5.221 -0.0629 -0.4741 -0.1151
   28CHL1  H23A 2058   5.457  -0.017   5.249  0.0190 -0.8754 -1.5269
   28CHL1  H23B 2059   5.377   0.141   5.251  1.2269  0.2955  2.8926
   28CHL1   C24 2060   5.502   0.115   5.068  0.1393  0.1082 -0.5551
   28CHL1  H24A 2061   5.505   0.224   5.048 -2.2635  0.0547 -1.4906
   28CHL1  H24B 2062   5.607   0.078   5.069  0.0915 -0.0622  1.4279
   28CHL1   C25 2063   5.410   0.043   4.971 -0.8713  0.1088 -0.4590
   28CHL1   H25 2064   5.461   0.057   4.874 -0.2557 -1.4078 -0.3832
   28CHL1   C26 2065   5.397  -0.106   5.000  0.3904 -0.4758  0.0193
   28CHL1  H26A 2066   5.351  -0.151   4.910  0.7549 -1.1529  0.1690
   28CHL1  H26B 2067   5.494  -0.160   5.003  0.7036  0.1143  2.7854
   28CHL1  H26C 2068   5.335  -0.131   5.088 -0.0159 -0.1532 -0.1713
   28CHL1   C27 2069   5.268   0.099   4.946 -0.3277  0.0664  0.0217
   28CHL1  H27A 2070   5.235   0.084   4.841  1.2174  0.9976 -0.6345
   28CHL1  H27B 2071   5.199   0.051   5.019  1.4164 -1.0114  1.0337
   28CHL1  H27C 2072   5.274   0.208   4.963 -1.3100  0.1109  0.1473
   29CHL1    C3 2073   1.347   3.236   2.791 -0.0939 -0.0609  0.5708
   29CHL1    H3 2074   1.454   3.208   2.799 -0.1312 -0.1309  0.8352
   29CHL1    O3 2075   1.298   3.195   2.670 -1.0032 -0.6549  0.5413
   29CHL1   H3' 2076   1.303   3.268   2.607 -1.5917 -0.5873  0.5651
   29CHL1    C4 2077   1.280   3.153   2.905  0.3590 -0.6130 -0.1193
   29CHL1   H4A 2078   1.169   3.148   2.898  0.2476  0.0940  0.9681
   29CHL1   H4B 2079   1.304   3.047   2.884 -0.2620 -0.6928 -0.4464
   29CHL1    C5 2080   1.293   3.204   3.047 -0.2539  0.0980  0.8832
   29CHL1    C6 2081   1.337   3.120   3.148 -0.0028  0.1834  0.0713
   29CHL1    H6 2082   1.368   3.016   3.129  1.3470  0.6460 -0.4382
   29CHL1    C7 2083   1.364   3.175   3.288 -0.2788 -0.0386 -0.3777
   29CHL1   H7A 2084   1.337   3.108   3.372  1.3531  0.7063  0.8000
   29CHL1   H7B 2085   1.472   3.192   3.307 -0.5129  0.5320  0.5426
   29CHL1    C8 2086   1.288   3.304   3.310 -0.3936  0.5812 -0.0937
   29CHL1    H8 2087   1.179   3.283   3.320 -0.0351 -0.1089  3.9138
   29CHL1   C14 2088   1.340   3.364   3.450 -0.1493  0.2164  0.0570
   29CHL1   H14 2089   1.451   3.373   3.449  0.3572 -3.8281  1.7799
   29CHL1   C15 2090   1.327   3.277   3.587  0.6095 -0.1263  0.3198
   29CHL1  H15A 2091   1.241   3.207   3.580  0.9725 -0.4495 -1.2016
   29CHL1  H15B 2092   1.422   3.222   3.599  0.7541  0.2525  0.9672
   29CHL1   C16 2093   1.315   3.382   3.695 -0.0887  0.0140 -0.3117
   29CHL1  H16A 2094   1.218   3.381   3.749 -0.6152 -1.2975 -1.2342
   29CHL1  H16B 2095   1.400   3.367   3.765 -0.9215 -3.0928  0.1895
   29CHL1   C17 2096   1.332   3.526   3.624 -0.6899 -0.2789  0.1304
   29CHL1   H17 2097   1.442   3.535   3.609 -0.6370  1.3874  1.2376
   29CHL1   C13 2098   1.271   3.498   3.480 -0.4136 -0.0620  0.1392
   29CHL1   C18 2099   1.118   3.482   3.496  0.5366 -0.4022 -0.2713
   29CHL1  H18A 2100   1.104   3.415   3.584 -0.5566 -1.5255 -1.2669
   29CHL1  H18B 2101   1.065   3.580   3.506  0.5514 -0.5460  1.7332
   29CHL1  H18C 2102   1.070   3.436   3.407  0.2772  0.6665 -0.7090
   29CHL1   C12 2103   1.305   3.591   3.367 -0.4134 -0.1534  0.2669
   29CHL1  H12A 2104   1.255   3.691   3.377  0.3541  0.2767 -0.1371
   29CHL1  H12B 2105   1.415   3.604   3.363 -0.5880  1.5137  0.1945
   29CHL1   C11 2106   1.259   3.538   3.240  0.1406  0.4227  0.4792
   29CHL1  H11A 2107   1.149   3.529   3.237  0.1780 -0.2296 -2.5394
   29CHL1  H11B 2108   1.297   3.614   3.169  0.2660 -0.2562 -0.2012
   29CHL1    C9 2109   1.326   3.400   3.202 -0.1159 -0.4960 -0.2386
   29CHL1    H9 2110   1.433   3.430   3.200 -0.0106 -0.8289  0.1727
   29CHL1   C10 2111   1.281   3.353   3.063 -0.3856 -0.1004  0.4665
   29CHL1   C19 2112   1.133   3.376   3.040  0.3997  0.0435  0.2968
   29CHL1  H19A 2113   1.097   3.481   3.053 -0.2065 -0.3890  2.5840
   29CHL1  H19B 2114   1.095   3.349   2.939  0.1906 -0.1736  0.4324
   29CHL1  H19C 2115   1.070   3.326   3.117 -3.2998  2.7406 -0.6600
   29CHL1    C1 2116   1.361   3.428   2.950 -0.0474 -0.6116 -0.1854
   29CHL1   H1A 2117   1.332   3.535   2.957  2.4869  0.1195  0.5327
   29CHL1   H1B 2118   1.471   3.415   2.967 -0.1459 -0.7942  0.3321
   29CHL1    C2 2119   1.329   3.383   2.807 -0.3696  0.1927  0.4377
   29CHL1   H2A 2120   1.380   3.444   2.729 -1.3916  0.5814  0.0468
   29CHL1   H2B 2121   1.222   3.410   2.791  0.0245  1.9465  0.5968
   29CHL1   C20 2122   1.289   3.647   3.716 -0.3472 -0.2958  0.4120
   29CHL1   H20 2123   1.179   3.640   3.731 -0.8903  0.5762 -2.5163
   29CHL1   C21 2124   1.316   3.790   3.661 -0.9337 -0.6793 -0.5949
   29CHL1  H21A 2125   1.284   3.868   3.733  0.7683  0.7190 -1.2781
   29CHL1  H21B 2126   1.256   3.815   3.571 -0.5817  0.1826 -0.5954
   29CHL1  H21C 2127   1.425   3.800   3.646 -0.8420 -2.1170 -1.0834
   29CHL1   C22 2128   1.372   3.636   3.856 -0.2154 -0.6820  0.1446
   29CHL1  H22A 2129   1.355   3.533   3.893  0.0936 -1.2741 -1.2984
   29CHL1  H22B 2130   1.479   3.642   3.826 -0.4727 -0.3385 -0.7499
   29CHL1   C23 2131   1.337   3.750   3.958  0.1090 -0.0721 -0.1897
   29CHL1  H23A 2132   1.395   3.842   3.935  2.6881 -1.1408  1.5971
   29CHL1  H23B 2133   1.230   3.775   3.942  0.7225  2.3403 -1.0059
   29CHL1   C24 2134   1.380   3.725   4.105 -0.2839  0.0522  0.4320
   29CHL1  H24A 2135   1.334   3.637   4.154 -0.3658  0.3831  0.9614
   29CHL1  H24B 2136   1.491   3.723   4.100 -0.3268 -0.0568 -1.3087
   29CHL1   C25 2137   1.341   3.842   4.203 -0.2938  0.3780 -0.2810
   29CHL1   H25 2138   1.231   3.853   4.199 -0.1765  1.2681 -1.7953
   29CHL1   C26 2139   1.376   3.804   4.351 -1.1940  0.6050 -0.4242
   29CHL1  H26A 2140   1.331   3.887   4.409 -2.0747  0.6906 -1.2110
   29CHL1  H26B 2141   1.332   3.704   4.369 -0.0978 -0.0117 -1.0250
   29CHL1  H26C 2142   1.487   3.805   4.358 -1.1781  1.9656 -0.4920
   29CHL1   C27 2143   1.391   3.982   4.162 -0.1112  0.1144  0.0686
   29CHL1  H27A 2144   1.358   4.006   4.058 -1.5549  0.7847  0.6572
   29CHL1  H27B 2145   1.345   4.054   4.232 -0.2270 -0.6198  0.7687
   29CHL1  H27C 2146   1.501   3.987   4.172 -0.0884 -1.1957  0.7009
   30CHL1    C3 2147   0.325   6.405   3.020  0.0204  0.4401 -0.1722
   30CHL1    H3 2148   0.363   6.509   3.008  1.3508 -0.0472 -0.3931
   30CHL1    O3 2149   0.322   6.358   2.887  0.1703 -0.1102 -0.0590
   30CHL1   H3' 2150   0.409   6.377   2.852 -0.1171 -2.1493 -2.0963
   30CHL1    C4 2151   0.437   6.320   3.084  0.2294  0.0233  0.1647
   30CHL1   H4A 2152   0.403   6.214   3.079 -0.0829  0.1732 -2.2887
   30CHL1   H4B 2153   0.535   6.330   3.032  0.3348 -1.7525 -0.0463
   30CHL1    C5 2154   0.467   6.363   3.222  0.1093  0.4069 -0.8242
   30CHL1    C6 2155   0.588   6.403   3.263 -0.2078  0.7451  0.2768
   30CHL1    H6 2156   0.674   6.399   3.195 -0.5340 -0.7248 -0.0796
   30CHL1    C7 2157   0.625   6.465   3.399  0.5638 -0.1643  0.4598
   30CHL1   H7A 2158   0.728   6.435   3.427  1.0723 -0.4844 -1.5839
   30CHL1   H7B 2159   0.633   6.575   3.386  0.8248 -0.2337  0.0039
   30CHL1    C8 2160   0.509   6.445   3.500  0.1505 -0.2223 -0.1045
   30CHL1    H8 2161   0.511   6.342   3.541 -0.2467 -0.8713 -1.6302
   30CHL1   C14 2162   0.521   6.544   3.621 -0.4274  0.0374  0.0809
   30CHL1   H14 2163   0.491   6.641   3.575 -1.0126 -0.3448 -0.3609
   30CHL1   C15 2164   0.658   6.571   3.682  0.3054  0.4476  0.3886
   30CHL1  H15A 2165   0.704   6.472   3.700  1.2142  0.9633  1.0219
   30CHL1  H15B 2166   0.730   6.641   3.634  0.5395 -0.2556 -0.2937
   30CHL1   C16 2167   0.627   6.629   3.818  0.2174  0.3039  0.2118
   30CHL1  H16A 2168   0.665   6.566   3.902  0.6789  1.0096  0.5407
   30CHL1  H16B 2169   0.659   6.734   3.834  0.0802  0.4741 -0.5886
   30CHL1   C17 2170   0.472   6.619   3.847 -0.1357 -0.3314  0.2968
   30CHL1   H17 2171   0.425   6.711   3.807 -2.0097 -0.1679  2.6202
   30CHL1   C13 2172   0.427   6.509   3.739  0.1807 -0.2048 -0.1697
   30CHL1   C18 2173   0.457   6.368   3.797 -0.1204  0.0671  0.3654
   30CHL1  H18A 2174   0.389   6.345   3.881 -1.2447 -0.7947 -0.7590
   30CHL1  H18B 2175   0.448   6.291   3.718  1.8148  1.7761 -1.6856
   30CHL1  H18C 2176   0.550   6.368   3.857 -0.1699  1.4483  0.4778
   30CHL1   C12 2177   0.280   6.512   3.684 -0.1701  0.2808 -0.6297
   30CHL1  H12A 2178   0.217   6.476   3.769  0.7705  2.2158  0.9747
   30CHL1  H12B 2179   0.256   6.618   3.666 -0.8311  0.3876  0.7391
   30CHL1   C11 2180   0.257   6.427   3.560 -0.5833 -0.0973 -0.2346
   30CHL1  H11A 2181   0.254   6.322   3.596 -0.8911  0.7421  2.4394
   30CHL1  H11B 2182   0.156   6.452   3.522 -0.9186  2.9057  2.2416
   30CHL1    C9 2183   0.363   6.451   3.447 -0.1315  0.8257  0.0194
   30CHL1    H9 2184   0.348   6.557   3.416 -0.1596 -0.0105 -3.1946
   30CHL1   C10 2185   0.342   6.372   3.315  1.4074 -0.1639  0.0593
   30CHL1   C19 2186   0.301   6.232   3.354 -0.6033  0.6781 -0.9418
   30CHL1  H19A 2187   0.205   6.231   3.409  0.0091 -0.3075  0.1596
   30CHL1  H19B 2188   0.293   6.161   3.268 -0.8429 -0.1385 -0.2627
   30CHL1  H19C 2189   0.382   6.191   3.418 -1.4150 -1.3216 -1.1071
   30CHL1    C1 2190   0.221   6.438   3.244  0.9611 -0.1800 -0.2891
   30CHL1   H1A 2191   0.130   6.428   3.308 -1.0724  0.7586 -2.8201
   30CHL1   H1B 2192   0.238   6.547   3.227  1.1423 -0.5565 -2.9185
   30CHL1    C2 2193   0.195   6.395   3.096  0.3543  0.2095 -0.1800
   30CHL1   H2A 2194   0.107   6.453   3.061 -0.6800 -0.8083  0.6437
   30CHL1   H2B 2195   0.166   6.289   3.079 -1.1172  0.7255 -1.0701
   30CHL1   C20 2196   0.427   6.594   3.991 -0.4647  0.7447  0.1486
   30CHL1   H20 2197   0.441   6.487   4.017 -0.9963 -0.6869 -4.5389
   30CHL1   C21 2198   0.273   6.620   4.002 -0.6846  0.1594  0.4978
   30CHL1  H21A 2199   0.242   6.697   3.929  2.0081 -1.0449 -2.1480
   30CHL1  H21B 2200   0.255   6.639   4.110 -1.3833  1.1069  0.2192
   30CHL1  H21C 2201   0.214   6.527   3.991  1.6728 -1.4209  0.3308
   30CHL1   C22 2202   0.512   6.675   4.091 -0.4178 -0.1506 -0.2935
   30CHL1  H22A 2203   0.620   6.648   4.081 -0.6458 -1.1546 -0.0757
   30CHL1  H22B 2204   0.503   6.783   4.065  0.8080  0.1819  0.5145
   30CHL1   C23 2205   0.477   6.660   4.241  0.4405 -0.6221  0.5556
   30CHL1  H23A 2206   0.534   6.738   4.295 -1.6936  1.9043 -0.6269
   30CHL1  H23B 2207   0.376   6.696   4.269  0.8242  0.6399  0.3766
   30CHL1   C24 2208   0.500   6.521   4.289  0.0500 -0.6516  0.0805
   30CHL1  H24A 2209   0.443   6.449   4.227  1.7126  0.5237 -3.0620
   30CHL1  H24B 2210   0.607   6.509   4.261 -0.0494 -2.1065  0.2485
   30CHL1   C25 2211   0.474   6.508   4.434  0.3093 -0.4233 -0.1551
   30CHL1   H25 2212   0.515   6.595   4.489  1.4682 -1.3177  0.4092
   30CHL1   C26 2213   0.324   6.506   4.458  0.4493  0.5056  0.0213
   30CHL1  H26A 2214   0.285   6.405   4.436 -0.2670  1.1907 -2.0342
   30CHL1  H26B 2215   0.306   6.535   4.564  1.1263 -0.5350  0.4344
   30CHL1  H26C 2216   0.262   6.564   4.386  0.6386 -0.0686 -0.6067
   30CHL1   C27 2217   0.533   6.377   4.497  0.4360  0.0744 -0.3720
   30CHL1  H27A 2218   0.508   6.356   4.604  1.0226  0.6652 -0.1126
   30CHL1  H27B 2219   0.486   6.298   4.435 -1.0171  0.9674 -0.4512
   30CHL1  H27C 2220   0.642   6.380   4.479  0.5119 -1.8218 -0.4469
   31CHL1    C3 2221   1.674   0.607   2.847  0.3860  0.9410 -0.2168
   31CHL1    H3 2222   1.595   0.545   2.896 -0.5141  1.8090 -0.5346
   31CHL1    O3 2223   1.634   0.615   2.711  0.0407 -0.5431 -0.9719
   31CHL1   H3' 2224   1.587   0.698   2.701  0.6481 -0.1917 -1.0115
   31CHL1    C4 2225   1.667   0.743   2.910 -0.1924 -0.2722  0.1783
   31CHL1   H4A 2226   1.738   0.809   2.856 -0.1376 -0.3777  0.1210
   31CHL1   H4B 2227   1.566   0.781   2.884 -0.7931 -2.8790 -1.5653
   31CHL1    C5 2228   1.695   0.735   3.054 -0.3206  0.1488 -0.2769
   31CHL1    C6 2229   1.604   0.790   3.136 -0.0949 -0.1164  0.5075
   31CHL1    H6 2230   1.518   0.838   3.088 -0.3858 -0.3644  0.7727
   31CHL1    C7 2231   1.619   0.804   3.284 -0.2525  0.2773  0.5909
   31CHL1   H7A 2232   1.604   0.912   3.303  0.9871  1.0333 -2.2579
   31CHL1   H7B 2233   1.552   0.733   3.338 -0.7897 -0.4452 -0.9825
   31CHL1    C8 2234   1.769   0.765   3.317  0.4311  0.2327 -0.6796
   31CHL1    H8 2235   1.834   0.852   3.294 -0.9780  0.7643 -3.0244
   31CHL1   C14 2236   1.772   0.729   3.470 -0.9437  0.3622  0.3597
   31CHL1   H14 2237   1.710   0.638   3.482 -0.5140  0.0750  0.4366
   31CHL1   C15 2238   1.717   0.830   3.571  0.9592 -0.3145 -0.3630
   31CHL1  H15A 2239   1.751   0.932   3.543  1.0133  0.1311  1.1973
   31CHL1  H15B 2240   1.606   0.830   3.573  0.9442  1.1048  0.9764
   31CHL1   C16 2241   1.778   0.797   3.705 -0.1585 -0.1319 -0.2342
   31CHL1  H16A 2242   1.835   0.883   3.748  0.2978 -0.6634  0.2279
   31CHL1  H16B 2243   1.703   0.756   3.776 -1.2073  1.0326 -0.6317
   31CHL1   C17 2244   1.887   0.687   3.679 -0.2826 -0.3194 -0.4203
   31CHL1   H17 2245   1.841   0.587   3.692  0.6929 -1.3130 -3.6155
   31CHL1   C13 2246   1.913   0.697   3.525 -0.2510  0.5033 -0.6557
   31CHL1   C18 2247   2.016   0.806   3.513  0.3292  0.8074  0.1599
   31CHL1  H18A 2248   2.039   0.822   3.405  0.7589 -1.4013 -0.1333
   31CHL1  H18B 2249   1.987   0.899   3.566 -1.2563 -0.0656  0.8751
   31CHL1  H18C 2250   2.116   0.778   3.554 -0.7021 -0.9759  1.5795
   31CHL1   C12 2251   1.956   0.571   3.460 -0.5759  0.0160  0.1795
   31CHL1  H12A 2252   2.056   0.536   3.494 -0.6921  1.3072  2.0327
   31CHL1  H12B 2253   1.884   0.491   3.487 -0.6081 -0.1740 -0.4515
   31CHL1   C11 2254   1.954   0.582   3.302  0.5966  0.1399 -0.6598
   31CHL1  H11A 2255   2.036   0.649   3.268 -0.2321  1.0139 -0.9865
   31CHL1  H11B 2256   1.981   0.480   3.268 -1.5542 -1.2111  1.3982
   31CHL1    C9 2257   1.822   0.641   3.249  0.9422 -0.4290  0.5319
   31CHL1    H9 2258   1.739   0.572   3.276 -0.5362  2.1207  3.1814
   31CHL1   C10 2259   1.822   0.660   3.092  0.5882 -0.7165 -0.1543
   31CHL1   C19 2260   1.941   0.754   3.057 -0.0732  0.0522 -0.6811
   31CHL1  H19A 2261   1.928   0.808   2.960  0.7625 -2.0489 -2.0379
   31CHL1  H19B 2262   1.962   0.830   3.136  1.3687  0.2435 -1.2208
   31CHL1  H19C 2263   2.026   0.683   3.051  0.8087  0.8862  1.0608
   31CHL1    C1 2264   1.836   0.527   3.016 -0.7302  0.6683  0.5101
   31CHL1   H1A 2265   1.934   0.479   3.039 -0.9903  0.3516  0.9460
   31CHL1   H1B 2266   1.761   0.455   3.053  1.0291 -0.3343  2.2782
   31CHL1    C2 2267   1.811   0.538   2.868 -0.0973  0.1323 -0.4849
   31CHL1   H2A 2268   1.805   0.441   2.815  0.7422  0.5660 -1.4020
   31CHL1   H2B 2269   1.887   0.603   2.818  0.7799 -2.0406 -2.1616
   31CHL1   C20 2270   2.004   0.683   3.789  1.0868 -1.0746  0.0289
   31CHL1   H20 2271   2.049   0.785   3.792 -3.0666  1.0005  0.2019
   31CHL1   C21 2272   2.105   0.578   3.753 -0.2929 -0.2694  0.2494
   31CHL1  H21A 2273   2.188   0.620   3.692  0.5198 -0.1715  1.3925
   31CHL1  H21B 2274   2.057   0.487   3.708  2.2009 -2.6357  2.0538
   31CHL1  H21C 2275   2.158   0.530   3.838 -1.1060 -0.3787  0.7085
   31CHL1   C22 2276   1.940   0.666   3.925  0.1811  0.1333  0.1342
   31CHL1  H22A 2277   1.851   0.730   3.942 -1.3973 -1.5387 -1.4952
   31CHL1  H22B 2278   1.898   0.565   3.942  0.3885 -0.6282 -3.1945
   31CHL1   C23 2279   2.052   0.706   4.028  0.1736 -0.0576  0.5821
   31CHL1  H23A 2280   2.139   0.636   4.032  1.3655  0.9494 -3.0341
   31CHL1  H23B 2281   2.092   0.803   3.993  2.4393 -0.6470  1.3711
   31CHL1   C24 2282   1.998   0.697   4.168  0.1475  0.3153 -0.0959
   31CHL1  H24A 2283   1.894   0.737   4.170  0.0932  0.1838 -0.2460
   31CHL1  H24B 2284   1.994   0.590   4.197 -2.2100  0.3334 -0.1615
   31CHL1   C25 2285   2.100   0.765   4.268  0.3726  0.1459 -0.0402
   31CHL1   H25 2286   2.199   0.753   4.219 -0.2522  0.4193 -1.4157
   31CHL1   C26 2287   2.066   0.912   4.285  0.0786 -0.0033  0.3163
   31CHL1  H26A 2288   2.046   0.971   4.193 -1.5981  1.7937  1.7289
   31CHL1  H26B 2289   1.978   0.927   4.351  0.6658  1.6775  0.7849
   31CHL1  H26C 2290   2.153   0.965   4.330 -1.1866  1.2877  1.3553
   31CHL1   C27 2291   2.106   0.699   4.401 -0.5273 -1.1086  0.0439
   31CHL1  H27A 2292   2.193   0.738   4.458 -0.3900  0.8680 -1.3932
   31CHL1  H27B 2293   2.006   0.697   4.448 -0.6640 -0.5777 -0.2222
   31CHL1  H27C 2294   2.142   0.597   4.375  0.0592 -0.6940 -0.8471
   32CHL1    C3 2295   1.803   3.736   2.557  0.1088  0.6042  0.0432
   32CHL1    H3 2296   1.883   3.674   2.603  1.5247  1.3004 -1.3813
   32CHL1    O3 2297   1.799   3.715   2.422  0.1295  0.3461  0.0873
   32CHL1   H3' 2298   1.723   3.770   2.401 -0.7049 -0.8933 -0.2183
   32CHL1    C4 2299   1.662   3.718   2.629 -0.5112 -0.9106  0.2016
   32CHL1   H4A 2300   1.587   3.776   2.570  1.1128 -0.1636 -1.2385
   32CHL1   H4B 2301   1.636   3.612   2.606  0.6426 -1.1092 -0.2357
   32CHL1    C5 2302   1.673   3.752   2.777 -0.3135 -0.8593  0.4628
   32CHL1    C6 2303   1.631   3.673   2.871 -0.0239  0.1420 -0.0102
   32CHL1    H6 2304   1.578   3.582   2.840  1.7064 -1.2936  1.0189
   32CHL1    C7 2305   1.612   3.708   3.017  0.3980  0.5011 -0.3904
   32CHL1   H7A 2306   1.508   3.696   3.055  1.5368  3.1999  4.4261
   32CHL1   H7B 2307   1.683   3.644   3.073  0.4756 -0.8657 -1.9880
   32CHL1    C8 2308   1.637   3.859   3.045  0.2148 -0.6268 -0.7625
   32CHL1    H8 2309   1.545   3.917   3.022  2.0471  3.0270  0.3338
   32CHL1   C14 2310   1.670   3.881   3.195  0.5029 -0.9891 -0.2444
   32CHL1   H14 2311   1.774   3.844   3.210  1.0220  1.2449  2.7207
   32CHL1   C15 2312   1.575   3.823   3.296 -0.5480  0.3696  0.4054
   32CHL1  H15A 2313   1.475   3.860   3.267 -0.2079  2.8700  2.1135
   32CHL1  H15B 2314   1.571   3.713   3.310  0.9215  0.3517  0.8440
   32CHL1   C16 2315   1.618   3.893   3.428  0.4772 -0.1180 -0.6212
   32CHL1  H16A 2316   1.524   3.942   3.463  1.3630  0.7929  0.5690
   32CHL1  H16B 2317   1.656   3.831   3.512  1.8304  1.5712  0.0844
   32CHL1   C17 2318   1.714   4.004   3.391 -0.7166 -0.1563  0.5593
   32CHL1   H17 2319   1.818   3.972   3.411 -0.3862  1.2018  1.1402
   32CHL1   C13 2320   1.692   4.026   3.243  0.9733  0.1763  0.6966
   32CHL1   C18 2321   1.569   4.120   3.222 -0.0551  0.6213  0.0695
   32CHL1  H18A 2322   1.532   4.095   3.120  1.1264  4.3482 -1.4522
   32CHL1  H18B 2323   1.490   4.084   3.291  0.1340 -1.0886 -0.5459
   32CHL1  H18C 2324   1.599   4.227   3.220  1.7624  0.1468  0.3179
   32CHL1   C12 2325   1.801   4.084   3.151 -0.4328 -1.0219 -0.3679
   32CHL1  H12A 2326   1.835   4.190   3.160 -0.8936 -0.8244 -0.8893
   32CHL1  H12B 2327   1.892   4.023   3.168 -0.3177 -1.1507 -1.3752
   32CHL1   C11 2328   1.777   4.058   3.002  0.3778 -0.7943  0.0842
   32CHL1  H11A 2329   1.699   4.131   2.969  2.4066  2.1401  1.3236
   32CHL1  H11B 2330   1.873   4.080   2.952  0.3202 -2.3535 -0.7883
   32CHL1    C9 2331   1.745   3.914   2.962  0.5091 -0.4321  0.1888
   32CHL1    H9 2332   1.835   3.864   3.001 -0.2854 -0.2397  2.4452
   32CHL1   C10 2333   1.730   3.896   2.804 -0.1707  0.3466  0.8574
   32CHL1   C19 2334   1.624   3.990   2.744 -0.2668  0.0206  0.0701
   32CHL1  H19A 2335   1.651   4.098   2.741 -0.4857  0.0962  0.6207
   32CHL1  H19B 2336   1.602   3.955   2.641  0.2251  2.3931 -0.9063
   32CHL1  H19C 2337   1.526   3.989   2.797 -0.7590 -0.1497 -0.8298
   32CHL1    C1 2338   1.869   3.905   2.739  0.4046 -0.1785  0.4640
   32CHL1   H1A 2339   1.912   4.007   2.752 -2.1009  0.7991  1.6859
   32CHL1   H1B 2340   1.941   3.827   2.770  0.5486 -0.6814 -1.0256
   32CHL1    C2 2341   1.853   3.882   2.583  0.3265 -0.1828  0.6912
   32CHL1   H2A 2342   1.953   3.885   2.535 -1.0378  1.7641 -2.3850
   32CHL1   H2B 2343   1.793   3.962   2.534  0.0902 -0.4921  0.4694
   32CHL1   C20 2344   1.703   4.130   3.480 -0.0369  0.4231  0.1116
   32CHL1   H20 2345   1.633   4.206   3.441  0.3499 -0.0054 -1.4871
   32CHL1   C21 2346   1.829   4.216   3.479 -0.1673 -0.0267 -0.7750
   32CHL1  H21A 2347   1.809   4.294   3.555  2.0506  1.3602 -1.4943
   32CHL1  H21B 2348   1.859   4.268   3.386 -0.7219  0.9887 -0.3981
   32CHL1  H21C 2349   1.916   4.155   3.513 -0.9086 -0.5741  0.2099
   32CHL1   C22 2350   1.658   4.114   3.629 -0.4839  0.9138  0.3291
   32CHL1  H22A 2351   1.629   4.214   3.667  0.6637  0.5156  2.4001
   32CHL1  H22B 2352   1.559   4.064   3.629 -1.6147  3.0373 -0.4534
   32CHL1   C23 2353   1.761   4.042   3.712 -0.5790 -0.1815  0.3094
   32CHL1  H23A 2354   1.804   3.958   3.654  0.0906  0.5032 -0.2071
   32CHL1  H23B 2355   1.842   4.115   3.734  2.0977 -2.6284 -0.8388
   32CHL1   C24 2356   1.703   3.993   3.842  0.7458  0.0294 -0.4749
   32CHL1  H24A 2357   1.650   4.080   3.886  2.1551 -0.6242  2.8479
   32CHL1  H24B 2358   1.632   3.913   3.814 -0.9889  1.2280  0.3368
   32CHL1   C25 2359   1.805   3.923   3.942  1.0631 -0.8796  0.1710
   32CHL1   H25 2360   1.855   3.852   3.872  1.2986 -1.1790  0.6364
   32CHL1   C26 2361   1.904   4.031   4.001  0.1683  0.4584 -0.8487
   32CHL1  H26A 2362   1.854   4.121   4.044 -0.2062 -0.6380  1.1655
   32CHL1  H26B 2363   1.957   3.978   4.084  1.4930  0.9514 -1.3670
   32CHL1  H26C 2364   1.976   4.070   3.927  0.4335 -0.7615 -1.2498
   32CHL1   C27 2365   1.730   3.841   4.042 -0.1483  0.2439 -0.8621
   32CHL1  H27A 2366   1.675   3.904   4.116  0.1909  0.8188 -1.0944
   32CHL1  H27B 2367   1.679   3.768   3.976 -1.2170  0.0902  0.0984
   32CHL1  H27C 2368   1.807   3.788   4.102  2.9579  1.6949 -3.2960
   33CHL1    C3 2369   5.663   5.296   2.968  0.4323 -0.4798 -0.5025
   33CHL1    H3 2370   5.764   5.257   2.941  0.6468 -0.7503  0.6556
   33CHL1    O3 2371   5.588   5.303   2.852 -0.0993  0.0518  0.0384
   33CHL1   H3' 2372   5.614   5.389   2.818 -0.1297 -0.3978 -1.1884
   33CHL1    C4 2373   5.594   5.201   3.064  0.6732 -0.1376  0.9596
   33CHL1   H4A 2374   5.490   5.236   3.082  0.4581 -1.0380  1.4890
   33CHL1   H4B 2375   5.580   5.107   3.006 -0.5523  0.4213  0.3026
   33CHL1    C5 2376   5.671   5.197   3.200  0.0889  0.0206 -0.0873
   33CHL1    C6 2377   5.724   5.080   3.240 -0.2610 -0.3283 -0.1268
   33CHL1    H6 2378   5.714   4.991   3.177  3.0994 -0.0367 -1.2810
   33CHL1    C7 2379   5.802   5.062   3.368  0.0499  0.4733  0.3485
   33CHL1   H7A 2380   5.765   4.967   3.411 -1.9538  0.4319 -1.3175
   33CHL1   H7B 2381   5.912   5.055   3.351  0.8840  1.6777  4.3333
   33CHL1    C8 2382   5.782   5.184   3.467 -0.4168  0.5981 -0.0272
   33CHL1    H8 2383   5.685   5.162   3.518 -1.2012 -0.8011 -1.9936
   33CHL1   C14 2384   5.903   5.178   3.566 -0.1203  0.6297  0.3318
   33CHL1   H14 2385   6.002   5.185   3.516  0.5940  0.1819  1.6499
   33CHL1   C15 2386   5.913   5.053   3.653  0.4186  0.4581 -0.7646
   33CHL1  H15A 2387   5.813   5.012   3.679  0.0220  2.2229  0.6806
   33CHL1  H15B 2388   5.986   4.980   3.612  2.3266  0.0444  3.0059
   33CHL1   C16 2389   5.978   5.094   3.778 -0.4365  0.0622 -0.3644
   33CHL1  H16A 2390   5.919   5.069   3.869 -1.2025 -1.2197 -1.1712
   33CHL1  H16B 2391   6.071   5.034   3.790  1.0174  2.1694 -0.6135
   33CHL1   C17 2392   6.004   5.250   3.760 -0.4348  0.4313 -0.1201
   33CHL1   H17 2393   6.100   5.257   3.705 -0.2301 -0.3896  0.1236
   33CHL1   C13 2394   5.892   5.291   3.666  0.4593 -1.1912  0.2226
   33CHL1   C18 2395   5.762   5.281   3.752 -0.1510  0.1791 -0.5785
   33CHL1  H18A 2396   5.764   5.197   3.826  3.3733 -0.8477 -1.6658
   33CHL1  H18B 2397   5.755   5.373   3.813 -2.0384  1.5006 -2.6490
   33CHL1  H18C 2398   5.663   5.276   3.702 -1.4561 -0.9661  1.9123
   33CHL1   C12 2399   5.898   5.428   3.591  0.0669 -0.0663  0.0640
   33CHL1  H12A 2400   5.898   5.504   3.671 -1.8322 -1.2394  1.2484
   33CHL1  H12B 2401   5.995   5.420   3.537 -0.6450  0.0103 -1.2764
   33CHL1   C11 2402   5.791   5.443   3.481  0.1507  0.4356 -0.4185
   33CHL1  H11A 2403   5.693   5.451   3.533  1.3557  1.2872  1.8837
   33CHL1  H11B 2404   5.809   5.539   3.428  0.5909 -0.6797 -2.3559
   33CHL1    C9 2405   5.782   5.321   3.393 -0.0937  0.2430  0.1314
   33CHL1    H9 2406   5.878   5.323   3.338 -0.4947 -0.9624 -0.6634
   33CHL1   C10 2407   5.678   5.319   3.271 -0.5115 -0.4648 -0.2705
   33CHL1   C19 2408   5.537   5.380   3.327 -0.5648 -1.0488  0.3167
   33CHL1  H19A 2409   5.551   5.484   3.364  0.5134 -0.3451 -1.9113
   33CHL1  H19B 2410   5.462   5.389   3.246 -0.1418  2.8108  0.1500
   33CHL1  H19C 2411   5.496   5.317   3.409 -1.0550 -0.8448  0.2321
   33CHL1    C1 2412   5.734   5.423   3.167  0.7838 -0.3492 -0.0199
   33CHL1   H1A 2413   5.743   5.527   3.205 -0.0671 -0.4257  0.4144
   33CHL1   H1B 2414   5.837   5.394   3.139  0.3670 -0.8480 -1.0690
   33CHL1    C2 2415   5.666   5.433   3.032  0.0257 -1.1735  0.0510
   33CHL1   H2A 2416   5.723   5.494   2.958  0.4542 -0.4908  0.9336
   33CHL1   H2B 2417   5.565   5.477   3.044  1.1094  1.1883  1.2717
   33CHL1   C20 2418   6.030   5.330   3.891  0.0977 -0.2003  0.2336
   33CHL1   H20 2419   5.931   5.366   3.927 -0.3889  0.4670 -1.6318
   33CHL1   C21 2420   6.121   5.452   3.853  1.1794  0.0053  0.0862
   33CHL1  H21A 2421   6.129   5.530   3.932  0.2005  0.6502 -0.4371
   33CHL1  H21B 2422   6.091   5.503   3.759  2.4504 -0.0474 -0.3706
   33CHL1  H21C 2423   6.222   5.409   3.838  0.4506 -1.5222 -0.6500
   33CHL1   C22 2424   6.093   5.250   3.999 -0.1993 -1.0103  0.2428
   33CHL1  H22A 2425   6.110   5.329   4.076 -0.4220 -2.5039  1.8738
   33CHL1  H22B 2426   6.024   5.173   4.037 -0.8789 -0.1078  0.8916
   33CHL1   C23 2427   6.222   5.177   3.982 -0.5324 -0.0420 -0.6240
   33CHL1  H23A 2428   6.216   5.102   3.900 -5.6497 -0.5338 -0.1567
   33CHL1  H23B 2429   6.303   5.248   3.956  0.1341 -0.4836  0.1888
   33CHL1   C24 2430   6.258   5.105   4.112  0.0158 -0.2179  0.1987
   33CHL1  H24A 2431   6.282   5.191   4.177  0.8382  0.6417 -1.2117
   33CHL1  H24B 2432   6.173   5.050   4.159  1.1161 -2.0473  0.1393
   33CHL1   C25 2433   6.392   5.017   4.116  0.1948  0.2558  0.2965
   33CHL1   H25 2434   6.393   4.950   4.028 -0.4878 -0.7565  1.0322
   33CHL1   C26 2435   6.521   5.095   4.116  0.3981 -0.1089  0.7780
   33CHL1  H26A 2436   6.603   5.020   4.110 -0.4048 -1.1631  2.2984
   33CHL1  H26B 2437   6.537   5.152   4.022  2.7176 -0.8582  0.6655
   33CHL1  H26C 2438   6.536   5.158   4.206  1.6853  0.5523  0.1194
   33CHL1   C27 2439   6.382   4.916   4.232  0.3290 -0.2951  0.0014
   33CHL1  H27A 2440   6.362   4.955   4.334  0.1711  0.7307 -0.4002
   33CHL1  H27B 2441   6.293   4.854   4.209  0.2103 -0.3725  0.6591
   33CHL1  H27C 2442   6.475   4.855   4.230  0.1745 -0.5943  1.2090
   34CHL1    C3 2443   2.770   0.811   3.087  0.2972 -0.9973  0.2545
   34CHL1    H3 2444   2.741   0.915   3.113 -1.6006 -1.2891 -0.5107
   34CHL1    O3 2445   2.810   0.809   2.953 -0.0563  0.2408  0.3513
   34CHL1   H3' 2446   2.738   0.841   2.898  1.5723  0.8845 -1.5469
   34CHL1    C4 2447   2.888   0.781   3.165 -0.7662  0.5873 -1.2770
   34CHL1   H4A 2448   2.933   0.681   3.148  1.3085  0.9620  1.3576
   34CHL1   H4B 2449   2.966   0.857   3.146 -1.3461  1.3600 -0.6269
   34CHL1    C5 2450   2.852   0.793   3.310 -0.3144 -0.7140  0.6900
   34CHL1    C6 2451   2.910   0.894   3.382 -0.0590 -0.1342 -0.3673
   34CHL1    H6 2452   2.986   0.956   3.332  0.7848 -0.9085 -0.0753
   34CHL1    C7 2453   2.885   0.909   3.530  0.7852 -1.6230 -0.8240
   34CHL1   H7A 2454   2.979   0.916   3.590 -0.5185 -0.4631  1.2040
   34CHL1   H7B 2455   2.839   1.009   3.544  3.1948 -0.1511 -2.6567
   34CHL1    C8 2456   2.803   0.792   3.586 -0.1218 -0.6430 -0.2056
   34CHL1    H8 2457   2.874   0.709   3.606 -1.0676 -1.2391  0.8279
   34CHL1   C14 2458   2.756   0.827   3.729  0.5736 -0.4358  0.6576
   34CHL1   H14 2459   2.688   0.913   3.711  2.0351  0.9877  1.6647
   34CHL1   C15 2460   2.842   0.887   3.841 -0.2113  0.2937  0.1060
   34CHL1  H15A 2461   2.928   0.817   3.850 -0.3897 -0.0037 -0.4808
   34CHL1  H15B 2462   2.867   0.993   3.818 -1.9370  0.5323 -0.8354
   34CHL1   C16 2463   2.752   0.884   3.966  0.0594 -0.0717 -0.1445
   34CHL1  H16A 2464   2.795   0.815   4.041  2.3022  0.3193 -0.9902
   34CHL1  H16B 2465   2.742   0.985   4.011  1.1878  1.3373 -2.8193
   34CHL1   C17 2466   2.618   0.806   3.930 -0.1377 -0.2937  0.2604
   34CHL1   H17 2467   2.551   0.885   3.890 -1.2627 -1.5035 -0.3198
   34CHL1   C13 2468   2.655   0.728   3.800 -0.0545 -0.3261  0.4061
   34CHL1   C18 2469   2.728   0.598   3.837 -0.2313  0.4095 -0.3653
   34CHL1  H18A 2470   2.801   0.564   3.760  1.7256 -3.4519  2.8601
   34CHL1  H18B 2471   2.799   0.602   3.922 -1.7190 -0.7660  1.0094
   34CHL1  H18C 2472   2.660   0.513   3.863  1.1129 -0.5020  0.2577
   34CHL1   C12 2473   2.536   0.696   3.700 -1.1952 -0.0365 -0.3939
   34CHL1  H12A 2474   2.472   0.614   3.737  0.8690 -1.4970  0.1246
   34CHL1  H12B 2475   2.476   0.789   3.687 -2.3640 -0.9708 -2.0164
   34CHL1   C11 2476   2.590   0.641   3.568  0.2492  0.1152  0.3632
   34CHL1  H11A 2477   2.645   0.547   3.594  2.5068  1.0717 -0.7268
   34CHL1  H11B 2478   2.511   0.618   3.494 -0.9280  0.8894  1.3568
   34CHL1    C9 2479   2.694   0.741   3.496 -0.4272 -0.2436 -1.0319
   34CHL1    H9 2480   2.632   0.831   3.482  1.8347  1.5604 -0.1806
   34CHL1   C10 2481   2.738   0.700   3.353 -0.2972  0.0085 -0.3009
   34CHL1   C19 2482   2.798   0.560   3.364 -0.1396  0.3498  0.0647
   34CHL1  H19A 2483   2.835   0.532   3.263 -1.9344  2.4354 -1.2575
   34CHL1  H19B 2484   2.887   0.553   3.430 -0.8173 -0.0927  0.9509
   34CHL1  H19C 2485   2.724   0.483   3.395  0.7336 -0.4561  0.1959
   34CHL1    C1 2486   2.617   0.712   3.258 -0.5028  0.0706 -0.6625
   34CHL1   H1A 2487   2.540   0.634   3.275 -1.8060  1.5322  0.4662
   34CHL1   H1B 2488   2.560   0.806   3.277 -0.7488 -0.0472 -0.8099
   34CHL1    C2 2489   2.654   0.721   3.111 -0.1636  0.8212  0.5211
   34CHL1   H2A 2490   2.569   0.760   3.051  0.6316 -0.7890 -1.8096
   34CHL1   H2B 2491   2.691   0.624   3.072  4.0892  2.4653  0.0111
   34CHL1   C20 2492   2.559   0.724   4.049  0.2299  0.2317  1.0849
   34CHL1   H20 2493   2.623   0.646   4.094  1.1956 -0.3696 -1.2130
   34CHL1   C21 2494   2.418   0.657   4.005  0.1290 -0.2305  0.1075
   34CHL1  H21A 2495   2.365   0.626   4.098  1.9930  0.0760  1.3235
   34CHL1  H21B 2496   2.440   0.570   3.939  4.1038  1.2581 -0.8257
   34CHL1  H21C 2497   2.358   0.717   3.934 -2.4530 -1.7171  0.8973
   34CHL1   C22 2498   2.545   0.820   4.171 -0.1828  0.2511  0.0106
   34CHL1  H22A 2499   2.645   0.848   4.209 -0.3629 -1.3387  1.8535
   34CHL1  H22B 2500   2.495   0.915   4.143 -0.1047 -0.0951 -1.3802
   34CHL1   C23 2501   2.481   0.762   4.295 -0.5068 -0.4941 -0.0930
   34CHL1  H23A 2502   2.477   0.848   4.365 -1.3505 -0.2401 -0.4379
   34CHL1  H23B 2503   2.382   0.718   4.268 -0.7009  0.7572 -1.5775
   34CHL1   C24 2504   2.563   0.650   4.362  0.0368 -0.2611 -0.8935
   34CHL1  H24A 2505   2.511   0.623   4.457  0.2515  1.0485 -0.3852
   34CHL1  H24B 2506   2.569   0.560   4.298 -0.1814 -2.1144  1.5281
   34CHL1   C25 2507   2.704   0.676   4.417 -0.9462 -0.2633 -0.1499
   34CHL1   H25 2508   2.773   0.703   4.334  0.0026 -0.2452  0.6221
   34CHL1   C26 2509   2.705   0.798   4.514 -0.7963 -1.4311  0.0400
   34CHL1  H26A 2510   2.809   0.811   4.551 -0.1269  0.1063 -2.1670
   34CHL1  H26B 2511   2.668   0.897   4.479 -0.8184 -0.4836  2.5481
   34CHL1  H26C 2512   2.636   0.772   4.596 -0.8075 -1.6504 -0.0384
   34CHL1   C27 2513   2.757   0.545   4.487  0.1323  0.0443  0.4806
   34CHL1  H27A 2514   2.858   0.556   4.534  0.7685 -0.2475 -0.7814
   34CHL1  H27B 2515   2.689   0.521   4.572  1.4841  0.8067  1.8376
   34CHL1  H27C 2516   2.755   0.465   4.410 -1.4526  0.8106 -0.3182
   35CHL1    C3 2517   5.485   6.448   2.780  0.4880 -0.9275 -1.1710
   35CHL1    H3 2518   5.492   6.337   2.773 -1.3928 -1.0532 -1.5425
   35CHL1    O3 2519   5.492   6.494   2.648  0.1587  0.3003  0.4122
   35CHL1   H3' 2520   5.412   6.479   2.596  1.3829 -0.9922 -1.1839
   35CHL1    C4 2521   5.350   6.487   2.831  0.2289 -0.0222 -0.5983
   35CHL1   H4A 2522   5.354   6.598   2.832  0.4033 -0.0127 -1.5707
   35CHL1   H4B 2523   5.270   6.446   2.766 -1.4025 -2.8226  2.8492
   35CHL1    C5 2524   5.332   6.454   2.979 -0.1002  0.1863  0.5348
   35CHL1    C6 2525   5.241   6.368   3.012 -0.7941  0.5166 -0.5482
   35CHL1    H6 2526   5.189   6.311   2.934 -1.0521  0.2586 -0.1919
   35CHL1    C7 2527   5.214   6.319   3.152 -0.7373  0.6132 -0.1836
   35CHL1   H7A 2528   5.108   6.324   3.184 -0.5727 -0.6277  0.6284
   35CHL1   H7B 2529   5.247   6.214   3.163  1.0836  1.2276  0.6247
   35CHL1    C8 2530   5.291   6.408   3.256 -0.0832  0.1451 -0.0875
   35CHL1    H8 2531   5.231   6.501   3.261 -2.1150 -1.1249  0.0892
   35CHL1   C14 2532   5.300   6.335   3.389  0.2988  0.0773  1.1048
   35CHL1   H14 2533   5.367   6.248   3.372 -1.5062 -1.2909  0.8013
   35CHL1   C15 2534   5.174   6.281   3.449  0.0066  0.1681  0.4064
   35CHL1  H15A 2535   5.095   6.359   3.445  1.3041  1.5090 -0.2867
   35CHL1  H15B 2536   5.148   6.187   3.396  1.7836 -0.2555  0.2295
   35CHL1   C16 2537   5.202   6.256   3.599  0.4579 -0.2204 -0.2139
   35CHL1  H16A 2538   5.119   6.287   3.665  1.2580  2.4460 -0.3392
   35CHL1  H16B 2539   5.220   6.146   3.604 -0.6296 -0.3773  0.4969
   35CHL1   C17 2540   5.339   6.327   3.619 -0.3301 -0.2818 -0.1803
   35CHL1   H17 2541   5.413   6.245   3.606 -0.0112 -0.3030  1.5859
   35CHL1   C13 2542   5.364   6.418   3.498 -0.1997  0.7900  0.2088
   35CHL1   C18 2543   5.295   6.549   3.513  0.1290  0.2295  0.0073
   35CHL1  H18A 2544   5.189   6.523   3.535 -0.5673  3.0714  0.3906
   35CHL1  H18B 2545   5.347   6.615   3.585  1.0151 -1.2305  0.7536
   35CHL1  H18C 2546   5.284   6.606   3.418 -0.0047 -2.0501 -1.4304
   35CHL1   C12 2547   5.515   6.432   3.456  1.0472  0.0097  0.3979
   35CHL1  H12A 2548   5.582   6.482   3.530 -0.4250  1.7972  0.5915
   35CHL1  H12B 2549   5.548   6.326   3.454 -2.1293 -1.0517 -0.1726
   35CHL1   C11 2550   5.523   6.499   3.314  0.0688  0.1847 -0.2439
   35CHL1  H11A 2551   5.509   6.606   3.338  2.4624  0.0608  2.0463
   35CHL1  H11B 2552   5.628   6.473   3.291 -0.0420  0.0146 -0.5821
   35CHL1    C9 2553   5.431   6.437   3.209 -0.5425 -0.2572 -0.0894
   35CHL1    H9 2554   5.483   6.341   3.187 -0.3656 -0.8398  2.5567
   35CHL1   C10 2555   5.434   6.520   3.078 -0.0147  0.0070  0.4637
   35CHL1   C19 2556   5.395   6.666   3.092  1.1808 -0.6304  0.0554
   35CHL1  H19A 2557   5.451   6.728   3.165 -0.7331  0.2702  0.8384
   35CHL1  H19B 2558   5.386   6.724   2.998 -1.9910 -0.4847  0.3403
   35CHL1  H19C 2559   5.291   6.663   3.131  1.4564 -1.7365  0.7444
   35CHL1    C1 2560   5.575   6.500   3.024 -0.6052  0.2739  0.3057
   35CHL1   H1A 2561   5.644   6.567   3.082  0.0731 -0.6707  0.6167
   35CHL1   H1B 2562   5.615   6.397   3.038 -0.8305  0.0337 -0.8070
   35CHL1    C2 2563   5.594   6.524   2.871 -0.1177 -0.0681 -0.2683
   35CHL1   H2A 2564   5.691   6.494   2.827 -1.7415 -0.9527 -3.6365
   35CHL1   H2B 2565   5.580   6.633   2.856 -1.0693 -0.4406 -2.5308
   35CHL1   C20 2566   5.372   6.389   3.758  0.2694 -0.0389  0.4016
   35CHL1   H20 2567   5.454   6.463   3.745 -2.2768  2.4795 -2.8333
   35CHL1   C21 2568   5.419   6.276   3.849  0.0404  0.0524 -0.0180
   35CHL1  H21A 2569   5.502   6.217   3.804  0.1534 -0.6841  1.1021
   35CHL1  H21B 2570   5.337   6.201   3.857 -0.0550  0.1078 -0.4583
   35CHL1  H21C 2571   5.424   6.310   3.954  2.1535 -2.0256  0.6528
   35CHL1   C22 2572   5.257   6.464   3.829  0.1084  0.0814 -0.0343
   35CHL1  H22A 2573   5.216   6.519   3.741 -0.1302 -1.7385 -1.1186
   35CHL1  H22B 2574   5.182   6.396   3.875  0.4763  0.6843  1.4982
   35CHL1   C23 2575   5.311   6.566   3.930 -0.4663 -1.0574 -0.4388
   35CHL1  H23A 2576   5.382   6.526   4.006  0.7447 -1.2103 -1.6257
   35CHL1  H23B 2577   5.370   6.638   3.871 -2.2987 -0.7286 -1.9748
   35CHL1   C24 2578   5.200   6.639   4.002  0.3466 -0.6321 -1.0056
   35CHL1  H24A 2579   5.140   6.704   3.935 -0.1266  0.6439  0.6007
   35CHL1  H24B 2580   5.120   6.566   4.031  0.4685 -0.1208  0.7448
   35CHL1   C25 2581   5.244   6.708   4.130  0.5027  0.4619 -0.0784
   35CHL1   H25 2582   5.312   6.636   4.181  0.9093  0.7798 -0.1680
   35CHL1   C26 2583   5.333   6.833   4.100 -0.5952 -0.0300  0.2272
   35CHL1  H26A 2584   5.268   6.904   4.044 -2.0315 -1.3802  0.1066
   35CHL1  H26B 2585   5.373   6.879   4.192 -0.9669  0.7935 -0.0102
   35CHL1  H26C 2586   5.419   6.807   4.035 -0.9162 -0.8907  0.1296
   35CHL1   C27 2587   5.125   6.732   4.218  0.3642 -0.1003 -0.2328
   35CHL1  H27A 2588   5.153   6.795   4.305 -2.5101  2.4710 -0.9879
   35CHL1  H27B 2589   5.050   6.785   4.155  0.6672 -1.7046 -2.0471
   35CHL1  H27C 2590   5.077   6.636   4.246 -0.2802  0.8297  2.1206
   36CHL1    C3 2591   0.862   1.417   3.003 -1.2533  0.0913 -0.0458
   36CHL1    H3 2592   0.953   1.475   2.976 -1.2748 -0.0847 -0.5066
   36CHL1    O3 2593   0.796   1.406   2.881 -0.1931 -0.1426  0.9213
   36CHL1   H3' 2594   0.799   1.495   2.843 -1.1855 -1.0992 -1.6119
   36CHL1    C4 2595   0.887   1.272   3.056 -1.0762  0.2084 -0.0642
   36CHL1   H4A 2596   0.788   1.221   3.051 -0.2764 -1.2670 -2.7455
   36CHL1   H4B 2597   0.942   1.216   2.977 -0.6225 -0.8705  0.9855
   36CHL1    C5 2598   0.938   1.271   3.202 -0.3381 -0.6468 -0.5234
   36CHL1    C6 2599   1.038   1.196   3.244 -0.2570 -0.5067  0.0903
   36CHL1    H6 2600   1.093   1.134   3.171  0.5892 -1.7929  1.7385
   36CHL1    C7 2601   1.082   1.186   3.390 -0.1318 -0.8848 -0.0328
   36CHL1   H7A 2602   1.091   1.078   3.417 -0.3093 -0.3704  2.2605
   36CHL1   H7B 2603   1.188   1.219   3.401 -0.6799  0.8075  0.3945
   36CHL1    C8 2604   0.988   1.251   3.492 -0.4161 -0.6042 -0.6644
   36CHL1    H8 2605   0.901   1.182   3.495  0.2425 -1.4894  2.9108
   36CHL1   C14 2606   1.056   1.270   3.627  0.1626 -0.5984 -0.2433
   36CHL1   H14 2607   1.130   1.351   3.612  0.2915 -0.5275  0.7301
   36CHL1   C15 2608   1.115   1.141   3.689 -0.8104 -0.2841 -0.4886
   36CHL1  H15A 2609   1.046   1.054   3.675 -1.2655  0.2502 -1.7527
   36CHL1  H15B 2610   1.212   1.124   3.639  0.1885  0.1578  1.2277
   36CHL1   C16 2611   1.136   1.173   3.837  0.1463  0.2490 -0.0328
   36CHL1  H16A 2612   1.082   1.093   3.891  0.9441  0.0364  0.4682
   36CHL1  H16B 2613   1.241   1.182   3.874 -0.4214  2.4200  1.2535
   36CHL1   C17 2614   1.061   1.311   3.847 -0.2618 -0.6964  0.3880
   36CHL1   H17 2615   1.141   1.386   3.830 -1.3334  0.7365  1.4059
   36CHL1   C13 2616   0.964   1.322   3.733 -0.0775  0.5840  0.3113
   36CHL1   C18 2617   0.833   1.236   3.756 -0.4714  0.2521 -0.2006
   36CHL1  H18A 2618   0.756   1.266   3.830 -0.1601 -1.1534  0.7284
   36CHL1  H18B 2619   0.778   1.224   3.660 -1.1293 -3.4284  0.4897
   36CHL1  H18C 2620   0.862   1.134   3.791 -0.8157  0.0473 -0.4997
   36CHL1   C12 2621   0.929   1.467   3.685  0.3047  0.4445  0.1894
   36CHL1  H12A 2622   0.873   1.521   3.764 -1.2524 -0.8570  0.0289
   36CHL1  H12B 2623   1.015   1.536   3.674  0.4120  0.5649  1.6933
   36CHL1   C11 2624   0.850   1.454   3.551 -0.5363 -0.1986  0.0315
   36CHL1  H11A 2625   0.755   1.398   3.565 -1.6283  1.4580 -0.3721
   36CHL1  H11B 2626   0.815   1.554   3.514 -0.2945  0.3380  1.2253
   36CHL1    C9 2627   0.929   1.383   3.437 -0.1967 -0.4520  0.0753
   36CHL1    H9 2628   1.012   1.452   3.409  0.3840 -1.1837 -0.0568
   36CHL1   C10 2629   0.854   1.356   3.306  0.7108  0.2194  0.0699
   36CHL1   C19 2630   0.718   1.278   3.321  0.5473  0.2565 -0.6040
   36CHL1  H19A 2631   0.738   1.176   3.360 -1.1489  0.2574  0.3580
   36CHL1  H19B 2632   0.658   1.331   3.398 -3.0108 -2.1931 -1.4550
   36CHL1  H19C 2633   0.655   1.275   3.229  0.1689  2.9471 -0.5212
   36CHL1    C1 2634   0.831   1.493   3.242  0.1009 -0.8550  0.1371
   36CHL1   H1A 2635   0.749   1.546   3.296  1.1333 -0.3485  1.2604
   36CHL1   H1B 2636   0.922   1.555   3.253 -0.9754  1.9757 -4.2774
   36CHL1    C2 2637   0.776   1.495   3.102  1.0374 -0.1532  0.4738
   36CHL1   H2A 2638   0.751   1.595   3.060  0.1648 -0.0969  1.1256
   36CHL1   H2B 2639   0.682   1.436   3.101  1.7040 -1.2922  1.4607
   36CHL1   C20 2640   0.998   1.342   3.983  0.0570 -0.2264  0.2046
   36CHL1   H20 2641   0.905   1.402   3.982 -0.8561 -1.4589 -3.5427
   36CHL1   C21 2642   1.118   1.427   4.053 -0.2634  0.6919  0.1417
   36CHL1  H21A 2643   1.138   1.525   4.005  0.6035  0.9849  1.0880
   36CHL1  H21B 2644   1.211   1.368   4.039 -0.1650  1.2762 -1.9566
   36CHL1  H21C 2645   1.096   1.438   4.161  0.3424 -0.1088  0.3544
   36CHL1   C22 2646   0.981   1.214   4.073  0.3566 -0.5119  0.3436
   36CHL1  H22A 2647   0.923   1.133   4.024 -0.5229 -0.4701  1.2881
   36CHL1  H22B 2648   1.081   1.169   4.088  0.1230 -1.2684 -0.3049
   36CHL1   C23 2649   0.914   1.245   4.202 -0.2677 -0.1462 -0.4221
   36CHL1  H23A 2650   0.908   1.153   4.264 -2.8700 -0.8547 -1.5690
   36CHL1  H23B 2651   0.978   1.317   4.257 -0.3535  0.2086 -0.7814
   36CHL1   C24 2652   0.762   1.282   4.206 -0.0723  0.9147  0.5067
   36CHL1  H24A 2653   0.742   1.329   4.107  0.5039  1.6977  0.7471
   36CHL1  H24B 2654   0.695   1.194   4.212 -1.3176  1.8466  0.6900
   36CHL1   C25 2655   0.722   1.371   4.318 -0.1000  0.6971  0.1465
   36CHL1   H25 2656   0.795   1.454   4.330  0.8148 -0.0673 -0.0019
   36CHL1   C26 2657   0.592   1.435   4.279  0.2876 -0.2453 -0.0044
   36CHL1  H26A 2658   0.602   1.478   4.177  0.8432  1.3468  0.6914
   36CHL1  H26B 2659   0.503   1.368   4.276  0.3211 -0.3712  1.2304
   36CHL1  H26C 2660   0.565   1.516   4.350 -0.7262 -0.2054 -0.4231
   36CHL1   C27 2661   0.723   1.289   4.449  0.2309  0.1713 -0.1168
   36CHL1  H27A 2662   0.693   1.348   4.538  1.7958  0.5588  0.1740
   36CHL1  H27B 2663   0.652   1.204   4.440  0.4402 -0.0201  0.0362
   36CHL1  H27C 2664   0.814   1.229   4.471 -0.6136 -1.1636 -0.1642
   37CHL1    C3 2665   4.722   0.676   2.711  0.5648 -0.6567 -0.9531
   37CHL1    H3 2666   4.806   0.612   2.745  1.2140  0.0099 -1.2784
   37CHL1    O3 2667   4.704   0.676   2.570  0.0751 -0.2331 -0.0406
   37CHL1   H3' 2668   4.617   0.637   2.560 -0.3877  0.8836 -0.5306
   37CHL1    C4 2669   4.591   0.634   2.774  0.5596 -0.4797  0.4893
   37CHL1   H4A 2670   4.516   0.698   2.722 -1.1922 -2.8547 -0.0880
   37CHL1   H4B 2671   4.571   0.535   2.729 -0.5210  0.3720 -1.0074
   37CHL1    C5 2672   4.571   0.638   2.918  0.2386  0.4744 -0.0755
   37CHL1    C6 2673   4.526   0.530   2.982  0.9006  0.4637  0.6994
   37CHL1    H6 2674   4.503   0.435   2.931  1.8498 -0.2021  1.4761
   37CHL1    C7 2675   4.510   0.516   3.127  0.7104 -0.0075  0.5254
   37CHL1   H7A 2676   4.410   0.476   3.154  0.5939  0.1135  0.2694
   37CHL1   H7B 2677   4.590   0.451   3.168  2.0818  0.9969 -0.4611
   37CHL1    C8 2678   4.525   0.649   3.201 -0.0409  0.4104  0.9059
   37CHL1    H8 2679   4.438   0.718   3.200 -0.4210 -0.0642 -0.1734
   37CHL1   C14 2680   4.572   0.624   3.339  0.5380  0.0998 -0.5041
   37CHL1   H14 2681   4.678   0.589   3.330 -0.2568 -2.4737 -0.8324
   37CHL1   C15 2682   4.502   0.516   3.420  0.1248 -0.0987 -0.0380
   37CHL1  H15A 2683   4.392   0.511   3.401 -0.5525  3.6035  1.9143
   37CHL1  H15B 2684   4.550   0.418   3.402 -1.6769 -0.9534 -0.3911
   37CHL1   C16 2685   4.541   0.559   3.563 -0.0168 -0.4234 -0.4688
   37CHL1  H16A 2686   4.446   0.568   3.620 -1.7268 -3.4341 -2.5241
   37CHL1  H16B 2687   4.604   0.482   3.613  1.3307  0.6950 -0.4194
   37CHL1   C17 2688   4.627   0.692   3.566 -0.4856  0.4153  0.7936
   37CHL1   H17 2689   4.731   0.658   3.549 -1.7738 -2.8287 -1.7582
   37CHL1   C13 2690   4.586   0.752   3.434 -0.3473  0.5933 -0.4141
   37CHL1   C18 2691   4.449   0.832   3.458  0.1815  0.1597  0.2181
   37CHL1  H18A 2692   4.389   0.771   3.529 -0.6097 -1.2990 -1.6168
   37CHL1  H18B 2693   4.469   0.932   3.502  0.0610  1.1413 -1.8293
   37CHL1  H18C 2694   4.404   0.844   3.357  0.6464  0.1788  0.0103
   37CHL1   C12 2695   4.693   0.837   3.368  0.1932  0.0750  0.1207
   37CHL1  H12A 2696   4.699   0.938   3.414 -0.0557 -0.0172  0.3543
   37CHL1  H12B 2697   4.791   0.788   3.387 -0.8368 -1.3817  2.0412
   37CHL1   C11 2698   4.663   0.865   3.222 -0.1628 -0.0761 -0.5296
   37CHL1  H11A 2699   4.582   0.941   3.219  1.2397  1.4494 -0.4804
   37CHL1  H11B 2700   4.749   0.915   3.174  1.5317 -0.8935  1.5099
   37CHL1    C9 2701   4.633   0.742   3.133 -0.5193  0.2041 -0.9220
   37CHL1    H9 2702   4.731   0.691   3.142 -1.4032 -1.3423  0.2343
   37CHL1   C10 2703   4.614   0.771   2.978  0.8548 -0.1944 -0.6563
   37CHL1   C19 2704   4.508   0.879   2.959  0.3273  0.1768 -0.3109
   37CHL1  H19A 2705   4.492   0.904   2.852  0.0669  1.7525  0.0777
   37CHL1  H19B 2706   4.413   0.848   3.006 -0.0334 -0.1529 -1.2293
   37CHL1  H19C 2707   4.545   0.974   3.002  0.6250 -0.9402  2.0568
   37CHL1    C1 2708   4.749   0.818   2.916  0.9701 -0.5004 -0.3109
   37CHL1   H1A 2709   4.761   0.924   2.948  0.1651  0.3928 -2.7565
   37CHL1   H1B 2710   4.832   0.757   2.959  2.4117  3.2504  2.9127
   37CHL1    C2 2711   4.757   0.817   2.764  1.1086 -0.1908  0.0595
   37CHL1   H2A 2712   4.860   0.837   2.727  0.9665  0.6551  0.0875
   37CHL1   H2B 2713   4.690   0.895   2.722  0.7639 -0.3763  0.2681
   37CHL1   C20 2714   4.624   0.772   3.695 -0.1061  0.5579 -0.3839
   37CHL1   H20 2715   4.517   0.799   3.713 -0.0268 -0.2549  1.6139
   37CHL1   C21 2716   4.704   0.910   3.681  0.4624 -0.0578  0.3863
   37CHL1  H21A 2717   4.801   0.871   3.646  0.4627 -1.4311  1.8207
   37CHL1  H21B 2718   4.718   0.969   3.774 -1.2285  1.5899 -0.3369
   37CHL1  H21C 2719   4.670   0.992   3.614  1.4402  0.0629  0.0271
   37CHL1   C22 2720   4.670   0.686   3.812  0.5935  0.1539 -0.0231
   37CHL1  H22A 2721   4.621   0.588   3.825 -0.2165  0.5186 -0.2725
   37CHL1  H22B 2722   4.778   0.669   3.790  0.4220 -0.4700 -0.3786
   37CHL1   C23 2723   4.664   0.758   3.950 -0.4231  0.4698 -0.3120
   37CHL1  H23A 2724   4.749   0.830   3.959  2.3962 -2.5266 -1.0293
   37CHL1  H23B 2725   4.570   0.818   3.958 -0.1262  1.0173 -0.7963
   37CHL1   C24 2726   4.661   0.657   4.070 -0.5595  0.3475  0.2467
   37CHL1  H24A 2727   4.559   0.617   4.090 -0.8107  1.4386  1.2170
   37CHL1  H24B 2728   4.727   0.574   4.036  0.8539  0.9753  1.3875
   37CHL1   C25 2729   4.720   0.708   4.201 -0.0203 -0.0810 -0.5573
   37CHL1   H25 2730   4.829   0.728   4.193  0.3122 -0.4267  2.1896
   37CHL1   C26 2731   4.657   0.842   4.250  0.1594  0.4280  0.0047
   37CHL1  H26A 2732   4.547   0.830   4.249  0.3880 -2.0337 -0.3638
   37CHL1  H26B 2733   4.679   0.871   4.355  0.7156  1.5836 -0.4115
   37CHL1  H26C 2734   4.680   0.928   4.183  0.7759  0.1810 -0.1016
   37CHL1   C27 2735   4.694   0.596   4.307 -0.2024 -0.3817  0.0474
   37CHL1  H27A 2736   4.583   0.588   4.303 -0.3269  1.5974 -2.0840
   37CHL1  H27B 2737   4.748   0.500   4.291  0.9371  0.2348  0.0657
   37CHL1  H27C 2738   4.709   0.645   4.406 -0.9447  0.6102 -0.3157
   38CHL1    C3 2739   6.014   5.749   2.843 -0.7939 -0.2118 -0.0829
   38CHL1    H3 2740   5.989   5.857   2.847 -0.7294 -0.2310  1.6214
   38CHL1    O3 2741   5.987   5.707   2.713 -0.2270 -0.2305  0.9040
   38CHL1   H3' 2742   5.960   5.616   2.730  1.5134 -1.0150 -0.2983
   38CHL1    C4 2743   6.168   5.722   2.868  0.0604 -0.1172  0.1025
   38CHL1   H4A 2744   6.177   5.612   2.856 -2.7777 -0.4618  0.2586
   38CHL1   H4B 2745   6.223   5.768   2.784  1.6017  0.8636  1.5728
   38CHL1    C5 2746   6.207   5.777   3.010  0.0525  0.6806 -0.0790
   38CHL1    C6 2747   6.302   5.872   3.027  0.3681  0.1382  0.4839
   38CHL1    H6 2748   6.358   5.913   2.941  1.1590  1.8154  1.7475
   38CHL1    C7 2749   6.342   5.928   3.163  0.6910  0.5289 -0.0416
   38CHL1   H7A 2750   6.453   5.922   3.167  0.6642 -0.1175 -0.2229
   38CHL1   H7B 2751   6.303   6.032   3.165 -0.9055 -0.0489  0.9959
   38CHL1    C8 2752   6.287   5.841   3.282  1.0478  0.0266  0.2522
   38CHL1    H8 2753   6.353   5.753   3.298 -0.2971 -1.4571 -1.8232
   38CHL1   C14 2754   6.296   5.917   3.415 -0.2014  0.1807 -0.1744
   38CHL1   H14 2755   6.226   6.004   3.409 -3.1484 -2.0550 -0.3852
   38CHL1   C15 2756   6.433   5.978   3.445  0.5257  0.0273 -0.4349
   38CHL1  H15A 2757   6.518   5.908   3.430  3.0817  2.5911  0.9602
   38CHL1  H15B 2758   6.447   6.067   3.380 -1.1349  0.8198  0.2427
   38CHL1   C16 2759   6.411   6.010   3.592  0.3145 -1.0408 -0.6111
   38CHL1  H16A 2760   6.492   5.968   3.655  0.3830  0.6716  0.5144
   38CHL1  H16B 2761   6.414   6.120   3.612 -2.3896 -0.6110 -2.0173
   38CHL1   C17 2762   6.279   5.942   3.647  0.2542 -0.1592 -0.1090
   38CHL1   H17 2763   6.189   6.007   3.637  1.0412  0.6385 -3.2646
   38CHL1   C13 2764   6.255   5.839   3.539 -0.0627 -0.0663  0.3631
   38CHL1   C18 2765   6.351   5.714   3.568  0.8298  0.0465  0.2607
   38CHL1  H18A 2766   6.460   5.733   3.576  0.5855  3.0076 -1.8587
   38CHL1  H18B 2767   6.324   5.658   3.660  2.2299 -1.1943 -0.0473
   38CHL1  H18C 2768   6.335   5.640   3.486 -0.5989  0.7005 -0.0897
   38CHL1   C12 2769   6.107   5.795   3.508  0.0540 -1.0599 -0.0115
   38CHL1  H12A 2770   6.058   5.741   3.592  0.4576 -0.1823  0.8043
   38CHL1  H12B 2771   6.039   5.880   3.486 -0.1469 -1.0218  0.7151
   38CHL1   C11 2772   6.091   5.710   3.381  0.2192  0.1675 -0.0105
   38CHL1  H11A 2773   6.156   5.622   3.396 -1.7377 -1.0054  2.4408
   38CHL1  H11B 2774   5.985   5.676   3.374  0.5683 -0.8230 -0.5951
   38CHL1    C9 2775   6.137   5.790   3.262 -0.9174  0.0423 -1.0175
   38CHL1    H9 2776   6.087   5.889   3.263  0.6982  0.9831  3.2858
   38CHL1   C10 2777   6.116   5.719   3.126 -0.4491  0.9081  0.0393
   38CHL1   C19 2778   6.147   5.571   3.149 -0.3774 -0.6725 -0.1597
   38CHL1  H19A 2779   6.063   5.518   3.200 -1.1319  0.9480  0.3796
   38CHL1  H19B 2780   6.156   5.513   3.055  0.8146  2.0432 -1.8576
   38CHL1  H19C 2781   6.247   5.566   3.197  0.8241  0.2347 -2.4196
   38CHL1    C1 2782   5.966   5.725   3.086 -0.5775 -0.3581  0.0009
   38CHL1   H1A 2783   5.901   5.679   3.163 -0.0573 -2.7611 -0.9261
   38CHL1   H1B 2784   5.939   5.833   3.087 -3.6659 -0.9561 -1.9592
   38CHL1    C2 2785   5.930   5.680   2.947 -0.2087 -0.3579  0.2935
   38CHL1   H2A 2786   5.821   5.681   2.927 -0.6517  1.0168  2.4629
   38CHL1   H2B 2787   5.964   5.574   2.946 -1.1748 -0.7576  2.6050
   38CHL1   C20 2788   6.290   5.888   3.795 -0.4812  0.2248 -0.4322
   38CHL1   H20 2789   6.375   5.818   3.813  0.4778  2.1409  3.4482
   38CHL1   C21 2790   6.159   5.811   3.848 -0.2993  0.0385  0.4333
   38CHL1  H21A 2791   6.168   5.775   3.952  0.0630 -0.1030  0.3534
   38CHL1  H21B 2792   6.140   5.729   3.775 -1.2188  0.3758  0.2835
   38CHL1  H21C 2793   6.083   5.890   3.834  0.6339  1.2649  2.0563
   38CHL1   C22 2794   6.328   5.996   3.899 -0.2839  0.7635  0.8270
   38CHL1  H22A 2795   6.416   6.058   3.872 -1.1311  1.9937  0.8029
   38CHL1  H22B 2796   6.239   6.059   3.916 -0.3524  0.6269  0.9820
   38CHL1   C23 2797   6.371   5.933   4.033 -0.2036  0.3469 -0.0688
   38CHL1  H23A 2798   6.280   5.879   4.067  0.5984 -0.0274  1.5547
   38CHL1  H23B 2799   6.447   5.852   4.025 -0.3591 -0.0079  1.6420
   38CHL1   C24 2800   6.414   6.039   4.134 -0.3577  0.3185 -0.1146
   38CHL1  H24A 2801   6.486   6.098   4.074 -2.1527  1.7020 -0.9931
   38CHL1  H24B 2802   6.323   6.094   4.166  0.6180  1.7566  0.2972
   38CHL1   C25 2803   6.483   5.989   4.263  0.4216  0.0071  0.0610
   38CHL1   H25 2804   6.411   5.910   4.295 -0.6897  1.4245  1.1830
   38CHL1   C26 2805   6.620   5.946   4.213  0.5046  0.2295 -1.3626
   38CHL1  H26A 2806   6.681   6.038   4.197 -1.1419  1.4380 -0.9599
   38CHL1  H26B 2807   6.673   5.877   4.283  0.9652  0.5339 -1.4020
   38CHL1  H26C 2808   6.620   5.875   4.128  0.0718 -0.0673 -1.1194
   38CHL1   C27 2809   6.500   6.099   4.378  0.5982 -0.2198 -0.3601
   38CHL1  H27A 2810   6.556   6.051   4.461 -0.4527 -0.1764  0.3950
   38CHL1  H27B 2811   6.560   6.187   4.346  2.0327 -1.1594 -0.3684
   38CHL1  H27C 2812   6.398   6.122   4.415  0.0770 -1.4297 -1.0051
   39CHL1    C3 2813   1.059   6.102   2.909 -0.1676 -0.0156 -0.2845
   39CHL1    H3 2814   1.025   6.197   2.956  2.7865  1.0715 -0.1569
   39CHL1    O3 2815   1.032   6.112   2.771  0.2926 -0.1539 -0.0071
   39CHL1   H3' 2816   1.017   6.019   2.753  2.6399 -1.3841  3.2017
   39CHL1    C4 2817   1.212   6.099   2.927 -0.4559 -0.3373  0.5773
   39CHL1   H4A 2818   1.258   6.017   2.868 -1.3225  0.2131 -0.9009
   39CHL1   H4B 2819   1.257   6.183   2.870 -0.7786 -0.9892 -0.6538
   39CHL1    C5 2820   1.258   6.100   3.073  0.5957 -0.0585 -0.0244
   39CHL1    C6 2821   1.336   6.205   3.123  0.4099  0.0909  0.6921
   39CHL1    H6 2822   1.373   6.282   3.054 -1.2499 -0.1967 -0.5647
   39CHL1    C7 2823   1.382   6.207   3.265  0.4528 -0.3992  0.0059
   39CHL1   H7A 2824   1.489   6.235   3.271  0.0973  0.9711  0.3427
   39CHL1   H7B 2825   1.333   6.285   3.326  2.1836  0.5047  0.2978
   39CHL1    C8 2826   1.361   6.066   3.334  0.1666 -0.0780  0.4362
   39CHL1    H8 2827   1.437   5.997   3.293 -0.0652 -0.8242  1.2482
   39CHL1   C14 2828   1.386   6.081   3.482 -0.1608  0.3989  0.4461
   39CHL1   H14 2829   1.311   6.153   3.521 -0.1362  0.7011 -0.0577
   39CHL1   C15 2830   1.514   6.141   3.521 -0.5264 -0.6895  0.2518
   39CHL1  H15A 2831   1.595   6.096   3.459 -0.0283 -1.3561  1.3462
   39CHL1  H15B 2832   1.519   6.251   3.511 -0.4993 -0.7485 -0.4604
   39CHL1   C16 2833   1.528   6.093   3.668 -0.5522  0.3484 -0.2494
   39CHL1  H16A 2834   1.618   6.030   3.684 -0.9637  0.0683  1.1199
   39CHL1  H16B 2835   1.545   6.181   3.734 -0.3054  0.7284 -0.8106
   39CHL1   C17 2836   1.398   6.011   3.704  0.0750 -0.1519  0.6532
   39CHL1   H17 2837   1.327   6.096   3.718  0.0624  0.2170 -1.4249
   39CHL1   C13 2838   1.352   5.960   3.568  0.0224  0.1933  0.1333
   39CHL1   C18 2839   1.437   5.842   3.523 -0.1387  0.4469  0.8488
   39CHL1  H18A 2840   1.424   5.759   3.595  0.6427 -0.2043  0.2721
   39CHL1  H18B 2841   1.405   5.798   3.426 -1.7260 -0.6736  1.8446
   39CHL1  H18C 2842   1.536   5.887   3.499 -1.9956  2.7578 -3.7512
   39CHL1   C12 2843   1.200   5.929   3.558 -0.3622  0.5110  0.4740
   39CHL1  H12A 2844   1.180   5.834   3.610  0.2722  0.7389  1.1519
   39CHL1  H12B 2845   1.144   6.010   3.609 -0.6215  1.1097 -0.7185
   39CHL1   C11 2846   1.159   5.919   3.408  0.5601 -0.0740  0.0973
   39CHL1  H11A 2847   1.172   5.812   3.383  0.1816 -0.6354  2.1079
   39CHL1  H11B 2848   1.049   5.926   3.413  0.6113  0.4512  0.6766
   39CHL1    C9 2849   1.214   6.029   3.307 -0.1098 -0.1057 -0.0251
   39CHL1    H9 2850   1.156   6.119   3.335  0.0508 -1.0958  4.0804
   39CHL1   C10 2851   1.189   5.994   3.159  0.1718  0.0870 -1.2761
   39CHL1   C19 2852   1.259   5.855   3.133  0.0692  0.2373  0.4196
   39CHL1  H19A 2853   1.369   5.868   3.138 -0.0100  0.5518  1.4714
   39CHL1  H19B 2854   1.227   5.774   3.201 -0.1767  2.0524  2.5705
   39CHL1  H19C 2855   1.240   5.826   3.027  0.7738 -2.4959  0.9706
   39CHL1    C1 2856   1.034   5.984   3.128 -0.4636  0.2824  0.3550
   39CHL1   H1A 2857   0.985   5.901   3.182 -0.2517  0.4008  0.7308
   39CHL1   H1B 2858   0.993   6.085   3.151 -1.4447  0.0043 -0.1028
   39CHL1    C2 2859   1.001   5.978   2.973 -0.5721  0.0974 -0.3574
   39CHL1   H2A 2860   0.891   5.991   2.967 -0.6269  0.6456  1.3317
   39CHL1   H2B 2861   1.030   5.884   2.922 -0.2742 -0.2798  0.4832
   39CHL1   C20 2862   1.408   5.911   3.821 -0.0797 -0.5466  0.3698
   39CHL1   H20 2863   1.328   5.836   3.805 -0.0547 -0.2924 -1.1107
   39CHL1   C21 2864   1.360   5.987   3.945 -0.1953 -0.8084  0.2482
   39CHL1  H21A 2865   1.365   5.918   4.032 -1.1029 -0.3699  0.6635
   39CHL1  H21B 2866   1.253   6.012   3.927 -0.1625 -2.2448 -2.4291
   39CHL1  H21C 2867   1.420   6.075   3.975 -0.8607 -1.1232  2.7487
   39CHL1   C22 2868   1.541   5.837   3.848 -0.7345 -0.2078  0.4963
   39CHL1  H22A 2869   1.586   5.812   3.750 -1.4816 -1.2960  0.4171
   39CHL1  H22B 2870   1.612   5.911   3.891  0.4969 -1.7708  1.2993
   39CHL1   C23 2871   1.532   5.708   3.940 -0.3598 -0.0142  0.4690
   39CHL1  H23A 2872   1.460   5.739   4.019 -1.4833 -0.1420 -0.4692
   39CHL1  H23B 2873   1.483   5.635   3.871 -0.2431  0.8711 -0.5681
   39CHL1   C24 2874   1.663   5.662   3.995  0.2193  0.4558 -0.6448
   39CHL1  H24A 2875   1.723   5.641   3.904  1.5652 -0.1471  0.3571
   39CHL1  H24B 2876   1.709   5.747   4.050  2.5455 -0.0844 -1.6332
   39CHL1   C25 2877   1.657   5.543   4.091 -0.2235 -0.5497 -0.1360
   39CHL1   H25 2878   1.762   5.537   4.128  0.7533  1.4779 -2.3306
   39CHL1   C26 2879   1.565   5.565   4.218 -0.1407  0.4916 -0.2662
   39CHL1  H26A 2880   1.589   5.651   4.283 -0.0120  0.4770 -0.2929
   39CHL1  H26B 2881   1.463   5.571   4.173 -1.5720  1.4989  2.8155
   39CHL1  H26C 2882   1.550   5.479   4.287 -3.2637  2.7920  2.2503
   39CHL1   C27 2883   1.611   5.410   4.020 -0.6685  0.1462  0.5166
   39CHL1  H27A 2884   1.511   5.424   3.973 -1.0173 -1.4257  0.7311
   39CHL1  H27B 2885   1.679   5.386   3.935  0.6400  0.5896  1.4127
   39CHL1  H27C 2886   1.604   5.319   4.084 -0.5124 -1.1667 -1.2359
   40CHL1    C3 2887   6.475   3.932   2.995 -0.0951  0.2317 -0.3402
   40CHL1    H3 2888   6.556   3.973   3.059 -1.5931 -0.1659  1.8996
   40CHL1    O3 2889   6.496   3.987   2.860 -0.8334  0.3002  0.3372
   40CHL1   H3' 2890   6.474   4.080   2.863  1.2910  0.8908 -0.5451
   40CHL1    C4 2891   6.478   3.776   2.998 -0.0158  0.0659  0.0959
   40CHL1   H4A 2892   6.413   3.744   2.914  1.2475 -0.3284 -0.7459
   40CHL1   H4B 2893   6.582   3.757   2.965 -0.1152 -2.4714  1.0623
   40CHL1    C5 2894   6.458   3.707   3.132 -0.0719 -0.5576 -0.5667
   40CHL1    C6 2895   6.553   3.627   3.184 -0.3966 -0.4351 -0.1337
   40CHL1    H6 2896   6.642   3.595   3.128  0.3279 -0.5977  1.0868
   40CHL1    C7 2897   6.552   3.572   3.320 -0.2972  0.5208  0.1326
   40CHL1   H7A 2898   6.567   3.462   3.312  0.8444  0.5393  1.6923
   40CHL1   H7B 2899   6.634   3.621   3.376 -0.0172  1.2761 -0.9143
   40CHL1    C8 2900   6.423   3.603   3.403  0.6047  0.6238 -0.1081
   40CHL1    H8 2901   6.355   3.518   3.383 -1.3682  2.1183 -0.0205
   40CHL1   C14 2902   6.454   3.606   3.550 -0.3174 -0.1486 -0.7248
   40CHL1   H14 2903   6.521   3.692   3.569  1.0332 -1.3493  0.1841
   40CHL1   C15 2904   6.526   3.482   3.613  0.6868  0.4174  0.5089
   40CHL1  H15A 2905   6.479   3.387   3.583 -0.8707  1.6873 -1.3207
   40CHL1  H15B 2906   6.636   3.490   3.600  0.5812  1.4477  0.1311
   40CHL1   C16 2907   6.480   3.484   3.764 -0.3726  0.4198  0.2008
   40CHL1  H16A 2908   6.434   3.388   3.793  0.9606 -0.5247 -0.6921
   40CHL1  H16B 2909   6.570   3.490   3.829 -0.1639  1.1027 -0.1336
   40CHL1   C17 2910   6.381   3.604   3.778  0.3679  0.1987 -0.1312
   40CHL1   H17 2911   6.444   3.694   3.795  1.1022 -0.2827 -0.2849
   40CHL1   C13 2912   6.332   3.629   3.637  0.5599 -0.1925 -0.4243
   40CHL1   C18 2913   6.226   3.521   3.603  0.1239 -0.0018  0.1809
   40CHL1  H18A 2914   6.146   3.529   3.679 -0.1713  1.8304 -0.2800
   40CHL1  H18B 2915   6.192   3.513   3.497 -1.1558 -2.9275  0.7189
   40CHL1  H18C 2916   6.260   3.418   3.624 -2.4605 -1.0080 -0.1409
   40CHL1   C12 2917   6.271   3.765   3.606  0.3722 -0.2135  0.9480
   40CHL1  H12A 2918   6.179   3.796   3.661 -0.3369  0.7358 -0.7058
   40CHL1  H12B 2919   6.352   3.841   3.615 -1.1711  1.7291 -0.6864
   40CHL1   C11 2920   6.245   3.782   3.451 -0.3947 -0.0945 -0.5093
   40CHL1  H11A 2921   6.143   3.743   3.429 -0.7285  1.2028 -1.4005
   40CHL1  H11B 2922   6.243   3.893   3.445  1.7959 -0.0977 -4.0443
   40CHL1    C9 2923   6.363   3.740   3.362  0.4594 -0.9667 -0.6477
   40CHL1    H9 2924   6.447   3.802   3.399  0.4544 -1.3496  0.0262
   40CHL1   C10 2925   6.339   3.765   3.208  0.2024  0.4624 -0.0683
   40CHL1   C19 2926   6.206   3.691   3.162 -0.5720 -0.9493  0.6269
   40CHL1  H19A 2927   6.127   3.763   3.193 -1.5830 -1.4828 -0.6535
   40CHL1  H19B 2928   6.194   3.684   3.052 -0.7406 -1.1414  0.6586
   40CHL1  H19C 2929   6.195   3.590   3.207 -0.5540 -1.3427 -0.2240
   40CHL1    C1 2930   6.339   3.922   3.190 -0.0666 -0.0983 -0.2915
   40CHL1   H1A 2931   6.258   3.965   3.253  1.3945  2.6844 -0.1479
   40CHL1   H1B 2932   6.430   3.952   3.246 -2.0808  2.6263  1.8357
   40CHL1    C2 2933   6.343   3.982   3.047  0.3770  0.0283  0.4710
   40CHL1   H2A 2934   6.327   4.091   3.055  0.4838 -0.0589  2.1185
   40CHL1   H2B 2935   6.266   3.932   2.983  1.4763 -1.3930  0.1827
   40CHL1   C20 2936   6.278   3.605   3.891 -0.2913  0.2018  0.5497
   40CHL1   H20 2937   6.184   3.658   3.864 -1.4228 -1.5122  0.9324
   40CHL1   C21 2938   6.331   3.670   4.021  0.2836  0.2445 -0.0151
   40CHL1  H21A 2939   6.326   3.781   4.028 -1.6275  0.2208 -0.3209
   40CHL1  H21B 2940   6.439   3.648   4.031  0.2070  0.6831  2.7880
   40CHL1  H21C 2941   6.283   3.639   4.117  0.1896  1.0116  0.1940
   40CHL1   C22 2942   6.240   3.459   3.926  0.1520 -0.7741  0.6420
   40CHL1  H22A 2943   6.223   3.393   3.839  0.9159 -0.1510  0.0098
   40CHL1  H22B 2944   6.326   3.414   3.979  2.8150  0.7110 -2.1191
   40CHL1   C23 2945   6.115   3.451   4.012 -0.1806 -0.1438 -0.4867
   40CHL1  H23A 2946   6.151   3.452   4.117 -3.2995 -0.6035  0.7270
   40CHL1  H23B 2947   6.034   3.527   4.000  0.2553  0.4280  0.1199
   40CHL1   C24 2948   6.030   3.332   3.988  0.0184  0.4626  0.0292
   40CHL1  H24A 2949   5.976   3.328   3.891 -0.1527 -0.9210  0.1532
   40CHL1  H24B 2950   6.096   3.242   3.990  0.1272  0.4979 -1.1986
   40CHL1   C25 2951   5.923   3.318   4.096 -0.6294  0.1458 -0.6727
   40CHL1   H25 2952   5.966   3.322   4.198  1.7157 -1.3669 -1.5305
   40CHL1   C26 2953   5.818   3.431   4.075  0.1109  0.1899 -0.8185
   40CHL1  H26A 2954   5.783   3.431   3.970 -0.3697  0.8562 -0.6624
   40CHL1  H26B 2955   5.736   3.417   4.149  2.2801  0.1541  1.7399
   40CHL1  H26C 2956   5.858   3.534   4.089  0.3619  0.3422 -2.4410
   40CHL1   C27 2957   5.865   3.177   4.102 -0.0324 -0.2182  0.0295
   40CHL1  H27A 2958   5.858   3.147   3.995  1.1431 -3.4767  0.7623
   40CHL1  H27B 2959   5.944   3.108   4.138  0.8587 -0.6947 -2.5699
   40CHL1  H27C 2960   5.767   3.165   4.154 -0.3755 -0.6643 -0.7091
   41CHL1    C3 2961   2.239   1.004   3.009 -0.1522 -0.5702 -0.1448
   41CHL1    H3 2962   2.128   1.015   3.012 -0.1453 -0.5397  0.0029
   41CHL1    O3 2963   2.268   0.958   2.872  0.0013  0.0330  0.1873
   41CHL1   H3' 2964   2.268   1.030   2.808 -0.8226  0.9523  1.1751
   41CHL1    C4 2965   2.299   1.147   3.032  0.9213 -0.3868 -0.1960
   41CHL1   H4A 2966   2.404   1.144   2.997  0.8544 -0.5610 -0.3811
   41CHL1   H4B 2967   2.236   1.221   2.978 -0.6071 -0.6247  1.1760
   41CHL1    C5 2968   2.305   1.195   3.180 -0.2286  0.5881  0.2410
   41CHL1    C6 2969   2.256   1.310   3.223 -0.2551 -0.3925  0.0200
   41CHL1    H6 2970   2.212   1.385   3.155  0.2409  1.7824  1.9773
   41CHL1    C7 2971   2.246   1.356   3.373 -0.5236 -0.2598 -0.5181
   41CHL1   H7A 2972   2.258   1.467   3.372  0.7133 -0.3765 -0.5411
   41CHL1   H7B 2973   2.148   1.327   3.415 -0.4540 -0.0176 -0.1880
   41CHL1    C8 2974   2.343   1.275   3.464 -0.0601 -0.6141 -0.7666
   41CHL1    H8 2975   2.449   1.301   3.445 -0.2788  1.1211  0.1880
   41CHL1   C14 2976   2.311   1.311   3.610 -0.6867 -0.0482 -0.5944
   41CHL1   H14 2977   2.215   1.257   3.625 -0.3293 -1.0210 -1.6600
   41CHL1   C15 2978   2.281   1.453   3.653  0.2902 -0.0429  0.2385
   41CHL1  H15A 2979   2.331   1.538   3.602 -1.7891  0.8303 -0.4485
   41CHL1  H15B 2980   2.176   1.484   3.639  1.0688  2.3871 -0.8623
   41CHL1   C16 2981   2.313   1.454   3.796 -0.3684  0.2069 -0.2060
   41CHL1  H16A 2982   2.395   1.528   3.804  0.7569 -1.1810  1.8377
   41CHL1  H16B 2983   2.232   1.492   3.862  0.6077  0.9301  0.6068
   41CHL1   C17 2984   2.358   1.314   3.848 -0.0487 -0.1720  0.2722
   41CHL1   H17 2985   2.264   1.261   3.873 -0.7477  1.2172  0.6906
   41CHL1   C13 2986   2.412   1.247   3.712 -0.3149  0.5627 -0.1421
   41CHL1   C18 2987   2.556   1.300   3.687 -0.0525  0.2898 -0.0938
   41CHL1  H18A 2988   2.551   1.411   3.688  1.9083  0.4132  0.2131
   41CHL1  H18B 2989   2.621   1.247   3.759 -0.4767 -1.5503 -1.0070
   41CHL1  H18C 2990   2.597   1.275   3.587 -0.0949  1.1627 -0.3451
   41CHL1   C12 2991   2.396   1.094   3.691 -0.3005  0.2824 -0.1366
   41CHL1  H12A 2992   2.473   1.045   3.754 -0.7538 -1.7466 -1.0654
   41CHL1  H12B 2993   2.298   1.060   3.731  0.3801 -0.3330  1.0628
   41CHL1   C11 2994   2.417   1.049   3.542  0.1607 -0.7333 -0.9167
   41CHL1  H11A 2995   2.526   1.060   3.526  0.3699  1.8008  1.4514
   41CHL1  H11B 2996   2.399   0.940   3.547 -3.4854 -0.2296  2.4847
   41CHL1    C9 2997   2.333   1.126   3.436 -0.0276  0.2365 -0.3468
   41CHL1    H9 2998   2.230   1.097   3.467 -0.0782 -1.8468 -2.2487
   41CHL1   C10 2999   2.352   1.092   3.288  0.2992  1.4685  1.0316
   41CHL1   C19 3000   2.506   1.085   3.269  0.4268  0.3882  0.6342
   41CHL1  H19A 3001   2.556   1.008   3.332 -0.3742 -0.7125 -0.0369
   41CHL1  H19B 3002   2.531   1.081   3.161 -0.6927  3.4661  0.1678
   41CHL1  H19C 3003   2.544   1.178   3.317 -0.9569  1.9341 -1.1223
   41CHL1    C1 3004   2.281   0.953   3.257 -0.3473  0.0615  0.1980
   41CHL1   H1A 3005   2.338   0.875   3.311  1.7323  1.4300  0.1423
   41CHL1   H1B 3006   2.173   0.958   3.279 -0.3940  0.0971 -0.0313
   41CHL1    C2 3007   2.294   0.907   3.112 -0.5558 -0.3552  0.2785
   41CHL1   H2A 3008   2.260   0.802   3.099  0.7264 -0.6782 -0.6689
   41CHL1   H2B 3009   2.403   0.907   3.091 -0.4298 -0.5328  0.9057
   41CHL1   C20 3010   2.454   1.314   3.975  0.0850 -0.1479  0.1011
   41CHL1   H20 3011   2.549   1.350   3.930  0.8139 -1.9065  0.1603
   41CHL1   C21 3012   2.474   1.172   4.029  0.6150 -0.3500 -0.2505
   41CHL1  H21A 3013   2.412   1.137   4.115  2.0434 -0.3250  0.8100
   41CHL1  H21B 3014   2.574   1.157   4.073 -0.8867 -3.0673  2.6663
   41CHL1  H21C 3015   2.460   1.089   3.955  2.5454  0.4291 -1.5537
   41CHL1   C22 3016   2.407   1.417   4.089 -0.5963  0.6841 -0.0542
   41CHL1  H22A 3017   2.394   1.514   4.037 -0.6587  0.5792 -0.2378
   41CHL1  H22B 3018   2.313   1.377   4.132  0.3556 -0.2033  1.2987
   41CHL1   C23 3019   2.497   1.421   4.211 -0.4772  0.9902  1.4107
   41CHL1  H23A 3020   2.485   1.318   4.249  1.5358  1.2564  2.8874
   41CHL1  H23B 3021   2.602   1.444   4.183 -1.1379  1.6518 -0.7249
   41CHL1   C24 3022   2.432   1.511   4.315 -0.4191  0.3278  0.2654
   41CHL1  H24A 3023   2.322   1.493   4.321 -0.1053 -2.6590 -1.2973
   41CHL1  H24B 3024   2.463   1.479   4.416  0.8202 -1.6286 -0.6855
   41CHL1   C25 3025   2.450   1.669   4.297  0.3940  0.4166 -0.1490
   41CHL1   H25 3026   2.440   1.686   4.188  0.7804 -1.0845 -0.4456
   41CHL1   C26 3027   2.339   1.740   4.384 -0.4733 -0.1152  0.5552
   41CHL1  H26A 3028   2.359   1.707   4.488  1.1872  0.4686  0.4429
   41CHL1  H26B 3029   2.365   1.847   4.380  0.3288 -0.3051  0.6077
   41CHL1  H26C 3030   2.236   1.711   4.354 -0.6668 -0.5381  1.5745
   41CHL1   C27 3031   2.588   1.710   4.356  0.3280  0.0987  1.0492
   41CHL1  H27A 3032   2.614   1.806   4.308 -0.7676 -0.2632 -0.3082
   41CHL1  H27B 3033   2.579   1.719   4.467 -2.0445 -0.4125  0.9598
   41CHL1  H27C 3034   2.665   1.636   4.326  1.0052  1.1890  0.0303
   42CHL1    C3 3035   4.210   6.170   1.801  0.1534 -0.0007 -0.6401
   42CHL1    H3 3036   4.164   6.072   1.777  1.6377 -0.4091 -2.0049
   42CHL1    O3 3037   4.279   6.224   1.686  0.3224  0.3156  0.3310
   42CHL1   H3' 3038   4.215   6.209   1.616 -1.5412 -1.6422  2.2583
   42CHL1    C4 3039   4.103   6.275   1.831 -0.5723  0.0117 -0.2401
   42CHL1   H4A 3040   4.160   6.369   1.846  2.0623 -0.6234 -4.5600
   42CHL1   H4B 3041   4.022   6.294   1.758 -0.3502 -0.3642 -0.5897
   42CHL1    C5 3042   4.041   6.237   1.959  0.2193 -0.2434  0.3082
   42CHL1    C6 3043   3.908   6.223   1.973  0.4969  0.4136  0.5971
   42CHL1    H6 3044   3.841   6.250   1.889  0.0680 -0.1663  0.7484
   42CHL1    C7 3045   3.841   6.192   2.104 -0.4453  0.2108  0.1169
   42CHL1   H7A 3046   3.747   6.250   2.117  0.0372  0.9217  0.4812
   42CHL1   H7B 3047   3.809   6.086   2.108  3.1403 -1.0005  0.4486
   42CHL1    C8 3048   3.923   6.223   2.227  0.1918 -0.3158  0.4510
   42CHL1    H8 3049   3.947   6.329   2.246  0.0080 -0.1125 -0.4292
   42CHL1   C14 3050   3.850   6.170   2.355 -0.4904  0.1261  0.0577
   42CHL1   H14 3051   3.855   6.060   2.337  0.7773  0.0472  0.7463
   42CHL1   C15 3052   3.709   6.223   2.390  0.3286  0.0586  0.2509
   42CHL1  H15A 3053   3.716   6.334   2.395  0.5000  0.0159  1.0640
   42CHL1  H15B 3054   3.623   6.197   2.325  0.6143  0.7200 -0.4121
   42CHL1   C16 3055   3.693   6.179   2.539 -0.2512 -0.1833  0.7935
   42CHL1  H16A 3056   3.640   6.253   2.603 -2.0401 -0.1822 -0.5987
   42CHL1  H16B 3057   3.616   6.099   2.538 -0.5614  0.0885 -1.3330
   42CHL1   C17 3058   3.831   6.134   2.596  0.6977  1.0789 -0.6407
   42CHL1   H17 3059   3.820   6.023   2.590 -0.5924  1.2482 -1.8479
   42CHL1   C13 3060   3.931   6.185   2.488 -0.6427  0.3456  0.2724
   42CHL1   C18 3061   3.948   6.336   2.519 -0.3705  0.2719 -0.1405
   42CHL1  H18A 3062   4.032   6.355   2.589  0.9680  0.0868 -1.6199
   42CHL1  H18B 3063   3.981   6.396   2.432 -0.5247  0.6279  0.0490
   42CHL1  H18C 3064   3.853   6.378   2.557 -0.0957 -0.0502  0.9496
   42CHL1   C12 3065   4.064   6.110   2.471  0.1761 -0.1144 -0.2972
   42CHL1  H12A 3066   4.125   6.115   2.564  0.6121 -2.5919 -0.3960
   42CHL1  H12B 3067   4.036   6.003   2.465  2.3246 -0.6717 -1.3937
   42CHL1   C11 3068   4.139   6.157   2.349  0.1910  0.3559  0.5005
   42CHL1  H11A 3069   4.173   6.260   2.369 -0.4317  0.5948  0.3644
   42CHL1  H11B 3070   4.227   6.091   2.335  0.0785 -0.0664  1.6509
   42CHL1    C9 3071   4.057   6.157   2.211 -0.5274  0.2438 -0.4438
   42CHL1    H9 3072   4.029   6.051   2.191 -1.9070  0.9596 -2.5980
   42CHL1   C10 3073   4.129   6.216   2.079 -0.8771 -0.3712 -0.0247
   42CHL1   C19 3074   4.198   6.354   2.116  0.3452 -0.1439 -0.0351
   42CHL1  H19A 3075   4.254   6.329   2.209 -2.1491 -0.1338  1.5551
   42CHL1  H19B 3076   4.261   6.396   2.034 -1.6535 -0.3828 -1.7645
   42CHL1  H19C 3077   4.125   6.434   2.140 -0.1620  0.4782 -3.2006
   42CHL1    C1 3078   4.245   6.113   2.051 -0.0636  0.0084  0.4243
   42CHL1   H1A 3079   4.319   6.112   2.134 -0.4055  1.4951  0.7695
   42CHL1   H1B 3080   4.197   6.013   2.057 -1.7896  0.8589  1.6456
   42CHL1    C2 3081   4.310   6.139   1.914 -0.1450  0.2120 -0.4153
   42CHL1   H2A 3082   4.369   6.053   1.877  0.2047  0.4435 -0.4009
   42CHL1   H2B 3083   4.372   6.231   1.921 -1.9400  1.9028 -3.8848
   42CHL1   C20 3084   3.832   6.170   2.743 -0.6859 -0.7375  0.1979
   42CHL1   H20 3085   3.804   6.277   2.751 -0.6877 -0.5912 -1.4557
   42CHL1   C21 3086   3.970   6.154   2.812  0.2149  0.2369 -0.0853
   42CHL1  H21A 3087   3.981   6.185   2.918  1.5501  1.1045 -0.4381
   42CHL1  H21B 3088   4.047   6.211   2.755  2.2320  0.0302  2.2459
   42CHL1  H21C 3089   4.001   6.047   2.810 -0.2540  0.0681  0.9574
   42CHL1   C22 3090   3.717   6.101   2.832  0.1285  0.3047  0.3058
   42CHL1  H22A 3091   3.719   6.162   2.924  2.7289  1.7704 -0.6173
   42CHL1  H22B 3092   3.622   6.113   2.775  0.3590 -1.9332 -0.6704
   42CHL1   C23 3093   3.726   5.952   2.858 -0.6767  0.5851 -0.3062
   42CHL1  H23A 3094   3.760   5.898   2.768 -0.9531 -1.2991  0.6774
   42CHL1  H23B 3095   3.803   5.926   2.933 -0.4856  1.7117 -0.0864
   42CHL1   C24 3096   3.591   5.889   2.889 -1.2571  0.3842  0.5483
   42CHL1  H24A 3097   3.517   5.915   2.811 -0.3929  1.9376  0.2008
   42CHL1  H24B 3098   3.613   5.780   2.878 -2.6122  0.2551 -1.3326
   42CHL1   C25 3099   3.517   5.939   3.020 -0.5026  0.0682 -0.2039
   42CHL1   H25 3100   3.514   6.050   3.017 -2.7457  0.1038  1.0216
   42CHL1   C26 3101   3.368   5.890   3.030 -0.4985 -0.3119  0.2876
   42CHL1  H26A 3102   3.372   5.781   3.053  1.4595 -0.3622 -0.0632
   42CHL1  H26B 3103   3.312   5.963   3.092 -0.6446  0.4140 -0.6677
   42CHL1  H26C 3104   3.314   5.903   2.933  0.6880  2.5266 -0.0982
   42CHL1   C27 3105   3.598   5.889   3.144  0.1383 -0.8536  0.7308
   42CHL1  H27A 3106   3.589   5.778   3.145 -1.1642 -0.8490 -1.6971
   42CHL1  H27B 3107   3.704   5.921   3.137  0.2145 -1.3502 -0.9401
   42CHL1  H27C 3108   3.545   5.930   3.232  0.1730  0.7352  0.0389
   43CHL1    C3 3109   5.475   5.948   2.827  0.4607 -0.2413 -0.4062
   43CHL1    H3 3110   5.438   5.845   2.807  1.5792 -0.4509 -1.4966
   43CHL1    O3 3111   5.472   6.012   2.698  0.5010 -0.6715 -0.4319
   43CHL1   H3' 3112   5.510   5.950   2.636  1.8023 -1.9343  1.5445
   43CHL1    C4 3113   5.377   6.017   2.926  0.2928 -0.2040 -0.0293
   43CHL1   H4A 3114   5.402   6.125   2.936  0.0021 -0.0914 -0.4925
   43CHL1   H4B 3115   5.274   6.011   2.885 -0.9842  2.0063  2.5756
   43CHL1    C5 3116   5.374   5.955   3.060  0.2766 -0.2173 -0.2552
   43CHL1    C6 3117   5.264   5.919   3.130 -0.1790 -0.9325  0.3941
   43CHL1    H6 3118   5.164   5.917   3.083 -0.0449  0.8835 -0.0563
   43CHL1    C7 3119   5.264   5.876   3.275 -0.3347  0.5589  0.4241
   43CHL1   H7A 3120   5.179   5.915   3.334 -1.0399 -1.5631  0.8967
   43CHL1   H7B 3121   5.239   5.768   3.270 -1.7861  0.9287 -1.5698
   43CHL1    C8 3122   5.400   5.891   3.345  0.0515 -0.2307 -0.3623
   43CHL1    H8 3123   5.403   6.000   3.369  2.7508  0.0703 -1.6502
   43CHL1   C14 3124   5.402   5.822   3.482  0.9358 -0.4361 -0.6817
   43CHL1   H14 3125   5.395   5.712   3.468 -2.7334 -0.4114 -0.0265
   43CHL1   C15 3126   5.284   5.833   3.580 -0.0418  0.0895  0.3374
   43CHL1  H15A 3127   5.247   5.938   3.588 -2.6073 -0.5639 -1.6018
   43CHL1  H15B 3128   5.191   5.776   3.559  0.0729 -0.5821  1.5427
   43CHL1   C16 3129   5.337   5.798   3.720  0.2114 -0.1043  0.1049
   43CHL1  H16A 3130   5.307   5.877   3.793 -2.5785 -1.0583  0.0852
   43CHL1  H16B 3131   5.297   5.704   3.763  2.2590 -1.7391 -1.4211
   43CHL1   C17 3132   5.487   5.777   3.703  0.7148  0.0020 -0.6486
   43CHL1   H17 3133   5.506   5.668   3.691  0.1282 -0.0708 -0.9649
   43CHL1   C13 3134   5.528   5.849   3.565 -0.8759  0.3415 -0.5887
   43CHL1   C18 3135   5.552   5.995   3.591  0.0653 -0.1598 -0.0345
   43CHL1  H18A 3136   5.464   6.037   3.644 -0.1743 -0.9008  0.1729
   43CHL1  H18B 3137   5.642   6.000   3.656  0.1293 -2.8487  0.2277
   43CHL1  H18C 3138   5.580   6.054   3.502 -0.2897  3.3563  1.9959
   43CHL1   C12 3139   5.638   5.785   3.482  0.2653 -0.2093 -0.3175
   43CHL1  H12A 3140   5.735   5.786   3.535 -0.2419 -1.6884  0.6951
   43CHL1  H12B 3141   5.616   5.676   3.479 -1.8293  0.1487  0.3999
   43CHL1   C11 3142   5.652   5.839   3.341 -0.9723 -0.6090  0.2681
   43CHL1  H11A 3143   5.700   5.939   3.351 -1.2102 -0.3786 -0.7946
   43CHL1  H11B 3144   5.723   5.761   3.306 -2.4675 -2.7913  1.7974
   43CHL1    C9 3145   5.519   5.855   3.259  0.0555 -0.2379  0.0799
   43CHL1    H9 3146   5.498   5.750   3.231  2.1392 -0.4567 -0.8357
   43CHL1   C10 3147   5.519   5.943   3.122  0.6931  1.2929 -0.7677
   43CHL1   C19 3148   5.582   6.081   3.161  0.3275  0.3823  0.3133
   43CHL1  H19A 3149   5.531   6.119   3.252 -0.3839 -0.2401  0.1816
   43CHL1  H19B 3150   5.690   6.069   3.186  0.7862 -0.8576 -2.0101
   43CHL1  H19C 3151   5.582   6.158   3.081 -0.4581  0.2435  0.1729
   43CHL1    C1 3152   5.616   5.870   3.027 -0.4779  0.6500 -0.6956
   43CHL1   H1A 3153   5.718   5.861   3.071 -0.7289  0.9542 -0.0377
   43CHL1   H1B 3154   5.576   5.767   3.023  1.8460 -0.5983  2.8586
   43CHL1    C2 3155   5.612   5.935   2.882 -0.7537 -1.0902 -0.2827
   43CHL1   H2A 3156   5.680   5.871   2.823 -1.6968 -2.5942  0.1991
   43CHL1   H2B 3157   5.663   6.034   2.880  1.3207 -2.0986 -3.3230
   43CHL1   C20 3158   5.563   5.823   3.834  0.1955 -0.2924  0.2757
   43CHL1   H20 3159   5.525   5.928   3.835  0.0430 -0.2808 -1.8166
   43CHL1   C21 3160   5.718   5.808   3.814 -0.1314  0.6584 -0.4387
   43CHL1  H21A 3161   5.747   5.703   3.794  0.5779  1.4498 -4.4556
   43CHL1  H21B 3162   5.779   5.843   3.900  2.4410 -1.3966 -1.3256
   43CHL1  H21C 3163   5.757   5.864   3.725  1.6822 -0.0172 -0.1029
   43CHL1   C22 3164   5.512   5.759   3.968  0.3200 -0.0202  0.0578
   43CHL1  H22A 3165   5.567   5.814   4.048 -0.5676  1.8873 -0.5817
   43CHL1  H22B 3166   5.406   5.785   3.989 -0.4195 -0.5966 -2.6033
   43CHL1   C23 3167   5.548   5.608   3.988 -0.5443 -0.1224  0.4322
   43CHL1  H23A 3168   5.459   5.554   4.028  1.1311 -1.3395  2.7686
   43CHL1  H23B 3169   5.572   5.567   3.888  0.3089 -1.8822  1.3226
   43CHL1   C24 3170   5.652   5.585   4.094 -0.2396 -0.8768  0.2204
   43CHL1  H24A 3171   5.752   5.619   4.061  0.4834 -1.7565  1.4212
   43CHL1  H24B 3172   5.632   5.642   4.187  0.4798  0.6789 -0.5337
   43CHL1   C25 3173   5.676   5.433   4.123 -0.6260 -0.4175  0.0932
   43CHL1   H25 3174   5.675   5.379   4.026  0.3706 -2.3816  1.1221
   43CHL1   C26 3175   5.813   5.411   4.188  0.6468 -0.2175 -0.8293
   43CHL1  H26A 3176   5.832   5.302   4.200 -1.3581 -0.4405  0.9969
   43CHL1  H26B 3177   5.884   5.466   4.123  1.1670 -2.3507 -2.1732
   43CHL1  H26C 3178   5.811   5.455   4.290  2.4872  0.7732 -1.1930
   43CHL1   C27 3179   5.570   5.365   4.205  0.1995  0.2230  0.3624
   43CHL1  H27A 3180   5.604   5.263   4.235 -1.1594 -0.1355  0.7679
   43CHL1  H27B 3181   5.530   5.426   4.289  0.3777 -0.4252  0.9266
   43CHL1  H27C 3182   5.480   5.340   4.145  1.4543 -1.2146 -1.0176
   44CHL1    C3 3183   4.755   5.721   2.536 -0.4314  0.1590  0.0071
   44CHL1    H3 3184   4.720   5.821   2.501  3.0627  1.4377 -0.2468
   44CHL1    O3 3185   4.771   5.635   2.420  0.6936 -0.1471  0.2034
   44CHL1   H3' 3186   4.853   5.590   2.440  0.0320 -0.9716  1.1990
   44CHL1    C4 3187   4.889   5.747   2.623 -0.4109  1.0793 -0.1945
   44CHL1   H4A 3188   4.940   5.649   2.639 -1.6890  0.3110 -0.6954
   44CHL1   H4B 3189   4.956   5.802   2.553 -0.7020  1.5509 -0.1053
   44CHL1    C5 3190   4.864   5.834   2.745 -0.0321  0.1770  0.0178
   44CHL1    C6 3191   4.928   5.952   2.760  0.4923  0.3375  0.1744
   44CHL1    H6 3192   5.002   5.995   2.691 -1.1817  0.0258 -1.9404
   44CHL1    C7 3193   4.907   6.029   2.885  0.2723  0.1515 -0.8164
   44CHL1   H7A 3194   4.997   6.085   2.917 -0.9833  0.3741  2.7551
   44CHL1   H7B 3195   4.821   6.099   2.879  0.8315  0.9027 -0.2994
   44CHL1    C8 3196   4.860   5.929   3.003 -0.8681  0.2189  0.4927
   44CHL1    H8 3197   4.940   5.854   3.023 -1.5702 -0.8128 -0.4579
   44CHL1   C14 3198   4.825   6.010   3.130 -0.0940  0.4742 -0.1796
   44CHL1   H14 3199   4.746   6.085   3.105 -1.1818  0.1702  2.1007
   44CHL1   C15 3200   4.940   6.094   3.197  0.3515 -1.0284  0.6076
   44CHL1  H15A 3201   5.035   6.037   3.194  0.3507 -1.0119 -0.8794
   44CHL1  H15B 3202   4.963   6.192   3.151  0.7290 -0.5065  1.8903
   44CHL1   C16 3203   4.889   6.120   3.340 -0.2032 -0.2951 -0.3512
   44CHL1  H16A 3204   4.969   6.082   3.407  0.1630 -0.4784 -0.8819
   44CHL1  H16B 3205   4.882   6.227   3.367  0.8055 -0.0464 -1.0238
   44CHL1   C17 3206   4.760   6.039   3.360  0.3125  0.0071 -0.6961
   44CHL1   H17 3207   4.676   6.106   3.332 -1.7886 -1.9682  0.5283
   44CHL1   C13 3208   4.768   5.933   3.248 -0.3241  0.4906  0.2583
   44CHL1   C18 3209   4.872   5.823   3.292 -0.1816 -0.1590  0.1193
   44CHL1  H18A 3210   4.903   5.767   3.202 -0.0364  0.7730 -0.4296
   44CHL1  H18B 3211   4.965   5.865   3.334 -0.2218  1.9534 -1.6891
   44CHL1  H18C 3212   4.822   5.753   3.362 -0.0059  0.1251  0.5340
   44CHL1   C12 3213   4.638   5.869   3.207 -0.7327  0.9617 -1.1321
   44CHL1  H12A 3214   4.601   5.809   3.293 -0.8511  0.0418 -1.8101
   44CHL1  H12B 3215   4.569   5.955   3.188 -1.7320 -0.2889 -3.6661
   44CHL1   C11 3216   4.658   5.786   3.074 -0.0775 -0.3390  1.2125
   44CHL1  H11A 3217   4.712   5.697   3.112  1.1623  0.9615  2.6206
   44CHL1  H11B 3218   4.558   5.759   3.034 -0.6636 -2.2968  3.7760
   44CHL1    C9 3219   4.741   5.854   2.958 -0.2107  0.1452 -0.9279
   44CHL1    H9 3220   4.674   5.929   2.912  0.6334  1.5566  0.0744
   44CHL1   C10 3221   4.767   5.759   2.841  0.6559 -0.2431 -0.4828
   44CHL1   C19 3222   4.837   5.629   2.886 -0.1536  0.2939 -0.5018
   44CHL1  H19A 3223   4.932   5.655   2.938  0.9404 -0.2558 -2.1547
   44CHL1  H19B 3224   4.766   5.585   2.959  0.1062  0.5795 -0.0708
   44CHL1  H19C 3225   4.849   5.556   2.803 -3.7204  0.2728 -1.1217
   44CHL1    C1 3226   4.637   5.719   2.769 -0.3733  0.4205 -0.0548
   44CHL1   H1A 3227   4.583   5.644   2.830 -1.1065 -0.2869 -1.5290
   44CHL1   H1B 3228   4.582   5.815   2.768  0.5886  1.0427  1.5528
   44CHL1    C2 3229   4.656   5.660   2.632 -0.0096 -0.1900  0.4469
   44CHL1   H2A 3230   4.555   5.650   2.587 -0.3083 -0.1612  1.1059
   44CHL1   H2B 3231   4.692   5.557   2.654 -0.2494 -0.8406 -1.8698
   44CHL1   C20 3232   4.738   5.979   3.498  0.0769 -0.0236 -0.4119
   44CHL1   H20 3233   4.683   5.882   3.493 -1.3936  0.8231 -1.4739
   44CHL1   C21 3234   4.636   6.076   3.561  0.2199  0.0659 -0.6059
   44CHL1  H21A 3235   4.667   6.182   3.561 -0.8437  0.3971  0.4207
   44CHL1  H21B 3236   4.627   6.041   3.666  2.5162  0.8321 -0.1002
   44CHL1  H21C 3237   4.533   6.074   3.519  0.4314 -0.3234 -1.1284
   44CHL1   C22 3238   4.861   5.954   3.583  0.5945 -0.5063 -0.2514
   44CHL1  H22A 3239   4.943   5.898   3.533 -0.1414 -1.0636 -0.8569
   44CHL1  H22B 3240   4.904   6.049   3.621  0.1553 -0.6636  0.6574
   44CHL1   C23 3241   4.842   5.860   3.699  0.5103  0.5159 -0.1345
   44CHL1  H23A 3242   4.750   5.892   3.753  0.0281 -0.0773 -0.5846
   44CHL1  H23B 3243   4.817   5.758   3.663  0.7180  0.8783 -1.3418
   44CHL1   C24 3244   4.967   5.844   3.797 -0.0725 -0.1615  1.1785
   44CHL1  H24A 3245   5.031   5.774   3.738 -1.7201  0.7688 -1.8880
   44CHL1  H24B 3246   5.010   5.945   3.810  1.1298 -0.2938 -1.0930
   44CHL1   C25 3247   4.948   5.775   3.933  0.9690 -0.4393 -0.2517
   44CHL1   H25 3248   4.878   5.838   3.992  2.8559  1.5765 -0.0480
   44CHL1   C26 3249   4.879   5.635   3.918  0.4639  0.0721 -0.1584
   44CHL1  H26A 3250   4.793   5.648   3.848  0.8811  0.1767 -0.6633
   44CHL1  H26B 3251   4.954   5.567   3.871  1.0265  0.0437  0.7508
   44CHL1  H26C 3252   4.832   5.603   4.013  0.0561 -0.0874 -0.4141
   44CHL1   C27 3253   5.073   5.778   4.020 -0.2741 -0.1344  0.0670
   44CHL1  H27A 3254   5.054   5.752   4.126 -1.5050  0.0535 -0.0965
   44CHL1  H27B 3255   5.143   5.710   3.966  0.8499  2.1780 -1.5459
   44CHL1  H27C 3256   5.118   5.879   4.019  1.3628 -0.8309 -0.1237
   45CHL1    C3 3257   5.264   0.848   2.868 -0.6616  0.1050  0.1052
   45CHL1    H3 3258   5.310   0.747   2.873  0.0411  0.3276 -1.3943
   45CHL1    O3 3259   5.250   0.879   2.735  0.0504 -0.2051 -0.1626
   45CHL1   H3' 3260   5.306   0.956   2.729  1.9184 -1.4761  0.2095
   45CHL1    C4 3261   5.130   0.834   2.943 -0.0182 -0.1788  0.7435
   45CHL1   H4A 3262   5.077   0.931   2.934  1.6544  0.6647 -0.5938
   45CHL1   H4B 3263   5.066   0.757   2.897  1.4268 -0.9980  0.0275
   45CHL1    C5 3264   5.140   0.812   3.095  0.0312  0.4551 -0.3147
   45CHL1    C6 3265   5.053   0.727   3.160 -0.2010 -0.7413 -0.2771
   45CHL1    H6 3266   4.973   0.675   3.106 -0.3011 -1.2179  0.3145
   45CHL1    C7 3267   5.071   0.711   3.312  0.1242  0.1384 -0.3438
   45CHL1   H7A 3268   4.971   0.711   3.361 -0.7068 -2.9893 -1.7953
   45CHL1   H7B 3269   5.106   0.607   3.330  0.0235 -0.4455 -3.1436
   45CHL1    C8 3270   5.152   0.823   3.387 -0.2586 -0.2419 -0.5084
   45CHL1    H8 3271   5.088   0.913   3.391  0.6950  0.4024  0.8706
   45CHL1   C14 3272   5.188   0.781   3.530 -0.1464  0.0262 -0.1511
   45CHL1   H14 3273   5.245   0.687   3.515 -0.9211 -0.3473 -0.7839
   45CHL1   C15 3274   5.069   0.758   3.628 -0.6477  0.5147  0.1456
   45CHL1  H15A 3275   4.997   0.842   3.634  0.6963  1.9048 -1.8658
   45CHL1  H15B 3276   5.018   0.663   3.601 -1.8183  0.6790  1.6355
   45CHL1   C16 3277   5.144   0.751   3.764 -0.5252  0.8400 -1.0073
   45CHL1  H16A 3278   5.087   0.814   3.836  0.2752  1.2901 -0.7506
   45CHL1  H16B 3279   5.150   0.648   3.805 -0.7235  1.0981 -0.3277
   45CHL1   C17 3280   5.288   0.804   3.738 -0.6182  0.5092 -0.6929
   45CHL1   H17 3281   5.343   0.707   3.744 -0.8199  0.4273 -0.1396
   45CHL1   C13 3282   5.284   0.870   3.603  0.0592  0.2833  0.9508
   45CHL1   C18 3283   5.220   1.008   3.628  0.2027  0.2404  0.4098
   45CHL1  H18A 3284   5.302   1.079   3.653  3.4796 -3.3994  0.8274
   45CHL1  H18B 3285   5.181   1.046   3.531  1.1420  0.2635  0.0323
   45CHL1  H18C 3286   5.137   1.002   3.702  0.5390 -1.6963  0.6811
   45CHL1   C12 3287   5.415   0.875   3.521  0.9577 -0.3630 -0.5409
   45CHL1  H12A 3288   5.482   0.951   3.565  0.0765  0.9624 -1.4404
   45CHL1  H12B 3289   5.465   0.776   3.508 -0.2469 -1.1769  0.6576
   45CHL1   C11 3290   5.394   0.930   3.379  0.0479 -0.1488  0.3744
   45CHL1  H11A 3291   5.375   1.040   3.380 -0.3929 -0.1860 -1.1397
   45CHL1  H11B 3292   5.489   0.903   3.326 -1.3234 -1.5505 -1.5194
   45CHL1    C9 3293   5.279   0.851   3.305 -0.7486 -0.2252  0.0172
   45CHL1    H9 3294   5.317   0.748   3.291  0.2613  0.0058  0.9467
   45CHL1   C10 3295   5.248   0.908   3.167 -0.4327  0.5564  0.2705
   45CHL1   C19 3296   5.190   1.046   3.183  0.5354  0.2799 -0.0138
   45CHL1  H19A 3297   5.120   1.065   3.267 -0.5130  1.7701 -1.1831
   45CHL1  H19B 3298   5.274   1.117   3.197 -0.6908  1.8337 -0.3212
   45CHL1  H19C 3299   5.141   1.078   3.089  0.1725 -1.1073 -0.3160
   45CHL1    C1 3300   5.378   0.915   3.083  0.6615  0.0061  0.5180
   45CHL1   H1A 3301   5.448   0.989   3.127  0.6124  0.5133 -0.2158
   45CHL1   H1B 3302   5.434   0.821   3.094 -0.7464 -1.0100 -0.5837
   45CHL1    C2 3303   5.356   0.947   2.936  0.1773 -0.1575 -0.4426
   45CHL1   H2A 3304   5.454   0.946   2.882  0.3011 -1.1152 -0.2161
   45CHL1   H2B 3305   5.314   1.049   2.924  0.5778  0.2240  1.2387
   45CHL1   C20 3306   5.354   0.881   3.851 -0.0795  0.2165 -0.1216
   45CHL1   H20 3307   5.324   0.987   3.863  1.5080  0.6108  0.5765
   45CHL1   C21 3308   5.510   0.881   3.831 -0.0823  0.3200 -0.2826
   45CHL1  H21A 3309   5.545   0.956   3.757 -0.3310  1.6293  0.8751
   45CHL1  H21B 3310   5.538   0.781   3.791  0.7083  1.4901 -2.9032
   45CHL1  H21C 3311   5.567   0.910   3.922  1.0916  1.9003 -1.4639
   45CHL1   C22 3312   5.325   0.823   3.995  0.2234  0.0816 -0.3944
   45CHL1  H22A 3313   5.214   0.811   3.999  0.0889  1.3558  0.0758
   45CHL1  H22B 3314   5.361   0.718   4.005 -0.7229 -0.3575 -1.3287
   45CHL1   C23 3315   5.368   0.912   4.109  0.6829  0.0594 -0.0928
   45CHL1  H23A 3316   5.472   0.948   4.093  1.2514 -1.8126 -0.9419
   45CHL1  H23B 3317   5.298   0.998   4.112 -0.6634 -0.9900 -0.2565
   45CHL1   C24 3318   5.368   0.844   4.246  0.2577 -0.3999 -0.2532
   45CHL1  H24A 3319   5.262   0.825   4.272  0.8661 -0.8887  2.1582
   45CHL1  H24B 3320   5.414   0.743   4.235  0.5806 -0.6307  2.4773
   45CHL1   C25 3321   5.438   0.925   4.357  0.0909  0.4652  0.0707
   45CHL1   H25 3322   5.409   0.884   4.456  0.9276 -0.8783 -0.2186
   45CHL1   C26 3323   5.590   0.926   4.342  0.2840 -0.9080  0.1192
   45CHL1  H26A 3324   5.624   0.821   4.326  0.1454 -0.8647 -0.4706
   45CHL1  H26B 3325   5.626   0.995   4.262 -0.0231 -1.6732 -0.7013
   45CHL1  H26C 3326   5.628   0.961   4.440 -1.0918 -0.3853  0.4884
   45CHL1   C27 3327   5.390   1.070   4.361 -0.1465  0.5040 -0.4271
   45CHL1  H27A 3328   5.279   1.079   4.350 -0.4110 -3.4325 -3.2437
   45CHL1  H27B 3329   5.423   1.116   4.457  0.6418  0.2634 -0.5765
   45CHL1  H27C 3330   5.443   1.127   4.282 -0.0396  2.4642  0.9905
   46CHL1    C3 3331   1.734   1.183   3.078  0.1041  0.0975  0.3573
   46CHL1    H3 3332   1.732   1.074   3.101 -1.6429  0.2117  0.8489
   46CHL1    O3 3333   1.732   1.173   2.935  0.1801  0.0439 -0.5684
   46CHL1   H3' 3334   1.712   1.266   2.922 -0.6724  0.0140  0.4090
   46CHL1    C4 3335   1.615   1.262   3.133  0.0415  0.4197 -0.2524
   46CHL1   H4A 3336   1.617   1.369   3.103 -3.6158  1.2383  1.7655
   46CHL1   H4B 3337   1.533   1.200   3.092  0.8243 -0.5326 -0.4071
   46CHL1    C5 3338   1.621   1.263   3.283  0.3283 -0.6173  0.3901
   46CHL1    C6 3339   1.507   1.231   3.355 -0.2404  0.0546  0.1927
   46CHL1    H6 3340   1.415   1.198   3.306  0.3274 -1.8383  0.3111
   46CHL1    C7 3341   1.499   1.238   3.502  0.5734 -0.1607 -0.0761
   46CHL1   H7A 3342   1.425   1.312   3.539 -0.1716 -0.8878 -0.0924
   46CHL1   H7B 3343   1.466   1.147   3.555 -1.7208 -0.0644 -1.2175
   46CHL1    C8 3344   1.626   1.287   3.567  0.3172 -0.2074 -0.0451
   46CHL1    H8 3345   1.629   1.398   3.567  0.9158 -0.1969 -1.4174
   46CHL1   C14 3346   1.644   1.235   3.709  0.1353 -0.4410 -0.7295
   46CHL1   H14 3347   1.668   1.127   3.702  4.9240  0.1501  2.1558
   46CHL1   C15 3348   1.519   1.253   3.796  1.0808 -0.2365 -0.0438
   46CHL1  H15A 3349   1.473   1.353   3.785  0.1096 -0.6884 -0.2046
   46CHL1  H15B 3350   1.446   1.172   3.774  0.2199  0.7537 -0.9853
   46CHL1   C16 3351   1.565   1.244   3.943 -0.7132 -0.1812  0.4507
   46CHL1  H16A 3352   1.539   1.334   4.003 -0.9120 -0.2067  0.4052
   46CHL1  H16B 3353   1.531   1.154   3.999  1.1977 -1.2898 -0.0877
   46CHL1   C17 3354   1.725   1.239   3.936 -0.4801  0.0202  0.2406
   46CHL1   H17 3355   1.751   1.131   3.940  1.2688  0.1299 -3.5574
   46CHL1   C13 3356   1.757   1.300   3.793  0.4720  0.2988 -0.2815
   46CHL1   C18 3357   1.740   1.461   3.811  0.1309  0.2664 -0.0990
   46CHL1  H18A 3358   1.642   1.500   3.845  2.1593  3.9357  2.1716
   46CHL1  H18B 3359   1.819   1.500   3.880 -0.3699 -2.3300  2.1424
   46CHL1  H18C 3360   1.755   1.495   3.706  1.1096  0.6817  0.1558
   46CHL1   C12 3361   1.884   1.255   3.729  0.1772  0.3060 -0.1739
   46CHL1  H12A 3362   1.977   1.293   3.777  0.5837 -0.6998 -0.1270
   46CHL1  H12B 3363   1.891   1.144   3.736 -1.0042  0.0799 -1.9170
   46CHL1   C11 3364   1.881   1.294   3.580  0.0607  0.1309  0.7765
   46CHL1  H11A 3365   1.903   1.403   3.578  4.4184 -0.5821  0.3097
   46CHL1  H11B 3366   1.969   1.240   3.538  0.6151  1.0073  0.7817
   46CHL1    C9 3367   1.753   1.254   3.490  0.3555 -0.4320  0.0808
   46CHL1    H9 3368   1.761   1.143   3.489  0.5886 -0.4145  0.0775
   46CHL1   C10 3369   1.757   1.302   3.345 -0.0562  0.2649  0.6711
   46CHL1   C19 3370   1.782   1.458   3.346  0.4016  0.4976  0.4984
   46CHL1  H19A 3371   1.789   1.496   3.242  1.2142 -0.0053  0.3647
   46CHL1  H19B 3372   1.698   1.513   3.393  1.1482  1.1006  1.1478
   46CHL1  H19C 3373   1.879   1.483   3.393  1.0814  0.1610 -0.6932
   46CHL1    C1 3374   1.876   1.230   3.275 -0.0535  0.0771 -0.0441
   46CHL1   H1A 3375   1.970   1.277   3.313 -1.8517  1.7812  2.6668
   46CHL1   H1B 3376   1.886   1.128   3.317  1.9077  0.2100 -0.1170
   46CHL1    C2 3377   1.866   1.246   3.126 -0.2239 -0.1590 -0.1980
   46CHL1   H2A 3378   1.952   1.195   3.077 -0.5746 -2.2374  1.2179
   46CHL1   H2B 3379   1.869   1.351   3.091  1.5807 -0.0414  0.2054
   46CHL1   C20 3380   1.802   1.301   4.063  0.0628 -0.1652 -0.2894
   46CHL1   H20 3381   1.781   1.410   4.058 -0.2260 -0.2332 -0.5621
   46CHL1   C21 3382   1.958   1.295   4.046  0.2226 -0.8563 -0.0604
   46CHL1  H21A 3383   1.984   1.378   3.977  1.2139  1.0231  2.4094
   46CHL1  H21B 3384   1.983   1.200   3.995  0.0360  0.8104 -3.5762
   46CHL1  H21C 3385   2.014   1.318   4.139 -1.7354 -3.3629  1.8890
   46CHL1   C22 3386   1.750   1.237   4.193 -0.9559 -0.6961 -0.0698
   46CHL1  H22A 3387   1.648   1.271   4.218 -0.6012 -0.6891  1.4796
   46CHL1  H22B 3388   1.748   1.126   4.184  0.0231 -0.6804 -0.5468
   46CHL1   C23 3389   1.831   1.258   4.322 -0.4425 -0.1331  0.0168
   46CHL1  H23A 3390   1.918   1.189   4.322 -0.7340 -0.5047  0.5722
   46CHL1  H23B 3391   1.877   1.359   4.321 -0.8351  0.0559  0.6041
   46CHL1   C24 3392   1.749   1.235   4.457 -0.2665  0.4555  0.6838
   46CHL1  H24A 3393   1.693   1.328   4.478  0.1637  0.6084  1.1870
   46CHL1  H24B 3394   1.679   1.149   4.453  0.2458  0.0581  0.0054
   46CHL1   C25 3395   1.846   1.213   4.572 -0.0000 -0.3519 -0.2398
   46CHL1   H25 3396   1.918   1.130   4.554 -0.0176 -0.6075  0.7707
   46CHL1   C26 3397   1.933   1.340   4.587 -0.0982  0.2756 -0.0297
   46CHL1  H26A 3398   1.976   1.348   4.689 -0.0031 -1.4674  0.1003
   46CHL1  H26B 3399   2.025   1.336   4.525  0.3509 -0.0523  0.6436
   46CHL1  H26C 3400   1.874   1.433   4.573 -0.6364 -0.3531 -2.2428
   46CHL1   C27 3401   1.762   1.195   4.701  0.2755 -0.9932  0.5678
   46CHL1  H27A 3402   1.834   1.176   4.783  0.5218 -1.9502  0.1371
   46CHL1  H27B 3403   1.713   1.291   4.726  0.2510 -0.4606 -1.3855
   46CHL1  H27C 3404   1.685   1.114   4.698  0.8208 -1.7691  3.9107
   47CHL1    C3 3405   1.854   3.331   2.571  0.5744 -0.3019  0.1387
   47CHL1    H3 3406   1.805   3.431   2.574  0.8761 -0.1441 -0.0594
   47CHL1    O3 3407   1.851   3.285   2.441 -0.3910 -0.4543  0.9771
   47CHL1   H3' 3408   1.899   3.203   2.454  0.2955 -0.4284 -1.0599
   47CHL1    C4 3409   1.995   3.357   2.611  0.0314 -0.4595  0.8468
   47CHL1   H4A 3410   2.044   3.257   2.616 -1.3169 -1.0821  2.5229
   47CHL1   H4B 3411   2.055   3.427   2.549  2.6707 -0.7778  2.8604
   47CHL1    C5 3412   2.003   3.407   2.753 -0.3317  0.5817 -0.4455
   47CHL1    C6 3413   2.055   3.526   2.785 -0.1612 -0.2496 -0.3414
   47CHL1    H6 3414   2.101   3.584   2.704  0.8206 -1.3901 -0.6234
   47CHL1    C7 3415   2.065   3.587   2.923 -0.2579 -0.1367 -0.1874
   47CHL1   H7A 3416   2.157   3.644   2.950  0.7414 -1.0578 -1.5124
   47CHL1   H7B 3417   1.988   3.666   2.934 -1.0869 -1.0565  0.8808
   47CHL1    C8 3418   2.045   3.484   3.034  0.5626 -0.6654 -0.3881
   47CHL1    H8 3419   2.140   3.433   3.057  0.3196 -0.8412  0.2555
   47CHL1   C14 3420   2.009   3.555   3.166 -0.0061 -0.3510 -0.2657
   47CHL1   H14 3421   1.915   3.609   3.141 -0.0364 -0.7167 -0.9728
   47CHL1   C15 3422   2.103   3.660   3.228 -0.8048 -0.1886  0.2210
   47CHL1  H15A 3423   2.208   3.626   3.235 -0.8421 -0.3947 -0.1647
   47CHL1  H15B 3424   2.100   3.757   3.174 -0.7620 -0.6527 -0.6496
   47CHL1   C16 3425   2.043   3.678   3.365 -0.6164  0.2579  0.1860
   47CHL1  H16A 3426   2.130   3.664   3.432  2.2108 -2.0540 -3.5534
   47CHL1  H16B 3427   2.003   3.781   3.370 -1.4429  0.2637 -3.4961
   47CHL1   C17 3428   1.940   3.562   3.389  0.4522 -0.4910  0.5953
   47CHL1   H17 3429   1.844   3.608   3.358 -0.0540 -1.2498  1.0082
   47CHL1   C13 3430   1.973   3.452   3.281  0.4306 -0.7257  0.2024
   47CHL1   C18 3431   2.089   3.367   3.320 -0.2757 -0.9638 -0.0844
   47CHL1  H18A 3432   2.065   3.278   3.382  0.0659 -0.2584  1.0769
   47CHL1  H18B 3433   2.134   3.332   3.224  0.6836  0.4213 -0.1677
   47CHL1  H18C 3434   2.157   3.431   3.380 -0.3629 -0.9507  0.0010
   47CHL1   C12 3435   1.866   3.361   3.232 -0.2496 -0.7825 -0.5698
   47CHL1  H12A 3436   1.843   3.298   3.320  0.4146  1.2550  1.1525
   47CHL1  H12B 3437   1.778   3.425   3.209 -0.4235 -0.8715 -0.1518
   47CHL1   C11 3438   1.894   3.281   3.116  0.2543 -0.7176  0.2421
   47CHL1  H11A 3439   1.981   3.215   3.134  2.6589  1.5560 -2.1615
   47CHL1  H11B 3440   1.807   3.218   3.088  0.0661 -0.0924 -0.6378
   47CHL1    C9 3441   1.934   3.381   2.996  0.4120  0.6801 -0.2076
   47CHL1    H9 3442   1.850   3.453   2.989 -0.4296 -0.2244  0.2984
   47CHL1   C10 3443   1.940   3.312   2.863 -0.4657 -0.4421 -0.0376
   47CHL1   C19 3444   2.031   3.186   2.875  0.7363 -0.4906  0.0101
   47CHL1  H19A 3445   2.008   3.118   2.960 -2.9014 -0.6476 -0.8971
   47CHL1  H19B 3446   2.020   3.139   2.776  2.0362 -1.0318  0.1135
   47CHL1  H19C 3447   2.138   3.212   2.873  0.4846  0.5551 -2.5045
   47CHL1    C1 3448   1.802   3.268   2.818  0.0288 -0.3773 -0.2093
   47CHL1   H1A 3449   1.776   3.187   2.890  1.6783 -0.0436  0.8178
   47CHL1   H1B 3450   1.741   3.355   2.851  0.1434 -0.3880  0.0357
   47CHL1    C2 3451   1.784   3.239   2.667 -0.3816  0.7472  0.0050
   47CHL1   H2A 3452   1.681   3.208   2.640 -0.7017  0.7822  1.1400
   47CHL1   H2B 3453   1.827   3.139   2.645  1.7026  1.4296  0.7586
   47CHL1   C20 3454   1.928   3.511   3.529  0.4176 -1.0921 -0.4015
   47CHL1   H20 3455   2.016   3.445   3.547  0.9254 -0.8647 -1.9631
   47CHL1   C21 3456   1.798   3.435   3.557  0.6715 -0.4342  0.4461
   47CHL1  H21A 3457   1.785   3.418   3.666  0.8341  0.1938  0.5682
   47CHL1  H21B 3458   1.787   3.334   3.511  0.5332  0.3095 -1.2076
   47CHL1  H21C 3459   1.710   3.499   3.534  0.7533 -0.3633  0.3327
   47CHL1   C22 3460   1.933   3.614   3.652 -0.1208 -0.7117  0.0934
   47CHL1  H22A 3461   2.003   3.694   3.619  0.0107 -0.6846  0.4387
   47CHL1  H22B 3462   1.831   3.657   3.664 -0.6470 -2.0884  0.7245
   47CHL1   C23 3463   1.991   3.547   3.777 -0.0804  0.0170  0.3483
   47CHL1  H23A 3464   1.904   3.511   3.837 -0.6115 -0.9969 -0.9620
   47CHL1  H23B 3465   2.065   3.468   3.752 -0.2624  0.4413 -1.6788
   47CHL1   C24 3466   2.067   3.647   3.861  0.3461  0.1570 -0.5647
   47CHL1  H24A 3467   2.151   3.683   3.797  1.7775 -0.5418  0.8503
   47CHL1  H24B 3468   2.006   3.739   3.871  1.4000  0.9342 -0.9557
   47CHL1   C25 3469   2.129   3.600   3.995 -0.0730 -0.0847 -0.1231
   47CHL1   H25 3470   2.176   3.500   3.983 -0.3923 -0.7354  3.0163
   47CHL1   C26 3471   2.243   3.701   4.026  0.8040 -0.2436 -0.2444
   47CHL1  H26A 3472   2.197   3.800   4.047  0.0105 -0.7928  0.6614
   47CHL1  H26B 3473   2.299   3.670   4.117 -0.0092  2.1882  1.1791
   47CHL1  H26C 3474   2.314   3.704   3.940  2.3553 -2.0074  0.8840
   47CHL1   C27 3475   2.023   3.592   4.109  0.0871 -0.3396  0.1176
   47CHL1  H27A 3476   1.990   3.696   4.129 -2.2249 -0.6487 -1.6200
   47CHL1  H27B 3477   1.945   3.517   4.084 -0.6251  0.4119  0.0529
   47CHL1  H27C 3478   2.079   3.546   4.193 -0.3054 -4.4694 -1.6333
   48CHL1    C3 3479   2.610   1.166   2.727  0.0909 -0.7340 -0.6445
   48CHL1    H3 3480   2.521   1.126   2.781 -0.5611 -1.3429 -2.0840
   48CHL1    O3 3481   2.597   1.148   2.588  0.2410  0.4509 -0.6254
   48CHL1   H3' 3482   2.685   1.129   2.556  1.5102  3.0134  0.9668
   48CHL1    C4 3483   2.612   1.322   2.742  0.3575  0.4364 -0.6705
   48CHL1   H4A 3484   2.695   1.341   2.671  0.0589 -0.6510 -1.3321
   48CHL1   H4B 3485   2.525   1.377   2.700  0.6814  0.3444 -1.4729
   48CHL1    C5 3486   2.638   1.360   2.890  0.6090  0.7158 -0.1315
   48CHL1    C6 3487   2.558   1.440   2.962  0.9419  0.1766  0.1282
   48CHL1    H6 3488   2.469   1.485   2.914  0.5281  0.1520  0.8590
   48CHL1    C7 3489   2.587   1.475   3.104 -0.0906  0.9201  0.3484
   48CHL1   H7A 3490   2.552   1.579   3.125 -2.5654  0.5148 -1.3185
   48CHL1   H7B 3491   2.517   1.414   3.165  0.2071  0.2505  0.0206
   48CHL1    C8 3492   2.732   1.445   3.150 -0.2185  0.3516 -0.5377
   48CHL1    H8 3493   2.792   1.521   3.096 -1.2232  0.0274 -2.1614
   48CHL1   C14 3494   2.752   1.460   3.300 -0.4508 -0.3332  0.0643
   48CHL1   H14 3495   2.690   1.375   3.335 -3.9049  1.0288 -2.2739
   48CHL1   C15 3496   2.698   1.579   3.382  0.5435  0.0764  0.5703
   48CHL1  H15A 3497   2.700   1.674   3.325  0.0957 -0.7124 -0.8083
   48CHL1  H15B 3498   2.592   1.555   3.405  0.1593  0.5026 -0.6889
   48CHL1   C16 3499   2.784   1.594   3.506 -0.7492  0.4184 -0.3648
   48CHL1  H16A 3500   2.837   1.692   3.502 -0.2080  0.2638  1.6495
   48CHL1  H16B 3501   2.725   1.590   3.601 -0.2887 -0.8856 -0.1185
   48CHL1   C17 3502   2.883   1.478   3.501 -0.4346  0.2876  0.3109
   48CHL1   H17 3503   2.838   1.392   3.553 -0.5601  0.5234  0.5941
   48CHL1   C13 3504   2.896   1.435   3.346  0.0879  0.4007  0.0602
   48CHL1   C18 3505   2.986   1.542   3.280 -0.7532  0.3877 -0.2059
   48CHL1  H18A 3506   3.011   1.513   3.176 -0.0608 -1.9143  0.5572
   48CHL1  H18B 3507   2.952   1.647   3.295 -1.7708 -0.1618  1.7182
   48CHL1  H18C 3508   3.087   1.542   3.326  0.0671  0.7490 -1.9465
   48CHL1   C12 3509   2.928   1.282   3.310  0.2828  0.0550 -0.0357
   48CHL1  H12A 3510   3.023   1.240   3.348 -0.4085 -1.9614 -0.4032
   48CHL1  H12B 3511   2.859   1.211   3.362  1.7682  0.0072  1.9774
   48CHL1   C11 3512   2.913   1.262   3.158  0.0816 -0.7259 -0.7743
   48CHL1  H11A 3513   3.005   1.307   3.114  0.6747 -0.6237  0.5287
   48CHL1  H11B 3514   2.931   1.153   3.145 -0.3246 -0.8195 -0.5813
   48CHL1    C9 3515   2.778   1.309   3.103  0.4231 -0.0926 -0.1575
   48CHL1    H9 3516   2.704   1.237   3.145  1.0624 -1.0209 -0.5875
   48CHL1   C10 3517   2.765   1.290   2.948  0.2375 -0.1634 -0.1358
   48CHL1   C19 3518   2.890   1.353   2.875 -0.0390 -0.2280  0.2791
   48CHL1  H19A 3519   2.979   1.299   2.914  1.7856  1.9500 -0.6651
   48CHL1  H19B 3520   2.888   1.334   2.766  2.4784 -0.0628  0.1500
   48CHL1  H19C 3521   2.909   1.460   2.895  1.7328 -0.8134  2.0659
   48CHL1    C1 3522   2.758   1.131   2.924  0.4609 -0.1131 -0.1086
   48CHL1   H1A 3523   2.848   1.077   2.962 -0.5528 -1.5560  0.3608
   48CHL1   H1B 3524   2.672   1.088   2.981  0.5398 -1.1837 -0.7543
   48CHL1    C2 3525   2.734   1.094   2.776 -0.3553 -0.6546  0.1442
   48CHL1   H2A 3526   2.712   0.985   2.767  0.5044 -0.8514  0.3216
   48CHL1   H2B 3527   2.822   1.107   2.709  0.5023 -1.4909  1.0647
   48CHL1   C20 3528   3.012   1.506   3.580 -0.1103 -0.4713  0.2810
   48CHL1   H20 3529   3.075   1.584   3.533 -1.7834  1.0448  0.4390
   48CHL1   C21 3530   3.091   1.377   3.601 -0.4778 -0.1663 -0.1704
   48CHL1  H21A 3531   3.124   1.333   3.504 -0.2162 -0.0053 -0.1560
   48CHL1  H21B 3532   3.037   1.295   3.652 -2.2862  1.6108  0.9149
   48CHL1  H21C 3533   3.186   1.405   3.653 -1.8643  2.9888  0.8871
   48CHL1   C22 3534   2.985   1.572   3.715  0.3835  0.1504 -0.2957
   48CHL1  H22A 3535   3.079   1.590   3.771 -1.8569  1.1531  3.5219
   48CHL1  H22B 3536   2.942   1.674   3.704  0.9364  0.4300  0.0833
   48CHL1   C23 3537   2.891   1.494   3.812 -0.1627  0.6144 -0.3579
   48CHL1  H23A 3538   2.796   1.490   3.755 -0.3931  2.6961 -0.1886
   48CHL1  H23B 3539   2.928   1.391   3.832  0.4500  0.4898 -1.9516
   48CHL1   C24 3540   2.868   1.572   3.948  0.4835  0.2232  0.1666
   48CHL1  H24A 3541   2.803   1.659   3.926  0.2953  0.1196  0.3103
   48CHL1  H24B 3542   2.800   1.518   4.017  0.7612  1.3748  1.3778
   48CHL1   C25 3543   2.992   1.623   4.025  0.4012 -0.0154 -0.3420
   48CHL1   H25 3544   3.043   1.697   3.958  0.4257  0.9773  0.7348
   48CHL1   C26 3545   2.951   1.706   4.152  0.2204 -0.0741 -0.6727
   48CHL1  H26A 3546   2.872   1.649   4.205 -1.7725  2.3692 -0.8631
   48CHL1  H26B 3547   3.037   1.725   4.220 -0.8863  0.1059  0.7088
   48CHL1  H26C 3548   2.903   1.802   4.126 -1.1212 -0.9558 -1.5895
   48CHL1   C27 3549   3.097   1.515   4.061 -0.8981 -0.6685  0.4819
   48CHL1  H27A 3550   3.136   1.466   3.970 -0.9668  1.7483 -0.9495
   48CHL1  H27B 3551   3.182   1.568   4.108 -0.0866  0.2592 -1.8846
   48CHL1  H27C 3552   3.073   1.432   4.130  0.9724 -1.2606  0.4774
   49CHL1    C3 3553   6.526   1.653   2.624 -0.4298 -0.5023 -0.3421
   49CHL1    H3 3554   6.417   1.653   2.643  0.0102 -0.2276  2.5084
   49CHL1    O3 3555   6.555   1.685   2.494 -0.1238  0.0402  0.3267
   49CHL1   H3' 3556   6.651   1.696   2.496 -0.2756  1.7973 -0.3102
   49CHL1    C4 3557   6.588   1.753   2.716  0.1222  0.5833  0.4833
   49CHL1   H4A 3558   6.696   1.753   2.690  0.5223 -1.1029  1.9293
   49CHL1   H4B 3559   6.554   1.855   2.691 -1.1694 -0.1347 -0.8433
   49CHL1    C5 3560   6.587   1.729   2.860  0.2608  0.1568 -0.0309
   49CHL1    C6 3561   6.531   1.819   2.946 -0.4781  0.0342 -0.4232
   49CHL1    H6 3562   6.489   1.914   2.910 -1.7051 -0.7815 -1.2674
   49CHL1    C7 3563   6.539   1.796   3.101  0.1494  0.7572 -0.5516
   49CHL1   H7A 3564   6.585   1.887   3.146  1.8144 -0.6476  0.7131
   49CHL1   H7B 3565   6.434   1.776   3.131  0.6129  0.1867  0.7811
   49CHL1    C8 3566   6.633   1.673   3.142 -0.6191 -0.1447  0.1645
   49CHL1    H8 3567   6.737   1.708   3.123 -0.6109 -0.9756 -1.5027
   49CHL1   C14 3568   6.611   1.631   3.287 -0.0568 -0.0158  0.3206
   49CHL1   H14 3569   6.508   1.595   3.304 -1.1902  2.4443 -0.8288
   49CHL1   C15 3570   6.623   1.738   3.398 -0.6294  0.1816 -0.7761
   49CHL1  H15A 3571   6.702   1.804   3.356 -2.1183 -0.3793 -5.0146
   49CHL1  H15B 3572   6.535   1.807   3.397  0.3830  1.5622  0.6497
   49CHL1   C16 3573   6.642   1.665   3.528 -0.2105  0.0028  0.4260
   49CHL1  H16A 3574   6.722   1.717   3.585 -0.6407  0.6036  0.4805
   49CHL1  H16B 3575   6.552   1.660   3.593 -0.5838 -2.2704 -0.1691
   49CHL1   C17 3576   6.679   1.516   3.483  0.2399 -0.7953 -0.2405
   49CHL1   H17 3577   6.578   1.469   3.490 -1.2278  1.8755 -1.7184
   49CHL1   C13 3578   6.702   1.523   3.335 -0.1560  0.0177 -0.2183
   49CHL1   C18 3579   6.851   1.570   3.318  0.9645  0.3115  0.6564
   49CHL1  H18A 3580   6.863   1.670   3.365  2.8657  0.5853 -0.3378
   49CHL1  H18B 3581   6.926   1.494   3.350  1.0238  0.5563  1.1115
   49CHL1  H18C 3582   6.880   1.590   3.213 -4.3160  0.2356 -1.0801
   49CHL1   C12 3583   6.674   1.400   3.243 -0.3619  0.2947 -0.5880
   49CHL1  H12A 3584   6.742   1.317   3.271  0.3116  0.7509 -0.8677
   49CHL1  H12B 3585   6.575   1.352   3.263  0.6857 -1.3185  1.0492
   49CHL1   C11 3586   6.695   1.433   3.097  0.0541  0.2633 -0.1578
   49CHL1  H11A 3587   6.805   1.449   3.089 -0.1233  1.6143 -0.2070
   49CHL1  H11B 3588   6.675   1.340   3.040 -1.7304 -0.0876  0.9764
   49CHL1    C9 3589   6.613   1.557   3.048  0.2661  0.4417 -0.7834
   49CHL1    H9 3590   6.504   1.536   3.053 -0.0558  1.7441 -1.9139
   49CHL1   C10 3591   6.644   1.588   2.899  0.6257  0.4147 -0.3239
   49CHL1   C19 3592   6.796   1.589   2.880 -0.2626 -0.1821  0.3915
   49CHL1  H19A 3593   6.818   1.620   2.776  2.1200 -1.6405  0.3857
   49CHL1  H19B 3594   6.852   1.658   2.947 -0.2909 -0.5571  0.8128
   49CHL1  H19C 3595   6.858   1.497   2.892  1.1231  0.7298  0.4047
   49CHL1    C1 3596   6.573   1.484   2.805  0.2735 -0.0939  0.1105
   49CHL1   H1A 3597   6.609   1.382   2.830  0.9954  0.2969  0.7324
   49CHL1   H1B 3598   6.465   1.479   2.832  0.4748 -1.7480  0.7413
   49CHL1    C2 3599   6.574   1.512   2.657 -0.5299 -0.2013  0.9954
   49CHL1   H2A 3600   6.512   1.442   2.597  1.1807 -0.6977 -0.2663
   49CHL1   H2B 3601   6.679   1.498   2.622 -0.7694  0.0901  0.1336
   49CHL1   C20 3602   6.789   1.447   3.567 -0.6789 -0.0651 -0.4597
   49CHL1   H20 3603   6.840   1.370   3.506  1.4466 -0.8002  2.0581
   49CHL1   C21 3604   6.712   1.381   3.678  0.4445  0.8337  0.7371
   49CHL1  H21A 3605   6.663   1.292   3.633  1.0453 -0.3272  2.3035
   49CHL1  H21B 3606   6.635   1.446   3.727 -3.0047 -2.7022  0.5164
   49CHL1  H21C 3607   6.787   1.329   3.742  0.3828  0.0738  0.2000
   49CHL1   C22 3608   6.898   1.532   3.638 -0.0107  0.0952 -0.4240
   49CHL1  H22A 3609   6.911   1.625   3.577  0.5254  0.2637 -0.0599
   49CHL1  H22B 3610   6.865   1.570   3.737  0.5385  1.0017 -0.5737
   49CHL1   C23 3611   7.029   1.449   3.651 -0.2373  0.0460 -0.5270
   49CHL1  H23A 3612   6.995   1.364   3.714 -1.8942  1.0493 -0.0018
   49CHL1  H23B 3613   7.061   1.418   3.549 -3.1285  0.5302 -1.6711
   49CHL1   C24 3614   7.126   1.534   3.735 -0.4489  0.4889  0.2680
   49CHL1  H24A 3615   7.164   1.626   3.685  0.2416  0.2088  0.2738
   49CHL1  H24B 3616   7.072   1.563   3.829  0.1757  0.6495  0.5799
   49CHL1   C25 3617   7.253   1.455   3.775 -0.1815 -0.2406 -0.1599
   49CHL1   H25 3618   7.221   1.354   3.806 -0.1706 -0.3628 -0.5385
   49CHL1   C26 3619   7.349   1.437   3.655  1.0434 -0.2779  0.7987
   49CHL1  H26A 3620   7.435   1.369   3.676  0.1916 -1.7175 -0.1297
   49CHL1  H26B 3621   7.296   1.389   3.569  1.8242  1.3648 -0.6571
   49CHL1  H26C 3622   7.388   1.534   3.620  2.8471 -0.6477  1.6803
   49CHL1   C27 3623   7.329   1.528   3.892 -0.0107 -0.0503 -0.3077
   49CHL1  H27A 3624   7.268   1.522   3.984  2.0140 -0.4984  1.0671
   49CHL1  H27B 3625   7.425   1.484   3.923 -1.8358 -3.2846  1.1880
   49CHL1  H27C 3626   7.354   1.632   3.860  0.9235  0.2424  1.2930
   50CHL1    C3 3627   3.319   1.830   2.648  0.6694 -0.0022 -0.2791
   50CHL1    H3 3628   3.315   1.720   2.662 -0.8803  0.1170  0.4300
   50CHL1    O3 3629   3.343   1.866   2.512  0.5985  0.3966 -0.2205
   50CHL1   H3' 3630   3.287   1.938   2.482  1.2911  0.4942 -1.3307
   50CHL1    C4 3631   3.192   1.898   2.703 -0.2952 -0.2777 -0.7041
   50CHL1   H4A 3632   3.198   2.005   2.675  0.7964  0.3423  1.6149
   50CHL1   H4B 3633   3.106   1.849   2.653 -1.3208  0.4324  0.3006
   50CHL1    C5 3634   3.173   1.895   2.851 -0.3040  0.0099 -0.1160
   50CHL1    C6 3635   3.066   1.838   2.914  0.2809  0.4765 -0.3321
   50CHL1    H6 3636   2.976   1.801   2.864  0.2081  0.4620 -0.1930
   50CHL1    C7 3637   3.047   1.847   3.068  0.2440 -0.5002  0.5180
   50CHL1   H7A 3638   2.949   1.894   3.087  0.4069  1.2630 -2.3324
   50CHL1   H7B 3639   3.062   1.741   3.098 -2.1536 -0.5151  1.8431
   50CHL1    C8 3640   3.153   1.929   3.141  0.0885  0.5987  0.2376
   50CHL1    H8 3641   3.133   2.037   3.129  0.9325  0.7346 -0.0240
   50CHL1   C14 3642   3.150   1.904   3.288  0.2343 -0.6489 -0.3811
   50CHL1   H14 3643   3.161   1.794   3.303 -0.8876 -0.7644 -0.2897
   50CHL1   C15 3644   3.017   1.917   3.364  0.5360  0.3220  0.6632
   50CHL1  H15A 3645   2.971   2.014   3.332 -2.6907 -0.8780  1.2863
   50CHL1  H15B 3646   2.939   1.840   3.346 -0.3523  0.8248  2.1697
   50CHL1   C16 3647   3.058   1.918   3.510  0.0874  1.1340 -0.0055
   50CHL1  H16A 3648   3.006   1.994   3.573  0.1684  2.8848 -1.9557
   50CHL1  H16B 3649   3.033   1.823   3.561  0.4355  1.1796  0.2512
   50CHL1   C17 3650   3.211   1.928   3.517 -0.8343  0.1260  0.6332
   50CHL1   H17 3651   3.255   1.828   3.537  1.0127  0.9123  0.7237
   50CHL1   C13 3652   3.256   1.969   3.372 -0.4313 -0.2657  0.7314
   50CHL1   C18 3653   3.248   2.126   3.362  0.5917 -0.6682  0.3560
   50CHL1  H18A 3654   3.313   2.176   3.436 -0.2462 -3.4724  3.2045
   50CHL1  H18B 3655   3.270   2.169   3.262 -0.5362 -2.2779 -0.6400
   50CHL1  H18C 3656   3.147   2.166   3.387  0.8925 -0.4235  1.1946
   50CHL1   C12 3657   3.395   1.920   3.318  0.2107  0.0609 -0.3314
   50CHL1  H12A 3658   3.477   1.979   3.364  0.3074  1.1231 -1.8144
   50CHL1  H12B 3659   3.416   1.814   3.340  4.9502  0.1637 -3.1127
   50CHL1   C11 3660   3.415   1.952   3.168 -0.4280  0.0426  0.4074
   50CHL1  H11A 3661   3.428   2.062   3.167 -0.6061  0.0648 -0.6429
   50CHL1  H11B 3662   3.504   1.901   3.127  1.4316  2.3704  1.3599
   50CHL1    C9 3663   3.292   1.900   3.081  0.5179 -0.8563  0.2715
   50CHL1    H9 3664   3.297   1.789   3.086  0.5136 -0.8291  1.0539
   50CHL1   C10 3665   3.295   1.947   2.935  0.6193 -0.9601 -0.3320
   50CHL1   C19 3666   3.310   2.099   2.937  0.2418 -0.2803 -0.1970
   50CHL1  H19A 3667   3.218   2.147   2.976 -0.9941 -1.0194 -2.1031
   50CHL1  H19B 3668   3.405   2.132   2.986 -0.1913  1.3220 -0.3605
   50CHL1  H19C 3669   3.324   2.133   2.832  1.3017  0.4070  0.1385
   50CHL1    C1 3670   3.425   1.894   2.875 -0.1071 -0.2589  0.0534
   50CHL1   H1A 3671   3.507   1.957   2.914 -1.4754  1.4638  0.2702
   50CHL1   H1B 3672   3.429   1.791   2.917  0.7198 -0.6721 -0.9743
   50CHL1    C2 3673   3.443   1.881   2.724 -0.4908 -0.2700 -0.2874
   50CHL1   H2A 3674   3.532   1.815   2.709  1.1410  1.1055  2.4941
   50CHL1   H2B 3675   3.464   1.982   2.685  0.7445 -0.0733  0.7998
   50CHL1   C20 3676   3.262   2.009   3.641  0.2112  0.5843  0.1388
   50CHL1   H20 3677   3.249   2.119   3.637  1.5506  0.7359 -1.5380
   50CHL1   C21 3678   3.410   1.986   3.659  0.3856 -0.3229 -0.2654
   50CHL1  H21A 3679   3.444   2.037   3.752  0.5630 -1.9140  0.5758
   50CHL1  H21B 3680   3.472   2.018   3.572  1.1080 -1.8383 -0.3518
   50CHL1  H21C 3681   3.419   1.875   3.663 -1.2864 -0.4532  0.3603
   50CHL1   C22 3682   3.185   1.967   3.777 -0.0391  0.0644  0.5009
   50CHL1  H22A 3683   3.075   1.975   3.765 -0.0955  0.1490  1.0351
   50CHL1  H22B 3684   3.205   1.859   3.795  2.8364  0.7144  1.6676
   50CHL1   C23 3685   3.238   2.035   3.905  0.3225 -0.9827 -0.3654
   50CHL1  H23A 3686   3.336   1.992   3.933  0.5780 -1.6642 -2.1326
   50CHL1  H23B 3687   3.249   2.142   3.879  1.4131 -1.0504 -0.2064
   50CHL1   C24 3688   3.130   2.024   4.014 -0.1744  0.0467 -0.0017
   50CHL1  H24A 3689   3.036   2.072   3.980 -2.4266 -2.7673  1.7700
   50CHL1  H24B 3690   3.106   1.916   4.030 -2.0707  0.4806  0.3389
   50CHL1   C25 3691   3.167   2.088   4.146  0.1334  0.5993 -0.2546
   50CHL1   H25 3692   3.216   2.187   4.130  0.2998  0.5085 -0.3043
   50CHL1   C26 3693   3.039   2.106   4.232 -0.3994  0.1074  0.3254
   50CHL1  H26A 3694   2.953   2.143   4.172 -2.7495 -1.2115  2.6585
   50CHL1  H26B 3695   3.014   2.010   4.281 -1.9606 -0.1196 -0.8497
   50CHL1  H26C 3696   3.050   2.175   4.318 -1.0198  0.4289  0.1503
   50CHL1   C27 3697   3.273   2.010   4.226 -0.2157 -0.1512  0.5569
   50CHL1  H27A 3698   3.294   2.055   4.326 -0.7136 -1.3618  1.2219
   50CHL1  H27B 3699   3.233   1.908   4.238  0.1107 -0.9632 -3.8129
   50CHL1  H27C 3700   3.371   2.001   4.173  0.0884  0.1438  1.0597
   51CHL1    C3 3701   4.319   1.652   2.581  0.5809 -0.1570  0.2027
   51CHL1    H3 3702   4.227   1.600   2.617 -1.0461  3.2783  1.4694
   51CHL1    O3 3703   4.301   1.674   2.444  0.2847 -0.7882 -0.0155
   51CHL1   H3' 3704   4.353   1.607   2.398 -0.1373 -1.1902  0.0741
   51CHL1    C4 3705   4.310   1.793   2.644  0.5344  0.2452 -1.0651
   51CHL1   H4A 3706   4.389   1.857   2.599  0.5956  0.8164 -0.1811
   51CHL1   H4B 3707   4.213   1.838   2.611 -0.0797 -0.6603 -0.5345
   51CHL1    C5 3708   4.329   1.786   2.793 -0.6752  0.1514 -0.3029
   51CHL1    C6 3709   4.230   1.833   2.870  0.7055 -0.1656  0.8434
   51CHL1    H6 3710   4.142   1.885   2.828  1.9493 -2.1986 -5.2414
   51CHL1    C7 3711   4.247   1.833   3.018 -0.6096 -0.5690  0.0933
   51CHL1   H7A 3712   4.217   1.937   3.046  2.3700  0.1949  0.8816
   51CHL1   H7B 3713   4.183   1.756   3.066 -0.8741 -0.1168  0.4770
   51CHL1    C8 3714   4.391   1.806   3.065 -0.3290  0.0230  0.4427
   51CHL1    H8 3715   4.450   1.900   3.060  0.3426 -0.2746  2.0100
   51CHL1   C14 3716   4.384   1.759   3.208 -0.2771  0.1049  0.5173
   51CHL1   H14 3717   4.327   1.664   3.202 -2.6209  1.4880 -0.4051
   51CHL1   C15 3718   4.313   1.849   3.307  0.4384  0.4780  0.5753
   51CHL1  H15A 3719   4.338   1.956   3.291 -3.1044  1.5603  1.3957
   51CHL1  H15B 3720   4.203   1.838   3.303  0.5553 -0.5324 -0.7133
   51CHL1   C16 3721   4.374   1.816   3.447  0.3780 -0.3708  0.0585
   51CHL1  H16A 3722   4.422   1.907   3.488 -0.6670  0.3210 -0.2312
   51CHL1  H16B 3723   4.300   1.779   3.521  0.4323 -0.7377 -0.0671
   51CHL1   C17 3724   4.472   1.703   3.421 -0.1227 -0.1398  0.0674
   51CHL1   H17 3725   4.421   1.605   3.420 -0.6675  0.1450 -0.8188
   51CHL1   C13 3726   4.523   1.726   3.278 -0.1178  0.3613 -0.0807
   51CHL1   C18 3727   4.621   1.853   3.276  0.8610  0.2777  0.6363
   51CHL1  H18A 3728   4.714   1.831   3.332  0.8559  2.1374  1.4685
   51CHL1  H18B 3729   4.651   1.886   3.174 -0.7982  0.5519  0.2032
   51CHL1  H18C 3730   4.575   1.942   3.324 -0.1423  0.3019 -0.3102
   51CHL1   C12 3731   4.579   1.609   3.202 -0.3764 -0.4823 -0.2647
   51CHL1  H12A 3732   4.681   1.582   3.236  0.0182  3.5275  2.3917
   51CHL1  H12B 3733   4.521   1.515   3.212  1.1772 -1.8110 -2.7975
   51CHL1   C11 3734   4.584   1.641   3.053  0.2831  0.9685 -0.1303
   51CHL1  H11A 3735   4.667   1.714   3.048  2.4636 -1.3670 -0.2301
   51CHL1  H11B 3736   4.617   1.545   3.007  0.9471 -0.8504  3.7628
   51CHL1    C9 3737   4.454   1.689   2.990  0.4236 -0.5834  0.5920
   51CHL1    H9 3738   4.385   1.602   2.993  1.8365 -1.9971 -2.8069
   51CHL1   C10 3739   4.461   1.718   2.835  0.0363  0.1190 -0.3488
   51CHL1   C19 3740   4.583   1.802   2.815  0.0323  0.2167  0.9477
   51CHL1  H19A 3741   4.600   1.823   2.708 -2.6193 -0.9597  0.2131
   51CHL1  H19B 3742   4.576   1.899   2.869  2.9662 -0.4012  2.7077
   51CHL1  H19C 3743   4.678   1.759   2.855  2.0855  2.8228 -0.7783
   51CHL1    C1 3744   4.475   1.578   2.764  0.3179 -0.0503  0.5507
   51CHL1   H1A 3745   4.570   1.521   2.775  0.3965  0.1552  0.9652
   51CHL1   H1B 3746   4.398   1.507   2.800  0.4995 -2.3708 -3.1206
   51CHL1    C2 3747   4.444   1.576   2.612 -0.2719  0.3309  0.1023
   51CHL1   H2A 3748   4.437   1.474   2.568  2.9693 -0.1770  0.5491
   51CHL1   H2B 3749   4.522   1.634   2.559 -0.4285  2.1755  1.7603
   51CHL1   C20 3750   4.582   1.687   3.530 -0.5676  0.0702  0.8835
   51CHL1   H20 3751   4.645   1.779   3.536 -1.4559  0.8639 -1.1382
   51CHL1   C21 3752   4.681   1.563   3.507  0.5097 -0.9367 -0.0791
   51CHL1  H21A 3753   4.742   1.579   3.416 -1.3064  1.4718 -0.9781
   51CHL1  H21B 3754   4.616   1.472   3.506 -0.3532 -0.3555  1.0600
   51CHL1  H21C 3755   4.757   1.551   3.587  3.7703 -0.7474 -2.9245
   51CHL1   C22 3756   4.515   1.671   3.665  0.1167  0.3467 -0.4402
   51CHL1  H22A 3757   4.442   1.754   3.674 -0.6855 -0.4355  0.4505
   51CHL1  H22B 3758   4.466   1.572   3.676  2.3431 -0.9802 -1.6223
   51CHL1   C23 3759   4.599   1.706   3.790 -0.8111 -0.7071 -0.4333
   51CHL1  H23A 3760   4.696   1.651   3.786 -1.1084 -1.2481 -0.4139
   51CHL1  H23B 3761   4.609   1.816   3.778 -1.8176 -0.6806 -1.0824
   51CHL1   C24 3762   4.526   1.652   3.917  0.2359 -0.7700  0.0959
   51CHL1  H24A 3763   4.424   1.696   3.925 -0.4186 -2.0183 -0.9726
   51CHL1  H24B 3764   4.499   1.544   3.916 -1.1418 -0.4534 -0.7927
   51CHL1   C25 3765   4.593   1.682   4.056  0.2161  0.4061  0.6474
   51CHL1   H25 3766   4.608   1.791   4.067 -0.0956  0.4234  0.9187
   51CHL1   C26 3767   4.493   1.624   4.157 -0.2663  0.0149 -0.3665
   51CHL1  H26A 3768   4.485   1.514   4.147  0.2978 -0.0503 -0.1711
   51CHL1  H26B 3769   4.524   1.647   4.261  3.4247 -0.7985 -1.1377
   51CHL1  H26C 3770   4.392   1.667   4.146 -0.6097 -0.9520 -1.1159
   51CHL1   C27 3771   4.728   1.605   4.069  0.1919 -0.1775 -0.2137
   51CHL1  H27A 3772   4.766   1.630   4.171  0.2782  0.3534 -0.3729
   51CHL1  H27B 3773   4.719   1.495   4.064  1.7243 -0.2506 -2.6148
   51CHL1  H27C 3774   4.797   1.640   3.989  2.2712 -1.1294  1.0824
   52CHL1    C3 3775   5.813   3.260   2.905  1.0601  0.4839 -0.2439
   52CHL1    H3 3776   5.743   3.173   2.900  2.2632 -0.5253 -0.1115
   52CHL1    O3 3777   5.816   3.327   2.783 -0.3768  0.0749 -0.3345
   52CHL1   H3' 3778   5.904   3.364   2.790  0.4726 -1.9950  0.8188
   52CHL1    C4 3779   5.769   3.363   3.003  0.4469 -0.4241  0.1686
   52CHL1   H4A 3780   5.833   3.454   3.006  0.1371 -0.1850 -0.4563
   52CHL1   H4B 3781   5.665   3.392   2.978  0.4057 -1.5483 -1.0318
   52CHL1    C5 3782   5.775   3.303   3.143 -0.3341  0.1670 -0.0520
   52CHL1    C6 3783   5.669   3.320   3.218 -0.1354  0.0533  0.3338
   52CHL1    H6 3784   5.582   3.369   3.172  1.1842 -0.4865 -3.0768
   52CHL1    C7 3785   5.651   3.262   3.353 -0.7285  0.0335 -0.2554
   52CHL1   H7A 3786   5.621   3.346   3.420 -3.2003 -1.8091  1.1139
   52CHL1   H7B 3787   5.573   3.183   3.355 -1.3293  0.5641  2.8365
   52CHL1    C8 3788   5.779   3.204   3.411  0.5532 -0.4941 -1.1174
   52CHL1    H8 3789   5.836   3.291   3.449  0.2937 -1.6006  2.1328
   52CHL1   C14 3790   5.740   3.107   3.528 -0.3700  0.2343  0.3076
   52CHL1   H14 3791   5.680   3.030   3.475 -0.0128  1.1833 -1.5652
   52CHL1   C15 3792   5.649   3.151   3.637  0.0079 -0.3407 -0.6413
   52CHL1  H15A 3793   5.680   3.254   3.667 -0.6523  0.4549 -2.5261
   52CHL1  H15B 3794   5.543   3.136   3.608  0.1670  0.9320 -1.9955
   52CHL1   C16 3795   5.679   3.053   3.748  0.1107  0.3186  0.0904
   52CHL1  H16A 3796   5.721   3.111   3.833  0.9493  0.5702 -0.4817
   52CHL1  H16B 3797   5.587   2.998   3.775  0.2552 -0.4676 -0.9557
   52CHL1   C17 3798   5.795   2.956   3.702  0.4703 -0.3685  0.2429
   52CHL1   H17 3799   5.742   2.877   3.646 -0.0382 -0.6015  1.0310
   52CHL1   C13 3800   5.859   3.042   3.590  0.0535  0.3407  0.7425
   52CHL1   C18 3801   5.952   3.145   3.651 -0.5291  0.0741 -0.0196
   52CHL1  H18A 3802   6.040   3.093   3.695 -1.0390 -0.8531 -0.0653
   52CHL1  H18B 3803   5.974   3.228   3.580 -1.6208  2.0789  1.8557
   52CHL1  H18C 3804   5.896   3.185   3.738  1.1872  1.4050  0.5407
   52CHL1   C12 3805   5.926   2.964   3.476  0.5725 -0.7863 -0.5729
   52CHL1  H12A 3806   6.009   2.902   3.515  0.1709 -1.6198 -1.0265
   52CHL1  H12B 3807   5.848   2.895   3.436  1.8704 -1.4757 -2.0056
   52CHL1   C11 3808   5.979   3.056   3.372  0.4245 -0.0653 -0.1668
   52CHL1  H11A 3809   6.051   3.123   3.423 -1.7828  0.2526  2.8311
   52CHL1  H11B 3810   6.020   2.991   3.292 -1.3963 -1.6676  0.1372
   52CHL1    C9 3811   5.861   3.133   3.307 -0.0394  1.1718  0.0127
   52CHL1    H9 3812   5.796   3.052   3.267  3.1544 -1.0278 -1.1484
   52CHL1   C10 3813   5.898   3.221   3.187  0.0836  0.4488  0.4581
   52CHL1   C19 3814   6.003   3.328   3.228  0.3754  0.3934  0.2428
   52CHL1  H19A 3815   6.033   3.387   3.138 -0.3421  1.6411  0.7998
   52CHL1  H19B 3816   5.958   3.400   3.300  1.6685  4.6941 -2.8470
   52CHL1  H19C 3817   6.094   3.281   3.272  0.4464  0.2711 -0.0350
   52CHL1    C1 3818   5.950   3.138   3.072 -0.5105  0.3876  0.6470
   52CHL1   H1A 3819   6.057   3.119   3.091  0.4139  2.0346 -2.2589
   52CHL1   H1B 3820   5.896   3.040   3.065 -0.1059  0.0676  1.8892
   52CHL1    C2 3821   5.955   3.207   2.937  0.9256 -0.6353  0.8203
   52CHL1   H2A 3822   5.964   3.129   2.859 -2.2308  0.7577 -1.1245
   52CHL1   H2B 3823   6.034   3.285   2.946 -0.2306  0.4804  1.7341
   52CHL1   C20 3824   5.870   2.890   3.815 -1.2404  0.2802 -0.0688
   52CHL1   H20 3825   5.909   2.979   3.869 -0.0349  0.3123 -0.9458
   52CHL1   C21 3826   5.999   2.817   3.780  0.4578 -0.3500 -0.2139
   52CHL1  H21A 3827   6.072   2.877   3.721 -1.6552  0.2982 -2.3448
   52CHL1  H21B 3828   5.981   2.723   3.723  0.6655 -0.4752 -0.0701
   52CHL1  H21C 3829   6.040   2.791   3.880 -2.4974 -0.7206  1.0278
   52CHL1   C22 3830   5.777   2.802   3.904 -0.3775 -0.4079 -0.4331
   52CHL1  H22A 3831   5.689   2.864   3.929 -0.1433  0.4789 -1.6818
   52CHL1  H22B 3832   5.737   2.719   3.842 -0.6604 -0.3088 -0.3839
   52CHL1   C23 3833   5.842   2.730   4.027  0.7719 -0.3102  0.7778
   52CHL1  H23A 3834   5.762   2.664   4.067  0.2635  0.9780  1.9368
   52CHL1  H23B 3835   5.936   2.683   3.991  0.9616  0.2790  0.4912
   52CHL1   C24 3836   5.887   2.819   4.142 -0.1708 -0.1544 -0.1259
   52CHL1  H24A 3837   5.940   2.911   4.109  2.9564 -1.2787  1.2886
   52CHL1  H24B 3838   5.809   2.856   4.212 -0.1505  1.4761 -0.9211
   52CHL1   C25 3839   5.995   2.752   4.230 -0.4641 -0.0384 -0.9254
   52CHL1   H25 3840   6.086   2.744   4.167  0.9068  1.6126  0.7406
   52CHL1   C26 3841   6.019   2.835   4.350 -0.2936 -0.0971  0.2536
   52CHL1  H26A 3842   6.021   2.939   4.310 -3.3200  0.2627  0.8316
   52CHL1  H26B 3843   5.945   2.816   4.430 -0.9911 -2.9231 -0.9277
   52CHL1  H26C 3844   6.122   2.816   4.387  0.1532  3.2193  1.0308
   52CHL1   C27 3845   5.945   2.614   4.268 -0.4418 -0.2013 -0.0011
   52CHL1  H27A 3846   5.835   2.622   4.288 -1.0518 -1.4365 -2.5312
   52CHL1  H27B 3847   5.956   2.550   4.178 -0.2652  0.3147 -0.3524
   52CHL1  H27C 3848   6.005   2.585   4.357 -2.1428  2.9500  2.3889
   53CHL1    C3 3849   5.522   0.185   2.627 -0.0655 -0.4716 -0.0346
   53CHL1    H3 3850   5.422   0.136   2.619  0.6629 -2.1694  0.6645
   53CHL1    O3 3851   5.576   0.197   2.496  0.1232 -0.6098  0.8384
   53CHL1   H3' 3852   5.670   0.181   2.510 -0.1207 -0.3214  3.3641
   53CHL1    C4 3853   5.511   0.316   2.697  0.2095  0.4485 -0.5414
   53CHL1   H4A 3854   5.599   0.380   2.675  0.3732  0.0687 -1.0005
   53CHL1   H4B 3855   5.428   0.376   2.653 -1.9725 -2.1075 -0.1972
   53CHL1    C5 3856   5.499   0.328   2.847  0.2200  0.5608 -0.5019
   53CHL1    C6 3857   5.409   0.409   2.911 -0.0448  0.3337  0.7418
   53CHL1    H6 3858   5.343   0.472   2.849  0.0967  1.4219  1.6635
   53CHL1    C7 3859   5.386   0.425   3.061 -0.7215 -0.2187 -0.3587
   53CHL1   H7A 3860   5.381   0.534   3.080 -1.1639 -0.5153  1.3633
   53CHL1   H7B 3861   5.287   0.390   3.099 -0.1670 -0.9426  0.4674
   53CHL1    C8 3862   5.491   0.351   3.137  0.4185  0.1973  0.9130
   53CHL1    H8 3863   5.580   0.416   3.150  0.5001 -0.0405  1.5547
   53CHL1   C14 3864   5.436   0.322   3.274  0.4134 -0.3262  0.0361
   53CHL1   H14 3865   5.359   0.244   3.255 -0.0751  0.0293  0.5187
   53CHL1   C15 3866   5.355   0.433   3.354 -0.7640 -0.0572  0.4569
   53CHL1  H15A 3867   5.420   0.523   3.366 -0.4035  0.0548 -1.9424
   53CHL1  H15B 3868   5.254   0.457   3.317 -1.5505  0.3521  2.6731
   53CHL1   C16 3869   5.325   0.361   3.484 -0.4683 -0.1765 -0.2766
   53CHL1  H16A 3870   5.341   0.428   3.572 -0.6294 -1.2935  0.6203
   53CHL1  H16B 3871   5.222   0.320   3.488 -1.2008  1.6242  1.4820
   53CHL1   C17 3872   5.424   0.245   3.496 -0.4921 -0.0582  0.3245
   53CHL1   H17 3873   5.373   0.153   3.460 -1.0194  0.3829 -0.0961
   53CHL1   C13 3874   5.522   0.253   3.377  0.2207 -0.3212 -0.6327
   53CHL1   C18 3875   5.646   0.345   3.406 -0.8920 -0.2689 -0.0996
   53CHL1  H18A 3876   5.720   0.303   3.478 -0.1719 -0.5680 -0.9860
   53CHL1  H18B 3877   5.699   0.381   3.315 -0.4806  1.4922  0.7827
   53CHL1  H18C 3878   5.610   0.438   3.454 -0.1084  2.1375 -3.7854
   53CHL1   C12 3879   5.563   0.121   3.312 -0.9872  0.4940  0.3159
   53CHL1  H12A 3880   5.627   0.066   3.385 -0.2322 -0.2586 -0.8916
   53CHL1  H12B 3881   5.469   0.062   3.305 -0.6205 -0.0480 -0.0764
   53CHL1   C11 3882   5.632   0.140   3.180  0.2768  1.5583 -0.4829
   53CHL1  H11A 3883   5.722   0.201   3.204  0.8980 -0.6787  3.8223
   53CHL1  H11B 3884   5.663   0.043   3.133  1.4530  1.8362 -0.3140
   53CHL1    C9 3885   5.539   0.219   3.074  0.0716  0.4163 -0.1904
   53CHL1    H9 3886   5.447   0.158   3.064  1.9410 -2.5536 -0.8537
   53CHL1   C10 3887   5.589   0.231   2.925 -0.5183  0.0578  0.3473
   53CHL1   C19 3888   5.739   0.278   2.927  0.6120  0.0991 -0.0186
   53CHL1  H19A 3889   5.771   0.282   2.821  0.9591 -4.0362 -0.2450
   53CHL1  H19B 3890   5.756   0.372   2.984 -1.3506  0.0347  0.7392
   53CHL1  H19C 3891   5.798   0.200   2.980  0.4975  0.0854  0.0887
   53CHL1    C1 3892   5.571   0.091   2.856  0.3220 -0.4128  0.0710
   53CHL1   H1A 3893   5.640   0.028   2.915  0.7125  0.1982  0.2741
   53CHL1   H1B 3894   5.463   0.064   2.868  0.0937 -0.0841 -1.1123
   53CHL1    C2 3895   5.606   0.083   2.704  0.9225 -0.3699 -0.1192
   53CHL1   H2A 3896   5.599  -0.018   2.658 -0.2876 -0.3399 -0.0332
   53CHL1   H2B 3897   5.708   0.124   2.686  0.1384  1.2080 -1.2481
   53CHL1   C20 3898   5.477   0.200   3.629  0.5603  0.5582  0.0476
   53CHL1   H20 3899   5.570   0.147   3.599 -0.2212 -1.3465  0.8225
   53CHL1   C21 3900   5.372   0.098   3.692 -0.0195 -0.1417 -0.0199
   53CHL1  H21A 3901   5.276   0.152   3.703  0.9106  1.3462  1.3589
   53CHL1  H21B 3902   5.403   0.060   3.791 -0.1408  0.7619  0.3787
   53CHL1  H21C 3903   5.360   0.014   3.621  3.0353  1.4303 -2.6618
   53CHL1   C22 3904   5.517   0.303   3.737  0.0323  0.2147 -0.1556
   53CHL1  H22A 3905   5.560   0.385   3.675  0.5924 -1.2003 -1.7068
   53CHL1  H22B 3906   5.421   0.325   3.787  0.3877 -2.4541  1.8996
   53CHL1   C23 3907   5.601   0.263   3.858 -0.5813 -0.3136 -1.1955
   53CHL1  H23A 3908   5.554   0.180   3.916  0.5933  0.8498  1.6175
   53CHL1  H23B 3909   5.703   0.236   3.823 -0.6437 -0.0955 -1.5405
   53CHL1   C24 3910   5.603   0.382   3.958 -0.0677  0.6049 -0.4265
   53CHL1  H24A 3911   5.659   0.465   3.910  0.1774  0.6185 -0.1209
   53CHL1  H24B 3912   5.497   0.412   3.973 -0.6012 -2.1657  2.5173
   53CHL1   C25 3913   5.667   0.358   4.098 -0.2809  0.0449  0.2473
   53CHL1   H25 3914   5.688   0.455   4.147  2.0994  0.3918 -1.3092
   53CHL1   C26 3915   5.577   0.268   4.188 -0.1062  0.3075 -0.4390
   53CHL1  H26A 3916   5.477   0.315   4.203  0.3844  1.5948 -1.0320
   53CHL1  H26B 3917   5.574   0.176   4.126  0.6504  0.1800 -0.3011
   53CHL1  H26C 3918   5.627   0.244   4.284 -0.4140 -1.0644 -0.6078
   53CHL1   C27 3919   5.805   0.286   4.081 -0.8622  1.1380  1.2347
   53CHL1  H27A 3920   5.863   0.337   4.001  0.4582  0.4053  1.6937
   53CHL1  H27B 3921   5.864   0.293   4.175  2.7462  0.6818 -0.8006
   53CHL1  H27C 3922   5.797   0.180   4.049  1.2690  1.2871  0.0446
   54CHL1    C3 3923   6.245   0.908   2.608 -0.5796 -0.2681 -0.3164
   54CHL1    H3 3924   6.159   0.959   2.560  0.1290  0.3642 -0.9442
   54CHL1    O3 3925   6.308   0.853   2.493  0.2258  0.1054 -0.3422
   54CHL1   H3' 3926   6.382   0.805   2.530  1.7294  2.2722 -0.4235
   54CHL1    C4 3927   6.337   1.006   2.668 -0.2810  0.2873 -0.0266
   54CHL1   H4A 3928   6.437   0.957   2.677  0.0108  0.8609 -0.0736
   54CHL1   H4B 3929   6.348   1.072   2.579  0.0091 -0.4341 -0.5344
   54CHL1    C5 3930   6.288   1.072   2.792 -0.3442 -0.1898 -0.2674
   54CHL1    C6 3931   6.281   1.205   2.809  0.2234  0.2644 -0.8634
   54CHL1    H6 3932   6.309   1.274   2.728  1.7996 -0.3509 -0.8846
   54CHL1    C7 3933   6.241   1.272   2.937  0.1227  0.8663 -0.8768
   54CHL1   H7A 3934   6.309   1.357   2.957  0.3996  0.8339 -1.6257
   54CHL1   H7B 3935   6.142   1.318   2.921 -0.3399 -0.0694 -0.7466
   54CHL1    C8 3936   6.251   1.176   3.051 -0.0577  0.4047 -0.0326
   54CHL1    H8 3937   6.355   1.142   3.066 -0.4409 -2.0388 -2.1398
   54CHL1   C14 3938   6.199   1.243   3.183  0.3644 -0.0005  0.1041
   54CHL1   H14 3939   6.091   1.251   3.161  0.7441  2.8695 -1.0925
   54CHL1   C15 3940   6.237   1.389   3.216  0.0468 -0.2719 -0.3591
   54CHL1  H15A 3941   6.336   1.436   3.203 -0.0293  0.0861  0.3061
   54CHL1  H15B 3942   6.173   1.460   3.158 -0.9339 -0.6313  0.2496
   54CHL1   C16 3943   6.215   1.393   3.365  0.2897  0.0027 -0.3251
   54CHL1  H16A 3944   6.315   1.417   3.406  0.6831  1.2257 -1.9142
   54CHL1  H16B 3945   6.148   1.480   3.383  1.6773  0.7767  1.4698
   54CHL1   C17 3946   6.143   1.264   3.417  0.6335  0.4880  0.0367
   54CHL1   H17 3947   6.033   1.273   3.403  0.1221 -2.3000  1.6031
   54CHL1   C13 3948   6.191   1.158   3.312 -0.0528  0.5295  0.2077
   54CHL1   C18 3949   6.337   1.117   3.349  0.1766  0.4277 -1.0328
   54CHL1  H18A 3950   6.383   1.053   3.270  2.0405 -2.3330  2.0276
   54CHL1  H18B 3951   6.402   1.207   3.341  1.4306 -0.4869 -1.5553
   54CHL1  H18C 3952   6.333   1.069   3.448 -0.2924  1.4976 -0.5195
   54CHL1   C12 3953   6.112   1.028   3.272  0.2073 -0.3292 -0.4259
   54CHL1  H12A 3954   6.124   0.956   3.356  2.4434 -0.1882 -0.5596
   54CHL1  H12B 3955   6.005   1.056   3.264  0.6610  1.9156  0.6458
   54CHL1   C11 3956   6.162   0.954   3.149  0.2934  0.6185  0.7655
   54CHL1  H11A 3957   6.260   0.910   3.177 -1.0761 -0.8698  3.7440
   54CHL1  H11B 3958   6.093   0.870   3.125  0.8957  0.3185  0.0625
   54CHL1    C9 3959   6.173   1.043   3.020 -0.4535 -0.7467  0.0309
   54CHL1    H9 3960   6.071   1.079   2.992  1.3402  2.6932 -2.8454
   54CHL1   C10 3961   6.244   0.975   2.905  0.0439  1.2595  0.2881
   54CHL1   C19 3962   6.373   0.894   2.953  0.2101  0.0367 -0.4084
   54CHL1  H19A 3963   6.346   0.808   3.017 -0.2385 -0.1690 -0.8670
   54CHL1  H19B 3964   6.433   0.860   2.866  1.8760 -0.7482  0.9913
   54CHL1  H19C 3965   6.435   0.970   3.006  1.0069 -1.1337  0.3685
   54CHL1    C1 3966   6.151   0.871   2.846 -0.1172  0.4412  0.3583
   54CHL1   H1A 3967   6.138   0.786   2.916  1.4310 -0.2656 -0.1543
   54CHL1   H1B 3968   6.050   0.910   2.820 -0.9295 -2.5335 -1.4442
   54CHL1    C2 3969   6.198   0.804   2.713  0.6005  0.6744  0.4104
   54CHL1   H2A 3970   6.122   0.745   2.657  0.6317  1.0007  0.0196
   54CHL1   H2B 3971   6.280   0.731   2.732  0.7469 -0.2342 -3.0908
   54CHL1   C20 3972   6.156   1.238   3.562 -0.1005 -0.1864 -0.2891
   54CHL1   H20 3973   6.261   1.215   3.590  0.0490 -0.0068 -0.6942
   54CHL1   C21 3974   6.076   1.116   3.611 -0.0888 -0.1288  0.2268
   54CHL1  H21A 3975   6.100   1.019   3.563 -0.5833  0.1497 -0.6186
   54CHL1  H21B 3976   5.967   1.138   3.603 -0.1230  0.3304  1.6685
   54CHL1  H21C 3977   6.086   1.097   3.719 -1.0732 -1.5865  0.0888
   54CHL1   C22 3978   6.113   1.357   3.652  0.0029  0.1452 -0.5394
   54CHL1  H22A 3979   6.147   1.456   3.616  1.4392 -0.0817  0.1263
   54CHL1  H22B 3980   6.003   1.355   3.643  0.0646  0.8229 -1.7190
   54CHL1   C23 3981   6.147   1.362   3.801  0.3994  0.5844  0.2875
   54CHL1  H23A 3982   6.065   1.423   3.843 -0.6604 -2.1244  2.4508
   54CHL1  H23B 3983   6.126   1.262   3.845 -3.1225  0.5648 -1.0859
   54CHL1   C24 3984   6.289   1.413   3.816 -0.1677  0.3569 -0.0475
   54CHL1  H24A 3985   6.353   1.350   3.750 -1.4430 -2.4077  1.1867
   54CHL1  H24B 3986   6.292   1.511   3.764  0.3501  0.2626 -0.1965
   54CHL1   C25 3987   6.346   1.432   3.957  0.1317  0.6738 -0.0469
   54CHL1   H25 3988   6.273   1.481   4.025 -0.5379  0.1488 -0.3759
   54CHL1   C26 3989   6.391   1.300   4.020  0.3785  0.1002  0.8410
   54CHL1  H26A 3990   6.451   1.247   3.943  1.0122  0.4961  1.0537
   54CHL1  H26B 3991   6.449   1.324   4.112  0.8753 -0.5321  0.6945
   54CHL1  H26C 3992   6.304   1.237   4.047  0.2422  0.2398  0.7314
   54CHL1   C27 3993   6.470   1.524   3.955  0.6001 -0.8239 -0.4955
   54CHL1  H27A 3994   6.503   1.552   4.058 -0.9851 -0.6717  0.0002
   54CHL1  H27B 3995   6.553   1.462   3.916  1.7323 -0.2026  0.8166
   54CHL1  H27C 3996   6.452   1.611   3.890 -0.7288 -0.2169  0.6447
   55CHL1    C3 3997   3.633   5.439   2.675  0.4228  0.2599  0.0547
   55CHL1    H3 3998   3.551   5.491   2.729  0.6674  1.3894 -0.6293
   55CHL1    O3 3999   3.614   5.457   2.540 -0.1404 -0.2626 -0.5917
   55CHL1   H3' 4000   3.703   5.476   2.509  0.4874 -0.8578  0.7648
   55CHL1    C4 4001   3.763   5.510   2.720  0.3649  0.2112  0.9569
   55CHL1   H4A 4002   3.849   5.459   2.672 -0.9839 -0.2852 -1.0756
   55CHL1   H4B 4003   3.745   5.613   2.682  1.8889  0.9674  2.1520
   55CHL1    C5 4004   3.777   5.492   2.874  0.2497 -0.0102 -0.1286
   55CHL1    C6 4005   3.791   5.597   2.947 -0.2035  0.1643 -0.2648
   55CHL1    H6 4006   3.792   5.700   2.908  0.3975  1.6669  3.3588
   55CHL1    C7 4007   3.815   5.587   3.098  0.4105 -0.7700 -0.2213
   55CHL1   H7A 4008   3.889   5.665   3.125 -0.0596  0.0170 -1.1391
   55CHL1   H7B 4009   3.724   5.618   3.154  0.4834  0.6308 -0.8263
   55CHL1    C8 4010   3.857   5.443   3.140 -0.5021 -0.0608 -0.1356
   55CHL1    H8 4011   3.964   5.429   3.113 -0.5178 -2.3848  0.7951
   55CHL1   C14 4012   3.846   5.437   3.290  0.0700  0.4427 -0.6306
   55CHL1   H14 4013   3.742   5.461   3.320  0.3965  1.4411 -0.2438
   55CHL1   C15 4014   3.920   5.551   3.366 -0.4517 -0.0491 -0.1825
   55CHL1  H15A 4015   4.013   5.570   3.308  0.9235 -2.4778  1.0739
   55CHL1  H15B 4016   3.854   5.640   3.374 -0.7538 -0.2495 -0.4379
   55CHL1   C16 4017   3.944   5.494   3.509  0.4172  0.7250 -0.2174
   55CHL1  H16A 4018   4.054   5.502   3.520  0.6425 -0.9166 -0.9156
   55CHL1  H16B 4019   3.904   5.557   3.591 -0.7906 -0.8421  0.4674
   55CHL1   C17 4020   3.890   5.345   3.515  0.9083 -0.4396 -0.2893
   55CHL1   H17 4021   3.781   5.362   3.531  0.3990 -1.4031 -2.3355
   55CHL1   C13 4022   3.887   5.306   3.361 -0.8739 -0.1092  0.0017
   55CHL1   C18 4023   4.036   5.264   3.328  0.6250 -0.9487 -0.1764
   55CHL1  H18A 4024   4.040   5.159   3.366 -0.9108 -0.8960  0.2150
   55CHL1  H18B 4025   4.062   5.261   3.220  0.1142 -0.1552 -0.3236
   55CHL1  H18C 4026   4.109   5.331   3.379  1.1887 -1.6270 -0.0669
   55CHL1   C12 4027   3.789   5.198   3.309 -0.3848  0.2694  0.2662
   55CHL1  H12A 4028   3.830   5.101   3.343 -0.1038  0.9618  2.0398
   55CHL1  H12B 4029   3.689   5.206   3.357 -1.8713 -1.9672 -2.1681
   55CHL1   C11 4030   3.786   5.198   3.152 -0.6145 -0.3732  0.0484
   55CHL1  H11A 4031   3.890   5.170   3.122  0.0098  1.5449  0.2380
   55CHL1  H11B 4032   3.718   5.118   3.117 -1.1879 -0.2624  0.8820
   55CHL1    C9 4033   3.764   5.337   3.087 -0.1219  0.3497  0.0612
   55CHL1    H9 4034   3.666   5.355   3.136  1.2758  1.0597  2.7562
   55CHL1   C10 4035   3.762   5.342   2.932 -0.3243  0.2224  0.7313
   55CHL1   C19 4036   3.880   5.265   2.878 -0.6430  0.8011  0.0510
   55CHL1  H19A 4037   3.872   5.154   2.882  0.5082  0.7265  0.3995
   55CHL1  H19B 4038   3.892   5.284   2.769 -0.3165  2.0360  0.2853
   55CHL1  H19C 4039   3.974   5.288   2.932  0.7558 -2.0116 -0.9852
   55CHL1    C1 4040   3.637   5.272   2.874 -0.3990  0.1705  0.4049
   55CHL1   H1A 4041   3.627   5.164   2.901  0.2544  0.2830  1.1283
   55CHL1   H1B 4042   3.552   5.324   2.922  0.0343  2.0569 -0.7924
   55CHL1    C2 4043   3.638   5.291   2.723 -0.1582  0.1698  0.0297
   55CHL1   H2A 4044   3.544   5.251   2.679  0.7290 -1.5001 -0.4311
   55CHL1   H2B 4045   3.721   5.238   2.671  0.1069  0.7172 -0.1052
   55CHL1   C20 4046   3.932   5.251   3.626 -0.2661  0.4774 -0.1880
   55CHL1   H20 4047   4.038   5.218   3.617 -0.9622 -1.8358 -0.5291
   55CHL1   C21 4048   3.841   5.132   3.622 -0.7710 -0.4520  0.6406
   55CHL1  H21A 4049   3.870   5.056   3.546 -1.1328  0.6648 -0.6679
   55CHL1  H21B 4050   3.737   5.165   3.599 -1.1123 -0.6859  1.7714
   55CHL1  H21C 4051   3.842   5.071   3.715 -0.8317 -0.5913  0.5509
   55CHL1   C22 4052   3.927   5.324   3.764 -0.2525 -0.2215 -0.6123
   55CHL1  H22A 4053   3.988   5.276   3.843  0.2482  0.8729 -0.3165
   55CHL1  H22B 4054   3.969   5.427   3.759 -2.5057  0.7194 -1.3559
   55CHL1   C23 4055   3.795   5.339   3.822  0.4899  0.6076  0.2381
   55CHL1  H23A 4056   3.730   5.374   3.739  0.6355  0.4683  0.0625
   55CHL1  H23B 4057   3.755   5.240   3.855  0.3089  0.3765 -0.6463
   55CHL1   C24 4058   3.799   5.428   3.946  0.2575  0.3879  0.0279
   55CHL1  H24A 4059   3.887   5.404   4.009 -0.1719  0.8466  0.8118
   55CHL1  H24B 4060   3.827   5.531   3.914 -2.1345  1.0732 -0.0341
   55CHL1   C25 4061   3.662   5.437   4.017 -0.8813 -0.6471  0.2883
   55CHL1   H25 4062   3.635   5.336   4.053 -2.7803 -0.3471 -0.2037
   55CHL1   C26 4063   3.684   5.528   4.142  0.2335 -0.5053 -0.0404
   55CHL1  H26A 4064   3.694   5.638   4.126 -1.2700 -0.2139  0.8395
   55CHL1  H26B 4065   3.588   5.518   4.197 -0.1120 -1.4560 -0.7911
   55CHL1  H26C 4066   3.759   5.484   4.211  0.3703 -1.3817 -0.7328
   55CHL1   C27 4067   3.551   5.493   3.922 -0.7897 -0.3299  0.1778
   55CHL1  H27A 4068   3.528   5.418   3.843  1.5515 -1.6196  0.6213
   55CHL1  H27B 4069   3.461   5.525   3.978  0.2934  2.4376  0.5017
   55CHL1  H27C 4070   3.583   5.584   3.869 -2.1256  0.0610 -0.0002
   56CHL1    C3 4071   3.925   2.701   2.406 -0.4844 -0.4985  0.5547
   56CHL1    H3 4072   3.830   2.758   2.413 -1.2570 -1.7526  0.5907
   56CHL1    O3 4073   3.960   2.702   2.267  0.1530 -0.3487 -0.1070
   56CHL1   H3' 4074   3.887   2.655   2.227  0.8197 -0.9362 -0.6819
   56CHL1    C4 4075   4.035   2.771   2.472  0.0935  0.9895 -0.0333
   56CHL1   H4A 4076   4.127   2.720   2.436 -2.4201 -1.8990 -3.0070
   56CHL1   H4B 4077   4.038   2.869   2.420 -0.1760 -0.6277 -3.3119
   56CHL1    C5 4078   4.019   2.785   2.624 -0.1938 -0.5712 -0.3939
   56CHL1    C6 4079   4.013   2.909   2.677 -1.0833  0.3995  0.1165
   56CHL1    H6 4080   4.023   2.993   2.607 -0.9367 -1.3931 -2.1382
   56CHL1    C7 4081   3.996   2.922   2.825 -0.1212 -0.6011 -0.4846
   56CHL1   H7A 4082   4.080   2.980   2.868 -2.3963  1.3563  1.6183
   56CHL1   H7B 4083   3.901   2.978   2.838 -0.3544 -1.2650  0.8335
   56CHL1    C8 4084   3.994   2.795   2.900 -0.0856 -0.3398  0.7920
   56CHL1    H8 4085   4.100   2.772   2.923  0.3722  1.1452  0.2486
   56CHL1   C14 4086   3.917   2.819   3.039 -0.0614  0.6136  0.4626
   56CHL1   H14 4087   3.810   2.830   3.011 -1.0848 -2.2415  2.8088
   56CHL1   C15 4088   3.945   2.951   3.125 -0.2907 -1.0693  0.0124
   56CHL1  H15A 4089   4.054   2.974   3.116  0.2862 -4.0088 -1.6786
   56CHL1  H15B 4090   3.888   3.038   3.085  1.9367 -0.2881 -1.6955
   56CHL1   C16 4091   3.906   2.917   3.268  0.4007 -0.4073  1.1657
   56CHL1  H16A 4092   3.986   2.916   3.345  1.3679 -1.2162  0.1856
   56CHL1  H16B 4093   3.824   2.987   3.295  0.1939 -0.2611  0.2090
   56CHL1   C17 4094   3.854   2.767   3.262 -0.1292  0.2553  0.1579
   56CHL1   H17 4095   3.745   2.770   3.240 -0.0527  1.7799 -0.0708
   56CHL1   C13 4096   3.928   2.699   3.139 -0.6345 -0.2437  0.5446
   56CHL1   C18 4097   4.080   2.668   3.182 -0.0482 -0.6827 -0.1674
   56CHL1  H18A 4098   4.130   2.765   3.205 -1.0486 -0.3826  0.8088
   56CHL1  H18B 4099   4.095   2.602   3.270  1.2096  1.6205  1.4865
   56CHL1  H18C 4100   4.149   2.630   3.104  1.1333 -0.7750  0.8771
   56CHL1   C12 4101   3.857   2.579   3.065 -0.0028  0.3773  0.3711
   56CHL1  H12A 4102   3.856   2.491   3.133 -0.3710  1.1178  1.3637
   56CHL1  H12B 4103   3.752   2.617   3.061  0.6706  2.3090 -0.0734
   56CHL1   C11 4104   3.924   2.556   2.931  0.8097  0.8440 -0.3525
   56CHL1  H11A 4105   4.025   2.515   2.951 -1.7791 -4.7590  3.5823
   56CHL1  H11B 4106   3.860   2.480   2.882 -0.3072  0.9809  0.8521
   56CHL1    C9 4107   3.931   2.673   2.839  0.4445 -0.7912  0.3177
   56CHL1    H9 4108   3.830   2.714   2.816  0.0387 -1.0674  1.5553
   56CHL1   C10 4109   3.987   2.649   2.696  0.6677  0.2216  0.1289
   56CHL1   C19 4110   4.124   2.577   2.697  0.4533  0.1174  0.1323
   56CHL1  H19A 4111   4.153   2.557   2.592  0.0825 -1.8684  0.3648
   56CHL1  H19B 4112   4.195   2.637   2.757  0.4614 -0.6386  0.9017
   56CHL1  H19C 4113   4.117   2.474   2.740  0.5247  0.1205  0.1512
   56CHL1    C1 4114   3.891   2.555   2.616  0.3601  0.2568  0.3818
   56CHL1   H1A 4115   3.876   2.457   2.666 -0.2678  0.7446  1.1969
   56CHL1   H1B 4116   3.788   2.596   2.613  0.5507  0.6867 -0.7562
   56CHL1    C2 4117   3.923   2.560   2.464 -0.8160  0.6140 -0.1654
   56CHL1   H2A 4118   3.846   2.501   2.410 -1.6476  1.7386 -0.2251
   56CHL1   H2B 4119   4.015   2.506   2.433 -1.4549 -2.7025  3.0095
   56CHL1   C20 4120   3.873   2.700   3.403 -0.0984 -0.0160  0.1852
   56CHL1   H20 4121   3.981   2.703   3.428 -0.0519 -0.5839  0.0679
   56CHL1   C21 4122   3.824   2.553   3.399  0.8801 -0.1131  0.3768
   56CHL1  H21A 4123   3.892   2.482   3.348  2.4455  1.2189  0.5226
   56CHL1  H21B 4124   3.724   2.549   3.350  1.1115 -1.2889 -0.0308
   56CHL1  H21C 4125   3.821   2.522   3.506 -0.7273 -0.6116  0.2093
   56CHL1   C22 4126   3.803   2.778   3.519  0.0707 -0.4443 -0.2019
   56CHL1  H22A 4127   3.854   2.877   3.518 -0.0289 -0.3384  1.9729
   56CHL1  H22B 4128   3.695   2.787   3.495 -0.1515  2.0597  1.3491
   56CHL1   C23 4129   3.809   2.739   3.665  0.2549  0.4947  0.5696
   56CHL1  H23A 4130   3.740   2.652   3.676 -3.0417  2.8777 -0.0034
   56CHL1  H23B 4131   3.911   2.718   3.705  0.9995  1.7421 -0.5958
   56CHL1   C24 4132   3.767   2.850   3.759  0.7783  0.7956 -0.3535
   56CHL1  H24A 4133   3.820   2.946   3.741 -2.8193  3.2684  1.0623
   56CHL1  H24B 4134   3.660   2.870   3.737  0.2355 -2.3450 -1.0177
   56CHL1   C25 4135   3.783   2.817   3.910 -0.1169 -0.4619 -0.2817
   56CHL1   H25 4136   3.870   2.749   3.923  0.6636  0.5120 -0.2471
   56CHL1   C26 4137   3.802   2.947   3.994  0.3401 -0.5057  1.2557
   56CHL1  H26A 4138   3.713   3.014   3.993  1.2702  0.7966 -1.0369
   56CHL1  H26B 4139   3.821   2.921   4.100  0.2631 -1.5439  1.0332
   56CHL1  H26C 4140   3.893   3.000   3.958  1.3634 -0.4469  3.7384
   56CHL1   C27 4141   3.669   2.733   3.967  0.5852  0.4989  0.2837
   56CHL1  H27A 4142   3.572   2.787   3.971  0.0930  0.0688 -2.8468
   56CHL1  H27B 4143   3.666   2.639   3.908 -0.0494 -0.3870  1.6687
   56CHL1  H27C 4144   3.694   2.687   4.065  1.9341 -1.1873 -0.8007
   57SAPC     N 4145   4.387   1.733   6.995  0.3037 -0.8747 -0.1981
   57SAPC   C12 4146   4.393   1.656   6.864  0.1657 -0.7587  0.1036
   57SAPC  H12A 4147   4.408   1.730   6.786 -3.4342 -0.2525 -0.2784
   57SAPC  H12B 4148   4.295   1.615   6.847 -0.2546 -0.4004  1.5661
   57SAPC   C13 4149   4.353   1.641   7.109 -0.7475  1.0347  0.2533
   57SAPC  H13A 4150   4.371   1.701   7.197  1.7769 -1.1009  1.3482
   57SAPC  H13B 4151   4.252   1.605   7.102 -0.7408  0.9876  0.4042
   57SAPC  H13C 4152   4.424   1.560   7.111 -2.3402 -0.4206  0.1821
   57SAPC   C14 4153   4.522   1.803   7.017  0.7232  0.5447  0.2341
   57SAPC  H14A 4154   4.529   1.848   7.115  0.9752 -1.8281  1.4024
   57SAPC  H14B 4155   4.601   1.734   6.991  0.0193 -0.3182  0.3134
   57SAPC  H14C 4156   4.528   1.881   6.943  1.4690  0.4925  0.2361
   57SAPC   C15 4157   4.285   1.840   6.980 -0.9908  0.0578 -0.3239
   57SAPC  H15A 4158   4.279   1.896   7.072  0.4223  0.7005 -0.6069
   57SAPC  H15B 4159   4.301   1.913   6.903  0.8008  0.6382  0.5439
   57SAPC  H15C 4160   4.184   1.801   6.981 -0.3757 -1.6588 -1.3977
   57SAPC   C11 4161   4.492   1.546   6.852  0.0112 -0.2206  0.3782
   57SAPC  H11A 4162   4.480   1.491   6.756 -1.0080 -0.3685  0.5759
   57SAPC  H11B 4163   4.474   1.467   6.928 -0.5184  1.2019  1.7907
   57SAPC     P 4164   4.700   1.665   6.743 -0.1930  0.3300  0.4799
   57SAPC   O13 4165   4.779   1.779   6.803 -0.4296  0.7982 -0.1050
   57SAPC   O14 4166   4.776   1.566   6.668 -0.4017 -0.4595 -0.1781
   57SAPC   O12 4167   4.629   1.587   6.864 -0.3609 -0.2135  0.2741
   57SAPC   O11 4168   4.590   1.727   6.645 -0.1388  0.2355  0.1151
   57SAPC    C1 4169   4.617   1.828   6.553 -0.5557  0.0348  0.7538
   57SAPC    HA 4170   4.527   1.892   6.538 -1.3597 -1.0058  1.0298
   57SAPC    HB 4171   4.698   1.899   6.581  1.3195 -2.3821  1.8683
   57SAPC    C2 4172   4.642   1.764   6.410 -0.1173  0.0445 -0.5353
   57SAPC    HS 4173   4.648   1.654   6.426 -1.1879  0.0922  0.3708
   57SAPC   O21 4174   4.759   1.829   6.355 -0.2943  0.0515 -0.1309
   57SAPC   C21 4175   4.853   1.747   6.310 -0.3481 -0.0333 -0.2872
   57SAPC   O22 4176   4.839   1.626   6.308 -0.0810  0.1939  0.1891
   57SAPC   C22 4177   4.973   1.830   6.263  0.1688  0.0959 -0.0315
   57SAPC   H2R 4178   4.927   1.922   6.222  0.2175  0.6143  1.0512
   57SAPC   H2S 4179   5.034   1.849   6.354  1.4150  0.8475 -1.0020
   57SAPC    C3 4180   4.521   1.788   6.311 -0.0931  0.2935  0.4536
   57SAPC    HX 4181   4.523   1.899   6.315  1.3822  0.2971  0.2483
   57SAPC    HY 4182   4.434   1.739   6.361  1.2569 -2.7754  0.0182
   57SAPC   O31 4183   4.546   1.736   6.177 -0.1388  0.1246 -0.5160
   57SAPC   C31 4184   4.548   1.606   6.172 -0.1772  0.5011  0.6328
   57SAPC   O32 4185   4.501   1.525   6.251  0.0658  0.2587  0.0034
   57SAPC   C32 4186   4.595   1.564   6.032  0.0717 -0.2125  0.4073
   57SAPC   H2X 4187   4.619   1.456   6.020 -0.4043 -0.2090 -0.7690
   57SAPC   H2Y 4188   4.687   1.623   6.014 -0.0617  0.3684  1.4988
   57SAPC   C23 4189   5.056   1.751   6.160 -1.0214  0.1207  0.1949
   57SAPC   H3R 4190   5.076   1.653   6.209  0.4615 -0.5170 -1.5757
   57SAPC   H3S 4191   5.155   1.802   6.155 -0.3726 -0.9260  1.6193
   57SAPC   C24 4192   4.994   1.739   6.020 -0.4366 -0.3666  0.0522
   57SAPC   H4R 4193   4.964   1.839   5.980  0.4897 -0.2413 -0.3662
   57SAPC   H4S 4194   4.892   1.698   6.016 -1.5382  2.2011 -0.5001
   57SAPC   C25 4195   5.078   1.659   5.914  0.7638  0.0593 -0.8319
   57SAPC   H5R 4196   5.157   1.601   5.963  0.0525  0.0190  0.2895
   57SAPC   C26 4197   5.059   1.658   5.779  0.2653  0.2378  0.0934
   57SAPC   H6R 4198   5.113   1.586   5.715 -0.4209 -0.5297  0.3584
   57SAPC   C27 4199   4.941   1.715   5.704  0.8158 -0.5783  0.4131
   57SAPC   H7R 4200   4.983   1.797   5.642 -3.8094  1.0200 -0.9873
   57SAPC   H7S 4201   4.867   1.756   5.775  0.3336 -0.8850  0.0933
   57SAPC   C28 4202   4.873   1.616   5.616 -0.4027 -0.2373  0.5100
   57SAPC   H8R 4203   4.842   1.520   5.659 -1.9633 -0.3364 -0.7445
   57SAPC   C29 4204   4.852   1.612   5.481  0.3374 -0.0884 -0.1365
   57SAPC   H9R 4205   4.807   1.520   5.440  1.5405 -1.0589  0.6716
   57SAPC  C210 4206   4.888   1.723   5.382  0.3232 -0.1918 -0.1349
   57SAPC  H10R 4207   4.926   1.811   5.438  0.3041 -1.4871  2.0700
   57SAPC  H10S 4208   4.794   1.748   5.329 -0.5524 -2.7252  0.1003
   57SAPC  C211 4209   4.985   1.687   5.276 -0.3379 -0.0691 -1.0134
   57SAPC  H11R 4210   5.090   1.694   5.307 -1.2476  0.7031  2.2954
   57SAPC  C212 4211   4.956   1.654   5.147 -0.3453  0.9002 -0.3357
   57SAPC  H12R 4212   5.048   1.641   5.087 -0.0794  1.2955 -0.0243
   57SAPC  C213 4213   4.822   1.649   5.078 -0.1188 -0.5484 -0.3435
   57SAPC  H13R 4214   4.768   1.740   5.113  0.6091  0.0423 -0.7055
   57SAPC  H13S 4215   4.756   1.564   5.105  0.5675 -0.6354  1.1514
   57SAPC  C214 4216   4.847   1.650   4.924 -0.3753  0.6179 -0.8318
   57SAPC  H14R 4217   4.884   1.555   4.882  0.4571  0.2460  0.6955
   57SAPC  C215 4218   4.829   1.751   4.832 -0.6155 -0.5147  0.1722
   57SAPC  H15R 4219   4.843   1.717   4.729 -0.0861  0.0490  0.0536
   57SAPC  C216 4220   4.803   1.896   4.877 -0.6576  0.4924 -0.3207
   57SAPC  H16R 4221   4.865   1.915   4.968 -2.1744  0.7410  0.6966
   57SAPC  H16S 4222   4.697   1.903   4.909 -0.0985  0.2130  1.7418
   57SAPC  C217 4223   4.837   1.998   4.760  0.1343  0.3463  0.1129
   57SAPC  H17R 4224   4.940   1.988   4.722  1.0087  1.5705  2.0207
   57SAPC  H17S 4225   4.846   2.104   4.794  1.2853 -0.0573  1.1479
   57SAPC  C218 4226   4.757   1.968   4.632 -0.0870  0.0618  0.2190
   57SAPC  H18R 4227   4.774   1.867   4.591  0.2808  1.7836 -4.4189
   57SAPC  H18S 4228   4.793   2.034   4.551  1.4761 -1.5702 -0.4881
   57SAPC  C219 4229   4.602   1.989   4.644  0.7090 -0.2802  1.0887
   57SAPC  H19R 4230   4.576   2.096   4.660  0.4568 -0.3124  0.8825
   57SAPC  H19S 4231   4.555   1.941   4.733 -1.1258  1.0208  0.8724
   57SAPC  C220 4232   4.533   1.942   4.516  0.0785  0.1989  0.3071
   57SAPC  H20R 4233   4.572   1.986   4.422 -0.2217  2.0533  1.0177
   57SAPC  H20S 4234   4.422   1.954   4.510  0.0657 -0.3483 -0.6697
   57SAPC  H20T 4235   4.562   1.835   4.507  1.5840  0.6603 -0.6213
   57SAPC   C33 4236   4.486   1.603   5.923 -0.0284  0.0453 -0.2222
   57SAPC   H3X 4237   4.440   1.701   5.950 -0.3654 -0.1528 -0.0731
   57SAPC   H3Y 4238   4.408   1.524   5.928  0.7484 -0.7076  0.0059
   57SAPC   C34 4239   4.550   1.611   5.782 -0.1162  0.3791  0.2567
   57SAPC   H4X 4240   4.600   1.513   5.764  0.1739  0.6705 -0.5834
   57SAPC   H4Y 4241   4.628   1.690   5.782  0.1829  0.0858  0.5940
   57SAPC   C35 4242   4.444   1.628   5.679 -0.2837 -0.0517  0.5270
   57SAPC   H5X 4243   4.386   1.723   5.688 -0.5951 -0.2773  0.9236
   57SAPC   H5Y 4244   4.367   1.548   5.675  1.6010 -2.0301  1.9554
   57SAPC   C36 4245   4.506   1.635   5.536 -0.0767  0.1097 -1.0666
   57SAPC   H6X 4246   4.521   1.530   5.504 -2.6270 -0.7233  0.1282
   57SAPC   H6Y 4247   4.597   1.698   5.542 -0.6060  0.7301  2.2550
   57SAPC   C37 4248   4.407   1.702   5.441  0.3054 -0.1790 -0.4678
   57SAPC   H7X 4249   4.383   1.809   5.460  1.2769  0.1944 -1.2646
   57SAPC   H7Y 4250   4.313   1.644   5.458  0.1479 -0.3039 -1.6774
   57SAPC   C38 4251   4.449   1.703   5.293  0.0537 -0.4603 -0.4389
   57SAPC   H8X 4252   4.499   1.605   5.279 -1.6678 -2.0821  3.3001
   57SAPC   H8Y 4253   4.525   1.783   5.287  1.5560 -1.5679  1.8774
   57SAPC   C39 4254   4.331   1.725   5.198 -0.6181 -0.0028  0.4895
   57SAPC   H9X 4255   4.268   1.811   5.228 -0.6419  1.2560 -2.7094
   57SAPC   H9Y 4256   4.274   1.630   5.213  0.6295 -0.9367 -0.4318
   57SAPC  C310 4257   4.368   1.731   5.046 -0.6264 -0.0444 -0.1517
   57SAPC  H10X 4258   4.432   1.644   5.020 -1.1265 -0.5636  0.3208
   57SAPC  H10Y 4259   4.435   1.819   5.035  2.2023 -1.8418  1.4318
   57SAPC  C311 4260   4.247   1.744   4.951 -0.1994  0.3954 -0.4552
   57SAPC  H11X 4261   4.226   1.853   4.949  0.7080  0.5939  0.0055
   57SAPC  H11Y 4262   4.169   1.677   4.993  1.2742 -0.1483  1.6124
   57SAPC  C312 4263   4.289   1.717   4.809 -0.8632 -0.2371  0.1477
   57SAPC  H12X 4264   4.357   1.629   4.806  2.7810  2.2234  2.1392
   57SAPC  H12Y 4265   4.362   1.795   4.779 -0.7510  0.2842  1.6684
   57SAPC  C313 4266   4.167   1.721   4.713 -0.5404  0.0289 -0.3268
   57SAPC  H13X 4267   4.084   1.784   4.753  0.5609  1.2886  0.0149
   57SAPC  H13Y 4268   4.135   1.614   4.710 -0.3759 -0.0126 -0.5940
   57SAPC  C314 4269   4.199   1.754   4.572  0.1576 -0.2715  0.4105
   57SAPC  H14X 4270   4.291   1.698   4.543 -0.3384 -0.2450 -1.2999
   57SAPC  H14Y 4271   4.223   1.863   4.574  2.0229 -0.6485  1.9700
   57SAPC  C315 4272   4.089   1.719   4.476 -0.2715  0.5144  0.7003
   57SAPC  H15X 4273   4.077   1.608   4.484  1.1995  0.3389  0.7031
   57SAPC  H15Y 4274   4.129   1.716   4.372  0.0889 -1.7229  0.8517
   57SAPC  C316 4275   3.963   1.802   4.483 -0.0104  0.3768 -0.1616
   57SAPC  H16X 4276   3.997   1.904   4.456 -2.2221  1.1525 -0.2209
   57SAPC  H16Y 4277   3.912   1.809   4.581 -0.7862  2.3891 -0.6562
   57SAPC  C317 4278   3.857   1.765   4.377  0.4193  0.3357 -0.0130
   57SAPC  H17X 4279   3.840   1.655   4.373  2.7469 -0.0478 -2.7588
   57SAPC  H17Y 4280   3.910   1.785   4.281 -1.2868  1.9254 -0.6955
   57SAPC  C318 4281   3.722   1.840   4.385 -0.0564 -0.4320 -0.4977
   57SAPC  H18X 4282   3.629   1.784   4.359 -2.9195  2.5678  2.3283
   57SAPC  H18Y 4283   3.725   1.933   4.324 -1.5410 -0.0784 -0.0583
   57SAPC  H18Z 4284   3.716   1.875   4.490  2.5543  0.2099 -0.5065
   58SAPC     N 4285   1.855   1.965   7.101 -0.1090  0.8413 -0.2069
   58SAPC   C12 4286   1.722   2.001   7.049 -0.3424 -0.4768 -0.3551
   58SAPC  H12A 4287   1.696   2.101   7.080  1.3576 -0.7038  2.0173
   58SAPC  H12B 4288   1.650   1.943   7.106  1.5724 -1.7749  0.8476
   58SAPC   C13 4289   1.870   1.819   7.100 -0.4075  0.4678 -0.0521
   58SAPC  H13A 4290   1.868   1.784   6.998 -0.1703  0.7411 -0.1534
   58SAPC  H13B 4291   1.965   1.798   7.147 -0.4500  0.8597  0.2139
   58SAPC  H13C 4292   1.790   1.775   7.158 -0.8069  0.6898 -0.4236
   58SAPC   C14 4293   1.963   2.030   7.016 -0.4086 -0.1279  0.0111
   58SAPC  H14A 4294   1.936   2.007   6.914 -1.3698  1.2388 -0.0583
   58SAPC  H14B 4295   1.960   2.137   7.029  0.6682 -0.0981  0.1096
   58SAPC  H14C 4296   2.059   1.994   7.050 -0.3948 -0.4452 -0.3534
   58SAPC   C15 4297   1.873   2.009   7.243  0.6276  0.7952  0.1396
   58SAPC  H15A 4298   1.950   1.951   7.293 -1.4529 -2.3524 -0.0395
   58SAPC  H15B 4299   1.877   2.116   7.255  1.2627  0.9820 -1.4954
   58SAPC  H15C 4300   1.783   1.994   7.300  0.9415 -1.8567  0.0936
   58SAPC   C11 4301   1.706   1.986   6.895 -0.6593  0.6377 -0.1703
   58SAPC  H11A 4302   1.599   1.987   6.866 -0.5738 -1.9134 -0.9084
   58SAPC  H11B 4303   1.737   1.884   6.862 -1.0531  0.0262  1.3029
   58SAPC     P 4304   1.768   2.088   6.665 -0.0760 -0.1643  0.1515
   58SAPC   O13 4305   1.686   2.196   6.612  0.3646  0.1435  0.4666
   58SAPC   O14 4306   1.910   2.089   6.626  0.3015 -0.4059  0.0843
   58SAPC   O12 4307   1.774   2.092   6.821  0.6618  0.1326  0.4609
   58SAPC   O11 4308   1.695   1.953   6.631 -0.1458  0.0960  0.1737
   58SAPC    C1 4309   1.774   1.852   6.561  0.3390 -0.3803 -0.4720
   58SAPC    HA 4310   1.875   1.858   6.607 -1.4429  0.1796  3.8604
   58SAPC    HB 4311   1.739   1.749   6.587 -0.6263  0.1476  0.3651
   58SAPC    C2 4312   1.771   1.856   6.404  0.5851 -0.5971 -0.2166
   58SAPC    HS 4313   1.775   1.749   6.373 -0.9040 -0.2737 -1.6275
   58SAPC   O21 4314   1.891   1.931   6.361  0.5830 -0.2202 -0.4576
   58SAPC   C21 4315   1.996   1.855   6.361  0.6663 -0.3528  0.6572
   58SAPC   O22 4316   2.002   1.735   6.394 -0.7421  0.1604  0.3654
   58SAPC   C22 4317   2.117   1.938   6.305  0.0648 -0.0195 -0.3123
   58SAPC   H2R 4318   2.101   2.048   6.304  0.3094  0.0520 -2.5818
   58SAPC   H2S 4319   2.199   1.913   6.375 -1.0176 -0.1187  0.9553
   58SAPC    C3 4320   1.639   1.917   6.347 -0.8373 -0.0884  0.3313
   58SAPC    HX 4321   1.616   2.022   6.375  1.3443  0.5545 -0.1518
   58SAPC    HY 4322   1.562   1.853   6.395  1.6037 -0.9801  3.4231
   58SAPC   O31 4323   1.635   1.904   6.203  0.0953 -0.0057 -0.1529
   58SAPC   C31 4324   1.662   2.018   6.132  0.7425  0.1320  1.1678
   58SAPC   O32 4325   1.697   2.126   6.175 -0.5960 -1.0067 -0.3300
   58SAPC   C32 4326   1.641   1.980   5.983  0.2353  0.1583  0.8138
   58SAPC   H2X 4327   1.543   2.018   5.946  0.1564  0.4017  1.2632
   58SAPC   H2Y 4328   1.648   1.870   5.970  0.4018  0.1030  1.3731
   58SAPC   C23 4329   2.163   1.900   6.165  0.6004  0.0701  0.0321
   58SAPC   H3R 4330   2.132   1.793   6.161  2.1428 -0.3693 -1.2376
   58SAPC   H3S 4331   2.272   1.899   6.144  0.0645 -1.4224 -3.6594
   58SAPC   C24 4332   2.098   1.981   6.054  0.0820  0.4361  0.1729
   58SAPC   H4R 4333   1.998   2.008   6.093  1.0031  2.4867  1.2509
   58SAPC   H4S 4334   2.097   1.914   5.965  2.7300 -0.7529  0.9384
   58SAPC   C25 4335   2.172   2.111   6.025  0.0926  0.0991  0.4027
   58SAPC   H5R 4336   2.167   2.170   6.118  0.8984 -0.6524  0.9414
   58SAPC   C26 4337   2.222   2.166   5.911 -0.5393 -0.1382 -0.1069
   58SAPC   H6R 4338   2.260   2.267   5.929  3.7119 -1.9364  2.7418
   58SAPC   C27 4339   2.245   2.105   5.774 -0.7167 -0.2631  0.0673
   58SAPC   H7R 4340   2.172   2.026   5.745 -3.0080  1.0859  1.7574
   58SAPC   H7S 4341   2.348   2.064   5.786 -0.0149  1.7664  1.6032
   58SAPC   C28 4342   2.257   2.221   5.679 -0.1047 -0.2209  0.0807
   58SAPC   H8R 4343   2.232   2.320   5.719 -0.4553  0.0567 -0.8144
   58SAPC   C29 4344   2.316   2.218   5.557  0.1861 -0.1789 -0.3970
   58SAPC   H9R 4345   2.316   2.306   5.491 -0.2825  0.4622  0.4420
   58SAPC  C210 4346   2.376   2.098   5.488  0.0168 -0.3569 -0.4884
   58SAPC  H10R 4347   2.402   2.026   5.568 -1.0075  0.9020  1.0455
   58SAPC  H10S 4348   2.469   2.131   5.438  1.9501 -3.2254  0.9624
   58SAPC  C211 4349   2.281   2.043   5.382 -0.4205 -0.1410 -0.5087
   58SAPC  H11R 4350   2.178   2.050   5.419  0.0727 -2.2875  1.4445
   58SAPC  C212 4351   2.316   1.988   5.264  0.1882 -0.3164 -0.0891
   58SAPC  H12R 4352   2.239   1.957   5.192  0.1410 -3.2486  1.0988
   58SAPC  C213 4353   2.460   1.974   5.210  0.7414  0.6490 -0.3853
   58SAPC  H13R 4354   2.527   2.032   5.277  2.0005 -2.0707  0.8891
   58SAPC  H13S 4355   2.456   2.025   5.111  1.6644  0.5433 -0.4832
   58SAPC  C214 4356   2.518   1.833   5.196 -0.2415 -0.2902 -0.4458
   58SAPC  H14R 4357   2.572   1.800   5.287  0.4673  1.9439 -0.0033
   58SAPC  C215 4358   2.512   1.753   5.084  0.4234 -0.1389 -0.0343
   58SAPC  H15R 4359   2.532   1.648   5.108  0.4326 -0.3370 -0.8763
   58SAPC  C216 4360   2.449   1.782   4.947  0.1778  0.3581  0.5982
   58SAPC  H16R 4361   2.511   1.761   4.857 -0.5258  1.1517 -0.0931
   58SAPC  H16S 4362   2.436   1.892   4.941  2.6314  0.7676  1.8175
   58SAPC  C217 4363   2.327   1.699   4.920 -0.5511  0.5192 -0.1509
   58SAPC  H17R 4364   2.259   1.715   5.006  0.0299 -1.3602  0.7282
   58SAPC  H17S 4365   2.356   1.592   4.911  1.8225  0.9228  1.5840
   58SAPC  C218 4366   2.247   1.738   4.799  0.6289  0.0711  0.0068
   58SAPC  H18R 4367   2.295   1.699   4.707  1.7080 -0.9417  0.9680
   58SAPC  H18S 4368   2.254   1.849   4.794  0.4676  0.0909  0.1969
   58SAPC  C219 4369   2.105   1.682   4.798 -0.1099  0.1394 -0.6686
   58SAPC  H19R 4370   2.065   1.718   4.895  1.8441  2.8085 -0.7422
   58SAPC  H19S 4371   2.090   1.572   4.803 -2.2172  0.3939 -0.4149
   58SAPC  C220 4372   2.030   1.725   4.681 -0.8186 -0.3795  0.0459
   58SAPC  H20R 4373   1.922   1.697   4.675 -1.4007  1.8276 -0.9098
   58SAPC  H20S 4374   2.075   1.694   4.584  1.0087  0.3876  0.6078
   58SAPC  H20T 4375   2.028   1.835   4.668 -0.3990 -0.3766  0.0108
   58SAPC   C33 4376   1.746   2.040   5.893 -0.2044 -0.0490  0.9916
   58SAPC   H3X 4377   1.842   1.990   5.914 -1.9830 -3.8904  0.8020
   58SAPC   H3Y 4378   1.767   2.147   5.915  3.1743 -0.3911 -0.0689
   58SAPC   C34 4379   1.711   2.023   5.751  0.7722 -0.2346 -0.1731
   58SAPC   H4X 4380   1.673   2.125   5.726 -0.1343 -0.8494 -1.4292
   58SAPC   H4Y 4381   1.636   1.944   5.726  0.1717  0.2872 -0.0562
   58SAPC   C35 4382   1.831   2.010   5.661  0.1890 -0.7944  0.3876
   58SAPC   H5X 4383   1.898   1.928   5.697  0.9633 -1.3893 -2.2155
   58SAPC   H5Y 4384   1.892   2.103   5.663  0.2419 -0.8386  1.1675
   58SAPC   C36 4385   1.788   1.979   5.516  0.1601 -0.7064 -0.6997
   58SAPC   H6X 4386   1.699   2.045   5.507  0.5215 -0.1510 -0.2904
   58SAPC   H6Y 4387   1.764   1.871   5.504 -0.5239 -0.4631 -1.6745
   58SAPC   C37 4388   1.890   2.019   5.412 -0.2168  0.4002  0.0291
   58SAPC   H7X 4389   1.963   1.938   5.391 -2.1351 -0.8309 -2.3566
   58SAPC   H7Y 4390   1.927   2.122   5.433 -0.8465  0.2896  1.8608
   58SAPC   C38 4391   1.822   2.043   5.281  0.0027  0.5265 -0.0341
   58SAPC   H8X 4392   1.746   2.124   5.283  1.2244  1.8010 -1.9849
   58SAPC   H8Y 4393   1.763   1.954   5.251 -0.7571  1.2568 -0.7872
   58SAPC   C39 4394   1.913   2.055   5.156 -0.1771  0.4850  0.0263
   58SAPC   H9X 4395   1.963   1.960   5.129 -0.0125  0.2771  1.0232
   58SAPC   H9Y 4396   1.984   2.140   5.161  1.0267 -0.5277  0.5812
   58SAPC  C310 4397   1.818   2.088   5.033 -0.3672 -0.7263 -0.7387
   58SAPC  H10X 4398   1.777   2.190   5.052  3.7757  0.5430  3.4073
   58SAPC  H10Y 4399   1.733   2.017   5.033  0.1243 -1.3634 -2.3019
   58SAPC  C311 4400   1.894   2.086   4.896  0.1013  0.0952 -0.0441
   58SAPC  H11X 4401   1.961   1.998   4.894  1.4012  1.0513 -0.5027
   58SAPC  H11Y 4402   1.941   2.186   4.880  0.4454  0.2021  1.5092
   58SAPC  C312 4403   1.808   2.058   4.761  0.0907 -1.0290  0.1530
   58SAPC  H12X 4404   1.717   2.121   4.769  1.3425  0.6756  1.8035
   58SAPC  H12Y 4405   1.795   1.948   4.757 -0.1885 -0.9516 -2.6998
   58SAPC  C313 4406   1.866   2.102   4.634 -0.2212 -0.4846 -0.2684
   58SAPC  H13X 4407   1.972   2.069   4.634  0.5250  1.6390  2.4564
   58SAPC  H13Y 4408   1.881   2.212   4.628 -0.3898 -0.4899 -0.9496
   58SAPC  C314 4409   1.791   2.054   4.504  0.2996 -0.1815 -0.1436
   58SAPC  H14X 4410   1.764   2.148   4.452 -1.3007 -0.4880  0.0831
   58SAPC  H14Y 4411   1.697   2.000   4.530  1.4381 -0.7198  3.3547
   58SAPC  C315 4412   1.870   1.955   4.421 -0.5188  0.8500  0.1832
   58SAPC  H15X 4413   1.897   1.857   4.467 -0.2033  0.2338 -1.2590
   58SAPC  H15Y 4414   1.969   2.004   4.406  0.5282 -1.8050 -2.6703
   58SAPC  C316 4415   1.811   1.939   4.283  1.1572 -0.0603 -0.6293
   58SAPC  H16X 4416   1.817   2.037   4.231  0.7201 -0.7573 -2.0539
   58SAPC  H16Y 4417   1.706   1.902   4.282  1.0722 -0.0093  1.6238
   58SAPC  C317 4418   1.906   1.856   4.197 -0.0678 -0.5396 -0.2089
   58SAPC  H17X 4419   2.009   1.874   4.235  0.7247 -0.9839 -2.0258
   58SAPC  H17Y 4420   1.908   1.880   4.089  0.9935  1.2919  0.1738
   58SAPC  C318 4421   1.883   1.702   4.216 -0.0639  0.0998  0.0562
   58SAPC  H18X 4422   1.901   1.667   4.320  1.7928  1.5246  0.2638
   58SAPC  H18Y 4423   1.965   1.652   4.160  0.9140  0.5792  1.0180
   58SAPC  H18Z 4424   1.778   1.675   4.194 -0.9223  2.8839  0.4268
   59SAPC     N 4425   1.480   0.136   6.523  0.0523 -0.2459  0.2234
   59SAPC   C12 4426   1.487   0.219   6.400 -0.2644  0.4847  0.3178
   59SAPC  H12A 4427   1.586   0.199   6.362 -1.3191  1.1463 -3.1353
   59SAPC  H12B 4428   1.483   0.325   6.420  2.8931  1.6354 -3.7740
   59SAPC   C13 4429   1.469  -0.011   6.490  0.4658 -0.1632  0.3983
   59SAPC  H13A 4430   1.465  -0.077   6.575  0.4470 -0.5179  0.1224
   59SAPC  H13B 4431   1.380  -0.023   6.430 -0.0812 -0.3752  1.2286
   59SAPC  H13C 4432   1.544  -0.048   6.422 -0.6949  0.7848 -1.4906
   59SAPC   C14 4433   1.593   0.156   6.619 -0.0420 -0.0751 -0.0378
   59SAPC  H14A 4434   1.593   0.091   6.705  0.6467 -0.6633 -0.4619
   59SAPC  H14B 4435   1.692   0.150   6.575  1.1722  3.3627  1.8288
   59SAPC  H14C 4436   1.588   0.255   6.660 -0.3109 -0.0927 -0.0309
   59SAPC   C15 4437   1.351   0.182   6.592 -0.4902 -0.1813  0.0971
   59SAPC  H15A 4438   1.272   0.199   6.521 -0.6582  1.1146  0.5683
   59SAPC  H15B 4439   1.318   0.109   6.664 -1.0776 -1.5702 -1.5218
   59SAPC  H15C 4440   1.372   0.281   6.630  0.4547 -0.1116 -0.5831
   59SAPC   C11 4441   1.388   0.190   6.287  0.7205  0.0282 -0.1824
   59SAPC  H11A 4442   1.375   0.080   6.275 -0.5451 -0.3401  3.3249
   59SAPC  H11B 4443   1.415   0.234   6.189  1.0835  0.7231  0.2219
   59SAPC     P 4444   1.222   0.400   6.308 -0.5910 -0.4685  0.0866
   59SAPC   O13 4445   1.076   0.400   6.329 -0.1737  0.2165 -0.2026
   59SAPC   O14 4446   1.305   0.483   6.397 -0.2248  0.5527  0.1560
   59SAPC   O12 4447   1.266   0.245   6.319  0.3509 -0.6378 -0.2574
   59SAPC   O11 4448   1.255   0.420   6.154 -0.2302 -0.0650  0.2652
   59SAPC    C1 4449   1.142   0.416   6.060  0.7527  0.6156  0.3338
   59SAPC    HA 4450   1.069   0.495   6.085 -0.9702 -1.1605  1.1560
   59SAPC    HB 4451   1.186   0.440   5.961  2.0310  1.3704  1.0414
   59SAPC    C2 4452   1.071   0.279   6.048  0.4925  0.2517  0.3253
   59SAPC    HS 4453   1.028   0.245   6.144  0.4136  2.3176  1.0798
   59SAPC   O21 4454   1.172   0.182   6.008  0.0072  0.4716 -0.1767
   59SAPC   C21 4455   1.130   0.056   6.023 -0.1647  0.8952 -1.1098
   59SAPC   O22 4456   1.026   0.022   6.079 -0.0070 -0.1476 -0.0623
   59SAPC   C22 4457   1.231  -0.037   5.964 -0.6985  0.1755 -0.5846
   59SAPC   H2R 4458   1.202  -0.045   5.857  2.0580  0.1887 -1.4005
   59SAPC   H2S 4459   1.333   0.005   5.973 -0.5688 -0.3184  0.3841
   59SAPC    C3 4460   0.953   0.295   5.946 -0.3188  0.6794  0.2366
   59SAPC    HX 4461   0.881   0.373   5.979 -1.6931 -0.7492  0.7928
   59SAPC    HY 4462   0.905   0.195   5.938  0.2205  0.2765  1.6473
   59SAPC   O31 4463   1.000   0.337   5.816 -0.4927 -0.2595 -0.5466
   59SAPC   C31 4464   1.032   0.248   5.722 -0.4411  0.4056 -0.4516
   59SAPC   O32 4465   1.027   0.128   5.740 -0.2168 -0.6305  0.0813
   59SAPC   C32 4466   1.077   0.322   5.600 -0.8240 -0.3641 -0.1352
   59SAPC   H2X 4467   1.178   0.363   5.620 -0.1233 -1.4749 -1.1981
   59SAPC   H2Y 4468   1.004   0.404   5.584 -0.5921 -0.6305 -3.1437
   59SAPC   C23 4469   1.219  -0.179   6.019 -0.4226 -0.6528  0.3945
   59SAPC   H3R 4470   1.199  -0.173   6.128 -2.2499  1.0268  0.0151
   59SAPC   H3S 4471   1.318  -0.221   5.990  0.4787  3.1990 -3.1215
   59SAPC   C24 4472   1.112  -0.270   5.956  0.3915  0.4957 -0.0338
   59SAPC   H4R 4473   1.095  -0.253   5.848  0.8923  1.7453  0.0708
   59SAPC   H4S 4474   1.018  -0.230   6.000 -0.1125  1.4225 -1.8675
   59SAPC   C25 4475   1.123  -0.423   5.985  0.2922  0.4569 -0.6014
   59SAPC   H5R 4476   1.189  -0.440   6.072 -0.7676  3.5239  0.9870
   59SAPC   C26 4477   1.049  -0.518   5.920 -0.1274 -0.5841  0.3219
   59SAPC   H6R 4478   1.059  -0.619   5.963 -0.4776 -0.7221  0.0784
   59SAPC   C27 4479   0.961  -0.500   5.795 -1.0069 -0.1809 -0.4448
   59SAPC   H7R 4480   1.023  -0.450   5.717 -0.6570  2.8563  1.6075
   59SAPC   H7S 4481   0.883  -0.428   5.827 -0.5268 -0.3504  1.1733
   59SAPC   C28 4482   0.903  -0.625   5.742  0.2114 -0.2285 -0.1665
   59SAPC   H8R 4483   0.867  -0.701   5.814  1.4064 -2.0633 -1.4280
   59SAPC   C29 4484   0.893  -0.659   5.614  1.0285  0.3656  0.4025
   59SAPC   H9R 4485   0.832  -0.746   5.585  0.3747  0.3317  1.8104
   59SAPC  C210 4486   0.947  -0.580   5.495  0.5584  0.0459  0.0188
   59SAPC  H10R 4487   0.992  -0.650   5.421  1.2181 -0.2935  0.7249
   59SAPC  H10S 4488   1.030  -0.519   5.537  0.0649 -0.1602  1.3641
   59SAPC  C211 4489   0.844  -0.480   5.442  0.0567  0.3318 -0.0359
   59SAPC  H11R 4490   0.777  -0.435   5.517  0.6992  0.5028  0.4450
   59SAPC  C212 4491   0.849  -0.430   5.319  0.0810 -0.1760  0.0714
   59SAPC  H12R 4492   0.778  -0.348   5.300  2.0908  1.3636 -1.3695
   59SAPC  C213 4493   0.942  -0.459   5.200  0.0997 -0.1484  0.0214
   59SAPC  H13R 4494   0.889  -0.524   5.126  0.2521  0.6909 -0.8498
   59SAPC  H13S 4495   1.030  -0.518   5.233 -0.3657 -0.2599  1.1096
   59SAPC  C214 4496   0.984  -0.336   5.124  0.0007 -0.3510  0.0108
   59SAPC  H14R 4497   0.904  -0.291   5.065 -0.4289 -1.8448 -0.6123
   59SAPC  C215 4498   1.106  -0.273   5.124  0.1679  0.5579  0.2802
   59SAPC  H15R 4499   1.114  -0.175   5.075 -0.4015  1.0158  1.0845
   59SAPC  C216 4500   1.217  -0.313   5.212  0.0345  0.5258  0.0995
   59SAPC  H16R 4501   1.298  -0.353   5.148 -2.0086 -0.8109 -1.8151
   59SAPC  H16S 4502   1.192  -0.381   5.297  1.8819  2.2558  2.1612
   59SAPC  C217 4503   1.281  -0.195   5.290 -0.2047  0.1854 -0.1317
   59SAPC  H17R 4504   1.319  -0.114   5.225 -0.3443 -0.9053 -1.6438
   59SAPC  H17S 4505   1.375  -0.236   5.334 -0.4177  0.2283  0.3701
   59SAPC  C218 4506   1.200  -0.133   5.401  0.0599  0.0143  0.7700
   59SAPC  H18R 4507   1.111  -0.080   5.362  1.2933  2.0289  0.5476
   59SAPC  H18S 4508   1.261  -0.050   5.443 -1.9905  2.2621 -0.4305
   59SAPC  C219 4509   1.160  -0.226   5.519 -0.2734 -0.3106  0.8384
   59SAPC  H19R 4510   1.091  -0.302   5.478 -0.9865  0.5149  0.4606
   59SAPC  H19S 4511   1.101  -0.169   5.595 -0.9341 -1.6862  1.3845
   59SAPC  C220 4512   1.268  -0.284   5.604 -1.0212  0.3886 -0.2213
   59SAPC  H20R 4513   1.343  -0.324   5.533 -0.2047  2.9505 -0.9260
   59SAPC  H20S 4514   1.225  -0.366   5.666 -2.5001  0.4902 -1.0715
   59SAPC  H20T 4515   1.315  -0.208   5.670 -2.0960 -1.0395  2.3153
   59SAPC   C33 4516   1.078   0.233   5.474  0.3611 -0.0125  0.0128
   59SAPC   H3X 4517   0.975   0.203   5.447  0.1297  0.8685 -0.1127
   59SAPC   H3Y 4518   1.145   0.149   5.504 -0.3577 -0.0849  1.5106
   59SAPC   C34 4519   1.139   0.308   5.353 -0.0156 -0.0576  0.0034
   59SAPC   H4X 4520   1.241   0.342   5.383 -0.9590  1.8405  1.2936
   59SAPC   H4Y 4521   1.070   0.393   5.331  1.9564  0.9528 -2.8794
   59SAPC   C35 4522   1.159   0.219   5.233  0.2409  0.2206  0.6048
   59SAPC   H5X 4523   1.057   0.180   5.212  0.3841 -1.0492  2.1249
   59SAPC   H5Y 4524   1.223   0.131   5.254 -0.8569 -0.5883  0.7027
   59SAPC   C36 4525   1.212   0.293   5.108 -0.2441  0.3202  0.0861
   59SAPC   H6X 4526   1.313   0.335   5.123  0.7288 -2.1701  0.8466
   59SAPC   H6Y 4527   1.137   0.368   5.072  0.0589  0.8580  0.5646
   59SAPC   C37 4528   1.253   0.190   4.993 -0.6840 -0.5602 -0.8547
   59SAPC   H7X 4529   1.300   0.100   5.040 -1.7462 -0.3897  0.6222
   59SAPC   H7Y 4530   1.324   0.248   4.930  0.4001 -0.5087  0.3562
   59SAPC   C38 4531   1.136   0.130   4.911  0.1388 -0.6466 -0.2759
   59SAPC   H8X 4532   1.081   0.212   4.859  1.8784  1.1803  0.5992
   59SAPC   H8Y 4533   1.065   0.082   4.981  1.4138 -0.5526  1.1276
   59SAPC   C39 4534   1.166   0.015   4.822  0.0632  0.0933  0.0494
   59SAPC   H9X 4535   1.203  -0.073   4.880  0.7783  0.4912  0.2150
   59SAPC   H9Y 4536   1.255   0.034   4.759  0.0250 -3.0386 -1.1102
   59SAPC  C310 4537   1.050  -0.028   4.741  0.6243  0.1473  0.4757
   59SAPC  H10X 4538   1.097  -0.086   4.659  3.0964  1.1010  1.1230
   59SAPC  H10Y 4539   0.992   0.056   4.697  0.6815  0.2888  0.6722
   59SAPC  C311 4540   0.940  -0.107   4.810  0.3430 -0.5371  0.5091
   59SAPC  H11X 4541   0.866  -0.054   4.875 -1.5110 -2.2458 -0.0844
   59SAPC  H11Y 4542   0.995  -0.186   4.866  2.9589  0.1552 -0.9268
   59SAPC  C312 4543   0.849  -0.189   4.709 -0.2309 -0.0256  0.9864
   59SAPC  H12X 4544   0.809  -0.281   4.755  1.0264 -0.7383  0.6989
   59SAPC  H12Y 4545   0.914  -0.217   4.623 -0.6034  1.3231  0.2321
   59SAPC  C313 4546   0.734  -0.099   4.643 -0.1829 -0.5248  0.3008
   59SAPC  H13X 4547   0.699  -0.139   4.545  2.5556  1.6789 -1.7297
   59SAPC  H13Y 4548   0.766   0.005   4.623 -0.4134 -0.4619  0.2491
   59SAPC  C314 4549   0.593  -0.114   4.727 -0.5307  0.2156  0.3905
   59SAPC  H14X 4550   0.621  -0.091   4.831  0.7822 -0.9387  0.3201
   59SAPC  H14Y 4551   0.564  -0.221   4.724 -1.1830  0.3871  0.3836
   59SAPC  C315 4552   0.475  -0.037   4.677 -0.2291 -0.0352  0.7944
   59SAPC  H15X 4553   0.436  -0.077   4.582 -0.7723 -0.0718  1.0315
   59SAPC  H15Y 4554   0.501   0.068   4.651 -1.8680 -0.0705 -1.2254
   59SAPC  C316 4555   0.360  -0.036   4.782 -0.2780  0.4578 -0.3791
   59SAPC  H16X 4556   0.391   0.023   4.870  0.2407  1.3532 -1.1384
   59SAPC  H16Y 4557   0.351  -0.142   4.815  0.9883  0.9615  1.7578
   59SAPC  C317 4558   0.236   0.039   4.737  0.6830 -0.2399  0.3641
   59SAPC  H17X 4559   0.265   0.141   4.705 -0.1671 -0.0941  0.0229
   59SAPC  H17Y 4560   0.172   0.043   4.827 -0.3340  0.1833 -0.3573
   59SAPC  C318 4561   0.145  -0.020   4.622 -0.4135  0.0201 -0.0787
   59SAPC  H18X 4562   0.042   0.022   4.626  0.4176  2.1724  0.6112
   59SAPC  H18Y 4563   0.149  -0.130   4.627  2.5590  0.0444 -0.4831
   59SAPC  H18Z 4564   0.199   0.016   4.532 -1.3282 -2.1579 -1.5667
   60SAPC     N 4565   0.794   4.893   6.710 -0.3677  0.2728 -0.8071
   60SAPC   C12 4566   0.883   4.882   6.592 -0.3488  0.0919 -0.5742
   60SAPC  H12A 4567   0.871   4.782   6.553  0.5259 -0.8006  1.2683
   60SAPC  H12B 4568   0.987   4.882   6.622 -0.6294  0.4839  0.4261
   60SAPC   C13 4569   0.836   4.796   6.820  0.4026  0.7236  0.4213
   60SAPC  H13A 4570   0.839   4.696   6.779 -0.6506  0.7866  0.1657
   60SAPC  H13B 4571   0.933   4.820   6.862  0.0682 -0.1911  1.7753
   60SAPC  H13C 4572   0.769   4.802   6.904 -1.0544  2.8458 -0.7994
   60SAPC   C14 4573   0.793   5.037   6.766  0.3574  0.8443 -0.0904
   60SAPC  H14A 4574   0.743   5.048   6.861 -0.7473  1.1610 -0.6851
   60SAPC  H14B 4575   0.898   5.061   6.779  0.8230 -0.1833 -1.7067
   60SAPC  H14C 4576   0.743   5.103   6.696 -1.5333 -0.6853 -0.2689
   60SAPC   C15 4577   0.652   4.867   6.683 -0.2324  0.5074  0.4741
   60SAPC  H15A 4578   0.592   4.893   6.769 -0.2813  0.9271  0.3165
   60SAPC  H15B 4579   0.610   4.934   6.609 -1.1754  0.2046  0.7175
   60SAPC  H15C 4580   0.637   4.764   6.654 -0.0078  0.8039 -0.7381
   60SAPC   C11 4581   0.852   4.979   6.472  0.0078  0.4535 -0.1725
   60SAPC  H11A 4582   0.755   4.945   6.431 -0.2011  1.7334 -0.7671
   60SAPC  H11B 4583   0.922   4.955   6.389  0.2477 -0.1181  0.1839
   60SAPC     P 4584   0.902   5.233   6.434 -0.1484 -0.1102 -0.0159
   60SAPC   O13 4585   0.839   5.356   6.460  0.4889 -0.3889  1.2085
   60SAPC   O14 4586   1.049   5.232   6.444 -0.4046 -0.3778  0.1046
   60SAPC   O12 4587   0.848   5.114   6.516  0.2512  0.3469 -0.0650
   60SAPC   O11 4588   0.859   5.186   6.287 -0.3009 -0.5335  0.4635
   60SAPC    C1 4589   0.732   5.204   6.232  0.5218 -0.2586  0.1561
   60SAPC    HA 4590   0.663   5.122   6.261 -1.1671  0.9660 -0.2521
   60SAPC    HB 4591   0.695   5.302   6.267 -0.7340 -1.1925  1.5682
   60SAPC    C2 4592   0.729   5.209   6.075 -0.2849  0.1527  0.2832
   60SAPC    HS 4593   0.628   5.226   6.031  0.9324 -1.8642 -3.8811
   60SAPC   O21 4594   0.774   5.084   6.024 -0.3846 -0.0943 -0.1603
   60SAPC   C21 4595   0.708   4.978   6.056  0.5706  0.3926  0.8869
   60SAPC   O22 4596   0.591   4.979   6.096  0.6755 -0.0795  0.3641
   60SAPC   C22 4597   0.791   4.847   6.033  0.7244  0.3636 -1.1069
   60SAPC   H2R 4598   0.899   4.871   6.020  0.9605  0.0240  0.0765
   60SAPC   H2S 4599   0.771   4.784   6.123  2.2862  0.5524 -0.5958
   60SAPC    C3 4600   0.815   5.326   6.013  0.2605 -0.2200 -0.7270
   60SAPC    HX 4601   0.910   5.330   6.071  0.2393 -0.6406 -0.6629
   60SAPC    HY 4602   0.762   5.423   6.024  1.9800  0.7201 -0.2996
   60SAPC   O31 4603   0.838   5.313   5.873  0.2256  0.4275  0.3032
   60SAPC   C31 4604   0.935   5.231   5.839  0.2716 -0.1864 -0.4801
   60SAPC   O32 4605   1.017   5.186   5.917 -0.1740  0.3267  0.1329
   60SAPC   C32 4606   0.948   5.213   5.686 -0.2518 -0.6249  0.0539
   60SAPC   H2X 4607   1.056   5.217   5.662  0.3339 -0.0617  2.5216
   60SAPC   H2Y 4608   0.899   5.306   5.649 -2.1671 -0.5005  2.5908
   60SAPC   C23 4609   0.751   4.759   5.920 -0.1947 -0.1971 -0.6379
   60SAPC   H3R 4610   0.747   4.808   5.821 -1.5015  0.2336 -0.3857
   60SAPC   H3S 4611   0.649   4.724   5.946 -0.5546  2.2981  1.8194
   60SAPC   C24 4612   0.845   4.636   5.904  0.2699 -0.1607  0.1385
   60SAPC   H4R 4613   0.820   4.568   5.988  0.6694 -2.1777 -1.3053
   60SAPC   H4S 4614   0.949   4.675   5.908 -0.2801  1.3508  0.5131
   60SAPC   C25 4615   0.812   4.565   5.772  0.3241 -0.2006 -1.0131
   60SAPC   H5R 4616   0.755   4.473   5.792  0.6983 -0.0675  0.7967
   60SAPC   C26 4617   0.858   4.597   5.649 -0.8712  0.0309 -0.6501
   60SAPC   H6R 4618   0.816   4.535   5.569 -0.3281  0.2797 -1.1330
   60SAPC   C27 4619   0.945   4.717   5.612  0.2051  0.6131 -0.0333
   60SAPC   H7R 4620   0.939   4.803   5.683  0.4789 -1.1651  2.2632
   60SAPC   H7S 4621   0.898   4.749   5.517 -1.1589  0.0952  0.4517
   60SAPC   C28 4622   1.086   4.673   5.606 -0.2825 -0.1249 -1.0115
   60SAPC   H8R 4623   1.129   4.637   5.700 -1.8921  1.5162  0.4436
   60SAPC   C29 4624   1.179   4.676   5.506 -0.2197 -0.4318  0.3707
   60SAPC   H9R 4625   1.281   4.639   5.521  0.3311  1.2017  0.7530
   60SAPC  C210 4626   1.170   4.732   5.361 -0.1701 -0.1849 -0.1845
   60SAPC  H10R 4627   1.269   4.780   5.344  0.2943  0.2639  3.0180
   60SAPC  H10S 4628   1.094   4.813   5.364 -1.7148 -1.6212  0.6209
   60SAPC  C211 4629   1.126   4.626   5.267  0.1590  0.0234  1.2158
   60SAPC  H11R 4630   1.065   4.547   5.312  1.5718 -1.3756  0.7403
   60SAPC  C212 4631   1.155   4.617   5.132 -0.0241  0.1716 -0.2577
   60SAPC  H12R 4632   1.115   4.535   5.071  0.6802  0.4357 -1.0999
   60SAPC  C213 4633   1.237   4.712   5.047 -0.3530 -0.3417  0.6866
   60SAPC  H13R 4634   1.317   4.649   5.003 -0.0477 -0.5592  1.5419
   60SAPC  H13S 4635   1.285   4.791   5.108 -0.8686  0.7567 -0.2805
   60SAPC  C214 4636   1.160   4.777   4.940 -0.1534  0.0269  0.1690
   60SAPC  H14R 4637   1.063   4.825   4.960  1.0180  2.4068  0.5396
   60SAPC  C215 4638   1.203   4.813   4.819 -0.1787  0.2228 -0.1776
   60SAPC  H15R 4639   1.133   4.873   4.759  0.2748  1.3084  0.3448
   60SAPC  C216 4640   1.334   4.781   4.760  0.0121  0.9499  0.6138
   60SAPC  H16R 4641   1.409   4.752   4.837  2.4656 -1.6739 -2.4901
   60SAPC  H16S 4642   1.370   4.868   4.701  0.6660 -0.7926 -1.6965
   60SAPC  C217 4643   1.320   4.652   4.679  0.1399 -0.6156 -0.5085
   60SAPC  H17R 4644   1.288   4.573   4.750 -1.1219  0.9970  0.8193
   60SAPC  H17S 4645   1.420   4.627   4.639 -0.5754 -1.4760 -1.8546
   60SAPC  C218 4646   1.225   4.669   4.559  0.6538 -0.1859  0.1399
   60SAPC  H18R 4647   1.256   4.754   4.495 -0.6422  0.2204  0.0172
   60SAPC  H18S 4648   1.126   4.688   4.607  1.0744 -0.5889  1.1987
   60SAPC  C219 4649   1.225   4.538   4.471  0.1429 -0.4289 -0.4477
   60SAPC  H19R 4650   1.219   4.452   4.542  2.1001  0.4921  0.9166
   60SAPC  H19S 4651   1.321   4.515   4.421  2.1125 -0.2875  2.9674
   60SAPC  C220 4652   1.125   4.546   4.359 -0.2581  0.7222 -0.8785
   60SAPC  H20R 4653   1.127   4.448   4.307 -0.2189 -0.1454  0.7011
   60SAPC  H20S 4654   1.153   4.621   4.282  0.5610 -0.1191 -1.4149
   60SAPC  H20T 4655   1.026   4.573   4.402  0.0376  2.1535 -1.0464
   60SAPC   C33 4656   0.883   5.095   5.619 -0.7746 -0.8256 -0.2244
   60SAPC   H3X 4657   0.783   5.088   5.667 -0.0261 -1.0268  1.3861
   60SAPC   H3Y 4658   0.937   5.000   5.641  1.0084 -0.3086 -2.0417
   60SAPC   C34 4659   0.861   5.109   5.464  0.0885 -0.1331 -0.4744
   60SAPC   H4X 4660   0.811   5.207   5.447 -1.2670 -1.1370 -2.7231
   60SAPC   H4Y 4661   0.803   5.024   5.422  0.1886 -0.2468 -0.3844
   60SAPC   C35 4662   0.983   5.109   5.368 -0.3234 -0.1815 -0.9087
   60SAPC   H5X 4663   1.027   5.006   5.367  1.1289  0.4052 -2.2065
   60SAPC   H5Y 4664   1.067   5.178   5.389 -1.6993  1.3666 -0.3658
   60SAPC   C36 4665   0.932   5.149   5.227  0.1170 -1.4348 -0.4143
   60SAPC   H6X 4666   0.890   5.251   5.241  2.7008 -0.4616  1.0232
   60SAPC   H6Y 4667   0.865   5.069   5.189  1.0789 -1.2996 -2.5534
   60SAPC   C37 4668   1.046   5.160   5.116  0.0675 -0.0307  0.2999
   60SAPC   H7X 4669   1.082   5.055   5.115 -0.0305 -0.1314  2.4941
   60SAPC   H7Y 4670   1.125   5.229   5.153 -0.5030 -0.0728  1.6565
   60SAPC   C38 4671   0.993   5.201   4.973  0.0301  0.1862 -0.5233
   60SAPC   H8X 4672   0.942   5.300   4.976 -0.1114  0.0971  0.4202
   60SAPC   H8Y 4673   0.915   5.128   4.944 -0.6352  0.6984 -0.0564
   60SAPC   C39 4674   1.099   5.186   4.869 -0.3563  0.4080 -0.6818
   60SAPC   H9X 4675   1.143   5.084   4.867 -1.1502 -0.1356  2.8157
   60SAPC   H9Y 4676   1.186   5.251   4.891 -0.8369  0.8973 -0.1873
   60SAPC  C310 4677   1.044   5.218   4.731  0.4731 -0.5631 -0.2958
   60SAPC  H10X 4678   1.015   5.325   4.738 -0.0726 -0.7246 -0.0071
   60SAPC  H10Y 4679   0.957   5.153   4.708  0.1610  0.7641 -3.3575
   60SAPC  C311 4680   1.159   5.203   4.626  0.2408 -0.5380 -0.6949
   60SAPC  H11X 4681   1.193   5.098   4.613 -1.4987 -0.9496 -2.4194
   60SAPC  H11Y 4682   1.246   5.266   4.653 -1.7921  2.2820 -0.2769
   60SAPC  C312 4683   1.103   5.247   4.489 -0.5027  1.0892 -0.0782
   60SAPC  H12X 4684   1.048   5.343   4.499 -0.9767  0.5946  2.7813
   60SAPC  H12Y 4685   1.041   5.171   4.437  1.2688  0.2104 -0.9958
   60SAPC  C313 4686   1.221   5.269   4.395 -0.0264 -0.3186 -0.3125
   60SAPC  H13X 4687   1.291   5.186   4.416  0.9500  0.2022 -1.4602
   60SAPC  H13Y 4688   1.276   5.357   4.435  1.3854 -1.7168  0.9522
   60SAPC  C314 4689   1.172   5.280   4.246  0.3451  0.2435 -0.6432
   60SAPC  H14X 4690   1.110   5.372   4.244  0.6600  0.5064  0.6702
   60SAPC  H14Y 4691   1.102   5.198   4.219  0.0863  0.7601 -1.5791
   60SAPC  C315 4692   1.289   5.286   4.149 -0.5065 -0.0652 -0.5321
   60SAPC  H15X 4693   1.354   5.205   4.190 -3.4076 -1.8530  0.8860
   60SAPC  H15Y 4694   1.343   5.382   4.154 -0.1684 -0.3092  1.1608
   60SAPC  C316 4695   1.262   5.252   4.002  0.5356  0.3470  0.2691
   60SAPC  H16X 4696   1.234   5.144   3.999  0.1578  0.4534 -0.2010
   60SAPC  H16Y 4697   1.355   5.263   3.943 -0.5388 -1.2454 -1.9021
   60SAPC  C317 4698   1.157   5.332   3.934  0.1629 -0.8843 -0.3452
   60SAPC  H17X 4699   1.055   5.318   3.977 -1.0343  0.2866 -2.5701
   60SAPC  H17Y 4700   1.154   5.307   3.825 -1.2672  1.8004 -1.0086
   60SAPC  C318 4701   1.173   5.486   3.920 -0.6788 -0.2125 -0.2487
   60SAPC  H18X 4702   1.280   5.507   3.898 -1.0646  2.3248 -0.0677
   60SAPC  H18Y 4703   1.132   5.533   4.012 -2.4952 -1.5302 -0.3220
   60SAPC  H18Z 4704   1.114   5.531   3.838 -2.1550 -0.6138  0.5626
   61SAPC     N 4705   5.361   0.497   6.843  0.5231  0.8933 -0.0120
   61SAPC   C12 4706   5.388   0.441   6.707  0.2124 -0.0845 -0.0152
   61SAPC  H12A 4707   5.487   0.472   6.678  1.5782 -3.4866  0.6198
   61SAPC  H12B 4708   5.318   0.489   6.641  0.9322  1.2040  0.1063
   61SAPC   C13 4709   5.347   0.652   6.833 -0.3044 -0.1505  0.2740
   61SAPC  H13A 4710   5.336   0.692   6.933  0.0549  0.0656  0.2285
   61SAPC  H13B 4711   5.435   0.702   6.794 -0.8919  1.0672  0.4597
   61SAPC  H13C 4712   5.258   0.672   6.775  1.6178 -0.3779 -3.0026
   61SAPC   C14 4713   5.234   0.451   6.900 -0.0595 -0.2926 -0.5320
   61SAPC  H14A 4714   5.148   0.459   6.836 -1.4476  1.4517  1.3987
   61SAPC  H14B 4715   5.231   0.345   6.922  2.1238 -0.2975 -0.0380
   61SAPC  H14C 4716   5.214   0.501   6.994 -0.5676  1.3990 -1.4899
   61SAPC   C15 4717   5.477   0.476   6.934  0.5752  0.2985  0.0462
   61SAPC  H15A 4718   5.572   0.502   6.889 -0.0242  0.3547 -1.2123
   61SAPC  H15B 4719   5.466   0.506   7.038 -3.0442 -0.0818 -0.1197
   61SAPC  H15C 4720   5.493   0.369   6.943  1.7847  0.1029 -3.2825
   61SAPC   C11 4721   5.381   0.285   6.698  0.4077  0.0145 -0.1166
   61SAPC  H11A 4722   5.396   0.251   6.593 -0.0378  0.3223 -0.2812
   61SAPC  H11B 4723   5.279   0.252   6.725  0.5413 -1.0214 -0.8197
   61SAPC     P 4724   5.583   0.113   6.745  0.1084  0.0838 -0.1343
   61SAPC   O13 4725   5.713   0.183   6.731 -0.1473  0.7324  0.1050
   61SAPC   O14 4726   5.579  -0.006   6.833  0.7198 -0.1424  0.3007
   61SAPC   O12 4727   5.479   0.227   6.788 -0.5614  0.3497 -0.0159
   61SAPC   O11 4728   5.523   0.082   6.603  0.0567  0.1993  0.1810
   61SAPC    C1 4729   5.476  -0.047   6.560 -0.5388  0.2285 -0.0445
   61SAPC    HA 4730   5.428  -0.101   6.644  2.3444 -0.5697  1.2236
   61SAPC    HB 4731   5.404  -0.038   6.476  1.9364  0.9549 -2.2307
   61SAPC    C2 4732   5.583  -0.136   6.490 -1.1023 -0.5173 -0.8018
   61SAPC    HS 4733   5.660  -0.167   6.564  0.3920  1.6579 -1.3501
   61SAPC   O21 4734   5.642  -0.064   6.379 -0.0158 -0.1922 -0.3614
   61SAPC   C21 4735   5.771  -0.032   6.389  0.5923 -0.4777  0.4606
   61SAPC   O22 4736   5.847  -0.059   6.479  0.0513 -0.8106 -0.6270
   61SAPC   C22 4737   5.816   0.059   6.273 -0.2660  0.0031  0.8117
   61SAPC   H2R 4738   5.739   0.066   6.193  2.4040 -4.4011 -2.6106
   61SAPC   H2S 4739   5.828   0.159   6.319 -0.7210  0.0362  0.8683
   61SAPC    C3 4740   5.509  -0.263   6.430 -0.4305 -0.0509  0.5086
   61SAPC    HX 4741   5.435  -0.228   6.355  0.8487  0.2533 -0.6658
   61SAPC    HY 4742   5.450  -0.315   6.508  2.7996  0.1288  3.3527
   61SAPC   O31 4743   5.605  -0.353   6.374  0.2530 -0.6053 -0.1471
   61SAPC   C31 4744   5.674  -0.434   6.461  0.5256  0.2456  0.4078
   61SAPC   O32 4745   5.651  -0.447   6.579 -0.1873 -0.1344  0.1100
   61SAPC   C32 4746   5.793  -0.493   6.374 -0.2056  0.5920  0.7485
   61SAPC   H2X 4747   5.743  -0.534   6.284 -1.0398  0.9151  1.0531
   61SAPC   H2Y 4748   5.843  -0.574   6.433 -0.8770 -0.3866 -0.0020
   61SAPC   C23 4749   5.940  -0.006   6.217 -0.2794 -0.5591 -0.9082
   61SAPC   H3R 4750   6.007  -0.059   6.288 -0.5006  1.0133  0.5417
   61SAPC   H3S 4751   6.006   0.076   6.183  0.9692 -1.1207  0.0795
   61SAPC   C24 4752   5.909  -0.108   6.101 -0.0305  0.1559 -0.2106
   61SAPC   H4R 4753   5.819  -0.166   6.133 -1.0451  1.7352 -0.1079
   61SAPC   H4S 4754   6.002  -0.169   6.096  1.5817  2.4798  0.0822
   61SAPC   C25 4755   5.876  -0.038   5.974 -0.4899  0.3674  0.1975
   61SAPC   H5R 4756   5.957   0.028   5.940 -1.1644  1.1430  0.0635
   61SAPC   C26 4757   5.770  -0.059   5.901 -0.7280 -0.3470 -0.2809
   61SAPC   H6R 4758   5.768  -0.002   5.807  2.5176  0.3527 -0.0741
   61SAPC   C27 4759   5.656  -0.152   5.915  0.2593  0.5457  0.4887
   61SAPC   H7R 4760   5.699  -0.255   5.912  0.7271  0.7555 -1.7978
   61SAPC   H7S 4761   5.611  -0.146   5.814  0.6543 -1.3889  0.1460
   61SAPC   C28 4762   5.561  -0.149   6.028  0.0170  0.3541  0.3113
   61SAPC   H8R 4763   5.610  -0.142   6.126  1.9356  0.7241 -0.6347
   61SAPC   C29 4764   5.430  -0.141   6.016  0.0979 -0.5316 -0.0487
   61SAPC   H9R 4765   5.374  -0.141   6.110  1.0308 -0.8747  0.5178
   61SAPC  C210 4766   5.352  -0.105   5.889 -0.0849 -0.2752  0.3972
   61SAPC  H10R 4767   5.410  -0.128   5.798 -1.4333 -0.0224 -0.5466
   61SAPC  H10S 4768   5.330   0.003   5.894 -1.1676 -0.5257  1.6369
   61SAPC  C211 4769   5.223  -0.179   5.883  0.1359  0.6204 -0.1365
   61SAPC  H11R 4770   5.196  -0.252   5.961 -1.4675  0.8067 -0.4936
   61SAPC  C212 4771   5.140  -0.165   5.784  0.1323  0.1157 -0.0552
   61SAPC  H12R 4772   5.051  -0.230   5.781  0.6422 -0.5603 -1.2571
   61SAPC  C213 4773   5.158  -0.088   5.661 -0.3873 -1.2885 -0.5673
   61SAPC  H13R 4774   5.105  -0.140   5.578 -1.3652  1.0550 -1.4982
   61SAPC  H13S 4775   5.267  -0.070   5.644 -0.7661  2.3716  0.0724
   61SAPC  C214 4776   5.103   0.049   5.674 -0.5123 -0.2943  0.1395
   61SAPC  H14R 4777   5.109   0.094   5.774 -0.9396 -1.3886  0.6679
   61SAPC  C215 4778   5.035   0.107   5.573  0.9434  0.1955 -0.7372
   61SAPC  H15R 4779   4.995   0.206   5.599  1.5281  1.0589 -2.9076
   61SAPC  C216 4780   5.034   0.056   5.434 -0.0026 -0.3649  0.8516
   61SAPC  H16R 4781   4.939  -0.000   5.420 -0.1421 -0.0907  0.6877
   61SAPC  H16S 4782   5.119  -0.010   5.409 -1.9768 -2.0414 -1.8711
   61SAPC  C217 4783   5.035   0.175   5.332 -0.4586  0.5306  0.4172
   61SAPC  H17R 4784   5.047   0.131   5.230  0.6403 -2.0787  1.5901
   61SAPC  H17S 4785   5.125   0.241   5.334  0.0463 -0.1575  0.8870
   61SAPC  C218 4786   4.904   0.251   5.339 -0.0327  0.2599  0.2203
   61SAPC  H18R 4787   4.875   0.291   5.439 -1.1650  0.6705 -0.2494
   61SAPC  H18S 4788   4.821   0.186   5.302 -0.7509  1.3194 -0.0557
   61SAPC  C219 4789   4.904   0.378   5.254  0.5844  0.2570 -0.3221
   61SAPC  H19R 4790   4.976   0.453   5.293  1.1964  0.2067 -1.3390
   61SAPC  H19S 4791   4.807   0.432   5.256  0.3960 -0.0845  0.0408
   61SAPC  C220 4792   4.949   0.353   5.111  0.0522  0.2055 -0.2308
   61SAPC  H20R 4793   4.907   0.261   5.065  1.6426 -0.9917  0.6489
   61SAPC  H20S 4794   5.059   0.348   5.118  0.0772  0.9252  0.0249
   61SAPC  H20T 4795   4.926   0.437   5.041  0.0836 -0.8128 -1.4987
   61SAPC   C33 4796   5.897  -0.385   6.335  0.8423  0.3723  0.2214
   61SAPC   H3X 4797   5.939  -0.328   6.420  0.7321  0.3065  0.3189
   61SAPC   H3Y 4798   5.838  -0.316   6.270 -0.5665  1.3236  2.3896
   61SAPC   C34 4799   6.005  -0.439   6.244 -0.7443 -0.2074  0.1597
   61SAPC   H4X 4800   6.055  -0.518   6.305  0.5929  0.7576  0.3609
   61SAPC   H4Y 4801   6.085  -0.364   6.229 -1.1336  0.3937  1.0328
   61SAPC   C35 4802   5.950  -0.500   6.116 -0.3544 -0.0494  0.2577
   61SAPC   H5X 4803   5.866  -0.440   6.075 -0.0814 -0.0691 -0.3390
   61SAPC   H5Y 4804   5.905  -0.597   6.148 -0.9649  1.1338  3.2367
   61SAPC   C36 4805   6.052  -0.517   6.005 -0.5286  0.2345 -0.4584
   61SAPC   H6X 4806   6.132  -0.578   6.051 -1.0614  0.3215  0.5973
   61SAPC   H6Y 4807   6.095  -0.426   5.958 -0.3235  0.7109  0.6209
   61SAPC   C37 4808   5.996  -0.590   5.881  0.4446 -0.9679  0.2718
   61SAPC   H7X 4809   5.913  -0.656   5.914 -0.7768  0.3809  0.0042
   61SAPC   H7Y 4810   6.072  -0.665   5.850  0.5917 -0.5880 -0.3127
   61SAPC   C38 4811   5.956  -0.489   5.766 -0.4628 -0.1519  0.0162
   61SAPC   H8X 4812   6.050  -0.432   5.748 -0.2259 -0.4363  0.3143
   61SAPC   H8Y 4813   5.882  -0.413   5.797  0.7072  1.6938 -1.5348
   61SAPC   C39 4814   5.918  -0.558   5.627 -0.4757  0.0467  0.2794
   61SAPC   H9X 4815   5.818  -0.605   5.633  0.6583 -2.5958 -0.0924
   61SAPC   H9Y 4816   5.996  -0.634   5.607 -0.5989 -0.2246  0.8284
   61SAPC  C310 4817   5.934  -0.456   5.513  0.9117  0.0273  0.8042
   61SAPC  H10X 4818   6.040  -0.424   5.506  1.2268 -1.1186  0.1054
   61SAPC  H10Y 4819   5.860  -0.373   5.517  1.3042  0.5307 -1.1187
   61SAPC  C311 4820   5.910  -0.505   5.366  0.2991  0.2433  0.0801
   61SAPC  H11X 4821   5.952  -0.605   5.340  0.3615  1.0108 -3.2884
   61SAPC  H11Y 4822   5.960  -0.445   5.286  1.6649 -1.5142 -0.4494
   61SAPC  C312 4823   5.754  -0.520   5.336  0.0541  0.4161  0.2995
   61SAPC  H12X 4824   5.711  -0.420   5.358  0.3522  0.2815  1.5434
   61SAPC  H12Y 4825   5.696  -0.590   5.399 -1.0816 -0.5237 -1.7003
   61SAPC  C313 4826   5.728  -0.552   5.188  0.3535 -0.2635 -0.0616
   61SAPC  H13X 4827   5.777  -0.488   5.112  1.3908 -2.0164 -0.9260
   61SAPC  H13Y 4828   5.621  -0.530   5.167  0.2736 -1.1435 -0.6189
   61SAPC  C314 4829   5.746  -0.699   5.162 -0.2868 -0.2705  0.1725
   61SAPC  H14X 4830   5.700  -0.763   5.240  0.8168  3.0033  3.8726
   61SAPC  H14Y 4831   5.855  -0.719   5.163 -0.4072 -0.9220  0.1799
   61SAPC  C315 4832   5.695  -0.728   5.019  0.1954 -0.1112 -0.1453
   61SAPC  H15X 4833   5.584  -0.722   5.021  0.1582 -0.8035  0.1256
   61SAPC  H15Y 4834   5.726  -0.831   4.991 -3.1296 -0.8830 -1.5477
   61SAPC  C316 4835   5.731  -0.628   4.912  0.1689  0.0068 -0.1009
   61SAPC  H16X 4836   5.840  -0.609   4.909  0.2228 -0.3953 -0.6540
   61SAPC  H16Y 4837   5.671  -0.537   4.932  1.2488  1.0563 -1.4601
   61SAPC  C317 4838   5.702  -0.685   4.771  0.4373  0.5934 -0.3151
   61SAPC  H17X 4839   5.745  -0.787   4.773 -1.5296 -0.3036 -1.4880
   61SAPC  H17Y 4840   5.752  -0.620   4.696  1.2885 -0.7719 -0.9710
   61SAPC  C318 4841   5.565  -0.701   4.722  0.2667  0.5799  0.0953
   61SAPC  H18X 4842   5.502  -0.609   4.727 -1.1300 -0.3988  2.9053
   61SAPC  H18Y 4843   5.515  -0.788   4.769 -0.2361 -0.1489 -1.7033
   61SAPC  H18Z 4844   5.575  -0.741   4.619 -0.1399  3.8662 -1.3691
   62SAPC     N 4845   0.172   4.806   6.547  0.3988 -0.7499  0.1002
   62SAPC   C12 4846   0.211   4.669   6.497  0.0401 -0.5625  0.6605
   62SAPC  H12A 4847   0.116   4.625   6.470 -0.3219  0.6787 -0.1697
   62SAPC  H12B 4848   0.254   4.605   6.573 -1.1139  0.0245  1.8450
   62SAPC   C13 4849   0.049   4.794   6.638 -0.7100 -0.3185 -1.0110
   62SAPC  H13A 4850   0.085   4.732   6.718  1.3205  1.9346 -0.0678
   62SAPC  H13B 4851   0.022   4.889   6.682 -1.9369 -0.9575 -0.3463
   62SAPC  H13C 4852  -0.046   4.763   6.596 -1.3091  2.3822 -1.8544
   62SAPC   C14 4853   0.285   4.878   6.606 -0.4716 -0.2249 -0.1275
   62SAPC  H14A 4854   0.372   4.849   6.549 -1.0737  0.4665 -1.4272
   62SAPC  H14B 4855   0.272   4.985   6.607 -1.7052 -0.3615  0.2915
   62SAPC  H14C 4856   0.300   4.854   6.710  1.4045  1.4835  0.0744
   62SAPC   C15 4857   0.117   4.883   6.423  0.5385  0.4291 -0.3412
   62SAPC  H15A 4858   0.180   4.886   6.335  0.0881  0.0841 -0.6774
   62SAPC  H15B 4859   0.033   4.825   6.389  0.7767  0.5491 -1.1590
   62SAPC  H15C 4860   0.094   4.984   6.454  0.0022 -0.1432  1.2071
   62SAPC   C11 4861   0.314   4.668   6.387 -0.5921  0.1318  1.1394
   62SAPC  H11A 4862   0.314   4.763   6.329  1.6568 -1.1320 -1.1535
   62SAPC  H11B 4863   0.298   4.587   6.313  0.0440 -0.1314  1.2864
   62SAPC     P 4864   0.499   4.511   6.489  0.3125 -0.1890  0.2413
   62SAPC   O13 4865   0.608   4.539   6.588 -0.2775  0.6026  0.1197
   62SAPC   O14 4866   0.384   4.431   6.541 -0.4378  0.1339  0.2677
   62SAPC   O12 4867   0.447   4.651   6.436 -0.2377 -0.5121  0.0915
   62SAPC   O11 4868   0.552   4.429   6.370  0.4817 -0.1752 -0.4903
   62SAPC    C1 4869   0.613   4.484   6.255 -0.1674  0.3922 -0.1454
   62SAPC    HA 4870   0.612   4.595   6.246 -0.2265  0.3809 -0.2940
   62SAPC    HB 4871   0.722   4.471   6.270 -0.5262 -3.5058  0.1951
   62SAPC    C2 4872   0.549   4.429   6.122  0.3961  0.1529  0.1081
   62SAPC    HS 4873   0.613   4.469   6.040 -0.4593  0.0196 -0.6497
   62SAPC   O21 4874   0.413   4.472   6.117  0.3339  0.1966  0.5899
   62SAPC   C21 4875   0.383   4.514   5.990  0.1288  0.3080  0.3555
   62SAPC   O22 4876   0.453   4.522   5.894 -0.6018 -0.0710 -0.6028
   62SAPC   C22 4877   0.237   4.547   5.982  0.3646 -0.0353 -0.5325
   62SAPC   H2R 4878   0.188   4.464   6.037  0.7665  0.7015  0.9978
   62SAPC   H2S 4879   0.220   4.642   6.038 -0.2102 -1.1804  1.3419
   62SAPC    C3 4880   0.558   4.277   6.105  0.1002  0.3432  0.6411
   62SAPC    HX 4881   0.515   4.247   6.007 -0.5329 -1.3854  1.4091
   62SAPC    HY 4882   0.496   4.237   6.189  1.8934 -0.2864  1.7353
   62SAPC   O31 4883   0.687   4.227   6.115  0.6480 -0.0326  0.2946
   62SAPC   C31 4884   0.762   4.203   6.007  0.6853  0.1451  0.0222
   62SAPC   O32 4885   0.732   4.234   5.894 -0.3342 -0.4848 -0.5881
   62SAPC   C32 4886   0.887   4.130   6.048 -0.0597 -0.4749  0.5054
   62SAPC   H2X 4887   0.911   4.155   6.153 -2.7951 -0.3507  1.1654
   62SAPC   H2Y 4888   0.970   4.157   5.979  1.0182 -2.1273  1.0796
   62SAPC   C23 4889   0.202   4.545   5.834 -0.0591  0.1115 -0.8438
   62SAPC   H3R 4890   0.242   4.449   5.794 -0.0470 -1.5351  2.7412
   62SAPC   H3S 4891   0.249   4.630   5.779  0.1272 -0.1339 -1.0665
   62SAPC   C24 4892   0.053   4.553   5.798  0.5029 -0.1122 -0.4462
   62SAPC   H4R 4893  -0.005   4.498   5.875 -0.4434  2.3129  0.6877
   62SAPC   H4S 4894   0.023   4.498   5.707 -0.5560  0.3505 -0.3885
   62SAPC   C25 4895  -0.008   4.691   5.783 -0.2748 -0.0432  0.9301
   62SAPC   H5R 4896  -0.046   4.744   5.871 -2.3453  0.4780 -0.2003
   62SAPC   C26 4897  -0.005   4.764   5.667 -0.0688 -0.7230  0.1053
   62SAPC   H6R 4898  -0.019   4.872   5.679  0.4095 -0.4253 -1.7428
   62SAPC   C27 4899   0.054   4.741   5.528 -0.4141 -0.1214 -0.5216
   62SAPC   H7R 4900   0.113   4.646   5.522  1.1040  0.8609 -2.3359
   62SAPC   H7S 4901   0.129   4.820   5.508  0.8651 -0.2491  3.0872
   62SAPC   C28 4902  -0.055   4.752   5.424 -0.2133  0.3754  0.1763
   62SAPC   H8R 4903  -0.139   4.681   5.436 -2.4821  3.1500  2.0014
   62SAPC   C29 4904  -0.042   4.825   5.312  0.1935 -0.1152 -0.1843
   62SAPC   H9R 4905  -0.130   4.838   5.247  0.1215  2.9359  0.3476
   62SAPC  C210 4906   0.072   4.924   5.277  0.0448  0.5930 -0.2182
   62SAPC  H10R 4907   0.174   4.878   5.272 -0.0060  0.5215 -0.7086
   62SAPC  H10S 4908   0.078   5.015   5.339 -0.0816  0.8336 -0.5589
   62SAPC  C211 4909   0.034   4.977   5.137 -0.7886  0.3480 -0.4828
   62SAPC  H11R 4910  -0.050   5.048   5.139  0.1826  1.5182  0.4245
   62SAPC  C212 4911   0.081   4.933   5.014  0.4822  0.7191  0.4864
   62SAPC  H12R 4912   0.049   4.977   4.919  1.3179  0.3260  0.0077
   62SAPC  C213 4913   0.189   4.833   4.985 -0.3380  0.9897  0.6308
   62SAPC  H13R 4914   0.255   4.830   5.074 -0.5873  0.1671  0.7990
   62SAPC  H13S 4915   0.250   4.875   4.902  0.1485 -1.0621 -0.1248
   62SAPC  C214 4916   0.123   4.699   4.945  0.0767  0.8472  0.7286
   62SAPC  H14R 4917   0.050   4.715   4.863  1.7309  1.0342 -0.7659
   62SAPC  C215 4918   0.160   4.573   4.975 -0.1349 -0.0110  0.2535
   62SAPC  H15R 4919   0.089   4.493   4.950  0.6262 -0.6012 -0.0544
   62SAPC  C216 4920   0.272   4.542   5.070 -0.1559  0.1425  0.6641
   62SAPC  H16R 4921   0.323   4.633   5.107 -0.3197  0.1470  0.8864
   62SAPC  H16S 4922   0.348   4.472   5.028 -0.5901  0.9237 -1.5402
   62SAPC  C217 4923   0.213   4.484   5.196  0.6957 -0.0228  0.3156
   62SAPC  H17R 4924   0.143   4.405   5.161 -0.3221  0.8797  0.2700
   62SAPC  H17S 4925   0.156   4.558   5.256  0.6374 -0.3136  0.6252
   62SAPC  C218 4926   0.324   4.420   5.284 -0.1608  0.0557  0.2699
   62SAPC  H18R 4927   0.405   4.493   5.305  0.7045  0.3507 -3.3989
   62SAPC  H18S 4928   0.380   4.351   5.217 -0.5865 -0.9226  0.8917
   62SAPC  C219 4929   0.285   4.330   5.403 -0.1513 -0.3658  0.2439
   62SAPC  H19R 4930   0.375   4.291   5.454 -0.7941  0.7591  2.3784
   62SAPC  H19S 4931   0.222   4.247   5.365  0.2305 -0.3862 -0.3494
   62SAPC  C220 4932   0.191   4.403   5.497  1.1359  0.8085 -0.1164
   62SAPC  H20R 4933   0.239   4.479   5.563  0.0593  1.2061  0.2371
   62SAPC  H20S 4934   0.154   4.335   5.577 -1.5661  1.0976 -1.0082
   62SAPC  H20T 4935   0.108   4.448   5.438 -0.0619 -1.0514  0.0600
   62SAPC   C33 4936   0.857   3.973   6.050  0.2803 -1.0660  0.0763
   62SAPC   H3X 4937   0.796   3.949   6.140 -0.0682  3.0142  1.1160
   62SAPC   H3Y 4938   0.951   3.917   6.064  1.2312  0.1828 -1.0575
   62SAPC   C34 4939   0.802   3.911   5.918 -1.0245 -0.0417  0.0534
   62SAPC   H4X 4940   0.701   3.950   5.895 -1.1623 -0.3221  0.1854
   62SAPC   H4Y 4941   0.792   3.804   5.945 -2.3636  0.0646  0.0592
   62SAPC   C35 4942   0.896   3.939   5.799  0.1966  0.4708 -0.7792
   62SAPC   H5X 4943   0.999   3.917   5.837 -0.2953  0.5920  0.6887
   62SAPC   H5Y 4944   0.887   4.047   5.774  2.1955  1.0980  0.8732
   62SAPC   C36 4945   0.865   3.864   5.670 -0.2076 -0.2581 -0.1292
   62SAPC   H6X 4946   0.927   3.903   5.587 -1.3188  3.0508  0.4359
   62SAPC   H6Y 4947   0.757   3.882   5.648 -0.5577  0.8422  2.2714
   62SAPC   C37 4948   0.889   3.715   5.672  0.1765  0.3188 -0.0443
   62SAPC   H7X 4949   0.826   3.671   5.753  0.6436 -1.4518 -0.5806
   62SAPC   H7Y 4950   0.995   3.703   5.702  0.3701  1.4043 -0.2751
   62SAPC   C38 4951   0.865   3.639   5.541 -0.1491 -0.9426  0.0714
   62SAPC   H8X 4952   0.760   3.657   5.511 -0.3289 -0.3095  1.0361
   62SAPC   H8Y 4953   0.887   3.530   5.546  2.9032 -0.3983  3.9724
   62SAPC   C39 4954   0.961   3.697   5.431 -0.1122  0.7717 -0.0673
   62SAPC   H9X 4955   1.055   3.706   5.489  0.3532  0.6710 -0.8019
   62SAPC   H9Y 4956   0.931   3.794   5.385 -2.4684  0.3462  0.4598
   62SAPC  C310 4957   0.975   3.608   5.308 -0.0351  0.5108 -0.4374
   62SAPC  H10X 4958   0.872   3.601   5.269 -0.2156  1.2455 -0.1203
   62SAPC  H10Y 4959   1.018   3.509   5.334 -0.4389  0.7939  1.4546
   62SAPC  C311 4960   1.071   3.661   5.202 -0.6026 -0.1933 -0.6439
   62SAPC  H11X 4961   1.163   3.680   5.260 -1.4799  3.2115 -0.1221
   62SAPC  H11Y 4962   1.043   3.761   5.162 -2.0639 -0.6638 -0.8650
   62SAPC  C312 4963   1.083   3.569   5.084  0.0328 -0.0498 -0.0803
   62SAPC  H12X 4964   1.105   3.464   5.108 -1.3199 -0.3562 -0.0943
   62SAPC  H12Y 4965   1.165   3.622   5.031  0.4135 -0.1918  0.3646
   62SAPC  C313 4966   0.967   3.575   4.980 -0.6902  0.2530 -0.7274
   62SAPC  H13X 4967   0.958   3.684   4.965  0.1635  0.6886  1.5519
   62SAPC  H13Y 4968   0.876   3.547   5.039  0.3630  1.6653  1.7422
   62SAPC  C314 4969   0.995   3.497   4.853  0.2966  0.4703  0.6039
   62SAPC  H14X 4970   0.907   3.501   4.785  0.7054  0.9930  0.0873
   62SAPC  H14Y 4971   0.998   3.391   4.884  2.5832  0.3473  0.1622
   62SAPC  C315 4972   1.128   3.526   4.781 -0.0386  0.5978 -0.7108
   62SAPC  H15X 4973   1.208   3.499   4.853  0.8367  2.3273 -0.9607
   62SAPC  H15Y 4974   1.143   3.635   4.765 -1.6428  0.7173 -1.6523
   62SAPC  C316 4975   1.152   3.449   4.647  0.3668  0.8558  1.4036
   62SAPC  H16X 4976   1.074   3.488   4.578 -1.2048  0.0362  2.6225
   62SAPC  H16Y 4977   1.145   3.339   4.651  1.0838  0.6853 -0.7829
   62SAPC  C317 4978   1.296   3.461   4.601 -0.4530 -0.3706 -0.4575
   62SAPC  H17X 4979   1.336   3.560   4.633 -0.2353 -0.2264 -1.1503
   62SAPC  H17Y 4980   1.316   3.446   4.493  0.1577  2.1471 -0.7634
   62SAPC  C318 4981   1.390   3.350   4.673  0.2869 -0.9058 -0.0815
   62SAPC  H18X 4982   1.498   3.368   4.655 -0.1859  0.4671 -1.7926
   62SAPC  H18Y 4983   1.369   3.249   4.632  1.0441 -0.7556 -0.8642
   62SAPC  H18Z 4984   1.374   3.355   4.783  2.3419  0.1685  0.2109
   63SAPC     N 4985   5.945   6.746   6.858  0.4605  0.5930  0.0015
   63SAPC   C12 4986   5.956   6.891   6.808 -0.9946 -0.0609  0.1517
   63SAPC  H12A 4987   5.861   6.942   6.810 -2.0096 -1.8494  1.8853
   63SAPC  H12B 4988   5.987   6.880   6.705  2.0719 -1.7128  1.1249
   63SAPC   C13 4989   5.900   6.748   7.006  0.0155  0.2619  0.7200
   63SAPC  H13A 4990   5.797   6.777   7.019 -1.2272 -2.6996 -1.3006
   63SAPC  H13B 4991   5.912   6.650   7.050  0.7214  0.5935  1.3016
   63SAPC  H13C 4992   5.969   6.815   7.055  1.8106 -1.0763  0.1720
   63SAPC   C14 4993   5.836   6.671   6.790 -0.1853 -0.3033  0.4260
   63SAPC  H14A 4994   5.747   6.727   6.816  0.3740  0.9797 -0.3127
   63SAPC  H14B 4995   5.839   6.678   6.682 -0.5711  1.0179  0.4854
   63SAPC  H14C 4996   5.816   6.567   6.813  2.8482 -0.6523  1.8769
   63SAPC   C15 4997   6.073   6.671   6.851 -0.3316  0.1437  0.4823
   63SAPC  H15A 4998   6.149   6.738   6.888  0.0164 -0.8385  1.5971
   63SAPC  H15B 4999   6.072   6.578   6.906  0.1887 -0.3227 -0.2713
   63SAPC  H15C 5000   6.090   6.654   6.745  0.9451  1.8024  0.3827
   63SAPC   C11 5001   6.055   6.999   6.872 -0.5307  0.1463  0.3212
   63SAPC  H11A 5002   6.017   7.021   6.974  1.6551  1.2955  0.9451
   63SAPC  H11B 5003   6.053   7.089   6.807 -0.4397 -1.3864 -1.9102
   63SAPC     P 5004   6.280   6.948   6.756 -0.3254  0.1574  0.0754
   63SAPC   O13 5005   6.348   7.083   6.747 -0.0573  1.0428 -0.1727
   63SAPC   O14 5006   6.367   6.829   6.769 -0.0455 -0.7553 -0.8320
   63SAPC   O12 5007   6.191   6.943   6.884  0.0365 -0.4984  0.3184
   63SAPC   O11 5008   6.180   6.932   6.635 -0.3404  0.5094 -0.6535
   63SAPC    C1 5009   6.192   6.841   6.529  0.2948  0.2919 -0.3605
   63SAPC    HA 5010   6.270   6.763   6.538  0.3743  0.2112 -1.5848
   63SAPC    HB 5011   6.092   6.795   6.518 -1.6086  2.6615  4.1195
   63SAPC    C2 5012   6.231   6.931   6.409 -0.0065  0.0301  0.2180
   63SAPC    HS 5013   6.203   6.868   6.321 -2.1131  0.8127  0.2636
   63SAPC   O21 5014   6.375   6.963   6.415  0.2326 -0.1260 -0.2237
   63SAPC   C21 5015   6.444   6.965   6.300 -0.0729  0.2177  0.1935
   63SAPC   O22 5016   6.399   6.933   6.189 -0.0179 -0.0333  0.0653
   63SAPC   C22 5017   6.593   7.005   6.318  0.5422  0.2047  0.6767
   63SAPC   H2R 5018   6.598   7.071   6.407 -0.0106 -0.4631  1.2078
   63SAPC   H2S 5019   6.642   6.910   6.348  0.3004  0.6964  2.8129
   63SAPC    C3 5020   6.147   7.062   6.405 -1.1450 -0.1286 -0.7789
   63SAPC    HX 5021   6.179   7.127   6.489  1.6546 -0.7940 -1.2272
   63SAPC    HY 5022   6.042   7.030   6.419 -1.1325  0.4549  0.8812
   63SAPC   O31 5023   6.154   7.136   6.281  0.1604 -0.1874  0.0612
   63SAPC   C31 5024   6.250   7.216   6.256 -0.4364  0.1414 -0.7385
   63SAPC   O32 5025   6.340   7.246   6.334  0.4093  0.4795 -0.1396
   63SAPC   C32 5026   6.227   7.290   6.125  0.3408 -0.1301 -0.3900
   63SAPC   H2X 5027   6.318   7.345   6.093 -0.4263  0.0088 -2.4966
   63SAPC   H2Y 5028   6.145   7.362   6.144  2.5194  2.6526 -0.9795
   63SAPC   C23 5029   6.653   7.066   6.194 -0.2782  0.2360  0.5898
   63SAPC   H3R 5030   6.630   7.006   6.104  0.4192  0.5729  0.1731
   63SAPC   H3S 5031   6.761   7.072   6.220 -0.1114  1.4905 -0.2638
   63SAPC   C24 5032   6.603   7.206   6.164  0.1447  0.7046  0.0497
   63SAPC   H4R 5033   6.586   7.257   6.262 -1.4642 -1.4079  0.9616
   63SAPC   H4S 5034   6.510   7.197   6.103  0.9585 -0.3751 -1.0658
   63SAPC   C25 5035   6.703   7.293   6.086  0.1427 -0.0473 -0.1698
   63SAPC   H5R 5036   6.781   7.346   6.141 -0.8816  0.6583  0.6389
   63SAPC   C26 5037   6.710   7.306   5.949  0.3985  0.0911 -0.4109
   63SAPC   H6R 5038   6.786   7.367   5.897  0.4152 -0.9345 -1.6405
   63SAPC   C27 5039   6.613   7.245   5.851 -0.4252 -0.5178  0.6436
   63SAPC   H7R 5040   6.511   7.216   5.882 -0.9287  0.2554 -0.2359
   63SAPC   H7S 5041   6.662   7.152   5.815  0.7519  0.1980  0.3101
   63SAPC   C28 5042   6.590   7.338   5.735  0.1084 -0.6466 -0.1815
   63SAPC   H8R 5043   6.551   7.436   5.766  0.3637 -0.3773 -0.7080
   63SAPC   C29 5044   6.610   7.314   5.607 -0.3572 -0.8290  0.5263
   63SAPC   H9R 5045   6.599   7.389   5.527  1.0073 -0.7062  0.4195
   63SAPC  C210 5046   6.651   7.186   5.554  0.6962  0.0552  0.5586
   63SAPC  H10R 5047   6.720   7.130   5.620 -0.6862 -1.9176  0.4407
   63SAPC  H10S 5048   6.706   7.204   5.459 -1.8811 -0.3682 -1.1288
   63SAPC  C211 5049   6.550   7.076   5.540  0.4133  0.2933 -0.5116
   63SAPC  H11R 5050   6.554   6.991   5.609  1.9299  1.2549  0.6418
   63SAPC  C212 5051   6.459   7.079   5.443 -0.4317 -0.4558 -0.3764
   63SAPC  H12R 5052   6.396   6.989   5.439 -1.4316  0.2403 -0.9652
   63SAPC  C213 5053   6.431   7.178   5.335 -0.0109 -0.5378 -0.2568
   63SAPC  H13R 5054   6.493   7.269   5.343 -0.5243 -0.1103 -0.9989
   63SAPC  H13S 5055   6.327   7.218   5.334 -0.1096 -0.7649 -1.6739
   63SAPC  C214 5056   6.451   7.112   5.203  0.0529  0.0164 -0.0838
   63SAPC  H14R 5057   6.445   7.002   5.197  1.6299 -0.0792 -0.3715
   63SAPC  C215 5058   6.510   7.166   5.093  0.2516  0.3220  0.6494
   63SAPC  H15R 5059   6.535   7.101   5.008  0.6900  0.6854  0.4962
   63SAPC  C216 5060   6.560   7.305   5.070  0.0271 -0.7127  0.3881
   63SAPC  H16R 5061   6.671   7.307   5.071  0.0259  0.2533  0.1918
   63SAPC  H16S 5062   6.532   7.378   5.149 -0.2006  0.2290 -0.5498
   63SAPC  C217 5063   6.501   7.358   4.937  0.0953  0.3243  0.0778
   63SAPC  H17R 5064   6.540   7.302   4.850 -1.9516  0.6338 -1.1063
   63SAPC  H17S 5065   6.550   7.456   4.918  0.3086  0.2927  0.4423
   63SAPC  C218 5066   6.345   7.373   4.927  0.4886  0.5009  0.7264
   63SAPC  H18R 5067   6.292   7.279   4.952  1.6233 -0.9309 -1.8449
   63SAPC  H18S 5068   6.324   7.387   4.818 -1.5394  0.9093  1.1259
   63SAPC  C219 5069   6.280   7.490   4.996 -0.1678  0.6723 -0.5986
   63SAPC  H19R 5070   6.178   7.505   4.954 -0.4182  0.1399 -0.1899
   63SAPC  H19S 5071   6.339   7.581   4.971 -1.2600  1.4652 -0.3482
   63SAPC  C220 5072   6.271   7.490   5.150  0.3734  0.3163 -0.2184
   63SAPC  H20R 5073   6.368   7.522   5.193  1.0416 -0.2003 -1.2760
   63SAPC  H20S 5074   6.258   7.387   5.190  3.1161 -0.2624 -0.6157
   63SAPC  H20T 5075   6.194   7.564   5.179  1.0466  0.4220  1.3963
   63SAPC   C33 5076   6.187   7.194   6.016 -0.2737 -0.6510  0.1158
   63SAPC   H3X 5077   6.096   7.138   6.047 -0.8773 -0.4121 -1.1595
   63SAPC   H3Y 5078   6.270   7.126   5.987  0.3601  1.0292 -2.3364
   63SAPC   C34 5079   6.154   7.270   5.887 -0.1083 -0.5086 -1.0584
   63SAPC   H4X 5080   6.249   7.308   5.844  0.4802 -0.1625  0.4573
   63SAPC   H4Y 5081   6.082   7.354   5.897  0.8380  0.1816  0.3509
   63SAPC   C35 5082   6.099   7.180   5.771  0.3017  0.5166 -0.5877
   63SAPC   H5X 5083   6.012   7.118   5.801  1.6240 -0.4626  1.3770
   63SAPC   H5Y 5084   6.183   7.117   5.736 -0.2940  0.2713 -1.6303
   63SAPC   C36 5085   6.058   7.264   5.659  0.5124  0.7232  0.0878
   63SAPC   H6X 5086   6.145   7.320   5.619  0.7473 -0.4930 -1.1867
   63SAPC   H6Y 5087   5.967   7.324   5.682 -0.9358 -0.1511 -2.7937
   63SAPC   C37 5088   6.031   7.174   5.535  0.0282 -0.1924  0.6571
   63SAPC   H7X 5089   5.944   7.108   5.554 -1.3856  1.6426  0.7585
   63SAPC   H7Y 5090   6.113   7.111   5.493 -1.1485 -0.7069 -0.9580
   63SAPC   C38 5091   5.977   7.257   5.422  0.0744 -0.1822  0.1620
   63SAPC   H8X 5092   6.055   7.334   5.406  0.2039 -0.3927 -0.2339
   63SAPC   H8Y 5093   5.894   7.314   5.468  1.8067  3.0832 -0.4590
   63SAPC   C39 5094   5.947   7.175   5.299  0.3083  0.7047 -0.1039
   63SAPC   H9X 5095   5.868   7.104   5.332  1.6789 -0.2560  1.2324
   63SAPC   H9Y 5096   6.043   7.122   5.283 -0.2057 -0.5737  0.8934
   63SAPC  C310 5097   5.906   7.253   5.177 -0.3906 -0.0640  0.5822
   63SAPC  H10X 5098   5.982   7.332   5.157 -2.9867  2.5441  0.3324
   63SAPC  H10Y 5099   5.814   7.310   5.200  0.4811  1.4403  0.4752
   63SAPC  C311 5100   5.883   7.156   5.056  0.5346  0.0680 -0.1853
   63SAPC  H11X 5101   5.792   7.096   5.077  1.1900 -1.3070 -1.1748
   63SAPC  H11Y 5102   5.963   7.082   5.038  0.8293  0.4157 -0.3222
   63SAPC  C312 5103   5.863   7.224   4.925 -0.4390 -0.0608  0.2424
   63SAPC  H12X 5104   5.954   7.284   4.903 -0.0546 -0.6492  0.2249
   63SAPC  H12Y 5105   5.775   7.291   4.940 -0.4055 -0.0938  0.5937
   63SAPC  C313 5106   5.843   7.124   4.815  1.1025 -0.3576  0.2255
   63SAPC  H13X 5107   5.761   7.055   4.843  1.9709 -1.1925  0.7847
   63SAPC  H13Y 5108   5.933   7.063   4.793 -0.1280 -1.0657 -3.5559
   63SAPC  C314 5109   5.812   7.199   4.685  0.0625 -0.0839 -0.6765
   63SAPC  H14X 5110   5.890   7.278   4.679 -1.7699  2.0112  0.8731
   63SAPC  H14Y 5111   5.723   7.263   4.706  1.2954  1.5363 -0.1398
   63SAPC  C315 5112   5.795   7.113   4.565 -0.0166  0.3784 -0.3389
   63SAPC  H15X 5113   5.744   7.179   4.492 -1.0981  1.5182  1.3830
   63SAPC  H15Y 5114   5.725   7.028   4.578  0.5078 -0.4970 -2.7931
   63SAPC  C316 5115   5.924   7.057   4.496  0.1116 -0.4131  0.0755
   63SAPC  H16X 5116   5.903   7.011   4.396  0.8047 -1.2475  0.2969
   63SAPC  H16Y 5117   5.970   6.984   4.565 -1.5563  0.3780  2.1178
   63SAPC  C317 5118   6.028   7.165   4.458 -0.6312  0.5038 -0.5143
   63SAPC  H17X 5119   6.060   7.215   4.552  0.4433 -2.6675  0.9486
   63SAPC  H17Y 5120   5.994   7.241   4.385  1.9615  0.7535 -1.5682
   63SAPC  C318 5121   6.162   7.097   4.412 -0.0503 -0.2951 -0.1415
   63SAPC  H18X 5122   6.187   7.019   4.487  0.8748  1.3256  1.3092
   63SAPC  H18Y 5123   6.244   7.172   4.411 -1.3686  1.2188  0.7754
   63SAPC  H18Z 5124   6.149   7.060   4.308 -3.6385  0.3974 -0.0760
   64SAPC     N 5125   1.328   0.909   7.273  0.7629 -0.6651 -0.1469
   64SAPC   C12 5126   1.350   0.956   7.129  0.4316  0.0041 -0.4124
   64SAPC  H12A 5127   1.282   0.900   7.067 -0.8791 -0.1890  1.1212
   64SAPC  H12B 5128   1.454   0.933   7.114  0.6366  1.7352 -1.8737
   64SAPC   C13 5129   1.405   0.990   7.369 -0.5603  0.3345 -0.0584
   64SAPC  H13A 5130   1.384   0.953   7.468 -3.0194  0.2308 -0.5565
   64SAPC  H13B 5131   1.511   0.972   7.360 -0.1170  3.1237 -1.6482
   64SAPC  H13C 5132   1.383   1.095   7.356 -1.3478  0.3165  1.0357
   64SAPC   C14 5133   1.182   0.919   7.307 -0.2463 -0.0990  0.1743
   64SAPC  H14A 5134   1.128   0.852   7.242  0.5147 -0.7651  0.2211
   64SAPC  H14B 5135   1.159   0.895   7.410  0.8588 -2.1502 -0.0045
   64SAPC  H14C 5136   1.145   1.018   7.288  0.0650  0.1910  1.0116
   64SAPC   C15 5137   1.367   0.766   7.287  0.4570 -0.2514  0.3716
   64SAPC  H15A 5138   1.475   0.761   7.285  0.5915 -1.0966  4.0901
   64SAPC  H15B 5139   1.335   0.735   7.385 -2.9196  1.5895  0.0047
   64SAPC  H15C 5140   1.324   0.701   7.212  1.5278 -1.4107  0.7224
   64SAPC   C11 5141   1.320   1.101   7.098  0.9735  0.0257 -0.2292
   64SAPC  H11A 5142   1.347   1.119   6.992  0.6435  1.3393 -0.1026
   64SAPC  H11B 5143   1.386   1.163   7.162  0.4036 -1.1292  1.5443
   64SAPC     P 5144   1.068   1.118   7.032  0.2150  0.0180  0.1125
   64SAPC   O13 5145   1.069   0.975   7.000  0.1786 -0.1084 -0.0923
   64SAPC   O14 5146   0.940   1.164   7.088 -0.1603  0.0859 -0.1888
   64SAPC   O12 5147   1.184   1.148   7.130  0.2324  0.9151  0.1475
   64SAPC   O11 5148   1.085   1.210   6.907  0.5832  0.2428 -0.1113
   64SAPC    C1 5149   1.153   1.164   6.786 -0.1384 -0.2365  0.8451
   64SAPC    HA 5150   1.229   1.241   6.762 -0.8945  0.9757  2.1387
   64SAPC    HB 5151   1.196   1.061   6.791 -2.4473 -1.3254 -0.1918
   64SAPC    C2 5152   1.059   1.152   6.658  0.0603 -0.6425 -0.3028
   64SAPC    HS 5153   1.113   1.111   6.570 -1.1277 -1.6056 -0.5988
   64SAPC   O21 5154   0.993   1.282   6.623  0.0702 -0.5393 -0.8057
   64SAPC   C21 5155   1.066   1.363   6.549 -0.2191 -0.9480 -0.1285
   64SAPC   O22 5156   1.182   1.343   6.526 -0.2545  0.2005  0.3674
   64SAPC   C22 5157   0.981   1.483   6.509  0.2132  0.0134  0.2197
   64SAPC   H2R 5158   0.881   1.471   6.554 -0.0588  1.4233  0.0438
   64SAPC   H2S 5159   1.010   1.573   6.568 -1.0299 -0.4000  1.5060
   64SAPC    C3 5160   0.949   1.043   6.674  0.3307  0.2206 -0.5864
   64SAPC    HX 5161   0.873   1.080   6.746 -1.3307  1.1861 -2.7206
   64SAPC    HY 5162   0.995   0.951   6.716 -0.0608  0.7135  0.9951
   64SAPC   O31 5163   0.878   1.011   6.554  0.1625 -0.2181  0.1903
   64SAPC   C31 5164   0.933   0.919   6.476  0.2532  0.0824 -0.2342
   64SAPC   O32 5165   1.040   0.864   6.492 -0.2226  0.2943  0.2224
   64SAPC   C32 5166   0.830   0.894   6.364  0.0552 -0.1992 -0.2852
   64SAPC   H2X 5167   0.774   0.985   6.333 -1.5491 -0.3446  1.9324
   64SAPC   H2Y 5168   0.753   0.825   6.406  0.2731 -0.0945  0.3038
   64SAPC   C23 5169   0.972   1.506   6.363  0.5697 -0.0355 -0.0839
   64SAPC   H3R 5170   1.070   1.528   6.314  0.5366  0.8181  0.2146
   64SAPC   H3S 5171   0.909   1.597   6.357 -0.4903 -0.6334  1.3719
   64SAPC   C24 5172   0.900   1.387   6.294  0.1717  0.5811 -0.4842
   64SAPC   H4R 5173   0.799   1.371   6.338  0.5012  1.7655  0.7657
   64SAPC   H4S 5174   0.972   1.305   6.316  2.1152  2.3689  0.0347
   64SAPC   C25 5175   0.882   1.418   6.150 -0.3031  0.1948 -0.6040
   64SAPC   H5R 5176   0.836   1.516   6.130 -1.0759 -0.0504 -0.1042
   64SAPC   C26 5177   0.918   1.345   6.044 -0.2501 -0.3367  0.6363
   64SAPC   H6R 5178   0.887   1.383   5.946 -0.4876 -0.6229  0.6000
   64SAPC   C27 5179   0.980   1.208   6.045 -0.1780 -0.0337  0.1131
   64SAPC   H7R 5180   0.961   1.165   6.146 -1.1438  0.1514  0.0224
   64SAPC   H7S 5181   1.090   1.217   6.031 -0.1378 -1.1137 -0.3314
   64SAPC   C28 5182   0.897   1.126   5.945  0.5133 -0.1522 -0.1857
   64SAPC   H8R 5183   0.818   1.065   5.991  1.0252 -1.0837 -0.5181
   64SAPC   C29 5184   0.919   1.116   5.818 -0.4088  0.1893  0.0417
   64SAPC   H9R 5185   0.849   1.057   5.756 -1.4908 -0.6723  1.9853
   64SAPC  C210 5186   1.026   1.192   5.744 -0.1999 -0.1049  0.1529
   64SAPC  H10R 5187   1.103   1.236   5.811  2.1279  1.5130 -3.2622
   64SAPC  H10S 5188   0.986   1.278   5.687  0.3409  0.9932  1.3924
   64SAPC  C211 5189   1.093   1.100   5.640  0.3641  0.6420 -0.0626
   64SAPC  H11R 5190   1.162   1.025   5.682 -0.7531 -0.4674 -0.1487
   64SAPC  C212 5191   1.081   1.107   5.506 -0.6582 -0.4632 -0.2974
   64SAPC  H12R 5192   1.144   1.040   5.447  1.8871  1.7155 -0.2630
   64SAPC  C213 5193   0.989   1.203   5.425  0.2445  0.0683 -1.4117
   64SAPC  H13R 5194   0.901   1.235   5.484  0.3966  3.5178 -2.8747
   64SAPC  H13S 5195   0.944   1.146   5.340  0.8997 -1.1159 -0.9902
   64SAPC  C214 5196   1.066   1.327   5.394 -0.0023 -0.0117 -0.5555
   64SAPC  H14R 5197   1.041   1.410   5.462 -1.4012 -1.4089  0.7209
   64SAPC  C215 5198   1.156   1.334   5.293  0.4910  0.5112  0.9084
   64SAPC  H15R 5199   1.213   1.426   5.277 -0.9710  1.8970  3.1573
   64SAPC  C216 5200   1.186   1.225   5.188 -0.0306 -1.0322 -1.0630
   64SAPC  H16R 5201   1.175   1.272   5.088 -1.1673  0.1335 -0.4087
   64SAPC  H16S 5202   1.129   1.130   5.190  1.7613 -2.1397  0.4895
   64SAPC  C217 5203   1.327   1.173   5.221 -0.3026 -0.5046  0.2018
   64SAPC  H17R 5204   1.340   1.079   5.163  0.7796 -2.2652  3.1287
   64SAPC  H17S 5205   1.339   1.154   5.329 -2.4962  0.5071  0.6896
   64SAPC  C218 5206   1.437   1.274   5.176  0.2867 -0.5510  0.4275
   64SAPC  H18R 5207   1.429   1.368   5.234  1.5202  0.8893 -1.6084
   64SAPC  H18S 5208   1.411   1.316   5.076 -3.1654 -1.4559  0.8259
   64SAPC  C219 5209   1.582   1.224   5.178 -0.0725 -0.7839 -0.5837
   64SAPC  H19R 5210   1.595   1.214   5.287  1.0620  1.7676 -0.4272
   64SAPC  H19S 5211   1.648   1.306   5.144  0.7132 -0.1925  2.1822
   64SAPC  C220 5212   1.601   1.096   5.102  0.5955 -0.3929 -0.2001
   64SAPC  H20R 5213   1.588   1.125   4.996 -0.9920  0.9392  0.3196
   64SAPC  H20S 5214   1.535   1.014   5.137  1.1343 -0.0867  1.6897
   64SAPC  H20T 5215   1.708   1.065   5.112  0.0710 -2.2795  0.0524
   64SAPC   C33 5216   0.888   0.834   6.229  0.4137 -0.7138 -0.8372
   64SAPC   H3X 5217   0.966   0.759   6.253  0.0360 -0.6404  0.7195
   64SAPC   H3Y 5218   0.936   0.914   6.170 -0.4032  0.8869  0.5706
   64SAPC   C34 5219   0.796   0.749   6.149  0.3004 -0.4382 -0.3033
   64SAPC   H4X 5220   0.692   0.789   6.146  0.2269 -0.6341 -0.3519
   64SAPC   H4Y 5221   0.789   0.664   6.220 -1.2383 -0.9023 -0.9654
   64SAPC   C35 5222   0.846   0.701   6.021 -0.5129 -0.4741  0.4474
   64SAPC   H5X 5223   0.929   0.629   6.034 -0.4675 -0.3889  0.6228
   64SAPC   H5Y 5224   0.890   0.786   5.964 -2.1571 -1.0503 -1.8501
   64SAPC   C36 5225   0.731   0.631   5.940 -0.2611  0.0803  0.3192
   64SAPC   H6X 5226   0.645   0.702   5.941 -1.8596 -1.7696  0.4725
   64SAPC   H6Y 5227   0.697   0.539   5.992 -1.5017 -0.4443 -1.3317
   64SAPC   C37 5228   0.769   0.595   5.798 -0.5995 -1.2647  0.3636
   64SAPC   H7X 5229   0.680   0.536   5.768 -1.4926 -0.1802  0.7911
   64SAPC   H7Y 5230   0.859   0.533   5.780 -0.7343 -0.8411 -2.1720
   64SAPC   C38 5231   0.773   0.709   5.700 -0.2009 -0.4859  0.4032
   64SAPC   H8X 5232   0.863   0.770   5.723  0.2629 -0.9080 -0.2727
   64SAPC   H8Y 5233   0.672   0.757   5.706  1.1158  2.6373 -0.2233
   64SAPC   C39 5234   0.802   0.660   5.557  0.9632  0.6191 -0.3218
   64SAPC   H9X 5235   0.703   0.625   5.522  1.2467 -0.3680 -0.1706
   64SAPC   H9Y 5236   0.865   0.569   5.562 -0.9300 -0.8694 -1.9445
   64SAPC  C310 5237   0.854   0.763   5.454  0.8614  0.0382 -0.1788
   64SAPC  H10X 5238   0.919   0.834   5.509 -0.6401  0.4964  1.0616
   64SAPC  H10Y 5239   0.766   0.823   5.422  0.6944 -0.4597 -0.6835
   64SAPC  C311 5240   0.930   0.696   5.331 -0.1699 -0.1958 -0.3478
   64SAPC  H11X 5241   0.855   0.630   5.282 -0.8912  1.3443 -1.3916
   64SAPC  H11Y 5242   1.015   0.632   5.364 -1.9634 -1.8786  1.2804
   64SAPC  C312 5243   0.982   0.813   5.247 -0.1626 -0.4504 -0.0165
   64SAPC  H12X 5244   1.055   0.759   5.183  0.6088 -2.7343  2.6216
   64SAPC  H12Y 5245   1.029   0.885   5.317 -0.2881 -0.3308 -0.0539
   64SAPC  C313 5246   0.872   0.882   5.157  0.2253  0.4263  0.1727
   64SAPC  H13X 5247   0.802   0.947   5.212 -1.6168 -0.5404 -0.9399
   64SAPC  H13Y 5248   0.800   0.801   5.132  2.4705 -1.4278 -0.6482
   64SAPC  C314 5249   0.912   0.944   5.031 -0.3321 -0.8238  0.1132
   64SAPC  H14X 5250   0.999   1.010   5.049 -1.8893  1.2704  0.3575
   64SAPC  H14Y 5251   0.832   1.017   5.007 -0.1331 -1.1308 -1.6033
   64SAPC  C315 5252   0.926   0.841   4.918 -0.6928  0.1362 -0.0305
   64SAPC  H15X 5253   0.824   0.805   4.893  0.0603 -1.7386 -0.5635
   64SAPC  H15Y 5254   0.992   0.758   4.954  0.4561  1.2081  0.4257
   64SAPC  C316 5255   0.972   0.916   4.791  0.0446  0.4070 -0.1324
   64SAPC  H16X 5256   1.076   0.941   4.821 -0.5284  0.7654  1.6585
   64SAPC  H16Y 5257   0.923   1.015   4.781 -4.0382 -1.5701 -2.6968
   64SAPC  C317 5258   0.959   0.831   4.669  0.6346 -0.4347 -0.6611
   64SAPC  H17X 5259   0.850   0.816   4.657  0.4870  0.0817 -0.0448
   64SAPC  H17Y 5260   0.997   0.731   4.698  0.7534 -0.5350 -1.1503
   64SAPC  C318 5261   1.042   0.891   4.555  0.7864 -0.3777  0.8508
   64SAPC  H18X 5262   1.019   0.999   4.545  0.4883 -0.2544  2.6979
   64SAPC  H18Y 5263   1.028   0.829   4.463 -0.2466  1.7370 -0.5065
   64SAPC  H18Z 5264   1.151   0.886   4.572  1.0402 -1.6825 -0.8327
   65SAPC     N 5265   1.215   2.640   1.974 -0.1087  0.4829  0.0751
   65SAPC   C12 5266   1.278   2.610   2.115 -0.1874 -0.3935 -0.5173
   65SAPC  H12A 5267   1.287   2.703   2.169 -4.1263 -0.5724  0.7537
   65SAPC  H12B 5268   1.376   2.568   2.097  0.4826  0.9244 -0.0468
   65SAPC   C13 5269   1.304   2.730   1.897 -0.6779  0.0879 -0.1815
   65SAPC  H13A 5270   1.403   2.693   1.877 -0.1449  1.5271 -0.3059
   65SAPC  H13B 5271   1.261   2.748   1.799 -0.5851 -0.0284 -0.2434
   65SAPC  H13C 5272   1.319   2.820   1.955  1.4016  0.3036 -0.9751
   65SAPC   C14 5273   1.205   2.512   1.891 -0.1028  0.7711 -0.2195
   65SAPC  H14A 5274   1.142   2.443   1.945 -0.5049  1.3409  0.0467
   65SAPC  H14B 5275   1.170   2.529   1.790  1.5824  1.5356 -0.7197
   65SAPC  H14C 5276   1.300   2.462   1.882 -0.7331 -0.4074 -0.6042
   65SAPC   C15 5277   1.084   2.708   1.984  0.1460 -0.3534 -0.5376
   65SAPC  H15A 5278   1.075   2.803   2.034 -1.6554  0.1445 -1.6869
   65SAPC  H15B 5279   1.050   2.723   1.882  0.0352 -2.9427 -0.9490
   65SAPC  H15C 5280   1.017   2.642   2.038 -0.3993 -1.3102 -2.2854
   65SAPC   C11 5281   1.204   2.518   2.214  0.0977  0.2401 -0.5741
   65SAPC  H11A 5282   1.125   2.581   2.261 -0.1039 -1.1741  1.1147
   65SAPC  H11B 5283   1.272   2.481   2.294 -0.2363 -0.7793 -0.7374
   65SAPC     P 5284   1.171   2.262   2.187 -0.2725  0.0343 -0.2742
   65SAPC   O13 5285   1.060   2.190   2.130 -0.3563 -0.5602 -0.1643
   65SAPC   O14 5286   1.308   2.216   2.156  0.2444  0.0223 -0.4900
   65SAPC   O12 5287   1.147   2.408   2.144 -0.2638 -0.1429 -0.0020
   65SAPC   O11 5288   1.164   2.283   2.342  0.1744  0.3308  0.1952
   65SAPC    C1 5289   1.087   2.198   2.424  0.8758  0.2919 -0.3047
   65SAPC    HA 5290   1.085   2.095   2.382 -0.1601  0.5877 -1.0153
   65SAPC    HB 5291   1.143   2.193   2.520 -0.1350 -1.0450  0.2484
   65SAPC    C2 5292   0.940   2.254   2.451 -0.2569 -0.2423 -0.2046
   65SAPC    HS 5293   0.880   2.238   2.360 -1.4868 -0.6049  0.6517
   65SAPC   O21 5294   0.942   2.394   2.494 -0.0925  0.3379 -0.3703
   65SAPC   C21 5295   0.842   2.463   2.458 -0.4789  0.8050  0.0516
   65SAPC   O22 5296   0.757   2.430   2.374 -0.3169  0.2993  0.0193
   65SAPC   C22 5297   0.867   2.610   2.511  0.1373 -0.1733 -0.6858
   65SAPC   H2R 5298   0.978   2.618   2.515  0.2918 -1.0012 -2.3393
   65SAPC   H2S 5299   0.829   2.684   2.437 -0.9622 -1.8085 -1.8565
   65SAPC    C3 5300   0.861   2.163   2.553  0.4358 -0.7354  0.5397
   65SAPC    HX 5301   0.869   2.056   2.523 -3.2811 -0.7294 -1.0393
   65SAPC    HY 5302   0.754   2.190   2.544  0.9263  1.5811  1.1827
   65SAPC   O31 5303   0.906   2.185   2.689  0.1937  0.3437 -0.0243
   65SAPC   C31 5304   0.948   2.076   2.761 -0.2701 -0.0766 -0.0718
   65SAPC   O32 5305   0.941   1.964   2.723 -0.6055  0.3133 -0.5865
   65SAPC   C32 5306   0.978   2.137   2.901  0.1184  0.2191 -0.2247
   65SAPC   H2X 5307   0.894   2.205   2.927  0.6741  1.4146 -1.3940
   65SAPC   H2Y 5308   1.071   2.199   2.902  0.4077 -0.2103  1.2451
   65SAPC   C23 5309   0.803   2.648   2.650 -0.2681 -0.2305  0.3639
   65SAPC   H3R 5310   0.693   2.660   2.645 -0.0672  1.3419 -0.7692
   65SAPC   H3S 5311   0.843   2.750   2.672 -0.0361 -0.1881 -0.2386
   65SAPC   C24 5312   0.842   2.551   2.765  0.0114  0.8326 -0.1179
   65SAPC   H4R 5313   0.809   2.446   2.748  1.0104  0.5734 -0.5223
   65SAPC   H4S 5314   0.776   2.586   2.847  0.8780  1.4206  0.3485
   65SAPC   C25 5315   0.989   2.542   2.796 -0.0964 -0.3498 -0.2607
   65SAPC   H5R 5316   1.051   2.480   2.730  0.4322 -1.1281  0.9367
   65SAPC   C26 5317   1.046   2.594   2.904 -0.3874  0.1100  1.1270
   65SAPC   H6R 5318   1.155   2.580   2.912 -0.2555  0.0147 -0.5496
   65SAPC   C27 5319   0.988   2.676   3.013 -0.1197 -0.0969 -0.6373
   65SAPC   H7R 5320   0.956   2.605   3.092  1.1636  0.7065  0.6481
   65SAPC   H7S 5321   0.902   2.736   2.977 -0.3401 -0.9335 -1.5415
   65SAPC   C28 5322   1.092   2.771   3.067  1.2049  0.2043  0.8235
   65SAPC   H8R 5323   1.101   2.857   2.998  0.1516 -1.5393 -1.6226
   65SAPC   C29 5324   1.168   2.761   3.176 -0.2066 -0.2693 -0.7098
   65SAPC   H9R 5325   1.258   2.824   3.187 -0.0408 -0.5869 -0.2029
   65SAPC  C210 5326   1.187   2.643   3.274  0.2991 -0.1226 -0.3421
   65SAPC  H10R 5327   1.109   2.657   3.352  0.7608 -1.8268  0.4656
   65SAPC  H10S 5328   1.289   2.668   3.309 -0.3439  2.4969 -0.0824
   65SAPC  C211 5329   1.186   2.499   3.238  0.0640  0.4230  1.2589
   65SAPC  H11R 5330   1.197   2.494   3.129 -2.1188  1.3689  0.9461
   65SAPC  C212 5331   1.162   2.393   3.315 -0.0983 -0.3323 -0.1825
   65SAPC  H12R 5332   1.164   2.292   3.271 -1.6121 -0.2198 -0.5562
   65SAPC  C213 5333   1.156   2.405   3.461  0.4995 -0.0113 -0.4114
   65SAPC  H13R 5334   1.162   2.511   3.494 -0.7663 -0.0405 -0.0390
   65SAPC  H13S 5335   1.252   2.358   3.492  0.9176 -0.1012 -1.7858
   65SAPC  C214 5336   1.042   2.339   3.530  0.9668  0.0024 -0.0024
   65SAPC  H14R 5337   0.940   2.379   3.516  0.7216 -0.4322  0.5163
   65SAPC  C215 5338   1.035   2.256   3.637 -1.2820  0.0862  0.2205
   65SAPC  H15R 5339   0.938   2.212   3.664  0.0819 -3.3443 -0.0626
   65SAPC  C216 5340   1.160   2.181   3.694 -0.0056 -0.0133 -0.5090
   65SAPC  H16R 5341   1.255   2.195   3.639 -0.5184  0.2535 -1.3430
   65SAPC  H16S 5342   1.131   2.076   3.674 -0.1198 -0.2482  0.8331
   65SAPC  C217 5343   1.180   2.198   3.849  0.1185  0.2294 -0.5287
   65SAPC  H17R 5344   1.095   2.152   3.904  3.4671 -2.1340  3.1573
   65SAPC  H17S 5345   1.179   2.307   3.868  0.6307  0.0143  0.7869
   65SAPC  C218 5346   1.310   2.125   3.889 -0.8737  0.0967 -0.5599
   65SAPC  H18R 5347   1.398   2.165   3.834 -0.3605 -3.2164 -2.4225
   65SAPC  H18S 5348   1.299   2.018   3.859  0.9065  0.5977 -3.3365
   65SAPC  C219 5349   1.330   2.138   4.049 -0.7845  0.5840  0.3857
   65SAPC  H19R 5350   1.421   2.081   4.079 -2.5758 -2.0110  1.2751
   65SAPC  H19S 5351   1.242   2.083   4.088 -0.8568 -0.3065 -0.9922
   65SAPC  C220 5352   1.337   2.285   4.094  0.2653  0.3803  0.5654
   65SAPC  H20R 5353   1.419   2.319   4.027  1.5498 -1.4794  1.1280
   65SAPC  H20S 5354   1.358   2.277   4.203 -0.5222 -0.9362  0.6402
   65SAPC  H20T 5355   1.247   2.349   4.083  0.7036  1.1668  1.3496
   65SAPC   C33 5356   0.980   2.033   3.013  0.1820  1.2249 -0.3545
   65SAPC   H3X 5357   1.068   1.971   2.983 -0.6590 -0.3078  0.2913
   65SAPC   H3Y 5358   0.893   1.965   3.010  1.4043 -0.7434  3.4661
   65SAPC   C34 5359   1.012   2.091   3.147  0.2601 -0.5157 -0.3798
   65SAPC   H4X 5360   0.939   2.171   3.175  0.6989 -0.1432 -0.2818
   65SAPC   H4Y 5361   1.112   2.140   3.142  0.3025 -0.2635  1.8211
   65SAPC   C35 5362   1.006   1.992   3.261 -0.6328  0.2863 -0.7610
   65SAPC   H5X 5363   1.014   2.049   3.356 -1.5649  0.4288 -0.7551
   65SAPC   H5Y 5364   1.099   1.932   3.264  1.0026  2.7075  0.5531
   65SAPC   C36 5365   0.869   1.910   3.281 -0.8856  0.4106  0.2289
   65SAPC   H6X 5366   0.863   1.833   3.201 -0.4377  0.9799 -0.3695
   65SAPC   H6Y 5367   0.783   1.981   3.284  0.2284  1.7674  1.4827
   65SAPC   C37 5368   0.871   1.832   3.417  0.0641  0.1780  0.6990
   65SAPC   H7X 5369   0.930   1.740   3.399 -0.3645  0.4270 -2.8409
   65SAPC   H7Y 5370   0.771   1.793   3.447  0.0171  0.9336  1.5429
   65SAPC   C38 5371   0.927   1.908   3.541  0.6535  0.3242 -0.1381
   65SAPC   H8X 5372   0.897   2.014   3.524  0.3846  0.0039 -1.8448
   65SAPC   H8Y 5373   1.037   1.899   3.536  0.6124 -0.0561 -0.4300
   65SAPC   C39 5374   0.867   1.867   3.674  0.0303  0.2828 -1.1807
   65SAPC   H9X 5375   0.888   1.759   3.686 -1.4709  0.2672  2.5109
   65SAPC   H9Y 5376   0.757   1.870   3.664 -0.0721  0.8641 -0.0445
   65SAPC  C310 5377   0.928   1.927   3.801  0.9027  0.1963  0.7089
   65SAPC  H10X 5378   0.892   2.027   3.833 -0.3546  0.4296 -1.2232
   65SAPC  H10Y 5379   1.037   1.943   3.784  0.7150  0.4675 -0.3125
   65SAPC  C311 5380   0.919   1.825   3.914  0.2199  0.8947  0.5589
   65SAPC  H11X 5381   0.989   1.865   3.990  3.2610 -1.0169 -1.0308
   65SAPC  H11Y 5382   0.947   1.722   3.884 -0.6860  1.4187 -2.4255
   65SAPC  C312 5383   0.780   1.825   3.981  0.3913 -0.1482 -0.8627
   65SAPC  H12X 5384   0.714   1.761   3.919  0.0991  1.1391 -1.9394
   65SAPC  H12Y 5385   0.754   1.933   3.972  2.5863  0.4738 -0.4297
   65SAPC  C313 5386   0.787   1.785   4.133  0.2625 -0.8262  0.3904
   65SAPC  H13X 5387   0.851   1.858   4.188 -1.4848  0.7657  0.4163
   65SAPC  H13Y 5388   0.805   1.677   4.148  2.8054 -0.2406  2.4571
   65SAPC  C314 5389   0.656   1.829   4.202 -0.2020 -0.5984  0.2662
   65SAPC  H14X 5390   0.569   1.770   4.166 -1.4733  0.0745  2.0929
   65SAPC  H14Y 5391   0.636   1.937   4.192 -0.9232 -0.9084 -2.1565
   65SAPC  C315 5392   0.666   1.792   4.351 -0.5353  0.3996  0.1409
   65SAPC  H15X 5393   0.708   1.689   4.352 -0.4383  0.3825 -2.1223
   65SAPC  H15Y 5394   0.568   1.796   4.403 -0.0571  2.1666  0.9820
   65SAPC  C316 5395   0.750   1.890   4.446 -0.7021 -0.3179  0.5581
   65SAPC  H16X 5396   0.711   1.994   4.443  0.9732  0.4629  2.9478
   65SAPC  H16Y 5397   0.851   1.886   4.401 -1.9032  0.2856 -2.4442
   65SAPC  C317 5398   0.745   1.854   4.589 -0.0523  0.3093 -0.3262
   65SAPC  H17X 5399   0.640   1.857   4.623  0.2243 -0.4020  0.6407
   65SAPC  H17Y 5400   0.807   1.928   4.645 -2.1744  0.6934  1.6427
   65SAPC  C318 5401   0.820   1.722   4.617 -0.2165 -0.0005  0.1631
   65SAPC  H18X 5402   0.834   1.704   4.726 -1.1982  0.0081  0.2998
   65SAPC  H18Y 5403   0.920   1.718   4.570 -0.0117 -0.6196  0.6375
   65SAPC  H18Z 5404   0.768   1.636   4.568  2.3759 -2.3952  1.3276
   66SAPC     N 5405   6.228   2.575   2.050  0.1556  0.1744 -0.6795
   66SAPC   C12 5406   6.232   2.576   2.204 -0.2574 -1.0849  0.4224
   66SAPC  H12A 5407   6.331   2.610   2.229 -0.8088  0.4722  0.6086
   66SAPC  H12B 5408   6.231   2.476   2.246  0.4556  0.0415  3.3995
   66SAPC   C13 5409   6.091   2.550   2.011  0.1727  0.6186 -0.8658
   66SAPC  H13A 5410   6.074   2.444   2.024  1.5506  0.3811 -0.8626
   66SAPC  H13B 5411   6.020   2.601   2.074  0.8531 -0.5789  0.9645
   66SAPC  H13C 5412   6.079   2.576   1.907  2.0513  0.6351 -1.1098
   66SAPC   C14 5413   6.256   2.708   1.988 -0.8105 -0.0674  0.0121
   66SAPC  H14A 5414   6.256   2.700   1.881  1.4947  0.2011 -0.0526
   66SAPC  H14B 5415   6.188   2.781   2.030 -1.1127 -0.4132  0.1289
   66SAPC  H14C 5416   6.355   2.739   2.018 -0.3437  0.2299 -1.7580
   66SAPC   C15 5417   6.325   2.480   1.999 -0.2587  0.0521  0.0854
   66SAPC  H15A 5418   6.300   2.463   1.895  0.8944  0.3375 -0.2527
   66SAPC  H15B 5419   6.425   2.519   2.010 -0.3012  0.0156  0.6204
   66SAPC  H15C 5420   6.331   2.389   2.057  0.8456 -1.4976 -2.3263
   66SAPC   C11 5421   6.140   2.674   2.289 -0.8638  0.5526  0.7078
   66SAPC  H11A 5422   6.158   2.777   2.251  2.2449  0.4125  1.4967
   66SAPC  H11B 5423   6.163   2.690   2.396  0.1510  0.6562  0.4884
   66SAPC     P 5424   5.930   2.512   2.335  0.0853 -0.1780 -0.0215
   66SAPC   O13 5425   5.818   2.491   2.241 -0.5676 -0.0685 -0.0467
   66SAPC   O14 5426   6.023   2.405   2.365 -0.4252 -0.0234 -0.3022
   66SAPC   O12 5427   6.000   2.635   2.267 -0.4354  0.4390 -0.2785
   66SAPC   O11 5428   5.881   2.580   2.467 -0.1252  0.0649 -0.0247
   66SAPC    C1 5429   5.987   2.611   2.565 -0.3574  0.5358  0.1874
   66SAPC    HA 5430   6.079   2.551   2.552 -0.9246 -0.1604 -0.6597
   66SAPC    HB 5431   6.016   2.718   2.572  0.0807  0.3242  2.5712
   66SAPC    C2 5432   5.944   2.575   2.711 -0.0522 -0.5900  0.1968
   66SAPC    HS 5433   5.902   2.472   2.714  0.4722 -0.8119  3.9486
   66SAPC   O21 5434   5.861   2.684   2.757 -0.5826  0.0758  0.1579
   66SAPC   C21 5435   5.742   2.642   2.802 -1.1080 -1.2839  0.5797
   66SAPC   O22 5436   5.700   2.533   2.805  0.2301  0.2318 -0.1021
   66SAPC   C22 5437   5.674   2.756   2.878 -0.0683  0.1371  0.4728
   66SAPC   H2R 5438   5.757   2.800   2.938  0.5630 -0.9044  0.3820
   66SAPC   H2S 5439   5.628   2.835   2.814  0.9532  1.1011  0.8855
   66SAPC    C3 5440   6.071   2.561   2.807  0.0301 -0.5543  0.4339
   66SAPC    HX 5441   6.130   2.655   2.799  1.4050 -1.5012 -1.8076
   66SAPC    HY 5442   6.143   2.488   2.763 -0.2442  0.1217 -1.2122
   66SAPC   O31 5443   6.021   2.517   2.937  0.2846  0.1548  0.7508
   66SAPC   C31 5444   6.057   2.601   3.040  0.3205  0.3616  0.3078
   66SAPC   O32 5445   6.124   2.699   3.023 -0.2238 -0.0047 -0.2425
   66SAPC   C32 5446   6.022   2.537   3.169  0.0275  0.3510  0.4680
   66SAPC   H2X 5447   6.055   2.431   3.161 -1.3387 -0.1665  1.3518
   66SAPC   H2Y 5448   5.913   2.528   3.189 -0.0154 -1.0322 -0.2990
   66SAPC   C23 5449   5.556   2.706   2.967  0.4815  0.6730  1.0398
   66SAPC   H3R 5450   5.579   2.609   3.017  0.0644 -0.3860 -0.7133
   66SAPC   H3S 5451   5.477   2.667   2.899  1.7908 -2.5517  1.1700
   66SAPC   C24 5452   5.510   2.814   3.064  0.3899 -0.2561 -0.5453
   66SAPC   H4R 5453   5.491   2.909   3.008  1.1313  1.8961  2.5880
   66SAPC   H4S 5454   5.585   2.838   3.142 -0.5710  0.3970  0.2051
   66SAPC   C25 5455   5.371   2.793   3.125  0.4456 -0.2319 -0.5282
   66SAPC   H5R 5456   5.286   2.806   3.056 -2.7916 -1.5284  2.8755
   66SAPC   C26 5457   5.346   2.773   3.259 -0.3614  0.6799 -0.1064
   66SAPC   H6R 5458   5.243   2.759   3.294  0.4703 -1.3587  1.7603
   66SAPC   C27 5459   5.450   2.755   3.371 -0.4644  0.3438 -0.6165
   66SAPC   H7R 5460   5.405   2.786   3.468 -1.5771  1.4935 -1.4638
   66SAPC   H7S 5461   5.538   2.819   3.351  0.7804 -0.5832  1.5478
   66SAPC   C28 5462   5.490   2.605   3.386 -0.6178  0.5625 -0.2946
   66SAPC   H8R 5463   5.483   2.551   3.290 -2.6339  0.1739  0.0226
   66SAPC   C29 5464   5.541   2.548   3.496 -0.0793  0.0690 -0.6260
   66SAPC   H9R 5465   5.550   2.439   3.489 -2.0686 -0.1124 -0.8555
   66SAPC  C210 5466   5.542   2.612   3.633  0.0418 -0.1115 -0.0423
   66SAPC  H10R 5467   5.472   2.698   3.631  0.6715  0.4237 -2.3981
   66SAPC  H10S 5468   5.643   2.657   3.642 -0.3445  1.7172 -3.3157
   66SAPC  C211 5469   5.534   2.516   3.755 -0.3383 -0.1106  0.7816
   66SAPC  H11R 5470   5.588   2.421   3.740  0.7736  0.5721  0.3813
   66SAPC  C212 5471   5.470   2.543   3.868  0.0566 -0.1746  0.1623
   66SAPC  H12R 5472   5.478   2.462   3.943 -0.2055  0.0971  0.4889
   66SAPC  C213 5473   5.391   2.669   3.906 -0.1606 -0.9826 -0.4459
   66SAPC  H13R 5474   5.345   2.709   3.813 -2.1710 -1.4340  0.3206
   66SAPC  H13S 5475   5.473   2.734   3.945  0.8370 -0.6534 -2.8805
   66SAPC  C214 5476   5.285   2.651   4.001 -0.4047 -0.1386 -0.1829
   66SAPC  H14R 5477   5.228   2.562   3.970 -3.0832  2.1889 -2.5314
   66SAPC  C215 5478   5.233   2.729   4.099 -0.7679  0.2913  0.6410
   66SAPC  H15R 5479   5.156   2.687   4.165  0.8104 -1.5340  1.4147
   66SAPC  C216 5480   5.279   2.866   4.158 -0.2172 -0.0461  0.6911
   66SAPC  H16R 5481   5.327   2.839   4.255  0.3851 -4.3094 -0.5700
   66SAPC  H16S 5482   5.195   2.931   4.189 -1.3624 -1.2260  0.1644
   66SAPC  C217 5483   5.379   2.959   4.083  0.0814  0.5587  0.0701
   66SAPC  H17R 5484   5.360   2.953   3.974 -1.3176 -0.0446  0.3269
   66SAPC  H17S 5485   5.482   2.917   4.091 -1.0010 -2.3705 -0.2475
   66SAPC  C218 5486   5.373   3.108   4.137 -0.2764 -0.7800  0.1970
   66SAPC  H18R 5487   5.365   3.104   4.248 -2.5973  1.6638  0.2138
   66SAPC  H18S 5488   5.279   3.142   4.088  0.7804  2.0101 -0.0915
   66SAPC  C219 5489   5.489   3.186   4.083  0.0953  0.6998 -0.1580
   66SAPC  H19R 5490   5.573   3.122   4.050 -0.8067 -0.2784 -0.6234
   66SAPC  H19S 5491   5.536   3.242   4.167 -1.7503  1.1147  0.6673
   66SAPC  C220 5492   5.464   3.286   3.970 -0.4325  0.6448 -0.0562
   66SAPC  H20R 5493   5.387   3.365   3.983 -2.0604 -0.9746  0.5134
   66SAPC  H20S 5494   5.442   3.231   3.876  1.7591  1.6193 -1.2222
   66SAPC  H20T 5495   5.558   3.339   3.945 -0.4095  0.3971 -0.4976
   66SAPC   C33 5496   6.092   2.605   3.286 -0.2449  0.4013  0.3760
   66SAPC   H3X 5497   6.059   2.709   3.306 -1.1829  0.0354  0.7840
   66SAPC   H3Y 5498   6.200   2.603   3.261 -0.2675  0.1706  0.2949
   66SAPC   C34 5499   6.060   2.525   3.413  0.7935  0.3332  0.9279
   66SAPC   H4X 5500   6.057   2.416   3.396 -3.2409  0.7547 -2.7695
   66SAPC   H4Y 5501   5.962   2.564   3.449  1.2184  1.9031  0.4598
   66SAPC   C35 5502   6.167   2.549   3.523  0.3548  0.0007 -0.1048
   66SAPC   H5X 5503   6.152   2.649   3.569  0.3270 -0.3851  0.7634
   66SAPC   H5Y 5504   6.268   2.555   3.477  0.5760  1.8317  0.5577
   66SAPC   C36 5505   6.152   2.455   3.642 -0.2635  0.0390  0.0698
   66SAPC   H6X 5506   6.184   2.350   3.627 -0.5186  0.1121 -1.0613
   66SAPC   H6Y 5507   6.042   2.462   3.656 -0.2493  0.6134 -0.0562
   66SAPC   C37 5508   6.218   2.511   3.765  0.6658 -0.1237 -0.2264
   66SAPC   H7X 5509   6.193   2.619   3.773 -0.8467 -0.3814 -0.9804
   66SAPC   H7Y 5510   6.329   2.511   3.759  0.7153 -0.4510  0.6097
   66SAPC   C38 5511   6.159   2.449   3.893 -0.7885 -0.8218  0.1633
   66SAPC   H8X 5512   6.149   2.338   3.889  2.1369 -1.1827  0.1262
   66SAPC   H8Y 5513   6.061   2.493   3.919 -1.1567 -1.8331  0.5200
   66SAPC   C39 5514   6.261   2.473   4.016  0.6487  0.8272 -0.5194
   66SAPC   H9X 5515   6.271   2.572   4.064 -1.0544  1.4008 -1.2605
   66SAPC   H9Y 5516   6.362   2.445   3.980 -0.7742 -2.0221 -2.8041
   66SAPC  C310 5517   6.228   2.371   4.118 -0.2577 -0.2389 -0.6731
   66SAPC  H10X 5518   6.231   2.266   4.081 -1.0963 -1.1187  1.5428
   66SAPC  H10Y 5519   6.126   2.376   4.163  0.4854  0.0354  1.0195
   66SAPC  C311 5520   6.328   2.368   4.234 -0.3134 -0.7280 -0.8989
   66SAPC  H11X 5521   6.430   2.363   4.189 -0.1728 -1.6453 -0.5039
   66SAPC  H11Y 5522   6.312   2.270   4.284  0.8891 -0.9684 -0.9488
   66SAPC  C312 5523   6.315   2.488   4.332 -0.2191  0.8087 -0.2028
   66SAPC  H12X 5524   6.207   2.515   4.336  0.1146  2.7409 -2.2566
   66SAPC  H12Y 5525   6.361   2.580   4.291  2.4044 -0.4985 -0.3917
   66SAPC  C313 5526   6.360   2.450   4.474  0.1482  0.4373  0.5020
   66SAPC  H13X 5527   6.458   2.398   4.466 -0.5796 -0.7934 -0.8703
   66SAPC  H13Y 5528   6.298   2.374   4.526  0.2190  1.1873  1.7225
   66SAPC  C314 5529   6.365   2.575   4.564 -0.6762 -1.0209  0.3080
   66SAPC  H14X 5530   6.266   2.627   4.565  0.2194  0.7512  0.0951
   66SAPC  H14Y 5531   6.442   2.637   4.515  2.5549 -3.9536  1.2923
   66SAPC  C315 5532   6.398   2.552   4.714  0.0592 -0.1245  0.5267
   66SAPC  H15X 5533   6.492   2.493   4.714 -0.2254 -0.5917 -0.7929
   66SAPC  H15Y 5534   6.322   2.490   4.765  0.1547 -1.6074 -1.0448
   66SAPC  C316 5535   6.416   2.680   4.790  0.4592  0.0391  0.2882
   66SAPC  H16X 5536   6.497   2.734   4.736  0.7632  0.0554  0.7550
   66SAPC  H16Y 5537   6.447   2.649   4.892 -0.2362 -1.6439  0.0221
   66SAPC  C317 5538   6.289   2.760   4.820 -0.4894  0.3384 -0.1785
   66SAPC  H17X 5539   6.209   2.700   4.868 -1.6477  0.5519 -1.7936
   66SAPC  H17Y 5540   6.258   2.816   4.730 -0.2817  2.3835  0.9380
   66SAPC  C318 5541   6.319   2.860   4.932  0.6156  0.3329 -0.1895
   66SAPC  H18X 5542   6.363   2.813   5.022  2.4785 -0.7294 -1.5887
   66SAPC  H18Y 5543   6.236   2.923   4.970 -0.3316 -0.5182 -0.8009
   66SAPC  H18Z 5544   6.402   2.925   4.898  2.3573 -1.1538  1.0151
   67SAPC     N 5545   5.159   3.255   2.376 -0.4871  1.0029 -0.6279
   67SAPC   C12 5546   5.166   3.398   2.328  0.2496 -0.1632  0.2594
   67SAPC  H12A 5547   5.066   3.433   2.309 -1.1364 -4.7749 -2.3527
   67SAPC  H12B 5548   5.218   3.402   2.233  1.2902  0.5561  0.8427
   67SAPC   C13 5549   5.287   3.174   2.349  0.8303 -0.3215  0.0940
   67SAPC  H13A 5550   5.273   3.084   2.407  0.5138  1.2945  2.6907
   67SAPC  H13B 5551   5.280   3.161   2.242  0.7062 -1.6701  0.2516
   67SAPC  H13C 5552   5.374   3.226   2.386  0.8507  0.0145 -0.4206
   67SAPC   C14 5553   5.152   3.259   2.529  0.3945  0.2519 -0.3278
   67SAPC  H14A 5554   5.069   3.319   2.564  1.0750  1.1221 -0.1750
   67SAPC  H14B 5555   5.142   3.162   2.574 -0.2486  1.1425  1.5743
   67SAPC  H14C 5556   5.241   3.312   2.561 -0.2289 -0.1451  2.2844
   67SAPC   C15 5557   5.041   3.189   2.320 -0.2621 -0.2974 -0.1186
   67SAPC  H15A 5558   4.949   3.231   2.357 -0.8123 -0.9285 -0.7485
   67SAPC  H15B 5559   5.041   3.206   2.213  1.4713 -2.4783 -0.5392
   67SAPC  H15C 5560   5.030   3.082   2.324 -3.3002 -0.1216 -1.2014
   67SAPC   C11 5561   5.248   3.501   2.405 -1.0227  0.1115 -0.5397
   67SAPC  H11A 5562   5.179   3.531   2.487 -0.5417  1.4360 -0.6021
   67SAPC  H11B 5563   5.277   3.593   2.351  0.6431  0.8343  1.4452
   67SAPC     P 5564   5.512   3.457   2.414  0.1493 -0.2610  0.0000
   67SAPC   O13 5565   5.581   3.328   2.409  0.2100 -0.5014  0.3463
   67SAPC   O14 5566   5.511   3.529   2.289 -0.3644 -0.0840  0.2785
   67SAPC   O12 5567   5.362   3.431   2.460  0.3694 -0.9639  0.3904
   67SAPC   O11 5568   5.571   3.554   2.518 -0.1200  0.2703 -0.9218
   67SAPC    C1 5569   5.508   3.670   2.582 -0.2801  0.6987  0.4043
   67SAPC    HA 5570   5.587   3.741   2.614  0.7191  0.3350 -1.1648
   67SAPC    HB 5571   5.451   3.727   2.505 -2.5615  0.5716  1.9116
   67SAPC    C2 5572   5.419   3.639   2.703  0.2835  0.1953 -0.5714
   67SAPC    HS 5573   5.321   3.592   2.677 -0.5271  2.2609 -1.4921
   67SAPC   O21 5574   5.384   3.759   2.780 -0.3751 -0.2120 -0.1241
   67SAPC   C21 5575   5.288   3.825   2.717  0.1247  0.4723 -1.0986
   67SAPC   O22 5576   5.224   3.784   2.621  0.0355  0.5672 -0.1002
   67SAPC   C22 5577   5.248   3.955   2.791  0.5506 -0.3363 -0.2100
   67SAPC   H2R 5578   5.338   3.983   2.849  2.0519 -1.6969 -1.7460
   67SAPC   H2S 5579   5.212   4.030   2.718 -3.1307 -1.8674 -0.1812
   67SAPC    C3 5580   5.492   3.543   2.807 -1.0358  0.2046  0.1658
   67SAPC    HX 5581   5.582   3.602   2.837 -1.8279  1.4728  0.1340
   67SAPC    HY 5582   5.522   3.452   2.752 -2.1955  1.8067 -3.4528
   67SAPC   O31 5583   5.428   3.524   2.932  0.3354 -0.1876  0.6859
   67SAPC   C31 5584   5.331   3.435   2.932 -0.0627  0.3078 -0.0253
   67SAPC   O32 5585   5.294   3.378   2.831  0.2137  0.8091  0.4374
   67SAPC   C32 5586   5.259   3.434   3.065 -0.2741  0.9836  1.0055
   67SAPC   H2X 5587   5.193   3.523   3.062  1.2889  2.2197  1.8701
   67SAPC   H2Y 5588   5.326   3.435   3.154  0.7221 -1.0576  0.3422
   67SAPC   C23 5589   5.140   3.931   2.893  0.2785  0.2220  0.6076
   67SAPC   H3R 5590   5.160   3.849   2.966 -1.1726 -1.2892 -0.6018
   67SAPC   H3S 5591   5.049   3.903   2.835 -0.4092  1.1966  1.1880
   67SAPC   C24 5592   5.094   4.046   2.990 -0.1739 -0.1845 -0.0716
   67SAPC   H4R 5593   5.176   4.068   3.062 -1.2076  3.6028  0.1704
   67SAPC   H4S 5594   5.024   3.996   3.061  2.3156 -0.4047  2.4418
   67SAPC   C25 5595   5.023   4.167   2.935  0.3902 -0.5740  0.2995
   67SAPC   H5R 5596   5.081   4.221   2.858  1.9750 -0.6580  1.3990
   67SAPC   C26 5597   4.903   4.211   2.975 -0.3743 -0.4454  0.1290
   67SAPC   H6R 5598   4.873   4.302   2.921 -1.4021 -0.8769 -0.0584
   67SAPC   C27 5599   4.806   4.160   3.077 -0.0597 -0.2322  0.0449
   67SAPC   H7R 5600   4.830   4.052   3.086  0.1710 -0.2512 -0.8000
   67SAPC   H7S 5601   4.701   4.158   3.039  0.3306  0.7605 -1.1376
   67SAPC   C28 5602   4.821   4.230   3.214 -0.6533 -0.0324  0.4442
   67SAPC   H8R 5603   4.851   4.335   3.201 -0.3275 -0.4311 -2.6586
   67SAPC   C29 5604   4.805   4.176   3.336  0.2852  0.7440 -0.1371
   67SAPC   H9R 5605   4.818   4.235   3.428 -0.5055  0.2265  0.3216
   67SAPC  C210 5606   4.754   4.031   3.356  0.4400  0.2937 -0.2526
   67SAPC  H10R 5607   4.847   3.974   3.381 -0.7430 -1.3934  0.5136
   67SAPC  H10S 5608   4.724   3.981   3.262  1.2026 -0.9573  0.1432
   67SAPC  C211 5609   4.639   4.026   3.454  0.6348 -0.1270 -0.6998
   67SAPC  H11R 5610   4.556   4.095   3.434  0.1552 -0.9138 -1.4831
   67SAPC  C212 5611   4.621   3.929   3.553 -0.6979  0.2010 -0.1150
   67SAPC  H12R 5612   4.532   3.939   3.617 -0.6686 -0.5096  0.0367
   67SAPC  C213 5613   4.715   3.818   3.593 -0.1065 -0.6359  0.3940
   67SAPC  H13R 5614   4.798   3.806   3.521  0.5872 -1.9938  1.3662
   67SAPC  H13S 5615   4.657   3.723   3.588  0.0214 -0.7056  0.2453
   67SAPC  C214 5616   4.767   3.837   3.730  0.8081 -0.0640  0.5392
   67SAPC  H14R 5617   4.856   3.901   3.720 -0.1208  1.0887 -0.7133
   67SAPC  C215 5618   4.717   3.785   3.844  0.5190  0.8738 -0.5686
   67SAPC  H15R 5619   4.768   3.816   3.936  2.8873  1.1570 -1.9024
   67SAPC  C216 5620   4.606   3.685   3.861  0.0399 -0.2350 -0.4469
   67SAPC  H16R 5621   4.555   3.662   3.765  0.7439  0.5901 -1.0270
   67SAPC  H16S 5622   4.523   3.732   3.918 -0.4237 -0.8937 -0.5617
   67SAPC  C217 5623   4.651   3.556   3.929 -0.3435  0.2131  0.0505
   67SAPC  H17R 5624   4.702   3.569   4.026  0.5611 -0.4298 -0.3301
   67SAPC  H17S 5625   4.719   3.508   3.856 -0.9336 -0.6894  0.0812
   67SAPC  C218 5626   4.523   3.475   3.970 -0.5026 -0.4545  0.3278
   67SAPC  H18R 5627   4.513   3.377   3.920 -2.4570 -0.2612  0.2642
   67SAPC  H18S 5628   4.435   3.534   3.935  0.6372  0.9793 -0.2147
   67SAPC  C219 5629   4.517   3.442   4.117  1.2637  0.0567  0.3643
   67SAPC  H19R 5630   4.611   3.395   4.155  1.5715 -0.1045 -0.5796
   67SAPC  H19S 5631   4.431   3.372   4.125  1.4012 -0.2831 -0.9504
   67SAPC  C220 5632   4.481   3.565   4.211  0.4498 -0.7716  0.1488
   67SAPC  H20R 5633   4.390   3.613   4.170  1.8728  2.1051  0.1306
   67SAPC  H20S 5634   4.563   3.639   4.197  0.7670 -1.6155 -3.3747
   67SAPC  H20T 5635   4.463   3.536   4.317  0.4091 -0.8521  0.1197
   67SAPC   C33 5636   5.181   3.308   3.075  1.1029  0.1010  0.1822
   67SAPC   H3X 5637   5.118   3.296   2.985 -0.2505 -0.6636  1.1852
   67SAPC   H3Y 5638   5.108   3.303   3.158  1.7341  1.1076  0.8290
   67SAPC   C34 5639   5.265   3.179   3.086 -0.4548 -0.2156 -0.3699
   67SAPC   H4X 5640   5.343   3.167   3.009  0.5421 -0.4430  0.6540
   67SAPC   H4Y 5641   5.191   3.098   3.068 -0.8175  0.0964 -0.2953
   67SAPC   C35 5642   5.316   3.152   3.231  0.6553 -0.6276  0.0253
   67SAPC   H5X 5643   5.368   3.248   3.252 -2.5345  1.3712 -0.3898
   67SAPC   H5Y 5644   5.390   3.069   3.226  0.1083 -1.0454 -2.2391
   67SAPC   C36 5645   5.209   3.114   3.338 -0.2808 -0.2522  1.0271
   67SAPC   H6X 5646   5.153   3.020   3.317 -0.3858 -0.2065  1.0994
   67SAPC   H6Y 5647   5.138   3.199   3.350  1.6432  1.6367 -0.1856
   67SAPC   C37 5648   5.265   3.097   3.483 -0.1201  0.0908 -0.8645
   67SAPC   H7X 5649   5.337   3.177   3.508  0.6934 -1.3971  2.0038
   67SAPC   H7Y 5650   5.319   3.000   3.487  1.3147  0.9133  0.4433
   67SAPC   C38 5651   5.153   3.089   3.591  0.8297 -0.1701 -0.0776
   67SAPC   H8X 5652   5.100   2.992   3.584 -0.9594  0.5892  1.8003
   67SAPC   H8Y 5653   5.083   3.171   3.562  1.3724  0.9570  1.6525
   67SAPC   C39 5654   5.210   3.130   3.725  0.9831  0.2051 -0.4622
   67SAPC   H9X 5655   5.281   3.213   3.705 -1.7040  2.0538 -3.1514
   67SAPC   H9Y 5656   5.270   3.048   3.771 -1.7206 -1.0477  1.0794
   67SAPC  C310 5657   5.105   3.176   3.830 -0.0947 -0.0996  0.2959
   67SAPC  H10X 5658   5.021   3.224   3.776  0.2866 -0.2341 -0.4226
   67SAPC  H10Y 5659   5.144   3.246   3.907  0.9466 -0.6476  0.2919
   67SAPC  C311 5660   5.053   3.058   3.908  0.1606  0.6916 -0.6452
   67SAPC  H11X 5661   5.137   3.001   3.953  2.6931  2.3048 -2.9901
   67SAPC  H11Y 5662   4.993   2.996   3.839 -0.3303  0.2459  0.1670
   67SAPC  C312 5663   4.961   3.097   4.029 -0.5917  0.3322 -0.2164
   67SAPC  H12X 5664   4.885   3.172   3.996  0.3392  1.8886  1.0652
   67SAPC  H12Y 5665   5.026   3.151   4.101  2.4142 -1.6818 -1.2251
   67SAPC  C313 5666   4.888   2.989   4.106  0.6897 -0.0772 -0.1432
   67SAPC  H13X 5667   4.960   2.919   4.155 -1.3966 -0.8615  2.0244
   67SAPC  H13Y 5668   4.841   2.920   4.032  2.1603  0.1341 -1.3101
   67SAPC  C314 5669   4.786   3.031   4.212 -0.1644  0.4468 -0.6060
   67SAPC  H14X 5670   4.778   2.959   4.295 -3.1018  0.1570 -1.0386
   67SAPC  H14Y 5671   4.684   3.025   4.169 -0.8737  2.3938  0.6743
   67SAPC  C315 5672   4.825   3.169   4.285  0.3126  0.2832 -0.3120
   67SAPC  H15X 5673   4.828   3.246   4.205 -0.2103 -0.7185 -1.3317
   67SAPC  H15Y 5674   4.930   3.173   4.322  1.2095 -1.1525 -2.4789
   67SAPC  C316 5675   4.727   3.214   4.384  0.9445  0.9734  0.4461
   67SAPC  H16X 5676   4.690   3.128   4.443 -2.5203  3.0215  1.5780
   67SAPC  H16Y 5677   4.639   3.251   4.328  0.8008 -0.8760 -0.6069
   67SAPC  C317 5678   4.768   3.320   4.483 -0.0849 -1.3622  0.5337
   67SAPC  H17X 5679   4.849   3.388   4.447  1.4175 -0.8149  4.4254
   67SAPC  H17Y 5680   4.828   3.275   4.565  2.4356  1.0760  0.1819
   67SAPC  C318 5681   4.657   3.401   4.551  0.1587  0.1671 -0.3630
   67SAPC  H18X 5682   4.593   3.460   4.482 -0.4751 -1.2633 -1.0362
   67SAPC  H18Y 5683   4.685   3.469   4.634 -0.2474  3.4929 -2.7277
   67SAPC  H18Z 5684   4.584   3.325   4.587 -1.6560  2.9289  2.3067
   68SAPC     N 5685   4.972   3.842   1.870 -0.1002  0.4589  0.3232
   68SAPC   C12 5686   4.986   3.993   1.902 -0.4081  0.2801 -0.5283
   68SAPC  H12A 5687   4.981   4.046   1.808 -0.0962 -2.4918 -2.2287
   68SAPC  H12B 5688   5.088   4.010   1.933 -0.8123  0.9974  0.4539
   68SAPC   C13 5689   4.834   3.798   1.839 -0.3904 -0.5266  0.9513
   68SAPC  H13A 5690   4.776   3.823   1.926  1.2583  1.7169  1.4861
   68SAPC  H13B 5691   4.802   3.854   1.752  2.4610  1.3351  0.9554
   68SAPC  H13C 5692   4.835   3.692   1.818  0.3542 -0.1811 -0.9005
   68SAPC   C14 5693   5.055   3.813   1.746 -0.4721  1.0621  0.0073
   68SAPC  H14A 5694   5.067   3.706   1.741  1.0582  1.2735 -2.5967
   68SAPC  H14B 5695   5.014   3.858   1.656 -2.2475  1.1083  0.8017
   68SAPC  H14C 5696   5.155   3.849   1.762  0.1429 -0.1706 -0.9166
   68SAPC   C15 5697   5.032   3.765   1.984  0.0714  0.1956  0.0425
   68SAPC  H15A 5698   5.137   3.792   1.985 -0.2367  1.6584 -1.4299
   68SAPC  H15B 5699   4.979   3.790   2.075 -0.8361  2.4207 -1.0196
   68SAPC  H15C 5700   5.016   3.664   1.951  0.9522  0.3832 -1.0317
   68SAPC   C11 5701   4.897   4.052   2.012 -0.3544 -0.4631 -0.7328
   68SAPC  H11A 5702   4.928   4.157   2.030 -0.9357 -0.3474 -0.3924
   68SAPC  H11B 5703   4.940   4.002   2.102 -0.9592 -2.0024 -1.2622
   68SAPC     P 5704   4.673   4.129   1.913  0.1761  0.4512 -0.0858
   68SAPC   O13 5705   4.752   4.239   1.856 -0.1353  0.6759  0.3373
   68SAPC   O14 5706   4.583   4.053   1.820 -0.0539 -0.0537  0.0640
   68SAPC   O12 5707   4.761   4.019   1.992  0.7845  0.5075 -0.1205
   68SAPC   O11 5708   4.580   4.194   2.024  0.5747 -0.7562  0.2448
   68SAPC    C1 5709   4.595   4.157   2.159  0.4360 -0.2351  0.0720
   68SAPC    HA 5710   4.694   4.115   2.184  0.9777  1.4842  0.9400
   68SAPC    HB 5711   4.582   4.248   2.221 -1.4469 -0.7439  0.4795
   68SAPC    C2 5712   4.490   4.058   2.210 -0.4175  0.0703 -0.1947
   68SAPC    HS 5713   4.503   3.965   2.151  2.5012  0.5080 -0.3937
   68SAPC   O21 5714   4.361   4.119   2.202  0.3143  0.0379 -0.4831
   68SAPC   C21 5715   4.261   4.031   2.197  0.2030  0.1856 -0.2665
   68SAPC   O22 5716   4.281   3.913   2.176 -0.7668  0.1444 -0.1328
   68SAPC   C22 5717   4.130   4.105   2.227 -0.9188  1.1118  0.2254
   68SAPC   H2R 5718   4.151   4.170   2.314 -0.8557 -1.2506  2.0830
   68SAPC   H2S 5719   4.101   4.164   2.137 -0.8155  0.3717 -0.3043
   68SAPC    C3 5720   4.526   4.025   2.360  0.8368  0.6304 -0.2310
   68SAPC    HX 5721   4.624   3.974   2.371  1.4554  2.2529  3.7131
   68SAPC    HY 5722   4.453   3.952   2.402  1.1850  0.2081 -0.3583
   68SAPC   O31 5723   4.535   4.150   2.436 -0.2502  0.3099 -0.0729
   68SAPC   C31 5724   4.429   4.191   2.500  0.1327  0.3121  0.1554
   68SAPC   O32 5725   4.326   4.131   2.505  0.2878  0.3789  0.2296
   68SAPC   C32 5726   4.455   4.323   2.574 -0.0419  0.2884 -0.0579
   68SAPC   H2X 5727   4.461   4.398   2.492 -0.0520  1.0235  0.6034
   68SAPC   H2Y 5728   4.549   4.295   2.626  0.3158  0.5806 -0.5428
   68SAPC   C23 5729   4.018   4.001   2.248 -0.2143  0.1519 -0.6130
   68SAPC   H3R 5730   4.001   3.946   2.153  1.1020  1.0440 -1.4006
   68SAPC   H3S 5731   3.922   4.056   2.255  0.3351  1.0018  0.9552
   68SAPC   C24 5732   4.041   3.919   2.377  0.4834  0.4689  0.4209
   68SAPC   H4R 5733   4.070   3.996   2.452 -0.5562  1.6416 -0.3218
   68SAPC   H4S 5734   4.130   3.858   2.352  0.4343  0.9481 -1.0256
   68SAPC   C25 5735   3.929   3.826   2.425 -0.0677 -0.0313  0.3122
   68SAPC   H5R 5736   3.880   3.775   2.340  2.4044  0.6600 -1.6602
   68SAPC   C26 5737   3.873   3.792   2.542 -0.5315 -0.3357 -0.5690
   68SAPC   H6R 5738   3.798   3.713   2.548  2.6053 -3.6331 -1.3599
   68SAPC   C27 5739   3.918   3.864   2.673  0.6648  0.3337  0.4144
   68SAPC   H7R 5740   3.847   3.946   2.698 -1.2605 -0.5705 -1.7442
   68SAPC   H7S 5741   4.023   3.902   2.666  1.5034 -1.9771 -0.3989
   68SAPC   C28 5742   3.922   3.770   2.793  0.0197  0.3164 -0.5098
   68SAPC   H8R 5743   3.957   3.667   2.774  2.5885  0.8803  0.6817
   68SAPC   C29 5744   3.919   3.802   2.926  0.3017 -0.0880  0.7924
   68SAPC   H9R 5745   3.925   3.721   3.000 -1.1460 -1.0752 -0.1321
   68SAPC  C210 5746   3.903   3.943   2.991 -0.7843 -0.2948  0.1191
   68SAPC  H10R 5747   3.939   4.021   2.920 -0.8342  0.2476  0.6816
   68SAPC  H10S 5748   3.972   3.938   3.078  0.3284  2.5033 -0.4874
   68SAPC  C211 5749   3.764   3.971   3.028  0.7935  1.0660  0.2740
   68SAPC  H11R 5750   3.698   4.022   2.956 -0.5213  0.0304  0.7047
   68SAPC  C212 5751   3.710   3.951   3.147  0.0185  0.1487 -1.0063
   68SAPC  H12R 5752   3.611   3.992   3.170 -0.6674 -1.4512 -0.9107
   68SAPC  C213 5753   3.780   3.903   3.276 -0.0661  0.4160 -0.3410
   68SAPC  H13R 5754   3.853   3.825   3.244  0.3421  1.1219 -1.1915
   68SAPC  H13S 5755   3.712   3.854   3.348  0.1545 -0.0178 -0.4269
   68SAPC  C214 5756   3.874   3.993   3.347 -0.0982 -0.4254 -0.3747
   68SAPC  H14R 5757   3.896   4.095   3.312 -0.6495  0.5491  1.9232
   68SAPC  C215 5758   3.934   3.967   3.468 -0.6124  0.7188  0.4288
   68SAPC  H15R 5759   3.994   4.047   3.513  0.6937 -0.9392  1.7649
   68SAPC  C216 5760   3.918   3.841   3.544  1.0779  0.2577 -0.0277
   68SAPC  H16R 5761   4.019   3.806   3.574  0.1500 -3.1901 -0.5698
   68SAPC  H16S 5762   3.868   3.757   3.491  0.2146 -0.0294  1.2091
   68SAPC  C217 5763   3.855   3.877   3.674 -0.6454  0.1719  0.7412
   68SAPC  H17R 5764   3.754   3.922   3.659  0.0550  0.9367 -2.6400
   68SAPC  H17S 5765   3.910   3.961   3.722 -1.2730 -0.4507  2.6549
   68SAPC  C218 5766   3.848   3.760   3.779 -0.7101  0.0390  0.6191
   68SAPC  H18R 5767   3.945   3.750   3.832 -0.4455  0.6723  0.2761
   68SAPC  H18S 5768   3.807   3.667   3.736 -1.0045  0.5020 -0.1379
   68SAPC  C219 5769   3.751   3.811   3.889  0.2717 -0.3214 -0.7096
   68SAPC  H19R 5770   3.653   3.808   3.837 -0.3912  0.2053  0.4667
   68SAPC  H19S 5771   3.770   3.918   3.915  1.5373 -0.0609 -2.5641
   68SAPC  C220 5772   3.751   3.732   4.020  0.6692 -0.3827  0.0080
   68SAPC  H20R 5773   3.664   3.760   4.083  1.1720  2.3735 -0.3805
   68SAPC  H20S 5774   3.846   3.728   4.077  0.0299 -1.9400  1.0315
   68SAPC  H20T 5775   3.739   3.629   3.980 -1.1271  0.3018 -1.3704
   68SAPC   C33 5776   4.344   4.357   2.671 -0.2980 -0.6332 -0.0878
   68SAPC   H3X 5777   4.327   4.274   2.743 -1.0663  2.0201  3.0903
   68SAPC   H3Y 5778   4.249   4.384   2.621  0.7037  1.2702 -1.0755
   68SAPC   C34 5779   4.377   4.482   2.763  0.1781 -0.0834  0.7380
   68SAPC   H4X 5780   4.283   4.508   2.817  1.7177  0.8060  3.1464
   68SAPC   H4Y 5781   4.408   4.565   2.696 -0.5126  0.9274  1.6331
   68SAPC   C35 5782   4.486   4.448   2.867 -0.3321  0.0131  0.4617
   68SAPC   H5X 5783   4.585   4.482   2.830  0.3667 -1.8623  0.5223
   68SAPC   H5Y 5784   4.480   4.337   2.877  2.8539 -0.2246  0.6937
   68SAPC   C36 5785   4.463   4.528   2.996 -0.3236 -0.2422  0.5154
   68SAPC   H6X 5786   4.355   4.517   3.020 -0.5841 -0.5154 -0.6951
   68SAPC   H6Y 5787   4.483   4.637   2.988 -1.1219 -0.1495 -0.4316
   68SAPC   C37 5788   4.555   4.486   3.107 -1.0871  0.5915  0.1407
   68SAPC   H7X 5789   4.662   4.497   3.079 -1.3765  2.0498 -0.4916
   68SAPC   H7Y 5790   4.541   4.378   3.127 -1.8376  0.6513 -0.0463
   68SAPC   C38 5791   4.517   4.555   3.232 -0.2279  0.0252  0.4222
   68SAPC   H8X 5792   4.412   4.525   3.255  0.1052  0.1404  2.2506
   68SAPC   H8Y 5793   4.527   4.665   3.234 -1.6397  0.2082 -0.6416
   68SAPC   C39 5794   4.606   4.507   3.348  0.2399  0.2405  0.1245
   68SAPC   H9X 5795   4.712   4.527   3.322  0.9952 -0.9808  2.0148
   68SAPC   H9Y 5796   4.571   4.402   3.361 -2.2815  1.1113  0.9975
   68SAPC  C310 5797   4.565   4.584   3.472 -0.1423 -0.1966 -0.7844
   68SAPC  H10X 5798   4.459   4.615   3.468 -0.4162 -0.9718  0.0907
   68SAPC  H10Y 5799   4.618   4.680   3.489 -1.0442  0.1742  0.0159
   68SAPC  C311 5800   4.581   4.506   3.598  0.1529  0.2490  0.6310
   68SAPC  H11X 5801   4.577   4.401   3.560 -2.6799  1.2871 -2.3315
   68SAPC  H11Y 5802   4.492   4.524   3.662 -0.0221  0.8672  0.2180
   68SAPC  C312 5803   4.715   4.532   3.678  0.5062  0.2588  0.4723
   68SAPC  H12X 5804   4.741   4.639   3.689  3.3168 -0.5021  2.0204
   68SAPC  H12Y 5805   4.803   4.474   3.642 -0.4572 -1.5660  0.9323
   68SAPC  C313 5806   4.692   4.475   3.824 -0.6160 -0.0638  0.0196
   68SAPC  H13X 5807   4.599   4.520   3.865 -1.5768 -1.2589 -0.7528
   68SAPC  H13Y 5808   4.775   4.517   3.883 -1.1220  2.3692 -0.8566
   68SAPC  C314 5809   4.701   4.321   3.837  0.7204  0.1034  0.4602
   68SAPC  H14X 5810   4.804   4.300   3.799  0.5192  1.4403 -0.9501
   68SAPC  H14Y 5811   4.633   4.282   3.759  0.6055  1.7152 -0.2809
   68SAPC  C315 5812   4.661   4.268   3.971 -0.8353 -0.5653  0.3004
   68SAPC  H15X 5813   4.559   4.300   4.001 -0.0234  2.2962  0.3266
   68SAPC  H15Y 5814   4.729   4.302   4.052  0.9176 -1.0963 -0.9035
   68SAPC  C316 5815   4.656   4.118   3.969  0.2866 -0.0356 -0.1746
   68SAPC  H16X 5816   4.759   4.077   3.962  1.5436  2.5163  1.7242
   68SAPC  H16Y 5817   4.605   4.088   3.875  0.1090  1.0163 -0.4178
   68SAPC  C317 5818   4.579   4.058   4.085 -0.0148  0.8121 -0.2615
   68SAPC  H17X 5819   4.517   3.973   4.049  0.9410  0.4349 -1.0512
   68SAPC  H17Y 5820   4.501   4.130   4.119 -1.0798 -0.4060 -0.0792
   68SAPC  C318 5821   4.672   4.003   4.191 -0.1622 -0.0536 -0.5674
   68SAPC  H18X 5822   4.723   4.092   4.234 -1.5892 -0.0225  1.1742
   68SAPC  H18Y 5823   4.743   3.929   4.150  2.6687  1.0808  1.8978
   68SAPC  H18Z 5824   4.615   3.953   4.273  2.4177  0.7603  1.9018
   69SAPC     N 5825   1.676   0.599   1.869  0.4281 -0.0214  0.4938
   69SAPC   C12 5826   1.818   0.553   1.873  0.5000 -0.3956  0.7386
   69SAPC  H12A 5827   1.869   0.649   1.874  1.9565 -1.1193 -0.1450
   69SAPC  H12B 5828   1.852   0.498   1.786  1.5572  1.2611  0.0420
   69SAPC   C13 5829   1.653   0.665   1.739 -0.2183  0.4739 -0.0146
   69SAPC  H13A 5830   1.708   0.758   1.734  0.9120 -0.1054  1.0510
   69SAPC  H13B 5831   1.673   0.597   1.658  0.2260 -2.0486  2.0782
   69SAPC  H13C 5832   1.552   0.704   1.731 -0.9083 -1.2202 -0.0047
   69SAPC   C14 5833   1.579   0.487   1.872  0.0263  0.5077  0.7010
   69SAPC  H14A 5834   1.579   0.431   1.964  0.1675 -1.6154 -0.5336
   69SAPC  H14B 5835   1.484   0.528   1.841 -1.0128 -1.7468  0.7353
   69SAPC  H14C 5836   1.613   0.415   1.799  1.9430  2.4770 -0.4704
   69SAPC   C15 5837   1.643   0.697   1.977 -0.4826  0.8674 -0.3658
   69SAPC  H15A 5838   1.653   0.648   2.073  1.8192 -0.9825 -1.4308
   69SAPC  H15B 5839   1.709   0.783   1.975  0.4491  0.1613 -0.4318
   69SAPC  H15C 5840   1.538   0.721   1.980 -1.1721 -1.3254 -3.0104
   69SAPC   C11 5841   1.862   0.483   2.003  0.4299 -0.4020  1.2168
   69SAPC  H11A 5842   1.794   0.396   2.010  0.6561 -0.5414  1.6792
   69SAPC  H11B 5843   1.847   0.548   2.091  0.2767 -0.2837  1.1055
   69SAPC     P 5844   2.114   0.540   2.007 -0.2231  0.0245 -0.5864
   69SAPC   O13 5845   2.238   0.466   1.968 -0.4874  0.0859 -0.1953
   69SAPC   O14 5846   2.089   0.666   1.938  0.1074  0.1530  0.1137
   69SAPC   O12 5847   1.996   0.445   1.990  0.0750  0.3937 -0.1259
   69SAPC   O11 5848   2.117   0.570   2.157  0.0539 -0.2267 -0.4799
   69SAPC    C1 5849   2.089   0.473   2.265  0.1896  0.0635  0.1894
   69SAPC    HA 5850   2.003   0.507   2.326  0.0620 -0.6217  0.3993
   69SAPC    HB 5851   2.064   0.374   2.222  1.7889  0.4899 -1.8811
   69SAPC    C2 5852   2.202   0.465   2.371 -0.3344  0.2386  0.0811
   69SAPC    HS 5853   2.211   0.570   2.404  1.6305  0.8342 -2.0957
   69SAPC   O21 5854   2.313   0.403   2.292  0.0234 -0.5505 -0.8791
   69SAPC   C21 5855   2.412   0.489   2.267  1.2315 -0.2829  0.4782
   69SAPC   O22 5856   2.406   0.605   2.287  0.4606 -0.1442  0.0647
   69SAPC   C22 5857   2.530   0.409   2.214 -0.2104 -0.8726  0.3643
   69SAPC   H2R 5858   2.548   0.325   2.284  0.3611 -0.5836  0.5750
   69SAPC   H2S 5859   2.485   0.364   2.123 -4.5054  1.2446  1.2251
   69SAPC    C3 5860   2.161   0.371   2.485  0.5107 -1.2289 -0.2257
   69SAPC    HX 5861   2.173   0.270   2.440  0.7739 -1.3255  0.0611
   69SAPC    HY 5862   2.054   0.380   2.511  0.8274  0.4915  0.5995
   69SAPC   O31 5863   2.247   0.380   2.601  0.1586  0.3010 -0.1077
   69SAPC   C31 5864   2.202   0.456   2.703 -0.3557 -0.4865 -0.5945
   69SAPC   O32 5865   2.103   0.524   2.708  0.3406  1.0389 -0.0145
   69SAPC   C32 5866   2.297   0.439   2.821 -0.2341  0.0372 -0.5021
   69SAPC   H2X 5867   2.340   0.534   2.860 -0.4849  0.4290 -1.1726
   69SAPC   H2Y 5868   2.383   0.376   2.790 -0.7685 -1.7916  1.5020
   69SAPC   C23 5869   2.652   0.494   2.166 -0.4959  0.2020 -0.4109
   69SAPC   H3R 5870   2.622   0.586   2.111  2.3319  0.9910 -0.7719
   69SAPC   H3S 5871   2.704   0.433   2.089 -0.9082  1.3621 -1.6417
   69SAPC   C24 5872   2.758   0.522   2.270  0.1505  0.0549 -0.4323
   69SAPC   H4R 5873   2.848   0.546   2.209  2.1681  1.2195  2.7562
   69SAPC   H4S 5874   2.787   0.427   2.319  0.5453 -1.9234 -4.1267
   69SAPC   C25 5875   2.723   0.640   2.364 -0.1648 -0.0794  0.2542
   69SAPC   H5R 5876   2.708   0.734   2.308 -1.3618 -0.3077  0.1649
   69SAPC   C26 5877   2.715   0.648   2.501  0.0705  0.3211 -0.8304
   69SAPC   H6R 5878   2.686   0.742   2.549  0.7231  0.8724 -1.4944
   69SAPC   C27 5879   2.726   0.529   2.581  0.2987  0.4119  0.0647
   69SAPC   H7R 5880   2.755   0.549   2.686 -1.2138 -0.8854  0.7602
   69SAPC   H7S 5881   2.812   0.485   2.526  0.4554  2.8340 -1.7946
   69SAPC   C28 5882   2.617   0.423   2.575 -0.4107  0.1175  0.2647
   69SAPC   H8R 5883   2.545   0.444   2.495  1.7589 -0.4143 -1.9504
   69SAPC   C29 5884   2.596   0.313   2.649  0.2314 -0.3409 -0.0667
   69SAPC   H9R 5885   2.501   0.258   2.643 -0.2384 -0.1868  3.5301
   69SAPC  C210 5886   2.673   0.278   2.771 -0.7680  0.0125  0.3162
   69SAPC  H10R 5887   2.782   0.272   2.750 -1.0110 -0.6436 -0.8092
   69SAPC  H10S 5888   2.647   0.173   2.796 -0.9878 -0.4008 -1.5601
   69SAPC  C211 5889   2.651   0.360   2.890  0.1553  0.4291 -0.3304
   69SAPC  H11R 5890   2.614   0.456   2.853  0.6223  0.7883  0.1130
   69SAPC  C212 5891   2.675   0.330   3.019 -0.4018 -0.1427 -0.4358
   69SAPC  H12R 5892   2.656   0.397   3.105  0.7165 -1.4237  0.8465
   69SAPC  C213 5893   2.726   0.198   3.066  0.1772 -0.0143  0.4350
   69SAPC  H13R 5894   2.822   0.203   3.121 -0.8878 -1.9866  2.6531
   69SAPC  H13S 5895   2.741   0.130   2.979 -0.8260 -1.8000  1.5910
   69SAPC  C214 5896   2.613   0.140   3.144  0.1099  0.7803 -0.0731
   69SAPC  H14R 5897   2.527   0.118   3.080 -0.0485 -0.0764  0.4204
   69SAPC  C215 5898   2.612   0.102   3.276  0.1076  0.3610  0.3010
   69SAPC  H15R 5899   2.513   0.078   3.317  0.6531  0.7092  1.8906
   69SAPC  C216 5900   2.737   0.110   3.369  0.0655  0.9749 -0.1366
   69SAPC  H16R 5901   2.827   0.143   3.313 -0.1904  2.7872  0.4452
   69SAPC  H16S 5902   2.762   0.007   3.401  0.0295  0.9864 -0.0708
   69SAPC  C217 5903   2.718   0.197   3.494 -0.1068  0.7101  0.8314
   69SAPC  H17R 5904   2.618   0.192   3.541 -2.3581 -0.4511 -3.4950
   69SAPC  H17S 5905   2.736   0.304   3.473 -0.0604  1.1238  2.8196
   69SAPC  C218 5906   2.824   0.164   3.603  0.0062  0.3853  0.5554
   69SAPC  H18R 5907   2.922   0.211   3.578  0.4831 -0.6835  0.3168
   69SAPC  H18S 5908   2.845   0.056   3.616  0.0247  0.1663 -1.0346
   69SAPC  C219 5909   2.786   0.224   3.734  0.0625  0.4252  0.0698
   69SAPC  H19R 5910   2.681   0.193   3.757  0.6897 -2.4828 -0.5390
   69SAPC  H19S 5911   2.793   0.335   3.733 -2.0185  0.7119  3.1356
   69SAPC  C220 5912   2.875   0.160   3.846 -0.3948 -1.0155  0.7463
   69SAPC  H20R 5913   2.843   0.190   3.948  0.5655 -0.4689  0.8984
   69SAPC  H20S 5914   2.978   0.198   3.832 -0.9039 -0.2231 -1.1991
   69SAPC  H20T 5915   2.864   0.051   3.827 -1.8961 -0.7005 -0.3571
   69SAPC   C33 5916   2.247   0.347   2.935  0.1703  0.1230 -0.2607
   69SAPC   H3X 5917   2.272   0.240   2.920 -0.5946  0.0530 -1.1488
   69SAPC   H3Y 5918   2.137   0.364   2.933  0.1481 -0.0215 -0.2405
   69SAPC   C34 5919   2.301   0.397   3.070  0.4370  0.9219 -0.0991
   69SAPC   H4X 5920   2.282   0.504   3.094 -0.8051  0.7712 -0.3683
   69SAPC   H4Y 5921   2.412   0.387   3.065  0.2827 -1.8183  0.4206
   69SAPC   C35 5922   2.257   0.312   3.187 -0.1504  0.3773 -0.1641
   69SAPC   H5X 5923   2.283   0.205   3.175  1.3367  0.6152  0.6368
   69SAPC   H5Y 5924   2.147   0.320   3.191 -0.0532  1.8320 -0.0970
   69SAPC   C36 5925   2.324   0.365   3.315  0.4609  0.5117 -0.0788
   69SAPC   H6X 5926   2.282   0.462   3.350 -0.2874  0.3437 -0.4987
   69SAPC   H6Y 5927   2.431   0.390   3.298  0.2950  1.2506 -0.0919
   69SAPC   C37 5928   2.308   0.268   3.436  0.2514 -0.6282 -0.1893
   69SAPC   H7X 5929   2.368   0.175   3.426  2.1024  0.6470 -1.7229
   69SAPC   H7Y 5930   2.202   0.236   3.447  0.0560 -0.3670 -1.1834
   69SAPC   C38 5931   2.343   0.335   3.574 -0.5902  0.0966  0.7884
   69SAPC   H8X 5932   2.269   0.416   3.591 -0.2684  0.7329 -0.7350
   69SAPC   H8Y 5933   2.446   0.375   3.563 -0.6325  0.2758  1.0390
   69SAPC   C39 5934   2.319   0.238   3.688  0.1695 -0.3184  0.2007
   69SAPC   H9X 5935   2.374   0.143   3.668  0.1556 -0.1297 -0.8130
   69SAPC   H9Y 5936   2.210   0.228   3.704 -0.4446  1.0009 -2.5419
   69SAPC  C310 5937   2.379   0.289   3.819 -0.0762  0.8944 -0.3799
   69SAPC  H10X 5938   2.310   0.371   3.848 -0.6954  0.6011 -0.9881
   69SAPC  H10Y 5939   2.484   0.321   3.801  1.1631 -2.7905 -0.7153
   69SAPC  C311 5940   2.381   0.187   3.933 -0.7215 -0.3215 -0.2730
   69SAPC  H11X 5941   2.452   0.104   3.911 -0.7729 -1.3457  2.8616
   69SAPC  H11Y 5942   2.285   0.133   3.947 -1.4838  1.1553  0.3339
   69SAPC  C312 5943   2.427   0.228   4.076 -0.0690  0.4747 -0.3399
   69SAPC  H12X 5944   2.355   0.304   4.114 -0.0333  0.3005  0.0763
   69SAPC  H12Y 5945   2.522   0.285   4.066  0.5105 -0.5067 -0.5489
   69SAPC  C313 5946   2.430   0.104   4.174  0.3891 -0.1736  0.2953
   69SAPC  H13X 5947   2.495   0.027   4.126 -2.8645 -1.4613 -2.5096
   69SAPC  H13Y 5948   2.326   0.069   4.190  0.6162  0.0171  2.4022
   69SAPC  C314 5949   2.486   0.142   4.311  0.2685  0.0673 -0.0584
   69SAPC  H14X 5950   2.423   0.219   4.359 -0.3804  1.6992 -3.2393
   69SAPC  H14Y 5951   2.581   0.197   4.295  0.5125 -0.3922 -0.1964
   69SAPC  C315 5952   2.493   0.024   4.409 -0.2803 -0.1684 -0.4491
   69SAPC  H15X 5953   2.534   0.063   4.505  0.3217 -2.4332  0.2743
   69SAPC  H15Y 5954   2.573  -0.046   4.376 -1.4495 -1.7962  0.0287
   69SAPC  C316 5955   2.366  -0.052   4.432  0.2085  0.6045  0.4228
   69SAPC  H16X 5956   2.386  -0.131   4.507  1.5775  3.8561  3.8157
   69SAPC  H16Y 5957   2.342  -0.108   4.339 -0.7507 -0.2702  1.1806
   69SAPC  C317 5958   2.251   0.031   4.478 -0.4086 -0.7753 -0.1357
   69SAPC  H17X 5959   2.169  -0.039   4.504  1.9861 -2.6346  3.1230
   69SAPC  H17Y 5960   2.225   0.095   4.390 -0.7963  3.3435  2.6636
   69SAPC  C318 5961   2.279   0.106   4.615 -0.6304 -0.2140  0.1153
   69SAPC  H18X 5962   2.355   0.183   4.588  0.3806 -1.6607 -1.3604
   69SAPC  H18Y 5963   2.306   0.033   4.693 -0.4949  0.3245  0.5813
   69SAPC  H18Z 5964   2.181   0.155   4.635 -0.5832  0.2731 -0.7867
   70SAPC     N 5965   0.826   5.736   2.333  0.0060 -0.4489  0.0851
   70SAPC   C12 5966   0.954   5.810   2.369  0.2735  0.4553 -0.2875
   70SAPC  H12A 5967   0.941   5.858   2.465 -1.5106 -1.5309  0.5587
   70SAPC  H12B 5968   0.968   5.880   2.289 -0.0660 -0.6374 -1.3205
   70SAPC   C13 5969   0.782   5.649   2.448  0.4271 -0.0363  0.9427
   70SAPC  H13A 5970   0.850   5.565   2.455  1.9020  0.8451 -1.5481
   70SAPC  H13B 5971   0.778   5.705   2.541  0.3416  0.8296  0.4291
   70SAPC  H13C 5972   0.688   5.606   2.418  0.3086  0.0014  1.2498
   70SAPC   C14 5973   0.709   5.827   2.298  0.2565 -0.2037  0.3028
   70SAPC  H14A 5974   0.748   5.894   2.223  0.4218  0.5069  1.0169
   70SAPC  H14B 5975   0.624   5.773   2.257  0.4564 -0.9408  0.8390
   70SAPC  H14C 5976   0.680   5.871   2.392  0.5178 -1.0887  0.8047
   70SAPC   C15 5977   0.843   5.641   2.217 -0.2131  0.1865 -0.1507
   70SAPC  H15A 5978   0.938   5.591   2.235  0.7659  2.1058  0.3428
   70SAPC  H15B 5979   0.762   5.571   2.206  0.1903 -0.5289  1.1777
   70SAPC  H15C 5980   0.851   5.689   2.121  5.5594 -0.4115 -0.3350
   70SAPC   C11 5981   1.088   5.724   2.403  0.7867  0.1633  0.0263
   70SAPC  H11A 5982   1.061   5.647   2.479 -1.7736 -0.8907 -1.7698
   70SAPC  H11B 5983   1.154   5.808   2.432  2.7928  0.6289 -4.9127
   70SAPC     P 5984   1.231   5.722   2.188  0.0292  0.2304  0.1425
   70SAPC   O13 5985   1.300   5.614   2.116 -0.0413  0.1984  0.6310
   70SAPC   O14 5986   1.163   5.829   2.106  0.2097 -0.4837  0.0514
   70SAPC   O12 5987   1.127   5.652   2.290 -0.1422 -0.6440  0.0017
   70SAPC   O11 5988   1.331   5.797   2.282 -0.3151  0.7550  0.2391
   70SAPC    C1 5989   1.412   5.723   2.367 -0.2631  0.6301 -0.1507
   70SAPC    HA 5990   1.348   5.647   2.416  0.8748 -0.4488 -0.2988
   70SAPC    HB 5991   1.494   5.673   2.312 -1.3621  0.5869 -1.8334
   70SAPC    C2 5992   1.464   5.821   2.482 -0.5158  0.4545 -0.4224
   70SAPC    HS 5993   1.369   5.857   2.527 -3.2431 -3.6511 -2.3081
   70SAPC   O21 5994   1.550   5.918   2.419  0.0433  0.0539 -0.0236
   70SAPC   C21 5995   1.562   6.031   2.485  1.0332 -0.1560 -0.1498
   70SAPC   O22 5996   1.486   6.060   2.577 -0.1388 -0.0676  0.2491
   70SAPC   C22 5997   1.669   6.126   2.428  0.0680 -0.3089  0.4951
   70SAPC   H2R 5998   1.708   6.078   2.336  0.7996  0.6751  0.2770
   70SAPC   H2S 5999   1.631   6.223   2.390  0.5536 -0.9042 -1.6505
   70SAPC    C3 6000   1.541   5.741   2.592  0.9691  0.3242  0.5200
   70SAPC    HX 6001   1.636   5.704   2.548  1.5250 -0.3187  2.1766
   70SAPC    HY 6002   1.489   5.654   2.637 -1.1573  1.9977  1.4467
   70SAPC   O31 6003   1.587   5.826   2.698 -0.8620  0.4253  0.0339
   70SAPC   C31 6004   1.502   5.855   2.802  0.7935  0.3950  0.1092
   70SAPC   O32 6005   1.387   5.814   2.805 -0.0712  0.0723  0.1096
   70SAPC   C32 6006   1.558   5.955   2.905  0.0470  0.0841 -0.4328
   70SAPC   H2X 6007   1.540   5.911   3.005  1.9875 -3.1165 -1.3419
   70SAPC   H2Y 6008   1.492   6.042   2.882 -1.1408 -0.8658 -0.7032
   70SAPC   C23 6009   1.780   6.147   2.535  0.2342  0.0402 -0.8111
   70SAPC   H3R 6010   1.736   6.182   2.631 -0.2064 -2.2453 -0.1305
   70SAPC   H3S 6011   1.853   6.223   2.498  1.5698 -0.7502  0.1061
   70SAPC   C24 6012   1.869   6.016   2.554  0.1133 -0.5548 -0.1237
   70SAPC   H4R 6013   1.810   5.930   2.592 -3.2293  1.3162 -0.6783
   70SAPC   H4S 6014   1.929   6.045   2.643 -1.9551 -1.5731  1.6928
   70SAPC   C25 6015   1.957   5.968   2.442  0.0399  0.0265 -0.0858
   70SAPC   H5R 6016   1.903   5.950   2.348 -0.9574  1.3572  0.2106
   70SAPC   C26 6017   2.093   5.943   2.444 -0.4440  0.1672 -0.3816
   70SAPC   H6R 6018   2.139   5.898   2.355 -0.6580  1.4106 -1.1489
   70SAPC   C27 6019   2.190   5.961   2.558  0.3063 -0.4813  0.2898
   70SAPC   H7R 6020   2.155   6.030   2.637  1.7195  2.5442 -1.5573
   70SAPC   H7S 6021   2.290   5.999   2.527 -0.2536  0.6027 -0.2107
   70SAPC   C28 6022   2.221   5.827   2.622  0.5360  0.4121 -0.3584
   70SAPC   H8R 6023   2.267   5.752   2.557  0.0255 -0.1369 -0.0978
   70SAPC   C29 6024   2.177   5.785   2.740  0.0827  0.0803 -0.7936
   70SAPC   H9R 6025   2.202   5.687   2.782 -0.5591 -0.0003 -0.5883
   70SAPC  C210 6026   2.095   5.863   2.843 -0.3223 -0.5947  0.4355
   70SAPC  H10R 6027   2.033   5.790   2.899 -2.5042  0.1289 -0.9189
   70SAPC  H10S 6028   2.021   5.929   2.793 -0.4231  0.3732  1.8151
   70SAPC  C211 6029   2.200   5.942   2.914  0.2593 -0.8932  0.7644
   70SAPC  H11R 6030   2.271   5.996   2.849  0.8050 -3.5977 -1.0402
   70SAPC  C212 6031   2.215   5.947   3.044  0.3169  0.1317  0.3166
   70SAPC  H12R 6032   2.300   6.004   3.085  0.4007  1.8645 -2.0574
   70SAPC  C213 6033   2.134   5.875   3.152 -1.0079 -0.1394  0.1343
   70SAPC  H13R 6034   2.102   5.775   3.115  2.9208 -1.4065 -0.2809
   70SAPC  H13S 6035   2.046   5.934   3.184 -0.0198  0.8017  1.2323
   70SAPC  C214 6036   2.224   5.853   3.279  0.0438  0.3548  0.4201
   70SAPC  H14R 6037   2.276   5.939   3.324 -0.1929 -0.0451  1.5027
   70SAPC  C215 6038   2.249   5.745   3.349 -0.1658 -0.3957  0.0393
   70SAPC  H15R 6039   2.325   5.739   3.429  0.0868 -3.0704 -0.3174
   70SAPC  C216 6040   2.189   5.608   3.335  0.1392  0.1458  0.1745
   70SAPC  H16R 6041   2.120   5.601   3.248 -0.3960  1.2007  0.4952
   70SAPC  H16S 6042   2.123   5.582   3.420  0.9507 -0.3898  0.6503
   70SAPC  C217 6043   2.300   5.498   3.339  0.3317  0.2391  0.2691
   70SAPC  H17R 6044   2.248   5.401   3.360  0.0402  0.5613  1.1022
   70SAPC  H17S 6045   2.368   5.515   3.425 -0.3193  0.6057  0.7176
   70SAPC  C218 6046   2.363   5.501   3.195  0.0741 -0.0276  0.6954
   70SAPC  H18R 6047   2.465   5.457   3.208 -0.6042 -1.0771  2.9807
   70SAPC  H18S 6048   2.381   5.603   3.155  0.7915 -0.1126  0.7745
   70SAPC  C219 6049   2.280   5.426   3.098  0.2276  0.5321  0.2455
   70SAPC  H19R 6050   2.179   5.471   3.105  0.2897  0.8964 -1.0631
   70SAPC  H19S 6051   2.272   5.321   3.132 -0.4567  0.8348  1.0519
   70SAPC  C220 6052   2.341   5.436   2.962 -0.3975 -0.0197  0.3903
   70SAPC  H20R 6053   2.440   5.391   2.942  0.7921  2.2963  0.7730
   70SAPC  H20S 6054   2.351   5.540   2.927 -0.5341 -0.1061  0.0929
   70SAPC  H20T 6055   2.260   5.392   2.899 -1.0600 -0.0664  1.2537
   70SAPC   C33 6056   1.703   5.990   2.884  0.2659 -0.1482  0.5759
   70SAPC   H3X 6057   1.711   6.008   2.774 -0.9521  1.7158  0.7380
   70SAPC   H3Y 6058   1.772   5.907   2.909  1.3614 -0.0893 -1.9149
   70SAPC   C34 6059   1.747   6.111   2.968 -0.7613 -0.1539  0.3569
   70SAPC   H4X 6060   1.673   6.191   2.944 -2.2262 -2.0945 -1.9794
   70SAPC   H4Y 6061   1.853   6.132   2.945 -0.5506 -1.6838 -0.1501
   70SAPC   C35 6062   1.750   6.090   3.116 -0.6167 -0.4988  0.2782
   70SAPC   H5X 6063   1.821   6.008   3.141 -0.7307 -0.5593  0.4014
   70SAPC   H5Y 6064   1.652   6.062   3.160  0.3692 -2.1835  1.5031
   70SAPC   C36 6065   1.792   6.211   3.202  0.2533  0.4381 -0.3133
   70SAPC   H6X 6066   1.709   6.281   3.223 -0.2442 -0.3291  0.3710
   70SAPC   H6Y 6067   1.873   6.278   3.166  0.0457  1.0267  0.2879
   70SAPC   C37 6068   1.838   6.151   3.336 -0.1943  0.3720 -0.3471
   70SAPC   H7X 6069   1.772   6.062   3.350 -0.7048  0.5886 -1.2748
   70SAPC   H7Y 6070   1.940   6.108   3.322 -0.4988 -0.4895 -0.0314
   70SAPC   C38 6071   1.836   6.244   3.457  0.4142  0.3239 -0.0448
   70SAPC   H8X 6072   1.806   6.188   3.548  0.2594 -1.5477 -1.1890
   70SAPC   H8Y 6073   1.754   6.315   3.433  0.0997  0.1704  0.5617
   70SAPC   C39 6074   1.956   6.341   3.486  0.3612 -0.1081 -0.1732
   70SAPC   H9X 6075   1.911   6.435   3.525  0.7261 -0.9715  2.4686
   70SAPC   H9Y 6076   2.009   6.374   3.394 -0.8910  0.4988 -0.7144
   70SAPC  C310 6077   2.060   6.293   3.591  0.0919  0.1269  0.7811
   70SAPC  H10X 6078   2.015   6.277   3.692  0.7363  0.1984  1.0849
   70SAPC  H10Y 6079   2.132   6.373   3.615  0.6852 -0.6170  1.5518
   70SAPC  C311 6080   2.136   6.167   3.555 -0.4912  0.5569 -0.4708
   70SAPC  H11X 6081   2.187   6.197   3.461  0.5168  0.5736  0.0670
   70SAPC  H11Y 6082   2.062   6.091   3.520 -0.9423 -0.0707  1.7142
   70SAPC  C312 6083   2.231   6.117   3.667  0.7141  0.2072  0.1464
   70SAPC  H12X 6084   2.169   6.083   3.752  1.7513 -0.6586  0.5784
   70SAPC  H12Y 6085   2.293   6.198   3.711 -0.8545  1.0331  0.8932
   70SAPC  C313 6086   2.322   5.999   3.621 -0.0639  0.7243 -0.4216
   70SAPC  H13X 6087   2.414   6.034   3.569  1.1564  1.3683  2.0127
   70SAPC  H13Y 6088   2.252   5.941   3.557  0.0377 -0.6033  0.6348
   70SAPC  C314 6089   2.378   5.910   3.741  0.1806  0.6032 -0.5012
   70SAPC  H14X 6090   2.304   5.907   3.823  1.3569  0.2289  0.5813
   70SAPC  H14Y 6091   2.464   5.966   3.784  1.0881 -0.0007 -1.4891
   70SAPC  C315 6092   2.436   5.777   3.695  0.2935 -0.6120 -0.3665
   70SAPC  H15X 6093   2.494   5.797   3.602 -1.9204 -0.9383 -1.9100
   70SAPC  H15Y 6094   2.347   5.716   3.669 -0.1847 -1.1632  2.3125
   70SAPC  C316 6095   2.521   5.700   3.800  0.2924 -0.5127 -0.3724
   70SAPC  H16X 6096   2.463   5.693   3.894 -0.6974  1.5300 -0.7761
   70SAPC  H16Y 6097   2.617   5.752   3.821  1.5232 -2.6669 -0.2838
   70SAPC  C317 6098   2.559   5.565   3.751 -0.5950  0.0496  0.0264
   70SAPC  H17X 6099   2.643   5.536   3.818 -0.1790  1.5911  0.1978
   70SAPC  H17Y 6100   2.604   5.568   3.650 -0.0248 -1.1018  0.2276
   70SAPC  C318 6101   2.452   5.463   3.737  0.4321 -0.0878  0.2120
   70SAPC  H18X 6102   2.375   5.510   3.672  0.1238 -0.0988  0.5719
   70SAPC  H18Y 6103   2.401   5.452   3.834 -1.9138  0.1896 -0.9152
   70SAPC  H18Z 6104   2.483   5.364   3.698 -3.0845 -0.9936 -0.5923
   71SAPC     N 6105   3.435   5.615   1.942 -0.0178  0.1044  0.0820
   71SAPC   C12 6106   3.415   5.555   2.087  0.0167  0.3428 -0.0350
   71SAPC  H12A 6107   3.500   5.594   2.141 -0.0568  1.5366 -0.7318
   71SAPC  H12B 6108   3.442   5.451   2.077  1.9427  0.8983 -1.0485
   71SAPC   C13 6109   3.560   5.552   1.891  0.1848 -0.2494  0.0247
   71SAPC  H13A 6110   3.550   5.450   1.857 -1.9091  0.0097 -0.2462
   71SAPC  H13B 6111   3.594   5.601   1.801  0.2939 -0.3912 -0.0118
   71SAPC  H13C 6112   3.637   5.550   1.967  1.2662 -5.1603 -0.8941
   71SAPC   C14 6113   3.322   5.595   1.856 -0.2526  0.9551 -0.7704
   71SAPC  H14A 6114   3.298   5.490   1.851 -2.7476  1.4778 -1.0772
   71SAPC  H14B 6115   3.237   5.651   1.893 -0.9818  0.1018 -1.1056
   71SAPC  H14C 6116   3.340   5.625   1.754  0.8642  1.2225 -0.5073
   71SAPC   C15 6117   3.449   5.759   1.959 -0.2441  0.5859 -0.0160
   71SAPC  H15A 6118   3.524   5.783   2.034 -1.8600  1.2978  1.4394
   71SAPC  H15B 6119   3.475   5.799   1.862 -0.1678 -1.0858 -0.7204
   71SAPC  H15C 6120   3.358   5.791   2.008 -0.9667 -0.6826 -0.5036
   71SAPC   C11 6121   3.282   5.578   2.170 -0.3804 -0.7706 -0.1755
   71SAPC  H11A 6122   3.272   5.689   2.176  2.7340 -0.4640  0.8388
   71SAPC  H11B 6123   3.281   5.534   2.272 -3.1048 -1.9249 -0.5879
   71SAPC     P 6124   3.135   5.378   2.082  0.0347 -0.1630  0.4278
   71SAPC   O13 6125   2.990   5.356   2.107 -0.3626 -0.2245  0.4484
   71SAPC   O14 6126   3.186   5.337   1.947  0.0818  0.2609 -0.0758
   71SAPC   O12 6127   3.161   5.528   2.108 -0.1831  0.4857 -0.1980
   71SAPC   O11 6128   3.227   5.300   2.185 -0.4054 -0.3391 -0.1007
   71SAPC    C1 6129   3.157   5.195   2.250  0.3381  0.4688 -0.2264
   71SAPC    HA 6130   3.066   5.224   2.307  0.6740 -1.0481  1.1923
   71SAPC    HB 6131   3.116   5.134   2.167 -1.1710  1.8417 -0.5355
   71SAPC    C2 6132   3.236   5.106   2.348 -0.6247 -0.2070 -0.1612
   71SAPC    HS 6133   3.182   5.019   2.392  1.1467 -0.9995  0.5549
   71SAPC   O21 6134   3.288   5.195   2.448  0.5884 -0.0117 -0.5418
   71SAPC   C21 6135   3.194   5.225   2.544 -0.3387  0.0042 -0.0510
   71SAPC   O22 6136   3.083   5.183   2.549 -0.1602 -0.4183  0.0026
   71SAPC   C22 6137   3.270   5.313   2.655  0.5372  0.0342 -0.3494
   71SAPC   H2R 6138   3.349   5.247   2.697 -1.7842 -1.7477  1.5146
   71SAPC   H2S 6139   3.325   5.399   2.611  1.6627 -0.4444  0.1002
   71SAPC    C3 6140   3.352   5.046   2.258 -0.1909  0.2921 -0.3714
   71SAPC    HX 6141   3.404   5.129   2.205  0.9245 -1.1087 -1.5695
   71SAPC    HY 6142   3.316   4.983   2.173  2.0226 -1.2911 -0.2360
   71SAPC   O31 6143   3.444   4.977   2.337  0.1159  0.2934 -0.1069
   71SAPC   C31 6144   3.558   4.948   2.276 -0.0665 -0.3302  0.1997
   71SAPC   O32 6145   3.587   4.986   2.164  0.0137 -0.0849 -0.1699
   71SAPC   C32 6146   3.650   4.866   2.369  0.8174  0.0028 -0.0537
   71SAPC   H2X 6147   3.680   4.777   2.309 -0.7893 -1.5332  1.3211
   71SAPC   H2Y 6148   3.587   4.823   2.449 -1.4687 -3.5206 -3.3791
   71SAPC   C23 6149   3.179   5.344   2.781 -0.1062 -0.0249  0.2812
   71SAPC   H3R 6150   3.140   5.249   2.823 -3.5761  0.8790 -0.5888
   71SAPC   H3S 6151   3.091   5.397   2.740  0.5547  0.8600 -0.0237
   71SAPC   C24 6152   3.245   5.439   2.882  0.0565  0.4514  0.0564
   71SAPC   H4R 6153   3.286   5.529   2.831  1.3720 -0.7629 -1.1069
   71SAPC   H4S 6154   3.332   5.386   2.926 -0.8622 -0.5913  0.6656
   71SAPC   C25 6155   3.147   5.480   2.981 -0.2704 -0.5124  0.1267
   71SAPC   H5R 6156   3.082   5.558   2.940  1.0840 -0.2504 -1.6693
   71SAPC   C26 6157   3.144   5.434   3.107  0.3582  0.0047  0.1663
   71SAPC   H6R 6158   3.061   5.454   3.175 -2.0714 -0.2719 -2.5345
   71SAPC   C27 6159   3.236   5.329   3.176 -0.3391 -0.8173 -0.2428
   71SAPC   H7R 6160   3.342   5.350   3.148 -0.9843 -0.2678 -2.5154
   71SAPC   H7S 6161   3.210   5.235   3.123  0.6032 -0.9338 -0.5330
   71SAPC   C28 6162   3.227   5.314   3.327 -0.5142 -0.1639  0.0541
   71SAPC   H8R 6163   3.141   5.252   3.353 -1.0862  0.3913 -0.4714
   71SAPC   C29 6164   3.285   5.390   3.422 -0.2864  0.0586  0.1694
   71SAPC   H9R 6165   3.270   5.371   3.529 -1.8053 -0.8679 -0.1724
   71SAPC  C210 6166   3.383   5.499   3.373 -0.8175 -0.1797  0.6946
   71SAPC  H10R 6167   3.387   5.508   3.262 -0.4417 -1.4059  0.5947
   71SAPC  H10S 6168   3.488   5.490   3.407 -0.3394 -0.1177 -0.7129
   71SAPC  C211 6169   3.319   5.626   3.429  1.3064 -0.1256 -0.1260
   71SAPC  H11R 6170   3.219   5.639   3.385  1.0195 -0.6407  0.3524
   71SAPC  C212 6171   3.376   5.721   3.504  0.1052  0.0933  0.7636
   71SAPC  H12R 6172   3.309   5.795   3.550 -1.4738 -2.1578  2.3009
   71SAPC  C213 6173   3.524   5.721   3.538  0.3601  0.4095  0.0203
   71SAPC  H13R 6174   3.584   5.761   3.453  2.1682  0.2695  1.1807
   71SAPC  H13S 6175   3.563   5.621   3.563  1.7365  0.8967 -0.0931
   71SAPC  C214 6176   3.546   5.807   3.660 -0.0027 -0.6391  0.2078
   71SAPC  H14R 6177   3.469   5.811   3.739  1.0844  0.5994  1.2623
   71SAPC  C215 6178   3.657   5.880   3.688 -0.3893  0.6173  0.2476
   71SAPC  H15R 6179   3.649   5.948   3.773  0.4244 -0.0169  0.8481
   71SAPC  C216 6180   3.768   5.894   3.587 -0.1127  0.1155 -0.0731
   71SAPC  H16R 6181   3.795   5.807   3.524  0.4723 -0.1155  0.4900
   71SAPC  H16S 6182   3.866   5.904   3.639  1.0895 -3.2878 -1.4023
   71SAPC  C217 6183   3.742   6.014   3.497 -0.6525 -0.5979 -0.1133
   71SAPC  H17R 6184   3.716   6.090   3.574 -0.3367 -0.4228 -0.1785
   71SAPC  H17S 6185   3.647   6.009   3.439  1.0281  0.0154 -3.1485
   71SAPC  C218 6186   3.856   6.039   3.400 -0.8842 -0.2245 -0.8878
   71SAPC  H18R 6187   3.853   5.959   3.323  1.8943 -0.5253 -0.7788
   71SAPC  H18S 6188   3.953   6.028   3.452 -1.7429  0.3081  0.8919
   71SAPC  C219 6189   3.851   6.174   3.332  1.3190 -0.6056  0.0029
   71SAPC  H19R 6190   3.927   6.173   3.251 -1.3412  0.9501 -2.7127
   71SAPC  H19S 6191   3.859   6.246   3.417 -4.5201  0.7517 -0.2023
   71SAPC  C220 6192   3.714   6.218   3.268 -0.9910  0.1878  0.4720
   71SAPC  H20R 6193   3.732   6.303   3.198  1.1299 -0.9641 -0.4597
   71SAPC  H20S 6194   3.644   6.244   3.350 -2.0189  2.5038 -1.0314
   71SAPC  H20T 6195   3.674   6.133   3.209 -2.3769  1.3717 -0.3691
   71SAPC   C33 6196   3.764   4.965   2.413  0.3781  0.0229  0.8325
   71SAPC   H3X 6197   3.720   5.060   2.450 -1.1251  0.1287 -1.0985
   71SAPC   H3Y 6198   3.821   4.987   2.320 -0.4192 -1.8710 -0.1410
   71SAPC   C34 6199   3.856   4.894   2.516  0.1725  0.2371  0.5624
   71SAPC   H4X 6200   3.953   4.948   2.511  2.4762 -3.4018  1.8805
   71SAPC   H4Y 6201   3.876   4.792   2.477  0.7378  1.3660 -2.4107
   71SAPC   C35 6202   3.798   4.899   2.652 -0.7081 -0.8250 -0.3883
   71SAPC   H5X 6203   3.706   4.838   2.662 -0.5255 -0.9523  0.6226
   71SAPC   H5Y 6204   3.768   5.003   2.678  2.5546 -0.2150  1.3674
   71SAPC   C36 6205   3.896   4.852   2.759 -0.2931  0.1285  0.4350
   71SAPC   H6X 6206   3.985   4.920   2.756  0.5766 -0.7952  2.6032
   71SAPC   H6Y 6207   3.932   4.750   2.733 -0.0884 -0.0841  1.4846
   71SAPC   C37 6208   3.846   4.844   2.902 -0.2150  0.1499  0.5201
   71SAPC   H7X 6209   3.758   4.776   2.905 -0.7112  0.7431 -0.1434
   71SAPC   H7Y 6210   3.807   4.946   2.926 -0.5891  1.1137 -3.4412
   71SAPC   C38 6211   3.946   4.798   3.008 -0.2424  0.4966  0.2959
   71SAPC   H8X 6212   4.029   4.871   3.000  0.0896  0.2199  1.0686
   71SAPC   H8Y 6213   3.988   4.701   2.973 -2.4810  0.2412 -1.9160
   71SAPC   C39 6214   3.887   4.797   3.150 -0.3589 -0.4090  0.1865
   71SAPC   H9X 6215   3.787   4.747   3.154 -0.7755  0.4662  1.1097
   71SAPC   H9Y 6216   3.871   4.902   3.180 -1.5067 -0.6735  0.5388
   71SAPC  C310 6217   3.973   4.730   3.258 -0.0527 -0.0089 -0.4223
   71SAPC  H10X 6218   4.067   4.789   3.253 -0.1978  0.2133 -4.6346
   71SAPC  H10Y 6219   3.997   4.623   3.241  1.7711  0.3121 -0.0951
   71SAPC  C311 6220   3.929   4.759   3.402  0.3553 -0.0257  0.7892
   71SAPC  H11X 6221   3.828   4.724   3.435  1.1938 -1.2212  2.2346
   71SAPC  H11Y 6222   3.904   4.867   3.413 -3.6035 -0.6115 -0.8531
   71SAPC  C312 6223   4.026   4.711   3.499  0.3293  0.3655  0.7830
   71SAPC  H12X 6224   4.133   4.709   3.467 -0.2630 -1.7522 -1.3444
   71SAPC  H12Y 6225   4.008   4.602   3.509  1.4812 -0.1599 -1.8480
   71SAPC  C313 6226   4.028   4.790   3.624 -0.1752  0.0995 -0.0120
   71SAPC  H13X 6227   4.053   4.894   3.595  0.7017 -0.1167 -0.0619
   71SAPC  H13Y 6228   4.107   4.749   3.691 -0.3511  3.4129  2.4569
   71SAPC  C314 6229   3.894   4.781   3.711 -0.5523  0.8526  0.2917
   71SAPC  H14X 6230   3.863   4.674   3.704  3.2848 -0.3233 -1.7463
   71SAPC  H14Y 6231   3.822   4.849   3.662 -1.1400  0.2702  0.3344
   71SAPC  C315 6232   3.916   4.840   3.848 -0.5276  0.1379 -0.7326
   71SAPC  H15X 6233   3.917   4.951   3.850 -2.1394  0.1612  0.0820
   71SAPC  H15Y 6234   4.005   4.813   3.909 -1.2936 -0.3835  0.1939
   71SAPC  C316 6235   3.806   4.805   3.947  0.1641 -0.0795 -0.0053
   71SAPC  H16X 6236   3.816   4.696   3.965  0.6739 -0.2529 -1.2488
   71SAPC  H16Y 6237   3.710   4.826   3.895 -0.1840 -0.3323  0.5249
   71SAPC  C317 6238   3.821   4.876   4.073 -0.5781 -0.6914 -0.2903
   71SAPC  H17X 6239   3.832   4.987   4.064 -1.6272 -0.4298  1.3079
   71SAPC  H17Y 6240   3.917   4.841   4.116 -0.7232 -1.1096 -0.3091
   71SAPC  C318 6241   3.713   4.849   4.180 -0.3464 -0.2108 -0.0682
   71SAPC  H18X 6242   3.751   4.763   4.239  1.4987  0.0841 -0.7675
   71SAPC  H18Y 6243   3.607   4.835   4.151 -0.2673 -2.2323  0.4727
   71SAPC  H18Z 6244   3.719   4.927   4.259 -0.8820 -0.6405  0.3960
   72SAPC     N 6245   1.762   3.187   2.092  0.3368  0.0378 -0.0195
   72SAPC   C12 6246   1.781   3.069   2.187  0.1246  0.5622  0.4242
   72SAPC  H12A 6247   1.830   3.106   2.276 -0.0474  0.7255  0.4497
   72SAPC  H12B 6248   1.855   3.003   2.144  2.0460  3.2547 -0.6941
   72SAPC   C13 6249   1.707   3.132   1.961  0.0363 -0.3719 -0.3224
   72SAPC  H13A 6250   1.647   3.200   1.902 -0.8634 -3.2683 -3.0423
   72SAPC  H13B 6251   1.783   3.079   1.906 -1.2237 -5.5233  2.2693
   72SAPC  H13C 6252   1.648   3.046   1.990 -1.3079  0.5727 -0.1458
   72SAPC   C14 6253   1.672   3.289   2.156  0.6403 -1.0680  0.4353
   72SAPC  H14A 6254   1.680   3.385   2.107 -2.9779 -2.0267 -2.4794
   72SAPC  H14B 6255   1.569   3.262   2.173  0.2671  0.0742  0.0964
   72SAPC  H14C 6256   1.705   3.299   2.258  1.0721 -2.4396  0.4431
   72SAPC   C15 6257   1.894   3.250   2.068  0.0094 -0.1315 -0.3034
   72SAPC  H15A 6258   1.892   3.341   2.010 -0.6143 -0.6466 -1.0968
   72SAPC  H15B 6259   1.940   3.285   2.160 -1.0167  1.7419 -0.4470
   72SAPC  H15C 6260   1.960   3.192   2.006  0.7263 -0.9171  1.1452
   72SAPC   C11 6261   1.653   2.987   2.219  0.8299  0.2092  1.0815
   72SAPC  H11A 6262   1.566   3.051   2.246  0.6928  0.1341  0.8211
   72SAPC  H11B 6263   1.670   2.920   2.306  2.3281  0.0290  0.6760
   72SAPC     P 6264   1.686   2.771   2.068 -0.1454 -0.1432 -0.0602
   72SAPC   O13 6265   1.591   2.673   2.022 -0.0359 -0.5865 -0.4295
   72SAPC   O14 6266   1.790   2.812   1.974  0.0417 -0.4099 -0.0974
   72SAPC   O12 6267   1.604   2.905   2.107 -0.5795 -0.1846 -0.0242
   72SAPC   O11 6268   1.745   2.720   2.200  0.5000  0.0316 -0.2527
   72SAPC    C1 6269   1.673   2.646   2.300  0.1648  0.4962 -0.2704
   72SAPC    HA 6270   1.725   2.663   2.397  1.3532  0.4815 -0.8871
   72SAPC    HB 6271   1.568   2.680   2.307 -0.3888 -1.3488  0.9761
   72SAPC    C2 6272   1.686   2.495   2.271 -0.3192 -0.1341  0.5594
   72SAPC    HS 6273   1.632   2.470   2.177 -0.4459 -0.7283  0.7847
   72SAPC   O21 6274   1.622   2.425   2.372  0.1268 -0.7152 -0.1904
   72SAPC   C21 6275   1.618   2.297   2.349  0.1424  0.6002  0.4961
   72SAPC   O22 6276   1.675   2.235   2.267  0.2072 -0.3990  0.6340
   72SAPC   C22 6277   1.552   2.229   2.464  0.3329 -0.3295 -0.1392
   72SAPC   H2R 6278   1.592   2.267   2.560  2.0843 -3.6619  0.6185
   72SAPC   H2S 6279   1.443   2.250   2.460  0.6464  1.4258 -0.3435
   72SAPC    C3 6280   1.842   2.466   2.264 -0.8478  0.3419 -0.1038
   72SAPC    HX 6281   1.866   2.518   2.169 -0.8793 -0.3307 -0.4863
   72SAPC    HY 6282   1.870   2.359   2.247 -2.6171 -0.0138 -0.9646
   72SAPC   O31 6283   1.916   2.531   2.374 -0.4130 -0.6233  0.1755
   72SAPC   C31 6284   1.957   2.452   2.476  0.3733 -0.0596 -0.0365
   72SAPC   O32 6285   1.930   2.332   2.483  0.3946  0.0240  0.0002
   72SAPC   C32 6286   2.027   2.544   2.572 -0.0634 -0.4891  0.3815
   72SAPC   H2X 6287   2.085   2.609   2.503  1.8560 -0.3616  2.0246
   72SAPC   H2Y 6288   2.093   2.481   2.635  1.0597 -2.1215 -2.2274
   72SAPC   C23 6289   1.595   2.078   2.469 -0.1253  0.5776 -0.0120
   72SAPC   H3R 6290   1.706   2.078   2.469 -0.1236 -0.0503  0.0833
   72SAPC   H3S 6291   1.572   2.032   2.370  3.3165 -1.3275 -0.0813
   72SAPC   C24 6292   1.539   2.002   2.588  0.3010  0.1872 -0.6424
   72SAPC   H4R 6293   1.591   2.042   2.678 -1.0142 -2.7267  1.5720
   72SAPC   H4S 6294   1.567   1.895   2.576 -0.6818 -0.0034 -1.3274
   72SAPC   C25 6295   1.387   2.012   2.604  0.1858 -0.0388  0.3139
   72SAPC   H5R 6296   1.324   1.998   2.515  0.1421 -1.9369  0.5914
   72SAPC   C26 6297   1.315   2.044   2.715 -0.4543 -0.6088  0.0324
   72SAPC   H6R 6298   1.206   2.036   2.711 -0.3176 -2.4896 -2.0042
   72SAPC   C27 6299   1.367   2.058   2.849 -0.2232  0.4068  0.4880
   72SAPC   H7R 6300   1.473   2.025   2.837 -0.1622  1.1745 -1.4828
   72SAPC   H7S 6301   1.329   1.974   2.911  1.8598  0.3397  1.7977
   72SAPC   C28 6302   1.358   2.198   2.903 -0.1322  0.2483  0.4447
   72SAPC   H8R 6303   1.302   2.273   2.845 -0.6551 -0.1005  0.4929
   72SAPC   C29 6304   1.390   2.225   3.028 -0.5564  0.1286  0.1495
   72SAPC   H9R 6305   1.377   2.322   3.079 -2.6539  0.6589 -1.2618
   72SAPC  C210 6306   1.469   2.133   3.120 -0.6443 -0.5967 -0.1266
   72SAPC  H10R 6307   1.563   2.104   3.069  0.9291  1.9346  1.1350
   72SAPC  H10S 6308   1.412   2.038   3.126 -2.6542  0.2757 -3.0606
   72SAPC  C211 6309   1.500   2.175   3.258  0.0026 -0.2884  0.8751
   72SAPC  H11R 6310   1.423   2.239   3.302 -1.6545 -3.0332  2.2651
   72SAPC  C212 6311   1.613   2.158   3.329  0.4266  0.1386 -0.2710
   72SAPC  H12R 6312   1.618   2.201   3.431  0.6277  0.7403 -0.5304
   72SAPC  C213 6313   1.721   2.055   3.309  0.1064 -0.4510  0.8598
   72SAPC  H13R 6314   1.795   2.094   3.383 -0.4194  0.0817  1.1120
   72SAPC  H13S 6315   1.766   2.067   3.208  0.7307 -0.3559  1.1428
   72SAPC  C214 6316   1.689   1.911   3.340 -0.0999  0.5779 -0.3544
   72SAPC  H14R 6317   1.628   1.860   3.264  2.0409  0.0552 -1.8248
   72SAPC  C215 6318   1.716   1.834   3.448 -0.0679  0.0151 -0.0985
   72SAPC  H15R 6319   1.677   1.731   3.457  0.9623 -0.2619  1.5912
   72SAPC  C216 6320   1.784   1.890   3.572 -0.2202  0.5005 -0.3272
   72SAPC  H16R 6321   1.857   1.965   3.535  1.5744 -0.9818  0.0614
   72SAPC  H16S 6322   1.849   1.811   3.614  0.6790  1.0021 -0.7538
   72SAPC  C217 6323   1.688   1.931   3.692 -0.3133 -0.7038 -0.4570
   72SAPC  H17R 6324   1.608   1.854   3.697 -0.6583 -0.3933 -1.0378
   72SAPC  H17S 6325   1.646   2.032   3.671  0.5001  0.0818  1.5194
   72SAPC  C218 6326   1.750   1.942   3.832  0.3583  0.6081 -0.0684
   72SAPC  H18R 6327   1.859   1.966   3.835  0.5391 -0.1978  2.4736
   72SAPC  H18S 6328   1.752   1.841   3.877 -0.1836  0.8591  0.5308
   72SAPC  C219 6329   1.666   2.037   3.922 -0.3380  0.5160 -0.1150
   72SAPC  H19R 6330   1.702   2.033   4.026 -1.5553  1.1777  0.3480
   72SAPC  H19S 6331   1.561   2.003   3.933  0.1716 -1.1758 -0.1491
   72SAPC  C220 6332   1.670   2.185   3.885 -0.1484  0.9572  0.1647
   72SAPC  H20R 6333   1.634   2.202   3.781 -0.6201  1.3020  0.3823
   72SAPC  H20S 6334   1.770   2.228   3.906  1.0502 -1.6278  0.2027
   72SAPC  H20T 6335   1.598   2.239   3.949 -1.4796  0.7465 -1.0928
   72SAPC   C33 6336   1.952   2.658   2.655  0.7783  0.1183 -0.4434
   72SAPC   H3X 6337   1.843   2.636   2.651  0.9452 -1.0177  0.6867
   72SAPC   H3Y 6338   1.965   2.756   2.604  0.4290 -0.5309 -1.8164
   72SAPC   C34 6339   1.999   2.679   2.803  0.4847  0.4018  0.7013
   72SAPC   H4X 6340   2.109   2.666   2.810  0.4323 -0.9220 -0.3971
   72SAPC   H4Y 6341   1.965   2.591   2.861  0.9085 -0.1643  0.1066
   72SAPC   C35 6342   1.944   2.810   2.868  0.5926 -0.5007  0.4407
   72SAPC   H5X 6343   1.851   2.831   2.813  0.9802 -0.5991 -0.2647
   72SAPC   H5Y 6344   2.003   2.899   2.838 -0.0844 -0.1898  0.0234
   72SAPC   C36 6345   1.924   2.797   3.021  0.1975 -0.5009  0.2640
   72SAPC   H6X 6346   2.024   2.801   3.070  0.8601 -1.9988 -0.8932
   72SAPC   H6Y 6347   1.889   2.692   3.036  1.9898 -1.3341 -1.0210
   72SAPC   C37 6348   1.839   2.903   3.090  0.6000 -0.0913 -0.4681
   72SAPC   H7X 6349   1.733   2.885   3.060  0.4753 -1.9708  0.9179
   72SAPC   H7Y 6350   1.860   3.006   3.056 -0.6219  0.1301 -0.6075
   72SAPC   C38 6351   1.861   2.891   3.243  0.0986  0.0586  0.3121
   72SAPC   H8X 6352   1.968   2.908   3.265  0.5118  1.2135 -2.2809
   72SAPC   H8Y 6353   1.835   2.790   3.282 -1.0065  0.2496  0.0930
   72SAPC   C39 6354   1.768   2.979   3.325  0.3681  0.1392  0.0562
   72SAPC   H9X 6355   1.664   2.961   3.290  0.4579  2.4857 -1.6796
   72SAPC   H9Y 6356   1.786   3.086   3.299  1.8727  0.3150  1.6192
   72SAPC  C310 6357   1.784   2.949   3.473  0.0740  0.2461 -0.1721
   72SAPC  H10X 6358   1.887   2.974   3.508  0.3854 -0.1764 -0.7849
   72SAPC  H10Y 6359   1.774   2.839   3.482  2.1121  0.0045 -0.2278
   72SAPC  C311 6360   1.689   3.029   3.564  0.4560  0.3740 -0.5813
   72SAPC  H11X 6361   1.582   3.001   3.551  0.3186  1.6988 -2.7552
   72SAPC  H11Y 6362   1.700   3.130   3.520 -1.3579  0.7979 -0.1434
   72SAPC  C312 6363   1.718   3.028   3.714 -0.5240 -0.3629 -0.1676
   72SAPC  H12X 6364   1.817   3.076   3.732 -0.0765 -1.9849  2.1456
   72SAPC  H12Y 6365   1.725   2.928   3.762 -1.2074  0.3528  1.4855
   72SAPC  C313 6366   1.615   3.118   3.790 -0.4066 -0.0468  0.7559
   72SAPC  H13X 6367   1.519   3.061   3.785  1.0397 -2.5034 -1.4148
   72SAPC  H13Y 6368   1.599   3.215   3.738  0.9178  0.1247  0.6466
   72SAPC  C314 6369   1.659   3.134   3.934  0.0707 -0.3792  0.1300
   72SAPC  H14X 6370   1.766   3.165   3.939  0.4287 -1.4641 -0.3487
   72SAPC  H14Y 6371   1.637   3.034   3.977 -1.2268 -0.4282 -0.5979
   72SAPC  C315 6372   1.580   3.252   3.995 -0.0817 -0.2144 -0.2135
   72SAPC  H15X 6373   1.470   3.234   3.996 -0.0549 -0.3672 -0.1052
   72SAPC  H15Y 6374   1.595   3.339   3.927 -1.2778 -2.5531 -3.7688
   72SAPC  C316 6375   1.616   3.288   4.138  0.5335  0.4549  0.1234
   72SAPC  H16X 6376   1.724   3.287   4.164  0.6376  0.9808 -0.2535
   72SAPC  H16Y 6377   1.561   3.217   4.203 -0.7936  0.5616 -0.8369
   72SAPC  C317 6378   1.553   3.425   4.170  0.3611 -0.7738 -0.6628
   72SAPC  H17X 6379   1.444   3.414   4.152 -0.0012 -1.6270  1.7536
   72SAPC  H17Y 6380   1.587   3.518   4.118 -1.4200  0.3996  0.1858
   72SAPC  C318 6381   1.560   3.452   4.318  0.9090 -0.2349 -1.1122
   72SAPC  H18X 6382   1.473   3.514   4.346  1.0180 -0.2524 -0.7346
   72SAPC  H18Y 6383   1.654   3.504   4.348 -0.4460  1.2313  0.8008
   72SAPC  H18Z 6384   1.562   3.362   4.383 -0.7860 -0.1837 -0.9535
   73SLPC     N 6385   3.655   4.324   6.809 -0.2733 -0.0910 -0.0105
   73SLPC   C13 6386   3.523   4.261   6.838  0.3587 -0.0344  0.0324
   73SLPC  H13A 6387   3.498   4.189   6.761 -0.0048  0.8570 -0.7074
   73SLPC  H13B 6388   3.510   4.210   6.932 -1.8111 -2.1860 -1.3195
   73SLPC  H13C 6389   3.445   4.336   6.836 -0.7051 -1.1256 -0.1504
   73SLPC   C14 6390   3.771   4.226   6.799  0.6271  0.2195  0.4757
   73SLPC  H14A 6391   3.864   4.282   6.800 -1.4591  4.0482  2.5303
   73SLPC  H14B 6392   3.775   4.159   6.884 -0.1674 -0.5958 -0.1123
   73SLPC  H14C 6393   3.756   4.156   6.718 -0.9082 -1.5502  2.1778
   73SLPC   C15 6394   3.669   4.413   6.929  0.0972 -0.0869  0.9356
   73SLPC  H15A 6395   3.727   4.501   6.905  1.4618 -0.8533  1.3414
   73SLPC  H15B 6396   3.568   4.441   6.955 -0.5234  0.6353 -1.9082
   73SLPC  H15C 6397   3.713   4.364   7.014  0.9716  0.4261  0.7897
   73SLPC   C12 6398   3.650   4.408   6.678  0.1413 -0.1055 -1.2794
   73SLPC  H12A 6399   3.746   4.457   6.675  0.4007 -0.1865  1.8289
   73SLPC  H12B 6400   3.579   4.485   6.700  1.1318  0.1876  1.2477
   73SLPC   C11 6401   3.619   4.345   6.538 -0.1280  0.3683 -0.6184
   73SLPC  H11A 6402   3.677   4.251   6.525 -2.3343 -1.1209 -0.0827
   73SLPC  H11B 6403   3.638   4.409   6.449 -2.1638  0.2775 -1.1530
   73SLPC     P 6404   3.373   4.400   6.450  0.0110  0.3051 -0.0994
   73SLPC   O13 6405   3.247   4.326   6.446  0.6232  0.0424  0.0161
   73SLPC   O14 6406   3.365   4.526   6.517 -0.1012 -0.6420 -0.2989
   73SLPC   O12 6407   3.474   4.314   6.538 -0.2874 -0.9630  0.7569
   73SLPC   O11 6408   3.431   4.410   6.297 -0.2704 -0.0658 -0.3612
   73SLPC    C1 6409   3.500   4.298   6.248  0.4767  0.1582  0.2319
   73SLPC    HA 6410   3.608   4.320   6.236  0.0405  2.0540 -0.5468
   73SLPC    HB 6411   3.497   4.212   6.318  0.1266  0.9734  1.2581
   73SLPC    C2 6412   3.445   4.251   6.110 -1.2515 -0.4137  0.5447
   73SLPC    HS 6413   3.503   4.158   6.092 -0.9370 -0.0377 -0.4303
   73SLPC   O21 6414   3.455   4.346   6.003 -0.2746 -0.6981  0.2508
   73SLPC   C21 6415   3.568   4.331   5.933 -0.4497  0.4886  0.0965
   73SLPC   O22 6416   3.654   4.247   5.956 -0.2654  0.3669 -0.2065
   73SLPC   C22 6417   3.589   4.444   5.834  0.1316  0.0297 -0.2030
   73SLPC   H2R 6418   3.546   4.542   5.861 -0.1069  0.1495 -0.9979
   73SLPC   H2S 6419   3.699   4.453   5.820  0.0926 -0.8950 -1.2588
   73SLPC    C3 6420   3.298   4.208   6.123 -0.4001 -0.0830  0.3622
   73SLPC    HX 6421   3.237   4.289   6.169 -0.7571  0.5189 -1.0989
   73SLPC    HY 6422   3.297   4.113   6.180 -1.1402  0.3928  1.1588
   73SLPC   O31 6423   3.241   4.175   5.995  0.1204  0.0963  0.1572
   73SLPC   C31 6424   3.274   4.058   5.941 -0.0925  0.3866  0.6365
   73SLPC   O32 6425   3.343   3.969   5.997  0.1939  0.0751  0.4797
   73SLPC   C32 6426   3.228   4.040   5.798 -0.1016  0.1965  0.5204
   73SLPC   H2X 6427   3.163   4.127   5.771  0.8019  0.9731  0.7869
   73SLPC   H2Y 6428   3.156   3.956   5.794 -2.5822  2.2132 -2.9852
   73SLPC   C23 6429   3.545   4.400   5.694 -0.3412  0.8107  0.2020
   73SLPC   H3R 6430   3.434   4.397   5.697 -0.3699 -1.7075 -0.5759
   73SLPC   H3S 6431   3.582   4.299   5.665 -0.6339  1.7972 -4.2884
   73SLPC   C24 6432   3.584   4.503   5.592  0.1998  0.4159 -0.0507
   73SLPC   H4R 6433   3.692   4.508   5.564  0.1389 -0.6652 -0.5294
   73SLPC   H4S 6434   3.539   4.603   5.611 -1.7550 -0.3433 -0.4930
   73SLPC   C25 6435   3.508   4.458   5.466 -0.7178  0.2825  0.3335
   73SLPC   H5R 6436   3.398   4.463   5.482 -0.8067  0.7670 -0.3635
   73SLPC   H5S 6437   3.545   4.354   5.453 -0.9870  0.1328  0.7711
   73SLPC   C26 6438   3.562   4.535   5.340 -0.9162 -0.1469 -0.1737
   73SLPC   H6R 6439   3.673   4.543   5.343 -0.7884 -1.8012  1.2798
   73SLPC   H6S 6440   3.506   4.630   5.338  0.6548  0.9509  2.5840
   73SLPC   C27 6441   3.532   4.466   5.212 -0.6099  0.1845 -0.2705
   73SLPC   H7R 6442   3.422   4.452   5.204 -0.4375 -1.0876 -0.6445
   73SLPC   H7S 6443   3.560   4.358   5.220 -1.9892 -0.1007  1.0786
   73SLPC   C28 6444   3.571   4.546   5.088  0.1068 -0.0789  0.0899
   73SLPC   H8R 6445   3.530   4.649   5.096  0.0460 -0.0501 -0.5480
   73SLPC   H8S 6446   3.513   4.509   5.000 -1.1454  1.3275  0.2885
   73SLPC   C29 6447   3.721   4.556   5.057 -0.2092 -0.1037 -0.0578
   73SLPC   H9R 6448   3.782   4.566   5.148  1.3816 -2.6432 -0.7587
   73SLPC  C210 6449   3.789   4.556   4.942  0.5563  0.8630  0.6055
   73SLPC  H10R 6450   3.895   4.584   4.941 -0.2407  4.2689  0.7688
   73SLPC  C211 6451   3.729   4.528   4.805  0.3124 -0.4353  0.5721
   73SLPC  H11R 6452   3.620   4.547   4.812  0.3654  0.1943 -0.1313
   73SLPC  H11S 6453   3.753   4.433   4.753  1.3896  0.7792 -1.2929
   73SLPC  C212 6454   3.781   4.635   4.705  0.2772 -0.2894 -0.5328
   73SLPC  H12R 6455   3.790   4.736   4.747 -0.3824  0.6940 -2.6043
   73SLPC  C213 6456   3.810   4.610   4.577  0.4532  0.2642 -0.2464
   73SLPC  H13R 6457   3.851   4.689   4.512 -2.2256  0.8320 -1.3962
   73SLPC  C214 6458   3.794   4.476   4.508  0.8676 -0.3277 -0.9175
   73SLPC  H14R 6459   3.720   4.410   4.559  2.2007 -0.1795  1.3568
   73SLPC  H14S 6460   3.889   4.418   4.509  0.4332 -1.0621 -0.0110
   73SLPC  C215 6461   3.749   4.499   4.363  0.4023 -0.0677 -0.2438
   73SLPC  H15R 6462   3.786   4.410   4.307  0.6453 -1.3232  1.7864
   73SLPC  H15S 6463   3.806   4.586   4.324  2.0229 -1.5279 -1.2721
   73SLPC  C216 6464   3.592   4.505   4.360  0.5079 -0.1086 -0.3127
   73SLPC  H16R 6465   3.554   4.598   4.408  0.9717 -1.1468  2.1878
   73SLPC  H16S 6466   3.545   4.426   4.421  2.1986 -1.3340 -0.5273
   73SLPC  C217 6467   3.537   4.481   4.220  0.6606 -0.2752  0.5338
   73SLPC  H17R 6468   3.558   4.380   4.179  0.8937  0.3658 -1.0040
   73SLPC  H17S 6469   3.591   4.560   4.164  0.6033 -1.2444 -0.9480
   73SLPC  C218 6470   3.390   4.509   4.198  0.5544  0.2686  0.4302
   73SLPC  H18R 6471   3.363   4.610   4.235 -1.5320  0.6897 -1.9676
   73SLPC  H18S 6472   3.316   4.437   4.241 -0.4327  0.2132 -1.2714
   73SLPC  H18T 6473   3.370   4.511   4.089  1.4827  1.7151  0.2681
   73SLPC   C33 6474   3.339   4.015   5.692 -0.4802 -0.1276 -0.1514
   73SLPC   H3X 6475   3.364   3.907   5.688 -0.9723 -0.2605  0.2700
   73SLPC   H3Y 6476   3.428   4.075   5.722 -0.6184 -1.0574  2.3947
   73SLPC   C34 6477   3.299   4.061   5.549  0.2958  0.3366 -0.0329
   73SLPC   H4X 6478   3.245   4.159   5.549 -0.9652 -0.3272 -1.1308
   73SLPC   H4Y 6479   3.232   3.983   5.508  1.1297  0.1181 -1.0294
   73SLPC   C35 6480   3.418   4.075   5.450  0.3361  0.5131  0.4109
   73SLPC   H5X 6481   3.469   3.976   5.462 -1.0674 -0.2993 -0.0804
   73SLPC   H5Y 6482   3.493   4.151   5.479  0.3199  0.9687 -0.7202
   73SLPC   C36 6483   3.370   4.075   5.304  0.1626  0.1166 -0.2195
   73SLPC   H6X 6484   3.322   3.976   5.296 -0.5229  0.5020 -1.0555
   73SLPC   H6Y 6485   3.462   4.079   5.243  0.0007  1.8773 -0.4122
   73SLPC   C37 6486   3.270   4.187   5.263 -0.5723  0.1574  0.3011
   73SLPC   H7X 6487   3.319   4.286   5.274 -2.1476  0.9536  0.4884
   73SLPC   H7Y 6488   3.177   4.188   5.325 -2.3207 -4.8840 -1.6910
   73SLPC   C38 6489   3.228   4.176   5.120 -0.2951  0.6253  0.9781
   73SLPC   H8X 6490   3.118   4.173   5.101 -0.1272 -1.3233  0.0009
   73SLPC   H8Y 6491   3.255   4.075   5.082 -0.6749  1.4534 -1.7492
   73SLPC   C39 6492   3.308   4.265   5.026  0.6791  0.1836  0.1865
   73SLPC   H9X 6493   3.416   4.253   5.049  0.8812  1.1414 -0.1866
   73SLPC   H9Y 6494   3.276   4.368   5.051  1.0754  0.5860 -0.8964
   73SLPC  C310 6495   3.277   4.240   4.877  0.1338 -0.1547 -0.2779
   73SLPC  H10X 6496   3.169   4.268   4.869  0.2781  1.3181  1.9897
   73SLPC  H10Y 6497   3.296   4.134   4.851 -2.2953 -1.0118  1.0835
   73SLPC  C311 6498   3.356   4.327   4.777  0.4208  0.1785 -0.0739
   73SLPC  H11X 6499   3.461   4.290   4.778  1.1429  2.0875 -0.9949
   73SLPC  H11Y 6500   3.356   4.432   4.811 -0.1788  1.2083 -3.0245
   73SLPC  C312 6501   3.298   4.320   4.634 -0.6361  0.5528  0.2183
   73SLPC  H12X 6502   3.352   4.390   4.566  0.3093  1.1501  1.5321
   73SLPC  H12Y 6503   3.190   4.342   4.644 -0.8343  0.0839 -0.7831
   73SLPC  C313 6504   3.320   4.176   4.575  0.6804 -0.7230 -0.4706
   73SLPC  H13X 6505   3.261   4.103   4.634  0.1771 -1.1295 -1.4514
   73SLPC  H13Y 6506   3.429   4.154   4.583  1.1950  1.6232 -0.4394
   73SLPC  C314 6507   3.284   4.167   4.430 -0.2100 -0.0801  0.6651
   73SLPC  H14X 6508   3.311   4.067   4.389 -0.4054 -0.0414  0.4373
   73SLPC  H14Y 6509   3.344   4.241   4.373  0.9714  0.4695  2.5217
   73SLPC  C315 6510   3.140   4.189   4.401  0.6535 -0.7205 -0.0446
   73SLPC  H15X 6511   3.121   4.298   4.403  2.3852 -0.3673  2.4120
   73SLPC  H15Y 6512   3.080   4.156   4.488  1.4015 -0.3992  0.6109
   73SLPC  C316 6513   3.091   4.134   4.263 -0.5042  0.1276  0.7306
   73SLPC  H16X 6514   3.151   4.050   4.222  0.6870  0.8836  0.8671
   73SLPC  H16Y 6515   3.104   4.218   4.192  0.7172  0.8551  1.7634
   73SLPC  C317 6516   2.934   4.106   4.257 -0.2028 -0.0820 -1.0286
   73SLPC  H17X 6517   2.888   4.207   4.262  0.9465  0.5139 -2.0244
   73SLPC  H17Y 6518   2.899   4.065   4.355  1.4768  0.5806 -0.1090
   73SLPC  C318 6519   2.888   4.038   4.126 -0.3317  0.4699 -0.2635
   73SLPC  H18X 6520   2.921   4.099   4.039  0.5194 -2.1640 -1.9367
   73SLPC  H18Y 6521   2.777   4.031   4.130 -0.3373  1.1554  1.5542
   73SLPC  H18Z 6522   2.927   3.934   4.119 -0.3456  0.5033 -0.8870
   74SLPC     N 6523   0.981   3.949   6.758  0.4080 -0.4784 -0.5354
   74SLPC   C13 6524   1.000   4.001   6.900  0.1380 -0.0389 -0.4959
   74SLPC  H13A 6525   1.063   4.088   6.900 -1.0468  0.8477 -0.1516
   74SLPC  H13B 6526   0.907   4.020   6.952  0.0995 -1.4781  0.0161
   74SLPC  H13C 6527   1.058   3.932   6.960  1.3396  3.2964  2.5454
   74SLPC   C14 6528   0.891   4.044   6.688  0.7376  0.1977 -0.3050
   74SLPC  H14A 6529   0.883   4.016   6.584  0.4217 -2.2236  0.3181
   74SLPC  H14B 6530   0.792   4.046   6.732 -0.8006 -0.4651 -3.4475
   74SLPC  H14C 6531   0.924   4.147   6.687 -0.0605  0.4633 -1.4413
   74SLPC   C15 6532   0.922   3.816   6.756  0.0193 -0.2038 -0.0812
   74SLPC  H15A 6533   0.937   3.769   6.660 -1.1296  0.8910 -0.8252
   74SLPC  H15B 6534   0.972   3.749   6.825 -0.3138  0.2356  0.6049
   74SLPC  H15C 6535   0.817   3.806   6.781 -0.0284 -0.7904 -0.4892
   74SLPC   C12 6536   1.116   3.948   6.687  0.0800 -0.0120  0.0312
   74SLPC  H12A 6537   1.183   3.874   6.729  0.4991 -0.4006 -1.2551
   74SLPC  H12B 6538   1.174   4.038   6.694  2.9474 -1.8208  1.3545
   74SLPC   C11 6539   1.111   3.915   6.530 -0.3064  0.0908  0.4314
   74SLPC  H11A 6540   1.212   3.940   6.491  0.0386 -0.7407  0.7817
   74SLPC  H11B 6541   1.046   3.985   6.473 -0.5681 -0.0680  0.5345
   74SLPC     P 6542   1.187   3.667   6.491 -0.1951 -0.0629 -0.2054
   74SLPC   O13 6543   1.249   3.650   6.623  0.2582  0.2022  0.1760
   74SLPC   O14 6544   1.139   3.543   6.430  0.4971 -0.0739  0.3589
   74SLPC   O12 6545   1.077   3.781   6.500  0.1201 -0.0928  0.1777
   74SLPC   O11 6546   1.291   3.727   6.385  0.4471 -0.2600  0.0373
   74SLPC    C1 6547   1.250   3.766   6.253 -0.5527  0.1132 -0.3339
   74SLPC    HA 6548   1.145   3.803   6.258 -1.2535 -1.8675  0.9489
   74SLPC    HB 6549   1.319   3.845   6.218  1.3063 -0.8012  1.0947
   74SLPC    C2 6550   1.262   3.659   6.145 -0.1294 -0.3900 -0.0261
   74SLPC    HS 6551   1.198   3.577   6.185  0.4684 -1.4710 -1.2095
   74SLPC   O21 6552   1.398   3.618   6.133 -0.0397 -0.3031  0.1168
   74SLPC   C21 6553   1.414   3.496   6.083 -0.2072 -0.0797 -0.6550
   74SLPC   O22 6554   1.333   3.401   6.078 -0.3418  0.1368 -0.2326
   74SLPC   C22 6555   1.551   3.502   6.006  0.5699  0.2479 -0.5370
   74SLPC   H2R 6556   1.607   3.591   6.044  0.7296 -0.1828  0.2526
   74SLPC   H2S 6557   1.605   3.410   6.038 -0.6781 -0.4504 -0.3869
   74SLPC    C3 6558   1.208   3.710   6.011 -0.1543 -1.1514  0.0360
   74SLPC    HX 6559   1.265   3.801   5.984 -0.5704 -0.0863  2.4130
   74SLPC    HY 6560   1.108   3.751   6.037  0.5114 -0.1700  1.1843
   74SLPC   O31 6561   1.202   3.614   5.906 -0.2930 -0.4969 -1.3120
   74SLPC   C31 6562   1.102   3.525   5.927 -0.0978  0.0087  1.0528
   74SLPC   O32 6563   1.026   3.519   6.020  0.4163 -0.0079 -1.2118
   74SLPC   C32 6564   1.105   3.425   5.818 -0.2052 -0.0794  0.0942
   74SLPC   H2X 6565   1.163   3.340   5.860  0.6254  0.3482 -0.1791
   74SLPC   H2Y 6566   1.140   3.462   5.720 -0.2047 -1.1658 -0.3250
   74SLPC   C23 6567   1.531   3.506   5.851 -0.5097  0.3432 -0.7298
   74SLPC   H3R 6568   1.440   3.446   5.828 -0.7444  1.4745 -3.0769
   74SLPC   H3S 6569   1.619   3.461   5.801 -0.3711 -0.0687 -0.1200
   74SLPC   C24 6570   1.517   3.645   5.793  0.2068  0.0568  0.2743
   74SLPC   H4R 6571   1.618   3.690   5.804 -0.0023  0.2357  1.7040
   74SLPC   H4S 6572   1.467   3.722   5.855  4.9664  3.0443  0.9054
   74SLPC   C25 6573   1.455   3.638   5.651 -0.2195  0.2992 -0.0797
   74SLPC   H5R 6574   1.410   3.738   5.630 -2.1255 -0.3012  0.8634
   74SLPC   H5S 6575   1.370   3.566   5.651 -0.9980  1.1906 -0.7400
   74SLPC   C26 6576   1.550   3.601   5.533  0.1707  0.4953  0.2319
   74SLPC   H6R 6577   1.647   3.644   5.564 -0.0062  0.9201  0.2059
   74SLPC   H6S 6578   1.516   3.656   5.442  0.1351  1.8430  1.0362
   74SLPC   C27 6579   1.557   3.450   5.504  0.1227  0.5107 -0.3933
   74SLPC   H7R 6580   1.587   3.402   5.599  0.6385  2.5853  0.5635
   74SLPC   H7S 6581   1.647   3.437   5.440 -0.7402  1.3857 -1.8472
   74SLPC   C28 6582   1.427   3.386   5.443  0.4134 -0.1474  0.0886
   74SLPC   H8R 6583   1.344   3.395   5.516 -1.0162  2.2769 -1.6870
   74SLPC   H8S 6584   1.457   3.283   5.415 -1.1790 -1.0103  1.4086
   74SLPC   C29 6585   1.382   3.450   5.317  0.2083  0.3766  0.6591
   74SLPC   H9R 6586   1.274   3.472   5.313 -0.4124 -2.4093 -1.1952
   74SLPC  C210 6587   1.453   3.480   5.206 -0.1947  1.0231 -0.9643
   74SLPC  H10R 6588   1.412   3.546   5.127  0.1993  3.4163  0.7138
   74SLPC  C211 6589   1.599   3.437   5.176  0.5314  0.1067 -0.0083
   74SLPC  H11R 6590   1.621   3.341   5.227  2.4102  1.4646  1.9194
   74SLPC  H11S 6591   1.666   3.513   5.222 -0.2127 -0.1128  1.5110
   74SLPC  C212 6592   1.607   3.412   5.023  0.0718  0.4854  0.5492
   74SLPC  H12R 6593   1.597   3.304   5.003 -0.4826  0.4401  1.0164
   74SLPC  C213 6594   1.648   3.484   4.920  0.4800  0.1111  0.0177
   74SLPC  H13R 6595   1.657   3.434   4.823 -0.1383 -0.2980  0.1690
   74SLPC  C214 6596   1.689   3.628   4.925  0.4118  0.3890 -0.1090
   74SLPC  H14R 6597   1.798   3.632   4.904  0.0884 -1.4699 -2.7044
   74SLPC  H14S 6598   1.684   3.668   5.029 -0.9176 -0.2237  0.0881
   74SLPC  C215 6599   1.614   3.717   4.823  0.4160 -0.6625  0.4952
   74SLPC  H15R 6600   1.655   3.819   4.843 -1.3003 -0.2236  2.0563
   74SLPC  H15S 6601   1.509   3.713   4.857  0.6978 -3.5484  1.2970
   74SLPC  C216 6602   1.641   3.691   4.683 -0.3393  0.0185 -0.3642
   74SLPC  H16R 6603   1.579   3.767   4.630 -0.0490  1.3880  1.1815
   74SLPC  H16S 6604   1.614   3.585   4.661 -2.3993  0.4204 -0.0490
   74SLPC  C217 6605   1.791   3.717   4.652 -0.4145  0.8115  0.1193
   74SLPC  H17R 6606   1.850   3.632   4.690 -0.5770  1.1575  1.1829
   74SLPC  H17S 6607   1.822   3.806   4.711 -1.8511 -0.1871  2.5393
   74SLPC  C218 6608   1.818   3.735   4.507  0.9360  0.5994 -0.4639
   74SLPC  H18R 6609   1.768   3.826   4.468 -0.0375  1.4708  2.6082
   74SLPC  H18S 6610   1.787   3.647   4.446 -1.6425  1.2579 -0.2149
   74SLPC  H18T 6611   1.921   3.761   4.475 -0.0029  2.9004 -1.8649
   74SLPC   C33 6612   0.968   3.360   5.784 -0.3503 -0.2285  0.0170
   74SLPC   H3X 6613   0.912   3.443   5.737  0.5783  0.2128 -0.3489
   74SLPC   H3Y 6614   0.905   3.318   5.866 -0.2052 -1.2687 -0.3807
   74SLPC   C34 6615   0.973   3.239   5.689  0.4282  0.1338  0.5297
   74SLPC   H4X 6616   0.878   3.181   5.699  1.3425 -2.1062 -2.3579
   74SLPC   H4Y 6617   1.043   3.162   5.726  1.5519  0.8179 -0.1300
   74SLPC   C35 6618   1.010   3.266   5.543  0.1457  0.3753  0.4719
   74SLPC   H5X 6619   1.097   3.333   5.556 -0.0743  0.6828  0.3541
   74SLPC   H5Y 6620   0.933   3.329   5.493  0.7628  1.3445  0.7365
   74SLPC   C36 6621   1.037   3.139   5.454 -0.5226  0.1785  0.1855
   74SLPC   H6X 6622   0.950   3.070   5.452 -0.1070 -0.5132  2.5558
   74SLPC   H6Y 6623   1.125   3.085   5.497  0.8313  0.6712 -1.8210
   74SLPC   C37 6624   1.074   3.184   5.314  0.0088 -0.3663  1.0599
   74SLPC   H7X 6625   1.144   3.269   5.319 -0.1600 -0.2384  1.2644
   74SLPC   H7Y 6626   0.985   3.219   5.257  1.0901  1.0058  0.1821
   74SLPC   C38 6627   1.127   3.066   5.235  0.3781  0.8963 -0.3078
   74SLPC   H8X 6628   1.059   2.983   5.263 -0.6114  1.9112  0.3749
   74SLPC   H8Y 6629   1.229   3.046   5.275  0.1019  2.8700  1.5365
   74SLPC   C39 6630   1.147   3.097   5.087  1.4011  0.0830  0.0860
   74SLPC   H9X 6631   1.254   3.089   5.058  0.3974 -1.2485 -4.0082
   74SLPC   H9Y 6632   1.113   3.201   5.067  2.2941  0.8200  2.0959
   74SLPC  C310 6633   1.071   2.992   4.993  0.5781  0.4280 -0.4884
   74SLPC  H10X 6634   0.962   3.013   4.996  0.5448  0.1933  2.5277
   74SLPC  H10Y 6635   1.097   2.889   5.024  2.1824  0.7059 -0.7909
   74SLPC  C311 6636   1.112   3.011   4.847  0.2647 -0.0538 -0.2078
   74SLPC  H11X 6637   1.222   2.999   4.858  0.2930 -0.9330 -1.2963
   74SLPC  H11Y 6638   1.095   3.114   4.807 -0.5674 -0.1880 -0.2247
   74SLPC  C312 6639   1.043   2.905   4.768 -0.7898 -0.0662  0.5694
   74SLPC  H12X 6640   0.933   2.920   4.772 -1.2505 -3.1701  2.2292
   74SLPC  H12Y 6641   1.062   2.802   4.804  2.8428  0.0785 -0.5159
   74SLPC  C313 6642   1.093   2.913   4.619 -0.0156  0.0703 -0.7692
   74SLPC  H13X 6643   1.203   2.916   4.606 -0.0636 -0.7531 -1.4623
   74SLPC  H13Y 6644   1.057   3.012   4.582 -1.4316 -0.6660 -1.4833
   74SLPC  C314 6645   1.022   2.810   4.531 -0.0348  0.1788 -0.4287
   74SLPC  H14X 6646   0.913   2.801   4.555  0.3092 -2.3360  0.4493
   74SLPC  H14Y 6647   1.066   2.712   4.560 -0.4167 -0.1728 -1.0074
   74SLPC  C315 6648   1.048   2.806   4.381  0.1915  0.5153  0.2022
   74SLPC  H15X 6649   1.157   2.791   4.368 -0.0108 -0.8851 -0.0674
   74SLPC  H15Y 6650   1.005   2.899   4.339 -0.1268 -0.4015 -1.5792
   74SLPC  C316 6651   0.997   2.674   4.315 -0.2738  0.5446  0.7924
   74SLPC  H16X 6652   0.888   2.656   4.308 -0.3939  0.7047  1.9756
   74SLPC  H16Y 6653   1.047   2.597   4.378 -0.8665  0.0656  0.6774
   74SLPC  C317 6654   1.057   2.640   4.173  0.0168 -0.1280 -0.1009
   74SLPC  H17X 6655   1.035   2.532   4.158 -0.6201 -0.1135  0.7036
   74SLPC  H17Y 6656   1.165   2.662   4.158  0.2510 -1.3051 -0.2926
   74SLPC  C318 6657   0.982   2.712   4.060 -0.0250 -0.3994  0.3489
   74SLPC  H18X 6658   1.011   2.687   3.956  0.3268  1.4182 -0.0110
   74SLPC  H18Y 6659   0.986   2.821   4.078  1.6194 -0.5239  0.9633
   74SLPC  H18Z 6660   0.874   2.691   4.078 -0.1035  0.5112  0.9836
   75SLPC     N 6661   4.422   4.515   6.629 -0.5836  0.7719 -0.6719
   75SLPC   C13 6662   4.448   4.383   6.693 -0.0016 -0.2682  0.0522
   75SLPC  H13A 6663   4.523   4.332   6.635  2.5779  2.3886  0.7701
   75SLPC  H13B 6664   4.484   4.382   6.795 -1.0500 -0.1303  0.4263
   75SLPC  H13C 6665   4.360   4.321   6.687  0.0609 -0.2230 -2.4833
   75SLPC   C14 6666   4.511   4.619   6.682  0.5478 -0.1189  0.8171
   75SLPC  H14A 6667   4.493   4.717   6.641 -0.5206 -0.7788 -0.3599
   75SLPC  H14B 6668   4.507   4.610   6.790 -0.6202 -1.5423  0.6888
   75SLPC  H14C 6669   4.614   4.599   6.654 -0.0644 -1.7416 -0.4481
   75SLPC   C15 6670   4.283   4.550   6.667 -0.5914 -0.0457 -0.1937
   75SLPC  H15A 6671   4.272   4.593   6.765  0.6653 -1.8154  0.7973
   75SLPC  H15B 6672   4.261   4.633   6.601  0.9289  2.8320  2.6597
   75SLPC  H15C 6673   4.210   4.472   6.651  1.0435 -1.3697 -1.6588
   75SLPC   C12 6674   4.447   4.505   6.477  0.5185 -0.1605  0.3718
   75SLPC  H12A 6675   4.548   4.470   6.466  0.4160 -0.7655  1.2571
   75SLPC  H12B 6676   4.442   4.601   6.428 -0.6933 -1.4541 -2.2861
   75SLPC   C11 6677   4.346   4.417   6.391  0.4210  0.0939  0.4115
   75SLPC  H11A 6678   4.364   4.442   6.285  1.8192  0.8187  0.7934
   75SLPC  H11B 6679   4.240   4.442   6.408 -0.3648 -2.1154 -0.8882
   75SLPC     P 6680   4.498   4.202   6.374  0.5649 -0.6217  0.2710
   75SLPC   O13 6681   4.611   4.277   6.435  0.0548  0.5937 -0.3149
   75SLPC   O14 6682   4.491   4.061   6.406  0.6550  0.5781 -0.0903
   75SLPC   O12 6683   4.363   4.278   6.415  0.1219 -0.3840 -0.1565
   75SLPC   O11 6684   4.503   4.200   6.215 -0.4508 -0.0692  0.1703
   75SLPC    C1 6685   4.571   4.310   6.142 -0.4153  0.7081 -0.5823
   75SLPC    HA 6686   4.501   4.386   6.102  1.7210  2.8194 -0.5391
   75SLPC    HB 6687   4.644   4.372   6.200 -0.4446 -0.5237  0.8298
   75SLPC    C2 6688   4.655   4.245   6.025  0.7876  0.3084 -0.4523
   75SLPC    HS 6689   4.706   4.332   5.979  1.4002  1.0089  1.4786
   75SLPC   O21 6690   4.572   4.174   5.929 -0.7681  0.6643 -0.0063
   75SLPC   C21 6691   4.490   4.246   5.861  0.1994  0.0300  0.3970
   75SLPC   O22 6692   4.470   4.363   5.865  0.1659 -0.3064  0.7120
   75SLPC   C22 6693   4.424   4.154   5.759 -0.2746 -0.0441  0.8893
   75SLPC   H2R 6694   4.500   4.082   5.722 -1.2747 -0.8667  0.3849
   75SLPC   H2S 6695   4.343   4.104   5.816 -2.3982  1.2226 -0.8290
   75SLPC    C3 6696   4.772   4.155   6.080  0.5609 -0.8768  0.1036
   75SLPC    HX 6697   4.734   4.061   6.126  1.7730 -0.5989  1.7734
   75SLPC    HY 6698   4.803   4.213   6.169 -0.1835 -0.0956 -0.1349
   75SLPC   O31 6699   4.889   4.148   5.986  0.2707 -0.6228 -0.2501
   75SLPC   C31 6700   4.877   4.043   5.896 -0.2150  0.1124 -0.1253
   75SLPC   O32 6701   4.782   3.969   5.892  0.5408 -0.3197  0.1240
   75SLPC   C32 6702   5.003   4.035   5.807 -0.4315 -0.0154  0.3220
   75SLPC   H2X 6703   5.067   3.961   5.859 -1.8708  0.1766  2.4898
   75SLPC   H2Y 6704   5.053   4.134   5.815 -0.6272 -0.0385  2.4765
   75SLPC   C23 6705   4.341   4.223   5.644 -0.8563  0.2501 -0.4000
   75SLPC   H3R 6706   4.400   4.308   5.605  2.2557 -1.9365 -0.8537
   75SLPC   H3S 6707   4.244   4.255   5.687 -0.6463 -0.0536  0.3197
   75SLPC   C24 6708   4.301   4.127   5.532 -0.0597  0.2451  0.7691
   75SLPC   H4R 6709   4.235   4.172   5.454  0.6034 -1.3361 -0.7709
   75SLPC   H4S 6710   4.239   4.044   5.572 -0.5933  0.7334  0.9765
   75SLPC   C25 6711   4.426   4.077   5.453  0.2983  0.1173 -0.6112
   75SLPC   H5R 6712   4.479   4.010   5.524  0.7113  0.5481 -0.5139
   75SLPC   H5S 6713   4.484   4.168   5.428 -2.6594  1.8775 -1.5797
   75SLPC   C26 6714   4.376   3.998   5.332  0.2005  0.7608  0.3586
   75SLPC   H6R 6715   4.330   4.069   5.259 -0.6067  1.5530  1.5926
   75SLPC   H6S 6716   4.293   3.930   5.361  0.4686  1.1442  2.1085
   75SLPC   C27 6717   4.490   3.915   5.260 -0.7880  0.6769 -0.1786
   75SLPC   H7R 6718   4.513   3.835   5.333 -2.1928 -0.6104 -1.0837
   75SLPC   H7S 6719   4.587   3.965   5.239 -1.9508  2.8965 -0.6623
   75SLPC   C28 6720   4.463   3.847   5.120 -1.3449  0.1094  0.3141
   75SLPC   H8R 6721   4.557   3.814   5.071 -1.4397 -1.9850  1.4140
   75SLPC   H8S 6722   4.414   3.929   5.065 -2.6193 -0.1156  1.0741
   75SLPC   C29 6723   4.378   3.725   5.136 -0.3840 -0.8356 -0.3610
   75SLPC   H9R 6724   4.430   3.643   5.187  0.4627 -0.5040 -0.6740
   75SLPC  C210 6725   4.255   3.710   5.091 -0.2120  0.5946 -0.5918
   75SLPC  H10R 6726   4.210   3.615   5.122  0.7500  1.1173  2.8498
   75SLPC  C211 6727   4.164   3.817   5.038  0.1859 -0.2904 -0.2566
   75SLPC  H11R 6728   4.186   3.825   4.929 -1.2649 -1.2170 -0.6476
   75SLPC  H11S 6729   4.190   3.910   5.094  0.6339  0.8197 -2.2133
   75SLPC  C212 6730   4.023   3.785   5.060  0.1487  0.0563  1.3224
   75SLPC  H12R 6731   3.987   3.754   5.159  0.0747 -1.2688  0.8944
   75SLPC  C213 6732   3.943   3.747   4.953  0.3092  0.1352 -0.9026
   75SLPC  H13R 6733   3.840   3.715   4.972  0.5404  0.5957  1.6098
   75SLPC  C214 6734   3.976   3.764   4.810 -0.1971 -0.4747  0.1525
   75SLPC  H14R 6735   4.070   3.710   4.787  0.5731  0.2199  1.5412
   75SLPC  H14S 6736   3.971   3.873   4.787  0.2460 -0.3991  0.4119
   75SLPC  C215 6737   3.877   3.684   4.727 -0.3017  0.2560  0.4706
   75SLPC  H15R 6738   3.776   3.731   4.728 -2.5332 -3.9419 -1.3162
   75SLPC  H15S 6739   3.864   3.583   4.771 -3.4447  0.6472  0.6727
   75SLPC  C216 6740   3.925   3.676   4.582  0.7954  0.1806 -0.2441
   75SLPC  H16R 6741   4.025   3.628   4.568  2.1229  1.9264  2.4841
   75SLPC  H16S 6742   3.942   3.776   4.537 -1.3616  0.1982 -1.1392
   75SLPC  C217 6743   3.824   3.593   4.495  0.4849  0.3845  0.3904
   75SLPC  H17R 6744   3.727   3.645   4.508  0.1187 -0.7091  2.4909
   75SLPC  H17S 6745   3.824   3.491   4.537  2.5280  0.8985  1.8011
   75SLPC  C218 6746   3.859   3.612   4.344 -0.0504  0.8500 -0.4634
   75SLPC  H18R 6747   3.822   3.705   4.296 -0.5573  0.2612 -1.2413
   75SLPC  H18S 6748   3.802   3.540   4.281  1.7408 -0.1911 -1.0069
   75SLPC  H18T 6749   3.965   3.583   4.326 -0.8204 -2.1012 -0.8284
   75SLPC   C33 6750   4.985   4.007   5.658  0.7858 -0.7786 -0.5574
   75SLPC   H3X 6751   4.923   3.916   5.648  0.0592 -0.4593  0.8122
   75SLPC   H3Y 6752   5.079   3.993   5.599  1.7091 -2.6545  1.2241
   75SLPC   C34 6753   4.898   4.118   5.596  0.4009 -0.5337  0.0969
   75SLPC   H4X 6754   4.954   4.215   5.600 -0.7460  0.2194 -1.1758
   75SLPC   H4Y 6755   4.813   4.142   5.663  1.5005  0.7603  1.1067
   75SLPC   C35 6756   4.844   4.094   5.455 -0.1786 -0.0026 -0.0460
   75SLPC   H5X 6757   4.759   4.161   5.432 -0.9734 -1.1621 -0.5704
   75SLPC   H5Y 6758   4.801   3.992   5.449  1.5406 -0.7483 -0.2162
   75SLPC   C36 6759   4.959   4.088   5.349 -0.4349 -0.5585  0.3255
   75SLPC   H6X 6760   5.039   4.016   5.376 -0.4269 -0.9768 -0.7671
   75SLPC   H6Y 6761   5.011   4.185   5.334 -2.2846  0.2087 -1.6180
   75SLPC   C37 6762   4.920   4.035   5.207  0.0932  0.1398  0.3653
   75SLPC   H7X 6763   4.871   4.118   5.153 -1.9249 -1.8877 -1.1184
   75SLPC   H7Y 6764   4.842   3.958   5.225 -1.3271  1.7733  1.4546
   75SLPC   C38 6765   5.047   3.993   5.119  0.2344  0.7228  0.3314
   75SLPC   H8X 6766   5.077   3.898   5.168  3.3847  0.5785 -1.5763
   75SLPC   H8Y 6767   5.132   4.064   5.130  0.7591  0.2126 -0.2956
   75SLPC   C39 6768   5.015   3.964   4.975  0.5716  0.5890  0.6091
   75SLPC   H9X 6769   4.989   4.058   4.922 -2.2795 -1.2310 -1.5408
   75SLPC   H9Y 6770   4.914   3.919   4.971 -0.3119  1.8567  4.3299
   75SLPC  C310 6771   5.125   3.887   4.907  0.0022 -0.0424 -0.3349
   75SLPC  H10X 6772   5.136   3.786   4.954 -1.3959  0.2187  0.6052
   75SLPC  H10Y 6773   5.225   3.933   4.897 -0.3084  0.2471 -2.8803
   75SLPC  C311 6774   5.090   3.861   4.758  0.2926  0.0033 -0.2536
   75SLPC  H11X 6775   5.081   3.960   4.710 -1.4752 -1.1891 -2.5559
   75SLPC  H11Y 6776   4.994   3.809   4.739 -0.4927  2.1333 -2.5884
   75SLPC  C312 6777   5.218   3.802   4.678  0.2302 -0.1900  0.2606
   75SLPC  H12X 6778   5.226   3.699   4.719  0.2436 -0.2135  0.1973
   75SLPC  H12Y 6779   5.318   3.850   4.691  0.5223 -0.5043 -0.7751
   75SLPC  C313 6780   5.188   3.805   4.531  0.4122 -0.0982 -0.0722
   75SLPC  H13X 6781   5.167   3.907   4.493 -0.9784 -0.4723 -0.3699
   75SLPC  H13Y 6782   5.089   3.759   4.512 -0.4094  0.9292  1.5473
   75SLPC  C314 6783   5.286   3.733   4.434 -0.4065 -0.2267 -0.0901
   75SLPC  H14X 6784   5.300   3.638   4.489  0.8670 -0.7778 -1.3038
   75SLPC  H14Y 6785   5.383   3.787   4.425  0.6816 -1.8403  1.3817
   75SLPC  C315 6786   5.249   3.720   4.284 -0.0213  0.3795  0.5920
   75SLPC  H15X 6787   5.329   3.662   4.233  1.2705  2.4696  0.0715
   75SLPC  H15Y 6788   5.254   3.816   4.227 -0.3687 -1.8460 -3.5463
   75SLPC  C316 6789   5.122   3.646   4.268  0.1614  0.2299 -0.1719
   75SLPC  H16X 6790   5.035   3.702   4.308 -0.1235  1.4845 -2.3795
   75SLPC  H16Y 6791   5.127   3.551   4.326 -0.7475  0.5713  0.4930
   75SLPC  C317 6792   5.091   3.623   4.124 -0.5021 -0.5693  1.1407
   75SLPC  H17X 6793   5.168   3.563   4.073 -0.0583  0.6775  0.2828
   75SLPC  H17Y 6794   5.088   3.722   4.074 -2.7384 -0.9988  0.2873
   75SLPC  C318 6795   4.949   3.563   4.112  0.0277 -0.2424 -0.0417
   75SLPC  H18X 6796   4.942   3.456   4.144 -0.4697 -0.0995  0.3480
   75SLPC  H18Y 6797   4.900   3.559   4.012  2.1117 -1.9445 -1.0683
   75SLPC  H18Z 6798   4.878   3.618   4.178 -0.8765 -0.7746 -0.5465
   76SLPC     N 6799   6.735   6.716   6.691  0.2908 -0.2185 -0.3718
   76SLPC   C13 6800   6.641   6.626   6.618 -0.8154 -0.0715 -0.4313
   76SLPC  H13A 6801   6.585   6.680   6.543 -1.9799  0.1681  0.5733
   76SLPC  H13B 6802   6.686   6.537   6.576 -1.6018 -0.2260 -0.9670
   76SLPC  H13C 6803   6.565   6.584   6.683  0.1457 -2.0230 -0.4804
   76SLPC   C14 6804   6.664   6.794   6.794 -0.1466 -0.2467 -0.0608
   76SLPC  H14A 6805   6.592   6.733   6.847 -0.6957  1.8942  1.8123
   76SLPC  H14B 6806   6.735   6.839   6.861 -0.3476  2.1943 -1.3660
   76SLPC  H14C 6807   6.604   6.873   6.751  1.8257  1.4495  0.1590
   76SLPC   C15 6808   6.796   6.807   6.595  0.1543 -0.0038 -0.1132
   76SLPC  H15A 6809   6.844   6.765   6.508  0.2552  1.2291 -0.6709
   76SLPC  H15B 6810   6.719   6.872   6.555 -1.5956 -0.3877  2.4215
   76SLPC  H15C 6811   6.879   6.865   6.633 -1.2556  2.2943 -0.3953
   76SLPC   C12 6812   6.842   6.628   6.757  0.2629  0.1919 -0.0870
   76SLPC  H12A 6813   6.800   6.573   6.841  1.7091  0.3112  0.7531
   76SLPC  H12B 6814   6.922   6.691   6.792 -1.7191  1.8400  1.7656
   76SLPC   C11 6815   6.924   6.533   6.665  0.3601 -0.5497 -0.3250
   76SLPC  H11A 6816   7.007   6.499   6.730 -0.1940  0.2643  0.8275
   76SLPC  H11B 6817   6.971   6.584   6.579 -0.6631  0.7471 -0.1392
   76SLPC     P 6818   6.917   6.300   6.533  0.1326 -0.2947 -0.1051
   76SLPC   O13 6819   7.058   6.334   6.501 -0.6702 -0.3687  0.1272
   76SLPC   O14 6820   6.887   6.171   6.605  0.5226 -0.5599  0.0493
   76SLPC   O12 6821   6.853   6.414   6.629 -0.4821  0.2198  0.2657
   76SLPC   O11 6822   6.828   6.310   6.402  0.2478 -0.1608  0.0932
   76SLPC    C1 6823   6.839   6.419   6.316 -0.2662 -0.2168 -0.1495
   76SLPC    HA 6824   6.892   6.505   6.362 -0.9530  1.2247 -1.9183
   76SLPC    HB 6825   6.906   6.393   6.231  0.9908  0.2281  0.6822
   76SLPC    C2 6826   6.695   6.460   6.271  0.1965 -0.6049  0.8847
   76SLPC    HS 6827   6.625   6.469   6.357  0.5598  2.7265  0.9862
   76SLPC   O21 6828   6.654   6.350   6.187 -0.1773  0.7990  0.1076
   76SLPC   C21 6829   6.528   6.306   6.182 -0.5289  0.6410 -0.2145
   76SLPC   O22 6830   6.434   6.346   6.247 -0.6394  0.4215 -0.3187
   76SLPC   C22 6831   6.530   6.191   6.075  0.1084  0.6977 -0.2808
   76SLPC   H2R 6832   6.554   6.240   5.977 -0.0454 -0.5829 -0.9817
   76SLPC   H2S 6833   6.599   6.112   6.110  0.2260  1.7534  1.9894
   76SLPC    C3 6834   6.681   6.588   6.185  0.0154  0.7412 -0.7286
   76SLPC    HX 6835   6.780   6.582   6.135  1.1407  0.7292  1.3961
   76SLPC    HY 6836   6.682   6.684   6.241 -0.7566 -0.1259  0.8541
   76SLPC   O31 6837   6.575   6.584   6.088 -0.2272  0.4801 -0.1501
   76SLPC   C31 6838   6.460   6.613   6.146 -0.1260 -0.4769  0.1636
   76SLPC   O32 6839   6.446   6.651   6.263 -1.1494 -0.0766 -0.0023
   76SLPC   C32 6840   6.344   6.585   6.054  0.3853  0.0135 -0.2193
   76SLPC   H2X 6841   6.254   6.596   6.117  1.6382 -0.0441  1.6534
   76SLPC   H2Y 6842   6.355   6.481   6.015 -0.5315 -0.5164  0.8566
   76SLPC   C23 6843   6.389   6.125   6.055  0.0235  0.9131  0.0202
   76SLPC   H3R 6844   6.328   6.201   6.002 -1.2610 -0.6091 -0.7801
   76SLPC   H3S 6845   6.337   6.102   6.151  0.5576 -1.8270 -0.2477
   76SLPC   C24 6846   6.388   6.002   5.968  0.0555  0.4601 -0.4675
   76SLPC   H4R 6847   6.284   5.965   5.956  0.0869  0.1980  0.0496
   76SLPC   H4S 6848   6.443   5.920   6.019 -0.9875 -1.1127 -1.7389
   76SLPC   C25 6849   6.446   6.014   5.826  0.5211 -0.3484  0.4542
   76SLPC   H5R 6850   6.426   5.917   5.777 -1.6770  0.3188 -0.0895
   76SLPC   H5S 6851   6.555   6.033   5.836  0.3669  0.6672  0.3256
   76SLPC   C26 6852   6.385   6.127   5.741 -0.1143 -0.2795  0.1719
   76SLPC   H6R 6853   6.394   6.224   5.794  0.1756  0.0284 -0.4349
   76SLPC   H6S 6854   6.277   6.112   5.722  0.0637 -1.0166 -0.3158
   76SLPC   C27 6855   6.462   6.158   5.613 -0.2311  0.2611  0.2099
   76SLPC   H7R 6856   6.460   6.072   5.543 -0.5685  0.4422 -0.0033
   76SLPC   H7S 6857   6.564   6.178   5.652 -0.9644  1.0026  1.8216
   76SLPC   C28 6858   6.422   6.286   5.544  0.0812 -0.5921 -0.0883
   76SLPC   H8R 6859   6.508   6.308   5.478  1.9165 -0.3156  2.2780
   76SLPC   H8S 6860   6.415   6.372   5.613 -1.7873 -0.8065  0.0432
   76SLPC   C29 6861   6.294   6.268   5.469  0.6665  0.6094 -0.0374
   76SLPC   H9R 6862   6.210   6.291   5.536  0.8142 -1.0387  0.7781
   76SLPC  C210 6863   6.277   6.233   5.349  0.5988 -0.3229 -0.4695
   76SLPC  H10R 6864   6.176   6.210   5.311  0.2212 -1.2045  0.9626
   76SLPC  C211 6865   6.392   6.196   5.257  0.4508 -0.6794 -0.1652
   76SLPC  H11R 6866   6.345   6.150   5.168 -1.5174  2.7196 -1.0748
   76SLPC  H11S 6867   6.460   6.124   5.306  1.3155  0.2756  0.0615
   76SLPC  C212 6868   6.479   6.311   5.206  0.2156 -0.1561  0.5702
   76SLPC  H12R 6869   6.490   6.396   5.275 -0.0184  1.3517 -1.1870
   76SLPC  C213 6870   6.527   6.313   5.080  1.0130  0.4140 -0.5823
   76SLPC  H13R 6871   6.585   6.403   5.054  1.3618  0.1744 -0.6263
   76SLPC  C214 6872   6.508   6.221   4.961 -0.7684  0.4991  0.3776
   76SLPC  H14R 6873   6.530   6.114   4.986 -1.0038  0.1499 -0.8261
   76SLPC  H14S 6874   6.595   6.235   4.892  1.0332 -2.7117  1.7351
   76SLPC  C215 6875   6.373   6.218   4.886  0.0135  0.3109  0.1833
   76SLPC  H15R 6876   6.294   6.165   4.944 -1.2441  0.6536 -1.1345
   76SLPC  H15S 6877   6.376   6.161   4.790  0.6134  2.3831 -1.0791
   76SLPC  C216 6878   6.318   6.358   4.850 -0.3996  0.9098 -0.0314
   76SLPC  H16R 6879   6.402   6.431   4.851  0.0144  0.4834  1.8587
   76SLPC  H16S 6880   6.249   6.390   4.931  0.0677  1.1855  0.2666
   76SLPC  C217 6881   6.230   6.356   4.726  0.4619 -0.3948 -0.3784
   76SLPC  H17R 6882   6.284   6.297   4.649  1.1281  0.8918 -0.9151
   76SLPC  H17S 6883   6.212   6.456   4.683  0.0215 -1.2072 -2.1983
   76SLPC  C218 6884   6.088   6.308   4.751 -0.3733  0.3994 -0.1364
   76SLPC  H18R 6885   6.026   6.325   4.660 -0.1447  0.3162 -0.3094
   76SLPC  H18S 6886   6.033   6.361   4.831  0.5312  0.4345  0.4803
   76SLPC  H18T 6887   6.104   6.206   4.790  0.3343  0.8026  0.6569
   76SLPC   C33 6888   6.329   6.694   5.949  0.0410 -0.1610  0.6303
   76SLPC   H3X 6889   6.423   6.705   5.890  0.1953  1.9832  1.1621
   76SLPC   H3Y 6890   6.309   6.789   6.004 -1.7461 -0.5170  0.6676
   76SLPC   C34 6891   6.218   6.689   5.840 -0.3232 -0.0037  0.1002
   76SLPC   H4X 6892   6.118   6.666   5.884 -0.3317 -0.0793  0.0429
   76SLPC   H4Y 6893   6.236   6.597   5.781 -1.4274  0.4106 -0.9218
   76SLPC   C35 6894   6.229   6.820   5.756  0.5808  0.7168 -0.3381
   76SLPC   H5X 6895   6.322   6.801   5.699  0.3890 -0.2381 -0.3596
   76SLPC   H5Y 6896   6.232   6.906   5.826 -1.7286 -0.1681  0.9778
   76SLPC   C36 6897   6.119   6.839   5.657  0.1568  0.4176  0.9293
   76SLPC   H6X 6898   6.149   6.927   5.596 -1.9083 -0.1680 -1.0861
   76SLPC   H6Y 6899   6.032   6.861   5.722 -0.7082 -0.5326  0.1369
   76SLPC   C37 6900   6.078   6.725   5.569  0.3722  0.3730  0.5236
   76SLPC   H7X 6901   6.051   6.638   5.632 -1.1324  1.2064  1.0638
   76SLPC   H7Y 6902   6.153   6.680   5.501  1.5071  1.6416  0.8841
   76SLPC   C38 6903   5.956   6.774   5.485 -0.6978 -0.1670 -0.5680
   76SLPC   H8X 6904   5.959   6.884   5.470 -1.1797 -0.1290 -0.3876
   76SLPC   H8Y 6905   5.859   6.742   5.528 -2.0498  1.1697 -2.4484
   76SLPC   C39 6906   5.966   6.718   5.344 -0.3315  0.3766  0.7010
   76SLPC   H9X 6907   5.943   6.610   5.334 -3.2212  1.0937 -2.1256
   76SLPC   H9Y 6908   6.067   6.740   5.301  0.6892 -0.3336  2.6518
   76SLPC  C310 6909   5.869   6.793   5.256 -0.8210 -0.3313 -0.3320
   76SLPC  H10X 6910   5.867   6.900   5.288 -0.7853  0.1332 -1.8181
   76SLPC  H10Y 6911   5.770   6.749   5.284 -0.6060 -1.0589 -0.6984
   76SLPC  C311 6912   5.906   6.791   5.102  0.2163  0.1259  0.6614
   76SLPC  H11X 6913   6.015   6.789   5.083  0.1807  0.5139  0.3960
   76SLPC  H11Y 6914   5.862   6.876   5.044 -0.1908 -1.0862 -0.8776
   76SLPC  C312 6915   5.842   6.674   5.031  0.5527  0.9743 -0.3737
   76SLPC  H12X 6916   5.732   6.690   5.043  0.1646  0.2797 -2.6391
   76SLPC  H12Y 6917   5.879   6.582   5.082 -0.5456  0.4264 -0.5343
   76SLPC  C313 6918   5.881   6.667   4.883 -0.3582  0.2672  0.2152
   76SLPC  H13X 6919   5.989   6.642   4.885 -0.8653 -2.3652 -0.9828
   76SLPC  H13Y 6920   5.875   6.768   4.837  0.5558 -0.3779 -1.4144
   76SLPC  C314 6921   5.809   6.563   4.803 -0.3672 -0.1567 -0.1799
   76SLPC  H14X 6922   5.701   6.576   4.829  0.2235  1.1081  1.8988
   76SLPC  H14Y 6923   5.834   6.456   4.819 -1.5005 -0.3372  0.4916
   76SLPC  C315 6924   5.821   6.595   4.651 -0.5661  0.4986 -0.4968
   76SLPC  H15X 6925   5.928   6.598   4.620  0.2322  0.1023  1.9961
   76SLPC  H15Y 6926   5.787   6.698   4.626  0.6356  1.3620  1.2182
   76SLPC  C316 6927   5.742   6.504   4.557 -1.0684  0.0405  0.4507
   76SLPC  H16X 6928   5.775   6.401   4.580 -3.3270 -1.3885 -2.0910
   76SLPC  H16Y 6929   5.770   6.534   4.453  2.2518  1.1572  1.5420
   76SLPC  C317 6930   5.592   6.509   4.573  0.0813 -0.0368 -0.0555
   76SLPC  H17X 6931   5.555   6.611   4.554 -1.2766 -0.6186 -0.6842
   76SLPC  H17Y 6932   5.557   6.473   4.672  0.0832 -1.1219 -0.4252
   76SLPC  C318 6933   5.536   6.410   4.471 -0.2821  0.2473  0.4883
   76SLPC  H18X 6934   5.560   6.452   4.371  1.2811  0.2877  0.8446
   76SLPC  H18Y 6935   5.426   6.406   4.463 -0.2857  2.5115 -1.7634
   76SLPC  H18Z 6936   5.579   6.307   4.471 -0.4933  0.1596  0.4521
   77SLPC     N 6937   5.413   5.008   6.724  0.4279  0.2603  0.3568
   77SLPC   C13 6938   5.333   4.984   6.847 -0.3283  0.7003  0.4979
   77SLPC  H13A 6939   5.290   5.075   6.886 -1.0622  0.3276  0.5848
   77SLPC  H13B 6940   5.255   4.912   6.826 -2.1763  3.0014 -1.0195
   77SLPC  H13C 6941   5.397   4.940   6.922 -0.2428 -0.4517 -0.2291
   77SLPC   C14 6942   5.479   4.870   6.689  0.2823  0.1240  0.1949
   77SLPC  H14A 6943   5.541   4.837   6.771 -0.6862  0.9773  1.3085
   77SLPC  H14B 6944   5.408   4.789   6.678 -0.9737  1.0261  1.3676
   77SLPC  H14C 6945   5.541   4.875   6.601  0.5190  0.6544  0.3897
   77SLPC   C15 6946   5.528   5.095   6.748 -0.6688 -0.2870 -0.5354
   77SLPC  H15A 6947   5.510   5.201   6.741 -0.0867 -0.1557 -0.1271
   77SLPC  H15B 6948   5.559   5.081   6.851 -2.1726  1.9696  0.3008
   77SLPC  H15C 6949   5.612   5.088   6.681  0.8063 -1.1053  1.3031
   77SLPC   C12 6950   5.333   5.058   6.610  0.2646  0.4454 -0.7330
   77SLPC  H12A 6951   5.405   5.093   6.537  2.4985 -0.3973  0.9466
   77SLPC  H12B 6952   5.285   5.148   6.645 -0.1916 -0.7783  2.0677
   77SLPC   C11 6953   5.237   4.965   6.534 -0.4010  0.0363 -0.1442
   77SLPC  H11A 6954   5.303   4.878   6.511 -0.1127 -0.2028  1.4671
   77SLPC  H11B 6955   5.197   5.014   6.442  0.0871  2.0468  0.6643
   77SLPC     P 6956   5.062   4.807   6.640  0.1740  0.1685  0.0629
   77SLPC   O13 6957   5.143   4.734   6.744  0.0380  0.4083 -0.0356
   77SLPC   O14 6958   4.914   4.820   6.663 -0.3049  0.0728 -0.0314
   77SLPC   O12 6959   5.126   4.948   6.620 -0.2074  0.2411 -0.4008
   77SLPC   O11 6960   5.088   4.731   6.507 -0.1468  0.7383 -0.0846
   77SLPC    C1 6961   5.011   4.745   6.388  0.2909  0.1148 -0.0939
   77SLPC    HA 6962   4.914   4.790   6.417 -1.5705 -2.0844 -2.4202
   77SLPC    HB 6963   5.066   4.810   6.317  0.1141  1.6423  1.1313
   77SLPC    C2 6964   4.979   4.601   6.332 -0.1768  0.2514  0.6417
   77SLPC    HS 6965   4.937   4.540   6.415 -0.5624 -1.7566 -0.9487
   77SLPC   O21 6966   5.104   4.547   6.299 -0.0145  0.0255  0.5275
   77SLPC   C21 6967   5.102   4.417   6.256 -0.4917 -0.5384 -0.5573
   77SLPC   O22 6968   5.013   4.342   6.279 -0.0663  0.0893  0.3439
   77SLPC   C22 6969   5.223   4.388   6.173  0.2233  0.0992 -0.7745
   77SLPC   H2R 6970   5.261   4.485   6.135  1.0665  0.2793  0.4746
   77SLPC   H2S 6971   5.300   4.353   6.245 -0.4128  1.2379  0.5132
   77SLPC    C3 6972   4.886   4.612   6.200 -0.3293  0.2897 -0.4551
   77SLPC    HX 6973   4.821   4.699   6.222  0.6107  0.3604  2.4175
   77SLPC    HY 6974   4.833   4.514   6.190 -0.1117  0.3912 -3.2395
   77SLPC   O31 6975   4.959   4.625   6.079  0.2032 -0.0778 -0.1665
   77SLPC   C31 6976   4.886   4.606   5.969  0.6900  0.2175 -0.3386
   77SLPC   O32 6977   4.766   4.588   5.968  0.0245 -0.0113  0.4449
   77SLPC   C32 6978   4.970   4.607   5.847 -0.2167  0.0197  1.1364
   77SLPC   H2X 6979   5.057   4.541   5.867 -0.6715 -0.6788  0.8480
   77SLPC   H2Y 6980   5.001   4.708   5.815 -3.2986 -0.1525 -3.3380
   77SLPC   C23 6981   5.183   4.303   6.053  0.3554  0.0587 -0.5329
   77SLPC   H3R 6982   5.096   4.341   5.995 -1.2085 -0.6936  1.2471
   77SLPC   H3S 6983   5.155   4.202   6.091  1.5172 -0.9029 -2.0726
   77SLPC   C24 6984   5.301   4.268   5.955 -0.1299 -0.3713  0.0287
   77SLPC   H4R 6985   5.259   4.179   5.903 -0.1716 -1.2783  1.5736
   77SLPC   H4S 6986   5.399   4.236   5.996  0.7137  1.3898 -0.4856
   77SLPC   C25 6987   5.331   4.386   5.859 -0.2802  0.4011 -0.0194
   77SLPC   H5R 6988   5.379   4.469   5.915 -0.9685  2.0075 -1.7489
   77SLPC   H5S 6989   5.242   4.420   5.803 -0.3969 -0.1276 -0.1636
   77SLPC   C26 6990   5.436   4.343   5.752  0.9880 -1.0658 -0.5477
   77SLPC   H6R 6991   5.523   4.305   5.809  1.6965  0.5111 -0.5205
   77SLPC   H6S 6992   5.469   4.428   5.688 -0.4647 -1.1814 -1.4972
   77SLPC   C27 6993   5.399   4.236   5.654 -0.1332  0.3709 -0.4210
   77SLPC   H7R 6994   5.366   4.138   5.694  0.4835  0.6900  0.9123
   77SLPC   H7S 6995   5.486   4.206   5.592 -1.0526 -0.3057 -1.4145
   77SLPC   C28 6996   5.287   4.279   5.556  0.1131  0.4374  0.5180
   77SLPC   H8R 6997   5.298   4.386   5.530 -2.7031  1.2004  2.0233
   77SLPC   H8S 6998   5.191   4.278   5.612 -0.4575 -0.2416 -0.4435
   77SLPC   C29 6999   5.283   4.192   5.436  0.1586 -0.3276 -0.3045
   77SLPC   H9R 7000   5.224   4.100   5.451  2.6394 -2.7637 -3.9094
   77SLPC  C210 7001   5.352   4.204   5.324  0.8137 -0.0036  0.8588
   77SLPC  H10R 7002   5.342   4.127   5.246 -0.5791  0.4544  0.5470
   77SLPC  C211 7003   5.453   4.309   5.294  0.0141  0.0341  0.3595
   77SLPC  H11R 7004   5.431   4.396   5.359  0.0904 -0.8259  1.5634
   77SLPC  H11S 7005   5.443   4.342   5.188  0.8091 -0.7233  0.0273
   77SLPC  C212 7006   5.596   4.254   5.309 -0.3668  0.1355 -0.2457
   77SLPC  H12R 7007   5.621   4.243   5.415 -1.8296 -0.7827  0.0405
   77SLPC  C213 7008   5.675   4.201   5.210 -0.0078  0.2007 -0.2503
   77SLPC  H13R 7009   5.779   4.167   5.224 -0.6600 -1.3785  1.2539
   77SLPC  C214 7010   5.637   4.191   5.064  0.2112  0.8844 -0.2067
   77SLPC  H14R 7011   5.527   4.177   5.067  0.1964  1.0774  0.2530
   77SLPC  H14S 7012   5.678   4.095   5.026 -1.2093 -1.2713  3.2324
   77SLPC  C215 7013   5.658   4.318   4.970  0.5150  0.0235 -0.2917
   77SLPC  H15R 7014   5.767   4.323   4.950  0.5357 -1.2180 -0.5826
   77SLPC  H15S 7015   5.629   4.402   5.036 -1.8086 -2.7693  2.5827
   77SLPC  C216 7016   5.585   4.298   4.840 -0.0772  0.1580  0.5448
   77SLPC  H16R 7017   5.477   4.286   4.865 -0.4099  0.2597 -0.7726
   77SLPC  H16S 7018   5.616   4.213   4.775 -0.7802 -0.6743  1.2690
   77SLPC  C217 7019   5.580   4.435   4.780  0.4372  0.1177 -0.3946
   77SLPC  H17R 7020   5.682   4.479   4.776  0.9741 -1.1238 -1.2072
   77SLPC  H17S 7021   5.516   4.503   4.839  1.4346  1.4611 -0.8139
   77SLPC  C218 7022   5.545   4.446   4.631  0.6492  0.1471 -0.1970
   77SLPC  H18R 7023   5.637   4.427   4.572  2.0229  1.9702  1.2648
   77SLPC  H18S 7024   5.520   4.550   4.601 -2.0765 -0.7720 -1.4027
   77SLPC  H18T 7025   5.464   4.375   4.605  0.4769  0.1383  0.3639
   77SLPC   C33 7026   4.903   4.558   5.723  0.4076  0.0472 -0.1522
   77SLPC   H3X 7027   4.834   4.642   5.700  0.0241  0.6134  2.6966
   77SLPC   H3Y 7028   4.851   4.464   5.748  1.0894 -0.0495  0.9895
   77SLPC   C34 7029   5.000   4.537   5.613 -0.5172 -0.0343 -0.2597
   77SLPC   H4X 7030   5.052   4.444   5.647 -1.0227 -0.8230 -1.6069
   77SLPC   H4Y 7031   5.073   4.621   5.614  0.6655 -1.0193 -0.7087
   77SLPC   C35 7032   4.932   4.522   5.480  0.3758  0.6583  0.5361
   77SLPC   H5X 7033   4.860   4.604   5.459 -0.1404 -0.0861 -0.7626
   77SLPC   H5Y 7034   4.877   4.426   5.463  0.9140  0.4693 -0.1728
   77SLPC   C36 7035   5.036   4.513   5.368 -0.3360  0.8145 -1.5496
   77SLPC   H6X 7036   5.114   4.441   5.403 -0.8452  0.6909 -0.6470
   77SLPC   H6Y 7037   5.085   4.612   5.359 -0.7803  1.0326 -1.5787
   77SLPC   C37 7038   4.986   4.462   5.229 -0.0337  0.0343  0.4506
   77SLPC   H7X 7039   4.921   4.547   5.198  0.2602  0.1345  0.1139
   77SLPC   H7Y 7040   4.928   4.368   5.237 -3.3817  1.9251  0.6196
   77SLPC   C38 7041   5.110   4.445   5.140  0.7246 -0.7244  0.2846
   77SLPC   H8X 7042   5.186   4.379   5.186  0.3532 -0.8194  0.7735
   77SLPC   H8Y 7043   5.172   4.538   5.143  1.1647 -1.0371  1.7058
   77SLPC   C39 7044   5.077   4.400   5.002  0.0982 -0.5758 -0.0226
   77SLPC   H9X 7045   5.002   4.462   4.949  2.0378 -0.7042 -3.1896
   77SLPC   H9Y 7046   5.037   4.296   5.007 -0.1237 -0.4560  0.6754
   77SLPC  C310 7047   5.200   4.402   4.907 -0.1460 -0.7860 -0.3891
   77SLPC  H10X 7048   5.271   4.324   4.942  0.3335 -0.5999 -0.9246
   77SLPC  H10Y 7049   5.258   4.497   4.911 -2.4286  0.6543  1.3679
   77SLPC  C311 7050   5.174   4.381   4.759  0.3312  0.2395  1.2650
   77SLPC  H11X 7051   5.266   4.347   4.708  1.2406  3.2605  0.6740
   77SLPC  H11Y 7052   5.144   4.480   4.717  0.8812  0.7077  1.9512
   77SLPC  C312 7053   5.069   4.269   4.734  0.0845 -0.0563  1.4967
   77SLPC  H12X 7054   4.966   4.286   4.773  0.1534  0.7120  1.3512
   77SLPC  H12Y 7055   5.115   4.177   4.775  0.6422 -1.3027 -1.6381
   77SLPC  C313 7056   5.053   4.225   4.584  0.5224  0.1511 -0.1642
   77SLPC  H13X 7057   4.988   4.135   4.576  0.1930  0.3605  0.1225
   77SLPC  H13Y 7058   5.154   4.191   4.554  0.4420 -1.5573  1.3240
   77SLPC  C314 7059   5.024   4.338   4.482 -0.0745  0.2583  0.5652
   77SLPC  H14X 7060   5.063   4.303   4.384 -1.6393 -0.4052  0.1570
   77SLPC  H14Y 7061   5.102   4.414   4.506  1.0808  0.5279 -3.2618
   77SLPC  C315 7062   4.881   4.379   4.465  0.0015 -0.0549  0.0596
   77SLPC  H15X 7063   4.860   4.459   4.539  1.0506 -0.0284  0.3391
   77SLPC  H15Y 7064   4.828   4.282   4.481  0.8336 -0.7779 -1.3996
   77SLPC  C316 7065   4.831   4.424   4.332  0.3417 -0.5804 -0.6051
   77SLPC  H16X 7066   4.845   4.348   4.252 -2.1682 -0.6953 -1.0034
   77SLPC  H16Y 7067   4.895   4.506   4.294  2.1073 -2.2417 -1.4009
   77SLPC  C317 7068   4.684   4.474   4.331 -0.0709  0.0691 -0.1011
   77SLPC  H17X 7069   4.654   4.494   4.226 -1.0188 -1.6874 -0.1955
   77SLPC  H17Y 7070   4.672   4.571   4.384  0.8127 -1.0911  2.4134
   77SLPC  C318 7071   4.588   4.365   4.386  0.1205  0.0469  0.1823
   77SLPC  H18X 7072   4.615   4.273   4.329 -0.6450  0.4471 -0.8656
   77SLPC  H18Y 7073   4.479   4.373   4.368  0.2008 -1.7638 -1.3925
   77SLPC  H18Z 7074   4.606   4.349   4.494  1.2907  0.6651  0.0888
   78SLPC     N 7075   0.079   1.717   7.070  0.3227  0.5277 -0.0842
   78SLPC   C13 7076  -0.026   1.700   7.170  0.1429  0.3678  0.0882
   78SLPC  H13A 7077  -0.104   1.645   7.119  1.5121 -1.1934 -0.4144
   78SLPC  H13B 7078   0.014   1.643   7.252  1.1877 -0.4729 -0.9510
   78SLPC  H13C 7079  -0.059   1.792   7.214 -0.0695  0.1892  0.2973
   78SLPC   C14 7080   0.146   1.591   7.043  0.2505  0.3525  0.7946
   78SLPC  H14A 7081   0.228   1.594   6.973 -0.6201  0.5176 -0.2296
   78SLPC  H14B 7082   0.185   1.555   7.138  1.8705 -0.6123 -0.1838
   78SLPC  H14C 7083   0.067   1.524   7.011  0.1342  0.7257  0.3026
   78SLPC   C15 7084   0.182   1.812   7.115  0.6695 -0.4922 -0.5050
   78SLPC  H15A 7085   0.140   1.911   7.122  0.0474 -0.6103 -2.2777
   78SLPC  H15B 7086   0.213   1.789   7.216  1.1770  0.0943 -0.5241
   78SLPC  H15C 7087   0.271   1.817   7.055  0.7498 -1.2227 -0.4602
   78SLPC   C12 7088   0.006   1.757   6.940 -0.0491 -0.1175 -0.2526
   78SLPC  H12A 7089  -0.080   1.696   6.918 -1.4074  1.0448  1.5700
   78SLPC  H12B 7090   0.082   1.739   6.864  2.3382  0.7029  1.7908
   78SLPC   C11 7091  -0.036   1.906   6.920  0.4065  0.0564 -0.1168
   78SLPC  H11A 7092  -0.104   1.941   7.001  0.6011 -0.0270  0.0839
   78SLPC  H11B 7093  -0.092   1.914   6.825  3.1053  2.8375 -1.6695
   78SLPC     P 7094   0.065   2.149   6.907  0.0124 -0.1353 -0.2226
   78SLPC   O13 7095  -0.033   2.187   7.008  0.5833 -0.0474  0.1538
   78SLPC   O14 7096   0.195   2.221   6.926 -0.6061  0.2463 -0.5491
   78SLPC   O12 7097   0.080   1.989   6.917  0.3361 -0.0469  0.4424
   78SLPC   O11 7098   0.011   2.170   6.763 -0.5633 -0.2766 -0.2937
   78SLPC    C1 7099   0.078   2.113   6.646 -0.0928 -0.8698 -0.0910
   78SLPC    HA 7100   0.170   2.053   6.664  0.6061 -0.0027 -0.7244
   78SLPC    HB 7101   0.001   2.046   6.601 -2.5696  1.6056  0.2091
   78SLPC    C2 7102   0.120   2.219   6.552  0.9161  0.1063 -0.1036
   78SLPC    HS 7103   0.190   2.291   6.600 -0.9976  1.2467  1.1375
   78SLPC   O21 7104  -0.003   2.289   6.514 -0.6001 -0.0425 -0.0873
   78SLPC   C21 7105   0.015   2.403   6.442  0.7484  0.0727  0.3129
   78SLPC   O22 7106   0.122   2.460   6.422 -0.0329  0.7129 -0.4399
   78SLPC   C22 7107  -0.120   2.453   6.390  0.1804 -0.1050  0.2479
   78SLPC   H2R 7108  -0.196   2.444   6.471 -0.5085  1.0106 -0.2454
   78SLPC   H2S 7109  -0.107   2.560   6.361 -2.1638  0.0187 -0.5835
   78SLPC    C3 7110   0.191   2.153   6.430  0.0443  0.5840  0.2945
   78SLPC    HX 7111   0.280   2.100   6.470  0.7978  0.5414 -1.3724
   78SLPC    HY 7112   0.226   2.226   6.354  2.8567 -1.6448 -0.7403
   78SLPC   O31 7113   0.112   2.065   6.357  0.0929  0.0813  0.4738
   78SLPC   C31 7114   0.172   1.973   6.276 -0.3532 -0.2885  0.2765
   78SLPC   O32 7115   0.292   1.959   6.265  0.1478 -0.1005  0.4440
   78SLPC   C32 7116   0.069   1.888   6.211  0.2846 -0.2725  0.1697
   78SLPC   H2X 7117  -0.027   1.901   6.265  0.9350 -1.2568  1.6447
   78SLPC   H2Y 7118   0.098   1.781   6.221  1.3390 -0.1700 -1.4309
   78SLPC   C23 7119  -0.167   2.368   6.273 -0.6490  0.3528 -0.0697
   78SLPC   H3R 7120  -0.257   2.398   6.215 -2.2621 -1.6843  1.2466
   78SLPC   H3S 7121  -0.175   2.263   6.306  1.1614 -0.6101 -2.4240
   78SLPC   C24 7122  -0.062   2.370   6.163  0.2328 -0.3149 -0.0252
   78SLPC   H4R 7123   0.027   2.315   6.200  0.0134 -0.3170  0.5030
   78SLPC   H4S 7124  -0.042   2.478   6.149 -2.2274  0.4278  1.4498
   78SLPC   C25 7125  -0.105   2.291   6.035 -0.6332 -0.2106  0.0611
   78SLPC   H5R 7126  -0.199   2.326   5.987 -0.8573  0.0220  0.6679
   78SLPC   H5S 7127  -0.127   2.185   6.062  0.3052 -0.1606  1.0882
   78SLPC   C26 7128   0.014   2.281   5.935 -0.1141  0.6855  0.4212
   78SLPC   H6R 7129  -0.014   2.207   5.857 -0.1489  0.5359  0.5751
   78SLPC   H6S 7130   0.098   2.246   5.999 -0.1484  1.1281  0.7070
   78SLPC   C27 7131   0.029   2.415   5.867 -0.8470 -0.7344 -0.6664
   78SLPC   H7R 7132   0.078   2.489   5.933 -1.3182  0.3365 -1.4833
   78SLPC   H7S 7133  -0.061   2.457   5.816 -0.4420 -1.2372 -1.8355
   78SLPC   C28 7134   0.128   2.403   5.750 -0.1630 -0.2789  0.4090
   78SLPC   H8R 7135   0.133   2.499   5.694  0.1374 -1.2020 -1.1848
   78SLPC   H8S 7136   0.090   2.328   5.678 -2.2678  1.0885 -0.0049
   78SLPC   C29 7137   0.271   2.368   5.798 -0.2253 -0.4914 -0.0082
   78SLPC   H9R 7138   0.296   2.376   5.905  2.2646 -1.3580 -0.4696
   78SLPC  C210 7139   0.366   2.325   5.711  0.0598  0.4719 -0.4374
   78SLPC  H10R 7140   0.462   2.290   5.751 -0.0557 -0.6761 -1.1122
   78SLPC  C211 7141   0.351   2.304   5.564  0.5824  0.1651 -0.3494
   78SLPC  H11R 7142   0.268   2.234   5.537  0.7573 -1.3275  2.6019
   78SLPC  H11S 7143   0.441   2.243   5.543  0.7171 -0.8671  2.7593
   78SLPC  C212 7144   0.344   2.432   5.487  0.2594 -0.0967 -0.9416
   78SLPC  H12R 7145   0.306   2.515   5.547 -1.3460 -0.0577 -1.9746
   78SLPC  C213 7146   0.360   2.449   5.359  0.1000  0.5938  0.5821
   78SLPC  H13R 7147   0.346   2.549   5.316 -3.4421  0.5402  1.3093
   78SLPC  C214 7148   0.416   2.345   5.265 -0.1532  0.3405  0.0046
   78SLPC  H14R 7149   0.416   2.245   5.313 -0.2719 -0.4659 -1.5983
   78SLPC  H14S 7150   0.515   2.379   5.227  0.3566 -0.0660  0.9475
   78SLPC  C215 7151   0.341   2.329   5.128  0.1159  0.2742 -0.2199
   78SLPC  H15R 7152   0.235   2.301   5.145  0.3375 -0.9507 -0.7050
   78SLPC  H15S 7153   0.386   2.240   5.077 -2.1000 -2.4398  2.1814
   78SLPC  C216 7154   0.320   2.457   5.046 -0.4045 -0.1383 -0.4855
   78SLPC  H16R 7155   0.419   2.499   5.017 -0.3149 -1.6146 -2.5531
   78SLPC  H16S 7156   0.267   2.530   5.110  0.3477  1.4857 -1.6552
   78SLPC  C217 7157   0.249   2.439   4.915  0.2608 -0.5103  0.4251
   78SLPC  H17R 7158   0.200   2.536   4.889 -0.7107 -0.3932  2.4861
   78SLPC  H17S 7159   0.170   2.361   4.924 -0.2130 -0.2748 -1.3300
   78SLPC  C218 7160   0.340   2.396   4.792  0.5368  0.1120  0.0617
   78SLPC  H18R 7161   0.398   2.473   4.738  0.4727 -1.4494 -2.3583
   78SLPC  H18S 7162   0.284   2.352   4.707 -0.6632 -0.2068  0.9831
   78SLPC  H18T 7163   0.403   2.315   4.834 -0.7436 -0.5552  0.7967
   78SLPC   C33 7164   0.054   1.907   6.057 -1.0695  0.4313 -0.3813
   78SLPC   H3X 7165   0.017   2.010   6.036 -0.6566  0.7928  0.6048
   78SLPC   H3Y 7166  -0.026   1.837   6.026  0.8051 -0.5602 -3.3894
   78SLPC   C34 7167   0.171   1.871   5.966 -0.0483  0.7842 -0.0014
   78SLPC   H4X 7168   0.184   1.761   5.970  0.6745  0.8618 -0.1088
   78SLPC   H4Y 7169   0.263   1.922   6.001  2.4985 -2.2266 -1.7770
   78SLPC   C35 7170   0.143   1.914   5.827 -0.4351 -0.3518 -0.4680
   78SLPC   H5X 7171   0.150   2.025   5.836  1.6641 -0.3008 -2.0918
   78SLPC   H5Y 7172   0.038   1.889   5.802 -0.6998  2.9607 -3.5285
   78SLPC   C36 7173   0.244   1.842   5.736  0.1905  0.1020 -0.3527
   78SLPC   H6X 7174   0.242   1.731   5.735 -0.6309 -0.0219  2.8292
   78SLPC   H6Y 7175   0.345   1.867   5.775  1.8058 -0.3967 -3.8823
   78SLPC   C37 7176   0.237   1.908   5.598 -0.3067 -0.0527 -0.0214
   78SLPC   H7X 7177   0.260   2.016   5.611 -0.9800  0.0009  0.8025
   78SLPC   H7Y 7178   0.130   1.900   5.570 -0.2167 -0.8701 -0.1325
   78SLPC   C38 7179   0.338   1.846   5.496 -0.1123  0.2252 -0.4264
   78SLPC   H8X 7180   0.378   1.755   5.544  1.3392  0.9668 -0.1780
   78SLPC   H8Y 7181   0.424   1.915   5.506 -0.8931  0.9412  1.9332
   78SLPC   C39 7182   0.293   1.829   5.349  0.2409 -0.1340 -0.4640
   78SLPC   H9X 7183   0.374   1.783   5.288  0.1229 -2.7818  1.1991
   78SLPC   H9Y 7184   0.280   1.934   5.315  2.2734  0.3054 -0.0441
   78SLPC  C310 7185   0.167   1.738   5.338 -0.0861 -0.6767 -0.0654
   78SLPC  H10X 7186   0.081   1.803   5.367  0.1840 -0.7801  1.0005
   78SLPC  H10Y 7187   0.181   1.662   5.418  0.2798 -0.8703 -0.3154
   78SLPC  C311 7188   0.160   1.664   5.203  0.6744  0.0039  0.6091
   78SLPC  H11X 7189   0.261   1.618   5.192  1.1780  1.3095 -0.5284
   78SLPC  H11Y 7190   0.152   1.743   5.126 -1.7761 -0.2575  0.5415
   78SLPC  C312 7191   0.047   1.555   5.220 -0.4905 -0.1044 -0.1479
   78SLPC  H12X 7192  -0.041   1.597   5.273  0.3448  0.2844  0.9635
   78SLPC  H12Y 7193   0.089   1.485   5.295  0.2028 -1.7875 -1.9932
   78SLPC  C313 7194   0.001   1.490   5.081 -0.4632  0.1259 -0.7965
   78SLPC  H13X 7195  -0.090   1.434   5.113 -0.5165  0.9638  0.6173
   78SLPC  H13Y 7196   0.074   1.420   5.035 -0.6812 -1.3421  0.9559
   78SLPC  C314 7197  -0.053   1.591   4.987 -0.4179  0.0326  0.4397
   78SLPC  H14X 7198   0.025   1.666   4.962 -1.2786  0.7089 -0.2653
   78SLPC  H14Y 7199  -0.132   1.646   5.042  0.8405  1.0571  1.2587
   78SLPC  C315 7200  -0.111   1.525   4.859  0.3701  0.0897  0.0894
   78SLPC  H15X 7201  -0.197   1.465   4.895  0.1877  0.6766  0.6603
   78SLPC  H15Y 7202  -0.028   1.467   4.811  0.6067  1.5056 -1.3153
   78SLPC  C316 7203  -0.153   1.628   4.751  0.2256  0.2290  0.2845
   78SLPC  H16X 7204  -0.069   1.685   4.705  1.1422 -0.4295  1.0839
   78SLPC  H16Y 7205  -0.223   1.699   4.800  0.8506 -0.7923  2.8167
   78SLPC  C317 7206  -0.232   1.567   4.635 -0.0694 -0.4649  0.2615
   78SLPC  H17X 7207  -0.318   1.509   4.676  2.8188 -4.9241  0.7212
   78SLPC  H17Y 7208  -0.156   1.500   4.591 -0.2924  0.0626 -0.9812
   78SLPC  C318 7209  -0.284   1.666   4.522 -0.1437  0.3709  0.9318
   78SLPC  H18X 7210  -0.350   1.744   4.567 -1.1154 -1.1760  2.2984
   78SLPC  H18Y 7211  -0.335   1.597   4.451  1.0459 -1.5668  1.8830
   78SLPC  H18Z 7212  -0.201   1.705   4.459 -2.0772  1.4898 -1.0461
   79SLPC     N 7213   6.547   5.850   6.765  0.5407 -0.0297  0.4671
   79SLPC   C13 7214   6.696   5.854   6.766 -0.7917 -0.1814  0.0398
   79SLPC  H13A 7215   6.744   5.950   6.768  0.1008 -0.6185  0.2963
   79SLPC  H13B 7216   6.720   5.797   6.855  2.2192  1.1083  0.1616
   79SLPC  H13C 7217   6.741   5.812   6.677  2.9307  2.4414  0.4602
   79SLPC   C14 7218   6.501   5.945   6.870 -0.5081 -0.1948  0.0030
   79SLPC  H14A 7219   6.512   5.904   6.969  0.3906 -1.4818 -0.5971
   79SLPC  H14B 7220   6.539   6.046   6.869  0.9062 -0.6592  1.6963
   79SLPC  H14C 7221   6.396   5.966   6.859 -0.4306 -0.5060 -1.4914
   79SLPC   C15 7222   6.506   5.710   6.800 -0.3484 -0.2532  0.0110
   79SLPC  H15A 7223   6.400   5.707   6.820 -0.2730  0.2483  0.5222
   79SLPC  H15B 7224   6.520   5.643   6.716  0.5499 -0.6341  0.4498
   79SLPC  H15C 7225   6.551   5.669   6.889 -2.4745 -1.6877  0.4884
   79SLPC   C12 7226   6.478   5.885   6.630 -0.0508  0.0898 -1.1021
   79SLPC  H12A 7227   6.526   5.821   6.558 -1.7052 -2.0236 -0.4407
   79SLPC  H12B 7228   6.503   5.986   6.600  4.6887 -0.5220  0.0328
   79SLPC   C11 7229   6.322   5.867   6.619  0.7637  0.2810 -0.2557
   79SLPC  H11A 7230   6.289   5.769   6.658  1.2372  0.1875 -0.0942
   79SLPC  H11B 7231   6.293   5.894   6.515 -3.7576 -0.3455  0.6467
   79SLPC     P 7232   6.101   5.967   6.718 -0.2883  0.3966 -0.0825
   79SLPC   O13 7233   6.045   5.852   6.791 -0.4515 -0.2477  0.1739
   79SLPC   O14 7234   6.084   6.101   6.773  0.2742  0.7202 -0.0813
   79SLPC   O12 7235   6.258   5.963   6.709 -0.0885 -0.1154  0.0789
   79SLPC   O11 7236   6.049   5.961   6.568  0.3286  0.4171  0.1582
   79SLPC    C1 7237   5.956   5.862   6.519  0.4912  0.9412  0.1769
   79SLPC    HA 7238   5.983   5.763   6.561  1.8245  0.3809 -1.8547
   79SLPC    HB 7239   5.851   5.896   6.532  0.6644  0.8286  2.1609
   79SLPC    C2 7240   5.968   5.836   6.370 -0.0062 -0.1399 -0.4763
   79SLPC    HS 7241   5.880   5.777   6.336 -1.1047  1.2313 -0.0898
   79SLPC   O21 7242   6.093   5.778   6.347 -0.0084  0.0501 -0.2464
   79SLPC   C21 7243   6.093   5.650   6.310  0.4742 -0.8265  0.3892
   79SLPC   O22 7244   5.995   5.578   6.305  0.2271 -0.3007  0.8332
   79SLPC   C22 7245   6.229   5.614   6.263 -0.2193  0.0455  0.0698
   79SLPC   H2R 7246   6.305   5.695   6.275  0.0465 -0.0074 -1.1392
   79SLPC   H2S 7247   6.271   5.535   6.328  0.5148 -1.1528 -1.7974
   79SLPC    C3 7248   5.972   5.969   6.288  0.0981 -0.5657  0.1884
   79SLPC    HX 7249   6.065   6.028   6.307 -1.1305  1.7355 -0.5585
   79SLPC    HY 7250   5.886   6.031   6.321  0.4657  0.0223  0.0504
   79SLPC   O31 7251   5.958   5.948   6.147  0.3321 -0.2269 -0.0167
   79SLPC   C31 7252   5.833   5.930   6.100  0.1336  0.2122  0.2441
   79SLPC   O32 7253   5.731   5.949   6.161  0.9591 -0.0162 -0.2684
   79SLPC   C32 7254   5.843   5.877   5.957  0.0455  0.1825  0.5665
   79SLPC   H2X 7255   5.925   5.802   5.946 -0.0547  0.2942 -1.4119
   79SLPC   H2Y 7256   5.856   5.968   5.894 -4.5052  1.2363  0.7887
   79SLPC   C23 7257   6.228   5.543   6.119  0.3781 -0.3296 -0.3726
   79SLPC   H3R 7258   6.176   5.605   6.043 -0.2670 -2.9625 -2.2495
   79SLPC   H3S 7259   6.177   5.445   6.131 -0.7515  0.3308  0.3128
   79SLPC   C24 7260   6.372   5.520   6.071 -0.3460 -0.1403  0.0600
   79SLPC   H4R 7261   6.427   5.476   6.157 -0.4189  3.7318  2.3166
   79SLPC   H4S 7262   6.420   5.619   6.053  0.5980 -1.1167 -3.6445
   79SLPC   C25 7263   6.392   5.438   5.948 -0.6519  0.3360 -0.3756
   79SLPC   H5R 7264   6.338   5.342   5.963 -0.8241  0.2911 -1.2508
   79SLPC   H5S 7265   6.501   5.419   5.937 -0.2157  1.4079  1.5390
   79SLPC   C26 7266   6.330   5.509   5.820 -0.5292  0.2292 -0.0155
   79SLPC   H6R 7267   6.328   5.617   5.846 -0.2906 -0.0820  1.4072
   79SLPC   H6S 7268   6.224   5.475   5.821 -0.7336  0.7564 -1.6465
   79SLPC   C27 7269   6.396   5.465   5.692 -0.5124  1.1305 -0.4103
   79SLPC   H7R 7270   6.405   5.356   5.706 -1.9524  1.1570  0.9944
   79SLPC   H7S 7271   6.491   5.523   5.692  0.3056 -0.1424  0.6204
   79SLPC   C28 7272   6.305   5.495   5.571  0.2656 -0.7141  0.4095
   79SLPC   H8R 7273   6.201   5.456   5.584  0.3661 -1.8663 -1.8030
   79SLPC   H8S 7274   6.331   5.437   5.480 -0.1687 -0.6680  0.2547
   79SLPC   C29 7275   6.285   5.640   5.533 -0.4780  1.0050 -0.1005
   79SLPC   H9R 7276   6.198   5.682   5.586  0.1103  2.0650  0.0632
   79SLPC  C210 7277   6.347   5.711   5.432  0.1628  0.4765  0.2052
   79SLPC  H10R 7278   6.304   5.812   5.416 -1.2738  0.0755  1.3184
   79SLPC  C211 7279   6.450   5.668   5.332  0.4417 -0.4409  0.1846
   79SLPC  H11R 7280   6.397   5.645   5.237 -0.2638  0.4883  0.3497
   79SLPC  H11S 7281   6.501   5.570   5.348 -0.6070 -0.9710  0.3314
   79SLPC  C212 7282   6.554   5.769   5.309  0.1018 -0.4777 -0.0327
   79SLPC  H12R 7283   6.614   5.795   5.397 -0.1261  0.9000 -0.2681
   79SLPC  C213 7284   6.575   5.842   5.198 -0.7610 -0.1948  0.2387
   79SLPC  H13R 7285   6.656   5.917   5.198 -0.5299 -0.4445  0.3470
   79SLPC  C214 7286   6.515   5.828   5.058 -0.1383  0.4304  0.0730
   79SLPC  H14R 7287   6.459   5.923   5.044 -1.4633 -0.2170  0.7130
   79SLPC  H14S 7288   6.432   5.755   5.067  0.1224  0.3687  2.5238
   79SLPC  C215 7289   6.616   5.804   4.950  0.3956  0.6223  0.1559
   79SLPC  H15R 7290   6.693   5.730   4.980 -2.1523 -2.3776 -0.2104
   79SLPC  H15S 7291   6.671   5.900   4.939  1.2171  0.0875 -0.4940
   79SLPC  C216 7292   6.550   5.759   4.825  0.1268  0.4725  0.1117
   79SLPC  H16R 7293   6.509   5.659   4.848 -1.9122  0.9673 -1.0807
   79SLPC  H16S 7294   6.636   5.737   4.759 -0.1391 -1.2154  0.2995
   79SLPC  C217 7295   6.454   5.859   4.757  0.6312 -0.5142  0.1133
   79SLPC  H17R 7296   6.510   5.954   4.742 -1.1165  0.8545  1.7584
   79SLPC  H17S 7297   6.384   5.892   4.837  1.0343 -1.1490  0.7412
   79SLPC  C218 7298   6.411   5.801   4.622  0.4562  0.8190 -0.3283
   79SLPC  H18R 7299   6.499   5.758   4.569  0.3605  0.7384 -0.4196
   79SLPC  H18S 7300   6.363   5.873   4.553 -0.5222 -0.2673 -0.8052
   79SLPC  H18T 7301   6.336   5.722   4.640  0.4672  0.8916  0.0650
   79SLPC   C33 7302   5.714   5.820   5.890 -0.3598 -0.3803 -0.1285
   79SLPC   H3X 7303   5.646   5.907   5.876  0.3339 -0.0076 -1.2980
   79SLPC   H3Y 7304   5.665   5.746   5.957 -1.3858 -0.9735 -1.4875
   79SLPC   C34 7305   5.743   5.749   5.763 -0.1544  0.1895 -0.1734
   79SLPC   H4X 7306   5.649   5.702   5.725 -1.1238 -0.2238  2.5407
   79SLPC   H4Y 7307   5.807   5.659   5.770  2.0074  1.7077  0.9303
   79SLPC   C35 7308   5.801   5.828   5.645 -0.1931  0.7720  0.0542
   79SLPC   H5X 7309   5.775   5.936   5.640 -0.4564  0.7060 -0.0249
   79SLPC   H5Y 7310   5.752   5.786   5.554  0.0205  0.8967 -0.1208
   79SLPC   C36 7311   5.952   5.816   5.629  0.8125  0.0921  0.0757
   79SLPC   H6X 7312   5.986   5.710   5.622  0.6568 -0.2440  3.2256
   79SLPC   H6Y 7313   6.006   5.862   5.714 -1.5087 -0.6351  2.0636
   79SLPC   C37 7314   6.006   5.893   5.512 -0.4380  0.0085  0.0182
   79SLPC   H7X 7315   6.118   5.894   5.510 -0.4243 -0.9408 -0.6854
   79SLPC   H7Y 7316   5.978   6.000   5.516  1.3118  0.5901 -1.3827
   79SLPC   C38 7317   5.964   5.838   5.378  0.4674  0.3846 -0.4156
   79SLPC   H8X 7318   5.856   5.861   5.375  0.4383  0.9075  2.2044
   79SLPC   H8Y 7319   5.970   5.727   5.369 -1.4236  0.3267 -1.6571
   79SLPC   C39 7320   6.034   5.902   5.266 -1.1095 -0.3093  0.1435
   79SLPC   H9X 7321   6.143   5.905   5.289 -0.9538 -0.2236 -0.5630
   79SLPC   H9Y 7322   6.012   6.010   5.278  1.2811  0.2466  0.1384
   79SLPC  C310 7323   5.987   5.847   5.126  0.3385 -0.7692 -0.2499
   79SLPC  H10X 7324   5.876   5.847   5.124  0.2841  2.0778 -1.1911
   79SLPC  H10Y 7325   6.017   5.740   5.115  1.5231 -0.6269  1.2924
   79SLPC  C311 7326   6.040   5.936   5.008  0.0672  0.4186 -0.6384
   79SLPC  H11X 7327   6.150   5.925   4.994  0.7640  3.6358  1.2664
   79SLPC  H11Y 7328   6.011   6.040   5.033  0.0167  0.4157 -0.6845
   79SLPC  C312 7329   5.980   5.904   4.875  0.4913 -0.1881  0.9703
   79SLPC  H12X 7330   6.016   5.966   4.791  0.7998 -1.0669  0.4337
   79SLPC  H12Y 7331   5.871   5.915   4.888  0.4633 -1.2347  1.8161
   79SLPC  C313 7332   6.003   5.760   4.837  0.1613  0.5760  0.2745
   79SLPC  H13X 7333   5.980   5.704   4.930  0.1215  0.9373  0.4843
   79SLPC  H13Y 7334   6.110   5.730   4.831 -0.1928 -1.1436  1.6575
   79SLPC  C314 7335   5.925   5.717   4.712 -0.1014 -0.1629  0.0459
   79SLPC  H14X 7336   5.816   5.740   4.721  0.1242  0.3423  2.0259
   79SLPC  H14Y 7337   5.932   5.607   4.706 -1.2660 -0.1859 -1.2299
   79SLPC  C315 7338   5.984   5.774   4.587  0.1200 -0.0991 -0.0538
   79SLPC  H15X 7339   6.092   5.756   4.609 -0.1211  0.0732  1.4071
   79SLPC  H15Y 7340   5.973   5.885   4.584  0.5067 -0.0725 -0.5818
   79SLPC  C316 7341   5.926   5.700   4.466  0.6013  0.0817  0.1456
   79SLPC  H16X 7342   5.818   5.728   4.468  1.0274  1.8260  0.3010
   79SLPC  H16Y 7343   5.920   5.593   4.495 -3.3277  0.8640  3.1828
   79SLPC  C317 7344   5.990   5.718   4.334 -0.4299 -0.5759  0.1388
   79SLPC  H17X 7345   6.012   5.827   4.321  0.0120 -0.5578  0.9992
   79SLPC  H17Y 7346   5.910   5.702   4.259  1.3644  2.7385 -2.8036
   79SLPC  C318 7347   6.106   5.637   4.294 -0.0306  0.0363 -0.4801
   79SLPC  H18X 7348   6.162   5.661   4.201 -0.3046 -1.1826 -0.9699
   79SLPC  H18Y 7349   6.077   5.532   4.275  0.1299 -0.2166  0.5917
   79SLPC  H18Z 7350   6.174   5.620   4.380 -1.6475  0.3239  0.9119
   80SLPC     N 7351   6.084   1.036   6.749  0.1501 -0.7653 -0.1671
   80SLPC   C13 7352   6.029   1.082   6.879  0.0897  0.0839 -0.3300
   80SLPC  H13A 7353   5.934   1.032   6.886  1.8132 -3.2244  2.3712
   80SLPC  H13B 7354   6.086   1.062   6.969  0.8118  2.1056 -0.2903
   80SLPC  H13C 7355   5.999   1.186   6.873 -1.4567 -0.2583  0.8272
   80SLPC   C14 7356   6.073   0.885   6.743  0.0109 -0.1187  0.0124
   80SLPC  H14A 7357   6.131   0.843   6.662  0.4189 -2.9375  1.6350
   80SLPC  H14B 7358   6.108   0.833   6.831 -2.1438 -0.1472  0.9283
   80SLPC  H14C 7359   5.977   0.845   6.714  0.0208 -1.7737  1.9700
   80SLPC   C15 7360   6.229   1.082   6.745 -0.4704 -0.3064 -0.2018
   80SLPC  H15A 7361   6.263   1.077   6.642 -0.8394 -0.9164 -0.3012
   80SLPC  H15B 7362   6.232   1.189   6.762 -2.5395 -0.2929  0.3256
   80SLPC  H15C 7363   6.291   1.029   6.815 -2.1067 -0.7388  0.9790
   80SLPC   C12 7364   6.001   1.106   6.644  0.1689  0.0667  0.0431
   80SLPC  H12A 7365   6.057   1.106   6.551  0.2863  2.5951  0.0328
   80SLPC  H12B 7366   5.986   1.210   6.667 -2.4086 -0.1280 -0.4807
   80SLPC   C11 7367   5.854   1.056   6.608 -0.0570  0.4655  0.6213
   80SLPC  H11A 7368   5.869   0.947   6.591 -1.5461  0.0785  1.6106
   80SLPC  H11B 7369   5.813   1.104   6.516  0.7297  0.2005  0.1237
   80SLPC     P 7370   5.709   1.205   6.762 -0.2147 -0.0680 -0.4714
   80SLPC   O13 7371   5.636   1.180   6.887 -0.0996  0.5535  0.5782
   80SLPC   O14 7372   5.815   1.303   6.775 -0.0932 -0.5568 -0.0163
   80SLPC   O12 7373   5.769   1.066   6.719  0.9375  0.0654 -0.0549
   80SLPC   O11 7374   5.617   1.251   6.637  0.4637  0.3289 -0.3127
   80SLPC    C1 7375   5.534   1.147   6.582 -0.8217 -0.4701  0.2304
   80SLPC    HA 7376   5.596   1.062   6.546  1.3727 -0.0381  2.6873
   80SLPC    HB 7377   5.469   1.101   6.659 -0.1597  0.9828  1.7147
   80SLPC    C2 7378   5.459   1.212   6.454 -0.1886 -0.5064  0.7943
   80SLPC    HS 7379   5.392   1.130   6.420 -0.1581  0.3569 -1.4479
   80SLPC   O21 7380   5.541   1.256   6.337  0.5941 -0.1008 -0.3921
   80SLPC   C21 7381   5.617   1.179   6.269 -0.5334 -0.1979  0.3320
   80SLPC   O22 7382   5.639   1.060   6.290 -0.4431  0.0094  0.5167
   80SLPC   C22 7383   5.702   1.259   6.169 -0.3295 -0.5115 -0.1567
   80SLPC   H2R 7384   5.639   1.256   6.077 -0.0156 -0.5825 -0.3717
   80SLPC   H2S 7385   5.727   1.363   6.200 -0.1464 -0.5803 -0.0715
   80SLPC    C3 7386   5.370   1.330   6.488 -0.1245  0.6837 -0.2873
   80SLPC    HX 7387   5.432   1.419   6.511 -0.1068  1.1258 -1.9270
   80SLPC    HY 7388   5.311   1.318   6.582  0.9768 -2.2211  0.1401
   80SLPC   O31 7389   5.293   1.379   6.373  0.3283 -0.1206 -0.2296
   80SLPC   C31 7390   5.187   1.296   6.348 -1.0549  0.0806  0.1870
   80SLPC   O32 7391   5.161   1.192   6.409  0.0535  0.6078 -0.1714
   80SLPC   C32 7392   5.105   1.363   6.242  0.1319 -0.0409 -0.2108
   80SLPC   H2X 7393   5.175   1.419   6.177 -0.5683  0.4710 -0.5434
   80SLPC   H2Y 7394   5.034   1.428   6.298  2.9979  2.7857  0.4303
   80SLPC   C23 7395   5.830   1.186   6.120  0.1698 -0.3035  0.1596
   80SLPC   H3R 7396   5.804   1.088   6.073  0.5380 -1.6464  2.5927
   80SLPC   H3S 7397   5.894   1.157   6.206  0.7275  1.4737  0.3674
   80SLPC   C24 7398   5.918   1.261   6.018  0.2956  0.8055 -0.1187
   80SLPC   H4R 7399   6.020   1.218   6.011 -0.3553 -1.6671  3.2913
   80SLPC   H4S 7400   5.934   1.360   6.067  1.0622 -0.3096  2.0215
   80SLPC   C25 7401   5.879   1.272   5.873  0.1156  0.5504  0.0684
   80SLPC   H5R 7402   5.931   1.355   5.819  0.0642  2.3749  2.6172
   80SLPC   H5S 7403   5.775   1.309   5.881 -0.6188 -1.5386  0.7928
   80SLPC   C26 7404   5.888   1.138   5.798 -0.1334 -0.2700 -0.2824
   80SLPC   H6R 7405   5.835   1.066   5.863 -2.1464 -0.2762 -1.8352
   80SLPC   H6S 7406   5.995   1.110   5.782 -0.6161 -1.3830 -1.7497
   80SLPC   C27 7407   5.817   1.129   5.661 -0.6463  0.9223 -0.2441
   80SLPC   H7R 7408   5.712   1.159   5.682 -0.2315  2.4755 -0.2485
   80SLPC   H7S 7409   5.820   1.023   5.630 -1.8514  1.2726 -1.7317
   80SLPC   C28 7410   5.889   1.220   5.557  0.3089 -0.4977 -0.6337
   80SLPC   H8R 7411   5.953   1.149   5.500  2.2104  1.4376 -1.0581
   80SLPC   H8S 7412   5.948   1.300   5.607 -0.5421 -0.1909 -0.0999
   80SLPC   C29 7413   5.784   1.284   5.475 -0.6408 -0.6556  0.2780
   80SLPC   H9R 7414   5.700   1.318   5.537 -1.1062  0.5044 -0.9302
   80SLPC  C210 7415   5.788   1.319   5.348 -0.2016 -0.3829  0.4818
   80SLPC  H10R 7416   5.710   1.390   5.318  1.2484  2.2370  2.4533
   80SLPC  C211 7417   5.886   1.292   5.238  0.6047 -0.3066  0.0531
   80SLPC  H11R 7418   5.827   1.247   5.155 -0.6297  0.2334  0.6139
   80SLPC  H11S 7419   5.974   1.231   5.268  0.8026  0.5186  1.2197
   80SLPC  C212 7420   5.936   1.431   5.190  0.2268 -0.3013 -0.7819
   80SLPC  H12R 7421   6.036   1.453   5.229  0.4408  0.9006 -1.9468
   80SLPC  C213 7422   5.881   1.505   5.089 -0.2321 -0.5608 -0.4703
   80SLPC  H13R 7423   5.919   1.602   5.053 -2.0609 -0.4643 -2.3568
   80SLPC  C214 7424   5.754   1.466   5.019  0.0943  0.1847  0.0935
   80SLPC  H14R 7425   5.678   1.541   5.050  2.6819  3.6286 -1.2786
   80SLPC  H14S 7426   5.718   1.365   5.048  0.4630 -0.2755 -1.0012
   80SLPC  C215 7427   5.781   1.464   4.868 -0.1590 -1.0097  0.0398
   80SLPC  H15R 7428   5.872   1.406   4.839  1.2416  1.1933 -0.1630
   80SLPC  H15S 7429   5.801   1.569   4.839  3.9990 -1.5443  0.4139
   80SLPC  C216 7430   5.649   1.419   4.797  1.3077 -0.2044  0.1170
   80SLPC  H16R 7431   5.558   1.469   4.837  0.2439 -2.1806  0.2712
   80SLPC  H16S 7432   5.631   1.312   4.822 -2.0417 -0.4839 -2.7024
   80SLPC  C217 7433   5.657   1.441   4.644 -0.7099 -0.2823  0.1850
   80SLPC  H17R 7434   5.743   1.391   4.595 -1.5156 -2.5962  1.0161
   80SLPC  H17S 7435   5.684   1.548   4.633 -3.0820  0.2360 -1.3480
   80SLPC  C218 7436   5.526   1.407   4.574  0.0012  0.5213  0.3349
   80SLPC  H18R 7437   5.555   1.356   4.480 -1.9389 -0.4274  0.1890
   80SLPC  H18S 7438   5.471   1.499   4.542  0.8759  1.0301  0.2802
   80SLPC  H18T 7439   5.466   1.335   4.633  2.5488 -2.1953 -0.1686
   80SLPC   C33 7440   5.018   1.267   6.155  0.3127 -0.5379 -0.1321
   80SLPC   H3X 7441   4.975   1.192   6.225  0.7560 -2.7031 -2.0563
   80SLPC   H3Y 7442   5.081   1.215   6.079 -0.9792 -1.6170 -0.5095
   80SLPC   C34 7443   4.916   1.345   6.089  0.7456 -0.0358  0.0626
   80SLPC   H4X 7444   4.964   1.437   6.048 -1.2467  2.5230  3.0283
   80SLPC   H4Y 7445   4.833   1.377   6.156  0.5748 -0.8331  0.2436
   80SLPC   C35 7446   4.844   1.279   5.968 -0.6851  0.0536  0.1861
   80SLPC   H5X 7447   4.756   1.343   5.945 -1.3686 -1.1311 -0.5923
   80SLPC   H5Y 7448   4.800   1.185   6.008 -0.0051 -0.1219  0.5495
   80SLPC   C36 7449   4.940   1.264   5.849 -0.2038 -0.2696  0.3839
   80SLPC   H6X 7450   5.021   1.193   5.875  1.2817  1.5297  0.9542
   80SLPC   H6Y 7451   4.983   1.362   5.818 -0.7844 -0.3887 -0.8179
   80SLPC   C37 7452   4.865   1.212   5.727  0.3188 -0.1612  0.2882
   80SLPC   H7X 7453   4.781   1.282   5.708  1.5847  1.4396  0.4113
   80SLPC   H7Y 7454   4.842   1.105   5.747  1.5131 -0.4833  0.0273
   80SLPC   C38 7455   4.954   1.198   5.601  0.2128  0.4537 -0.2432
   80SLPC   H8X 7456   5.027   1.124   5.640 -1.6869 -0.2757  2.1770
   80SLPC   H8Y 7457   5.014   1.288   5.576  0.0349  0.7023  0.2176
   80SLPC   C39 7458   4.877   1.128   5.490 -0.3053 -0.0070  0.8671
   80SLPC   H9X 7459   4.773   1.167   5.496  0.4024  1.9964  0.8981
   80SLPC   H9Y 7460   4.876   1.018   5.497 -0.1061 -0.1184 -0.4887
   80SLPC  C310 7461   4.937   1.165   5.347  0.5313 -0.2141  0.4049
   80SLPC  H10X 7462   5.042   1.130   5.336  1.7019  2.5267  1.8614
   80SLPC  H10Y 7463   4.948   1.275   5.353  2.9640 -0.4472  1.6015
   80SLPC  C311 7464   4.840   1.129   5.232 -0.5087  0.1258  0.5117
   80SLPC  H11X 7465   4.735   1.158   5.255 -0.9632 -2.6962  2.4248
   80SLPC  H11Y 7466   4.837   1.018   5.224 -1.3572  0.2811 -2.8805
   80SLPC  C312 7467   4.889   1.183   5.093  0.4102 -0.1501 -0.1945
   80SLPC  H12X 7468   4.969   1.116   5.055 -0.5162 -1.5340  0.1974
   80SLPC  H12Y 7469   4.933   1.284   5.107  1.3123 -0.6246  0.5069
   80SLPC  C313 7470   4.773   1.197   4.986 -0.0210 -0.0738  0.1497
   80SLPC  H13X 7471   4.701   1.268   5.030 -0.3417 -0.3759  0.1162
   80SLPC  H13Y 7472   4.725   1.097   4.978  0.9878 -0.6698  1.2478
   80SLPC  C314 7473   4.798   1.252   4.847  0.0656 -1.0865  0.1376
   80SLPC  H14X 7474   4.868   1.192   4.787  1.3623  2.0190 -1.6877
   80SLPC  H14Y 7475   4.847   1.351   4.853  0.5108 -1.0280 -3.1182
   80SLPC  C315 7476   4.671   1.293   4.766 -0.1755 -0.5379 -0.0135
   80SLPC  H15X 7477   4.633   1.391   4.803  2.6051  2.0117 -3.2691
   80SLPC  H15Y 7478   4.598   1.211   4.786  0.2739 -0.7734  0.6745
   80SLPC  C316 7479   4.683   1.304   4.612  0.0520  0.1174  0.2364
   80SLPC  H16X 7480   4.590   1.303   4.553  0.6884 -1.9001 -0.8097
   80SLPC  H16Y 7481   4.738   1.215   4.575 -0.3060  0.2611 -0.6431
   80SLPC  C317 7482   4.756   1.436   4.565  0.3360 -0.5063  0.7962
   80SLPC  H17X 7483   4.866   1.424   4.565  0.3823 -0.1150  0.7781
   80SLPC  H17Y 7484   4.725   1.521   4.630  1.0862  1.3866 -1.2001
   80SLPC  C318 7485   4.718   1.476   4.426  0.6629  0.4910  0.0890
   80SLPC  H18X 7486   4.744   1.584   4.421 -0.6280  0.7763 -1.3270
   80SLPC  H18Y 7487   4.608   1.475   4.415  0.5174  1.1412  1.3026
   80SLPC  H18Z 7488   4.773   1.419   4.348  0.7268  1.3571 -0.5230
   81SLPC     N 7489   3.956   5.433   1.686  0.3143  0.9535 -0.7139
   81SLPC   C13 7490   3.914   5.436   1.837 -0.5274 -0.1329  0.0290
   81SLPC  H13A 7491   3.888   5.535   1.872 -0.9728 -0.4114  0.4794
   81SLPC  H13B 7492   3.824   5.378   1.847 -1.0020  0.4231 -0.7947
   81SLPC  H13C 7493   3.992   5.383   1.890 -1.6896 -2.0681 -0.1129
   81SLPC   C14 7494   3.960   5.281   1.647 -0.2856 -0.0817 -0.0992
   81SLPC  H14A 7495   3.871   5.227   1.673  1.4636 -2.7144  0.8194
   81SLPC  H14B 7496   3.992   5.271   1.544 -0.4703  0.7814 -0.2407
   81SLPC  H14C 7497   4.040   5.235   1.704 -0.3054 -0.5910 -0.4743
   81SLPC   C15 7498   4.095   5.491   1.670  0.6711 -0.3581 -0.3334
   81SLPC  H15A 7499   4.125   5.473   1.568  0.0030  1.5356 -0.9021
   81SLPC  H15B 7500   4.092   5.598   1.677  0.2658 -0.3892 -0.0090
   81SLPC  H15C 7501   4.155   5.443   1.746  0.0015 -1.5451 -0.5276
   81SLPC   C12 7502   3.866   5.495   1.586  0.2329  0.0980 -1.2487
   81SLPC  H12A 7503   3.772   5.444   1.602  0.4934 -0.0655 -0.1510
   81SLPC  H12B 7504   3.898   5.465   1.488  0.3313 -1.9175 -0.6434
   81SLPC   C11 7505   3.846   5.653   1.602  0.8819 -0.1092  0.4021
   81SLPC  H11A 7506   3.768   5.676   1.526  0.1666  0.2800  1.2358
   81SLPC  H11B 7507   3.945   5.699   1.583  1.8488 -2.4127 -0.3694
   81SLPC     P 7508   3.798   5.844   1.786  0.2846  0.4363  0.4061
   81SLPC   O13 7509   3.918   5.910   1.732  0.4665  0.2148 -0.1241
   81SLPC   O14 7510   3.660   5.896   1.749  0.0504  0.2650 -0.0221
   81SLPC   O12 7511   3.805   5.689   1.740  0.9809 -0.2804 -0.5019
   81SLPC   O11 7512   3.809   5.826   1.946  0.1932 -0.1103  0.1768
   81SLPC    C1 7513   3.938   5.784   1.996 -0.1769 -0.5231  0.0802
   81SLPC    HA 7514   3.991   5.710   1.932  2.1878  1.0310  0.0934
   81SLPC    HB 7515   4.006   5.872   2.000  0.4068 -0.9082 -0.9346
   81SLPC    C2 7516   3.923   5.717   2.136  0.3230 -0.1286  0.6957
   81SLPC    HS 7517   3.876   5.618   2.119  0.3451 -0.1346  0.6697
   81SLPC   O21 7518   3.854   5.808   2.226 -0.0621 -0.5934  0.4773
   81SLPC   C21 7519   3.721   5.783   2.235  0.2034 -0.3835  0.3223
   81SLPC   O22 7520   3.671   5.677   2.199 -0.4020 -0.2723  0.3004
   81SLPC   C22 7521   3.641   5.901   2.296  0.2391 -0.5700  0.4912
   81SLPC   H2R 7522   3.697   5.944   2.381 -0.3613 -1.2852  1.2735
   81SLPC   H2S 7523   3.630   5.978   2.217 -2.9195 -1.6637 -0.2808
   81SLPC    C3 7524   4.064   5.667   2.190 -0.6464 -0.1364 -0.3731
   81SLPC    HX 7525   4.113   5.766   2.183  0.1771 -0.5148 -0.0667
   81SLPC    HY 7526   4.109   5.590   2.124 -1.3760 -1.6861  0.8728
   81SLPC   O31 7527   4.053   5.623   2.332 -1.0495 -0.2313  0.2721
   81SLPC   C31 7528   4.126   5.705   2.414 -0.2228  0.3957  0.2544
   81SLPC   O32 7529   4.215   5.775   2.376 -0.2023 -0.1469  0.2591
   81SLPC   C32 7530   4.081   5.688   2.557  0.4398 -0.1628  0.2733
   81SLPC   H2X 7531   4.099   5.581   2.584 -0.4144 -0.3242  0.2270
   81SLPC   H2Y 7532   3.973   5.713   2.559  1.2203  3.8499 -0.2652
   81SLPC   C23 7533   3.493   5.864   2.353 -0.6778  0.0689 -0.3767
   81SLPC   H3R 7534   3.416   5.836   2.277 -0.6256  1.3406 -0.9349
   81SLPC   H3S 7535   3.460   5.956   2.406 -1.3548 -1.4057  1.9116
   81SLPC   C24 7536   3.505   5.768   2.466 -0.5417  0.3937  0.0498
   81SLPC   H4R 7537   3.603   5.777   2.517 -1.3907  1.4372  1.6256
   81SLPC   H4S 7538   3.507   5.662   2.433  0.2283 -0.8538  3.6161
   81SLPC   C25 7539   3.388   5.785   2.565 -0.1439  0.2645  0.3011
   81SLPC   H5R 7540   3.379   5.887   2.609 -1.7468  0.8943 -1.3742
   81SLPC   H5S 7541   3.424   5.722   2.649 -0.6986  0.4417  0.6760
   81SLPC   C26 7542   3.252   5.738   2.514  0.2208 -0.1931 -0.2750
   81SLPC   H6R 7543   3.268   5.634   2.480  0.3623  0.0347 -0.9089
   81SLPC   H6S 7544   3.239   5.808   2.429 -0.9262  2.1116  1.6474
   81SLPC   C27 7545   3.138   5.734   2.619 -0.8026  0.0355  0.3749
   81SLPC   H7R 7546   3.146   5.835   2.663  2.9052  0.1567 -0.2836
   81SLPC   H7S 7547   3.162   5.650   2.688  0.2696  0.5366  0.6187
   81SLPC   C28 7548   3.002   5.706   2.549 -0.0621  0.0086 -0.6674
   81SLPC   H8R 7549   2.972   5.776   2.469  0.2328  1.6282  0.5900
   81SLPC   H8S 7550   2.932   5.720   2.634 -1.0802  1.1583 -1.6635
   81SLPC   C29 7551   2.993   5.563   2.499 -0.0399 -0.3898 -0.4785
   81SLPC   H9R 7552   3.072   5.519   2.436 -0.1660 -0.9978 -0.2223
   81SLPC  C210 7553   2.897   5.475   2.535  1.1540  0.1709 -0.9637
   81SLPC  H10R 7554   2.898   5.373   2.496  0.2877 -0.4499  0.5644
   81SLPC  C211 7555   2.778   5.502   2.626 -0.6827  1.1391  0.1178
   81SLPC  H11R 7556   2.704   5.423   2.602 -1.0559  0.9959  1.6617
   81SLPC  H11S 7557   2.713   5.585   2.591 -1.5393  0.2828 -0.3646
   81SLPC  C212 7558   2.814   5.509   2.768  1.2775  0.7639  0.0252
   81SLPC  H12R 7559   2.827   5.608   2.814 -0.6484  0.5589  1.1015
   81SLPC  C213 7560   2.829   5.399   2.850 -0.4791  0.3743 -0.0807
   81SLPC  H13R 7561   2.868   5.423   2.950  3.4667 -2.0036 -0.8284
   81SLPC  C214 7562   2.797   5.258   2.821  0.1183 -0.4785  0.1592
   81SLPC  H14R 7563   2.874   5.194   2.774 -1.1968 -3.0236  1.2863
   81SLPC  H14S 7564   2.711   5.253   2.751 -1.5224 -2.8499  2.1713
   81SLPC  C215 7565   2.755   5.187   2.953 -0.2388  0.1415  0.0553
   81SLPC  H15R 7566   2.683   5.105   2.932  0.7609 -0.7652  0.0952
   81SLPC  H15S 7567   2.706   5.263   3.017 -0.7610  0.3298 -0.5496
   81SLPC  C216 7568   2.868   5.120   3.039  0.2447 -0.5075 -0.1310
   81SLPC  H16R 7569   2.951   5.193   3.051 -0.0330 -0.0944 -0.6414
   81SLPC  H16S 7570   2.907   5.034   2.981  0.0745 -1.7443  1.5102
   81SLPC  C217 7571   2.808   5.077   3.173  0.6174  0.0014 -0.4262
   81SLPC  H17R 7572   2.718   5.016   3.151  0.0607 -0.2462  2.2975
   81SLPC  H17S 7573   2.781   5.166   3.233 -1.3268 -1.3000  0.7308
   81SLPC  C218 7574   2.895   5.005   3.272 -0.0094  0.5111 -0.1265
   81SLPC  H18R 7575   2.834   4.938   3.336  0.3518 -0.5584 -0.8655
   81SLPC  H18S 7576   2.952   5.079   3.333 -1.3629  1.0713  0.4994
   81SLPC  H18T 7577   2.961   4.929   3.224 -3.3224 -1.2489 -2.2157
   81SLPC   C33 7578   4.165   5.784   2.652 -0.2709  0.4938  0.9936
   81SLPC   H3X 7579   4.163   5.891   2.621 -2.1246  0.3835  0.5833
   81SLPC   H3Y 7580   4.271   5.752   2.646  0.7555  3.6597  0.4004
   81SLPC   C34 7581   4.104   5.783   2.790 -0.5175  0.2220  0.6720
   81SLPC   H4X 7582   4.105   5.675   2.819  2.0946  0.3369  1.2758
   81SLPC   H4Y 7583   4.002   5.828   2.795  0.1081  1.9068 -0.8154
   81SLPC   C35 7584   4.199   5.861   2.885  0.7431 -0.1609  0.4262
   81SLPC   H5X 7585   4.227   5.961   2.845 -1.3139  1.0048  1.7455
   81SLPC   H5Y 7586   4.296   5.809   2.902  1.2207  1.4112  2.9392
   81SLPC   C36 7587   4.133   5.879   3.026 -0.5490  0.3055  0.8252
   81SLPC   H6X 7588   4.079   5.785   3.052 -2.1489  1.1287  0.6322
   81SLPC   H6Y 7589   4.051   5.954   3.022 -1.8095 -1.0751 -0.9664
   81SLPC   C37 7590   4.232   5.890   3.139 -0.0494  0.5298  0.1922
   81SLPC   H7X 7591   4.291   5.982   3.119 -1.6661  1.3989 -0.7428
   81SLPC   H7Y 7592   4.306   5.808   3.142  3.2066  3.2795  0.6983
   81SLPC   C38 7593   4.174   5.912   3.277  0.3284 -0.2871  0.2868
   81SLPC   H8X 7594   4.086   5.848   3.297  0.4183 -0.6050 -0.3166
   81SLPC   H8Y 7595   4.142   6.019   3.273  1.5648  0.1711  1.7401
   81SLPC   C39 7596   4.287   5.900   3.381 -0.7885 -0.2241 -0.2974
   81SLPC   H9X 7597   4.343   5.994   3.397 -0.0250 -0.8902  1.2448
   81SLPC   H9Y 7598   4.344   5.811   3.347 -0.4332 -0.6936  1.4148
   81SLPC  C310 7599   4.226   5.861   3.511  0.2271 -0.3719 -0.3552
   81SLPC  H10X 7600   4.169   5.766   3.501 -0.8221  0.0005  1.5984
   81SLPC  H10Y 7601   4.174   5.947   3.558  0.0360 -0.5257 -0.2809
   81SLPC  C311 7602   4.334   5.839   3.627 -0.5328  0.1184  0.6669
   81SLPC  H11X 7603   4.364   5.934   3.675 -1.5522 -1.2266  4.4079
   81SLPC  H11Y 7604   4.421   5.791   3.578 -1.1241 -1.0627  0.7263
   81SLPC  C312 7605   4.271   5.733   3.722  0.2045 -0.2649  0.9015
   81SLPC  H12X 7606   4.245   5.633   3.682 -2.0989  1.0885 -1.2889
   81SLPC  H12Y 7607   4.184   5.784   3.767  1.5086  3.7822 -0.6398
   81SLPC  C313 7608   4.365   5.708   3.837 -0.0620 -0.1378  0.4378
   81SLPC  H13X 7609   4.458   5.680   3.784 -0.5768 -1.0804  0.0177
   81SLPC  H13Y 7610   4.336   5.624   3.904  1.4181 -2.0488 -1.2138
   81SLPC  C314 7611   4.386   5.831   3.931 -0.7092  0.3426 -0.5292
   81SLPC  H14X 7612   4.293   5.851   3.988 -0.8285  0.1714 -0.6657
   81SLPC  H14Y 7613   4.427   5.920   3.878  3.2329  0.4214  2.2123
   81SLPC  C315 7614   4.501   5.812   4.034 -0.1882 -0.6219  0.0078
   81SLPC  H15X 7615   4.602   5.816   3.986 -0.2726 -0.5857 -0.1687
   81SLPC  H15Y 7616   4.479   5.714   4.081 -0.0376 -1.4719 -1.6182
   81SLPC  C316 7617   4.511   5.923   4.147 -0.1758  0.2657  0.7198
   81SLPC  H16X 7618   4.516   6.025   4.102  0.3736  0.3402  0.9445
   81SLPC  H16Y 7619   4.599   5.917   4.215  0.4799 -0.6990 -0.2003
   81SLPC  C317 7620   4.387   5.925   4.237 -0.7718  0.3837 -0.9601
   81SLPC  H17X 7621   4.384   5.828   4.291 -2.1183  1.0010  0.1539
   81SLPC  H17Y 7622   4.291   5.938   4.183 -0.7528 -1.5120 -1.5382
   81SLPC  C318 7623   4.396   6.030   4.353 -0.2039 -0.2831 -0.2568
   81SLPC  H18X 7624   4.461   5.987   4.432  0.3995  0.1980 -0.4831
   81SLPC  H18Y 7625   4.298   6.036   4.405 -0.7616  0.7604 -1.3827
   81SLPC  H18Z 7626   4.418   6.136   4.328  0.6654 -0.1010  1.1783
   82SLPC     N 7627   4.266   6.519   1.443  0.5427  0.4218  0.6031
   82SLPC   C13 7628   4.119   6.485   1.403  0.1411 -0.0961 -0.0256
   82SLPC  H13A 7629   4.114   6.489   1.295  1.6672  0.9641 -0.0813
   82SLPC  H13B 7630   4.095   6.389   1.446 -0.6200 -0.2182 -0.6795
   82SLPC  H13C 7631   4.057   6.559   1.452 -0.1751  0.0332 -0.6048
   82SLPC   C14 7632   4.314   6.636   1.376  0.1476  0.2672 -0.1729
   82SLPC  H14A 7633   4.280   6.644   1.274  0.6090  0.0581 -0.3469
   82SLPC  H14B 7634   4.285   6.729   1.422 -0.1938  1.3476 -2.4452
   82SLPC  H14C 7635   4.422   6.632   1.374  0.1162 -2.0808 -0.0049
   82SLPC   C15 7636   4.335   6.398   1.382  0.0124 -0.5624  0.5054
   82SLPC  H15A 7637   4.277   6.311   1.409 -1.4400  0.4279  0.6909
   82SLPC  H15B 7638   4.329   6.408   1.274  2.7962  3.5684  0.5040
   82SLPC  H15C 7639   4.438   6.399   1.416 -0.5997 -1.0873  2.5213
   82SLPC   C12 7640   4.294   6.518   1.596  0.4335  0.0744  0.0061
   82SLPC  H12A 7641   4.397   6.541   1.617  0.1628  2.1416 -0.6437
   82SLPC  H12B 7642   4.277   6.422   1.642 -0.0212 -0.1193 -0.5453
   82SLPC   C11 7643   4.218   6.620   1.680  0.3250  0.1383  1.0809
   82SLPC  H11A 7644   4.255   6.613   1.785 -0.7182  2.7670  1.6917
   82SLPC  H11B 7645   4.109   6.602   1.671  0.0416  2.2763 -0.2698
   82SLPC     P 7646   4.336   6.848   1.714 -0.1365  0.0719 -0.1832
   82SLPC   O13 7647   4.469   6.787   1.736  0.1438 -0.2947 -0.2157
   82SLPC   O14 7648   4.322   6.982   1.646 -0.4186 -0.1554 -0.5846
   82SLPC   O12 7649   4.251   6.749   1.633  0.2981  0.4084 -0.0229
   82SLPC   O11 7650   4.271   6.860   1.862 -0.3915 -0.0360 -0.0088
   82SLPC    C1 7651   4.142   6.902   1.899 -0.3250  0.3426  0.8624
   82SLPC    HA 7652   4.151   7.005   1.941 -2.4004  1.2223 -0.6331
   82SLPC    HB 7653   4.072   6.899   1.813  1.8094 -2.2037 -0.9087
   82SLPC    C2 7654   4.076   6.815   2.015 -0.4217  0.4608 -0.0765
   82SLPC    HS 7655   3.999   6.880   2.061 -2.3144 -1.9356  0.3125
   82SLPC   O21 7656   4.172   6.772   2.119  0.0940 -0.1598  0.9273
   82SLPC   C21 7657   4.234   6.869   2.181 -0.1655  0.2511  0.7548
   82SLPC   O22 7658   4.204   6.983   2.175 -0.5280 -1.2096 -0.0297
   82SLPC   C22 7659   4.345   6.805   2.276  0.2039  0.1473  0.1172
   82SLPC   H2R 7660   4.376   6.709   2.229 -0.7258 -0.2904  0.3817
   82SLPC   H2S 7661   4.432   6.874   2.284  0.3075  0.0568 -0.1990
   82SLPC    C3 7662   3.997   6.693   1.970  0.1306  0.6492 -0.1365
   82SLPC    HX 7663   4.079   6.625   1.940  0.1137  0.1349  0.9374
   82SLPC    HY 7664   3.919   6.724   1.898 -0.5936 -0.2790  0.2347
   82SLPC   O31 7665   3.937   6.638   2.090  0.1521 -1.0536  0.1121
   82SLPC   C31 7666   3.813   6.655   2.126 -0.4400  0.1207  0.6855
   82SLPC   O32 7667   3.726   6.689   2.048 -0.1038  0.2814 -0.3832
   82SLPC   C32 7668   3.796   6.604   2.274  0.0099 -1.0206  0.1763
   82SLPC   H2X 7669   3.894   6.610   2.327 -0.4415  0.2267  0.9285
   82SLPC   H2Y 7670   3.767   6.497   2.265  0.4477 -1.1404  0.1717
   82SLPC   C23 7671   4.291   6.795   2.427 -0.1769  0.0538  0.3125
   82SLPC   H3R 7672   4.220   6.877   2.452  0.8389  0.6830  1.1975
   82SLPC   H3S 7673   4.370   6.785   2.505 -1.2764  0.0831  1.4745
   82SLPC   C24 7674   4.211   6.665   2.425 -0.0432 -0.1289  0.0902
   82SLPC   H4R 7675   4.282   6.580   2.413 -0.8833 -1.0549  1.4132
   82SLPC   H4S 7676   4.128   6.652   2.353 -1.3642 -1.0390  1.7202
   82SLPC   C25 7677   4.152   6.644   2.567  0.4062  0.2822  0.2820
   82SLPC   H5R 7678   4.228   6.674   2.642  0.7476 -1.4958  0.6721
   82SLPC   H5S 7679   4.147   6.535   2.588 -1.0140  0.6428  2.0778
   82SLPC   C26 7680   4.015   6.716   2.588 -0.6938  1.0817 -0.1942
   82SLPC   H6R 7681   3.952   6.696   2.498 -2.6156 -2.8967  1.7889
   82SLPC   H6S 7682   4.045   6.823   2.591 -0.0323  0.9228 -0.7401
   82SLPC   C27 7683   3.935   6.684   2.718  0.0869  0.0595 -0.3783
   82SLPC   H7R 7684   3.904   6.578   2.711  0.8178 -0.1820 -0.0613
   82SLPC   H7S 7685   3.841   6.743   2.727 -1.1711 -1.6692 -1.4585
   82SLPC   C28 7686   4.025   6.702   2.843  0.2784  0.3464  0.6946
   82SLPC   H8R 7687   4.041   6.811   2.856  0.8908  0.5400 -1.3323
   82SLPC   H8S 7688   4.126   6.657   2.829 -1.0362 -2.3495 -1.1894
   82SLPC   C29 7689   3.955   6.634   2.958 -0.4524  0.1306  0.2007
   82SLPC   H9R 7690   3.926   6.529   2.938  1.6605 -0.6492  0.9383
   82SLPC  C210 7691   3.941   6.675   3.083  0.2217 -0.5254  0.1976
   82SLPC  H10R 7692   3.896   6.604   3.153 -0.2163  0.1247  0.5882
   82SLPC  C211 7693   3.974   6.815   3.133 -0.4919 -0.0799 -0.0245
   82SLPC  H11R 7694   3.890   6.857   3.192  0.2964  0.8478  0.4729
   82SLPC  H11S 7695   3.990   6.878   3.043  0.0229 -1.2954 -0.8093
   82SLPC  C212 7696   4.096   6.820   3.221  0.2260  0.6033  0.5156
   82SLPC  H12R 7697   4.172   6.890   3.183  0.1860 -0.6274 -2.0631
   82SLPC  C213 7698   4.114   6.762   3.338  0.1058 -0.0050 -0.2664
   82SLPC  H13R 7699   4.210   6.783   3.388  0.7100  0.2186 -1.4730
   82SLPC  C214 7700   4.021   6.664   3.405 -0.2402 -0.4651 -0.4177
   82SLPC  H14R 7701   4.053   6.560   3.384  0.7669 -0.0486 -1.0204
   82SLPC  H14S 7702   3.920   6.677   3.361 -1.0215 -0.6908  1.2298
   82SLPC  C215 7703   4.007   6.695   3.553  0.1093 -0.4384 -0.2559
   82SLPC  H15R 7704   3.941   6.621   3.603 -0.4997 -0.0059 -0.4181
   82SLPC  H15S 7705   3.951   6.790   3.562 -0.2499 -0.5788 -0.9928
   82SLPC  C216 7706   4.137   6.689   3.642 -0.2420 -0.8416  0.2109
   82SLPC  H16R 7707   4.199   6.773   3.602 -1.9669  0.3226 -0.1599
   82SLPC  H16S 7708   4.192   6.593   3.635  0.8320 -0.1503 -2.1828
   82SLPC  C217 7709   4.107   6.713   3.795 -0.4071 -0.3730 -0.4423
   82SLPC  H17R 7710   4.045   6.628   3.828 -0.2968 -0.0677  0.5982
   82SLPC  H17S 7711   4.061   6.812   3.816  2.5960  0.9528  0.5735
   82SLPC  C218 7712   4.234   6.729   3.882  0.1791 -0.3712  0.2396
   82SLPC  H18R 7713   4.329   6.682   3.850  0.6696  0.7658 -0.0432
   82SLPC  H18S 7714   4.212   6.680   3.979  2.9337 -1.3976  0.4373
   82SLPC  H18T 7715   4.262   6.837   3.886 -0.4365 -0.1785 -0.3886
   82SLPC   C33 7716   3.691   6.681   2.362  0.2934  0.0803  0.4124
   82SLPC   H3X 7717   3.602   6.719   2.307  0.7026  0.9158  0.3186
   82SLPC   H3Y 7718   3.733   6.770   2.413  0.6188  0.5979 -0.7356
   82SLPC   C34 7719   3.659   6.590   2.481  0.8085 -0.3848  0.3036
   82SLPC   H4X 7720   3.742   6.550   2.544  0.9082 -0.6337  0.0181
   82SLPC   H4Y 7721   3.598   6.506   2.441 -0.4707  0.3220  0.7425
   82SLPC   C35 7722   3.563   6.656   2.581 -0.1833 -0.0523  0.0018
   82SLPC   H5X 7723   3.494   6.729   2.533 -1.0556 -0.9804 -0.1836
   82SLPC   H5Y 7724   3.633   6.724   2.635  0.2980 -1.0149  0.6095
   82SLPC   C36 7725   3.499   6.559   2.675 -0.9500 -1.4998 -0.6182
   82SLPC   H6X 7726   3.522   6.456   2.642 -0.3015 -0.5985 -3.2407
   82SLPC   H6Y 7727   3.389   6.578   2.685 -0.4676  0.6693  1.9026
   82SLPC   C37 7728   3.546   6.574   2.822  0.1048 -1.0019  0.9247
   82SLPC   H7X 7729   3.530   6.682   2.843  0.7574 -0.3833 -1.5145
   82SLPC   H7Y 7730   3.655   6.567   2.842  0.7199  1.5160 -1.0280
   82SLPC   C38 7731   3.471   6.482   2.911 -0.1211  0.2247 -0.5060
   82SLPC   H8X 7732   3.475   6.380   2.867  0.5665 -1.4843  3.1096
   82SLPC   H8Y 7733   3.365   6.504   2.933 -0.4750 -0.6476 -1.2973
   82SLPC   C39 7734   3.532   6.463   3.053 -0.3249 -0.3659 -0.4639
   82SLPC   H9X 7735   3.640   6.440   3.039  0.2152  1.5766  0.1230
   82SLPC   H9Y 7736   3.478   6.386   3.112  1.0202 -0.3070  0.8982
   82SLPC  C310 7737   3.553   6.598   3.135 -0.1909 -0.2081  0.1740
   82SLPC  H10X 7738   3.469   6.669   3.126 -1.1326 -1.0900  1.5512
   82SLPC  H10Y 7739   3.640   6.657   3.098  1.4406 -1.6669  1.4940
   82SLPC  C311 7740   3.591   6.579   3.283 -0.5861  0.1676  0.4958
   82SLPC  H11X 7741   3.644   6.665   3.327 -0.0210  0.7395 -1.2225
   82SLPC  H11Y 7742   3.658   6.490   3.283 -0.4549  0.2673  1.1220
   82SLPC  C312 7743   3.473   6.559   3.374 -0.0627  0.2716  0.2565
   82SLPC  H12X 7744   3.404   6.491   3.319  0.6857  0.7097 -1.2904
   82SLPC  H12Y 7745   3.422   6.656   3.390  3.1875  2.3527 -1.0258
   82SLPC  C313 7746   3.507   6.525   3.524  0.4005  0.4508  0.3449
   82SLPC  H13X 7747   3.570   6.434   3.521 -0.1951  0.0083  0.9834
   82SLPC  H13Y 7748   3.412   6.509   3.580  0.4810  0.6735  0.5495
   82SLPC  C314 7749   3.578   6.629   3.607 -0.3793 -0.2805  0.5515
   82SLPC  H14X 7750   3.536   6.731   3.593  1.7958  0.5803 -0.3340
   82SLPC  H14Y 7751   3.674   6.648   3.553  0.0634 -1.7574  0.7749
   82SLPC  C315 7752   3.602   6.602   3.758  0.2649  0.6395  0.4630
   82SLPC  H15X 7753   3.663   6.510   3.768 -1.6160 -0.8221 -0.7479
   82SLPC  H15Y 7754   3.507   6.595   3.815 -0.4146  0.7705 -0.6124
   82SLPC  C316 7755   3.693   6.711   3.822 -0.5588  0.0489  0.1211
   82SLPC  H16X 7756   3.647   6.801   3.777  2.7931  0.1680 -3.5490
   82SLPC  H16Y 7757   3.794   6.710   3.776 -1.4780  0.4079 -2.0360
   82SLPC  C317 7758   3.694   6.713   3.973  0.5656  0.2334  0.4032
   82SLPC  H17X 7759   3.756   6.630   4.014 -0.6410 -1.4442 -0.9954
   82SLPC  H17Y 7760   3.590   6.698   4.010  0.3538 -1.5885 -0.7780
   82SLPC  C318 7761   3.763   6.842   4.023 -0.0393 -0.0655 -0.3811
   82SLPC  H18X 7762   3.860   6.865   3.974  0.9294 -0.2515  1.3690
   82SLPC  H18Y 7763   3.773   6.847   4.134  0.5648  0.8154 -0.4704
   82SLPC  H18Z 7764   3.694   6.925   3.995 -1.2058 -0.1942  1.8973
   83SLPC     N 7765   0.007   3.075   1.903 -0.6262 -0.3704 -0.0981
   83SLPC   C13 7766  -0.094   3.084   1.797  0.8340 -0.3179  0.2263
   83SLPC  H13A 7767  -0.154   3.173   1.809  1.4202  0.3729 -1.5665
   83SLPC  H13B 7768  -0.052   3.099   1.698 -2.1005  0.9832 -0.9592
   83SLPC  H13C 7769  -0.151   2.993   1.792 -0.0463  0.2514 -0.5038
   83SLPC   C14 7770   0.071   3.205   1.931  0.0697  0.1216  0.3351
   83SLPC  H14A 7771   0.110   3.249   1.840 -0.9893  0.0892 -0.1503
   83SLPC  H14B 7772  -0.003   3.275   1.968 -0.8315  0.7217 -2.3182
   83SLPC  H14C 7773   0.151   3.200   2.002  0.4062 -0.8619 -0.0884
   83SLPC   C15 7774   0.115   2.990   1.851  0.7178 -0.0443 -0.1122
   83SLPC  H15A 7775   0.163   3.039   1.767 -0.3127  0.6048 -0.3496
   83SLPC  H15B 7776   0.187   2.953   1.922  0.6993 -1.5853 -0.8476
   83SLPC  H15C 7777   0.063   2.900   1.823 -2.3722  1.8427 -0.9425
   83SLPC   C12 7778  -0.043   3.014   2.035 -0.2737  0.1026  0.5005
   83SLPC  H12A 7779   0.028   3.008   2.115 -0.4910 -0.2913  0.6664
   83SLPC  H12B 7780  -0.066   2.909   2.020 -2.0978  0.4942  0.3161
   83SLPC   C11 7781  -0.165   3.073   2.095  0.4106  0.2915  0.4641
   83SLPC  H11A 7782  -0.208   3.000   2.166 -2.6154  2.5974  1.2278
   83SLPC  H11B 7783  -0.247   3.083   2.021  1.0900 -0.5967 -0.4413
   83SLPC     P 7784  -0.049   3.220   2.280  0.0490  0.0892  0.0587
   83SLPC   O13 7785   0.014   3.090   2.307  0.1275  0.1574 -0.4134
   83SLPC   O14 7786   0.038   3.338   2.259 -0.6810  0.7387 -0.1841
   83SLPC   O12 7787  -0.141   3.206   2.152 -0.5992  0.5330  0.2596
   83SLPC   O11 7788  -0.152   3.255   2.395  0.4384  0.0484 -0.6295
   83SLPC    C1 7789  -0.162   3.382   2.459 -0.1980 -0.0009 -0.3298
   83SLPC    HA 7790  -0.146   3.460   2.382  0.1307 -1.7087 -2.0654
   83SLPC    HB 7791  -0.267   3.395   2.494  0.2202  0.0139  0.9740
   83SLPC    C2 7792  -0.072   3.397   2.586  0.3987  0.3818 -0.0830
   83SLPC    HS 7793   0.035   3.377   2.564  0.9050  1.3319  1.4086
   83SLPC   O21 7794  -0.128   3.314   2.686 -0.4277 -0.2495  0.5380
   83SLPC   C21 7795  -0.044   3.226   2.739  0.2034 -0.2384 -0.6617
   83SLPC   O22 7796   0.073   3.212   2.708 -0.4028  0.2223  0.1550
   83SLPC   C22 7797  -0.108   3.168   2.874 -0.4550 -0.6889  1.4351
   83SLPC   H2R 7798  -0.210   3.141   2.840  0.3335 -0.8177 -0.9690
   83SLPC   H2S 7799  -0.045   3.080   2.899  4.2109  1.5983 -0.9387
   83SLPC    C3 7800  -0.074   3.545   2.643 -0.1805  0.4900  0.2321
   83SLPC    HX 7801  -0.175   3.562   2.685 -0.2549  0.5535  0.0271
   83SLPC    HY 7802  -0.068   3.614   2.556 -0.8330 -1.2171 -1.2300
   83SLPC   O31 7803   0.012   3.573   2.752 -0.6979  0.4141 -0.4618
   83SLPC   C31 7804   0.128   3.643   2.729  0.3336 -0.4371 -0.1533
   83SLPC   O32 7805   0.150   3.684   2.619 -0.0899 -0.6907 -0.1233
   83SLPC   C32 7806   0.195   3.679   2.863 -0.1872  0.7222 -0.0469
   83SLPC   H2X 7807   0.261   3.591   2.872 -1.2764 -0.1317 -0.2706
   83SLPC   H2Y 7808   0.113   3.673   2.937  1.0236  0.6394  1.3200
   83SLPC   C23 7809  -0.107   3.257   2.999 -0.0912  0.1256  0.1653
   83SLPC   H3R 7810  -0.181   3.206   3.064  0.4301 -0.0657  0.6090
   83SLPC   H3S 7811  -0.146   3.360   2.985 -0.0184 -0.0258 -1.3753
   83SLPC   C24 7812   0.029   3.259   3.072 -0.1915  0.2135  0.2292
   83SLPC   H4R 7813   0.103   3.307   3.004  0.2507 -1.3258 -0.4170
   83SLPC   H4S 7814   0.065   3.157   3.096  0.2196  0.7277  1.8830
   83SLPC   C25 7815   0.013   3.327   3.214 -0.0628  1.5755 -0.5175
   83SLPC   H5R 7816   0.030   3.253   3.295  0.0507  1.9049 -0.2378
   83SLPC   H5S 7817  -0.093   3.355   3.233 -1.2910 -2.5882 -0.1795
   83SLPC   C26 7818   0.101   3.444   3.231  1.1024  0.4624  1.2140
   83SLPC   H6R 7819   0.074   3.535   3.173  0.3789  1.1083  2.5179
   83SLPC   H6S 7820   0.198   3.409   3.191  0.3636  0.5841 -0.7837
   83SLPC   C27 7821   0.106   3.497   3.377 -0.3888 -0.4480 -0.1309
   83SLPC   H7R 7822   0.146   3.419   3.446  1.2321 -1.1261 -1.7782
   83SLPC   H7S 7823   0.009   3.531   3.419 -0.5278  0.0702 -0.8595
   83SLPC   C28 7824   0.203   3.619   3.386 -0.2246  0.2821  0.3835
   83SLPC   H8R 7825   0.167   3.678   3.473 -1.5573 -0.4896  0.3695
   83SLPC   H8S 7826   0.186   3.678   3.293 -0.2368  0.9379  0.7927
   83SLPC   C29 7827   0.355   3.587   3.392 -0.3450 -0.2757 -0.4126
   83SLPC   H9R 7828   0.409   3.591   3.296  0.5633  1.2989  0.1245
   83SLPC  C210 7829   0.420   3.546   3.505 -0.4374 -0.0203  0.4184
   83SLPC  H10R 7830   0.526   3.518   3.495 -0.2376  1.0602 -0.6871
   83SLPC  C211 7831   0.371   3.536   3.645 -1.0356  0.4944 -0.3164
   83SLPC  H11R 7832   0.371   3.428   3.670  0.8302 -0.2614 -3.0596
   83SLPC  H11S 7833   0.266   3.572   3.650 -0.8967  0.7446  1.5284
   83SLPC  C212 7834   0.444   3.628   3.737 -0.1178  0.1405  0.6073
   83SLPC  H12R 7835   0.458   3.732   3.703  0.1846  0.4969  1.7671
   83SLPC  C213 7836   0.501   3.589   3.852 -0.2561 -0.6548  0.7160
   83SLPC  H13R 7837   0.551   3.669   3.909  1.6793 -1.2372 -0.0613
   83SLPC  C214 7838   0.503   3.454   3.919  0.1101 -0.0223 -0.4712
   83SLPC  H14R 7839   0.588   3.437   3.988  0.7807 -0.4360 -1.3850
   83SLPC  H14S 7840   0.517   3.369   3.849  0.2183 -1.2189  0.9510
   83SLPC  C215 7841   0.381   3.428   4.011 -0.2103  0.9352  0.6495
   83SLPC  H15R 7842   0.387   3.320   4.034 -3.2682  0.5510  0.0794
   83SLPC  H15S 7843   0.293   3.441   3.944  0.5944  1.6108 -0.3065
   83SLPC  C216 7844   0.370   3.517   4.138 -0.6527  0.0266  0.2485
   83SLPC  H16R 7845   0.365   3.625   4.114 -3.5492  0.4573  2.2286
   83SLPC  H16S 7846   0.457   3.497   4.205 -0.2293  0.7021 -0.0824
   83SLPC  C217 7847   0.242   3.492   4.217  0.0364 -0.0820 -0.0984
   83SLPC  H17R 7848   0.214   3.386   4.203  2.8165 -0.7435 -1.4537
   83SLPC  H17S 7849   0.162   3.557   4.176  2.1795  1.4301 -2.2073
   83SLPC  C218 7850   0.253   3.502   4.366  0.6004 -0.6926 -0.1297
   83SLPC  H18R 7851   0.316   3.416   4.396 -0.7830 -0.9064  2.5266
   83SLPC  H18S 7852   0.156   3.476   4.415  0.2411  0.2521 -0.3096
   83SLPC  H18T 7853   0.282   3.604   4.401 -1.8936  0.8223 -2.1201
   83SLPC   C33 7854   0.282   3.811   2.848  0.0436 -0.9009  0.0355
   83SLPC   H3X 7855   0.212   3.888   2.811  1.3844  0.2011 -0.2918
   83SLPC   H3Y 7856   0.370   3.803   2.780  0.0581  0.5205 -0.1556
   83SLPC   C34 7857   0.348   3.854   2.982 -0.0798  0.2374  0.9007
   83SLPC   H4X 7858   0.384   3.756   3.019  1.1875  0.2125 -0.2791
   83SLPC   H4Y 7859   0.278   3.897   3.056 -1.5916 -2.3755  1.0801
   83SLPC   C35 7860   0.456   3.961   2.956 -0.4416  0.6098 -0.5050
   83SLPC   H5X 7861   0.411   4.048   2.904 -1.7627  1.0652  1.3036
   83SLPC   H5Y 7862   0.528   3.918   2.883 -0.4941  0.1715 -0.3028
   83SLPC   C36 7863   0.542   3.996   3.079 -0.6900  0.1642  0.1321
   83SLPC   H6X 7864   0.621   3.919   3.097 -0.4114  0.7774  1.6772
   83SLPC   H6Y 7865   0.475   4.014   3.165 -2.7139  0.0362 -1.3576
   83SLPC   C37 7866   0.633   4.124   3.058  0.1759 -0.2451  0.0713
   83SLPC   H7X 7867   0.570   4.211   3.032 -0.5183 -0.5644  0.6590
   83SLPC   H7Y 7868   0.716   4.107   2.987 -1.2802 -0.6549 -1.5789
   83SLPC   C38 7869   0.711   4.164   3.191 -0.1283 -0.0097  1.0388
   83SLPC   H8X 7870   0.774   4.251   3.164 -0.1359  0.3317  2.0709
   83SLPC   H8Y 7871   0.778   4.085   3.232 -0.7360 -0.4770  1.1433
   83SLPC   C39 7872   0.632   4.201   3.319 -0.6501 -0.2217 -0.4813
   83SLPC   H9X 7873   0.575   4.107   3.335 -2.2620  0.7580 -0.1753
   83SLPC   H9Y 7874   0.560   4.285   3.301  2.1949  2.0690 -1.9618
   83SLPC  C310 7875   0.728   4.229   3.432 -0.2625 -0.5062  0.3846
   83SLPC  H10X 7876   0.817   4.285   3.396  1.7991 -1.4268  3.5324
   83SLPC  H10Y 7877   0.782   4.139   3.467  2.2341  1.7705  3.0061
   83SLPC  C311 7878   0.667   4.289   3.554 -0.2540 -0.4835 -0.5848
   83SLPC  H11X 7879   0.564   4.247   3.555  0.5380 -2.5462  0.2001
   83SLPC  H11Y 7880   0.632   4.394   3.542 -1.7991 -0.9015  0.0135
   83SLPC  C312 7881   0.751   4.291   3.686 -0.3119 -0.1605 -0.0807
   83SLPC  H12X 7882   0.847   4.342   3.665  0.1411 -1.6958 -2.0634
   83SLPC  H12Y 7883   0.764   4.187   3.723 -1.8510  0.0168  1.0747
   83SLPC  C313 7884   0.666   4.369   3.783  0.6949  0.3216 -0.3586
   83SLPC  H13X 7885   0.559   4.351   3.760  0.5187  1.5009 -0.5275
   83SLPC  H13Y 7886   0.682   4.479   3.784 -0.3805  0.4836  0.2935
   83SLPC  C314 7887   0.684   4.325   3.931  0.1462  0.0469 -0.3088
   83SLPC  H14X 7888   0.682   4.215   3.941 -0.6932  0.2915  4.3960
   83SLPC  H14Y 7889   0.594   4.357   3.988  0.5723  0.7083  0.0099
   83SLPC  C315 7890   0.816   4.376   4.002  0.4261 -0.0123  0.8718
   83SLPC  H15X 7891   0.810   4.487   3.990  1.1379 -0.2244 -2.4391
   83SLPC  H15Y 7892   0.909   4.343   3.950 -0.6737  0.1866 -1.3427
   83SLPC  C316 7893   0.828   4.350   4.153 -0.3669 -0.8131  0.1922
   83SLPC  H16X 7894   0.736   4.381   4.207 -1.6557 -2.7441 -0.7794
   83SLPC  H16Y 7895   0.899   4.422   4.199 -1.0807 -0.1917  0.3264
   83SLPC  C317 7896   0.882   4.212   4.184  0.4301 -0.1179  0.3872
   83SLPC  H17X 7897   0.981   4.191   4.137 -0.9696 -1.0376 -2.3995
   83SLPC  H17Y 7898   0.804   4.143   4.145 -0.4570  0.9783  0.2028
   83SLPC  C318 7899   0.879   4.186   4.330 -0.1806  0.3458 -0.0916
   83SLPC  H18X 7900   0.777   4.202   4.371 -0.7490  0.9537 -1.6731
   83SLPC  H18Y 7901   0.957   4.255   4.369  0.0325 -0.5174  1.0906
   83SLPC  H18Z 7902   0.905   4.078   4.340  0.3571  0.0849 -3.2108
   84SLPC     N 7903   0.148   2.249   1.731  0.5185  0.6864  0.1503
   84SLPC   C13 7904   0.265   2.316   1.680 -0.7490  0.0722  0.1256
   84SLPC  H13A 7905   0.354   2.265   1.714 -0.2851  0.8019  0.0327
   84SLPC  H13B 7906   0.276   2.318   1.572  1.1596 -1.5255  0.2171
   84SLPC  H13C 7907   0.269   2.419   1.713  1.2152  0.0295  0.1440
   84SLPC   C14 7908   0.136   2.127   1.659 -0.5963  0.0804  0.0408
   84SLPC  H14A 7909   0.211   2.057   1.693 -1.4648 -0.0372  1.8521
   84SLPC  H14B 7910   0.040   2.079   1.677  0.0908 -1.0078  0.9489
   84SLPC  H14C 7911   0.161   2.145   1.556 -1.2160  0.4603 -0.0511
   84SLPC   C15 7912   0.023   2.321   1.684 -0.7472  0.5312 -0.5017
   84SLPC  H15A 7913   0.011   2.411   1.743 -2.2250 -0.6532  1.1048
   84SLPC  H15B 7914   0.020   2.333   1.577 -0.2303  3.0260 -0.2910
   84SLPC  H15C 7915  -0.066   2.262   1.701 -0.8566  0.8879  0.1945
   84SLPC   C12 7916   0.153   2.226   1.883  0.4230  0.2527 -0.6173
   84SLPC  H12A 7917   0.239   2.163   1.902  0.4991  0.5537  0.0638
   84SLPC  H12B 7918   0.063   2.181   1.920  0.7066 -2.0456 -2.5015
   84SLPC   C11 7919   0.164   2.352   1.977 -0.3111 -0.4013  0.5141
   84SLPC  H11A 7920   0.261   2.397   1.947 -0.7725  0.5067  0.3112
   84SLPC  H11B 7921   0.164   2.322   2.084 -0.3838  0.0162  0.6339
   84SLPC     P 7922   0.079   2.598   1.993  0.4471 -0.3242  0.4060
   84SLPC   O13 7923   0.180   2.652   1.897  0.0753 -0.1517  0.1098
   84SLPC   O14 7924  -0.046   2.674   2.009 -0.7077 -0.4335 -0.1552
   84SLPC   O12 7925   0.051   2.439   1.960  0.0628 -0.4175 -0.3186
   84SLPC   O11 7926   0.151   2.598   2.135 -0.1294 -0.4243  0.2974
   84SLPC    C1 7927   0.083   2.644   2.255 -0.0596  0.0116  0.9097
   84SLPC    HA 7928   0.164   2.698   2.309  2.1075 -2.7518  0.6582
   84SLPC    HB 7929  -0.017   2.687   2.236 -0.8759 -1.7117  1.1567
   84SLPC    C2 7930   0.049   2.526   2.355  0.3222 -0.0365 -0.1338
   84SLPC    HS 7931   0.041   2.567   2.458  0.3977  0.2353 -0.2368
   84SLPC   O21 7932   0.156   2.432   2.351 -0.2994  0.6528  0.0822
   84SLPC   C21 7933   0.263   2.459   2.432  0.0574 -0.2578  0.4701
   84SLPC   O22 7934   0.275   2.567   2.493  0.2831  0.3604 -0.4904
   84SLPC   C22 7935   0.355   2.334   2.433 -0.0350  0.5818 -0.0306
   84SLPC   H2R 7936   0.304   2.236   2.447 -2.2637  1.8129  1.0921
   84SLPC   H2S 7937   0.401   2.328   2.332  3.1927 -2.1960  1.3892
   84SLPC    C3 7938  -0.081   2.453   2.316  0.4320 -0.0633  0.2884
   84SLPC    HX 7939  -0.074   2.420   2.210  0.2767 -0.5559  0.4264
   84SLPC    HY 7940  -0.165   2.524   2.320  1.4623  1.1641  0.7681
   84SLPC   O31 7941  -0.108   2.358   2.414  0.3585 -0.2067  0.1434
   84SLPC   C31 7942  -0.099   2.231   2.383  0.5079  0.0151 -0.3753
   84SLPC   O32 7943  -0.080   2.185   2.270  0.9570  0.3421  0.4060
   84SLPC   C32 7944  -0.109   2.146   2.508  0.5315 -0.0721 -0.2587
   84SLPC   H2X 7945  -0.103   2.040   2.476  1.0049 -0.4357  0.9587
   84SLPC   H2Y 7946  -0.210   2.159   2.552  1.0075 -1.6174  1.4371
   84SLPC   C23 7947   0.460   2.352   2.541 -0.0607 -0.5149  1.0438
   84SLPC   H3R 7948   0.489   2.458   2.560 -0.3413 -0.3514  0.5728
   84SLPC   H3S 7949   0.552   2.293   2.521 -0.9585 -2.0140  1.2772
   84SLPC   C24 7950   0.410   2.301   2.672  0.0531  0.4813 -0.3656
   84SLPC   H4R 7951   0.394   2.191   2.665 -0.5469  0.4863  0.7162
   84SLPC   H4S 7952   0.312   2.350   2.690 -0.2108 -0.4469  0.9061
   84SLPC   C25 7953   0.504   2.330   2.794 -0.2350 -0.1688 -0.3270
   84SLPC   H5R 7954   0.604   2.286   2.774 -0.7440 -1.7708  0.4111
   84SLPC   H5S 7955   0.474   2.277   2.887  2.8238 -0.0261  0.8607
   84SLPC   C26 7956   0.516   2.474   2.829 -0.3933  0.0781  0.1162
   84SLPC   H6R 7957   0.552   2.523   2.736 -1.1198  1.2371  0.4319
   84SLPC   H6S 7958   0.585   2.481   2.916 -1.2525 -0.4726  0.8663
   84SLPC   C27 7959   0.385   2.534   2.879 -0.1793  0.1657 -0.2182
   84SLPC   H7R 7960   0.342   2.462   2.952  2.4893  1.2236  2.6061
   84SLPC   H7S 7961   0.311   2.547   2.797 -1.3511  1.2328  0.9528
   84SLPC   C28 7962   0.412   2.670   2.957  0.7162 -0.4715  0.2994
   84SLPC   H8R 7963   0.497   2.662   3.029  1.9395  0.8306 -0.9465
   84SLPC   H8S 7964   0.315   2.688   3.009  0.3206 -3.2610  0.7258
   84SLPC   C29 7965   0.455   2.781   2.866  0.5874 -0.5578  1.0024
   84SLPC   H9R 7966   0.544   2.751   2.808  0.6350  0.8187  0.3132
   84SLPC  C210 7967   0.420   2.916   2.874 -0.1143  0.1912  0.5868
   84SLPC  H10R 7968   0.463   2.988   2.802  2.0997 -1.1334  0.5271
   84SLPC  C211 7969   0.326   2.979   2.979  0.0199 -0.6901 -0.3571
   84SLPC  H11R 7970   0.280   2.899   3.041 -0.5222  0.1625  0.3663
   84SLPC  H11S 7971   0.245   3.031   2.923 -2.1467  0.0334  3.1104
   84SLPC  C212 7972   0.387   3.090   3.061  0.3917 -0.0183 -0.3674
   84SLPC  H12R 7973   0.446   3.172   3.018 -0.3125  2.1683  2.5122
   84SLPC  C213 7974   0.381   3.101   3.191 -0.5215  0.9332 -0.8834
   84SLPC  H13R 7975   0.456   3.166   3.238 -1.7533  0.4291  2.0264
   84SLPC  C214 7976   0.295   3.012   3.279 -0.0775 -0.1317 -0.0690
   84SLPC  H14R 7977   0.218   2.962   3.216  0.3907 -2.2642  0.9830
   84SLPC  H14S 7978   0.228   3.073   3.343 -1.0894  0.3760 -1.5455
   84SLPC  C215 7979   0.376   2.897   3.356  0.7180  0.6698  0.7099
   84SLPC  H15R 7980   0.464   2.868   3.295  0.6134  0.2845  0.7426
   84SLPC  H15S 7981   0.317   2.805   3.376  1.2706 -0.1058 -1.0582
   84SLPC  C216 7982   0.431   2.950   3.495  0.0506 -0.3887 -0.1084
   84SLPC  H16R 7983   0.443   3.060   3.494  0.5570 -0.4212 -2.1811
   84SLPC  H16S 7984   0.532   2.910   3.519  0.1060 -0.8618 -1.0975
   84SLPC  C217 7985   0.334   2.926   3.607  0.3502  1.0446 -0.7401
   84SLPC  H17R 7986   0.310   2.821   3.633  1.1096  1.1600  0.4778
   84SLPC  H17S 7987   0.234   2.975   3.605 -1.6252 -2.4537  1.6652
   84SLPC  C218 7988   0.387   2.971   3.743  0.2408 -0.1359 -0.4971
   84SLPC  H18R 7989   0.482   2.918   3.763  0.2313 -0.3332 -0.9745
   84SLPC  H18S 7990   0.315   2.940   3.822  1.6599  0.0415  0.9018
   84SLPC  H18T 7991   0.394   3.082   3.753  0.0417 -0.2082  0.6267
   84SLPC   C33 7992  -0.005   2.176   2.620  0.1777  0.4186 -0.3052
   84SLPC   H3X 7993   0.015   2.283   2.643  1.8261  0.3653 -1.3526
   84SLPC   H3Y 7994   0.094   2.137   2.588  0.5805  1.2026 -0.0209
   84SLPC   C34 7995  -0.016   2.101   2.760  0.1755 -0.5763  0.2592
   84SLPC   H4X 7996  -0.096   2.023   2.762 -0.7523  0.2973 -1.4342
   84SLPC   H4Y 7997  -0.047   2.181   2.831 -0.4838  2.1129 -2.8385
   84SLPC   C35 7998   0.108   2.029   2.812 -0.1548  0.1643  0.2378
   84SLPC   H5X 7999   0.188   2.105   2.831  0.3818 -0.5098  0.7467
   84SLPC   H5Y 8000   0.139   1.959   2.732  0.0073 -1.6493  1.7999
   84SLPC   C36 8001   0.089   1.948   2.943 -0.6401  0.4139  0.0742
   84SLPC   H6X 8002   0.156   1.859   2.938 -2.1822 -0.7856 -0.4071
   84SLPC   H6Y 8003  -0.012   1.900   2.948 -0.1627 -0.5472  0.8994
   84SLPC   C37 8004   0.103   2.036   3.058 -0.2193  0.0152 -0.2750
   84SLPC   H7X 8005   0.029   2.119   3.053  0.2216  0.6812  2.5045
   84SLPC   H7Y 8006   0.203   2.079   3.079  0.6255 -2.3579  0.8780
   84SLPC   C38 8007   0.070   1.964   3.193 -0.7855 -0.0599  0.2303
   84SLPC   H8X 8008   0.140   1.880   3.213 -0.0143  0.1959 -1.2399
   84SLPC   H8Y 8009  -0.032   1.920   3.190  0.1237 -2.3460  0.9819
   84SLPC   C39 8010   0.093   2.055   3.314  0.0010 -0.1899 -0.0854
   84SLPC   H9X 8011   0.035   2.149   3.308  1.5799  1.0435  2.2556
   84SLPC   H9Y 8012   0.201   2.082   3.321  0.3581 -1.9419  3.4171
   84SLPC  C310 8013   0.039   1.992   3.440  0.2135 -0.4137 -0.6639
   84SLPC  H10X 8014   0.080   1.889   3.447  0.4689 -0.2219  1.0724
   84SLPC  H10Y 8015  -0.071   1.982   3.449  0.1221  1.6573  1.2906
   84SLPC  C311 8016   0.088   2.064   3.569 -0.1806 -0.1644 -0.0112
   84SLPC  H11X 8017   0.036   2.159   3.595  2.4205  1.3610  0.0575
   84SLPC  H11Y 8018   0.192   2.093   3.542 -0.3436  0.0467 -0.4281
   84SLPC  C312 8019   0.087   1.988   3.702 -0.0751  0.8630 -0.6837
   84SLPC  H12X 8020   0.147   1.896   3.692 -0.3179  0.6460 -0.1602
   84SLPC  H12Y 8021  -0.016   1.956   3.728  0.5249  0.9976  2.1742
   84SLPC  C313 8022   0.149   2.076   3.815 -0.3460 -0.6844  0.4967
   84SLPC  H13X 8023   0.056   2.122   3.855  0.1755  0.0422  0.9080
   84SLPC  H13Y 8024   0.205   2.160   3.768 -0.5193 -1.2584 -0.7563
   84SLPC  C314 8025   0.224   1.993   3.917 -0.3339  0.6403  0.3242
   84SLPC  H14X 8026   0.250   2.059   4.003 -0.4336  1.0684  0.0251
   84SLPC  H14Y 8027   0.320   1.961   3.872 -1.0606  0.9323 -1.5206
   84SLPC  C315 8028   0.155   1.862   3.969  0.1883  0.1332 -0.2679
   84SLPC  H15X 8029   0.226   1.807   4.035  0.6917 -1.8342 -2.3406
   84SLPC  H15Y 8030   0.147   1.794   3.882 -0.7431  0.8175 -0.7265
   84SLPC  C316 8031   0.015   1.881   4.038  0.2893  0.4856  0.0709
   84SLPC  H16X 8032  -0.054   1.908   3.954  2.1042 -0.0201 -1.6458
   84SLPC  H16Y 8033   0.018   1.964   4.112 -1.9586 -0.1446  0.9644
   84SLPC  C317 8034  -0.039   1.753   4.106 -0.5913  0.1436  0.1780
   84SLPC  H17X 8035  -0.050   1.678   4.025  1.1551 -2.0906  1.8980
   84SLPC  H17Y 8036  -0.140   1.774   4.146 -0.6673 -0.3400  0.2411
   84SLPC  C318 8037   0.058   1.683   4.198  0.0095 -0.7717 -0.1038
   84SLPC  H18X 8038   0.113   1.760   4.256  2.2852  0.3432 -3.4434
   84SLPC  H18Y 8039   0.141   1.621   4.158  2.6395  1.6863  1.1763
   84SLPC  H18Z 8040   0.003   1.621   4.272 -0.2127 -1.1403 -0.5746
   85SLPC     N 8041   5.164   0.438   1.973  0.0766 -0.4226  0.0651
   85SLPC   C13 8042   5.214   0.340   1.873 -0.1296  0.0772 -0.4507
   85SLPC  H13A 8043   5.310   0.359   1.828  0.5529 -0.3795  0.7726
   85SLPC  H13B 8044   5.213   0.244   1.923 -2.1480  1.6636  2.9710
   85SLPC  H13C 8045   5.140   0.330   1.794  0.5207  0.0198 -1.0593
   85SLPC   C14 8046   5.133   0.571   1.907  0.3415  0.6118  0.1576
   85SLPC  H14A 8047   5.223   0.628   1.891 -0.3815  1.7890  0.1324
   85SLPC  H14B 8048   5.081   0.555   1.814  2.8593 -4.5042 -0.7035
   85SLPC  H14C 8049   5.068   0.619   1.979  0.6006 -0.7229  1.3327
   85SLPC   C15 8050   5.263   0.452   2.082  1.0336  0.0055 -0.4765
   85SLPC  H15A 8051   5.272   0.358   2.133  0.7213  0.8474  1.2014
   85SLPC  H15B 8052   5.358   0.494   2.050  1.9622 -0.8240  1.0537
   85SLPC  H15C 8053   5.220   0.526   2.147 -1.7236 -1.5578 -0.4154
   85SLPC   C12 8054   5.021   0.391   2.030 -0.9933 -0.0785  0.1792
   85SLPC  H12A 8055   5.039   0.289   2.063 -2.0183 -0.8343 -1.4722
   85SLPC  H12B 8056   4.961   0.388   1.940 -0.3776  0.3575 -0.2572
   85SLPC   C11 8057   4.944   0.473   2.137  0.0159  0.5336  0.1659
   85SLPC  H11A 8058   5.012   0.494   2.223  0.3261 -0.4011  0.1595
   85SLPC  H11B 8059   4.868   0.402   2.176 -0.0825 -0.0210 -1.0083
   85SLPC     P 8060   4.776   0.586   1.974  0.2301  0.2308 -0.1592
   85SLPC   O13 8061   4.759   0.725   1.939  0.3327  0.3066  0.1006
   85SLPC   O14 8062   4.814   0.484   1.874 -0.5788 -0.0904  0.1303
   85SLPC   O12 8063   4.884   0.588   2.091  0.0911  0.2383 -0.3433
   85SLPC   O11 8064   4.644   0.543   2.055  0.3941 -0.2415 -0.0703
   85SLPC    C1 8065   4.628   0.606   2.185  0.1030  0.3299  0.5074
   85SLPC    HA 8066   4.687   0.545   2.257 -0.2948 -2.9945 -1.7560
   85SLPC    HB 8067   4.668   0.710   2.184 -1.5104  0.9938  0.0807
   85SLPC    C2 8068   4.483   0.598   2.233  0.2151 -0.0143  0.6250
   85SLPC    HS 8069   4.472   0.669   2.317  0.1304 -1.5556  1.9632
   85SLPC   O21 8070   4.446   0.465   2.271 -0.4310 -0.0261  0.8445
   85SLPC   C21 8071   4.439   0.447   2.398 -0.7930 -0.4501 -0.2124
   85SLPC   O22 8072   4.477   0.526   2.487  0.5076  0.5875 -0.3445
   85SLPC   C22 8073   4.386   0.311   2.424  0.1096  0.0770 -0.3453
   85SLPC   H2R 8074   4.363   0.266   2.325 -2.2926  2.0001 -0.7661
   85SLPC   H2S 8075   4.453   0.236   2.470 -2.3590 -1.2768  1.2924
   85SLPC    C3 8076   4.389   0.638   2.113 -0.6143 -0.3397  0.3657
   85SLPC    HX 8077   4.411   0.561   2.036  2.1050  0.7417 -0.0454
   85SLPC    HY 8078   4.419   0.733   2.064 -1.4266  0.2338  0.9597
   85SLPC   O31 8079   4.252   0.643   2.151  0.6677 -0.0788 -0.4185
   85SLPC   C31 8080   4.210   0.763   2.193 -0.1534 -0.1406 -0.6486
   85SLPC   O32 8081   4.282   0.856   2.220 -0.1359 -0.3730 -0.3002
   85SLPC   C32 8082   4.065   0.742   2.235  0.2837  0.3587 -0.0425
   85SLPC   H2X 8083   4.018   0.656   2.181  0.1502 -0.0973  0.7779
   85SLPC   H2Y 8084   4.002   0.828   2.205 -0.6712  0.0529  1.0249
   85SLPC   C23 8085   4.260   0.310   2.507  0.6195  0.5746 -0.0920
   85SLPC   H3R 8086   4.200   0.224   2.469  1.5753 -0.1893  0.1010
   85SLPC   H3S 8087   4.205   0.400   2.471  2.3109  1.1156 -1.4535
   85SLPC   C24 8088   4.280   0.318   2.656  0.1372 -1.3455 -0.4787
   85SLPC   H4R 8089   4.319   0.416   2.690  0.4458 -1.3183 -0.8999
   85SLPC   H4S 8090   4.358   0.247   2.690  0.9986 -0.3696 -0.3981
   85SLPC   C25 8091   4.152   0.300   2.740 -0.8880 -0.0070  0.1895
   85SLPC   H5R 8092   4.079   0.378   2.710 -1.1453 -0.0760  0.6367
   85SLPC   H5S 8093   4.107   0.202   2.713 -1.5850 -0.0505  1.4607
   85SLPC   C26 8094   4.168   0.307   2.894  0.1536  0.5246  0.1642
   85SLPC   H6R 8095   4.225   0.392   2.938  0.9165  0.4695 -0.7028
   85SLPC   H6S 8096   4.221   0.212   2.916 -2.7389 -0.9497  1.3936
   85SLPC   C27 8097   4.043   0.297   2.973  0.0541 -0.6068 -0.2927
   85SLPC   H7R 8098   3.999   0.197   2.958 -0.7390 -0.0830 -1.5880
   85SLPC   H7S 8099   3.984   0.373   2.918  0.3144  1.0867  1.6162
   85SLPC   C28 8100   4.056   0.342   3.117  0.5972 -0.4678 -0.0680
   85SLPC   H8R 8101   4.104   0.442   3.115 -1.4028  0.5267 -0.8035
   85SLPC   H8S 8102   4.125   0.274   3.173  0.5749 -0.1134  0.3968
   85SLPC   C29 8103   3.940   0.354   3.209  0.1109 -0.3294 -0.3751
   85SLPC   H9R 8104   3.848   0.296   3.193  0.2941 -0.9933  0.9059
   85SLPC  C210 8105   3.943   0.423   3.325 -0.7398  0.3472 -0.1707
   85SLPC  H10R 8106   3.861   0.400   3.395  0.3798  0.4115  1.2314
   85SLPC  C211 8107   4.050   0.515   3.379  0.1407  0.2581  0.7792
   85SLPC  H11R 8108   4.137   0.514   3.310 -1.1225 -1.7108 -0.9073
   85SLPC  H11S 8109   4.092   0.459   3.465  0.2962 -2.0131 -0.6849
   85SLPC  C212 8110   4.007   0.653   3.421  0.7535  0.4116 -1.2337
   85SLPC  H12R 8111   3.928   0.645   3.497  0.7195 -2.5099 -1.4563
   85SLPC  C213 8112   4.056   0.770   3.369  0.0887  0.2939 -0.2707
   85SLPC  H13R 8113   4.031   0.867   3.415 -1.4849 -0.3173  0.2405
   85SLPC  C214 8114   4.143   0.777   3.250 -1.2770 -0.0843  0.9316
   85SLPC  H14R 8115   4.223   0.701   3.244 -1.3839 -0.1159 -0.4363
   85SLPC  H14S 8116   4.203   0.870   3.258 -0.7204 -0.5436  2.4131
   85SLPC  C215 8117   4.075   0.763   3.112 -0.3097  0.1053 -0.0004
   85SLPC  H15R 8118   3.982   0.823   3.096 -0.4365 -0.1221 -0.1254
   85SLPC  H15S 8119   4.029   0.662   3.105 -2.9525  1.2833 -0.8951
   85SLPC  C216 8120   4.172   0.768   2.995 -0.2115 -0.1929 -0.4363
   85SLPC  H16R 8121   4.253   0.697   3.020  0.1576 -0.5792 -2.5912
   85SLPC  H16S 8122   4.205   0.874   2.996 -4.1848  1.2708  1.7312
   85SLPC  C217 8123   4.115   0.741   2.859 -0.2863  0.8081 -0.6620
   85SLPC  H17R 8124   4.032   0.812   2.837 -0.8409  0.7057  0.9981
   85SLPC  H17S 8125   4.068   0.640   2.860  0.9520  0.1479  2.4312
   85SLPC  C218 8126   4.213   0.751   2.738  0.0977 -0.7103 -0.1970
   85SLPC  H18R 8127   4.288   0.671   2.756  0.2086 -0.6234 -0.2706
   85SLPC  H18S 8128   4.262   0.850   2.741  1.0684 -1.1832  0.0939
   85SLPC  H18T 8129   4.161   0.737   2.641  1.8611 -2.4369 -0.9598
   85SLPC   C33 8130   4.037   0.722   2.382 -0.1218  0.2417 -0.7999
   85SLPC   H3X 8131   4.076   0.808   2.440 -0.3577 -1.9126  2.7944
   85SLPC   H3Y 8132   4.077   0.625   2.419 -0.9897 -0.0070 -0.5124
   85SLPC   C34 8133   3.887   0.714   2.413  0.1183  0.5042 -0.1140
   85SLPC   H4X 8134   3.849   0.633   2.347  0.7435  0.0742  0.0367
   85SLPC   H4Y 8135   3.840   0.810   2.383 -0.9054 -0.6076 -2.2808
   85SLPC   C35 8136   3.851   0.679   2.553 -0.5973 -0.1249 -0.3635
   85SLPC   H5X 8137   3.874   0.761   2.624  0.2686 -0.5617 -0.1102
   85SLPC   H5Y 8138   3.916   0.593   2.583 -0.3572 -1.2008 -3.6143
   85SLPC   C36 8139   3.713   0.635   2.577  0.0281 -0.6438 -0.2561
   85SLPC   H6X 8140   3.713   0.526   2.556 -0.3596 -0.5587 -0.7391
   85SLPC   H6Y 8141   3.645   0.682   2.502  0.7821  1.0373  0.0703
   85SLPC   C37 8142   3.667   0.654   2.721 -0.1781 -0.4656 -0.4403
   85SLPC   H7X 8143   3.558   0.650   2.746  0.2566 -1.1722  1.4964
   85SLPC   H7Y 8144   3.699   0.754   2.756  0.5443 -1.2037  1.1063
   85SLPC   C38 8145   3.728   0.551   2.828  0.7685 -0.3381  0.2707
   85SLPC   H8X 8146   3.828   0.516   2.794  0.4766 -0.2348 -0.7169
   85SLPC   H8Y 8147   3.658   0.466   2.829 -0.6308  0.7504  2.3069
   85SLPC   C39 8148   3.733   0.610   2.968 -0.0314 -0.1272  0.5868
   85SLPC   H9X 8149   3.820   0.678   2.971 -0.1577  0.0224  1.0374
   85SLPC   H9Y 8150   3.755   0.533   3.045  1.9876  1.2936  1.5089
   85SLPC  C310 8151   3.610   0.691   3.007  0.6039  0.1544  0.5295
   85SLPC  H10X 8152   3.514   0.635   3.004 -0.2483  1.6209 -1.4223
   85SLPC  H10Y 8153   3.601   0.779   2.940  1.1208 -0.4202 -0.3197
   85SLPC  C311 8154   3.629   0.736   3.153  0.2917  0.5162  0.2495
   85SLPC  H11X 8155   3.562   0.820   3.182  1.3893  1.6855 -0.5619
   85SLPC  H11Y 8156   3.731   0.774   3.175 -0.0598  1.2965  0.5702
   85SLPC  C312 8157   3.596   0.625   3.259  0.2358 -0.4591  0.3273
   85SLPC  H12X 8158   3.660   0.536   3.243 -2.3320 -2.1634 -1.2236
   85SLPC  H12Y 8159   3.495   0.582   3.245  0.4895 -1.2710  0.9579
   85SLPC  C313 8160   3.621   0.697   3.396 -0.0170  0.4443  0.3966
   85SLPC  H13X 8161   3.552   0.783   3.398 -0.8328 -0.1484 -1.0351
   85SLPC  H13Y 8162   3.724   0.738   3.403  0.2069 -0.2616  1.8302
   85SLPC  C314 8163   3.608   0.596   3.508  0.1920  0.6598  0.1163
   85SLPC  H14X 8164   3.680   0.513   3.496  0.1366  0.8787 -2.2468
   85SLPC  H14Y 8165   3.509   0.547   3.515  0.9154 -0.6758  1.7579
   85SLPC  C315 8166   3.637   0.663   3.645  0.0777  0.2172  0.2292
   85SLPC  H15X 8167   3.546   0.723   3.669 -0.9428 -1.7225  1.4739
   85SLPC  H15Y 8168   3.715   0.741   3.631 -0.0946  0.2728 -0.4483
   85SLPC  C316 8169   3.651   0.573   3.763 -0.0774 -0.4535 -0.0185
   85SLPC  H16X 8170   3.747   0.518   3.761 -0.2613 -0.7641 -0.3694
   85SLPC  H16Y 8171   3.569   0.500   3.777 -1.1816  1.0728  2.1725
   85SLPC  C317 8172   3.646   0.658   3.890 -0.5237  0.3858 -0.3645
   85SLPC  H17X 8173   3.709   0.749   3.880 -0.5747  1.1966  4.3782
   85SLPC  H17Y 8174   3.696   0.594   3.967  2.3438  0.6190 -1.8993
   85SLPC  C318 8175   3.505   0.699   3.934 -0.0741  0.0963  0.0517
   85SLPC  H18X 8176   3.496   0.761   4.026 -1.2297 -0.3400  0.2457
   85SLPC  H18Y 8177   3.449   0.605   3.952 -2.8348  1.6571  0.0935
   85SLPC  H18Z 8178   3.459   0.760   3.853 -0.1375  3.0151  2.1299
   86SLPC     N 8179   4.402   4.511   1.889  0.7291 -0.0973 -0.4666
   86SLPC   C13 8180   4.516   4.472   1.801  0.0419  0.4823  0.6934
   86SLPC  H13A 8181   4.492   4.383   1.745  3.7845 -0.6903  0.6485
   86SLPC  H13B 8182   4.549   4.546   1.730  0.8658 -1.5550 -1.1733
   86SLPC  H13C 8183   4.591   4.430   1.867 -1.1505 -1.1895  1.0454
   86SLPC   C14 8184   4.288   4.577   1.814 -0.4662  0.0066 -0.3271
   86SLPC  H14A 8185   4.228   4.495   1.779 -1.3712  0.4899  0.0453
   86SLPC  H14B 8186   4.235   4.645   1.880 -3.1037 -0.8296 -1.4771
   86SLPC  H14C 8187   4.319   4.634   1.728 -0.6493  0.7649  0.0938
   86SLPC   C15 8188   4.450   4.624   1.977 -0.1173  0.2105  0.6243
   86SLPC  H15A 8189   4.371   4.654   2.043 -0.2074 -1.3553  1.2698
   86SLPC  H15B 8190   4.544   4.589   2.019  0.8240  0.1904 -1.3470
   86SLPC  H15C 8191   4.471   4.704   1.907 -1.3248  0.1587  0.1870
   86SLPC   C12 8192   4.355   4.401   1.985  0.2268  0.2122  0.6467
   86SLPC  H12A 8193   4.291   4.440   2.062 -1.0604 -1.3372  0.4194
   86SLPC  H12B 8194   4.437   4.353   2.036  0.8928  0.1568 -0.4287
   86SLPC   C11 8195   4.270   4.297   1.905 -0.0930 -0.0605  0.8600
   86SLPC  H11A 8196   4.260   4.213   1.976 -1.4005 -2.1948 -1.6818
   86SLPC  H11B 8197   4.318   4.267   1.810 -0.2082  3.6144 -0.5315
   86SLPC     P 8198   4.015   4.255   1.829 -0.1005  0.2058  0.7165
   86SLPC   O13 8199   3.965   4.302   1.699  0.4114  0.3801 -0.3937
   86SLPC   O14 8200   4.047   4.115   1.840  0.2346  0.5596 -0.2210
   86SLPC   O12 8201   4.134   4.345   1.879  0.1758  0.7591  0.1299
   86SLPC   O11 8202   3.903   4.285   1.927 -0.5802  0.0057 -0.0207
   86SLPC    C1 8203   3.854   4.421   1.946  0.2820 -0.9314  0.3387
   86SLPC    HA 8204   3.885   4.490   1.865 -3.1668  0.9160  0.4227
   86SLPC    HB 8205   3.744   4.425   1.962  0.2368  0.2757 -0.1542
   86SLPC    C2 8206   3.911   4.488   2.077 -0.3644  0.0345 -0.0699
   86SLPC    HS 8207   4.018   4.460   2.078 -0.3114  0.2242 -0.3282
   86SLPC   O21 8208   3.835   4.421   2.180  0.1333 -0.4025 -0.7290
   86SLPC   C21 8209   3.889   4.402   2.299  0.3893 -0.1385  0.9276
   86SLPC   O22 8210   4.007   4.422   2.327  0.1929 -0.0933 -0.5140
   86SLPC   C22 8211   3.789   4.361   2.402  0.6527  0.1806  0.3237
   86SLPC   H2R 8212   3.727   4.450   2.426 -0.2177 -0.1794 -0.5018
   86SLPC   H2S 8213   3.718   4.293   2.349  0.2356  0.9924 -0.1726
   86SLPC    C3 8214   3.905   4.641   2.083  0.7752  0.6761  0.1942
   86SLPC    HX 8215   3.800   4.673   2.099 -0.4475 -1.8068 -2.1851
   86SLPC    HY 8216   3.950   4.690   1.994  3.5192 -1.1408  0.4437
   86SLPC   O31 8217   3.978   4.686   2.204  0.6305  0.2275  0.3763
   86SLPC   C31 8218   4.105   4.708   2.181  0.6540  0.5364 -0.0138
   86SLPC   O32 8219   4.161   4.698   2.074 -0.3100 -0.0348  0.3730
   86SLPC   C32 8220   4.167   4.752   2.311 -0.5472 -0.4377  0.2278
   86SLPC   H2X 8221   4.158   4.663   2.377 -2.1963 -1.7780 -1.6817
   86SLPC   H2Y 8222   4.094   4.832   2.336 -0.8763 -0.7154  0.1658
   86SLPC   C23 8223   3.855   4.303   2.529 -0.4350  0.4274  0.0874
   86SLPC   H3R 8224   3.930   4.227   2.498  0.9127  1.6271  0.3131
   86SLPC   H3S 8225   3.769   4.252   2.577 -0.6413 -0.6650 -1.3779
   86SLPC   C24 8226   3.914   4.408   2.622 -0.0257 -0.1093 -0.3160
   86SLPC   H4R 8227   3.839   4.490   2.634  1.5150  1.2032  0.8171
   86SLPC   H4S 8228   3.993   4.471   2.575 -0.5563  1.3282  0.6366
   86SLPC   C25 8229   3.939   4.355   2.757  0.6001 -0.2571  0.2521
   86SLPC   H5R 8230   4.016   4.277   2.740  0.6059 -0.1356 -0.3082
   86SLPC   H5S 8231   3.851   4.310   2.807 -0.3425  1.9426  0.7195
   86SLPC   C26 8232   4.001   4.461   2.861  0.1243 -0.4703  0.0737
   86SLPC   H6R 8233   3.921   4.508   2.923  1.5020  1.7390  0.2707
   86SLPC   H6S 8234   4.061   4.543   2.818  1.0476  0.1316  2.4133
   86SLPC   C27 8235   4.093   4.388   2.955  0.5400  0.3824 -0.4879
   86SLPC   H7R 8236   4.147   4.465   3.014 -0.6091  0.1180  0.9924
   86SLPC   H7S 8237   4.167   4.324   2.904  1.6920 -2.1823  3.8468
   86SLPC   C28 8238   4.015   4.300   3.062  0.3478 -0.0730  0.1715
   86SLPC   H8R 8239   3.949   4.241   2.995 -2.5468  2.8405  0.1855
   86SLPC   H8S 8240   3.965   4.383   3.118  1.3260  0.2155  0.6326
   86SLPC   C29 8241   4.110   4.217   3.136  0.5420  0.2959  0.3411
   86SLPC   H9R 8242   4.137   4.127   3.079 -1.7634 -0.0307 -0.3469
   86SLPC  C210 8243   4.154   4.240   3.266  0.4362  0.3389  0.1280
   86SLPC  H10R 8244   4.236   4.174   3.299  1.2417  1.0191 -0.4820
   86SLPC  C211 8245   4.103   4.345   3.363 -0.2170  0.1893 -0.0721
   86SLPC  H11R 8246   4.021   4.297   3.421  0.6540 -0.5228  0.5974
   86SLPC  H11S 8247   4.047   4.423   3.307 -3.5736 -3.3114 -2.0745
   86SLPC  C212 8248   4.207   4.406   3.450 -0.0384  0.3844  0.0078
   86SLPC  H12R 8249   4.276   4.476   3.400 -0.6125  0.7310 -0.3067
   86SLPC  C213 8250   4.242   4.385   3.579 -0.0197  0.5136 -0.6593
   86SLPC  H13R 8251   4.322   4.443   3.625 -1.1463  0.9823  0.7950
   86SLPC  C214 8252   4.177   4.277   3.663 -0.2061 -0.1723 -0.3122
   86SLPC  H14R 8253   4.094   4.228   3.607 -1.0962 -0.5150  1.2686
   86SLPC  H14S 8254   4.142   4.317   3.760 -0.2184  0.1447 -0.4458
   86SLPC  C215 8255   4.274   4.150   3.707 -0.5185  0.2809  0.1402
   86SLPC  H15R 8256   4.350   4.199   3.772 -0.5367 -1.8370  1.8721
   86SLPC  H15S 8257   4.319   4.103   3.617 -0.3468  0.1209  0.3098
   86SLPC  C216 8258   4.195   4.036   3.767  0.1500 -0.1396 -0.3207
   86SLPC  H16R 8259   4.143   3.977   3.689  2.8000 -1.7604 -0.9688
   86SLPC  H16S 8260   4.124   4.087   3.837  1.7579  1.1919  0.4233
   86SLPC  C217 8261   4.289   3.950   3.854  0.3680 -0.4968  0.2512
   86SLPC  H17R 8262   4.326   4.001   3.945 -2.0944 -0.4887  1.3486
   86SLPC  H17S 8263   4.376   3.906   3.801 -0.5594 -3.8103  1.2021
   86SLPC  C218 8264   4.212   3.827   3.912 -0.0191 -0.3139 -0.3656
   86SLPC  H18R 8265   4.174   3.757   3.835  1.4310 -0.6802 -0.7957
   86SLPC  H18S 8266   4.125   3.858   3.973  0.4859  3.0612 -1.1226
   86SLPC  H18T 8267   4.279   3.763   3.973 -0.0682 -0.3296 -0.3288
   86SLPC   C33 8268   4.305   4.812   2.307  0.7082 -0.0558  0.0170
   86SLPC   H3X 8269   4.318   4.867   2.211  0.3685 -2.1197 -1.2605
   86SLPC   H3Y 8270   4.374   4.725   2.305  0.3118 -0.4981  2.6343
   86SLPC   C34 8271   4.334   4.910   2.427  0.2300  0.0574  0.7978
   86SLPC   H4X 8272   4.253   4.986   2.437 -0.4172 -0.3919 -0.6332
   86SLPC   H4Y 8273   4.429   4.966   2.418  1.6135 -2.0194  1.7100
   86SLPC   C35 8274   4.335   4.838   2.560 -0.2651  0.0141 -0.0438
   86SLPC   H5X 8275   4.384   4.738   2.554 -0.6696 -0.1800 -0.1467
   86SLPC   H5Y 8276   4.232   4.812   2.592 -0.2864  2.4200  2.1776
   86SLPC   C36 8277   4.392   4.928   2.679  0.2725 -0.7060 -0.5801
   86SLPC   H6X 8278   4.346   5.028   2.692  1.7041  0.1463 -1.7782
   86SLPC   H6Y 8279   4.495   4.961   2.653 -0.3978  3.5026  1.2902
   86SLPC   C37 8280   4.390   4.861   2.815 -0.4589 -0.1939  0.6004
   86SLPC   H7X 8281   4.495   4.832   2.841 -1.1045 -3.1239  0.3655
   86SLPC   H7Y 8282   4.325   4.772   2.799  1.0250 -0.9844 -1.5092
   86SLPC   C38 8283   4.346   4.962   2.928 -0.1111 -0.1399 -0.7915
   86SLPC   H8X 8284   4.239   4.985   2.908 -0.3380 -0.3771  0.1246
   86SLPC   H8Y 8285   4.401   5.058   2.922 -1.0117  0.4024 -0.5452
   86SLPC   C39 8286   4.348   4.888   3.064  0.1771 -0.2255  0.2472
   86SLPC   H9X 8287   4.453   4.853   3.075  0.1189 -1.8795 -3.1303
   86SLPC   H9Y 8288   4.283   4.797   3.070  0.3227 -0.2769  1.0980
   86SLPC  C310 8289   4.306   4.985   3.183  0.0175  0.3068 -0.8478
   86SLPC  H10X 8290   4.195   4.982   3.189  0.0463 -0.3077 -0.5534
   86SLPC  H10Y 8291   4.333   5.091   3.163  0.0317  0.7603  1.3252
   86SLPC  C311 8292   4.372   4.945   3.320  0.2612 -0.4312  0.1027
   86SLPC  H11X 8293   4.482   4.953   3.317  0.3164 -1.2291 -0.5021
   86SLPC  H11Y 8294   4.356   4.835   3.324 -0.9399 -0.3099 -0.6104
   86SLPC  C312 8295   4.321   5.023   3.433  0.2633 -0.4199 -0.2961
   86SLPC  H12X 8296   4.215   4.993   3.448 -0.3574  1.0867 -1.4003
   86SLPC  H12Y 8297   4.326   5.134   3.422  1.4236 -0.4990 -0.7027
   86SLPC  C313 8298   4.404   4.987   3.556  0.0900 -0.4583 -0.2870
   86SLPC  H13X 8299   4.510   5.011   3.537 -0.2126 -0.4302 -2.1476
   86SLPC  H13Y 8300   4.390   4.879   3.575 -0.7996 -0.3547 -0.2939
   86SLPC  C314 8301   4.353   5.050   3.690  0.0975  0.3949 -0.3807
   86SLPC  H14X 8302   4.427   5.011   3.763 -0.6714  1.0850  0.7932
   86SLPC  H14Y 8303   4.255   5.014   3.727 -0.3269  0.9038 -0.9741
   86SLPC  C315 8304   4.350   5.205   3.697 -0.5509  0.0988  1.4339
   86SLPC  H15X 8305   4.335   5.237   3.802  3.7708 -2.8046  3.1656
   86SLPC  H15Y 8306   4.264   5.252   3.643 -0.8097  2.7169  3.8556
   86SLPC  C316 8307   4.488   5.277   3.666 -0.6553 -1.5204  0.4975
   86SLPC  H16X 8308   4.517   5.242   3.564  2.7605  0.3648  0.6602
   86SLPC  H16Y 8309   4.565   5.246   3.740 -0.9649 -0.9576  1.0619
   86SLPC  C317 8310   4.479   5.428   3.668 -0.7060  0.5990  0.1707
   86SLPC  H17X 8311   4.442   5.469   3.764  0.9860  0.6300  0.8396
   86SLPC  H17Y 8312   4.427   5.470   3.579  1.0919  1.9172 -0.3231
   86SLPC  C318 8313   4.621   5.489   3.642 -0.0514  0.0120 -0.1658
   86SLPC  H18X 8314   4.663   5.454   3.545  0.7535  0.7440 -0.0940
   86SLPC  H18Y 8315   4.696   5.457   3.716 -0.8604 -0.4286  0.4798
   86SLPC  H18Z 8316   4.621   5.600   3.635  1.0958  0.0925  0.8631
   87SLPC     N 8317   6.427   1.521   1.589 -0.1240 -0.5988 -0.5032
   87SLPC   C13 8318   6.503   1.439   1.500 -0.2697 -0.1300  0.3561
   87SLPC  H13A 8319   6.578   1.378   1.549 -0.9123 -1.0474  0.2274
   87SLPC  H13B 8320   6.436   1.368   1.453 -0.7973  0.6450 -0.0956
   87SLPC  H13C 8321   6.558   1.493   1.425 -1.6278 -0.4091 -0.8998
   87SLPC   C14 8322   6.318   1.593   1.513 -0.3009  0.1348 -0.5811
   87SLPC  H14A 8323   6.352   1.638   1.421  1.2185 -3.0564 -1.7529
   87SLPC  H14B 8324   6.248   1.520   1.473 -1.3363  1.4133 -1.1668
   87SLPC  H14C 8325   6.268   1.664   1.577 -1.0965 -0.6693 -0.2763
   87SLPC   C15 8326   6.527   1.620   1.638 -0.3728 -0.5227 -0.0380
   87SLPC  H15A 8327   6.626   1.583   1.658  0.4228  1.6728  0.4234
   87SLPC  H15B 8328   6.535   1.709   1.577  1.2901 -0.5413  0.1050
   87SLPC  H15C 8329   6.490   1.660   1.732  0.3316  0.1043 -0.0174
   87SLPC   C12 8330   6.366   1.440   1.694 -0.2038  0.3637  0.2776
   87SLPC  H12A 8331   6.444   1.386   1.746 -0.3508  0.5771  0.7195
   87SLPC  H12B 8332   6.307   1.365   1.641  2.7726 -0.7231 -1.7563
   87SLPC   C11 8333   6.280   1.521   1.796 -0.2154  0.0256 -0.4547
   87SLPC  H11A 8334   6.221   1.448   1.854  0.4526  1.4665  2.1903
   87SLPC  H11B 8335   6.212   1.598   1.753 -1.3179 -1.5519 -1.6444
   87SLPC     P 8336   6.363   1.717   1.961 -0.0840  0.2433  0.3812
   87SLPC   O13 8337   6.453   1.711   2.082 -0.0095  0.1250  0.3210
   87SLPC   O14 8338   6.387   1.822   1.855 -0.5258 -0.0864 -0.6295
   87SLPC   O12 8339   6.374   1.572   1.891  0.8623 -0.5146  0.3310
   87SLPC   O11 8340   6.213   1.729   1.996 -0.5794 -0.3783 -0.1869
   87SLPC    C1 8341   6.122   1.629   2.043  0.6235  0.0685 -0.4270
   87SLPC    HA 8342   6.056   1.597   1.959 -0.0674  0.8924 -0.2165
   87SLPC    HB 8343   6.178   1.542   2.083 -1.1076 -1.3497 -0.9392
   87SLPC    C2 8344   6.028   1.678   2.169 -0.1513  0.2377  0.2021
   87SLPC    HS 8345   5.961   1.762   2.139  0.7208  0.4833 -1.1715
   87SLPC   O21 8346   6.111   1.713   2.282  0.0090  0.8675 -0.1520
   87SLPC   C21 8347   6.131   1.842   2.311 -0.3626 -0.4286 -0.0606
   87SLPC   O22 8348   6.083   1.938   2.249 -0.3821 -0.4992 -0.1449
   87SLPC   C22 8349   6.236   1.858   2.419  0.0474  0.3917  0.3330
   87SLPC   H2R 8350   6.236   1.764   2.479 -1.3458  1.7158  2.5327
   87SLPC   H2S 8351   6.340   1.872   2.381 -0.1228  1.6893  0.3075
   87SLPC    C3 8352   5.937   1.565   2.213 -0.1747  0.7739 -0.7629
   87SLPC    HX 8353   5.987   1.466   2.224  0.7675  1.3506  0.3857
   87SLPC    HY 8354   5.850   1.547   2.146 -0.0549  1.8370 -1.2096
   87SLPC   O31 8355   5.878   1.610   2.337 -0.2356  0.4692 -0.3498
   87SLPC   C31 8356   5.900   1.527   2.446 -1.5619 -0.5064  0.3930
   87SLPC   O32 8357   5.973   1.432   2.446 -0.2963  0.0014 -0.5027
   87SLPC   C32 8358   5.839   1.577   2.571  0.1674 -0.9470 -0.0784
   87SLPC   H2X 8359   5.755   1.507   2.596 -0.0666 -0.5421  0.2874
   87SLPC   H2Y 8360   5.799   1.680   2.561  0.5268 -1.0340 -3.3585
   87SLPC   C23 8361   6.213   1.982   2.512  0.5860  0.1929 -1.0601
   87SLPC   H3R 8362   6.120   1.975   2.573  2.2496 -0.2872  1.5798
   87SLPC   H3S 8363   6.205   2.075   2.452  0.6041  2.1260  1.7796
   87SLPC   C24 8364   6.318   1.987   2.613  0.3895  0.4269  0.0319
   87SLPC   H4R 8365   6.414   1.985   2.556 -0.7931  0.4837 -2.0673
   87SLPC   H4S 8366   6.312   1.897   2.677 -0.7010 -0.6178 -1.4683
   87SLPC   C25 8367   6.313   2.087   2.731 -0.0517 -0.2025 -0.1790
   87SLPC   H5R 8368   6.388   2.053   2.806  0.6986 -1.6443 -1.5079
   87SLPC   H5S 8369   6.215   2.084   2.782  0.3193  0.6774  0.6189
   87SLPC   C26 8370   6.328   2.233   2.701 -0.1887 -0.1370  1.0333
   87SLPC   H6R 8371   6.235   2.277   2.658  1.5249  1.9684 -0.8514
   87SLPC   H6S 8372   6.399   2.238   2.616 -2.6273  0.9342 -1.0938
   87SLPC   C27 8373   6.388   2.310   2.811 -0.2967  0.2089 -0.6694
   87SLPC   H7R 8374   6.411   2.415   2.782  2.7869 -0.1149  0.1821
   87SLPC   H7S 8375   6.484   2.264   2.843 -0.2173  0.4823 -0.5177
   87SLPC   C28 8376   6.288   2.305   2.932  0.4614 -0.4089 -0.6068
   87SLPC   H8R 8377   6.269   2.200   2.962  0.1159  0.2810  1.8085
   87SLPC   H8S 8378   6.194   2.349   2.891  1.4005  0.5725 -1.7820
   87SLPC   C29 8379   6.328   2.387   3.054 -0.0647 -0.6368 -0.2043
   87SLPC   H9R 8380   6.327   2.494   3.033  1.3707 -0.6130 -0.1997
   87SLPC  C210 8381   6.331   2.347   3.182  0.3392 -0.5159  0.8480
   87SLPC  H10R 8382   6.339   2.428   3.257 -1.0159  0.8444 -0.4123
   87SLPC  C211 8383   6.304   2.216   3.250 -0.2395  0.4523 -0.0909
   87SLPC  H11R 8384   6.261   2.152   3.170 -0.1613  1.4532 -0.9414
   87SLPC  H11S 8385   6.221   2.231   3.322  0.8470 -0.0079  1.3134
   87SLPC  C212 8386   6.417   2.126   3.306 -0.6081  0.3239  0.2798
   87SLPC  H12R 8387   6.442   2.043   3.238 -3.7340  0.4609 -1.1981
   87SLPC  C213 8388   6.493   2.140   3.417 -0.4229  0.1274  0.5606
   87SLPC  H13R 8389   6.569   2.066   3.444 -1.7095 -0.9530  1.3715
   87SLPC  C214 8390   6.479   2.256   3.516 -0.3442  0.5252 -0.0288
   87SLPC  H14R 8391   6.464   2.231   3.623 -0.3536 -1.8678 -0.5278
   87SLPC  H14S 8392   6.397   2.327   3.496  0.6061  1.1730 -1.7785
   87SLPC  C215 8393   6.609   2.335   3.491  0.1539  0.3969  0.1965
   87SLPC  H15R 8394   6.607   2.362   3.383 -1.2894 -1.2517 -0.2405
   87SLPC  H15S 8395   6.702   2.274   3.490 -0.3656 -0.4632 -2.0164
   87SLPC  C216 8396   6.636   2.460   3.579 -0.3537 -0.0436 -0.3030
   87SLPC  H16R 8397   6.743   2.456   3.611 -0.9750 -1.2705  1.8694
   87SLPC  H16S 8398   6.571   2.439   3.667  0.0665 -0.5376 -0.1075
   87SLPC  C217 8399   6.583   2.580   3.496 -0.2721 -0.2290 -0.6053
   87SLPC  H17R 8400   6.472   2.574   3.495 -0.5294  1.6486  2.7780
   87SLPC  H17S 8401   6.620   2.579   3.391 -0.2623 -0.3125 -0.6018
   87SLPC  C218 8402   6.614   2.716   3.559 -0.0658 -0.2858  0.4229
   87SLPC  H18R 8403   6.722   2.715   3.583 -0.0342 -0.1934  0.2878
   87SLPC  H18S 8404   6.562   2.739   3.655  1.3425  1.1193  0.8826
   87SLPC  H18T 8405   6.589   2.797   3.488  0.1452 -0.3939  0.2237
   87SLPC   C33 8406   5.931   1.582   2.703  0.8790  0.0174  0.5253
   87SLPC   H3X 8407   5.964   1.481   2.736  1.4392 -0.2520 -0.7961
   87SLPC   H3Y 8408   5.874   1.621   2.790 -0.1559  0.6518 -0.4179
   87SLPC   C34 8409   6.037   1.685   2.692  0.1822 -0.4606 -0.0994
   87SLPC   H4X 8410   5.997   1.787   2.709 -1.1469 -0.8056 -1.0636
   87SLPC   H4Y 8411   6.093   1.677   2.597 -0.0661 -2.8159 -0.1054
   87SLPC   C35 8412   6.149   1.653   2.797 -0.3561  0.1499  0.2626
   87SLPC   H5X 8413   6.231   1.725   2.777 -1.0088  0.7613 -0.2947
   87SLPC   H5Y 8414   6.179   1.549   2.773 -0.7266  0.0160  0.3775
   87SLPC   C36 8415   6.100   1.664   2.943 -0.8671 -0.3370  0.4667
   87SLPC   H6X 8416   6.167   1.611   3.013 -1.3549 -0.8971  0.5233
   87SLPC   H6Y 8417   6.008   1.603   2.956  0.0227 -1.7643  0.3086
   87SLPC   C37 8418   6.079   1.806   2.982  0.2023 -0.4696  0.0881
   87SLPC   H7X 8419   5.975   1.838   2.958  0.6404  0.8379 -0.1008
   87SLPC   H7Y 8420   6.143   1.867   2.915 -0.1570 -2.0643 -1.8261
   87SLPC   C38 8421   6.118   1.831   3.127  0.1703  0.7116 -0.4383
   87SLPC   H8X 8422   6.105   1.940   3.144  1.1386  0.8812 -0.7118
   87SLPC   H8Y 8423   6.227   1.812   3.140  0.4687  1.7701 -1.2222
   87SLPC   C39 8424   6.030   1.749   3.228 -0.2654 -0.8036  0.1152
   87SLPC   H9X 8425   6.051   1.640   3.219 -0.6678 -0.8768  0.0530
   87SLPC   H9Y 8426   5.923   1.772   3.211 -0.0865  1.6071  1.7253
   87SLPC  C310 8427   6.051   1.776   3.374 -0.4065  0.0696  0.9309
   87SLPC  H10X 8428   5.989   1.704   3.431 -0.8531 -0.7724 -0.5646
   87SLPC  H10Y 8429   6.010   1.874   3.407  0.6821  1.6434 -1.9441
   87SLPC  C311 8430   6.200   1.767   3.419 -0.2921 -0.3216 -0.1242
   87SLPC  H11X 8431   6.256   1.837   3.353 -1.3532  1.2959  0.6160
   87SLPC  H11Y 8432   6.237   1.663   3.407 -0.1347 -0.2173 -0.5526
   87SLPC  C312 8433   6.226   1.811   3.558 -0.2896 -0.2565 -0.4428
   87SLPC  H12X 8434   6.334   1.789   3.575 -0.6839 -0.8848  1.5304
   87SLPC  H12Y 8435   6.179   1.746   3.635  3.2721 -1.7025  0.7433
   87SLPC  C313 8436   6.198   1.961   3.583  0.7285 -0.1493  0.1024
   87SLPC  H13X 8437   6.093   1.994   3.578  0.7996  0.1357  0.5225
   87SLPC  H13Y 8438   6.254   2.023   3.509 -0.2093  0.1886 -0.3283
   87SLPC  C314 8439   6.230   1.996   3.726  0.0814  0.5964  1.1843
   87SLPC  H14X 8440   6.163   1.932   3.787 -2.6930  2.2336  0.0445
   87SLPC  H14Y 8441   6.192   2.099   3.739 -0.3688  0.6157 -0.1202
   87SLPC  C315 8442   6.375   1.966   3.769  0.0913 -0.1131  0.8550
   87SLPC  H15X 8443   6.446   2.019   3.703 -0.8523  2.1837  1.5940
   87SLPC  H15Y 8444   6.398   1.857   3.775  0.2758 -0.1013  0.4130
   87SLPC  C316 8445   6.393   2.018   3.919  0.0485  0.3248  0.2962
   87SLPC  H16X 8446   6.332   1.949   3.981 -2.4386  2.8125  0.8153
   87SLPC  H16Y 8447   6.348   2.117   3.944 -0.8813 -0.4570  1.8444
   87SLPC  C317 8448   6.538   2.021   3.963 -0.1615 -0.1669  0.1968
   87SLPC  H17X 8449   6.606   2.017   3.875  1.1797 -2.3291  1.2300
   87SLPC  H17Y 8450   6.571   1.930   4.019  2.2826 -0.6583 -1.8437
   87SLPC  C318 8451   6.570   2.148   4.049 -0.0324 -0.4842 -0.7018
   87SLPC  H18X 8452   6.521   2.233   3.997 -0.2701 -0.7041 -0.8443
   87SLPC  H18Y 8453   6.679   2.157   4.062 -0.3477  1.0485  1.2524
   87SLPC  H18Z 8454   6.529   2.130   4.150 -0.2909  0.0619 -0.7065
   88SLPC     N 8455   5.286   1.061   2.084  0.3436  0.0466  0.1871
   88SLPC   C13 8456   5.214   0.939   2.044 -0.1247  0.0681 -0.2354
   88SLPC  H13A 8457   5.122   0.952   1.988  1.0960  2.8805 -1.7699
   88SLPC  H13B 8458   5.287   0.883   1.988  0.5669  1.6386 -0.9540
   88SLPC  H13C 8459   5.177   0.895   2.136  0.2897  0.3972  0.0938
   88SLPC   C14 8460   5.303   1.151   1.967 -0.2246 -0.3014 -0.4466
   88SLPC  H14A 8461   5.356   1.239   1.998 -1.5484  0.3384  0.0844
   88SLPC  H14B 8462   5.359   1.107   1.886  0.9357  0.9378 -0.3471
   88SLPC  H14C 8463   5.202   1.173   1.935 -0.0322  1.4325  0.0573
   88SLPC   C15 8464   5.416   1.021   2.140 -0.6120 -0.3303  0.0715
   88SLPC  H15A 8465   5.473   1.110   2.161 -0.7898 -0.6101  1.8878
   88SLPC  H15B 8466   5.411   0.960   2.229 -0.7478  0.4508  0.6084
   88SLPC  H15C 8467   5.450   0.958   2.059 -1.1983 -0.1732 -0.3064
   88SLPC   C12 8468   5.215   1.136   2.198 -0.1421 -0.2276 -1.2616
   88SLPC  H12A 8469   5.194   1.071   2.281  0.7543  1.9030  0.7562
   88SLPC  H12B 8470   5.116   1.158   2.160 -0.2321 -3.2948 -3.1010
   88SLPC   C11 8471   5.277   1.276   2.236 -0.1872 -0.5047 -0.6721
   88SLPC  H11A 8472   5.202   1.331   2.296  1.3293  0.4179  0.4400
   88SLPC  H11B 8473   5.299   1.332   2.143 -1.8184  2.6097  0.6885
   88SLPC     P 8474   5.512   1.359   2.327 -0.3132  0.4732 -0.2059
   88SLPC   O13 8475   5.637   1.278   2.318 -0.1398 -0.1000  0.0387
   88SLPC   O14 8476   5.495   1.470   2.236 -0.3549  0.2267  0.7222
   88SLPC   O12 8477   5.392   1.259   2.322  0.2240  0.0799  0.1472
   88SLPC   O11 8478   5.502   1.432   2.472 -0.0439  0.3044 -0.0738
   88SLPC    C1 8479   5.392   1.521   2.492  0.3698  0.0459 -0.1480
   88SLPC    HA 8480   5.412   1.617   2.440  0.2395  0.2355  0.1505
   88SLPC    HB 8481   5.296   1.481   2.452 -0.3825 -0.3915  1.9862
   88SLPC    C2 8482   5.378   1.551   2.648 -0.0528  0.5894 -0.3714
   88SLPC    HS 8483   5.285   1.611   2.665 -0.1243  0.0634  1.3418
   88SLPC   O21 8484   5.491   1.632   2.684  0.3935  0.3131 -0.7778
   88SLPC   C21 8485   5.477   1.703   2.800  0.5267  0.6204 -0.8925
   88SLPC   O22 8486   5.372   1.722   2.858 -0.3526  0.3166 -0.2067
   88SLPC   C22 8487   5.610   1.766   2.839 -0.0124  0.4975 -0.0980
   88SLPC   H2R 8488   5.681   1.746   2.756 -0.2674 -0.7385 -0.0383
   88SLPC   H2S 8489   5.581   1.873   2.841 -0.3174  0.4560 -1.3860
   88SLPC    C3 8490   5.373   1.418   2.731  0.0285 -0.2786  0.2907
   88SLPC    HX 8491   5.475   1.377   2.714 -0.4543 -2.4209  2.0129
   88SLPC    HY 8492   5.308   1.341   2.684  0.7321 -0.7075  0.0040
   88SLPC   O31 8493   5.348   1.433   2.872  0.0833  0.1732 -0.5564
   88SLPC   C31 8494   5.228   1.474   2.912  0.8994 -0.3066  0.1369
   88SLPC   O32 8495   5.135   1.504   2.835 -0.5053  0.2123 -0.5391
   88SLPC   C32 8496   5.215   1.466   3.059 -0.2590  0.1729  0.7839
   88SLPC   H2X 8497   5.317   1.485   3.098 -0.8739  2.7123  1.3280
   88SLPC   H2Y 8498   5.176   1.366   3.091  2.1162 -1.1301 -0.1132
   88SLPC   C23 8499   5.667   1.705   2.969  0.8966  0.4787 -0.0370
   88SLPC   H3R 8500   5.760   1.761   2.992 -0.1966  2.0505  0.7079
   88SLPC   H3S 8501   5.687   1.598   2.945 -0.4022 -0.3237  2.1511
   88SLPC   C24 8502   5.559   1.692   3.073  0.1795  0.0717 -0.0583
   88SLPC   H4R 8503   5.501   1.605   3.036  1.4612 -1.2512  0.9342
   88SLPC   H4S 8504   5.485   1.775   3.068 -1.3532 -1.1665  0.9443
   88SLPC   C25 8505   5.623   1.678   3.216  0.5549  0.6644  0.1950
   88SLPC   H5R 8506   5.731   1.660   3.202  0.8363 -0.6209  3.2956
   88SLPC   H5S 8507   5.585   1.587   3.267  0.9590 -1.0195 -2.3019
   88SLPC   C26 8508   5.609   1.805   3.295 -0.5549  0.5318  0.2720
   88SLPC   H6R 8509   5.620   1.897   3.232  1.0670 -0.8900 -1.6540
   88SLPC   H6S 8510   5.690   1.825   3.368 -0.7731  4.1846 -0.2679
   88SLPC   C27 8511   5.482   1.813   3.378  0.4698 -0.1656 -0.0285
   88SLPC   H7R 8512   5.393   1.769   3.329 -0.7733  1.1980  0.9041
   88SLPC   H7S 8513   5.465   1.922   3.396  2.2080  0.1023  0.1644
   88SLPC   C28 8514   5.502   1.754   3.523 -0.6826 -0.0487  0.7188
   88SLPC   H8R 8515   5.545   1.652   3.512  0.8945  0.6558  0.0185
   88SLPC   H8S 8516   5.397   1.742   3.557 -1.3585 -0.9041 -1.5062
   88SLPC   C29 8517   5.575   1.846   3.618  0.4651 -0.3553 -0.2198
   88SLPC   H9R 8518   5.536   1.948   3.623  0.9663  0.0392 -3.0203
   88SLPC  C210 8519   5.669   1.814   3.704 -0.0490  0.4779 -0.7877
   88SLPC  H10R 8520   5.712   1.887   3.774  0.7388 -1.4613  0.8519
   88SLPC  C211 8521   5.722   1.675   3.733 -0.2271 -0.3661  0.3925
   88SLPC  H11R 8522   5.700   1.595   3.659 -1.0376 -0.1780  0.4131
   88SLPC  H11S 8523   5.663   1.644   3.822 -1.4770  1.8030  0.3927
   88SLPC  C212 8524   5.869   1.668   3.753 -0.3248  0.3255 -1.1745
   88SLPC  H12R 8525   5.917   1.645   3.657 -1.1103 -0.7832 -1.3138
   88SLPC  C213 8526   5.936   1.682   3.873 -0.9104 -0.0027  0.7962
   88SLPC  H13R 8527   6.045   1.669   3.871 -0.8287  0.7748  0.2780
   88SLPC  C214 8528   5.894   1.713   4.013 -0.7256 -0.1296 -0.0259
   88SLPC  H14R 8529   5.788   1.687   4.035 -1.2443  1.3203 -0.6817
   88SLPC  H14S 8530   5.915   1.817   4.046 -0.2821 -0.1691 -0.1888
   88SLPC  C215 8531   5.974   1.622   4.118  0.5662 -0.3032  0.0392
   88SLPC  H15R 8532   6.084   1.634   4.128  0.4312  0.2334  1.0162
   88SLPC  H15S 8533   5.952   1.518   4.086  2.3588 -0.5210 -0.6148
   88SLPC  C216 8534   5.909   1.626   4.258 -0.0617 -0.7970 -0.2471
   88SLPC  H16R 8535   5.947   1.547   4.327 -1.4207 -1.0730  0.2192
   88SLPC  H16S 8536   5.802   1.605   4.236  0.1044 -2.8191  0.6244
   88SLPC  C217 8537   5.929   1.762   4.332  0.2319  0.3474 -0.1216
   88SLPC  H17R 8538   5.881   1.841   4.270 -1.1237  1.3428  2.0626
   88SLPC  H17S 8539   6.039   1.771   4.343  0.6286 -3.9661  1.0333
   88SLPC  C218 8540   5.868   1.760   4.470  0.0122  0.0067 -0.3795
   88SLPC  H18R 8541   5.758   1.751   4.461 -0.0729  0.1141  0.4962
   88SLPC  H18S 8542   5.888   1.858   4.520 -2.6921  1.6538 -2.2244
   88SLPC  H18T 8543   5.915   1.683   4.534 -0.9108  0.3003  0.6802
   88SLPC   C33 8544   5.116   1.568   3.103 -0.2048 -0.3275 -0.1041
   88SLPC   H3X 8545   5.018   1.541   3.059  0.0411  0.9860 -1.5356
   88SLPC   H3Y 8546   5.146   1.667   3.063  1.6299 -1.3450 -1.3712
   88SLPC   C34 8547   5.109   1.576   3.257 -0.1902  0.2459 -0.1557
   88SLPC   H4X 8548   5.210   1.561   3.300  0.1290  3.4437  0.4853
   88SLPC   H4Y 8549   5.049   1.487   3.287 -0.4585  0.7284  0.8168
   88SLPC   C35 8550   5.046   1.693   3.327 -0.4492 -0.6487  0.0423
   88SLPC   H5X 8551   4.943   1.716   3.291  0.0176 -1.0301 -1.6084
   88SLPC   H5Y 8552   5.103   1.788   3.312 -2.0304  0.1840 -1.0732
   88SLPC   C36 8553   5.047   1.669   3.480 -0.4069 -0.0456  0.1149
   88SLPC   H6X 8554   5.156   1.664   3.502  0.1338 -0.3044 -2.3556
   88SLPC   H6Y 8555   4.996   1.579   3.520  0.0869 -1.2004 -1.7602
   88SLPC   C37 8556   4.994   1.787   3.566  0.1592 -0.0195 -0.2751
   88SLPC   H7X 8557   4.887   1.795   3.540  0.0641 -0.7318 -0.1019
   88SLPC   H7Y 8558   5.050   1.880   3.539 -1.5338  0.5206 -2.1076
   88SLPC   C38 8559   5.005   1.773   3.720  0.2569 -0.6260 -0.1860
   88SLPC   H8X 8560   4.955   1.688   3.772  0.1829  0.6365  1.9474
   88SLPC   H8Y 8561   4.953   1.858   3.770  0.4422  0.1271 -1.2479
   88SLPC   C39 8562   5.141   1.775   3.791 -0.2757  0.5824 -0.5755
   88SLPC   H9X 8563   5.182   1.878   3.797  2.0301 -0.2825 -0.3056
   88SLPC   H9Y 8564   5.218   1.730   3.724 -0.6979 -0.2415 -0.5243
   88SLPC  C310 8565   5.144   1.700   3.926 -0.4197  0.6512  0.1870
   88SLPC  H10X 8566   5.098   1.602   3.902 -0.1324  0.4156  0.5870
   88SLPC  H10Y 8567   5.082   1.757   3.999 -0.5026 -1.4209  1.8269
   88SLPC  C311 8568   5.285   1.672   3.974 -0.1440  0.1734  0.1377
   88SLPC  H11X 8569   5.324   1.770   4.007  0.8010 -1.0502  2.9844
   88SLPC  H11Y 8570   5.347   1.633   3.891  1.4460 -0.1325  1.4166
   88SLPC  C312 8571   5.294   1.584   4.097  1.0347 -0.3228  0.9157
   88SLPC  H12X 8572   5.400   1.579   4.131  1.1921  0.9579  0.6647
   88SLPC  H12Y 8573   5.261   1.483   4.067 -1.7291  0.0085  2.4354
   88SLPC  C313 8574   5.206   1.626   4.215 -0.1491  0.0737 -0.1885
   88SLPC  H13X 8575   5.098   1.629   4.187 -0.5463  1.5550  1.3696
   88SLPC  H13Y 8576   5.226   1.724   4.262 -1.8242 -0.2272  1.2741
   88SLPC  C314 8577   5.227   1.533   4.336  0.0696 -0.7271  0.0060
   88SLPC  H14X 8578   5.330   1.543   4.376 -0.4195  1.9721  0.7961
   88SLPC  H14Y 8579   5.220   1.427   4.304  3.3327 -1.3002  0.8518
   88SLPC  C315 8580   5.130   1.539   4.460  0.4892 -1.0292  0.1224
   88SLPC  H15X 8581   5.025   1.547   4.422  0.4501 -0.5160  0.3315
   88SLPC  H15Y 8582   5.163   1.632   4.511 -0.6628 -0.9561  0.7892
   88SLPC  C316 8583   5.144   1.410   4.545 -0.3896 -0.7248 -0.4260
   88SLPC  H16X 8584   5.247   1.369   4.532 -0.6345 -1.1262 -1.1726
   88SLPC  H16Y 8585   5.073   1.331   4.511 -2.9972  0.7588  1.2285
   88SLPC  C317 8586   5.114   1.444   4.695  0.3131 -0.1396  0.2274
   88SLPC  H17X 8587   5.007   1.475   4.691 -0.2627 -1.9893  0.3719
   88SLPC  H17Y 8588   5.176   1.532   4.722  0.6178 -0.2986  0.0582
   88SLPC  C318 8589   5.141   1.334   4.794 -0.1954 -0.2724 -0.0958
   88SLPC  H18X 8590   5.248   1.304   4.794  0.2112  0.9959  1.4993
   88SLPC  H18Y 8591   5.076   1.253   4.755 -2.2920  0.5021  1.5497
   88SLPC  H18Z 8592   5.095   1.357   4.893 -2.3166 -2.8200 -0.3757
   89SAPE     N 8593   2.430   3.884   6.727 -0.8103 -0.3632 -0.1462
   89SAPE   HN1 8594   2.423   3.986   6.706  0.9909 -0.2172 -0.1757
   89SAPE   HN2 8595   2.382   3.839   6.646 -2.1058 -1.1684  1.0112
   89SAPE   HN3 8596   2.373   3.872   6.813  1.4361  2.5251  1.9484
   89SAPE   C12 8597   2.575   3.849   6.749 -1.0786  0.9054  1.0713
   89SAPE  H12A 8598   2.614   3.910   6.833  0.2129  2.0211 -0.2753
   89SAPE  H12B 8599   2.633   3.869   6.656 -1.1855 -1.8073  0.3059
   89SAPE   C11 8600   2.596   3.701   6.796 -0.0104  0.0278 -0.3116
   89SAPE  H11A 8601   2.525   3.683   6.880 -0.3975 -0.6976 -0.7825
   89SAPE  H11B 8602   2.702   3.701   6.829 -0.4265  3.0898  1.3656
   89SAPE     P 8603   2.573   3.451   6.740 -0.3342  0.3999 -0.2225
   89SAPE   O13 8604   2.710   3.399   6.737  0.1513 -0.3667 -0.2445
   89SAPE   O14 8605   2.505   3.442   6.871  0.3117  0.0560 -0.6005
   89SAPE   O12 8606   2.572   3.602   6.687  0.4091  0.1095  0.4405
   89SAPE   O11 8607   2.495   3.384   6.625  0.2189  0.0845  0.0092
   89SAPE    C1 8608   2.476   3.242   6.627  0.5495 -0.0375  0.1402
   89SAPE    HA 8609   2.515   3.194   6.719  1.2441  1.3656  0.5968
   89SAPE    HB 8610   2.368   3.219   6.638  1.1826 -3.5985  0.1920
   89SAPE    C2 8611   2.524   3.180   6.497 -0.4607 -0.1079 -0.1610
   89SAPE    HS 8612   2.634   3.175   6.484 -0.4655  1.4677 -1.0982
   89SAPE   O21 8613   2.455   3.234   6.383 -0.2993 -0.8226 -0.2691
   89SAPE   C21 8614   2.514   3.333   6.324  0.6322  0.6075  0.8345
   89SAPE   O22 8615   2.628   3.369   6.343 -0.2932  0.1751  0.4841
   89SAPE   C22 8616   2.427   3.396   6.218 -0.5444 -0.6563 -0.7935
   89SAPE   H2R 8617   2.374   3.324   6.153  0.3210 -0.0372 -2.2378
   89SAPE   H2S 8618   2.346   3.452   6.272 -0.4532 -2.8571  1.8251
   89SAPE    C3 8619   2.484   3.033   6.498 -0.7913  0.2222  0.5250
   89SAPE    HX 8620   2.374   3.023   6.491 -0.8240  1.2044 -0.7308
   89SAPE    HY 8621   2.527   2.984   6.588 -0.1485  1.8863  1.1628
   89SAPE   O31 8622   2.548   2.969   6.385  0.0523 -0.1107  0.0578
   89SAPE   C31 8623   2.473   2.928   6.284 -0.2392  0.7599  0.0554
   89SAPE   O32 8624   2.352   2.931   6.285 -0.5755 -0.5963  0.2321
   89SAPE   C32 8625   2.564   2.878   6.173  0.1607  0.3427  0.5958
   89SAPE   H2X 8626   2.608   2.781   6.202 -3.7680 -1.5612  0.9240
   89SAPE   H2Y 8627   2.649   2.949   6.162 -0.9855  1.7731  0.6050
   89SAPE   C23 8628   2.503   3.492   6.118  0.1587  0.4810  0.2525
   89SAPE   H3R 8629   2.570   3.558   6.176  1.7042  0.4353 -1.4201
   89SAPE   H3S 8630   2.417   3.545   6.070 -1.2411  0.6788  2.7902
   89SAPE   C24 8631   2.577   3.408   6.016  0.5465  0.9214  0.3820
   89SAPE   H4R 8632   2.501   3.334   5.985 -0.7505  0.9372  3.2293
   89SAPE   H4S 8633   2.656   3.357   6.075 -0.1433  0.8979  1.3066
   89SAPE   C25 8634   2.642   3.490   5.908 -0.5788 -0.0477  0.3464
   89SAPE   H5R 8635   2.690   3.582   5.944 -2.2071  1.3747 -0.9943
   89SAPE   C26 8636   2.633   3.468   5.775  0.0088 -0.3980  0.0460
   89SAPE   H6R 8637   2.679   3.543   5.710  1.8347  1.3874  3.1880
   89SAPE   C27 8638   2.564   3.348   5.720  0.5390  0.4204  0.3816
   89SAPE   H7R 8639   2.481   3.311   5.783  0.6535 -0.6185 -0.0676
   89SAPE   H7S 8640   2.627   3.257   5.708 -0.1640  0.0231 -0.3221
   89SAPE   C28 8641   2.498   3.382   5.590  0.0828  0.3127  0.5834
   89SAPE   H8R 8642   2.433   3.471   5.596  0.0945  0.2628  1.8389
   89SAPE   C29 8643   2.514   3.330   5.468 -0.6126  0.6949 -0.4612
   89SAPE   H9R 8644   2.465   3.389   5.389 -0.0565  1.4858 -0.2271
   89SAPE  C210 8645   2.610   3.219   5.430  0.2894 -0.7886 -0.1664
   89SAPE  H10R 8646   2.559   3.152   5.358 -0.5326 -0.6331  0.2514
   89SAPE  H10S 8647   2.632   3.148   5.513  1.0434 -0.3052  0.0580
   89SAPE  C211 8648   2.735   3.289   5.374 -0.3568 -0.0111  0.1278
   89SAPE  H11R 8649   2.810   3.327   5.445 -1.0928 -1.2606  1.6194
   89SAPE  C212 8650   2.753   3.306   5.244  0.4933  0.6688  0.6931
   89SAPE  H12R 8651   2.837   3.366   5.205  0.6451  1.0076  1.5165
   89SAPE  C213 8652   2.663   3.261   5.129 -0.6314 -0.1256 -0.2659
   89SAPE  H13R 8653   2.567   3.217   5.164 -1.8840  1.1510 -1.8940
   89SAPE  H13S 8654   2.713   3.180   5.072 -1.8084 -0.8384 -0.3126
   89SAPE  C214 8655   2.622   3.377   5.042 -0.9907 -0.9881 -0.0144
   89SAPE  H14R 8656   2.577   3.459   5.100  0.2216  1.7628 -2.6983
   89SAPE  C215 8657   2.656   3.396   4.908 -0.5331  0.1835 -0.2910
   89SAPE  H15R 8658   2.629   3.488   4.855 -2.1969  1.0977  1.9646
   89SAPE  C216 8659   2.730   3.288   4.826  0.1697 -1.0146 -0.2581
   89SAPE  H16R 8660   2.742   3.192   4.881  1.3740 -0.5022  0.4220
   89SAPE  H16S 8661   2.826   3.333   4.792  0.3051 -1.6974 -0.8155
   89SAPE  C217 8662   2.661   3.234   4.699 -0.3176 -0.3985 -0.7168
   89SAPE  H17R 8663   2.667   3.317   4.625  0.3884 -0.2081 -0.4497
   89SAPE  H17S 8664   2.555   3.211   4.723  0.0760  0.5704  2.2458
   89SAPE  C218 8665   2.735   3.110   4.650 -0.6984 -0.2085 -1.4307
   89SAPE  H18R 8666   2.738   3.025   4.722 -1.2852  2.2230  1.6893
   89SAPE  H18S 8667   2.843   3.131   4.632  0.2630 -1.1371  2.2993
   89SAPE  C219 8668   2.672   3.054   4.522 -0.4509 -0.1873  0.5479
   89SAPE  H19R 8669   2.649   3.147   4.466  1.8187  1.6870  2.5041
   89SAPE  H19S 8670   2.575   3.008   4.550  0.3452 -2.6287 -0.4214
   89SAPE  C220 8671   2.759   2.959   4.448  0.5167 -0.0535 -0.7310
   89SAPE  H20R 8672   2.710   2.910   4.361 -1.0550 -0.5940  0.4018
   89SAPE  H20S 8673   2.791   2.877   4.517  0.0502 -1.3271 -1.9730
   89SAPE  H20T 8674   2.855   3.000   4.411  0.5067 -0.4637 -1.2260
   89SAPE   C33 8675   2.494   2.849   6.036  0.3334  0.3833  0.2679
   89SAPE   H3X 8676   2.384   2.839   6.051  0.3824  0.0577  0.4238
   89SAPE   H3Y 8677   2.525   2.756   5.984  0.1880 -1.1080  2.6774
   89SAPE   C34 8678   2.510   2.972   5.943  0.5440  0.0485 -0.2136
   89SAPE   H4X 8679   2.605   3.027   5.955  0.0518  1.5189 -2.5145
   89SAPE   H4Y 8680   2.429   3.043   5.970 -1.9768 -2.3756 -0.8795
   89SAPE   C35 8681   2.505   2.930   5.792  0.1692  0.8402  0.5136
   89SAPE   H5X 8682   2.559   2.834   5.780 -1.8498 -0.4431  1.0990
   89SAPE   H5Y 8683   2.551   3.009   5.730 -1.7231  0.9476 -0.8581
   89SAPE   C36 8684   2.362   2.909   5.732 -0.1397 -0.2535 -0.5556
   89SAPE   H6X 8685   2.305   3.004   5.727 -1.7759 -1.1784 -0.2079
   89SAPE   H6Y 8686   2.305   2.850   5.807  1.4146  0.9499  1.6860
   89SAPE   C37 8687   2.352   2.841   5.598  0.6243  0.5309  0.3106
   89SAPE   H7X 8688   2.244   2.817   5.583  0.9691 -1.3209  0.6195
   89SAPE   H7Y 8689   2.407   2.745   5.599 -0.0162  0.0810 -2.1074
   89SAPE   C38 8690   2.408   2.929   5.486 -0.1802 -0.2851 -0.0843
   89SAPE   H8X 8691   2.516   2.939   5.509 -0.0624  0.1669 -0.8320
   89SAPE   H8Y 8692   2.359   3.028   5.483  0.1855 -0.1232 -2.2951
   89SAPE   C39 8693   2.394   2.844   5.354  0.8585 -0.1605  0.4440
   89SAPE   H9X 8694   2.284   2.835   5.348  0.6295  0.3494  2.9339
   89SAPE   H9Y 8695   2.428   2.741   5.376  0.8130  0.0347  1.4418
   89SAPE  C310 8696   2.454   2.895   5.220  0.1632 -0.0355 -0.1619
   89SAPE  H10X 8697   2.559   2.860   5.220  1.8374  4.3128 -1.1636
   89SAPE  H10Y 8698   2.459   3.006   5.208  1.8556 -0.1629 -0.7946
   89SAPE  C311 8699   2.381   2.839   5.095  0.1441 -0.5164  0.4811
   89SAPE  H11X 8700   2.272   2.847   5.111 -0.0776 -0.8311 -0.7496
   89SAPE  H11Y 8701   2.409   2.734   5.074 -2.1701 -0.6523 -2.6873
   89SAPE  C312 8702   2.407   2.921   4.967 -0.2213  0.3542  0.2787
   89SAPE  H12X 8703   2.510   2.915   4.925 -0.5694 -0.6001 -0.4898
   89SAPE  H12Y 8704   2.387   3.027   4.992  1.8152  0.8726 -0.0932
   89SAPE  C313 8705   2.317   2.871   4.860 -0.1926 -0.0372 -0.3496
   89SAPE  H13X 8706   2.209   2.881   4.882 -0.9443 -1.8088 -2.8634
   89SAPE  H13Y 8707   2.334   2.763   4.843 -3.4278 -0.5856 -0.7379
   89SAPE  C314 8708   2.350   2.942   4.733 -0.6138 -0.6964  0.5798
   89SAPE  H14X 8709   2.451   2.905   4.704 -0.4035  1.9545 -2.5880
   89SAPE  H14Y 8710   2.360   3.052   4.741 -0.6992 -0.7149  1.0076
   89SAPE  C315 8711   2.267   2.899   4.614  0.6835  0.5811  0.3905
   89SAPE  H15X 8712   2.173   2.958   4.618  0.5127  0.2955  0.7432
   89SAPE  H15Y 8713   2.241   2.791   4.617  2.3349  0.0864 -1.3615
   89SAPE  C316 8714   2.334   2.913   4.476 -0.6421  0.0088  0.6741
   89SAPE  H16X 8715   2.424   2.849   4.465 -0.3441  0.6275 -0.7353
   89SAPE  H16Y 8716   2.374   3.017   4.479  0.3617 -0.3348 -0.2123
   89SAPE  C317 8717   2.238   2.896   4.355  0.4573 -0.5378  0.5206
   89SAPE  H17X 8718   2.298   2.949   4.278 -0.1589  0.1335  0.4935
   89SAPE  H17Y 8719   2.147   2.957   4.372  1.2810  0.7234  0.5791
   89SAPE  C318 8720   2.200   2.751   4.323  0.0074  0.4539  0.2452
   89SAPE  H18X 8721   2.123   2.761   4.243  1.0222  2.2876 -0.5552
   89SAPE  H18Y 8722   2.164   2.705   4.417  0.2490  0.1916  0.2119
   89SAPE  H18Z 8723   2.276   2.683   4.279 -1.3603 -1.5555  0.8526
   90SAPE     N 8724   5.284   1.536   6.944 -0.4689 -0.0562 -0.3450
   90SAPE   HN1 8725   5.299   1.489   7.036  1.2768  1.9743  0.4989
   90SAPE   HN2 8726   5.310   1.635   6.965  0.3124 -0.4647  0.7082
   90SAPE   HN3 8727   5.188   1.534   6.903 -0.6533 -0.4333  0.0973
   90SAPE   C12 8728   5.388   1.483   6.845  0.6939 -0.3211 -0.9693
   90SAPE  H12A 8729   5.353   1.477   6.740  0.9110 -1.3081 -0.9974
   90SAPE  H12B 8730   5.403   1.375   6.867  0.8548 -0.0856  0.1793
   90SAPE   C11 8731   5.515   1.563   6.873 -0.3589 -0.7210 -0.5081
   90SAPE  H11A 8732   5.587   1.525   6.797 -0.1813  2.6308 -2.2033
   90SAPE  H11B 8733   5.559   1.535   6.971 -0.2394 -2.3771 -1.0011
   90SAPE     P 8734   5.606   1.807   6.823  0.2245  0.0428 -0.6048
   90SAPE   O13 8735   5.589   1.943   6.881 -0.0890 -0.0738  0.3445
   90SAPE   O14 8736   5.735   1.746   6.857  0.4431 -0.0623 -0.2018
   90SAPE   O12 8737   5.490   1.707   6.865  0.3456 -0.4523 -0.0822
   90SAPE   O11 8738   5.586   1.817   6.668  0.2627 -0.1514  0.8683
   90SAPE    C1 8739   5.465   1.799   6.596  0.3774  0.6411 -0.9071
   90SAPE    HA 8740   5.454   1.689   6.586  1.3633  0.4528 -0.1509
   90SAPE    HB 8741   5.370   1.819   6.650  0.6236  0.2232 -0.3129
   90SAPE    C2 8742   5.447   1.877   6.471 -0.3439  0.2545 -0.5613
   90SAPE    HS 8743   5.338   1.894   6.455 -0.6045  0.1812  0.9796
   90SAPE   O21 8744   5.510   1.800   6.370  0.7629  0.0801  0.5218
   90SAPE   C21 8745   5.434   1.717   6.299  0.9818 -0.0173 -0.1420
   90SAPE   O22 8746   5.316   1.689   6.327 -0.1099  0.3048 -0.5621
   90SAPE   C22 8747   5.508   1.666   6.182 -0.4104 -0.0348  0.8812
   90SAPE   H2R 8748   5.571   1.745   6.135 -1.2611  0.7390  0.9972
   90SAPE   H2S 8749   5.578   1.591   6.224  1.4702  1.0730 -0.1208
   90SAPE    C3 8750   5.509   2.024   6.477 -0.0234  0.5737  0.4746
   90SAPE    HX 8751   5.616   2.003   6.459 -0.9400 -2.5306 -2.3582
   90SAPE    HY 8752   5.496   2.069   6.577 -2.2435 -1.2636  1.0998
   90SAPE   O31 8753   5.460   2.110   6.374 -0.3751 -0.3346  0.5735
   90SAPE   C31 8754   5.348   2.169   6.401 -0.4309  0.5408 -0.1367
   90SAPE   O32 8755   5.286   2.156   6.508  0.0882  0.0478 -0.0999
   90SAPE   C32 8756   5.311   2.260   6.279 -0.0747  0.2569 -0.6606
   90SAPE   H2X 8757   5.405   2.289   6.226 -0.2317  0.9274 -0.5902
   90SAPE   H2Y 8758   5.280   2.357   6.325  0.6883  1.0751 -1.8131
   90SAPE   C23 8759   5.417   1.611   6.059 -0.2104 -0.5547 -0.0425
   90SAPE   H3R 8760   5.350   1.694   6.030 -0.2253 -0.2162  0.9172
   90SAPE   H3S 8761   5.350   1.537   6.109 -0.0863 -0.6482 -0.0139
   90SAPE   C24 8762   5.500   1.560   5.938 -0.0709  0.1375  0.5959
   90SAPE   H4R 8763   5.425   1.542   5.859  1.7436 -0.4110 -1.0873
   90SAPE   H4S 8764   5.547   1.463   5.967  1.0792 -0.3925 -2.6481
   90SAPE   C25 8765   5.609   1.648   5.886  0.4090 -0.3144  0.0474
   90SAPE   H5R 8766   5.688   1.670   5.959 -0.0071 -0.5494  0.5678
   90SAPE   C26 8767   5.617   1.705   5.761  0.1584 -0.7319  0.2434
   90SAPE   H6R 8768   5.699   1.775   5.740 -0.1670 -1.0892 -2.4976
   90SAPE   C27 8769   5.520   1.690   5.645 -0.6288  0.0428 -0.2266
   90SAPE   H7R 8770   5.420   1.668   5.688 -0.4556 -1.5062 -0.5536
   90SAPE   H7S 8771   5.537   1.588   5.604  1.1851  0.2832 -0.1602
   90SAPE   C28 8772   5.523   1.815   5.563  0.1995 -0.0544 -0.2830
   90SAPE   H8R 8773   5.481   1.898   5.623 -0.8337 -0.8733  0.1624
   90SAPE   C29 8774   5.600   1.849   5.464  0.4965 -0.1488 -0.3604
   90SAPE   H9R 8775   5.601   1.946   5.412  0.1077  0.4209  0.6687
   90SAPE  C210 8776   5.679   1.739   5.394 -0.6763  0.1075 -0.0429
   90SAPE  H10R 8777   5.614   1.682   5.324  0.0183  0.4981 -1.0426
   90SAPE  H10S 8778   5.712   1.668   5.472 -0.0457  1.0593  0.5804
   90SAPE  C211 8779   5.791   1.792   5.303  0.5107  0.1135 -0.6326
   90SAPE  H11R 8780   5.762   1.818   5.201  0.4386 -0.6092 -0.8017
   90SAPE  C212 8781   5.922   1.785   5.346  0.2527  0.1169  0.0490
   90SAPE  H12R 8782   6.006   1.806   5.277  2.0409 -2.7088  1.2018
   90SAPE  C213 8783   5.965   1.741   5.484  0.3188  0.4322  0.1828
   90SAPE  H13R 8784   5.979   1.630   5.483 -3.3861 -0.1746  0.2892
   90SAPE  H13S 8785   5.888   1.754   5.563  0.2542 -0.6188  0.3155
   90SAPE  C214 8786   6.083   1.817   5.537  0.2943  0.0610  0.4533
   90SAPE  H14R 8787   6.144   1.853   5.453 -1.3554 -1.0954 -1.3298
   90SAPE  C215 8788   6.111   1.843   5.663  0.2834 -0.4553 -0.2542
   90SAPE  H15R 8789   6.202   1.900   5.686 -1.0131  1.5145  0.2579
   90SAPE  C216 8790   6.032   1.805   5.783  1.0508  0.6332  0.9412
   90SAPE  H16R 8791   5.940   1.747   5.764  2.2591 -1.4122  1.1148
   90SAPE  H16S 8792   5.993   1.898   5.830  1.3393  2.0360 -1.4473
   90SAPE  C217 8793   6.102   1.730   5.897  0.5336 -0.1483 -0.2923
   90SAPE  H17R 8794   6.157   1.803   5.960 -0.8774 -0.6934  1.6694
   90SAPE  H17S 8795   6.170   1.661   5.842 -0.5634  1.0521 -3.3602
   90SAPE  C218 8796   6.008   1.662   6.003 -0.7289  0.1542 -0.4179
   90SAPE  H18R 8797   6.069   1.588   6.059 -2.0063 -0.0115  0.7989
   90SAPE  H18S 8798   5.934   1.603   5.944 -0.3339 -2.1702  1.2778
   90SAPE  C219 8799   5.930   1.765   6.079 -0.3493 -0.2429 -0.1277
   90SAPE  H19R 8800   5.873   1.819   6.000  0.5954  0.7451 -0.1736
   90SAPE  H19S 8801   6.000   1.841   6.121 -0.5484  0.2393 -0.6480
   90SAPE  C220 8802   5.845   1.715   6.193 -0.5388 -0.6783 -0.9181
   90SAPE  H20R 8803   5.807   1.795   6.261  0.1555 -0.4378 -0.8016
   90SAPE  H20S 8804   5.921   1.666   6.259 -0.4490  0.1131 -0.4188
   90SAPE  H20T 8805   5.770   1.639   6.164 -1.8225  0.7172 -1.3695
   90SAPE   C33 8806   5.213   2.198   6.183  0.2966  0.1037  0.4100
   90SAPE   H3X 8807   5.183   2.285   6.120 -1.9342 -0.0836  1.1209
   90SAPE   H3Y 8808   5.125   2.155   6.235  0.8767 -1.3927  0.1926
   90SAPE   C34 8809   5.264   2.087   6.093 -0.0419 -0.2334  1.1350
   90SAPE   H4X 8810   5.279   1.989   6.144 -3.2421 -1.8068 -0.6557
   90SAPE   H4Y 8811   5.361   2.111   6.044 -1.1431 -0.2463 -1.1252
   90SAPE   C35 8812   5.169   2.063   5.973 -0.5199 -0.4922  0.4424
   90SAPE   H5X 8813   5.060   2.077   5.990 -0.8224 -1.0979 -0.9146
   90SAPE   H5Y 8814   5.185   1.955   5.952  1.4907  0.2858 -2.6003
   90SAPE   C36 8815   5.223   2.135   5.846  0.2606 -0.0044  1.1632
   90SAPE   H6X 8816   5.330   2.108   5.830  0.4898  0.1110  2.4071
   90SAPE   H6Y 8817   5.225   2.245   5.857 -1.4286  0.2053 -0.2178
   90SAPE   C37 8818   5.131   2.094   5.728 -0.1419  0.2363 -0.0930
   90SAPE   H7X 8819   5.033   2.141   5.752  1.2634  1.8618  3.0329
   90SAPE   H7Y 8820   5.114   1.984   5.726 -0.2022  0.2538 -1.2650
   90SAPE   C38 8821   5.175   2.134   5.590  0.5183 -0.3167 -0.9917
   90SAPE   H8X 8822   5.270   2.077   5.578 -0.5759 -2.5428  0.3827
   90SAPE   H8Y 8823   5.216   2.237   5.576 -1.7885  1.1244  1.6798
   90SAPE   C39 8824   5.074   2.100   5.478  0.5857 -0.0990 -0.2855
   90SAPE   H9X 8825   4.974   2.147   5.491  0.0811 -0.4869 -2.3922
   90SAPE   H9Y 8826   5.053   1.990   5.477 -0.7819  0.1253  0.4078
   90SAPE  C310 8827   5.135   2.142   5.341  0.1636 -0.3820 -0.3939
   90SAPE  H10X 8828   5.244   2.126   5.354 -0.3095 -2.4331  1.7625
   90SAPE  H10Y 8829   5.126   2.252   5.326  2.7499  0.0556  0.7695
   90SAPE  C311 8830   5.070   2.086   5.219 -0.2102 -0.1157  0.9817
   90SAPE  H11X 8831   4.971   2.133   5.203  0.7673  1.9120  0.6125
   90SAPE  H11Y 8832   5.048   1.978   5.237  3.5509 -0.6422  3.5270
   90SAPE  C312 8833   5.162   2.095   5.095 -0.3605 -0.2020  0.1653
   90SAPE  H12X 8834   5.107   2.048   5.011  0.7556 -0.4224 -0.4595
   90SAPE  H12Y 8835   5.257   2.045   5.123 -0.2136  0.3184  0.6039
   90SAPE  C313 8836   5.216   2.233   5.053 -0.5844  0.2498 -0.2550
   90SAPE  H13X 8837   5.300   2.229   4.980 -1.4774 -1.1565 -1.2553
   90SAPE  H13Y 8838   5.262   2.290   5.136 -1.1492 -0.9098  0.8854
   90SAPE  C314 8839   5.101   2.318   5.004  0.5300 -0.2548 -0.5877
   90SAPE  H14X 8840   5.030   2.333   5.087  2.3437  2.7418  0.5913
   90SAPE  H14Y 8841   5.047   2.252   4.933 -0.7095 -2.7837  2.4520
   90SAPE  C315 8842   5.137   2.438   4.929 -0.3684  0.3749  0.1475
   90SAPE  H15X 8843   5.215   2.404   4.858 -0.4595 -0.8052  0.5951
   90SAPE  H15Y 8844   5.185   2.511   4.998 -2.3153 -1.5763  3.8894
   90SAPE  C316 8845   5.015   2.505   4.862  0.4850  0.6190 -0.3815
   90SAPE  H16X 8846   5.043   2.607   4.828 -0.3618  1.8872  2.4011
   90SAPE  H16Y 8847   4.931   2.525   4.932  1.5157  0.2923  0.9899
   90SAPE  C317 8848   4.959   2.418   4.737  0.3391  0.4209 -0.9936
   90SAPE  H17X 8849   4.882   2.492   4.707 -1.2215  0.7772  3.1277
   90SAPE  H17Y 8850   4.902   2.325   4.760 -0.9991  0.9689 -1.9536
   90SAPE  C318 8851   5.066   2.382   4.632  0.7172  0.2948 -0.4800
   90SAPE  H18X 8852   5.043   2.391   4.524  1.1165  1.3631 -0.4836
   90SAPE  H18Y 8853   5.095   2.275   4.644 -1.4987 -0.3291 -0.2412
   90SAPE  H18Z 8854   5.162   2.437   4.644  0.6443  0.5658 -1.0998
   91SAPE     N 8855   2.443   4.624   6.759 -0.7634 -0.6081  0.3987
   91SAPE   HN1 8856   2.475   4.652   6.854  0.3773  0.2819 -0.2345
   91SAPE   HN2 8857   2.504   4.545   6.732 -0.9374  0.0229 -2.0583
   91SAPE   HN3 8858   2.457   4.698   6.688  0.0754 -2.0522 -0.9994
   91SAPE   C12 8859   2.305   4.567   6.774 -0.8114 -0.4164  0.4392
   91SAPE  H12A 8860   2.243   4.659   6.774  0.2486  0.3445 -1.1890
   91SAPE  H12B 8861   2.311   4.502   6.864  2.3316 -0.7438  0.1003
   91SAPE   C11 8862   2.258   4.484   6.659 -0.1138  0.1918  0.2102
   91SAPE  H11A 8863   2.293   4.518   6.559  0.9566 -3.4302 -0.8029
   91SAPE  H11B 8864   2.149   4.504   6.671  0.7692  5.9531  1.4179
   91SAPE     P 8865   2.426   4.278   6.668 -0.6979  0.0600 -0.1082
   91SAPE   O13 8866   2.509   4.332   6.786  0.3346  0.7303 -0.0493
   91SAPE   O14 8867   2.405   4.135   6.667  0.0945  0.7220  0.0801
   91SAPE   O12 8868   2.282   4.346   6.683 -0.2954  0.5845  0.0736
   91SAPE   O11 8869   2.478   4.320   6.519 -0.2503  0.0134 -0.4978
   91SAPE    C1 8870   2.387   4.310   6.407  0.3083  0.2643 -0.2062
   91SAPE    HA 8871   2.286   4.341   6.441  0.3749  0.1499  0.0930
   91SAPE    HB 8872   2.398   4.378   6.319 -1.5485 -1.2695 -1.7111
   91SAPE    C2 8873   2.386   4.161   6.360 -0.1635  0.3413  0.1600
   91SAPE    HS 8874   2.336   4.102   6.440 -1.9221 -0.6510 -1.5750
   91SAPE   O21 8875   2.522   4.119   6.330 -0.0895 -0.3174  0.3437
   91SAPE   C21 8876   2.560   4.005   6.382  0.6969 -0.1679 -0.8720
   91SAPE   O22 8877   2.485   3.922   6.440 -0.1895  0.7361  0.2597
   91SAPE   C22 8878   2.711   3.990   6.368 -0.1653 -0.8754  1.1915
   91SAPE   H2R 8879   2.760   4.089   6.364  1.1243 -1.5212  0.4963
   91SAPE   H2S 8880   2.755   3.935   6.454  0.0064 -1.0607  0.9848
   91SAPE    C3 8881   2.290   4.143   6.238 -0.6473  1.3238  0.6515
   91SAPE    HX 8882   2.319   4.220   6.163  0.0884  1.6751  1.2893
   91SAPE    HY 8883   2.186   4.158   6.273 -0.5438 -0.4641  1.8674
   91SAPE   O31 8884   2.292   4.003   6.189  0.3356  0.5969 -0.5210
   91SAPE   C31 8885   2.327   3.985   6.065 -0.3421 -0.1187 -0.6146
   91SAPE   O32 8886   2.348   4.063   5.975  0.1195  0.3669 -0.2064
   91SAPE   C32 8887   2.352   3.833   6.045  0.0327  0.3789 -0.4730
   91SAPE   H2X 8888   2.265   3.774   6.080  0.8770 -1.3071 -1.0924
   91SAPE   H2Y 8889   2.448   3.811   6.098 -0.4986 -0.1073  0.3074
   91SAPE   C23 8890   2.752   3.904   6.238 -0.7974 -0.3068  0.0609
   91SAPE   H3R 8891   2.692   3.923   6.146 -1.6883 -3.4459 -0.1138
   91SAPE   H3S 8892   2.736   3.796   6.256 -1.9553 -0.4369 -1.5079
   91SAPE   C24 8893   2.903   3.919   6.203 -0.4378 -0.7211  0.0855
   91SAPE   H4R 8894   2.937   3.833   6.142 -0.4253 -1.7862  1.5205
   91SAPE   H4S 8895   2.959   3.924   6.299  2.5197  0.3451 -1.5734
   91SAPE   C25 8896   2.932   4.053   6.133 -0.0576 -0.3538  0.3075
   91SAPE   H5R 8897   2.978   4.121   6.206  0.3395 -1.3469  1.0008
   91SAPE   C26 8898   2.905   4.084   6.008 -0.0870  0.5622 -0.4550
   91SAPE   H6R 8899   2.932   4.181   5.964  1.4743  0.2805 -0.1992
   91SAPE   C27 8900   2.852   3.980   5.912  0.0088  0.3596 -0.2967
   91SAPE   H7R 8901   2.840   3.876   5.951 -0.8138  0.8382  0.7742
   91SAPE   H7S 8902   2.924   3.970   5.828 -1.3289  2.5457 -1.7893
   91SAPE   C28 8903   2.724   4.044   5.864 -0.3113  0.1624 -0.1564
   91SAPE   H8R 8904   2.665   4.092   5.944  0.6392 -1.3283  1.4793
   91SAPE   C29 8905   2.674   4.053   5.737  0.0966  0.1160 -0.0179
   91SAPE   H9R 8906   2.577   4.103   5.726 -0.6216 -1.1608  0.3157
   91SAPE  C210 8907   2.730   4.001   5.605  0.0735  0.3168 -0.1230
   91SAPE  H10R 8908   2.840   4.017   5.594 -0.0243 -0.0000 -1.8302
   91SAPE  H10S 8909   2.691   4.061   5.521  0.5839  0.3914 -0.3102
   91SAPE  C211 8910   2.700   3.853   5.580  0.4148  0.1758 -0.4319
   91SAPE  H11R 8911   2.652   3.791   5.658  0.5097 -1.1612 -1.3973
   91SAPE  C212 8912   2.689   3.799   5.459 -0.1838 -0.5167  0.4394
   91SAPE  H12R 8913   2.678   3.690   5.449  1.6230 -0.7870  0.9178
   91SAPE  C213 8914   2.730   3.876   5.333  0.1868  0.4110 -0.1936
   91SAPE  H13R 8915   2.680   3.974   5.323 -0.3895  0.3222  1.5047
   91SAPE  H13S 8916   2.689   3.820   5.246 -1.0610 -0.0759  0.6802
   91SAPE  C214 8917   2.883   3.877   5.312 -0.6061  0.3411  0.3974
   91SAPE  H14R 8918   2.944   3.821   5.385  0.0164 -3.6577 -2.8663
   91SAPE  C215 8919   2.945   3.957   5.222  0.3052  0.5842 -0.4847
   91SAPE  H15R 8920   3.055   3.947   5.218  0.6534  3.5283 -0.2664
   91SAPE  C216 8921   2.880   4.038   5.118 -0.0728 -0.4647 -0.1269
   91SAPE  H16R 8922   2.907   4.145   5.127 -1.3577 -0.2893  2.5418
   91SAPE  H16S 8923   2.771   4.052   5.131 -0.0323 -0.1072 -0.1734
   91SAPE  C217 8924   2.901   3.987   4.974  0.1287 -0.2338 -0.1431
   91SAPE  H17R 8925   2.831   3.902   4.958 -0.4661 -0.4349  2.9222
   91SAPE  H17S 8926   3.008   3.959   4.963  0.4285  0.9755 -0.4947
   91SAPE  C218 8927   2.875   4.107   4.878  0.3399 -0.0667  0.0867
   91SAPE  H18R 8928   2.946   4.190   4.901 -0.3882  0.3544  0.8434
   91SAPE  H18S 8929   2.775   4.149   4.902  0.1046 -1.8608  2.6528
   91SAPE  C219 8930   2.878   4.087   4.727 -0.0794  0.0296  0.1265
   91SAPE  H19R 8931   2.982   4.053   4.713  0.0018 -0.2912  1.3526
   91SAPE  H19S 8932   2.863   4.189   4.685  0.8376 -0.1023 -0.5385
   91SAPE  C220 8933   2.794   3.976   4.660 -0.4555  0.0122 -0.8576
   91SAPE  H20R 8934   2.687   4.006   4.665 -0.3459  0.3032 -0.0823
   91SAPE  H20S 8935   2.812   3.883   4.718 -0.2373 -0.3186 -1.4502
   91SAPE  H20T 8936   2.825   3.939   4.560 -2.5218 -2.0640 -0.8138
   91SAPE   C33 8937   2.375   3.804   5.893  0.2826 -0.1434 -0.3189
   91SAPE   H3X 8938   2.414   3.700   5.896  0.0185 -0.2511  3.0680
   91SAPE   H3Y 8939   2.442   3.875   5.841  1.4536 -0.1888  1.0774
   91SAPE   C34 8940   2.235   3.785   5.836  0.2219 -0.2492 -0.0489
   91SAPE   H4X 8941   2.168   3.873   5.848 -1.1999 -1.3631  0.4224
   91SAPE   H4Y 8942   2.196   3.694   5.887  2.3285 -0.3406  1.5613
   91SAPE   C35 8943   2.240   3.760   5.681  0.3020 -0.0485  0.2555
   91SAPE   H5X 8944   2.134   3.737   5.658 -0.4131  0.8651  2.4006
   91SAPE   H5Y 8945   2.297   3.666   5.663 -1.5764 -1.5245  1.4884
   91SAPE   C36 8946   2.289   3.864   5.594 -0.1168 -0.4929 -0.1888
   91SAPE   H6X 8947   2.398   3.882   5.604 -0.4966  1.0547  1.7998
   91SAPE   H6Y 8948   2.232   3.956   5.616 -0.1823  0.1124 -2.6068
   91SAPE   C37 8949   2.272   3.821   5.444 -0.5828  0.6823 -0.7075
   91SAPE   H7X 8950   2.169   3.781   5.434  0.1025 -1.8104  1.1895
   91SAPE   H7Y 8951   2.341   3.736   5.428 -0.6963  0.3076  0.6405
   91SAPE   C38 8952   2.312   3.933   5.343  0.2536  0.1139 -0.2024
   91SAPE   H8X 8953   2.400   3.991   5.377 -0.0914  0.9578 -0.7102
   91SAPE   H8Y 8954   2.220   3.994   5.333  0.9847  1.1777 -0.5926
   91SAPE   C39 8955   2.347   3.865   5.208 -0.2309 -0.5099  0.2471
   91SAPE   H9X 8956   2.259   3.804   5.178 -0.0341 -0.4572 -0.4538
   91SAPE   H9Y 8957   2.441   3.806   5.209  1.3686  1.8421 -0.2068
   91SAPE  C310 8958   2.378   3.962   5.093  0.7210 -0.2817 -0.3668
   91SAPE  H10X 8959   2.423   4.057   5.128 -0.0123  0.5191 -1.5325
   91SAPE  H10Y 8960   2.281   3.982   5.042  0.7472 -0.2660 -0.4097
   91SAPE  C311 8961   2.472   3.908   4.988  0.3829 -0.3262  0.4865
   91SAPE  H11X 8962   2.565   3.872   5.036  0.7039 -0.2892 -0.0967
   91SAPE  H11Y 8963   2.493   3.994   4.921 -1.3869 -0.0568  0.2097
   91SAPE  C312 8964   2.414   3.793   4.897 -0.6985 -0.7000  0.0081
   91SAPE  H12X 8965   2.310   3.817   4.868 -0.3914  0.1680 -0.4286
   91SAPE  H12Y 8966   2.420   3.703   4.962 -0.5070  0.8730  2.2893
   91SAPE  C313 8967   2.497   3.771   4.774 -0.0984  0.0762  0.1555
   91SAPE  H13X 8968   2.594   3.724   4.803  1.3031  0.7088 -3.0992
   91SAPE  H13Y 8969   2.540   3.865   4.734  0.8290  0.1366  1.2217
   91SAPE  C314 8970   2.430   3.702   4.659 -0.7212  0.4438  0.2080
   91SAPE  H14X 8971   2.344   3.764   4.628 -1.8304 -0.9382  0.4195
   91SAPE  H14Y 8972   2.389   3.601   4.681  2.1910 -0.7718  0.6668
   91SAPE  C315 8973   2.519   3.688   4.538  0.7630 -0.2467 -0.6051
   91SAPE  H15X 8974   2.552   3.782   4.489  0.5763 -0.9241 -2.0765
   91SAPE  H15Y 8975   2.464   3.623   4.467 -0.5091 -0.1242  0.2191
   91SAPE  C316 8976   2.644   3.603   4.572 -0.6452  0.2727  0.1087
   91SAPE  H16X 8977   2.610   3.499   4.594 -3.4611  0.9136 -0.7733
   91SAPE  H16Y 8978   2.705   3.636   4.658 -2.0507  1.5404  0.6630
   91SAPE  C317 8979   2.746   3.607   4.458  0.3728  0.1411  0.5587
   91SAPE  H17X 8980   2.761   3.713   4.430 -0.1763  0.4173  1.2911
   91SAPE  H17Y 8981   2.700   3.554   4.373  1.8062  0.4294 -0.4369
   91SAPE  C318 8982   2.877   3.539   4.487  0.2839 -0.2002 -0.1826
   91SAPE  H18X 8983   2.918   3.600   4.570  1.1797 -1.1104  0.0600
   91SAPE  H18Y 8984   2.945   3.548   4.400 -0.0075 -0.2339 -0.4162
   91SAPE  H18Z 8985   2.866   3.434   4.521  0.4365 -1.2949 -3.1622
   92SAPE     N 8986   1.261   5.075   6.523  0.5920 -0.4329 -0.0841
   92SAPE   HN1 8987   1.318   5.140   6.581  0.2237  0.9131 -1.1943
   92SAPE   HN2 8988   1.173   5.125   6.499  0.1389 -0.9743  0.4144
   92SAPE   HN3 8989   1.247   4.994   6.587  5.4705 -1.1358  0.5151
   92SAPE   C12 8990   1.327   5.024   6.401  0.3105 -0.5450  0.1088
   92SAPE  H12A 8991   1.347   5.106   6.330  0.9703 -1.0786 -0.3327
   92SAPE  H12B 8992   1.252   4.955   6.356 -1.8696  1.9109 -0.3021
   92SAPE   C11 8993   1.460   4.951   6.435  0.1565 -0.4762 -0.0380
   92SAPE  H11A 8994   1.526   5.036   6.465 -0.8008  0.4984 -0.5990
   92SAPE  H11B 8995   1.499   4.908   6.340  0.1978 -1.0482  0.2351
   92SAPE     P 8996   1.543   4.810   6.648 -0.3629  0.1327 -0.7206
   92SAPE   O13 8997   1.575   4.926   6.728  0.4538  0.6199  0.1277
   92SAPE   O14 8998   1.489   4.687   6.715 -0.2449 -0.3472  0.6319
   92SAPE   O12 8999   1.443   4.844   6.529  0.0810  0.2290  1.0314
   92SAPE   O11 9000   1.673   4.762   6.570  1.0859 -0.2388 -0.4698
   92SAPE    C1 9001   1.660   4.694   6.446 -0.2699 -0.0434  0.0600
   92SAPE    HA 9002   1.571   4.630   6.432  2.1488 -3.5702 -0.3818
   92SAPE    HB 9003   1.658   4.763   6.359  1.6732 -1.6694 -1.3736
   92SAPE    C2 9004   1.780   4.603   6.418 -0.3890  0.7103 -0.6730
   92SAPE    HS 9005   1.796   4.543   6.511 -2.5418 -0.1525 -0.8034
   92SAPE   O21 9006   1.889   4.688   6.403 -0.6870  0.0823 -0.5219
   92SAPE   C21 9007   2.008   4.633   6.417 -0.5347 -0.3481  0.2081
   92SAPE   O22 9008   2.028   4.528   6.478  0.2369 -0.3354  0.3843
   92SAPE   C22 9009   2.115   4.717   6.345  0.6610  0.0184  0.0814
   92SAPE   H2R 9010   2.060   4.783   6.275 -1.6952  0.2984  2.0489
   92SAPE   H2S 9011   2.161   4.775   6.428 -2.1357 -0.2714  1.9745
   92SAPE    C3 9012   1.762   4.499   6.302 -0.3174  0.1805  0.6590
   92SAPE    HX 9013   1.668   4.442   6.307 -0.0434 -0.8226 -2.9768
   92SAPE    HY 9014   1.849   4.431   6.309  0.5599  1.1477 -0.3266
   92SAPE   O31 9015   1.793   4.562   6.174 -0.0575  0.0589 -0.0084
   92SAPE   C31 9016   1.691   4.601   6.104 -0.8307 -0.3506 -0.2889
   92SAPE   O32 9017   1.577   4.613   6.142 -0.0352  0.1076  0.0158
   92SAPE   C32 9018   1.744   4.627   5.963 -0.4294  0.4964  0.0611
   92SAPE   H2X 9019   1.853   4.610   5.960 -0.1564  2.2319 -1.3264
   92SAPE   H2Y 9020   1.740   4.735   5.937  2.9343  1.3530  2.5377
   92SAPE   C23 9021   2.221   4.642   6.256  0.1374 -0.5639 -0.3054
   92SAPE   H3R 9022   2.276   4.574   6.325  0.5356  0.9688  0.9493
   92SAPE   H3S 9023   2.297   4.716   6.225 -1.0787  0.9089  0.1354
   92SAPE   C24 9024   2.184   4.568   6.128  0.7161  0.2890 -0.0320
   92SAPE   H4R 9025   2.278   4.551   6.071 -0.6135  0.7706 -2.5048
   92SAPE   H4S 9026   2.121   4.639   6.070  3.1106  0.9470 -2.0275
   92SAPE   C25 9027   2.123   4.430   6.162 -0.7312 -0.1110  0.1080
   92SAPE   H5R 9028   2.142   4.389   6.262 -0.2657 -1.2016 -0.4113
   92SAPE   C26 9029   2.069   4.343   6.080  0.6477 -1.0184  0.0531
   92SAPE   H6R 9030   2.034   4.249   6.126 -0.6903 -0.3256  0.5027
   92SAPE   C27 9031   2.035   4.363   5.940  0.2126 -0.4280  0.9488
   92SAPE   H7R 9032   2.069   4.461   5.900  2.8188 -1.4160  0.5209
   92SAPE   H7S 9033   1.924   4.370   5.942  0.1350 -0.8033 -0.6910
   92SAPE   C28 9034   2.091   4.258   5.850 -0.8603 -0.4004  0.5872
   92SAPE   H8R 9035   2.188   4.209   5.872  0.1270  0.5740 -1.3670
   92SAPE   C29 9036   2.052   4.238   5.720  0.3444 -1.0364  0.2641
   92SAPE   H9R 9037   2.114   4.166   5.665  2.6215  0.3508  0.8310
   92SAPE  C210 9038   1.936   4.300   5.642 -0.4014  0.3576 -0.6630
   92SAPE  H10R 9039   1.858   4.334   5.714  2.4545  0.3807  2.6908
   92SAPE  H10S 9040   1.893   4.220   5.579 -0.9984  0.9296 -1.0035
   92SAPE  C211 9041   1.985   4.412   5.552 -0.4290  0.1268 -0.3740
   92SAPE  H11R 9042   2.014   4.507   5.599 -0.6996  1.2255 -2.3078
   92SAPE  C212 9043   1.992   4.410   5.417 -0.7308 -0.0669  0.2388
   92SAPE  H12R 9044   2.051   4.496   5.380  0.3305 -0.5037  0.8646
   92SAPE  C213 9045   1.974   4.298   5.318 -0.0289  0.3164 -0.5986
   92SAPE  H13R 9046   1.898   4.315   5.239 -2.2606 -2.1279  0.8525
   92SAPE  H13S 9047   1.941   4.206   5.370 -0.3846  0.1430 -1.1210
   92SAPE  C214 9048   2.114   4.274   5.266  0.4830 -0.0250  0.4307
   92SAPE  H14R 9049   2.175   4.206   5.327 -0.1496 -0.3561  0.6976
   92SAPE  C215 9050   2.168   4.325   5.150 -0.1534  0.6036  0.5638
   92SAPE  H15R 9051   2.271   4.298   5.122 -0.7735 -1.4586  0.1116
   92SAPE  C216 9052   2.095   4.416   5.055 -0.5372  0.3149 -0.1060
   92SAPE  H16R 9053   2.110   4.521   5.086 -0.6355 -0.0885  1.3788
   92SAPE  H16S 9054   1.987   4.391   5.059  0.1156 -2.8132  1.4353
   92SAPE  C217 9055   2.138   4.393   4.910  0.4881 -0.6036 -0.4754
   92SAPE  H17R 9056   2.247   4.415   4.911  0.5520 -0.3646  3.4057
   92SAPE  H17S 9057   2.092   4.471   4.846  0.8448 -0.0437 -0.0618
   92SAPE  C218 9058   2.108   4.256   4.846 -0.0603 -0.0750  0.2813
   92SAPE  H18R 9059   2.003   4.218   4.851  0.5887 -2.0626 -0.3027
   92SAPE  H18S 9060   2.158   4.191   4.922  0.0093  2.2359  2.3448
   92SAPE  C219 9061   2.171   4.235   4.715  0.4480 -0.0583 -0.0980
   92SAPE  H19R 9062   2.130   4.308   4.643  0.7654 -0.0761 -0.2997
   92SAPE  H19S 9063   2.135   4.134   4.687 -0.1778  0.2159 -0.2993
   92SAPE  C220 9064   2.324   4.254   4.706  0.3660  0.4322 -0.0470
   92SAPE  H20R 9065   2.353   4.349   4.755 -0.3273  1.7139 -1.9834
   92SAPE  H20S 9066   2.374   4.234   4.608 -0.7391  0.8590 -0.7132
   92SAPE  H20T 9067   2.361   4.174   4.773 -0.1296 -2.3239 -2.8179
   92SAPE   C33 9068   1.659   4.552   5.856 -0.5913  0.6577 -0.4273
   92SAPE   H3X 9069   1.551   4.554   5.883 -0.0955 -2.9324  2.4259
   92SAPE   H3Y 9070   1.692   4.446   5.858 -1.7361  0.2816  1.9609
   92SAPE   C34 9071   1.686   4.611   5.719  0.4945 -0.5177  0.8333
   92SAPE   H4X 9072   1.792   4.608   5.687  0.6927  1.0699  1.2542
   92SAPE   H4Y 9073   1.667   4.721   5.720  0.9973 -0.4250  0.4495
   92SAPE   C35 9074   1.598   4.538   5.613  0.0365 -0.4609 -0.3419
   92SAPE   H5X 9075   1.491   4.539   5.640  0.3766  0.1937  1.0738
   92SAPE   H5Y 9076   1.620   4.429   5.610  0.5883 -0.7167  4.4537
   92SAPE   C36 9077   1.621   4.588   5.465 -0.3130  0.6415 -0.1221
   92SAPE   H6X 9078   1.725   4.563   5.434 -0.7270 -1.7747  0.2305
   92SAPE   H6Y 9079   1.605   4.698   5.465  1.1441  0.9055  2.0972
   92SAPE   C37 9080   1.530   4.508   5.364 -0.5605 -0.1534 -0.0761
   92SAPE   H7X 9081   1.427   4.504   5.405 -0.4764  1.8269  0.4407
   92SAPE   H7Y 9082   1.571   4.406   5.349 -0.4237 -0.1691  0.4009
   92SAPE   C38 9083   1.525   4.572   5.220 -0.1611 -0.0875  0.2338
   92SAPE   H8X 9084   1.623   4.623   5.209 -1.5609  2.1749 -3.4351
   92SAPE   H8Y 9085   1.448   4.652   5.219  0.8592  0.9201  0.1971
   92SAPE   C39 9086   1.502   4.473   5.102 -0.0427 -0.0984 -0.3373
   92SAPE   H9X 9087   1.502   4.536   5.011 -0.8440  0.5177  0.0833
   92SAPE   H9Y 9088   1.416   4.404   5.112  1.1256 -1.5128  0.5487
   92SAPE  C310 9089   1.625   4.382   5.076 -0.5339  0.0612  0.3282
   92SAPE  H10X 9090   1.628   4.306   5.158  1.3490  0.7339  0.9364
   92SAPE  H10Y 9091   1.711   4.451   5.080  1.3388 -2.1735  1.1235
   92SAPE  C311 9092   1.629   4.311   4.950 -0.2376  0.6456 -0.0592
   92SAPE  H11X 9093   1.639   4.390   4.873  3.6916  0.0855 -0.3202
   92SAPE  H11Y 9094   1.527   4.269   4.939  0.7409 -1.5390 -1.3835
   92SAPE  C312 9095   1.735   4.209   4.932 -0.5568  0.1897 -0.0243
   92SAPE  H12X 9096   1.728   4.129   5.010  0.5174 -0.8054 -0.9169
   92SAPE  H12Y 9097   1.824   4.271   4.952  0.0305 -0.5570 -0.2755
   92SAPE  C313 9098   1.737   4.134   4.799  0.2102  0.5617  0.5968
   92SAPE  H13X 9099   1.656   4.057   4.794 -0.6587  1.2584  2.6606
   92SAPE  H13Y 9100   1.834   4.080   4.801 -0.1358 -0.0653  1.4204
   92SAPE  C314 9101   1.743   4.220   4.672 -0.0467 -0.2027  0.2651
   92SAPE  H14X 9102   1.794   4.312   4.705 -1.5189  0.0518  1.9532
   92SAPE  H14Y 9103   1.639   4.247   4.645 -1.0059 -2.5815  1.2828
   92SAPE  C315 9104   1.821   4.151   4.554 -0.4450  0.0629 -0.6083
   92SAPE  H15X 9105   1.765   4.058   4.528 -0.3720 -0.1205 -0.1248
   92SAPE  H15Y 9106   1.924   4.140   4.594 -1.2222  0.0368  1.5611
   92SAPE  C316 9107   1.825   4.243   4.432  0.4807  0.1423 -0.5365
   92SAPE  H16X 9108   1.919   4.229   4.375  0.6602  0.7593 -0.3941
   92SAPE  H16Y 9109   1.826   4.349   4.463 -1.6225  0.2261 -0.5929
   92SAPE  C317 9110   1.712   4.210   4.335 -0.0877 -0.1477 -0.8705
   92SAPE  H17X 9111   1.701   4.100   4.321 -1.1947 -0.1443 -0.1163
   92SAPE  H17Y 9112   1.739   4.251   4.235  1.0082 -1.2671 -1.0548
   92SAPE  C318 9113   1.578   4.275   4.385  1.5538 -0.2316 -0.2505
   92SAPE  H18X 9114   1.599   4.372   4.435  2.6783 -1.4089  1.7208
   92SAPE  H18Y 9115   1.535   4.209   4.464 -0.6443  0.4150 -0.8407
   92SAPE  H18Z 9116   1.499   4.280   4.307  0.7772 -0.8864  0.4748
   93SAPE     N 9117   4.632   3.838   6.367  0.1972 -0.6889 -0.0670
   93SAPE   HN1 9118   4.718   3.852   6.311 -1.8127  1.0968 -2.9555
   93SAPE   HN2 9119   4.557   3.796   6.310 -1.0773  0.9109  0.3638
   93SAPE   HN3 9120   4.588   3.928   6.395 -0.4953 -0.1229 -2.7640
   93SAPE   C12 9121   4.668   3.735   6.476  0.1484  0.0779 -0.3564
   93SAPE  H12A 9122   4.575   3.700   6.525  0.5157 -1.5635 -0.7428
   93SAPE  H12B 9123   4.738   3.786   6.545  0.2558 -1.1210  0.4668
   93SAPE   C11 9124   4.750   3.619   6.409  0.5007  0.4300 -0.8661
   93SAPE  H11A 9125   4.834   3.669   6.356  1.2549  0.3384  0.1920
   93SAPE  H11B 9126   4.691   3.573   6.328 -1.9940  0.2027  0.9440
   93SAPE     P 9127   4.934   3.468   6.502  0.0772 -0.3182 -0.1373
   93SAPE   O13 9128   5.037   3.579   6.510 -0.3923  0.7640  0.6437
   93SAPE   O14 9129   4.933   3.362   6.603  0.0772  0.1762 -0.1523
   93SAPE   O12 9130   4.793   3.531   6.513  0.7307 -0.0165 -0.0358
   93SAPE   O11 9131   4.941   3.395   6.361  0.4154 -0.0970 -0.1696
   93SAPE    C1 9132   4.820   3.331   6.312  0.6167  0.0763  0.0509
   93SAPE    HA 9133   4.732   3.346   6.379 -1.0252  0.5327 -2.0974
   93SAPE    HB 9134   4.797   3.390   6.221 -0.4484 -0.5493 -0.1099
   93SAPE    C2 9135   4.847   3.183   6.266  1.3777  0.0743  0.0033
   93SAPE    HS 9136   4.869   3.124   6.357 -0.9175 -1.6148 -0.4505
   93SAPE   O21 9137   4.957   3.181   6.168  0.0736 -0.9984 -0.3949
   93SAPE   C21 9138   5.012   3.055   6.157 -0.0892  0.0696 -0.0231
   93SAPE   O22 9139   4.969   2.961   6.216  0.5274 -0.2521  0.0541
   93SAPE   C22 9140   5.145   3.064   6.068  0.4300 -0.2131 -0.1697
   93SAPE   H2R 9141   5.119   3.062   5.960  0.5572 -1.8095 -0.1879
   93SAPE   H2S 9142   5.186   3.167   6.080 -0.5859  0.5608 -2.6796
   93SAPE    C3 9143   4.719   3.117   6.197  0.4422 -0.4226  0.4544
   93SAPE    HX 9144   4.644   3.131   6.278  2.1552 -3.2918  2.7108
   93SAPE    HY 9145   4.742   3.011   6.176  1.3900  0.2111 -2.1005
   93SAPE   O31 9146   4.687   3.186   6.079  0.3492  0.6243  0.9373
   93SAPE   C31 9147   4.573   3.154   6.016 -0.1507  0.4778 -0.6336
   93SAPE   O32 9148   4.490   3.066   6.053 -0.0845 -0.8499 -0.3225
   93SAPE   C32 9149   4.566   3.220   5.878  0.7760  0.3881  0.0193
   93SAPE   H2X 9150   4.643   3.300   5.878  2.0953 -0.8333  0.0972
   93SAPE   H2Y 9151   4.464   3.264   5.884 -0.6553 -2.6143 -0.4273
   93SAPE   C23 9152   5.247   2.958   6.095 -0.6474 -0.4036  0.4524
   93SAPE   H3R 9153   5.249   2.929   6.202 -0.1306  0.4550  0.6917
   93SAPE   H3S 9154   5.339   3.011   6.062 -1.1265  0.2517  0.1453
   93SAPE   C24 9155   5.230   2.828   6.014 -0.2130 -0.6830 -0.9575
   93SAPE   H4R 9156   5.183   2.847   5.915 -4.8271 -1.8722  0.7336
   93SAPE   H4S 9157   5.169   2.754   6.070  0.9657 -1.1969 -0.3264
   93SAPE   C25 9158   5.370   2.772   5.999 -0.2585 -0.0008 -0.8146
   93SAPE   H5R 9159   5.439   2.820   6.070  0.0061 -0.6036 -0.6594
   93SAPE   C26 9160   5.413   2.693   5.905 -0.6054 -0.3247  0.5546
   93SAPE   H6R 9161   5.519   2.664   5.897 -0.9744 -1.3846 -1.1391
   93SAPE   C27 9162   5.334   2.637   5.791  0.5178  0.1859  0.1443
   93SAPE   H7R 9163   5.374   2.673   5.693  1.7092 -2.3960 -0.3876
   93SAPE   H7S 9164   5.226   2.662   5.782  1.1155  2.1232 -5.0928
   93SAPE   C28 9165   5.353   2.486   5.795  0.0924  0.2187  0.9914
   93SAPE   H8R 9166   5.311   2.438   5.884  0.0069 -0.9621  0.3326
   93SAPE   C29 9167   5.422   2.415   5.701 -0.3195  0.0747  0.3002
   93SAPE   H9R 9168   5.413   2.306   5.697  0.7923  0.0013 -1.0587
   93SAPE  C210 9169   5.479   2.484   5.577  0.0627  0.4510 -0.3783
   93SAPE  H10R 9170   5.577   2.445   5.543  0.6311  1.3371  0.1931
   93SAPE  H10S 9171   5.511   2.588   5.596  1.9477 -0.1159 -0.1799
   93SAPE  C211 9172   5.367   2.497   5.470  1.1359 -0.0851 -0.3380
   93SAPE  H11R 9173   5.264   2.505   5.507  0.0964 -0.4987 -2.9886
   93SAPE  C212 9174   5.395   2.506   5.340  0.2562  0.0242  1.0547
   93SAPE  H12R 9175   5.317   2.518   5.264 -1.3517 -0.9904  2.4957
   93SAPE  C213 9176   5.529   2.499   5.264 -0.1841  0.6280 -0.5203
   93SAPE  H13R 9177   5.607   2.559   5.316 -0.2516  0.2841 -0.0138
   93SAPE  H13S 9178   5.526   2.568   5.177  0.5190  1.0821 -0.1960
   93SAPE  C214 9179   5.569   2.361   5.223 -0.6872 -0.5422 -0.0823
   93SAPE  H14R 9180   5.587   2.294   5.308  0.1088  3.2645  3.0806
   93SAPE  C215 9181   5.581   2.313   5.093 -0.3541 -0.1017 -0.0199
   93SAPE  H15R 9182   5.605   2.209   5.068 -0.3906 -0.2607  0.5862
   93SAPE  C216 9183   5.551   2.388   4.961 -0.6336 -0.4533 -0.5036
   93SAPE  H16R 9184   5.464   2.457   4.967 -0.6412 -0.3517 -1.6190
   93SAPE  H16S 9185   5.519   2.305   4.894  0.9028 -2.7962  1.4907
   93SAPE  C217 9186   5.658   2.478   4.895  0.0259  0.6600  0.4305
   93SAPE  H17R 9187   5.701   2.553   4.964  0.0696  1.6534 -0.6418
   93SAPE  H17S 9188   5.612   2.540   4.815 -2.0717  1.3866  2.1226
   93SAPE  C218 9189   5.787   2.402   4.842  0.2371 -0.0714  0.3568
   93SAPE  H18R 9190   5.742   2.324   4.777 -0.9593  0.1629  0.8681
   93SAPE  H18S 9191   5.834   2.349   4.927 -0.1655  0.2564  0.7917
   93SAPE  C219 9192   5.888   2.487   4.771 -0.1353 -0.9828  0.2234
   93SAPE  H19R 9193   5.916   2.570   4.840 -1.4015  0.0417 -0.4667
   93SAPE  H19S 9194   5.862   2.538   4.676  3.9898 -0.1887 -0.6497
   93SAPE  C220 9195   6.027   2.426   4.764 -0.3234 -1.1775 -0.0791
   93SAPE  H20R 9196   6.091   2.431   4.855  1.7038 -0.5536 -1.4637
   93SAPE  H20S 9197   6.094   2.489   4.701 -0.1186 -0.4614  0.8305
   93SAPE  H20T 9198   6.014   2.322   4.727 -1.4805 -1.6054  1.4397
   93SAPE   C33 9199   4.572   3.128   5.757 -0.6733 -0.4620 -0.3865
   93SAPE   H3X 9200   4.472   3.085   5.736 -0.8185  0.1586 -0.9800
   93SAPE   H3Y 9201   4.644   3.046   5.779  0.2037  0.2910 -0.3693
   93SAPE   C34 9202   4.625   3.191   5.634 -0.5014 -0.0692  0.2085
   93SAPE   H4X 9203   4.732   3.219   5.646 -0.4261 -0.5812  0.8044
   93SAPE   H4Y 9204   4.576   3.290   5.630 -0.3895 -0.0409 -0.5922
   93SAPE   C35 9205   4.583   3.113   5.506 -0.5850  0.3062 -1.0758
   93SAPE   H5X 9206   4.473   3.099   5.511 -0.7923  2.0036  1.2793
   93SAPE   H5Y 9207   4.625   3.010   5.506 -0.0778  0.5077 -0.4742
   93SAPE   C36 9208   4.621   3.190   5.376  0.3843 -0.4592 -0.3321
   93SAPE   H6X 9209   4.729   3.205   5.356  0.1829  0.2930 -0.8762
   93SAPE   H6Y 9210   4.589   3.293   5.403  1.8243 -0.5918  2.2702
   93SAPE   C37 9211   4.555   3.139   5.244  0.0145  0.4583  0.1555
   93SAPE   H7X 9212   4.446   3.119   5.259 -0.0510  0.8705  0.2251
   93SAPE   H7Y 9213   4.612   3.047   5.216 -0.1147  0.8047 -1.3113
   93SAPE   C38 9214   4.580   3.244   5.134  0.5104  0.4192  0.1506
   93SAPE   H8X 9215   4.683   3.250   5.093  0.6700 -2.6231 -0.1695
   93SAPE   H8Y 9216   4.564   3.341   5.185 -0.0431  0.0848  0.6191
   93SAPE   C39 9217   4.474   3.241   5.024 -0.7050 -0.2527 -0.1244
   93SAPE   H9X 9218   4.371   3.254   5.064  0.1049  1.7071  1.5304
   93SAPE   H9Y 9219   4.499   3.149   4.968 -0.8675  0.1583 -0.8936
   93SAPE  C310 9220   4.510   3.352   4.921 -0.0205 -0.6047 -0.2278
   93SAPE  H10X 9221   4.610   3.338   4.875 -0.7618 -0.3719 -2.0173
   93SAPE  H10Y 9222   4.513   3.444   4.982  0.3965 -0.2419 -0.7923
   93SAPE  C311 9223   4.397   3.388   4.818  0.0272 -0.5529  0.1762
   93SAPE  H11X 9224   4.301   3.395   4.874  0.5932 -3.0304  1.6250
   93SAPE  H11Y 9225   4.401   3.301   4.749  1.6226  0.2441 -0.7747
   93SAPE  C312 9226   4.404   3.521   4.741  0.1686  0.3900 -0.3347
   93SAPE  H12X 9227   4.511   3.547   4.727  1.0242 -1.7039  1.7763
   93SAPE  H12Y 9228   4.362   3.589   4.818  0.0738  0.6305 -0.5942
   93SAPE  C313 9229   4.331   3.528   4.606  0.5831 -0.1238 -0.1181
   93SAPE  H13X 9230   4.228   3.523   4.647  0.7919 -0.1200  0.4092
   93SAPE  H13Y 9231   4.354   3.438   4.543 -2.1169 -1.7517  1.0684
   93SAPE  C314 9232   4.341   3.650   4.528 -0.4651 -0.4022  0.6431
   93SAPE  H14X 9233   4.257   3.636   4.456  1.1340 -0.9431 -1.1766
   93SAPE  H14Y 9234   4.441   3.668   4.485 -0.5986  4.3715  1.8371
   93SAPE  C315 9235   4.317   3.775   4.605 -0.1000 -0.3040  0.1755
   93SAPE  H15X 9236   4.397   3.789   4.681 -2.7713  1.1380  2.9535
   93SAPE  H15Y 9237   4.218   3.768   4.655  0.1782 -0.1667  0.7529
   93SAPE  C316 9238   4.313   3.899   4.504  0.3369  0.0483 -0.0794
   93SAPE  H16X 9239   4.236   3.874   4.427  0.8749 -0.6536 -0.3960
   93SAPE  H16Y 9240   4.417   3.908   4.467  1.3846  1.9391  2.9612
   93SAPE  C317 9241   4.276   4.031   4.576  0.1342 -0.6410  0.0182
   93SAPE  H17X 9242   4.346   4.042   4.662 -0.7862 -0.7278  0.7929
   93SAPE  H17Y 9243   4.170   4.023   4.605 -0.6061  2.6588 -1.2961
   93SAPE  C318 9244   4.280   4.146   4.471 -0.5179  0.0890  0.3508
   93SAPE  H18X 9245   4.384   4.182   4.466 -1.2936  2.4207 -0.0159
   93SAPE  H18Y 9246   4.230   4.233   4.520  1.1975  1.8930 -0.9748
   93SAPE  H18Z 9247   4.245   4.125   4.368 -0.4033  0.8712  0.1482
   94SAPE     N 9248   3.914   6.222   6.211 -0.2574 -0.6426 -0.0499
   94SAPE   HN1 9249   3.811   6.241   6.216 -0.1810  1.0154 -2.6696
   94SAPE   HN2 9250   3.971   6.284   6.150  0.3008 -0.1806  0.9097
   94SAPE   HN3 9251   3.923   6.120   6.192 -1.0889 -0.8277  0.4853
   94SAPE   C12 9252   3.957   6.253   6.357  0.1421  0.0641  0.8769
   94SAPE  H12A 9253   3.996   6.161   6.406 -0.5499 -0.2150  0.9184
   94SAPE  H12B 9254   3.865   6.279   6.414 -1.7232 -2.8656 -0.5490
   94SAPE   C11 9255   4.060   6.369   6.359 -0.4569  0.0166  0.6215
   94SAPE  H11A 9256   4.094   6.371   6.464 -0.9263 -1.1749  0.8109
   94SAPE  H11B 9257   4.007   6.465   6.343  0.9164  0.8864  1.1624
   94SAPE     P 9258   4.261   6.236   6.277  0.0637  0.0529 -0.0934
   94SAPE   O13 9259   4.400   6.270   6.228 -0.2159  0.3785  0.1687
   94SAPE   O14 9260   4.254   6.182   6.415  0.3699  0.5200 -0.6004
   94SAPE   O12 9261   4.162   6.356   6.257 -0.3740  0.2262  0.0806
   94SAPE   O11 9262   4.189   6.142   6.178 -0.0386 -0.2217  0.7965
   94SAPE    C1 9263   4.216   6.143   6.038  0.8089  0.6254 -0.5099
   94SAPE    HA 9264   4.317   6.102   6.018 -0.1527 -1.7987 -0.7231
   94SAPE    HB 9265   4.155   6.065   5.987  1.0234 -0.7268  1.2109
   94SAPE    C2 9266   4.184   6.278   5.965 -0.1435 -0.2982 -0.0603
   94SAPE    HS 9267   4.267   6.344   5.999 -2.0055  1.0834  2.0908
   94SAPE   O21 9268   4.062   6.341   6.009  0.2905 -0.8492  0.3906
   94SAPE   C21 9269   4.033   6.459   5.972 -0.3332 -0.7323  0.3740
   94SAPE   O22 9270   4.117   6.536   5.931  0.3248 -0.0615  0.3552
   94SAPE   C22 9271   3.892   6.500   5.986 -0.5740  0.5234  0.4752
   94SAPE   H2R 9272   3.865   6.472   6.090  0.4896 -0.9416  0.4014
   94SAPE   H2S 9273   3.880   6.610   5.986  2.0214  0.9387  2.8133
   94SAPE    C3 9274   4.193   6.249   5.816  0.6847 -0.3396 -0.0027
   94SAPE    HX 9275   4.167   6.344   5.765  1.5474  1.2162  2.3195
   94SAPE    HY 9276   4.113   6.173   5.803 -0.0421  0.4174 -0.0432
   94SAPE   O31 9277   4.320   6.193   5.778 -0.0421  0.3201 -0.3979
   94SAPE   C31 9278   4.309   6.137   5.659  0.0031 -0.7828 -0.6171
   94SAPE   O32 9279   4.212   6.141   5.585 -0.1469 -0.3620 -0.1493
   94SAPE   C32 9280   4.446   6.073   5.635  0.6260 -0.9994  0.0548
   94SAPE   H2X 9281   4.468   5.996   5.712 -0.9899 -1.4643  0.0858
   94SAPE   H2Y 9282   4.533   6.140   5.650  1.6616 -2.0514 -0.9135
   94SAPE   C23 9283   3.824   6.420   5.877 -0.9683  0.2823 -1.2797
   94SAPE   H3R 9284   3.721   6.405   5.917 -0.4590 -0.1200 -0.0764
   94SAPE   H3S 9285   3.862   6.316   5.862 -3.1162 -0.7643  0.0379
   94SAPE   C24 9286   3.805   6.503   5.742 -0.1121  0.1945  0.2357
   94SAPE   H4R 9287   3.763   6.600   5.778  0.2825  0.3882  0.1891
   94SAPE   H4S 9288   3.722   6.452   5.690 -1.4092 -1.1847  3.4290
   94SAPE   C25 9289   3.924   6.517   5.645  0.6699  0.0008 -0.3712
   94SAPE   H5R 9290   4.010   6.572   5.687 -1.6568  1.9565  2.1512
   94SAPE   C26 9291   3.919   6.467   5.520  0.6854 -0.1773  0.6200
   94SAPE   H6R 9292   4.011   6.471   5.461  1.1015  1.2765  1.3401
   94SAPE   C27 9293   3.807   6.395   5.448  0.1286 -0.1196  1.0418
   94SAPE   H7R 9294   3.815   6.430   5.343  1.1542  1.7730  1.7197
   94SAPE   H7S 9295   3.706   6.428   5.482 -1.1635 -1.1104 -1.5914
   94SAPE   C28 9296   3.822   6.243   5.448 -0.0543  0.7050 -0.0678
   94SAPE   H8R 9297   3.776   6.190   5.532  0.7837  1.0664  0.6290
   94SAPE   C29 9298   3.899   6.173   5.365  0.4209  1.1534  0.2046
   94SAPE   H9R 9299   3.903   6.066   5.387  0.8848  1.4432  1.6972
   94SAPE  C210 9300   3.973   6.213   5.246  0.0864 -0.9340  0.1663
   94SAPE  H10R 9301   3.994   6.322   5.239  3.1368 -1.3519  1.3240
   94SAPE  H10S 9302   3.907   6.185   5.161  0.9802  0.3728 -1.0187
   94SAPE  C211 9303   4.104   6.140   5.244 -0.1240 -0.6685 -0.2078
   94SAPE  H11R 9304   4.144   6.109   5.341 -0.5013  1.5878  0.7264
   94SAPE  C212 9305   4.177   6.117   5.132 -0.0984  0.4297 -1.3448
   94SAPE  H12R 9306   4.277   6.073   5.147  0.4821  1.8768 -0.7588
   94SAPE  C213 9307   4.155   6.176   4.993  0.2991 -0.2757  0.4019
   94SAPE  H13R 9308   4.249   6.219   4.953  0.8154 -2.0509 -0.3996
   94SAPE  H13S 9309   4.077   6.255   4.989  1.7209  1.1475 -1.6962
   94SAPE  C214 9310   4.113   6.071   4.893  0.4101 -0.0072 -0.3145
   94SAPE  H14R 9311   4.048   5.991   4.933 -0.7880  1.6676  1.2441
   94SAPE  C215 9312   4.120   6.075   4.759  0.9059 -0.0081 -0.4306
   94SAPE  H15R 9313   4.089   5.987   4.700  2.3838  0.0978 -1.3831
   94SAPE  C216 9314   4.173   6.192   4.682 -0.9175 -0.0665 -0.6768
   94SAPE  H16R 9315   4.279   6.165   4.664 -1.2579 -1.1308 -1.1996
   94SAPE  H16S 9316   4.163   6.283   4.744  0.6459  0.6015 -1.3713
   94SAPE  C217 9317   4.101   6.218   4.547  0.5705 -0.0485 -0.6305
   94SAPE  H17R 9318   3.996   6.249   4.569 -0.2522 -2.0672 -1.4465
   94SAPE  H17S 9319   4.089   6.120   4.496 -0.2821 -0.7996  0.9470
   94SAPE  C218 9320   4.178   6.311   4.451  0.1719 -0.4264  0.0245
   94SAPE  H18R 9321   4.280   6.266   4.453 -0.8029 -2.8742  3.5620
   94SAPE  H18S 9322   4.189   6.413   4.493  1.1918 -0.1168 -0.9211
   94SAPE  C219 9323   4.119   6.330   4.317  0.9534 -0.2269 -0.0189
   94SAPE  H19R 9324   4.030   6.396   4.309  1.6373  0.6849 -0.1759
   94SAPE  H19S 9325   4.088   6.228   4.284  1.6628 -0.4168 -0.1205
   94SAPE  C220 9326   4.216   6.382   4.215  0.7008  0.1583  0.0657
   94SAPE  H20R 9327   4.297   6.307   4.202  2.0945  1.4598  0.9256
   94SAPE  H20S 9328   4.254   6.478   4.256 -0.7493  0.9122 -0.2695
   94SAPE  H20T 9329   4.175   6.412   4.116  0.6038  0.6768  0.2578
   94SAPE   C33 9330   4.464   6.019   5.489 -0.1168  0.2342 -0.6392
   94SAPE   H3X 9331   4.373   5.959   5.469  0.8212 -1.0278 -1.2251
   94SAPE   H3Y 9332   4.555   5.956   5.495 -0.1439  0.3087  1.0999
   94SAPE   C34 9333   4.474   6.129   5.385  0.6649 -0.2983  0.0814
   94SAPE   H4X 9334   4.527   6.212   5.437  0.2689 -0.9078  1.5255
   94SAPE   H4Y 9335   4.378   6.167   5.343  1.7975 -1.7735 -4.3333
   94SAPE   C35 9336   4.554   6.088   5.252  0.8005 -0.6726 -0.7676
   94SAPE   H5X 9337   4.514   5.993   5.212 -0.4850 -0.4385 -0.1040
   94SAPE   H5Y 9338   4.659   6.066   5.279  0.3954  0.0262  1.6209
   94SAPE   C36 9339   4.551   6.198   5.144 -0.1315  0.2445  0.6304
   94SAPE   H6X 9340   4.595   6.292   5.184 -0.1910  1.7856 -2.5931
   94SAPE   H6Y 9341   4.446   6.216   5.115  0.2822  0.4742 -0.8119
   94SAPE   C37 9342   4.624   6.160   5.018 -0.6710 -0.2727  0.7829
   94SAPE   H7X 9343   4.600   6.061   4.974  1.9623 -1.1744  1.2069
   94SAPE   H7Y 9344   4.734   6.158   5.029 -0.6890 -0.9627  0.8627
   94SAPE   C38 9345   4.601   6.268   4.915  0.2417  0.5210 -0.2867
   94SAPE   H8X 9346   4.623   6.369   4.953  2.7243  0.1206 -0.4812
   94SAPE   H8Y 9347   4.496   6.260   4.880  0.6000 -0.6679 -1.1723
   94SAPE   C39 9348   4.693   6.260   4.791  0.3252 -0.4579  0.3406
   94SAPE   H9X 9349   4.676   6.167   4.733 -0.7901 -0.0356 -0.0336
   94SAPE   H9Y 9350   4.799   6.263   4.825  0.2317  0.3772  0.5884
   94SAPE  C310 9351   4.672   6.380   4.700 -0.3561 -0.4175 -0.1307
   94SAPE  H10X 9352   4.769   6.397   4.648  0.6443  0.0857  1.8229
   94SAPE  H10Y 9353   4.657   6.472   4.761  2.6125  0.6127 -0.8063
   94SAPE  C311 9354   4.555   6.375   4.597 -0.9349 -0.1544 -0.1379
   94SAPE  H11X 9355   4.464   6.382   4.660 -0.4703 -0.9391  0.6376
   94SAPE  H11Y 9356   4.547   6.275   4.550 -3.0031  0.3299 -0.9255
   94SAPE  C312 9357   4.560   6.483   4.485 -0.0575 -0.0622  0.1108
   94SAPE  H12X 9358   4.611   6.573   4.526 -4.0549  0.7073  4.1785
   94SAPE  H12Y 9359   4.457   6.521   4.466 -0.2967 -0.0274  1.4169
   94SAPE  C313 9360   4.618   6.425   4.349 -0.7684 -0.7483  0.3355
   94SAPE  H13X 9361   4.633   6.513   4.283 -0.6966  1.8618  3.5648
   94SAPE  H13Y 9362   4.556   6.348   4.297  0.0755 -0.8351 -0.5799
   94SAPE  C314 9363   4.768   6.375   4.368  0.3082  0.0208  0.0621
   94SAPE  H14X 9364   4.758   6.268   4.398 -1.4149  0.2852  0.5313
   94SAPE  H14Y 9365   4.809   6.441   4.447  0.5054 -0.8542  0.7065
   94SAPE  C315 9366   4.844   6.393   4.240  0.2265 -0.4796  0.3150
   94SAPE  H15X 9367   4.853   6.503   4.227 -2.4376 -0.3227 -0.8711
   94SAPE  H15Y 9368   4.793   6.342   4.156  2.1201 -0.7280 -0.7255
   94SAPE  C316 9369   4.986   6.330   4.237 -0.2467 -0.4937 -0.0641
   94SAPE  H16X 9370   4.991   6.240   4.303 -1.9254  0.7244  1.8542
   94SAPE  H16Y 9371   5.069   6.398   4.263  0.2391 -0.5067 -1.4891
   94SAPE  C317 9372   5.033   6.297   4.098 -1.0428  0.5236  0.5135
   94SAPE  H17X 9373   5.144   6.293   4.100 -1.0339 -2.4504 -0.6225
   94SAPE  H17Y 9374   5.001   6.385   4.039  0.7831 -0.1966 -1.7038
   94SAPE  C318 9375   4.973   6.163   4.049 -0.5463 -0.5556  0.2716
   94SAPE  H18X 9376   5.039   6.085   4.093 -0.1790  1.0261  2.7137
   94SAPE  H18Y 9377   4.978   6.158   3.938  0.0064  0.3063  0.2502
   94SAPE  H18Z 9378   4.871   6.140   4.087 -1.1843 -0.8341 -1.5070
   95SAPE     N 9379   0.814   6.781   6.229 -1.0998  0.3344  0.3121
   95SAPE   HN1 9380   0.745   6.852   6.261  1.4470  3.1476  0.0501
   95SAPE   HN2 9381   0.820   6.713   6.308 -1.5292 -0.8500 -0.6368
   95SAPE   HN3 9382   0.907   6.826   6.213 -0.1607 -1.5383  0.1579
   95SAPE   C12 9383   0.771   6.702   6.112  0.1372  0.2547  0.2006
   95SAPE  H12A 9384   0.844   6.728   6.032  0.3975  1.2476  0.7456
   95SAPE  H12B 9385   0.673   6.740   6.077 -0.1172 -0.6185 -0.0854
   95SAPE   C11 9386   0.775   6.551   6.130  0.1815  0.4090 -0.4478
   95SAPE  H11A 9387   0.868   6.516   6.180 -0.8358 -1.9620 -0.0796
   95SAPE  H11B 9388   0.789   6.509   6.028 -3.4518  1.6771 -1.6266
   95SAPE     P 9389   0.648   6.362   6.262 -0.4098  0.1968 -0.0106
   95SAPE   O13 9390   0.776   6.328   6.336  0.5391  0.6242  0.2466
   95SAPE   O14 9391   0.520   6.363   6.335  0.3233 -0.4910  0.1030
   95SAPE   O12 9392   0.662   6.505   6.206  0.3124  0.4932  0.1859
   95SAPE   O11 9393   0.637   6.270   6.128 -0.0249 -0.3855 -0.1831
   95SAPE    C1 9394   0.541   6.296   6.025 -0.0797 -0.7338  0.7316
   95SAPE    HA 9395   0.436   6.306   6.059  0.1105 -0.0019  1.1102
   95SAPE    HB 9396   0.569   6.395   5.983  0.3713 -0.7839  0.9034
   95SAPE    C2 9397   0.537   6.186   5.910  0.3057  0.3781  0.0088
   95SAPE    HS 9398   0.443   6.128   5.927  1.5241 -1.7883 -0.2912
   95SAPE   O21 9399   0.656   6.106   5.918  0.8478 -0.1754  0.2342
   95SAPE   C21 9400   0.660   6.013   6.005 -0.0482  0.4227 -0.1920
   95SAPE   O22 9401   0.559   5.967   6.057  0.0685  0.1518 -0.1052
   95SAPE   C22 9402   0.813   5.975   6.021 -0.3111  1.1472 -0.0893
   95SAPE   H2R 9403   0.869   5.974   5.926 -0.3912 -1.8300 -0.1995
   95SAPE   H2S 9404   0.853   6.063   6.075 -2.2611  0.3346  2.9711
   95SAPE    C3 9405   0.530   6.253   5.767 -0.0318  0.0155  0.0574
   95SAPE    HX 9406   0.526   6.178   5.685 -1.2710  0.2363 -0.1007
   95SAPE    HY 9407   0.623   6.312   5.753 -1.2001  1.6895 -1.1355
   95SAPE   O31 9408   0.408   6.326   5.755 -0.3882 -0.8866 -0.0585
   95SAPE   C31 9409   0.414   6.455   5.712 -0.4138 -0.4018 -0.1916
   95SAPE   O32 9410   0.519   6.512   5.688  0.1487  0.1620 -0.2684
   95SAPE   C32 9411   0.269   6.513   5.707 -0.6335  0.8753  0.5917
   95SAPE   H2X 9412   0.277   6.608   5.764  0.2562  0.6075  0.9358
   95SAPE   H2Y 9413   0.213   6.449   5.778  0.4144  0.0496  0.6992
   95SAPE   C23 9414   0.829   5.838   6.075 -0.0190  0.8069 -0.3027
   95SAPE   H3R 9415   0.749   5.800   6.142  0.6242 -0.5594 -0.2659
   95SAPE   H3S 9416   0.915   5.845   6.145  1.0468  0.0859 -1.4837
   95SAPE   C24 9417   0.855   5.735   5.971  0.2025  0.5481  0.6161
   95SAPE   H4R 9418   0.881   5.639   6.021 -0.3775 -1.1089 -2.0673
   95SAPE   H4S 9419   0.951   5.755   5.917 -0.3344 -0.0666 -0.6075
   95SAPE   C25 9420   0.758   5.703   5.872 -0.1235  0.6462  1.4991
   95SAPE   H5R 9421   0.657   5.683   5.908 -0.5241  0.3456  0.2786
   95SAPE   C26 9422   0.770   5.702   5.737 -0.5159 -0.0128 -0.1486
   95SAPE   H6R 9423   0.682   5.681   5.673 -1.6132 -0.7050  1.5317
   95SAPE   C27 9424   0.890   5.742   5.660  0.2667 -0.4217  0.5659
   95SAPE   H7R 9425   0.920   5.844   5.692 -1.0309 -0.5305  2.2514
   95SAPE   H7S 9426   0.855   5.770   5.558 -2.1868  0.0116  1.4639
   95SAPE   C28 9427   1.016   5.669   5.662 -0.0884 -0.9715 -0.4700
   95SAPE   H8R 9428   1.044   5.627   5.759 -1.6147  0.2839  0.5676
   95SAPE   C29 9429   1.098   5.637   5.556 -0.3590  0.3825 -0.1660
   95SAPE   H9R 9430   1.187   5.578   5.584 -0.4409 -0.5543 -1.7516
   95SAPE  C210 9431   1.082   5.652   5.407  0.5731  0.1536 -0.5038
   95SAPE  H10R 9432   1.181   5.649   5.356 -0.2004 -0.8286 -1.9890
   95SAPE  H10S 9433   1.048   5.756   5.387  0.1691 -0.3080 -2.3252
   95SAPE  C211 9434   0.996   5.551   5.339 -0.0747  0.3097  0.0481
   95SAPE  H11R 9435   1.019   5.445   5.356 -2.2548 -0.0232  1.2492
   95SAPE  C212 9436   0.896   5.575   5.255 -0.4148 -1.2604 -0.3221
   95SAPE  H12R 9437   0.836   5.492   5.216 -1.4155 -1.2366  1.0812
   95SAPE  C213 9438   0.857   5.710   5.217  0.2159  0.2493  0.5550
   95SAPE  H13R 9439   0.928   5.733   5.135 -1.0416  0.6346 -0.4675
   95SAPE  H13S 9440   0.878   5.792   5.290  2.7999  0.3497 -0.2163
   95SAPE  C214 9441   0.722   5.716   5.152  0.2606 -0.7300  0.1218
   95SAPE  H14R 9442   0.643   5.750   5.221  1.9322  1.7122  0.9741
   95SAPE  C215 9443   0.682   5.675   5.031  0.4628 -0.4055  0.1290
   95SAPE  H15R 9444   0.580   5.704   5.003  1.2743  0.6106 -2.0552
   95SAPE  C216 9445   0.762   5.611   4.916  0.3807 -0.6606 -0.2290
   95SAPE  H16R 9446   0.725   5.506   4.911  2.4007 -1.5680  1.7250
   95SAPE  H16S 9447   0.868   5.590   4.941 -0.2815 -2.3930  1.4111
   95SAPE  C217 9448   0.742   5.682   4.776 -0.4931 -0.8144 -0.3918
   95SAPE  H17R 9449   0.768   5.789   4.792  1.4996 -1.2611 -0.2762
   95SAPE  H17S 9450   0.635   5.673   4.748 -0.5325 -3.0746  0.3201
   95SAPE  C218 9451   0.834   5.627   4.666 -0.0298  0.0128 -0.2796
   95SAPE  H18R 9452   0.807   5.520   4.650  3.4172 -0.9551 -0.4183
   95SAPE  H18S 9453   0.938   5.631   4.705  0.4366 -0.6854 -1.4111
   95SAPE  C219 9454   0.830   5.704   4.534 -0.4725  0.0873  0.1464
   95SAPE  H19R 9455   0.923   5.692   4.474 -3.1989 -0.8129 -4.4036
   95SAPE  H19S 9456   0.819   5.810   4.567  0.5529  0.1249  0.3818
   95SAPE  C220 9457   0.725   5.670   4.431 -0.6906  0.3906  0.0151
   95SAPE  H20R 9458   0.621   5.678   4.469 -0.7094  2.6373 -0.3690
   95SAPE  H20S 9459   0.739   5.563   4.404  0.7083  0.6538 -0.4154
   95SAPE  H20T 9460   0.729   5.747   4.351  0.7850  0.3899  0.0555
   95SAPE   C33 9461   0.209   6.529   5.563  0.2110 -0.4676 -0.1644
   95SAPE   H3X 9462   0.257   6.614   5.511 -0.9737  0.6137  0.4553
   95SAPE   H3Y 9463   0.106   6.569   5.574 -0.4343 -1.6969 -1.5121
   95SAPE   C34 9464   0.195   6.409   5.471 -0.4035  0.1896  0.8376
   95SAPE   H4X 9465   0.141   6.325   5.519  0.5039 -1.3950 -0.8044
   95SAPE   H4Y 9466   0.295   6.370   5.446  0.0383  1.9148 -0.2587
   95SAPE   C35 9467   0.124   6.444   5.334 -0.7932  0.0019 -0.5909
   95SAPE   H5X 9468   0.186   6.530   5.300 -1.2495  0.1140 -1.1477
   95SAPE   H5Y 9469   0.023   6.469   5.371 -1.2455 -2.9533  0.4036
   95SAPE   C36 9470   0.109   6.328   5.231 -0.2255 -0.2623 -0.1569
   95SAPE   H6X 9471   0.208   6.292   5.196 -0.4910  2.3421 -4.3063
   95SAPE   H6Y 9472   0.052   6.363   5.142  1.8343 -1.2911 -1.9544
   95SAPE   C37 9473   0.029   6.206   5.287 -0.6097 -0.9887 -0.0832
   95SAPE   H7X 9474  -0.068   6.246   5.324  0.5759  1.1640  0.8601
   95SAPE   H7Y 9475   0.085   6.171   5.376  2.8233  1.9462 -0.8824
   95SAPE   C38 9476   0.029   6.084   5.189  0.3029  0.4041  0.3481
   95SAPE   H8X 9477  -0.051   6.099   5.114 -0.6908 -1.4097  0.9748
   95SAPE   H8Y 9478  -0.004   6.000   5.255  0.7919  0.9605  1.3246
   95SAPE   C39 9479   0.162   6.042   5.115  0.7513 -0.7476  0.2380
   95SAPE   H9X 9480   0.236   6.057   5.196  0.7984 -1.0874  0.2595
   95SAPE   H9Y 9481   0.187   6.113   5.033  0.4352 -1.3344 -0.3752
   95SAPE  C310 9482   0.159   5.898   5.055  0.1542 -0.2192  0.2530
   95SAPE  H10X 9483   0.098   5.833   5.120  2.1821 -1.3080  1.1681
   95SAPE  H10Y 9484   0.260   5.852   5.046  0.6161  0.9098 -0.6291
   95SAPE  C311 9485   0.119   5.914   4.911 -0.3584 -0.3187  1.4057
   95SAPE  H11X 9486   0.202   5.965   4.858 -0.1349 -2.5147 -0.4903
   95SAPE  H11Y 9487   0.040   5.991   4.896  0.6469  0.4976  0.1285
   95SAPE  C312 9488   0.090   5.786   4.832  0.6519 -0.5730 -0.2929
   95SAPE  H12X 9489   0.005   5.733   4.880  0.6094  0.0927  0.3842
   95SAPE  H12Y 9490   0.177   5.717   4.839  0.7626 -0.4959 -0.8485
   95SAPE  C313 9491   0.056   5.801   4.687 -0.1217 -0.0036 -0.2194
   95SAPE  H13X 9492   0.119   5.880   4.641  0.3219 -0.0261  0.3500
   95SAPE  H13Y 9493  -0.050   5.830   4.667 -0.2396 -0.5458 -0.3954
   95SAPE  C314 9494   0.094   5.683   4.606 -0.3377  0.0707  0.4270
   95SAPE  H14X 9495   0.030   5.603   4.650 -0.1873  0.7964  2.0374
   95SAPE  H14Y 9496   0.199   5.654   4.630 -0.1201 -0.5896 -1.2098
   95SAPE  C315 9497   0.085   5.682   4.456  0.2998  0.7625  0.2243
   95SAPE  H15X 9498   0.148   5.760   4.407 -1.0644  1.6650 -0.1521
   95SAPE  H15Y 9499  -0.016   5.715   4.425 -0.7443 -1.3594  1.2028
   95SAPE  C316 9500   0.108   5.539   4.385  0.1314 -0.2070 -0.0115
   95SAPE  H16X 9501   0.107   5.547   4.274  4.0672 -1.0997 -0.2589
   95SAPE  H16Y 9502   0.028   5.469   4.415 -1.1888  1.2076 -0.1230
   95SAPE  C317 9503   0.248   5.473   4.407  0.5260 -0.2555  0.1677
   95SAPE  H17X 9504   0.252   5.368   4.371 -0.6631  0.1034 -1.0633
   95SAPE  H17Y 9505   0.267   5.478   4.517 -4.7260 -0.7834  1.4113
   95SAPE  C318 9506   0.373   5.548   4.360 -0.0291 -0.1962  0.6287
   95SAPE  H18X 9507   0.388   5.562   4.250 -1.1381  0.6573  0.5731
   95SAPE  H18Y 9508   0.469   5.507   4.400  0.5481  1.0162  0.5335
   95SAPE  H18Z 9509   0.373   5.654   4.394 -1.4953 -0.3436  1.1233
   96SAPE     N 9510   3.256   0.162   6.528 -0.3688  0.4077  0.8727
   96SAPE   HN1 9511   3.310   0.182   6.615  0.3694 -0.6241  0.6705
   96SAPE   HN2 9512   3.208   0.245   6.488  2.1655  2.1174  1.1171
   96SAPE   HN3 9513   3.201   0.077   6.549 -0.8887  0.4720 -0.1943
   96SAPE   C12 9514   3.331   0.108   6.410 -0.2256  0.5985 -0.9498
   96SAPE  H12A 9515   3.399   0.025   6.442 -2.7983 -1.6189 -0.8340
   96SAPE  H12B 9516   3.386   0.197   6.375  0.6403  1.3515  2.0163
   96SAPE   C11 9517   3.237   0.069   6.298 -0.0855  0.7614 -0.2639
   96SAPE  H11A 9518   3.287   0.090   6.201 -1.4197  0.8976 -0.9467
   96SAPE  H11B 9519   3.149   0.137   6.298 -0.7750 -0.0254  1.8549
   96SAPE     P 9520   3.094  -0.141   6.398 -0.4296  0.0814  0.1133
   96SAPE   O13 9521   3.094  -0.063   6.520  0.5871 -0.2062 -0.5600
   96SAPE   O14 9522   2.964  -0.158   6.334  0.1861  0.4623 -0.6255
   96SAPE   O12 9523   3.202  -0.071   6.299 -0.1754  0.4233  0.2836
   96SAPE   O11 9524   3.159  -0.284   6.429  0.4358 -0.5076 -0.3928
   96SAPE    C1 9525   3.279  -0.332   6.369 -0.1665 -0.3359 -0.0223
   96SAPE    HA 9526   3.352  -0.249   6.354  0.4334 -0.6868  0.8934
   96SAPE    HB 9527   3.330  -0.393   6.445 -0.2687 -1.8580 -1.1311
   96SAPE    C2 9528   3.255  -0.416   6.238  0.7292 -0.3278 -0.7821
   96SAPE    HS 9529   3.334  -0.494   6.228  0.5318 -0.3550 -2.3029
   96SAPE   O21 9530   3.263  -0.326   6.125 -0.2746  0.4490 -0.0627
   96SAPE   C21 9531   3.384  -0.297   6.080 -0.9443  0.5552  0.2533
   96SAPE   O22 9532   3.481  -0.350   6.135  0.3669  0.0605  0.5625
   96SAPE   C22 9533   3.383  -0.211   5.968 -0.1388 -0.5779  0.2452
   96SAPE   H2R 9534   3.327  -0.260   5.885  1.7883  1.3208 -2.3547
   96SAPE   H2S 9535   3.336  -0.111   5.980  0.7657  0.3988 -3.2078
   96SAPE    C3 9536   3.119  -0.490   6.243  0.2138 -0.1355  0.1762
   96SAPE    HX 9537   3.034  -0.425   6.270  0.3560  1.0736 -2.0461
   96SAPE    HY 9538   3.127  -0.570   6.320  2.2440  0.0168  0.1856
   96SAPE   O31 9539   3.091  -0.564   6.126 -0.5406 -0.4373 -0.9272
   96SAPE   C31 9540   3.027  -0.493   6.029 -0.1298 -0.5718 -0.7190
   96SAPE   O32 9541   2.986  -0.377   6.048 -0.4300  0.0730  1.0986
   96SAPE   C32 9542   2.996  -0.586   5.909  0.0405  0.3604  0.2270
   96SAPE   H2X 9543   2.896  -0.634   5.913  0.7019 -1.4694 -2.3930
   96SAPE   H2Y 9544   3.060  -0.677   5.905 -1.8574 -1.1370  1.8859
   96SAPE   C23 9545   3.526  -0.184   5.912  0.2165  0.3088  0.3068
   96SAPE   H3R 9546   3.546  -0.276   5.853  0.4800 -0.6642  1.8644
   96SAPE   H3S 9547   3.601  -0.177   5.993 -0.4858 -0.5417  1.0493
   96SAPE   C24 9548   3.536  -0.061   5.821 -0.3139 -0.0658  0.4454
   96SAPE   H4R 9549   3.635  -0.041   5.775  1.9439 -0.9424  4.4387
   96SAPE   H4S 9550   3.534   0.022   5.895 -0.7605 -1.2972  1.8729
   96SAPE   C25 9551   3.413  -0.052   5.726 -0.2145 -0.2646  0.1544
   96SAPE   H5R 9552   3.310  -0.062   5.765  0.0522  1.4386  1.4010
   96SAPE   C26 9553   3.412  -0.034   5.590  0.2563 -0.2800 -1.2252
   96SAPE   H6R 9554   3.316  -0.061   5.544 -0.1539  1.4272 -1.4513
   96SAPE   C27 9555   3.538  -0.051   5.508 -0.7190  0.1472  0.6784
   96SAPE   H7R 9556   3.561  -0.159   5.499  0.0277  0.3771 -0.4118
   96SAPE   H7S 9557   3.624   0.012   5.541  0.5005 -1.0747 -0.0777
   96SAPE   C28 9558   3.506   0.004   5.368  0.5850 -0.1817 -0.8176
   96SAPE   H8R 9559   3.527   0.111   5.360  2.2559 -0.2766  1.4468
   96SAPE   C29 9560   3.476  -0.070   5.260 -0.4337 -0.1523  0.2266
   96SAPE   H9R 9561   3.458  -0.013   5.168 -1.0761  1.6113  1.3875
   96SAPE  C210 9562   3.455  -0.220   5.266 -0.1572 -0.1471 -0.4498
   96SAPE  H10R 9563   3.371  -0.250   5.331  3.0093 -3.5348  2.5754
   96SAPE  H10S 9564   3.548  -0.271   5.300 -0.2785 -2.0992 -2.8162
   96SAPE  C211 9565   3.436  -0.303   5.148  0.3206  0.9143  0.3001
   96SAPE  H11R 9566   3.375  -0.393   5.165 -0.9236  1.1906 -2.3160
   96SAPE  C212 9567   3.486  -0.295   5.023 -0.1125 -0.1227  0.1663
   96SAPE  H12R 9568   3.447  -0.371   4.954 -2.2626  1.3042 -0.3041
   96SAPE  C213 9569   3.582  -0.191   4.975 -0.0907  0.0748 -0.0150
   96SAPE  H13R 9570   3.628  -0.150   5.068  0.7329 -0.5439 -0.1308
   96SAPE  H13S 9571   3.524  -0.106   4.933  0.0753  0.8534  1.2864
   96SAPE  C214 9572   3.692  -0.246   4.887  1.3686  0.3291 -0.4683
   96SAPE  H14R 9573   3.705  -0.355   4.892  0.0181  0.1642 -0.2318
   96SAPE  C215 9574   3.795  -0.173   4.827 -0.1362 -0.0541 -0.1987
   96SAPE  H15R 9575   3.873  -0.219   4.764 -1.2894 -0.6151 -1.2654
   96SAPE  C216 9576   3.808  -0.021   4.831  0.7992 -0.2456 -0.9866
   96SAPE  H16R 9577   3.902  -0.002   4.886  0.4038  1.0691 -0.7376
   96SAPE  H16S 9578   3.727   0.029   4.889  1.2550 -0.1676 -0.4119
   96SAPE  C217 9579   3.831   0.052   4.693 -0.1281  0.1512 -0.4781
   96SAPE  H17R 9580   3.929   0.017   4.655 -0.3281  0.8073 -1.6299
   96SAPE  H17S 9581   3.827   0.159   4.721 -0.6578 -0.2342  1.0373
   96SAPE  C218 9582   3.721   0.024   4.594 -0.3189 -0.1970  0.3306
   96SAPE  H18R 9583   3.621   0.044   4.640 -0.3520  1.7188 -0.4590
   96SAPE  H18S 9584   3.735  -0.081   4.562  0.2157 -0.3912  1.1754
   96SAPE  C219 9585   3.729   0.112   4.464 -0.1984  0.6668  0.3222
   96SAPE  H19R 9586   3.828   0.088   4.420  0.3130  0.4513  1.5556
   96SAPE  H19S 9587   3.733   0.220   4.490  0.9373  0.6555  0.2325
   96SAPE  C220 9588   3.619   0.088   4.364 -0.0859  0.3148  0.2013
   96SAPE  H20R 9589   3.597  -0.020   4.353 -0.4658  0.2537  1.4661
   96SAPE  H20S 9590   3.647   0.138   4.268 -1.5336 -0.6436 -0.7521
   96SAPE  H20T 9591   3.529   0.139   4.404  1.0877  2.4673  0.2735
   96SAPE   C33 9592   3.010  -0.513   5.771 -0.2312 -0.1242 -0.0002
   96SAPE   H3X 9593   3.113  -0.470   5.764 -0.2607 -0.1322 -0.4821
   96SAPE   H3Y 9594   2.932  -0.434   5.762 -1.4437 -1.2282  0.4985
   96SAPE   C34 9595   2.985  -0.609   5.650  0.1522  0.4945 -0.0081
   96SAPE   H4X 9596   2.880  -0.644   5.640  0.7042 -1.6937  1.1908
   96SAPE   H4Y 9597   3.030  -0.711   5.658  1.0702  0.9577  1.0838
   96SAPE   C35 9598   3.054  -0.554   5.528  0.0777 -0.2676  0.2028
   96SAPE   H5X 9599   3.163  -0.547   5.548 -0.0103  0.3345  0.4833
   96SAPE   H5Y 9600   3.013  -0.454   5.504 -1.2248 -1.4838 -3.2712
   96SAPE   C36 9601   3.053  -0.640   5.410 -0.6673 -0.7274  0.3373
   96SAPE   H6X 9602   2.950  -0.660   5.374 -0.0298 -0.8010 -1.5833
   96SAPE   H6Y 9603   3.097  -0.741   5.427  0.3359 -0.3749 -0.0469
   96SAPE   C37 9604   3.133  -0.586   5.288 -0.4348  0.2598 -0.4770
   96SAPE   H7X 9605   3.240  -0.611   5.301  0.3602  2.6954 -1.8768
   96SAPE   H7Y 9606   3.114  -0.479   5.269  1.0397  1.0693  2.1458
   96SAPE   C38 9607   3.093  -0.648   5.146  0.4411 -0.2143  0.4172
   96SAPE   H8X 9608   2.989  -0.622   5.118  0.4105 -1.5618 -0.8334
   96SAPE   H8Y 9609   3.082  -0.758   5.151  0.2544 -0.1470  1.5843
   96SAPE   C39 9610   3.194  -0.579   5.057  0.0820  0.3298  0.2881
   96SAPE   H9X 9611   3.293  -0.620   5.084  0.5645 -0.4058 -2.4093
   96SAPE   H9Y 9612   3.191  -0.471   5.081 -2.0914  0.5209 -0.5579
   96SAPE  C310 9613   3.193  -0.600   4.904  0.4794  0.4189  0.1155
   96SAPE  H10X 9614   3.096  -0.652   4.888  1.0466 -0.2607 -1.2193
   96SAPE  H10Y 9615   3.269  -0.666   4.858 -2.2212 -1.2622 -2.2603
   96SAPE  C311 9616   3.190  -0.474   4.820 -0.2847  0.0850 -0.2942
   96SAPE  H11X 9617   3.274  -0.410   4.852 -1.7489  1.5249  0.8514
   96SAPE  H11Y 9618   3.089  -0.428   4.831  0.7232  2.0207  1.6857
   96SAPE  C312 9619   3.210  -0.493   4.674  0.2576  0.3476 -0.9843
   96SAPE  H12X 9620   3.147  -0.574   4.631 -1.0400  0.4097  0.7114
   96SAPE  H12Y 9621   3.312  -0.530   4.649  0.2302 -0.3218 -0.1602
   96SAPE  C313 9622   3.191  -0.358   4.601  0.1562  0.4841 -0.0342
   96SAPE  H13X 9623   3.269  -0.282   4.624 -1.1083  1.6742  0.4615
   96SAPE  H13Y 9624   3.102  -0.300   4.631  0.8911  0.0646  3.3007
   96SAPE  C314 9625   3.198  -0.382   4.450  0.2009 -0.2499  0.6790
   96SAPE  H14X 9626   3.123  -0.457   4.416 -1.1066  1.5694 -0.6216
   96SAPE  H14Y 9627   3.293  -0.434   4.425  0.5939  1.1223 -0.8550
   96SAPE  C315 9628   3.191  -0.251   4.371 -0.1878 -0.4119  0.0653
   96SAPE  H15X 9629   3.212  -0.267   4.263 -1.2588  0.0236 -0.2279
   96SAPE  H15Y 9630   3.268  -0.179   4.407  1.6198 -3.0482  1.8066
   96SAPE  C316 9631   3.052  -0.179   4.368 -0.7466 -0.6984  0.5838
   96SAPE  H16X 9632   3.026  -0.141   4.469  1.8474  3.3830 -0.0481
   96SAPE  H16Y 9633   2.981  -0.250   4.321 -0.4158 -0.7987  0.2251
   96SAPE  C317 9634   3.056  -0.055   4.285 -0.4936 -0.2191 -0.3243
   96SAPE  H17X 9635   3.128  -0.046   4.201  0.8470  0.4263  0.8611
   96SAPE  H17Y 9636   3.082   0.027   4.355 -0.8198 -0.8929  0.6158
   96SAPE  C318 9637   2.917  -0.004   4.235  0.7620 -0.2439 -0.4287
   96SAPE  H18X 9638   2.883  -0.071   4.153  1.7797  0.6502 -1.6125
   96SAPE  H18Y 9639   2.930   0.099   4.196 -0.4234 -0.3900 -1.2630
   96SAPE  H18Z 9640   2.846   0.012   4.319  1.6814  3.6493 -0.1874
   97SAPE     N 9641   1.348   5.700   6.893  0.4096 -0.0228 -0.3527
   97SAPE   HN1 9642   1.333   5.722   6.994 -2.4936 -1.5167 -0.3505
   97SAPE   HN2 9643   1.314   5.785   6.844  0.7074  1.6311  2.1098
   97SAPE   HN3 9644   1.292   5.614   6.874  0.9072 -0.5639  0.5047
   97SAPE   C12 9645   1.493   5.659   6.875 -0.4854  0.3126 -0.2657
   97SAPE  H12A 9646   1.521   5.590   6.958 -1.5584  0.8323  0.5504
   97SAPE  H12B 9647   1.556   5.749   6.891 -1.6584  1.0551  0.2901
   97SAPE   C11 9648   1.519   5.609   6.736  0.2541  0.0786 -0.5590
   97SAPE  H11A 9649   1.629   5.600   6.721  0.2528 -0.7887 -0.1328
   97SAPE  H11B 9650   1.481   5.678   6.659  0.2244  0.9641  0.2338
   97SAPE     P 9651   1.517   5.345   6.708 -0.1249 -0.1285 -0.2588
   97SAPE   O13 9652   1.573   5.300   6.837 -0.2984 -0.6093  0.3977
   97SAPE   O14 9653   1.413   5.262   6.649  0.0284 -0.2426 -0.3473
   97SAPE   O12 9654   1.457   5.484   6.720 -0.2819 -0.2818 -0.2641
   97SAPE   O11 9655   1.634   5.371   6.598  0.2463 -0.2649 -0.3777
   97SAPE    C1 9656   1.586   5.415   6.469  0.0496  0.8958 -0.1249
   97SAPE    HA 9657   1.500   5.351   6.438  0.7177 -0.8036  1.3489
   97SAPE    HB 9658   1.563   5.524   6.475 -0.3664  0.7527  1.2069
   97SAPE    C2 9659   1.705   5.415   6.375  0.2770 -0.2075  0.1019
   97SAPE    HS 9660   1.667   5.441   6.273 -2.2203  0.2016  1.0651
   97SAPE   O21 9661   1.770   5.286   6.366  0.5163  0.1293  0.5611
   97SAPE   C21 9662   1.704   5.184   6.306  0.4842 -0.9019 -0.9476
   97SAPE   O22 9663   1.593   5.192   6.263  0.4459  0.0676  0.6129
   97SAPE   C22 9664   1.776   5.054   6.328 -0.8681 -0.0994 -0.3126
   97SAPE   H2R 9665   1.881   5.082   6.353 -0.6757  0.5036 -1.7112
   97SAPE   H2S 9666   1.734   5.006   6.419 -0.5132 -0.6999 -0.4568
   97SAPE    C3 9667   1.809   5.521   6.428 -0.0198 -0.0918  0.3362
   97SAPE    HX 9668   1.811   5.499   6.537 -1.2445  0.8625  0.5609
   97SAPE    HY 9669   1.767   5.623   6.426 -1.2116 -0.5125  1.7311
   97SAPE   O31 9670   1.936   5.507   6.359  0.0445  0.1896  0.3012
   97SAPE   C31 9671   1.956   5.569   6.245 -0.3891  0.5691  0.9552
   97SAPE   O32 9672   1.863   5.615   6.176 -0.4044  0.2144  0.3199
   97SAPE   C32 9673   2.102   5.582   6.226  1.3827 -0.5200 -0.0365
   97SAPE   H2X 9674   2.157   5.487   6.240  2.1052 -0.3905 -1.7527
   97SAPE   H2Y 9675   2.150   5.654   6.296  0.9661  0.6865 -0.9535
   97SAPE   C23 9676   1.772   4.959   6.206  0.0492  0.6321  0.3970
   97SAPE   H3R 9677   1.665   4.937   6.187  0.2334 -1.1285  1.1814
   97SAPE   H3S 9678   1.812   4.856   6.222 -1.1536  0.0342 -0.2239
   97SAPE   C24 9679   1.836   5.011   6.081  0.4861 -0.5161  0.4483
   97SAPE   H4R 9680   1.778   5.101   6.053 -1.3969 -2.1116 -1.1151
   97SAPE   H4S 9681   1.819   4.950   5.989  4.4159  2.1619 -2.3606
   97SAPE   C25 9682   1.986   5.023   6.100 -0.1546  0.3486  0.0546
   97SAPE   H5R 9683   2.019   5.077   6.190  0.9694  0.2664 -0.2904
   97SAPE   C26 9684   2.080   4.955   6.040  0.2528 -0.3448  0.5079
   97SAPE   H6R 9685   2.181   4.952   6.084 -0.7765  0.2961  3.0894
   97SAPE   C27 9686   2.052   4.869   5.923 -0.1426  0.7401  0.5647
   97SAPE   H7R 9687   1.994   4.926   5.847 -1.6951 -0.6057  0.6810
   97SAPE   H7S 9688   1.986   4.783   5.947 -1.9917  2.5286  2.2920
   97SAPE   C28 9689   2.177   4.811   5.846  0.1081  0.3994 -0.3249
   97SAPE   H8R 9690   2.241   4.761   5.921 -1.4603 -1.2351  0.0209
   97SAPE   C29 9691   2.209   4.808   5.714 -0.4012 -0.5242 -0.4483
   97SAPE   H9R 9692   2.288   4.748   5.666 -1.6444 -2.0325 -0.7109
   97SAPE  C210 9693   2.131   4.874   5.602 -0.5074 -0.0708 -0.2358
   97SAPE  H10R 9694   2.208   4.927   5.541  1.1295  1.4558  2.9010
   97SAPE  H10S 9695   2.083   4.961   5.652 -2.1286 -1.4420  0.6671
   97SAPE  C211 9696   2.022   4.788   5.537 -0.1419  0.3122 -0.3456
   97SAPE  H11R 9697   1.948   4.733   5.597 -0.8263 -0.0603 -1.4984
   97SAPE  C212 9698   2.018   4.773   5.407 -0.9104 -1.1151  0.3197
   97SAPE  H12R 9699   1.928   4.730   5.359 -1.6488  0.1820  0.5109
   97SAPE  C213 9700   2.107   4.835   5.301  0.1947 -0.2032 -0.3607
   97SAPE  H13R 9701   2.156   4.925   5.342  0.0251 -0.5416  0.6027
   97SAPE  H13S 9702   2.051   4.867   5.210 -1.5525  1.2896  1.1649
   97SAPE  C214 9703   2.221   4.749   5.264 -0.3887 -0.0137  0.5084
   97SAPE  H14R 9704   2.241   4.657   5.321  0.0517  0.7469  1.6118
   97SAPE  C215 9705   2.320   4.795   5.182 -0.4337  0.0030  0.1344
   97SAPE  H15R 9706   2.403   4.726   5.160 -1.0072 -0.6740  0.0512
   97SAPE  C216 9707   2.329   4.927   5.102 -1.5609  0.1350 -0.1814
   97SAPE  H16R 9708   2.437   4.954   5.107 -0.8631 -2.4664  0.6026
   97SAPE  H16S 9709   2.285   5.004   5.168  0.8997  1.5147 -0.0332
   97SAPE  C217 9710   2.273   4.928   4.965  0.3013 -0.5254 -0.2909
   97SAPE  H17R 9711   2.328   5.009   4.911  1.7700 -0.7492  0.8220
   97SAPE  H17S 9712   2.164   4.947   4.953  0.6848  0.5883 -2.8913
   97SAPE  C218 9713   2.314   4.807   4.882 -0.1916 -0.3171 -0.0486
   97SAPE  H18R 9714   2.264   4.713   4.912 -0.2492 -0.1778  0.2949
   97SAPE  H18S 9715   2.425   4.801   4.895  0.1553  1.5258 -1.6554
   97SAPE  C219 9716   2.281   4.829   4.733  0.6650  0.2354 -0.4421
   97SAPE  H19R 9717   2.362   4.898   4.699  0.9177  0.7954  1.2071
   97SAPE  H19S 9718   2.184   4.881   4.725  0.3538 -0.5732 -2.4018
   97SAPE  C220 9719   2.268   4.701   4.650  0.0966 -0.3221  0.2208
   97SAPE  H20R 9720   2.223   4.715   4.549  1.6512  1.2729 -0.2995
   97SAPE  H20S 9721   2.188   4.640   4.697 -2.4219  3.0627  0.7045
   97SAPE  H20T 9722   2.367   4.653   4.636 -0.9427 -2.6630  0.3647
   97SAPE   C33 9723   2.140   5.630   6.085 -0.5639  0.1000  0.9308
   97SAPE   H3X 9724   2.249   5.651   6.083 -0.5644  0.2187 -1.5840
   97SAPE   H3Y 9725   2.086   5.719   6.046 -1.0536 -0.8160 -0.5993
   97SAPE   C34 9726   2.119   5.515   5.975 -0.0198 -0.1322 -0.6413
   97SAPE   H4X 9727   2.130   5.573   5.881  1.1049  3.2118  1.3670
   97SAPE   H4Y 9728   2.011   5.492   5.976 -0.6042  2.0958  2.7294
   97SAPE   C35 9729   2.218   5.404   5.982  0.3831  0.2392 -0.3153
   97SAPE   H5X 9730   2.211   5.353   6.080  2.9500  1.0121  0.3485
   97SAPE   H5Y 9731   2.324   5.437   5.977  0.6758 -0.7492 -0.8110
   97SAPE   C36 9732   2.204   5.295   5.886  0.2547 -0.0368  0.8248
   97SAPE   H6X 9733   2.098   5.261   5.880  0.3590 -0.1755 -1.2860
   97SAPE   H6Y 9734   2.279   5.218   5.915  1.5779  0.9522  0.1246
   97SAPE   C37 9735   2.240   5.351   5.734  0.2884 -0.1627 -0.4263
   97SAPE   H7X 9736   2.327   5.415   5.761 -0.0900 -0.3444  1.3332
   97SAPE   H7Y 9737   2.159   5.418   5.697 -0.3035 -1.0331 -0.7293
   97SAPE   C38 9738   2.274   5.236   5.638 -0.0774  0.2977 -0.5059
   97SAPE   H8X 9739   2.178   5.181   5.630  0.5568 -0.9592  0.2514
   97SAPE   H8Y 9740   2.344   5.166   5.686  0.1846  0.7512 -0.2168
   97SAPE   C39 9741   2.317   5.288   5.507  0.5460 -0.1477 -0.0692
   97SAPE   H9X 9742   2.397   5.230   5.457  1.4662 -0.3673  1.5754
   97SAPE   H9Y 9743   2.349   5.394   5.515 -2.2620  0.7216  0.8745
   97SAPE  C310 9744   2.199   5.281   5.405  0.0622  0.0175 -0.2084
   97SAPE  H10X 9745   2.102   5.315   5.448  1.1552 -0.7725  3.2153
   97SAPE  H10Y 9746   2.179   5.176   5.375 -2.5567  0.6165 -0.8151
   97SAPE  C311 9747   2.228   5.368   5.281 -0.7748  0.0964  0.5835
   97SAPE  H11X 9748   2.329   5.357   5.237  0.2680 -2.4153  3.2524
   97SAPE  H11Y 9749   2.232   5.476   5.306  0.0489  0.7386 -1.9854
   97SAPE  C312 9750   2.127   5.355   5.169 -0.5645  0.1099  0.3449
   97SAPE  H12X 9751   2.123   5.450   5.112 -0.9782  0.3164  0.7101
   97SAPE  H12Y 9752   2.029   5.336   5.219 -0.5680  0.2467  0.3887
   97SAPE  C313 9753   2.160   5.239   5.075  0.1178  0.3533  0.5404
   97SAPE  H13X 9754   2.117   5.143   5.111  1.1257 -0.0825  0.5868
   97SAPE  H13Y 9755   2.269   5.224   5.065  0.0137 -0.8108  0.9955
   97SAPE  C314 9756   2.105   5.262   4.932  0.2669 -0.0853 -0.0141
   97SAPE  H14X 9757   2.014   5.324   4.947  0.1883 -0.0579 -0.5972
   97SAPE  H14Y 9758   2.075   5.163   4.892 -0.2118 -1.4461  3.3315
   97SAPE  C315 9759   2.188   5.345   4.827  0.1959 -0.0272 -0.6194
   97SAPE  H15X 9760   2.274   5.283   4.795  0.0651 -0.6567  0.1969
   97SAPE  H15Y 9761   2.223   5.431   4.888 -0.3008 -0.4191  0.2428
   97SAPE  C316 9762   2.101   5.377   4.705  0.3034  0.6150 -0.1615
   97SAPE  H16X 9763   2.004   5.427   4.727 -0.5676  0.2464 -2.7689
   97SAPE  H16Y 9764   2.080   5.284   4.648 -0.0737  1.3243 -1.2038
   97SAPE  C317 9765   2.180   5.460   4.595 -0.3884  0.0552 -1.0019
   97SAPE  H17X 9766   2.207   5.559   4.639  0.1884 -1.7206  3.1604
   97SAPE  H17Y 9767   2.102   5.469   4.517 -0.4944 -0.3046 -0.9390
   97SAPE  C318 9768   2.304   5.381   4.549  0.0484 -0.2057 -0.3861
   97SAPE  H18X 9769   2.279   5.276   4.577 -1.6230  0.4423  0.6875
   97SAPE  H18Y 9770   2.383   5.414   4.619 -4.3702  2.0860  4.1340
   97SAPE  H18Z 9771   2.330   5.402   4.443  2.2599  2.8782  0.6304
   98SAPE     N 9772   3.811   1.958   6.823  0.1281 -0.0918 -0.0645
   98SAPE   HN1 9773   3.793   1.856   6.818 -0.6142 -0.1432  2.5179
   98SAPE   HN2 9774   3.914   1.970   6.823 -0.1205  3.3982  2.3297
   98SAPE   HN3 9775   3.777   1.982   6.918 -2.3320  2.4017 -1.4444
   98SAPE   C12 9776   3.737   2.048   6.725 -0.2006 -0.2648 -0.4265
   98SAPE  H12A 9777   3.762   2.015   6.622  0.5044  1.9015 -0.9859
   98SAPE  H12B 9778   3.779   2.149   6.743 -1.5876  0.0091  1.7142
   98SAPE   C11 9779   3.597   2.037   6.774 -0.3288 -0.1980  0.4365
   98SAPE  H11A 9780   3.538   2.113   6.718  0.0554 -0.4428 -0.3130
   98SAPE  H11B 9781   3.582   2.068   6.880 -1.4990  0.3524  0.1255
   98SAPE     P 9782   3.391   1.872   6.750  0.3322  0.0176  0.0429
   98SAPE   O13 9783   3.358   1.819   6.886 -0.4764  0.0448 -0.2671
   98SAPE   O14 9784   3.303   1.976   6.691 -0.5083 -1.1099  0.1956
   98SAPE   O12 9785   3.542   1.907   6.749 -0.2491 -0.3246 -0.1657
   98SAPE   O11 9786   3.379   1.749   6.646  0.0956  0.5002 -0.0831
   98SAPE    C1 9787   3.461   1.737   6.538 -0.5219 -0.1472  0.1535
   98SAPE    HA 9788   3.565   1.717   6.568 -0.3776  0.1376 -0.1468
   98SAPE    HB 9789   3.429   1.649   6.478  0.6059 -1.1168  0.9287
   98SAPE    C2 9790   3.457   1.855   6.432 -0.3633 -0.4412 -0.9919
   98SAPE    HS 9791   3.471   1.955   6.479  1.1425 -0.5160 -1.2236
   98SAPE   O21 9792   3.339   1.847   6.357  0.0819 -0.3824  0.5672
   98SAPE   C21 9793   3.287   1.960   6.300 -0.4341  0.6780 -0.6032
   98SAPE   O22 9794   3.340   2.068   6.304  1.0904  0.3601 -0.1453
   98SAPE   C22 9795   3.154   1.922   6.230 -0.2716 -0.1414 -0.1477
   98SAPE   H2R 9796   3.098   1.864   6.307 -1.0795 -0.0025 -0.6226
   98SAPE   H2S 9797   3.100   2.017   6.209 -0.1760 -0.3738 -1.5057
   98SAPE    C3 9798   3.585   1.846   6.341  0.1217  0.0606  0.5531
   98SAPE    HX 9799   3.665   1.883   6.408  0.4252  0.1331  0.1534
   98SAPE    HY 9800   3.575   1.919   6.258  0.1538 -0.5932 -0.0293
   98SAPE   O31 9801   3.611   1.715   6.307 -0.0535 -0.0227 -0.1404
   98SAPE   C31 9802   3.592   1.683   6.186 -0.0604  0.0653  0.6583
   98SAPE   O32 9803   3.525   1.742   6.102 -0.3455 -0.0129 -0.0699
   98SAPE   C32 9804   3.667   1.555   6.152  0.1979 -0.4345 -0.3782
   98SAPE   H2X 9805   3.589   1.478   6.139  0.9656 -0.9943 -2.0388
   98SAPE   H2Y 9806   3.740   1.532   6.232 -0.8412 -0.3329  0.6166
   98SAPE   C23 9807   3.171   1.843   6.100 -0.2110 -0.0990  0.3177
   98SAPE   H3R 9808   3.264   1.782   6.092  0.4971  0.9362  0.3920
   98SAPE   H3S 9809   3.172   1.919   6.019  0.1999  1.7969  2.0046
   98SAPE   C24 9810   3.049   1.756   6.064 -0.8645 -0.6067  0.2128
   98SAPE   H4R 9811   3.055   1.734   5.955  0.7156 -1.2027  0.4018
   98SAPE   H4S 9812   2.960   1.821   6.078  0.0680  0.9569 -0.8475
   98SAPE   C25 9813   3.053   1.629   6.149 -0.1212 -0.2762 -0.0169
   98SAPE   H5R 9814   3.155   1.591   6.168  0.3536  1.1370  0.3887
   98SAPE   C26 9815   2.954   1.557   6.207  0.4034  0.1519  0.5084
   98SAPE   H6R 9816   2.979   1.465   6.262  0.4627  0.1417  0.4649
   98SAPE   C27 9817   2.814   1.604   6.196 -0.1350  0.0664  0.0035
   98SAPE   H7R 9818   2.800   1.594   6.086  1.5754 -0.5856 -0.1959
   98SAPE   H7S 9819   2.797   1.713   6.207  0.7785  0.0484  1.8482
   98SAPE   C28 9820   2.708   1.520   6.273 -0.3748  0.1141 -0.0835
   98SAPE   H8R 9821   2.744   1.464   6.360  0.8203  0.8656 -0.0728
   98SAPE   C29 9822   2.573   1.526   6.258  0.4737 -0.4194  0.2920
   98SAPE   H9R 9823   2.507   1.461   6.317 -1.5664 -0.0467 -1.4485
   98SAPE  C210 9824   2.507   1.614   6.148  0.4787 -0.5084  0.0616
   98SAPE  H10R 9825   2.563   1.627   6.053  0.1101 -0.2711 -0.1219
   98SAPE  H10S 9826   2.491   1.716   6.190  0.2540 -0.3649 -0.3699
   98SAPE  C211 9827   2.377   1.552   6.121 -0.0189 -0.6396 -0.9268
   98SAPE  H11R 9828   2.318   1.529   6.212 -0.1581  0.9974 -0.5709
   98SAPE  C212 9829   2.327   1.543   5.999  0.3516  0.3220  0.1733
   98SAPE  H12R 9830   2.227   1.498   5.989  0.8160 -0.7560  0.3060
   98SAPE  C213 9831   2.387   1.574   5.862 -0.5301 -0.0161  0.0707
   98SAPE  H13R 9832   2.373   1.493   5.788  2.3812  0.0225 -0.6385
   98SAPE  H13S 9833   2.498   1.571   5.857 -0.5751  0.0168 -1.2264
   98SAPE  C214 9834   2.328   1.702   5.796  0.4285  0.4429  0.4888
   98SAPE  H14R 9835   2.300   1.781   5.868 -0.8238 -0.3702  0.9332
   98SAPE  C215 9836   2.326   1.725   5.663 -0.1534  0.3764 -0.1276
   98SAPE  H15R 9837   2.284   1.818   5.623  0.5511 -0.6702 -3.5772
   98SAPE  C216 9838   2.372   1.630   5.553  0.2820 -0.0396  0.2526
   98SAPE  H16R 9839   2.390   1.526   5.589  0.8308 -0.2662 -0.6580
   98SAPE  H16S 9840   2.471   1.664   5.516 -0.0252  2.6657  1.6835
   98SAPE  C217 9841   2.283   1.618   5.428 -0.0271  0.1494 -0.2145
   98SAPE  H17R 9842   2.327   1.544   5.358 -0.3176  0.8487 -1.1559
   98SAPE  H17S 9843   2.276   1.719   5.380  0.9949  0.4522  0.2409
   98SAPE  C218 9844   2.139   1.575   5.448 -0.1193 -0.0476  0.2235
   98SAPE  H18R 9845   2.083   1.660   5.493  1.5727  0.6881  1.0311
   98SAPE  H18S 9846   2.136   1.485   5.513  1.0515 -0.9401 -0.9011
   98SAPE  C219 9847   2.064   1.547   5.319 -0.1196 -0.2280 -0.6056
   98SAPE  H19R 9848   1.967   1.505   5.353 -0.8616  2.1675  0.4861
   98SAPE  H19S 9849   2.125   1.468   5.270  1.2916 -1.3588  2.6418
   98SAPE  C220 9850   2.055   1.663   5.216 -0.1700  0.3091  0.6662
   98SAPE  H20R 9851   2.147   1.724   5.202 -1.0468  1.1848 -1.8307
   98SAPE  H20S 9852   1.979   1.737   5.249  0.7235  1.4598  0.2116
   98SAPE  H20T 9853   2.021   1.634   5.114 -0.7842  2.3141  0.2495
   98SAPE   C33 9854   3.736   1.576   6.012 -0.6369  0.1507 -0.7720
   98SAPE   H3X 9855   3.779   1.678   6.005 -3.8764  1.6080 -1.3035
   98SAPE   H3Y 9856   3.664   1.591   5.928 -2.0771  2.0166  0.6929
   98SAPE   C34 9857   3.848   1.485   5.971  0.1817  0.1620  0.0297
   98SAPE   H4X 9858   3.792   1.389   5.969 -0.5775  0.5700  0.9845
   98SAPE   H4Y 9859   3.933   1.482   6.043 -1.5025 -0.0549  2.1511
   98SAPE   C35 9860   3.901   1.517   5.827 -0.0847 -0.1731  0.4837
   98SAPE   H5X 9861   3.940   1.621   5.832 -1.9238  0.4984  3.8392
   98SAPE   H5Y 9862   3.817   1.523   5.754 -0.9451 -0.5302  1.4105
   98SAPE   C36 9863   4.006   1.415   5.780 -0.6747 -0.0684  0.2696
   98SAPE   H6X 9864   3.964   1.313   5.777 -1.1957  0.1731 -1.1870
   98SAPE   H6Y 9865   4.086   1.400   5.856 -0.4885 -3.0986 -0.4203
   98SAPE   C37 9866   4.061   1.456   5.645  0.5516  0.4747 -0.2597
   98SAPE   H7X 9867   4.152   1.396   5.622  1.3556  2.1373 -1.6900
   98SAPE   H7Y 9868   4.097   1.561   5.654  0.8016  0.5338 -1.6720
   98SAPE   C38 9869   3.960   1.433   5.531 -0.7765 -0.3777  0.2477
   98SAPE   H8X 9870   3.855   1.460   5.553  0.2571  2.9480  1.7251
   98SAPE   H8Y 9871   3.973   1.329   5.495 -0.9107 -0.9827  1.8837
   98SAPE   C39 9872   3.991   1.511   5.400 -0.1960  0.4074 -0.4305
   98SAPE   H9X 9873   4.092   1.488   5.361  1.7206  3.1874  2.4384
   98SAPE   H9Y 9874   3.998   1.619   5.427 -1.0390  0.3584  0.0529
   98SAPE  C310 9875   3.878   1.511   5.285 -0.5025  0.0989 -0.3804
   98SAPE  H10X 9876   3.785   1.546   5.335 -0.2180  0.7543 -0.2963
   98SAPE  H10Y 9877   3.860   1.409   5.246 -0.5392  0.7007 -2.0161
   98SAPE  C311 9878   3.936   1.589   5.171 -1.2524  0.6051  0.6142
   98SAPE  H11X 9879   4.030   1.539   5.139 -2.7766 -3.6525  2.0714
   98SAPE  H11Y 9880   3.961   1.691   5.207  0.5649 -0.0690  1.3488
   98SAPE  C312 9881   3.859   1.590   5.038  0.1836 -0.0850  0.0224
   98SAPE  H12X 9882   3.913   1.657   4.968 -0.9020 -1.1561 -1.9362
   98SAPE  H12Y 9883   3.766   1.648   5.059  1.4893  2.2341 -0.2872
   98SAPE  C313 9884   3.841   1.456   4.961  0.2137  0.3671  0.2303
   98SAPE  H13X 9885   3.786   1.378   5.018  0.0084 -0.2848 -0.8238
   98SAPE  H13Y 9886   3.942   1.410   4.954  0.5575  1.2534 -1.3371
   98SAPE  C314 9887   3.788   1.482   4.811  0.4303 -0.2752  0.7227
   98SAPE  H14X 9888   3.853   1.563   4.772 -0.6580  1.4144  2.2621
   98SAPE  H14Y 9889   3.681   1.512   4.807  0.3530 -0.6731 -1.6921
   98SAPE  C315 9890   3.790   1.359   4.720 -0.0462 -0.4728  0.1458
   98SAPE  H15X 9891   3.748   1.272   4.774 -0.6183 -0.9148 -0.9686
   98SAPE  H15Y 9892   3.896   1.332   4.700  0.9463  0.3849  3.6249
   98SAPE  C316 9893   3.706   1.377   4.587 -0.1386  0.1579 -0.5659
   98SAPE  H16X 9894   3.743   1.475   4.550  0.5459  1.2734  2.7723
   98SAPE  H16Y 9895   3.596   1.388   4.593 -0.1460  0.2506 -0.8207
   98SAPE  C317 9896   3.733   1.254   4.499 -0.1364  0.4188  0.1839
   98SAPE  H17X 9897   3.688   1.156   4.527  0.0174  0.8457  2.0589
   98SAPE  H17Y 9898   3.843   1.241   4.495  0.0183  1.6318 -0.0427
   98SAPE  C318 9899   3.690   1.279   4.351 -0.2395 -0.1578 -0.0482
   98SAPE  H18X 9900   3.580   1.262   4.353  0.0988 -2.5988  0.8044
   98SAPE  H18Y 9901   3.742   1.223   4.270 -1.1252  1.3200 -1.7081
   98SAPE  H18Z 9902   3.691   1.385   4.318 -1.8262 -0.8321 -2.5729
   99SAPE     N 9903   3.941   5.538   6.594 -0.9527  0.0485  0.4452
   99SAPE   HN1 9904   3.949   5.446   6.642 -1.8617 -0.0491  0.4222
   99SAPE   HN2 9905   4.017   5.548   6.523 -0.8811  1.4867  0.7022
   99SAPE   HN3 9906   3.952   5.622   6.655 -3.1712  2.3895 -2.0901
   99SAPE   C12 9907   3.815   5.537   6.515  0.6099 -0.1215  0.4210
   99SAPE  H12A 9908   3.739   5.535   6.596  1.9846 -0.2065  1.7588
   99SAPE  H12B 9909   3.827   5.447   6.450 -1.5143 -0.2463  0.1301
   99SAPE   C11 9910   3.796   5.662   6.426  0.1312 -0.0892 -0.2759
   99SAPE  H11A 9911   3.690   5.676   6.396  0.2482 -0.1465 -0.7348
   99SAPE  H11B 9912   3.855   5.651   6.333  0.4178  1.2621 -0.2855
   99SAPE     P 9913   3.826   5.921   6.463  0.2520 -0.1922  0.2012
   99SAPE   O13 9914   3.884   6.005   6.572 -0.1413  0.1221 -0.1512
   99SAPE   O14 9915   3.862   5.960   6.321  0.2788 -0.5801  0.0280
   99SAPE   O12 9916   3.861   5.772   6.489 -0.6081 -0.0479 -0.2798
   99SAPE   O11 9917   3.665   5.909   6.477  0.2223 -0.7129  0.0816
   99SAPE    C1 9918   3.574   5.996   6.400  0.2240  0.4663 -0.1951
   99SAPE    HA 9919   3.521   6.059   6.474  0.7482 -0.5435  1.0789
   99SAPE    HB 9920   3.631   6.064   6.333  0.6880  1.0735  0.7957
   99SAPE    C2 9921   3.468   5.915   6.315  0.4846  0.2564  0.1456
   99SAPE    HS 9922   3.412   5.841   6.376 -0.0180  1.0872  0.7153
   99SAPE   O21 9923   3.546   5.861   6.201 -0.3011  0.8858 -0.2244
   99SAPE   C21 9924   3.524   5.735   6.169  0.4871 -0.5601  0.4327
   99SAPE   O22 9925   3.423   5.675   6.202 -0.4087  0.6734  0.3358
   99SAPE   C22 9926   3.638   5.672   6.084 -0.5862 -0.0814 -0.6526
   99SAPE   H2R 9927   3.695   5.756   6.040  1.0027 -0.5592  0.4080
   99SAPE   H2S 9928   3.710   5.616   6.146 -1.9615 -0.4929  0.6284
   99SAPE    C3 9929   3.365   6.024   6.269 -0.0079  0.4271 -0.0017
   99SAPE    HX 9930   3.339   6.068   6.368  0.3415  0.1267  0.2256
   99SAPE    HY 9931   3.282   5.965   6.224  3.1694 -1.9717 -3.2689
   99SAPE   O31 9932   3.411   6.125   6.175  0.3173 -0.3653 -0.8948
   99SAPE   C31 9933   3.402   6.104   6.050  0.6457  0.0510 -0.2892
   99SAPE   O32 9934   3.343   6.007   6.002 -0.0120 -0.5260  0.0393
   99SAPE   C32 9935   3.439   6.228   5.964  0.3068  0.5280 -0.0215
   99SAPE   H2X 9936   3.529   6.276   6.010 -1.3229  0.4921  3.6069
   99SAPE   H2Y 9937   3.355   6.300   5.969 -0.2682 -0.2010  1.7186
   99SAPE   C23 9938   3.580   5.590   5.971  0.1663  0.0205  0.2495
   99SAPE   H3R 9939   3.517   5.508   6.010  1.1329 -1.0513 -0.3977
   99SAPE   H3S 9940   3.661   5.539   5.915  1.3627  2.2893 -0.2174
   99SAPE   C24 9941   3.510   5.680   5.855 -0.0717 -0.0816 -1.0113
   99SAPE   H4R 9942   3.594   5.720   5.795  2.6884 -2.2154  1.1198
   99SAPE   H4S 9943   3.460   5.765   5.905 -0.8669 -0.4456 -1.1624
   99SAPE   C25 9944   3.415   5.598   5.772 -0.9088 -0.8364 -0.2089
   99SAPE   H5R 9945   3.310   5.621   5.797 -0.6332 -0.6979  0.8694
   99SAPE   C26 9946   3.448   5.533   5.661  0.6698 -0.2244 -0.6565
   99SAPE   H6R 9947   3.369   5.471   5.616 -0.2539  0.5020 -0.0542
   99SAPE   C27 9948   3.585   5.508   5.600  0.2503  0.2502 -0.3370
   99SAPE   H7R 9949   3.661   5.507   5.681  1.4324 -0.0757 -1.4119
   99SAPE   H7S 9950   3.605   5.599   5.540 -1.7346 -0.1513 -1.6913
   99SAPE   C28 9951   3.595   5.385   5.515 -0.1375 -0.3734 -0.1106
   99SAPE   H8R 9952   3.599   5.290   5.569  0.1223 -2.3178 -3.2947
   99SAPE   C29 9953   3.603   5.375   5.380  0.1788 -0.4269 -0.2315
   99SAPE   H9R 9954   3.604   5.276   5.333 -0.0490  0.5133 -2.2792
   99SAPE  C210 9955   3.615   5.489   5.284  0.3137  0.0766 -0.5335
   99SAPE  H10R 9956   3.694   5.466   5.210 -0.0252 -2.2528 -0.2642
   99SAPE  H10S 9957   3.638   5.587   5.330  1.0837 -0.2088 -0.2807
   99SAPE  C211 9958   3.480   5.508   5.219  0.4655 -0.3578 -1.1782
   99SAPE  H11R 9959   3.396   5.503   5.290  1.5628  2.3740  0.4778
   99SAPE  C212 9960   3.443   5.527   5.089 -0.4407  0.3374  0.5002
   99SAPE  H12R 9961   3.339   5.532   5.054 -0.0724  1.7392 -0.4575
   99SAPE  C213 9962   3.539   5.520   4.976 -0.1991 -0.0490 -0.0897
   99SAPE  H13R 9963   3.618   5.592   5.005  0.6310 -0.3415 -1.5331
   99SAPE  H13S 9964   3.481   5.572   4.897 -1.6942  0.1746  1.1026
   99SAPE  C214 9965   3.584   5.389   4.924  0.0976  0.4146  0.4137
   99SAPE  H14R 9966   3.661   5.342   4.987  1.6039  2.4714  0.1968
   99SAPE  C215 9967   3.562   5.339   4.806  0.4109  1.0356  0.1495
   99SAPE  H15R 9968   3.606   5.241   4.780 -3.2106 -0.3255 -1.6157
   99SAPE  C216 9969   3.469   5.389   4.695 -0.0384 -0.0620 -0.0627
   99SAPE  H16R 9970   3.397   5.469   4.725 -0.3183 -0.4427  0.2993
   99SAPE  H16S 9971   3.401   5.308   4.660 -1.7700  0.8742  0.9495
   99SAPE  C217 9972   3.539   5.453   4.576  0.0085 -0.0385 -0.7863
   99SAPE  H17R 9973   3.461   5.462   4.497  0.5646 -0.0753 -1.3474
   99SAPE  H17S 9974   3.615   5.382   4.537 -0.2010  0.0620 -1.3884
   99SAPE  C218 9975   3.594   5.589   4.593 -0.5485  0.3747 -0.3170
   99SAPE  H18R 9976   3.679   5.585   4.664 -1.1023  1.4707  0.4359
   99SAPE  H18S 9977   3.517   5.660   4.630 -1.0684  0.0374 -0.7334
   99SAPE  C219 9978   3.642   5.641   4.460 -0.8304 -0.1807  0.0633
   99SAPE  H19R 9979   3.565   5.625   4.381  0.1688  3.3363 -1.8097
   99SAPE  H19S 9980   3.734   5.597   4.416  0.0354  0.1152  1.5231
   99SAPE  C220 9981   3.673   5.784   4.470 -0.2993  0.4025 -0.1219
   99SAPE  H20R 9982   3.688   5.819   4.366 -0.0212 -1.8045 -0.8676
   99SAPE  H20S 9983   3.758   5.808   4.538  0.2489  0.3847 -0.7941
   99SAPE  H20T 9984   3.588   5.841   4.514 -0.8476  0.2015 -0.8989
   99SAPE   C33 9985   3.461   6.181   5.816 -0.4925  0.0853  0.6100
   99SAPE   H3X 9986   3.470   6.281   5.767 -2.1977  0.3897  0.8411
   99SAPE   H3Y 9987   3.370   6.134   5.773  0.8197 -0.9799 -1.1080
   99SAPE   C34 9988   3.577   6.085   5.787  0.2057  0.1239 -0.1638
   99SAPE   H4X 9989   3.582   6.003   5.861  0.0505  0.8856  0.7170
   99SAPE   H4Y 9990   3.670   6.147   5.785  1.0905 -1.1730 -0.0746
   99SAPE   C35 9991   3.578   6.040   5.642 -0.4921  0.0309  0.7990
   99SAPE   H5X 9992   3.665   5.972   5.629 -1.6598 -0.8997 -3.6778
   99SAPE   H5Y 9993   3.596   6.120   5.568  0.7916 -1.6628 -0.8144
   99SAPE   C36 9994   3.461   5.942   5.605 -0.1035  0.9380  0.3278
   99SAPE   H6X 9995   3.369   6.004   5.598 -0.1648  0.6945 -1.8501
   99SAPE   H6Y 9996   3.455   5.862   5.682  1.3065  0.2168 -0.2652
   99SAPE   C37 9997   3.485   5.862   5.471 -0.0401  0.8420  0.2345
   99SAPE   H7X 9998   3.394   5.818   5.424  0.3585 -1.0922  1.1520
   99SAPE   H7Y 9999   3.551   5.775   5.493 -1.2116 -0.0340  0.3873
   99SAPE   C3810000   3.564   5.940   5.361  0.1942  0.2042 -0.0826
   99SAPE   H8X10001   3.667   5.950   5.402 -0.1829 -2.0848  1.5998
   99SAPE   H8Y10002   3.526   6.043   5.344  1.2671  0.3514 -1.8654
   99SAPE   C3910003   3.562   5.868   5.225  0.2485 -0.4100  0.6328
   99SAPE   H9X10004   3.457   5.853   5.192  0.5005  2.4250 -1.8964
   99SAPE   H9Y10005   3.598   5.764   5.241 -2.4649 -1.2643  1.6290
   99SAPE  C31010006   3.646   5.931   5.109  0.0673  0.2532 -0.6850
   99SAPE  H10X10007   3.641   5.868   5.018 -0.3461  0.5908 -0.9015
   99SAPE  H10Y10008   3.755   5.935   5.131 -0.3092  1.4861  1.2173
   99SAPE  C31110009   3.607   6.073   5.066 -0.4161 -0.2253 -0.0404
   99SAPE  H11X10010   3.619   6.150   5.144  2.6314  0.9633 -1.5346
   99SAPE  H11Y10011   3.497   6.077   5.047 -1.0086 -0.5080  2.8749
   99SAPE  C31210012   3.688   6.135   4.948 -0.3199  0.5392  0.2090
   99SAPE  H12X10013   3.792   6.116   4.983  0.0560 -0.0061 -1.1339
   99SAPE  H12Y10014   3.682   6.246   4.939 -2.1161  0.3368 -1.8626
   99SAPE  C31310015   3.652   6.072   4.811 -0.1570  0.4451 -0.4854
   99SAPE  H13X10016   3.542   6.071   4.796  0.0732 -1.7165 -2.5769
   99SAPE  H13Y10017   3.691   5.969   4.814 -2.5833 -0.5521  3.0934
   99SAPE  C31410018   3.699   6.142   4.690 -0.2001  0.2845 -0.0947
   99SAPE  H14X10019   3.685   6.079   4.599 -0.4888  0.3394 -0.0900
   99SAPE  H14Y10020   3.805   6.172   4.701 -0.4997  1.3985 -0.1842
   99SAPE  C31510021   3.632   6.267   4.645 -0.7153 -0.6183  0.2679
   99SAPE  H15X10022   3.599   6.329   4.732 -1.0440  0.6885 -0.7515
   99SAPE  H15Y10023   3.538   6.239   4.592 -1.0852  0.1373  0.4975
   99SAPE  C31610024   3.715   6.357   4.548  0.5840  0.8312 -0.0972
   99SAPE  H16X10025   3.739   6.288   4.464  2.5511  0.4858  0.6895
   99SAPE  H16Y10026   3.808   6.389   4.599 -0.3736  0.2577  2.1197
   99SAPE  C31710027   3.637   6.474   4.497 -0.3347  0.4141  0.8742
   99SAPE  H17X10028   3.605   6.540   4.581 -0.6740  3.3421 -1.3775
   99SAPE  H17Y10029   3.543   6.434   4.454  0.2503 -1.3515  1.1883
   99SAPE  C31810030   3.714   6.550   4.387  0.0953  1.1363 -0.8368
   99SAPE  H18X10031   3.687   6.658   4.386  1.1799  1.4242 -2.6874
   99SAPE  H18Y10032   3.696   6.513   4.284 -0.7432  0.1479 -0.3452
   99SAPE  H18Z10033   3.822   6.549   4.415 -0.1772 -0.3708  0.2972
  100SAPE     N10034   4.767   6.201   6.479  0.3730 -0.1957 -0.1370
  100SAPE   HN110035   4.694   6.275   6.472  1.3271  1.0654  2.1888
  100SAPE   HN210036   4.755   6.143   6.565  1.2549  1.9819  1.5439
  100SAPE   HN310037   4.861   6.243   6.485 -0.3955  1.8605 -1.3616
  100SAPE   C1210038   4.777   6.117   6.351  0.3297 -0.5613  0.0459
  100SAPE  H12A10039   4.873   6.063   6.362  0.7040  0.2276  0.7576
  100SAPE  H12B10040   4.767   6.188   6.265 -0.6503  1.6068  1.8342
  100SAPE   C1110041   4.649   6.030   6.318 -0.0098  0.0650  0.0577
  100SAPE  H11A10042   4.633   6.013   6.209 -0.0843 -2.6653  0.4132
  100SAPE  H11B10043   4.557   6.082   6.351 -0.1421 -1.6752  2.7788
  100SAPE     P10044   4.722   5.776   6.370 -0.1878 -0.1792 -0.4286
  100SAPE   O1310045   4.813   5.732   6.479 -0.2167 -0.2903  0.1190
  100SAPE   O1410046   4.621   5.674   6.338  0.1690  0.0681  0.3454
  100SAPE   O1210047   4.647   5.911   6.394 -0.0469  0.2897  0.1241
  100SAPE   O1110048   4.818   5.800   6.241  0.0383  0.1409 -0.7908
  100SAPE    C110049   4.958   5.764   6.251 -0.1421 -0.0149  0.0085
  100SAPE    HA10050   5.002   5.821   6.335 -0.4989 -0.7975  0.7417
  100SAPE    HB10051   4.968   5.657   6.280  0.1307 -0.0245 -0.1168
  100SAPE    C210052   5.030   5.788   6.112  0.3843 -0.1855 -0.0718
  100SAPE    HS10053   5.012   5.894   6.081 -0.7118 -0.6339 -1.0183
  100SAPE   O2110054   4.976   5.701   6.011  0.0318  0.1133  0.4575
  100SAPE   C2110055   4.897   5.744   5.919 -0.1938  0.1904  0.0893
  100SAPE   O2210056   4.869   5.861   5.902 -0.0135  0.2503 -0.4179
  100SAPE   C2210057   4.839   5.633   5.834 -0.5583 -0.6665  0.1645
  100SAPE   H2R10058   4.898   5.637   5.741 -0.1222  0.1721  0.4651
  100SAPE   H2S10059   4.866   5.532   5.870 -1.1831 -2.0864 -3.0282
  100SAPE    C310060   5.192   5.774   6.107  0.0324 -0.3173 -0.7343
  100SAPE    HX10061   5.212   5.683   6.168 -1.9576 -0.3361 -0.0522
  100SAPE    HY10062   5.238   5.854   6.169 -2.1075  0.8471 -0.5775
  100SAPE   O3110063   5.259   5.767   5.983 -0.5756 -0.2223  0.0940
  100SAPE   C3110064   5.268   5.881   5.915  0.8725 -0.0200  0.0596
  100SAPE   O3210065   5.231   5.990   5.956 -0.4933  0.1975  0.5686
  100SAPE   C3210066   5.322   5.847   5.777  0.1773  0.3575 -0.3029
  100SAPE   H2X10067   5.245   5.779   5.735  1.7126 -1.9796  0.5170
  100SAPE   H2Y10068   5.418   5.796   5.797  1.7156  3.0383 -0.3498
  100SAPE   C2310069   4.694   5.652   5.793 -0.3927  0.2761  0.2948
  100SAPE   H3R10070   4.686   5.755   5.753  1.8842  0.3093 -0.2506
  100SAPE   H3S10071   4.632   5.628   5.882  0.3104 -2.5012  0.1478
  100SAPE   C2410072   4.661   5.559   5.681 -0.5438  0.9901 -0.0670
  100SAPE   H4R10073   4.671   5.452   5.709 -1.2993  1.2592  1.3236
  100SAPE   H4S10074   4.741   5.588   5.609  2.2342 -0.7475  2.1046
  100SAPE   C2510075   4.519   5.586   5.624  0.2252  0.4479 -0.0309
  100SAPE   H5R10076   4.446   5.591   5.706  1.1354 -0.0943  0.8342
  100SAPE   C2610077   4.475   5.589   5.498  0.1591 -0.0249 -0.7892
  100SAPE   H6R10078   4.368   5.609   5.479 -0.1592 -0.3868  0.4953
  100SAPE   C2710079   4.561   5.548   5.380  0.5941  0.3435 -0.6465
  100SAPE   H7R10080   4.541   5.439   5.371 -0.2743  0.4157  0.2278
  100SAPE   H7S10081   4.671   5.551   5.395  0.3050  1.5749  1.5850
  100SAPE   C2810082   4.512   5.601   5.252 -0.1109 -0.0055 -0.3482
  100SAPE   H8R10083   4.459   5.698   5.253 -0.3483 -0.1136 -1.3153
  100SAPE   C2910084   4.525   5.542   5.131 -0.3938  0.1305 -0.5903
  100SAPE   H9R10085   4.490   5.605   5.048  0.5078  0.4369 -0.7395
  100SAPE  C21010086   4.592   5.409   5.108 -0.0318 -0.7689  0.7153
  100SAPE  H10R10087   4.520   5.327   5.087 -0.8266 -0.0225  0.4741
  100SAPE  H10S10088   4.660   5.374   5.189  0.6046  0.4952  0.7523
  100SAPE  C21110089   4.679   5.415   4.985  0.7288  0.2834 -0.0995
  100SAPE  H11R10090   4.787   5.412   5.001  0.6523  1.4173  0.6814
  100SAPE  C21210091   4.639   5.412   4.851  0.1196  0.1428 -0.5303
  100SAPE  H12R10092   4.710   5.414   4.767  0.8850  0.9422  0.1113
  100SAPE  C21310093   4.495   5.408   4.805  0.5488  0.2624 -0.3513
  100SAPE  H13R10094   4.420   5.415   4.887 -1.0985 -0.1743 -1.7605
  100SAPE  H13S10095   4.473   5.311   4.755  1.6125  0.2926 -0.9175
  100SAPE  C21410096   4.471   5.517   4.697  0.5142 -0.0848  0.1318
  100SAPE  H14R10097   4.468   5.620   4.734  0.0533 -0.6437  1.7248
  100SAPE  C21510098   4.451   5.504   4.567 -0.7595  0.0172 -0.1402
  100SAPE  H15R10099   4.435   5.601   4.519  2.1764  1.5933  1.8082
  100SAPE  C21610100   4.436   5.387   4.479 -0.0674  0.1969  0.5890
  100SAPE  H16R10101   4.336   5.395   4.432 -0.3567 -0.6861  1.0217
  100SAPE  H16S10102   4.439   5.294   4.540  3.1977 -0.0059  0.3109
  100SAPE  C21710103   4.549   5.400   4.373 -0.1872 -0.2349 -1.0312
  100SAPE  H17R10104   4.651   5.376   4.411 -0.7544  1.4098  1.7547
  100SAPE  H17S10105   4.548   5.505   4.336 -3.6064  0.7045  1.3067
  100SAPE  C21810106   4.526   5.303   4.257  0.2968 -0.2826 -0.0249
  100SAPE  H18R10107   4.427   5.320   4.209  0.7864 -0.3016 -1.0667
  100SAPE  H18S10108   4.532   5.196   4.286  0.7965 -0.3506 -0.3698
  100SAPE  C21910109   4.629   5.330   4.148 -0.3523  0.8119  0.3651
  100SAPE  H19R10110   4.731   5.293   4.172  0.1324  1.5425 -0.5370
  100SAPE  H19S10111   4.643   5.439   4.133  0.8755  0.6646  0.3219
  100SAPE  C22010112   4.589   5.274   4.013 -0.1003 -0.1771  0.1644
  100SAPE  H20R10113   4.673   5.268   3.940 -2.7064  0.5535 -3.1038
  100SAPE  H20S10114   4.503   5.333   3.975 -0.8021 -0.2563  1.5890
  100SAPE  H20T10115   4.561   5.169   4.035 -0.9712 -0.2588 -1.2297
  100SAPE   C3310116   5.344   5.981   5.704 -0.1074  0.3317  0.1085
  100SAPE   H3X10117   5.421   6.042   5.755  1.0247  0.2084 -1.3934
  100SAPE   H3Y10118   5.246   6.034   5.703 -0.4422 -0.2517  0.8927
  100SAPE   C3410119   5.370   5.964   5.544  0.3744 -0.3280 -0.1359
  100SAPE   H4X10120   5.335   6.060   5.500 -0.5383 -0.2878  0.6274
  100SAPE   H4Y10121   5.303   5.881   5.514  1.4738 -1.4306  0.3562
  100SAPE   C3510122   5.508   5.919   5.508  0.5328  0.4982  0.5396
  100SAPE   H5X10123   5.537   5.826   5.561 -0.1905  0.1776  0.3872
  100SAPE   H5Y10124   5.578   5.995   5.549 -0.2845  0.9221  1.1858
  100SAPE   C3610125   5.536   5.924   5.354 -0.0950 -0.1802  0.1805
  100SAPE   H6X10126   5.645   5.941   5.343  0.5095 -2.5566  1.8430
  100SAPE   H6Y10127   5.474   6.007   5.312 -2.6005 -1.8754  0.3500
  100SAPE   C3710128   5.505   5.791   5.295 -0.0673  0.6101  0.4158
  100SAPE   H7X10129   5.406   5.756   5.331 -0.1632 -0.3426 -0.7206
  100SAPE   H7Y10130   5.581   5.714   5.320 -1.4493 -0.5298  1.1887
  100SAPE   C3810131   5.499   5.802   5.137  0.0293  0.5309 -0.6487
  100SAPE   H8X10132   5.605   5.782   5.110 -0.0364 -1.2148  0.1968
  100SAPE   H8Y10133   5.454   5.902   5.117 -1.3893  0.2275  0.7658
  100SAPE   C3910134   5.401   5.701   5.072  0.0995  0.3818 -0.5541
  100SAPE   H9X10135   5.315   5.688   5.141  0.7300 -1.5608 -0.0935
  100SAPE   H9Y10136   5.457   5.606   5.083  1.9011  1.1554 -2.2651
  100SAPE  C31010137   5.359   5.717   4.927  0.3297 -0.4950  0.9288
  100SAPE  H10X10138   5.318   5.819   4.914  3.0859  1.0398  3.1254
  100SAPE  H10Y10139   5.287   5.636   4.902  0.4447  0.0839 -1.5627
  100SAPE  C31110140   5.480   5.705   4.837 -0.7146 -0.2412  0.5668
  100SAPE  H11X10141   5.528   5.605   4.840 -4.8825 -2.6516 -2.2827
  100SAPE  H11Y10142   5.553   5.788   4.844  1.7435 -2.3118  0.7252
  100SAPE  C31210143   5.434   5.707   4.684 -0.4379 -0.3404 -1.0190
  100SAPE  H12X10144   5.352   5.631   4.676 -1.2411  0.3030  0.6222
  100SAPE  H12Y10145   5.525   5.676   4.629 -0.5885 -1.1102 -0.8546
  100SAPE  C31310146   5.380   5.840   4.642 -0.0574  0.9729 -0.1875
  100SAPE  H13X10147   5.448   5.926   4.654  1.6221 -0.2157 -0.8138
  100SAPE  H13Y10148   5.300   5.866   4.714  1.6964  0.5929  1.9901
  100SAPE  C31410149   5.324   5.844   4.495 -0.3430 -0.1068  0.0487
  100SAPE  H14X10150   5.265   5.935   4.473 -0.6963  0.0299  1.4847
  100SAPE  H14Y10151   5.259   5.754   4.503  0.1476 -0.2916  2.7905
  100SAPE  C31510152   5.431   5.811   4.394  0.2402  0.2065  0.8304
  100SAPE  H15X10153   5.371   5.787   4.303 -1.2914 -1.0829  2.1310
  100SAPE  H15Y10154   5.490   5.718   4.407  1.5769  0.7625 -0.9108
  100SAPE  C31610155   5.536   5.919   4.367 -0.2289  0.1364 -0.2658
  100SAPE  H16X10156   5.593   5.909   4.273 -1.7321 -0.2763 -1.1646
  100SAPE  H16Y10157   5.600   5.936   4.456 -1.2710 -0.7498  0.6798
  100SAPE  C31710158   5.467   6.052   4.332 -0.2215  0.8729 -0.5071
  100SAPE  H17X10159   5.553   6.122   4.321 -0.4638  1.7278  2.3574
  100SAPE  H17Y10160   5.411   6.079   4.424  0.6701 -2.0914  1.0187
  100SAPE  C31810161   5.393   6.049   4.200 -0.1335  0.0249 -0.1990
  100SAPE  H18X10162   5.306   5.981   4.207 -1.3135  1.2614 -2.0550
  100SAPE  H18Y10163   5.457   6.040   4.110 -0.1974  0.4201 -0.2884
  100SAPE  H18Z10164   5.348   6.147   4.174  0.1754 -0.0209 -0.9206
  101SAPE     N10165   6.415   2.472   6.726  0.2426 -0.4781  0.1553
  101SAPE   HN110166   6.346   2.436   6.795  1.4664  0.6250  2.0690
  101SAPE   HN210167   6.506   2.427   6.747 -0.5867 -0.5814  4.6438
  101SAPE   HN310168   6.433   2.573   6.746 -1.1883  0.3686 -2.3659
  101SAPE   C1210169   6.354   2.455   6.584 -0.3774  0.6084 -0.5961
  101SAPE  H12A10170   6.418   2.517   6.518 -0.6259  1.6394  0.1082
  101SAPE  H12B10171   6.251   2.497   6.589 -0.5166  0.0886  2.2592
  101SAPE   C1110172   6.351   2.302   6.557 -0.4047 -0.0524  0.5881
  101SAPE  H11A10173   6.455   2.264   6.562 -0.0544  1.0358  2.5484
  101SAPE  H11B10174   6.309   2.292   6.454 -0.4976 -1.7827  0.7650
  101SAPE     P10175   6.119   2.214   6.639  0.0725 -0.3552  0.6371
  101SAPE   O1310176   6.064   2.172   6.769  0.5834 -0.2245  0.4035
  101SAPE   O1410177   6.052   2.330   6.575  0.0982  0.1158 -0.0364
  101SAPE   O1210178   6.275   2.233   6.652  0.6909  0.1025  0.0045
  101SAPE   O1110179   6.094   2.092   6.537  0.2390 -0.6377  0.2451
  101SAPE    C110180   6.188   1.988   6.515 -0.6045 -0.6037 -0.2894
  101SAPE    HA10181   6.270   2.001   6.589 -0.6149  2.4943 -0.6861
  101SAPE    HB10182   6.132   1.892   6.517 -0.5252 -0.6749 -1.3089
  101SAPE    C210183   6.233   1.995   6.366 -0.8095 -0.1598 -0.2251
  101SAPE    HS10184   6.320   2.064   6.359  1.3184 -2.8502 -2.7348
  101SAPE   O2110185   6.126   2.041   6.290  0.1452  0.1470 -0.0036
  101SAPE   C2110186   6.122   2.163   6.242  0.4217  0.1902  0.5112
  101SAPE   O2210187   6.213   2.242   6.236  0.2699 -0.3529 -0.7659
  101SAPE   C2210188   5.983   2.198   6.181  0.2366 -0.6320 -0.5218
  101SAPE   H2R10189   5.983   2.300   6.137  0.0595  0.0311  0.9442
  101SAPE   H2S10190   5.965   2.131   6.094  0.3596  0.2742 -1.2546
  101SAPE    C310191   6.281   1.862   6.312  0.7598 -0.6712  0.0163
  101SAPE    HX10192   6.196   1.791   6.319  0.6019 -0.4397  0.5710
  101SAPE    HY10193   6.348   1.812   6.386 -1.3585 -2.0430  1.1270
  101SAPE   O3110194   6.330   1.883   6.172  0.7210 -0.1289 -0.3540
  101SAPE   C3110195   6.461   1.913   6.159  0.1206  0.1140 -0.0656
  101SAPE   O3210196   6.530   1.950   6.250 -0.0219 -0.4002 -0.2780
  101SAPE   C3210197   6.484   1.924   6.007  0.6371  0.9444 -0.1143
  101SAPE   H2X10198   6.446   1.831   5.958 -3.8920  2.1136  0.6828
  101SAPE   H2Y10199   6.594   1.939   6.006  0.5968  1.2449 -0.1416
  101SAPE   C2310200   5.862   2.190   6.279  0.3426 -0.1363 -0.2227
  101SAPE   H3R10201   5.884   2.262   6.361 -1.3371  1.1968 -0.8896
  101SAPE   H3S10202   5.858   2.092   6.331  4.1331 -0.3482 -0.0748
  101SAPE   C2410203   5.720   2.217   6.225 -0.1298  0.0711  0.5485
  101SAPE   H4R10204   5.737   2.301   6.155  2.3438 -0.3689  0.5327
  101SAPE   H4S10205   5.647   2.256   6.300 -0.0045 -1.8903  1.7754
  101SAPE   C2510206   5.661   2.096   6.151  0.5180  0.0856 -0.2927
  101SAPE   H5R10207   5.616   2.011   6.205 -0.2560 -1.6153 -3.3649
  101SAPE   C2610208   5.682   2.062   6.025  0.2198  0.5587  0.4591
  101SAPE   H6R10209   5.618   1.977   5.997  0.6652 -0.3237  1.9994
  101SAPE   C2710210   5.756   2.139   5.914  0.0273  0.2613 -0.5455
  101SAPE   H7R10211   5.842   2.077   5.879 -0.2715  0.1797 -1.1655
  101SAPE   H7S10212   5.790   2.237   5.954  0.1901 -0.5725  1.4815
  101SAPE   C2810213   5.667   2.156   5.792 -0.0811 -0.3284 -0.4161
  101SAPE   H8R10214   5.559   2.168   5.809 -0.3028 -3.5060  1.1351
  101SAPE   C2910215   5.708   2.171   5.670 -0.2897  0.3691 -0.0813
  101SAPE   H9R10216   5.638   2.192   5.588  1.3374  0.5053 -1.5198
  101SAPE  C21010217   5.859   2.165   5.619  0.9816  0.2491  0.1262
  101SAPE  H10R10218   5.873   2.080   5.549  2.4938  0.2846  0.3625
  101SAPE  H10S10219   5.932   2.155   5.702 -0.4151 -0.6057  1.3073
  101SAPE  C21110220   5.873   2.295   5.550  0.2336  0.2542  0.4271
  101SAPE  H11R10221   5.895   2.378   5.619 -1.3319  1.7726 -0.8156
  101SAPE  C21210222   5.892   2.312   5.416 -0.2630  0.5520 -0.3049
  101SAPE  H12R10223   5.909   2.410   5.369 -2.8197 -0.0277 -2.6900
  101SAPE  C21310224   5.894   2.202   5.317  0.2179 -0.1961  0.1752
  101SAPE  H13R10225   5.885   2.239   5.213 -2.5364 -0.3261  0.2713
  101SAPE  H13S10226   5.807   2.134   5.335  1.1760 -1.2879  0.8638
  101SAPE  C21410227   6.023   2.109   5.327  0.4946 -0.8980  0.6068
  101SAPE  H14R10228   6.043   2.072   5.428 -2.0152  0.5872  1.7416
  101SAPE  C21510229   6.092   2.057   5.227  0.8509  0.1514 -0.0586
  101SAPE  H15R10230   6.191   2.014   5.250  1.2568  0.9796 -0.2305
  101SAPE  C21610231   6.061   2.084   5.086  0.2394 -0.0782 -0.0713
  101SAPE  H16R10232   6.145   2.055   5.019  0.6202 -0.4021  0.5389
  101SAPE  H16S10233   6.044   2.193   5.071 -2.4754 -0.8140 -4.0987
  101SAPE  C21710234   5.935   2.001   5.041  0.7028 -0.2596  0.8441
  101SAPE  H17R10235   5.847   2.012   5.108  1.2821 -0.2973  1.6297
  101SAPE  H17S10236   5.970   1.895   5.051  0.5427 -0.1251  3.7897
  101SAPE  C21810237   5.900   2.027   4.896  0.1624 -0.3189 -0.2612
  101SAPE  H18R10238   5.991   2.013   4.833  1.1995 -0.6566  1.2523
  101SAPE  H18S10239   5.855   2.127   4.884 -1.0478 -0.9278 -0.9206
  101SAPE  C21910240   5.785   1.939   4.849  0.1694 -0.0653 -0.0787
  101SAPE  H19R10241   5.821   1.835   4.831 -1.9831 -1.0878  1.1706
  101SAPE  H19S10242   5.754   1.973   4.747 -1.3265  0.6814  0.5979
  101SAPE  C22010243   5.655   1.943   4.933  0.3294  0.6154 -0.0226
  101SAPE  H20R10244   5.579   1.874   4.891 -1.1912  0.9685  2.0357
  101SAPE  H20S10245   5.605   2.042   4.932 -1.4913 -0.1982  2.3755
  101SAPE  H20T10246   5.674   1.895   5.031  1.1988 -1.0767 -0.9825
  101SAPE   C3310247   6.393   2.035   5.945 -0.2781  0.0338 -0.5433
  101SAPE   H3X10248   6.401   2.138   5.988 -2.0043  0.1102 -0.3388
  101SAPE   H3Y10249   6.286   2.016   5.966 -0.5797  1.7834 -0.2945
  101SAPE   C3410250   6.422   2.045   5.800  0.5476 -0.1290  0.0115
  101SAPE   H4X10251   6.343   2.098   5.742 -0.5194 -2.0805 -0.4104
  101SAPE   H4Y10252   6.424   1.944   5.754 -1.7178  0.2807 -1.1713
  101SAPE   C3510253   6.554   2.123   5.758  0.1575 -0.3309 -0.4664
  101SAPE   H5X10254   6.639   2.100   5.825  0.7409 -0.3097 -1.1858
  101SAPE   H5Y10255   6.529   2.228   5.785  1.4117 -0.0250 -0.4203
  101SAPE   C3610256   6.603   2.108   5.610 -0.0225 -0.0648  0.3538
  101SAPE   H6X10257   6.517   2.136   5.546  0.2295 -0.4718 -0.1684
  101SAPE   H6Y10258   6.622   2.004   5.576 -0.2191  0.0998 -0.2758
  101SAPE   C3710259   6.719   2.201   5.583  0.6224 -0.0593 -0.1678
  101SAPE   H7X10260   6.810   2.164   5.635  0.9297 -0.0895 -0.7219
  101SAPE   H7Y10261   6.688   2.304   5.610  1.1750  0.4093 -1.2657
  101SAPE   C3810262   6.745   2.216   5.432  0.0718 -0.2819 -0.0161
  101SAPE   H8X10263   6.799   2.313   5.430 -0.3054 -0.0781 -1.0093
  101SAPE   H8Y10264   6.656   2.237   5.369  0.3557 -2.6439 -1.3141
  101SAPE   C3910265   6.832   2.104   5.376  1.0434 -0.1453 -0.2967
  101SAPE   H9X10266   6.761   2.019   5.365  0.2432  0.6308 -1.3778
  101SAPE   H9Y10267   6.902   2.074   5.457  0.4285 -0.2369  0.2082
  101SAPE  C31010268   6.891   2.124   5.237 -0.3811  0.1419 -0.2514
  101SAPE  H10X10269   6.931   2.024   5.209 -2.1344 -0.7263  0.2214
  101SAPE  H10Y10270   6.980   2.191   5.243  1.3702 -2.0047 -0.6334
  101SAPE  C31110271   6.799   2.182   5.125 -0.2223 -0.2777  0.9543
  101SAPE  H11X10272   6.856   2.208   5.033 -2.0309  0.2333 -0.0754
  101SAPE  H11Y10273   6.765   2.280   5.165 -0.1556 -0.5078  1.5940
  101SAPE  C31210274   6.678   2.098   5.086 -0.5567 -0.4451 -0.1838
  101SAPE  H12X10275   6.612   2.082   5.174  0.3459  1.0038  0.8011
  101SAPE  H12Y10276   6.728   2.002   5.061  1.9946  0.0237  2.5667
  101SAPE  C31310277   6.604   2.165   4.966 -0.5552  0.7023 -0.0605
  101SAPE  H13X10278   6.679   2.179   4.885 -2.1405 -2.7496 -2.3840
  101SAPE  H13Y10279   6.556   2.259   4.999  0.6076  1.7451 -1.2701
  101SAPE  C31410280   6.501   2.068   4.905 -0.1226  0.0261  0.6859
  101SAPE  H14X10281   6.427   2.051   4.986 -0.4989  1.6685  0.7164
  101SAPE  H14Y10282   6.550   1.970   4.885 -0.0331  0.4217 -1.1662
  101SAPE  C31510283   6.433   2.121   4.782  0.3837 -0.2716 -0.1224
  101SAPE  H15X10284   6.505   2.180   4.722 -0.7771  0.5373 -0.7668
  101SAPE  H15Y10285   6.354   2.193   4.813 -0.4449 -0.7448 -1.0677
  101SAPE  C31610286   6.371   2.011   4.698 -0.2090  0.5728  1.1384
  101SAPE  H16X10287   6.287   1.966   4.755  0.0853 -1.5888 -0.0158
  101SAPE  H16Y10288   6.449   1.939   4.665  0.1546  1.8011 -0.8659
  101SAPE  C31710289   6.309   2.078   4.566 -0.6294  0.6170 -0.7788
  101SAPE  H17X10290   6.389   2.147   4.533 -0.3095  0.0366 -1.2456
  101SAPE  H17Y10291   6.221   2.137   4.598 -1.0853 -0.9136  1.0003
  101SAPE  C31810292   6.261   1.983   4.456 -1.0169  0.3079  0.0576
  101SAPE  H18X10293   6.355   1.931   4.426 -0.8306  0.1079  0.9476
  101SAPE  H18Y10294   6.223   2.035   4.366 -1.0562  2.3677  1.2157
  101SAPE  H18Z10295   6.186   1.909   4.493 -1.4838 -0.4518 -2.2146
  102SAPE     N10296   0.399   2.544   6.464 -0.6405 -0.0591 -0.3750
  102SAPE   HN110297   0.301   2.537   6.428 -0.8789  2.2908 -0.3736
  102SAPE   HN210298   0.449   2.612   6.403  0.3485  0.1055  0.5935
  102SAPE   HN310299   0.447   2.454   6.447 -0.2408  0.5094 -2.6444
  102SAPE   C1210300   0.387   2.594   6.603 -0.1615 -0.1231 -0.4985
  102SAPE  H12A10301   0.487   2.582   6.651  0.5528  2.2072 -1.2914
  102SAPE  H12B10302   0.308   2.534   6.653 -1.1601  1.0089 -0.6785
  102SAPE   C1110303   0.341   2.738   6.612  0.8195  0.0103 -0.0303
  102SAPE  H11A10304   0.409   2.808   6.559 -0.7949  0.8542 -1.0899
  102SAPE  H11B10305   0.354   2.766   6.718  0.5298  3.3657 -0.7708
  102SAPE     P10306   0.118   2.873   6.575 -0.0630 -0.3820  0.0818
  102SAPE   O1310307  -0.005   2.831   6.644  0.0847  0.3887  0.0752
  102SAPE   O1410308   0.198   2.982   6.635  0.6528 -0.0783  0.3616
  102SAPE   O1210309   0.205   2.744   6.562 -0.2959  0.5072  0.7389
  102SAPE   O1110310   0.089   2.919   6.425 -0.5253 -0.1629 -0.1346
  102SAPE    C110311   0.198   2.903   6.326 -0.5065 -0.0453 -0.2120
  102SAPE    HA10312   0.271   2.987   6.331 -0.2714 -0.1142 -1.8625
  102SAPE    HB10313   0.251   2.810   6.355 -0.0753 -0.0708 -1.0537
  102SAPE    C210314   0.147   2.898   6.183  0.3486  0.4339  0.3686
  102SAPE    HS10315   0.234   2.901   6.114 -0.0107 -1.5005 -0.2435
  102SAPE   O2110316   0.056   2.999   6.153  0.0249  0.2082  0.4885
  102SAPE   C2110317   0.101   3.123   6.143 -0.6578 -1.0916 -0.1642
  102SAPE   O2210318   0.217   3.158   6.156 -0.0439  0.1552  0.6111
  102SAPE   C2210319  -0.023   3.216   6.107  0.0341 -0.4180 -0.5918
  102SAPE   H2R10320  -0.121   3.181   6.147 -2.0438  1.8234 -3.2156
  102SAPE   H2S10321  -0.003   3.312   6.160 -0.8031 -1.7485  2.3329
  102SAPE    C310322   0.072   2.770   6.156 -0.0994 -0.0192 -0.3501
  102SAPE    HX10323  -0.018   2.776   6.220  2.0022  0.9302  2.7570
  102SAPE    HY10324   0.137   2.686   6.186 -3.2210 -1.9411  1.5217
  102SAPE   O3110325   0.044   2.762   6.023  1.2193  0.9811  0.0059
  102SAPE   C3110326  -0.083   2.723   5.994  0.2252  0.2501 -0.3070
  102SAPE   O3210327  -0.160   2.676   6.072 -0.7229  0.3393 -0.4081
  102SAPE   C3210328  -0.093   2.740   5.843 -0.4793  0.0079  1.2969
  102SAPE   H2X10329  -0.007   2.690   5.793 -1.3839 -1.0510  0.7428
  102SAPE   H2Y10330  -0.087   2.850   5.834 -1.0702 -0.0065  0.5574
  102SAPE   C2310331  -0.022   3.280   5.968  0.3827  0.2184 -0.5111
  102SAPE   H3R10332   0.078   3.324   5.950  0.9126 -0.6220  0.3134
  102SAPE   H3S10333  -0.089   3.368   5.963 -0.3682 -0.3853 -1.9348
  102SAPE   C2410334  -0.034   3.188   5.849 -0.5432 -0.4494 -0.8247
  102SAPE   H4R10335   0.031   3.099   5.865  0.4973  0.5832  0.9942
  102SAPE   H4S10336  -0.012   3.245   5.756 -0.5136 -0.0872 -0.5958
  102SAPE   C2510337  -0.181   3.144   5.825 -0.2154  0.2937 -0.5169
  102SAPE   H5R10338  -0.248   3.141   5.912  1.3163  0.9155  0.7385
  102SAPE   C2610339  -0.224   3.103   5.710 -0.7037  0.8641  0.5805
  102SAPE   H6R10340  -0.327   3.069   5.694 -0.0752 -1.0614  0.4103
  102SAPE   C2710341  -0.145   3.122   5.585  0.5003  0.0676  0.3288
  102SAPE   H7R10342  -0.171   3.038   5.516  1.6269 -0.9379  1.0882
  102SAPE   H7S10343  -0.035   3.110   5.588  0.2618 -3.0395  0.1387
  102SAPE   C2810344  -0.188   3.250   5.515  0.7851  0.5711  0.3909
  102SAPE   H8R10345  -0.215   3.330   5.585  0.2391 -2.1679  3.5704
  102SAPE   C2910346  -0.175   3.263   5.384 -0.8754 -1.0779 -0.3676
  102SAPE   H9R10347  -0.196   3.363   5.343  1.3379  0.3589  1.7550
  102SAPE  C21010348  -0.138   3.151   5.275 -0.1159 -0.2277  0.0934
  102SAPE  H10R10349  -0.231   3.137   5.215 -0.6112  0.8132  0.5840
  102SAPE  H10S10350  -0.111   3.055   5.323  0.6474  0.5784  1.3259
  102SAPE  C21110351  -0.019   3.196   5.198  0.4700  0.1699 -0.2371
  102SAPE  H11R10352   0.053   3.259   5.254  0.7056 -1.5700  1.5592
  102SAPE  C21210353   0.005   3.177   5.063  0.2814 -0.0734 -0.3858
  102SAPE  H12R10354   0.094   3.216   5.010 -0.1376 -0.6294 -1.5341
  102SAPE  C21310355  -0.076   3.093   4.965 -0.6589  0.2805  0.0024
  102SAPE  H13R10356  -0.181   3.122   4.987 -1.1171  1.9702 -3.6278
  102SAPE  H13S10357  -0.064   2.984   4.983  0.4087  0.1272 -1.4379
  102SAPE  C21410358  -0.049   3.135   4.821 -0.2941  0.7132 -0.0405
  102SAPE  H14R10359   0.033   3.207   4.808  0.8084 -0.6918 -1.3304
  102SAPE  C21510360  -0.120   3.088   4.716  0.0626  0.3837 -1.0705
  102SAPE  H15R10361  -0.096   3.135   4.619  0.5695 -0.2147 -1.2375
  102SAPE  C21610362  -0.234   2.990   4.721 -0.2229 -0.0826 -0.5394
  102SAPE  H16R10363  -0.263   2.955   4.823 -0.5870 -0.9316 -0.9295
  102SAPE  H16S10364  -0.206   2.900   4.662  1.0887 -0.1777  0.2012
  102SAPE  C21710365  -0.363   3.046   4.657  0.6592 -0.2915 -0.3921
  102SAPE  H17R10366  -0.426   2.955   4.645  3.2285 -2.3915  0.9491
  102SAPE  H17S10367  -0.346   3.083   4.554 -0.4067 -1.0965 -0.8797
  102SAPE  C21810368  -0.435   3.153   4.741 -0.2171  0.4703 -0.3870
  102SAPE  H18R10369  -0.367   3.241   4.745 -0.8910  1.0795 -1.5869
  102SAPE  H18S10370  -0.446   3.122   4.847  2.1328 -0.3443 -0.3248
  102SAPE  C21910371  -0.558   3.206   4.671  0.2604  0.1173  0.4666
  102SAPE  H19R10372  -0.525   3.231   4.568  0.3159  3.3459  1.1802
  102SAPE  H19S10373  -0.589   3.297   4.726  0.2489  0.2176  0.2926
  102SAPE  C22010374  -0.686   3.121   4.658 -0.0393  0.5888 -0.0488
  102SAPE  H20R10375  -0.741   3.109   4.754  1.5237  0.5453  0.8804
  102SAPE  H20S10376  -0.651   3.027   4.611  0.3335  1.3188 -1.2695
  102SAPE  H20T10377  -0.752   3.181   4.591 -0.4068  1.7681  1.3157
  102SAPE   C3310378  -0.227   2.688   5.788  0.6851  0.1238 -0.9883
  102SAPE   H3X10379  -0.310   2.736   5.843  0.6498 -1.4720  0.4162
  102SAPE   H3Y10380  -0.240   2.578   5.801  0.3713  0.4112  1.4631
  102SAPE   C3410381  -0.236   2.722   5.637  0.0727 -0.2682  0.0399
  102SAPE   H4X10382  -0.186   2.821   5.633  2.7738 -1.5677 -0.9557
  102SAPE   H4Y10383  -0.341   2.723   5.600 -0.1074  0.0681  0.5616
  102SAPE   C3510384  -0.166   2.635   5.538  0.1925 -0.2903  0.6456
  102SAPE   H5X10385  -0.206   2.531   5.530  1.1699 -0.5656 -0.9744
  102SAPE   H5Y10386  -0.059   2.616   5.561  1.1447  2.1250 -1.3584
  102SAPE   C3610387  -0.184   2.707   5.389  0.7852  0.3355 -0.5670
  102SAPE   H6X10388  -0.136   2.806   5.399  1.3184  0.0134  0.1791
  102SAPE   H6Y10389  -0.291   2.722   5.366  0.6040 -0.8707 -0.5830
  102SAPE   C3710390  -0.129   2.619   5.282 -0.0047  0.1964  0.7717
  102SAPE   H7X10391  -0.186   2.525   5.264  1.5487 -0.3015 -2.4124
  102SAPE   H7Y10392  -0.027   2.585   5.312 -0.1720 -0.7385  0.3351
  102SAPE   C3810393  -0.121   2.677   5.140 -0.4955  0.4988 -0.0441
  102SAPE   H8X10394  -0.052   2.764   5.137  1.2644 -0.5924  3.5603
  102SAPE   H8Y10395  -0.213   2.731   5.109 -0.8351 -1.0381 -1.9067
  102SAPE   C3910396  -0.093   2.567   5.031  0.4327  0.3326 -0.4591
  102SAPE   H9X10397  -0.178   2.495   5.027 -0.4470  0.8858  3.8745
  102SAPE   H9Y10398   0.000   2.516   5.062 -0.6070 -1.3906 -0.0082
  102SAPE  C31010399  -0.064   2.624   4.895  0.1526  0.8727 -0.3485
  102SAPE  H10X10400   0.020   2.696   4.907 -1.1799  2.2649  1.0909
  102SAPE  H10Y10401  -0.147   2.690   4.861 -2.4907 -1.8624  0.3631
  102SAPE  C31110402  -0.069   2.532   4.773 -0.3655 -0.3788  0.2254
  102SAPE  H11X10403  -0.163   2.474   4.763 -1.1166  0.8245  0.0690
  102SAPE  H11Y10404   0.014   2.458   4.780  1.6705  1.7096 -0.7250
  102SAPE  C31210405  -0.050   2.608   4.638  0.4727 -0.1248 -0.0840
  102SAPE  H12X10406   0.051   2.654   4.646  0.2045  0.7619 -1.3847
  102SAPE  H12Y10407  -0.132   2.680   4.619 -0.1221 -0.9267 -0.6083
  102SAPE  C31310408  -0.035   2.517   4.517 -0.2952 -0.0785  0.7473
  102SAPE  H13X10409  -0.039   2.573   4.420  1.9889  0.5352  0.9394
  102SAPE  H13Y10410  -0.118   2.444   4.510 -2.5865  2.4672 -1.4886
  102SAPE  C31410411   0.109   2.446   4.523  0.3485 -0.0968  0.2124
  102SAPE  H14X10412   0.101   2.356   4.587 -0.1994 -0.7795 -0.7797
  102SAPE  H14Y10413   0.187   2.514   4.563  0.4517 -0.5443  0.7803
  102SAPE  C31510414   0.143   2.380   4.382  0.2242  0.2707 -1.5976
  102SAPE  H15X10415   0.173   2.455   4.306 -1.2993 -0.0586 -2.5556
  102SAPE  H15Y10416   0.058   2.313   4.355 -2.4089  0.8475  3.8686
  102SAPE  C31610417   0.267   2.293   4.404  0.7950  0.0728  0.4104
  102SAPE  H16X10418   0.247   2.225   4.489  1.0728 -0.7289 -0.1493
  102SAPE  H16Y10419   0.350   2.357   4.439  0.8165 -0.2967  1.0368
  102SAPE  C31710420   0.304   2.211   4.277 -0.4792 -0.8800  0.0550
  102SAPE  H17X10421   0.314   2.280   4.191 -0.1698 -1.1388 -0.1208
  102SAPE  H17Y10422   0.217   2.150   4.245 -2.7263  1.9554  0.3214
  102SAPE  C31810423   0.429   2.130   4.310 -0.1265  0.0846 -0.2533
  102SAPE  H18X10424   0.509   2.205   4.323 -0.8174  0.5723  1.4062
  102SAPE  H18Y10425   0.462   2.067   4.224  0.2271 -0.3452  0.1955
  102SAPE  H18Z10426   0.423   2.072   4.404 -0.9315 -1.3610 -1.1526
  103SAPE     N10427   4.919   5.816   1.960 -0.5966 -0.0364  0.2637
  103SAPE   HN110428   4.987   5.894   1.968  0.4589 -1.0058  1.1628
  103SAPE   HN210429   4.917   5.781   2.058 -1.3072  2.1541  1.1129
  103SAPE   HN310430   4.961   5.750   1.892  2.7119  2.0648  0.0336
  103SAPE   C1210431   4.782   5.846   1.911 -0.1360 -0.0894 -0.1369
  103SAPE  H12A10432   4.714   5.882   1.991 -0.5201 -2.1144  0.4911
  103SAPE  H12B10433   4.736   5.758   1.862  0.7335 -0.0025 -1.1301
  103SAPE   C1110434   4.798   5.967   1.816  0.2540 -0.1012  0.1640
  103SAPE  H11A10435   4.708   5.990   1.755  0.0084  2.9567  1.5062
  103SAPE  H11B10436   4.876   5.953   1.738  0.1511  1.6163 -0.2957
  103SAPE     P10437   4.799   6.239   1.853  0.0922  0.2510  0.1085
  103SAPE   O1310438   4.897   6.320   1.923  0.3894 -0.0883 -0.6910
  103SAPE   O1410439   4.802   6.257   1.704  0.6636 -0.3549 -0.0094
  103SAPE   O1210440   4.834   6.089   1.887 -0.1246 -0.0938  0.1222
  103SAPE   O1110441   4.652   6.260   1.914  0.1701 -0.6185 -0.0672
  103SAPE    C110442   4.626   6.211   2.042 -0.0816  0.0803 -0.2878
  103SAPE    HA10443   4.518   6.184   2.050 -0.2511  1.0841  1.2417
  103SAPE    HB10444   4.681   6.120   2.074  1.9475  1.6791  0.9821
  103SAPE    C210445   4.650   6.316   2.148 -0.0774 -0.1477 -0.1403
  103SAPE    HS10446   4.759   6.315   2.168 -0.1700  0.4574  0.4075
  103SAPE   O2110447   4.581   6.281   2.267 -0.0223  0.0439 -0.2676
  103SAPE   C2110448   4.630   6.179   2.337  0.1055 -0.1145 -0.4903
  103SAPE   O2210449   4.720   6.104   2.305 -0.0972  0.0598  0.0968
  103SAPE   C2210450   4.546   6.166   2.472  0.4873  0.2923  0.3604
  103SAPE   H2R10451   4.467   6.244   2.464  0.9151  0.6782 -0.1662
  103SAPE   H2S10452   4.509   6.061   2.473  0.5651  0.2492 -0.5554
  103SAPE    C310453   4.613   6.460   2.097 -0.0430  0.0770  0.0587
  103SAPE    HX10454   4.506   6.459   2.067  0.1276 -0.8869 -0.5754
  103SAPE    HY10455   4.666   6.477   2.001 -0.9631 -0.5854 -0.5909
  103SAPE   O3110456   4.630   6.553   2.207  1.0022  0.3090  0.2046
  103SAPE   C3110457   4.753   6.586   2.249 -0.1298  0.4079 -0.2624
  103SAPE   O3210458   4.858   6.537   2.218 -0.4723  0.3860 -0.1816
  103SAPE   C3210459   4.748   6.685   2.360 -0.4907 -0.1546  0.4623
  103SAPE   H2X10460   4.649   6.734   2.360  0.1207  1.1913 -1.6593
  103SAPE   H2Y10461   4.833   6.753   2.342 -1.1117  1.1301  2.1561
  103SAPE   C2310462   4.627   6.200   2.600  1.0799 -0.3513  0.1669
  103SAPE   H3R10463   4.644   6.309   2.606 -1.0494 -0.0122  0.9209
  103SAPE   H3S10464   4.717   6.139   2.621 -0.7178 -2.0755  3.8135
  103SAPE   C2410465   4.542   6.170   2.727  0.0799  0.2851 -0.3569
  103SAPE   H4R10466   4.599   6.200   2.817  1.7770  0.7967 -1.5490
  103SAPE   H4S10467   4.517   6.062   2.733  1.7028 -0.1068 -0.1583
  103SAPE   C2510468   4.405   6.240   2.709  0.2650 -0.4019 -0.7463
  103SAPE   H5R10469   4.344   6.203   2.625  0.9120 -1.5673 -0.7197
  103SAPE   C2610470   4.344   6.337   2.784  0.1769 -0.3130  0.3196
  103SAPE   H6R10471   4.241   6.365   2.760  0.4026  1.3970  1.1769
  103SAPE   C2710472   4.406   6.407   2.909 -0.2512  0.9801  0.4691
  103SAPE   H7R10473   4.483   6.481   2.879  0.2547 -0.0561 -0.8628
  103SAPE   H7S10474   4.472   6.333   2.960  2.0115  0.8065 -2.4423
  103SAPE   C2810475   4.301   6.470   2.992 -0.4590  0.8462 -0.0402
  103SAPE   H8R10476   4.225   6.529   2.938  0.2887  1.6354 -0.2457
  103SAPE   C2910477   4.279   6.444   3.123  1.1192 -0.3489 -0.3712
  103SAPE   H9R10478   4.199   6.501   3.173  2.9869  0.1605  2.3191
  103SAPE  C21010479   4.343   6.357   3.223 -0.3554  0.7773 -0.0361
  103SAPE  H10R10480   4.428   6.300   3.180 -2.1511 -0.2660 -2.4147
  103SAPE  H10S10481   4.268   6.281   3.253  1.5270 -0.6968  1.1666
  103SAPE  C21110482   4.393   6.441   3.340 -0.1763 -0.3521  0.9335
  103SAPE  H11R10483   4.470   6.509   3.301 -0.2566 -0.4154  0.6573
  103SAPE  C21210484   4.359   6.430   3.470 -0.1254  0.3262 -0.1375
  103SAPE  H12R10485   4.404   6.503   3.540 -1.5512  0.7661  0.3618
  103SAPE  C21310486   4.277   6.322   3.539  0.4427 -0.6445  0.4182
  103SAPE  H13R10487   4.303   6.324   3.647 -0.1853 -1.2543  0.5877
  103SAPE  H13S10488   4.298   6.218   3.505 -0.6997 -1.0370  0.8550
  103SAPE  C21410489   4.128   6.356   3.513 -0.6594  0.1474  0.5184
  103SAPE  H14R10490   4.100   6.373   3.408  1.2443 -1.0119 -0.2323
  103SAPE  C21510491   4.036   6.351   3.612  0.0184  0.1516 -0.0712
  103SAPE  H15R10492   3.935   6.366   3.571  0.7456  0.5283 -1.8374
  103SAPE  C21610493   4.043   6.317   3.762  0.0422  0.8494 -0.0925
  103SAPE  H16R10494   4.010   6.406   3.819  1.3973  1.3539 -0.0661
  103SAPE  H16S10495   4.147   6.301   3.798 -0.6150 -0.1993  1.4367
  103SAPE  C21710496   3.955   6.194   3.804 -0.2211 -0.2761 -0.7011
  103SAPE  H17R10497   3.997   6.102   3.757 -0.7962 -0.4037 -0.9788
  103SAPE  H17S10498   3.851   6.211   3.769 -0.3303 -2.8018 -1.8613
  103SAPE  C21810499   3.953   6.189   3.954  0.4703  0.3165 -0.5734
  103SAPE  H18R10500   3.943   6.296   3.983 -1.2380 -0.4422  1.9967
  103SAPE  H18S10501   4.057   6.169   3.989  0.0644  0.0497  0.5251
  103SAPE  C21910502   3.851   6.104   4.035  0.4454 -0.0700 -0.5677
  103SAPE  H19R10503   3.744   6.121   4.009 -0.0734 -2.4652 -0.3244
  103SAPE  H19S10504   3.848   6.133   4.142  0.3530 -1.6017 -0.1283
  103SAPE  C22010505   3.890   5.956   4.018 -0.7198  0.5107  0.0715
  103SAPE  H20R10506   3.893   5.928   3.911  2.0465 -1.7570  0.6107
  103SAPE  H20S10507   3.829   5.880   4.072  1.5860 -0.9413  0.8001
  103SAPE  H20T10508   3.994   5.937   4.054 -0.8166 -2.2749 -0.8386
  103SAPE   C3310509   4.760   6.611   2.496 -0.0338  0.0256 -0.5041
  103SAPE   H3X10510   4.809   6.513   2.478  0.0269 -0.1668  0.6039
  103SAPE   H3Y10511   4.662   6.597   2.546  0.3886  0.2264  0.4041
  103SAPE   C3410512   4.865   6.677   2.585  0.5348  0.0379  0.1555
  103SAPE   H4X10513   4.834   6.783   2.598  3.1890  0.9177 -0.1423
  103SAPE   H4Y10514   4.960   6.692   2.530 -0.1984  1.6691 -0.7002
  103SAPE   C3510515   4.903   6.601   2.711 -0.3237  0.3466 -0.2016
  103SAPE   H5X10516   4.997   6.644   2.751  0.6225 -2.0861  0.3970
  103SAPE   H5Y10517   4.932   6.499   2.676  1.5493  0.3993  1.0606
  103SAPE   C3610518   4.811   6.583   2.831  0.3485 -0.6567 -0.1946
  103SAPE   H6X10519   4.702   6.584   2.813  0.0488 -0.0976  1.4211
  103SAPE   H6Y10520   4.824   6.671   2.899  0.6961 -0.2759 -0.7424
  103SAPE   C3710521   4.838   6.454   2.901 -0.0003 -0.8120 -0.1939
  103SAPE   H7X10522   4.945   6.440   2.929  0.5280 -0.6433 -2.0133
  103SAPE   H7Y10523   4.801   6.368   2.843 -0.3932 -1.0477  0.3982
  103SAPE   C3810524   4.768   6.447   3.039 -0.3070 -0.0979 -0.6268
  103SAPE   H8X10525   4.792   6.350   3.089  1.0864  0.8772  0.7008
  103SAPE   H8Y10526   4.658   6.449   3.022 -0.0168  0.4010 -2.6771
  103SAPE   C3910527   4.815   6.546   3.143 -1.5380  0.4831 -0.4252
  103SAPE   H9X10528   4.765   6.643   3.121 -0.5658  0.5205 -2.8046
  103SAPE   H9Y10529   4.922   6.572   3.127 -2.2947  3.6271 -1.0147
  103SAPE  C31010530   4.792   6.496   3.284 -0.1491 -0.4979 -0.9335
  103SAPE  H10X10531   4.856   6.406   3.296 -0.0501 -0.3745 -0.5167
  103SAPE  H10Y10532   4.687   6.466   3.307  0.1482  0.2321  1.7001
  103SAPE  C31110533   4.841   6.583   3.406  0.0902  0.4524  0.2251
  103SAPE  H11X10534   4.787   6.680   3.397 -1.0617 -0.2231 -0.3676
  103SAPE  H11Y10535   4.949   6.602   3.391  0.6344 -1.4018  1.3792
  103SAPE  C31210536   4.824   6.518   3.544 -0.0148  0.1311 -0.2987
  103SAPE  H12X10537   4.868   6.416   3.543  0.2581  0.2390 -1.7644
  103SAPE  H12Y10538   4.714   6.516   3.561  0.2365  2.9522  2.6358
  103SAPE  C31310539   4.873   6.611   3.652  0.8817 -0.1773  0.0817
  103SAPE  H13X10540   4.816   6.706   3.657  1.4159  0.1597 -0.1078
  103SAPE  H13Y10541   4.966   6.664   3.622  1.0649 -0.0504  0.8576
  103SAPE  C31410542   4.888   6.543   3.791  0.9017  0.1389  0.0547
  103SAPE  H14X10543   4.891   6.625   3.866 -0.0974 -0.4874  0.8042
  103SAPE  H14Y10544   4.989   6.499   3.797  1.2036  0.5338 -1.5864
  103SAPE  C31510545   4.771   6.442   3.818 -0.0850 -0.2239 -0.4411
  103SAPE  H15X10546   4.807   6.374   3.899  2.8930  1.8227  0.1093
  103SAPE  H15Y10547   4.754   6.381   3.727 -0.2933  0.2235 -0.7012
  103SAPE  C31610548   4.641   6.506   3.851 -0.2772  0.0349  0.9986
  103SAPE  H16X10549   4.625   6.595   3.787 -3.3835 -1.6073 -0.7833
  103SAPE  H16Y10550   4.632   6.539   3.957 -1.8071 -1.8017  1.5067
  103SAPE  C31710551   4.518   6.415   3.818  0.5474 -0.2552  0.0560
  103SAPE  H17X10552   4.547   6.367   3.723  1.0232  1.6462 -0.8033
  103SAPE  H17Y10553   4.431   6.481   3.799  0.1632 -0.8845 -0.3951
  103SAPE  C31810554   4.478   6.313   3.926 -0.3367 -0.1905  0.3175
  103SAPE  H18X10555   4.555   6.232   3.920  1.0875  1.2191 -1.9813
  103SAPE  H18Y10556   4.379   6.270   3.903 -0.7709  1.2215 -0.5563
  103SAPE  H18Z10557   4.467   6.357   4.028  0.9516 -1.1331  0.9005
  104SAPE     N10558   5.608   3.964   2.143  0.5702 -0.3557  0.1383
  104SAPE   HN110559   5.591   3.864   2.168  4.9816 -0.7022  2.8265
  104SAPE   HN210560   5.545   3.991   2.065  0.2800  0.9601  0.8149
  104SAPE   HN310561   5.707   3.964   2.109  0.7837  0.2382  0.7341
  104SAPE   C1210562   5.592   4.063   2.257  0.0191 -0.0008  0.4484
  104SAPE  H12A10563   5.659   4.029   2.338  1.1478 -0.6912 -0.7399
  104SAPE  H12B10564   5.484   4.059   2.283  0.0511 -2.9188  0.4283
  104SAPE   C1110565   5.629   4.211   2.217 -0.0485  0.1149  0.5364
  104SAPE  H11A10566   5.594   4.281   2.296  1.8404  0.4247  1.1431
  104SAPE  H11B10567   5.580   4.240   2.121 -0.5228 -1.7523  0.1755
  104SAPE     P10568   5.843   4.226   2.068 -0.2594  0.3145 -0.0840
  104SAPE   O1310569   5.815   4.097   2.001  0.5379  0.3313  0.0657
  104SAPE   O1410570   5.797   4.346   1.993 -0.2191 -0.1391 -0.1535
  104SAPE   O1210571   5.772   4.225   2.209 -0.1015  0.5100 -0.3027
  104SAPE   O1110572   5.996   4.255   2.109 -0.5347  0.2510  0.1565
  104SAPE    C110573   6.076   4.204   2.219  0.7206  0.0493 -0.3562
  104SAPE    HA10574   6.025   4.113   2.256 -0.3410 -0.0746 -1.9837
  104SAPE    HB10575   6.170   4.160   2.177  0.9170  1.0980 -1.0521
  104SAPE    C210576   6.119   4.309   2.325 -0.1354  0.3617 -0.1563
  104SAPE    HS10577   6.192   4.261   2.394  0.0144 -0.3551 -0.7863
  104SAPE   O2110578   5.999   4.341   2.396 -0.5940 -0.0568  0.4038
  104SAPE   C2110579   5.960   4.256   2.492  0.4313  0.2810 -0.1139
  104SAPE   O2210580   6.012   4.152   2.520  0.3311 -0.2227 -0.3879
  104SAPE   C2210581   5.826   4.314   2.542 -0.8139 -0.6213  0.4944
  104SAPE   H2R10582   5.849   4.406   2.600 -0.8589 -1.0604  1.2280
  104SAPE   H2S10583   5.768   4.344   2.452 -1.8221  0.0964  1.3518
  104SAPE    C310584   6.178   4.429   2.242 -0.5166 -0.0195  0.7617
  104SAPE    HX10585   6.088   4.475   2.196 -0.2980  0.3282  0.6839
  104SAPE    HY10586   6.245   4.407   2.156  0.2743  0.4920  1.2297
  104SAPE   O3110587   6.252   4.516   2.334  0.0882  0.2948  0.1754
  104SAPE   C3110588   6.177   4.601   2.404 -0.0667  0.2438  0.2686
  104SAPE   O3210589   6.056   4.608   2.405 -0.3209  0.0258 -0.7661
  104SAPE   C3210590   6.267   4.680   2.500 -0.0134 -0.1612 -0.4052
  104SAPE   H2X10591   6.324   4.759   2.446  0.4354 -0.3240 -0.1738
  104SAPE   H2Y10592   6.335   4.611   2.555  0.0759  0.3751  0.1664
  104SAPE   C2310593   5.747   4.208   2.620  0.0972  0.2519  0.0459
  104SAPE   H3R10594   5.807   4.193   2.713 -0.7335 -0.7262  0.4433
  104SAPE   H3S10595   5.743   4.109   2.570  2.2001 -0.4439  1.1030
  104SAPE   C2410596   5.606   4.245   2.662  0.4411 -0.3279  0.0962
  104SAPE   H4R10597   5.552   4.154   2.697  1.3317 -0.7893  0.3209
  104SAPE   H4S10598   5.545   4.291   2.583  2.3693  1.6798 -0.3106
  104SAPE   C2510599   5.604   4.348   2.774  0.1033  0.7623  0.5061
  104SAPE   H5R10600   5.644   4.444   2.738  0.8415 -0.7482 -3.2969
  104SAPE   C2610601   5.582   4.331   2.904 -0.8221 -1.2046  0.0458
  104SAPE   H6R10602   5.589   4.420   2.969 -1.8788 -0.9643 -0.1546
  104SAPE   C2710603   5.550   4.201   2.986 -0.2630 -0.2737  0.3413
  104SAPE   H7R10604   5.597   4.113   2.937  3.9345  1.4194  0.8812
  104SAPE   H7S10605   5.443   4.187   2.961 -0.2101 -2.0241  0.9886
  104SAPE   C2810606   5.561   4.204   3.135 -0.5814  0.1787 -0.5340
  104SAPE   H8R10607   5.627   4.277   3.186 -1.7111  0.0359  1.2216
  104SAPE   C2910608   5.511   4.110   3.215 -0.6486 -0.3558 -1.0498
  104SAPE   H9R10609   5.529   4.119   3.324 -0.0163  1.1868 -1.2548
  104SAPE  C21010610   5.435   3.989   3.177  0.0816  0.3330  0.5806
  104SAPE  H10R10611   5.454   3.968   3.070  1.6893 -4.0620  1.5468
  104SAPE  H10S10612   5.326   4.008   3.191  0.1231 -0.1067  1.6135
  104SAPE  C21110613   5.477   3.871   3.263 -0.2347  0.2757 -0.0356
  104SAPE  H11R10614   5.510   3.782   3.207 -2.8715 -0.5750 -0.3736
  104SAPE  C21210615   5.461   3.837   3.389 -0.1109 -0.4663  0.1114
  104SAPE  H12R10616   5.506   3.742   3.423  0.1467 -0.0085  1.0911
  104SAPE  C21310617   5.409   3.934   3.498 -0.1593  0.7738 -0.2074
  104SAPE  H13R10618   5.487   4.013   3.488 -0.0533  0.5370 -1.4200
  104SAPE  H13S10619   5.423   3.893   3.600 -1.2115  1.1081  0.0821
  104SAPE  C21410620   5.270   3.986   3.498 -0.3994 -0.4622  0.0670
  104SAPE  H14R10621   5.247   4.039   3.405 -3.2461 -0.2301  0.8069
  104SAPE  C21510622   5.173   3.977   3.593  0.0383 -0.1074 -0.3162
  104SAPE  H15R10623   5.077   4.026   3.571 -0.6636 -1.4898 -0.4546
  104SAPE  C21610624   5.178   3.900   3.716 -0.1626  0.0271 -0.7017
  104SAPE  H16R10625   5.263   3.830   3.726  2.2004  2.8711  0.7770
  104SAPE  H16S10626   5.080   3.850   3.725  0.5668 -1.3066  0.0453
  104SAPE  C21710627   5.190   3.994   3.838 -0.0967 -0.1962 -0.1962
  104SAPE  H17R10628   5.259   4.078   3.813 -0.2186 -0.1324 -0.3220
  104SAPE  H17S10629   5.234   3.941   3.925  0.5854  0.8616  0.1291
  104SAPE  C21810630   5.049   4.051   3.875 -0.1456  0.0509  0.0615
  104SAPE  H18R10631   4.986   3.966   3.908  1.9611 -1.2462  0.9670
  104SAPE  H18S10632   5.004   4.106   3.790 -0.8714  0.6082  0.8021
  104SAPE  C21910633   5.053   4.155   3.986 -0.8904 -0.1453 -0.7334
  104SAPE  H19R10634   4.950   4.197   3.980 -0.4919  0.7781 -1.1407
  104SAPE  H19S10635   5.123   4.235   3.955  0.0912 -0.5021  0.4707
  104SAPE  C22010636   5.090   4.100   4.128 -0.3455 -0.1062 -0.2348
  104SAPE  H20R10637   5.182   4.037   4.125  0.2497  0.5779  1.7810
  104SAPE  H20S10638   5.009   4.041   4.175  1.6822 -1.0475  2.3358
  104SAPE  H20T10639   5.127   4.177   4.199  1.0741 -1.5337  0.6562
  104SAPE   C3310640   6.190   4.759   2.609 -0.0478  0.2795  0.2062
  104SAPE   H3X10641   6.117   4.685   2.649  1.9205 -1.8331  0.1484
  104SAPE   H3Y10642   6.140   4.849   2.568 -1.8538 -0.2609  1.1354
  104SAPE   C3410643   6.270   4.797   2.729  0.3911  0.3326  0.6592
  104SAPE   H4X10644   6.357   4.855   2.691 -0.4555  0.8180 -0.5925
  104SAPE   H4Y10645   6.321   4.708   2.771 -1.2351 -1.3620 -0.8585
  104SAPE   C3510646   6.189   4.866   2.845 -0.4897 -0.1776  0.4860
  104SAPE   H5X10647   6.103   4.929   2.813 -2.0362 -2.1652  0.5468
  104SAPE   H5Y10648   6.267   4.929   2.893 -0.8887  1.3774 -0.8325
  104SAPE   C3610649   6.127   4.760   2.934 -0.1147 -0.9221  0.1524
  104SAPE   H6X10650   6.202   4.681   2.957 -1.2065 -2.3000 -0.8335
  104SAPE   H6Y10651   6.039   4.711   2.888 -0.1230  0.9513 -2.0186
  104SAPE   C3710652   6.082   4.833   3.061  0.2023 -1.2423  0.3797
  104SAPE   H7X10653   6.009   4.904   3.016  0.9259 -0.6220  0.1744
  104SAPE   H7Y10654   6.151   4.904   3.110 -0.7977 -2.0901  3.2045
  104SAPE   C3810655   6.011   4.743   3.162 -0.4622 -0.6093 -0.5665
  104SAPE   H8X10656   5.975   4.652   3.109 -1.7519 -1.0952  1.0796
  104SAPE   H8Y10657   5.928   4.812   3.185 -1.1545 -0.5478 -3.0104
  104SAPE   C3910658   6.091   4.722   3.289 -0.3260  0.1019 -0.2636
  104SAPE   H9X10659   6.126   4.819   3.328  0.1885  0.0560 -0.6044
  104SAPE   H9Y10660   6.178   4.656   3.271 -0.5181  0.3835 -2.5306
  104SAPE  C31010661   6.021   4.672   3.414  0.3412 -0.6760 -0.8877
  104SAPE  H10X10662   5.997   4.564   3.406  1.9011 -1.0870 -0.2891
  104SAPE  H10Y10663   5.926   4.731   3.411  1.3728  1.0337 -1.5796
  104SAPE  C31110664   6.087   4.704   3.548  0.0805 -0.0851 -0.3035
  104SAPE  H11X10665   6.118   4.811   3.553  0.0254 -0.0858  0.1392
  104SAPE  H11Y10666   6.185   4.654   3.538  0.1512 -0.8152  2.9970
  104SAPE  C31210667   6.024   4.645   3.675  0.0044  0.1212 -0.4208
  104SAPE  H12X10668   6.024   4.534   3.677  1.4883  0.1134  0.9299
  104SAPE  H12Y10669   5.915   4.669   3.675 -0.0899 -0.1974  0.7846
  104SAPE  C31310670   6.090   4.710   3.796  0.1874 -0.5532 -0.0521
  104SAPE  H13X10671   6.071   4.820   3.798 -1.3504 -0.8143  0.1754
  104SAPE  H13Y10672   6.198   4.687   3.779 -0.0242 -0.3245 -1.8867
  104SAPE  C31410673   6.031   4.650   3.927  0.0820 -0.6408  0.6384
  104SAPE  H14X10674   6.061   4.543   3.925  0.1178 -0.6780  2.0904
  104SAPE  H14Y10675   5.920   4.655   3.922  0.0760 -0.9277  0.5068
  104SAPE  C31510676   6.077   4.715   4.059  0.2585  0.2374 -0.1974
  104SAPE  H15X10677   6.031   4.813   4.084  2.9046  1.6104 -0.3903
  104SAPE  H15Y10678   6.186   4.735   4.058  0.2121  0.7956  1.8243
  104SAPE  C31610679   6.043   4.613   4.166  0.1673 -0.3981  0.0389
  104SAPE  H16X10680   6.110   4.526   4.150 -0.5973 -0.5900 -2.7704
  104SAPE  H16Y10681   5.943   4.564   4.155 -0.8427  1.2970  1.2479
  104SAPE  C31710682   6.073   4.663   4.308 -0.9176  0.8614 -1.1959
  104SAPE  H17X10683   6.033   4.765   4.327  1.3704  1.3643  1.6282
  104SAPE  H17Y10684   6.183   4.681   4.309 -1.0708  1.9508  0.9005
  104SAPE  C31810685   6.036   4.570   4.426  0.2870  0.2053  0.0170
  104SAPE  H18X10686   5.938   4.527   4.397 -0.2505  1.8799 -0.7552
  104SAPE  H18Y10687   6.017   4.645   4.505 -0.1029  1.1712 -0.9720
  104SAPE  H18Z10688   6.101   4.487   4.462 -0.1119  0.7125  2.0283
  105SAPE     N10689   5.268   3.122   1.955  0.3438 -0.5066  0.7777
  105SAPE   HN110690   5.347   3.109   1.890 -1.6862  0.7722 -2.1630
  105SAPE   HN210691   5.284   3.206   2.015  2.5252 -0.9981  0.9518
  105SAPE   HN310692   5.263   3.036   2.013 -1.3023 -0.6759  0.4348
  105SAPE   C1210693   5.143   3.139   1.871  0.5735  0.5454 -0.6705
  105SAPE  H12A10694   5.114   3.040   1.830 -1.3964  0.4801  0.7357
  105SAPE  H12B10695   5.160   3.213   1.790  2.3261 -1.8765 -2.6558
  105SAPE   C1110696   5.027   3.155   1.968  0.6811 -0.5157  0.2316
  105SAPE  H11A10697   5.015   3.076   2.046  0.0137  0.5757  1.2639
  105SAPE  H11B10698   4.935   3.140   1.909  0.1379  0.8252  0.7126
  105SAPE     P10699   4.958   3.405   2.015 -0.1177  0.0001  0.1404
  105SAPE   O1310700   4.997   3.503   2.119  0.1402  0.9902 -0.3145
  105SAPE   O1410701   4.971   3.450   1.872 -0.1895 -0.8899 -0.2432
  105SAPE   O1210702   5.040   3.273   2.041  0.2307  0.5608  0.2874
  105SAPE   O1110703   4.806   3.373   2.040  0.3690  0.6493  0.5888
  105SAPE    C110704   4.703   3.475   2.049  0.3983 -0.4709  0.0570
  105SAPE    HA10705   4.723   3.553   2.125 -2.6855 -0.3666  0.8661
  105SAPE    HB10706   4.690   3.523   1.950  2.3768 -2.7966 -1.4522
  105SAPE    C210707   4.570   3.418   2.103 -0.4898 -0.2963 -0.0068
  105SAPE    HS10708   4.495   3.461   2.033 -0.1569  0.8518  0.3288
  105SAPE   O2110709   4.553   3.458   2.234 -0.1824 -0.0794  0.2956
  105SAPE   C2110710   4.483   3.577   2.249  0.0106  0.4842  0.3482
  105SAPE   O2210711   4.441   3.635   2.153 -0.0109 -0.1599 -0.1184
  105SAPE   C2210712   4.445   3.622   2.389  0.7705  0.0917 -0.4016
  105SAPE   H2R10713   4.524   3.698   2.410  1.3665 -0.4869 -0.5207
  105SAPE   H2S10714   4.343   3.665   2.382  1.0866  0.6004 -2.2454
  105SAPE    C310715   4.560   3.264   2.092  0.1049  0.1488 -0.2259
  105SAPE    HX10716   4.653   3.223   2.137  1.8616  2.2182 -1.7673
  105SAPE    HY10717   4.556   3.229   1.986  1.4275 -1.1706  0.1235
  105SAPE   O3110718   4.431   3.218   2.152 -0.1400 -0.0044 -0.2052
  105SAPE   C3110719   4.448   3.171   2.273 -0.2675  0.5214 -0.1530
  105SAPE   O3210720   4.552   3.174   2.335 -0.7238 -0.4597 -0.1392
  105SAPE   C3210721   4.322   3.105   2.325  0.1036  0.3807 -0.2690
  105SAPE   H2X10722   4.311   3.010   2.269  0.2922 -0.2784  0.7808
  105SAPE   H2Y10723   4.233   3.165   2.299  0.3821  0.0323 -2.1718
  105SAPE   C2310724   4.480   3.514   2.509  0.4927  0.4780  0.3187
  105SAPE   H3R10725   4.573   3.456   2.493 -0.9393 -1.6546 -0.6225
  105SAPE   H3S10726   4.394   3.444   2.508  1.2139 -0.4087 -1.1909
  105SAPE   C2410727   4.493   3.576   2.651 -0.2558 -0.2845  0.2098
  105SAPE   H4R10728   4.575   3.651   2.650  0.4494 -0.9884  1.6879
  105SAPE   H4S10729   4.528   3.491   2.714 -1.1201 -0.8152 -0.0164
  105SAPE   C2510730   4.357   3.623   2.695 -0.0887 -0.0291 -0.4699
  105SAPE   H5R10731   4.271   3.558   2.675 -0.1985  0.0954 -0.3944
  105SAPE   C2610732   4.338   3.733   2.768 -0.0642  0.0700  0.1101
  105SAPE   H6R10733   4.237   3.754   2.805 -0.5748 -1.9103 -0.0902
  105SAPE   C2710734   4.443   3.834   2.812  0.4137  0.0865 -0.3683
  105SAPE   H7R10735   4.491   3.871   2.720  0.5525 -0.3110 -0.4574
  105SAPE   H7S10736   4.522   3.777   2.865 -1.7573 -0.8599  2.1364
  105SAPE   C2810737   4.381   3.956   2.886  0.8970 -0.0265  0.3803
  105SAPE   H8R10738   4.337   4.039   2.827 -1.9991 -2.3256 -0.9450
  105SAPE   C2910739   4.378   3.969   3.018 -0.5746 -0.0992 -0.4246
  105SAPE   H9R10740   4.322   4.054   3.060  0.4172  0.0336  0.6964
  105SAPE  C21010741   4.430   3.872   3.122 -0.0298  0.1127  0.6793
  105SAPE  H10R10742   4.453   3.917   3.221 -0.6594  0.8331  0.5054
  105SAPE  H10S10743   4.533   3.847   3.090  0.0492  0.6939  0.4683
  105SAPE  C21110744   4.354   3.739   3.135 -0.2652  0.5642 -0.5855
  105SAPE  H11R10745   4.334   3.697   3.036 -0.5931  1.4953 -0.9319
  105SAPE  C21210746   4.335   3.664   3.247 -0.1434 -0.5438 -0.2280
  105SAPE  H12R10747   4.284   3.566   3.243  0.9912 -1.1436 -0.5636
  105SAPE  C21310748   4.368   3.700   3.389 -0.1105 -0.4764 -0.0118
  105SAPE  H13R10749   4.396   3.808   3.396  1.1706 -0.6962 -1.1957
  105SAPE  H13S10750   4.460   3.652   3.429 -0.2154 -0.0599  0.7514
  105SAPE  C21410751   4.236   3.670   3.463 -0.1996  0.3140  0.3312
  105SAPE  H14R10752   4.140   3.704   3.422  0.0283  0.9686  0.3199
  105SAPE  C21510753   4.214   3.580   3.563 -0.2243  0.4166  0.5861
  105SAPE  H15R10754   4.122   3.584   3.623 -1.1083  0.5958 -0.7142
  105SAPE  C21610755   4.325   3.502   3.630 -0.0442 -0.0706 -0.4184
  105SAPE  H16R10756   4.315   3.501   3.740 -3.8026 -2.5377 -0.6161
  105SAPE  H16S10757   4.418   3.554   3.599  0.8830 -1.1090  0.5105
  105SAPE  C21710758   4.329   3.343   3.589  0.0721 -0.7194  0.2891
  105SAPE  H17R10759   4.267   3.281   3.656 -0.0002 -1.5211 -0.5000
  105SAPE  H17S10760   4.435   3.311   3.601  0.3537  0.1197  0.1148
  105SAPE  C21810761   4.295   3.304   3.447 -0.1724 -0.6361 -0.0260
  105SAPE  H18R10762   4.374   3.356   3.390 -1.3732  2.2378  0.7514
  105SAPE  H18S10763   4.200   3.340   3.401 -0.3780  1.2692  1.7543
  105SAPE  C21910764   4.308   3.150   3.426 -0.0771  0.3872  0.0412
  105SAPE  H19R10765   4.408   3.129   3.470  0.7204  1.1594 -1.3466
  105SAPE  H19S10766   4.306   3.139   3.315 -0.6700  0.8423 -0.0030
  105SAPE  C22010767   4.203   3.061   3.482 -0.1179 -0.4312  0.3602
  105SAPE  H20R10768   4.215   3.047   3.592  2.7311  0.9133  0.3266
  105SAPE  H20S10769   4.202   2.968   3.421 -0.0536 -0.5385  0.5217
  105SAPE  H20T10770   4.115   3.126   3.464 -1.1895 -1.3905  1.9078
  105SAPE   C3310771   4.337   3.061   2.471 -0.3783  0.4476 -0.0592
  105SAPE   H3X10772   4.414   2.982   2.480 -1.2902 -0.3024  1.5006
  105SAPE   H3Y10773   4.247   3.000   2.493  1.2177 -1.6198  1.1331
  105SAPE   C3410774   4.357   3.171   2.577  0.9292 -0.5689  0.5139
  105SAPE   H4X10775   4.287   3.257   2.568  1.6412 -0.1102 -0.9807
  105SAPE   H4Y10776   4.454   3.219   2.550 -0.3300  0.2158 -3.0953
  105SAPE   C3510777   4.354   3.122   2.720 -0.3411 -0.3715  0.2591
  105SAPE   H5X10778   4.417   3.031   2.729 -0.0703 -0.9761 -4.8971
  105SAPE   H5Y10779   4.246   3.108   2.742 -0.6904  2.2784  0.6138
  105SAPE   C3610780   4.411   3.230   2.813  0.1172  0.4488 -0.6147
  105SAPE   H6X10781   4.339   3.313   2.802 -0.6124 -0.1557 -0.4798
  105SAPE   H6Y10782   4.512   3.258   2.776  0.2632 -0.6204 -1.0808
  105SAPE   C3710783   4.416   3.182   2.957  0.1612  0.2051 -0.4103
  105SAPE   H7X10784   4.494   3.104   2.966 -0.7856 -1.1954 -3.2322
  105SAPE   H7Y10785   4.328   3.117   2.975  0.8720 -1.1223 -1.5727
  105SAPE   C3810786   4.439   3.281   3.060 -0.1951 -0.5816  0.1176
  105SAPE   H8X10787   4.458   3.228   3.156  0.7389 -0.4268  0.0377
  105SAPE   H8Y10788   4.353   3.350   3.073 -0.6324 -1.1472  0.2646
  105SAPE   C3910789   4.564   3.369   3.028  0.6944 -0.5307  0.3784
  105SAPE   H9X10790   4.541   3.430   2.938  0.8683 -2.1636 -0.8170
  105SAPE   H9Y10791   4.647   3.313   2.979  0.8229  0.2281 -0.2863
  105SAPE  C31010792   4.619   3.450   3.146  0.8675 -0.2076  0.6005
  105SAPE  H10X10793   4.637   3.382   3.233 -0.9960  1.9590  2.8340
  105SAPE  H10Y10794   4.541   3.514   3.192  1.4202  0.5371  0.5069
  105SAPE  C31110795   4.734   3.536   3.104  0.7671 -0.1307 -0.2276
  105SAPE  H11X10796   4.696   3.625   3.049 -1.0664 -0.4233  0.4740
  105SAPE  H11Y10797   4.806   3.478   3.043  1.8743 -0.8127  1.6545
  105SAPE  C31210798   4.812   3.585   3.227 -0.2090 -0.5517 -0.4345
  105SAPE  H12X10799   4.840   3.489   3.276 -3.3062 -1.3290  0.0256
  105SAPE  H12Y10800   4.726   3.622   3.288 -1.1302 -0.3313 -1.8274
  105SAPE  C31310801   4.924   3.687   3.195 -0.4099  0.6612 -0.4972
  105SAPE  H13X10802   4.881   3.782   3.157  0.7395  1.7470  0.8191
  105SAPE  H13Y10803   4.987   3.628   3.125  1.7398 -3.1805  4.1152
  105SAPE  C31410804   5.018   3.714   3.314  0.4820 -0.4227 -0.0473
  105SAPE  H14X10805   4.964   3.734   3.408  1.2418 -1.6365  0.6752
  105SAPE  H14Y10806   5.077   3.802   3.282 -1.4659  0.3337 -1.8242
  105SAPE  C31510807   5.115   3.596   3.356 -0.3752 -0.2765  0.3725
  105SAPE  H15X10808   5.218   3.610   3.316 -0.2145  0.8900  1.1437
  105SAPE  H15Y10809   5.080   3.502   3.310  2.7828 -0.7854 -1.3257
  105SAPE  C31610810   5.126   3.586   3.505 -0.0733 -0.1636 -0.8522
  105SAPE  H16X10811   5.033   3.546   3.550  0.8313 -1.8612 -0.4032
  105SAPE  H16Y10812   5.144   3.685   3.553  1.8378 -1.1829  0.7264
  105SAPE  C31710813   5.250   3.506   3.555  0.4570 -0.1655 -0.1722
  105SAPE  H17X10814   5.346   3.540   3.510  0.0416 -0.4595 -1.3227
  105SAPE  H17Y10815   5.244   3.400   3.522 -3.3346 -0.0769 -0.1280
  105SAPE  C31810816   5.258   3.504   3.707 -0.2374  0.2635 -1.0322
  105SAPE  H18X10817   5.159   3.472   3.746 -0.2122 -0.2174 -1.3574
  105SAPE  H18Y10818   5.276   3.607   3.745  1.2706  0.4841 -2.2575
  105SAPE  H18Z10819   5.330   3.435   3.756 -3.3128 -1.4856  1.4047
  106SAPE     N10820   2.863   5.808   1.994  0.2180  0.7713 -0.3522
  106SAPE   HN110821   2.761   5.815   1.974  0.2050 -0.2814 -0.7243
  106SAPE   HN210822   2.874   5.895   2.049  0.0620 -0.0709  1.0719
  106SAPE   HN310823   2.915   5.834   1.908  1.3077 -0.5056 -0.1256
  106SAPE   C1210824   2.906   5.682   2.062  0.0233  1.4232 -0.0850
  106SAPE  H12A10825   3.010   5.689   2.101 -0.4247  0.2310  1.4023
  106SAPE  H12B10826   2.904   5.600   1.987  1.1987 -0.6619  2.0122
  106SAPE   C1110827   2.804   5.637   2.178 -0.0837  0.4413  0.2554
  106SAPE  H11A10828   2.772   5.726   2.238 -1.2332 -0.3463  0.8479
  106SAPE  H11B10829   2.859   5.565   2.242 -2.4446  0.3862  2.3840
  106SAPE     P10830   2.557   5.636   2.084 -0.0120 -0.0051 -0.4396
  106SAPE   O1310831   2.600   5.710   1.958 -0.6183  0.1910 -0.2925
  106SAPE   O1410832   2.456   5.526   2.071  0.5645 -0.4787 -0.3248
  106SAPE   O1210833   2.685   5.571   2.137  0.0809  0.0859  0.2648
  106SAPE   O1110834   2.518   5.739   2.195  0.3642  0.0989 -0.4244
  106SAPE    C110835   2.402   5.817   2.197  0.0154 -0.2485  0.3322
  106SAPE    HA10836   2.342   5.803   2.105  2.0685  2.8249 -1.6662
  106SAPE    HB10837   2.335   5.801   2.284 -1.0664  2.0330  0.0035
  106SAPE    C210838   2.446   5.969   2.195  0.5532 -0.3731  0.0960
  106SAPE    HS10839   2.519   5.990   2.114  0.4361  1.2554  0.3861
  106SAPE   O2110840   2.494   6.016   2.325  0.0735  0.7963  0.1411
  106SAPE   C2110841   2.630   6.003   2.336  0.4810 -0.2275  0.8061
  106SAPE   O2210842   2.703   6.006   2.238  0.4154 -0.6238 -0.2762
  106SAPE   C2210843   2.681   5.987   2.473  0.1662 -0.7696  0.0673
  106SAPE   H2R10844   2.778   5.932   2.467  1.4879  1.5480 -0.7923
  106SAPE   H2S10845   2.708   6.090   2.505  3.0611 -0.6381 -2.3700
  106SAPE    C310846   2.326   6.060   2.149 -0.6493 -0.5057  0.1882
  106SAPE    HX10847   2.228   6.019   2.183 -0.1551 -2.7076 -0.9195
  106SAPE    HY10848   2.312   6.053   2.039 -0.7397 -0.5338  0.2008
  106SAPE   O3110849   2.346   6.200   2.196 -0.0194 -0.0073 -0.2448
  106SAPE   C3110850   2.238   6.275   2.179  0.4530 -0.2748 -0.2026
  106SAPE   O3210851   2.139   6.244   2.111 -0.7204  0.1897 -0.1915
  106SAPE   C3210852   2.265   6.409   2.238 -0.0459  0.2449 -0.0948
  106SAPE   H2X10853   2.212   6.484   2.175  0.0707  0.1884 -0.2622
  106SAPE   H2Y10854   2.375   6.427   2.240  0.1751 -0.9361 -0.6385
  106SAPE   C2310855   2.589   5.908   2.576  0.1310 -0.8437 -0.2857
  106SAPE   H3R10856   2.573   5.807   2.533  0.9121  0.1403 -3.0800
  106SAPE   H3S10857   2.493   5.963   2.581  0.2481 -0.7443  1.6099
  106SAPE   C2410858   2.645   5.888   2.719  0.1734 -0.4576  0.0949
  106SAPE   H4R10859   2.731   5.820   2.704 -0.9806 -2.0442  0.4715
  106SAPE   H4S10860   2.575   5.825   2.778 -0.5180  1.0327  0.9146
  106SAPE   C2510861   2.675   6.012   2.801  0.4178  0.5153  0.4639
  106SAPE   H5R10862   2.663   6.105   2.744  0.5559  0.1392 -0.2001
  106SAPE   C2610863   2.738   6.007   2.922 -0.0539 -0.2538 -0.3141
  106SAPE   H6R10864   2.768   6.100   2.973  1.3158 -0.9993  0.3064
  106SAPE   C2710865   2.779   5.881   2.993  0.5601 -0.9680  0.4312
  106SAPE   H7R10866   2.851   5.902   3.075  1.3253  1.0165 -0.6929
  106SAPE   H7S10867   2.836   5.825   2.916  1.1004 -0.4105  0.4177
  106SAPE   C2810868   2.664   5.784   3.032 -0.3606 -0.5089  0.4527
  106SAPE   H8R10869   2.560   5.798   3.001 -0.0586  2.5112  0.5152
  106SAPE   C2910870   2.691   5.675   3.107  0.3371 -0.2088  0.8990
  106SAPE   H9R10871   2.604   5.618   3.144 -1.5178  1.7036 -0.2907
  106SAPE  C21010872   2.820   5.640   3.159 -0.7368  0.2838 -0.3731
  106SAPE  H10R10873   2.901   5.695   3.107 -1.3472  2.2677  0.6714
  106SAPE  H10S10874   2.840   5.535   3.128 -1.1236  0.4568 -1.2206
  106SAPE  C21110875   2.840   5.654   3.306  0.0866 -0.5067  0.5289
  106SAPE  H11R10876   2.870   5.754   3.338  1.3889 -0.1620 -1.5584
  106SAPE  C21210877   2.812   5.571   3.402 -0.4581  0.2267 -0.0677
  106SAPE  H12R10878   2.823   5.597   3.508 -3.5355  0.1743  0.3618
  106SAPE  C21310879   2.763   5.434   3.383  0.1166 -0.3552 -0.7671
  106SAPE  H13R10880   2.715   5.409   3.285 -1.6109 -2.0081  0.4155
  106SAPE  H13S10881   2.683   5.418   3.459 -0.8663  2.2101 -1.1583
  106SAPE  C21410882   2.876   5.333   3.403 -0.0826  0.1293  0.0328
  106SAPE  H14R10883   2.936   5.303   3.316  0.9319 -1.5767  1.2640
  106SAPE  C21510884   2.912   5.287   3.530 -0.8030 -0.8474 -1.2060
  106SAPE  H15R10885   2.992   5.212   3.527  0.8649  0.8649 -2.4581
  106SAPE  C21610886   2.847   5.328   3.667 -0.1954 -0.2203  0.4560
  106SAPE  H16R10887   2.833   5.240   3.733 -2.1968  0.5014  1.0631
  106SAPE  H16S10888   2.752   5.378   3.641 -0.0718  0.9537  2.1760
  106SAPE  C21710889   2.943   5.423   3.751  0.5275 -0.1229  0.2522
  106SAPE  H17R10890   2.893   5.445   3.848  0.8689  2.9984 -0.1732
  106SAPE  H17S10891   2.958   5.523   3.705 -1.4864 -0.2472 -0.8063
  106SAPE  C21810892   3.084   5.367   3.785 -0.0800 -0.5037 -0.5666
  106SAPE  H18R10893   3.138   5.386   3.690 -0.6383  0.0154 -0.7845
  106SAPE  H18S10894   3.067   5.258   3.798 -0.1250 -0.4988 -0.5817
  106SAPE  C21910895   3.147   5.435   3.912 -0.9803 -0.2313  0.4635
  106SAPE  H19R10896   3.242   5.378   3.917 -1.5494 -1.1647  1.1072
  106SAPE  H19S10897   3.087   5.408   4.002 -1.5817  0.5910  0.3271
  106SAPE  C22010898   3.171   5.584   3.898  0.2710 -0.5315  0.3041
  106SAPE  H20R10899   3.224   5.616   3.806 -1.1371 -2.1103 -1.1326
  106SAPE  H20S10900   3.222   5.633   3.982  0.1868  4.0603 -2.0285
  106SAPE  H20T10901   3.075   5.638   3.886  0.2268 -0.3341  1.4577
  106SAPE   C3310902   2.209   6.424   2.384  0.4634 -0.6888 -0.1922
  106SAPE   H3X10903   2.101   6.400   2.384  0.8506 -2.6148  0.1128
  106SAPE   H3Y10904   2.222   6.530   2.414 -0.1403 -0.0696 -2.0051
  106SAPE   C3410905   2.298   6.342   2.480  0.2424 -0.1817  0.8823
  106SAPE   H4X10906   2.399   6.341   2.433 -1.3091 -2.2553 -2.7751
  106SAPE   H4Y10907   2.261   6.238   2.493 -0.2497 -0.0438  0.6054
  106SAPE   C3510908   2.294   6.407   2.612 -0.5611  0.8785  0.0385
  106SAPE   H5X10909   2.188   6.432   2.634 -0.4982  1.1175  0.0722
  106SAPE   H5Y10910   2.346   6.505   2.613  1.7403 -0.2584 -0.4063
  106SAPE   C3610911   2.325   6.310   2.729 -0.5413 -0.7220 -0.3544
  106SAPE   H6X10912   2.430   6.272   2.727 -0.1907  0.1589  0.5854
  106SAPE   H6Y10913   2.260   6.220   2.728 -0.2813 -0.9441  0.9597
  106SAPE   C3710914   2.331   6.375   2.863  0.4869 -0.3726 -0.9790
  106SAPE   H7X10915   2.233   6.423   2.884  1.0127  1.0580 -1.6981
  106SAPE   H7Y10916   2.403   6.459   2.865 -0.0216  0.0595  0.2375
  106SAPE   C3810917   2.360   6.287   2.985  0.8466  0.0909 -0.2466
  106SAPE   H8X10918   2.464   6.249   2.982  1.2489  0.7414  2.6615
  106SAPE   H8Y10919   2.290   6.202   2.996  0.7603  0.0738 -0.9113
  106SAPE   C3910920   2.353   6.360   3.119 -0.2147 -0.1669  0.6850
  106SAPE   H9X10921   2.257   6.415   3.134 -0.7100 -1.3533  2.0248
  106SAPE   H9Y10922   2.428   6.442   3.126 -0.3088  0.0127 -0.2746
  106SAPE  C31010923   2.378   6.264   3.237  0.8848  0.2836 -0.4717
  106SAPE  H10X10924   2.298   6.188   3.238 -0.0263  1.0820 -3.3274
  106SAPE  H10Y10925   2.362   6.328   3.327 -0.0394 -1.7805  0.9061
  106SAPE  C31110926   2.525   6.210   3.248  0.2809 -0.0975  0.0594
  106SAPE  H11X10927   2.587   6.303   3.248 -1.1503  0.9023  1.2792
  106SAPE  H11Y10928   2.545   6.143   3.161  0.3194 -0.2218  0.1644
  106SAPE  C31210929   2.549   6.131   3.372  0.4560  0.2559 -0.7409
  106SAPE  H12X10930   2.489   6.038   3.361 -3.6436  2.5858 -0.2711
  106SAPE  H12Y10931   2.491   6.188   3.448 -1.0201  0.3272 -1.8728
  106SAPE  C31310932   2.690   6.098   3.418 -0.0610 -0.4236  1.0072
  106SAPE  H13X10933   2.758   6.184   3.404 -1.4671  0.5010 -0.5778
  106SAPE  H13Y10934   2.718   6.020   3.343  0.6583 -0.8014  1.6552
  106SAPE  C31410935   2.690   6.053   3.557  0.1181 -0.1701 -0.6808
  106SAPE  H14X10936   2.636   5.960   3.586 -2.5793  2.0683  2.1821
  106SAPE  H14Y10937   2.640   6.127   3.624  2.3070  1.7107 -1.0098
  106SAPE  C31510938   2.835   6.043   3.612 -0.0600  0.3025  0.0104
  106SAPE  H15X10939   2.879   6.143   3.633  1.2099 -0.6026  2.0260
  106SAPE  H15Y10940   2.888   5.981   3.537 -0.7574 -0.8956  0.4866
  106SAPE  C31610941   2.836   5.985   3.747 -1.1324 -0.3950 -0.8464
  106SAPE  H16X10942   2.787   5.886   3.752 -0.0978 -0.9212 -0.7878
  106SAPE  H16Y10943   2.766   6.038   3.816 -1.4560 -1.2860 -0.4680
  106SAPE  C31710944   2.968   5.997   3.822 -0.8927  0.2707 -0.3579
  106SAPE  H17X10945   2.997   6.104   3.818  0.5186  0.0388  1.8983
  106SAPE  H17Y10946   3.049   5.927   3.789 -0.8219 -1.0444  2.2982
  106SAPE  C31810947   2.971   5.973   3.983 -0.2564 -0.4081  0.1035
  106SAPE  H18X10948   2.899   6.036   4.038  0.6374 -0.2877  1.1708
  106SAPE  H18Y10949   3.071   5.999   4.023 -0.0561 -0.1507 -0.5473
  106SAPE  H18Z10950   2.938   5.869   4.002  0.2931 -0.3912  1.2310
  107SAPE     N10951   5.600   4.490   1.911  0.4367  0.2413 -0.1649
  107SAPE   HN110952   5.529   4.482   1.987 -2.4040  1.1857 -2.5113
  107SAPE   HN210953   5.673   4.425   1.945  0.7618  0.2021 -0.9116
  107SAPE   HN310954   5.637   4.587   1.907  1.3461 -0.1060 -0.4474
  107SAPE   C1210955   5.552   4.437   1.775  0.3001  0.6320 -0.1916
  107SAPE  H12A10956   5.644   4.445   1.713  0.4594 -0.6836 -0.1447
  107SAPE  H12B10957   5.472   4.501   1.733 -1.1953 -1.4247 -0.6428
  107SAPE   C1110958   5.508   4.283   1.786  0.0020  0.4235 -0.2615
  107SAPE  H11A10959   5.598   4.225   1.817 -0.1533  1.4814  2.5069
  107SAPE  H11B10960   5.471   4.248   1.687  1.1156 -1.4491 -0.0615
  107SAPE     P10961   5.343   4.129   1.922  0.5795 -0.3175 -0.3836
  107SAPE   O1310962   5.231   4.106   1.831  0.1454 -1.3627  0.3493
  107SAPE   O1410963   5.448   4.024   1.922  0.6829  0.0152  0.0285
  107SAPE   O1210964   5.409   4.270   1.887  0.2360 -0.5994  0.0399
  107SAPE   O1110965   5.287   4.155   2.069  0.3143 -0.1984  1.0326
  107SAPE    C110966   5.240   4.283   2.099  0.3202 -0.5241 -0.4984
  107SAPE    HA10967   5.303   4.373   2.082 -1.4977  0.9235  0.1428
  107SAPE    HB10968   5.143   4.301   2.048  0.0431 -0.5476  0.0154
  107SAPE    C210969   5.204   4.302   2.249  0.6650  0.4912 -0.1775
  107SAPE    HS10970   5.294   4.282   2.312  1.1647 -1.2475 -1.3561
  107SAPE   O2110971   5.081   4.233   2.279 -0.1287 -0.4227  0.0542
  107SAPE   C2110972   5.074   4.174   2.402 -1.0141  0.3441 -0.1973
  107SAPE   O2210973   5.167   4.171   2.482  0.9738  0.1599  0.0178
  107SAPE   C2210974   4.931   4.122   2.423 -0.2039  0.0094  0.5035
  107SAPE   H2R10975   4.861   4.200   2.388 -1.6928 -1.3797  0.2906
  107SAPE   H2S10976   4.907   4.030   2.365  0.3187  0.9416 -1.2517
  107SAPE    C310977   5.166   4.454   2.276 -0.6444  0.3013 -0.2056
  107SAPE    HX10978   5.078   4.487   2.218 -1.2913 -2.0193 -0.6737
  107SAPE    HY10979   5.248   4.517   2.236 -1.8766  1.8964 -0.2803
  107SAPE   O3110980   5.147   4.480   2.416  0.0380 -0.0169 -0.2239
  107SAPE   C3110981   5.241   4.532   2.488 -0.2830 -0.2532 -0.2884
  107SAPE   O3210982   5.351   4.571   2.454  0.3961 -0.1686 -0.1443
  107SAPE   C3210983   5.193   4.560   2.627  0.4491  0.7893 -0.8997
  107SAPE   H2X10984   5.094   4.518   2.658  1.2320  1.1433  2.4775
  107SAPE   H2Y10985   5.184   4.665   2.661 -1.6463 -0.0548  1.5184
  107SAPE   C2310986   4.915   4.084   2.575  0.9592 -0.4710  0.5165
  107SAPE   H3R10987   4.906   4.177   2.635 -2.7167  0.6047 -1.3850
  107SAPE   H3S10988   5.008   4.027   2.589  0.5531 -1.3137 -0.1267
  107SAPE   C2410989   4.801   3.991   2.600  0.2385  0.3216 -0.0482
  107SAPE   H4R10990   4.796   3.913   2.521  0.3160  0.6491 -0.3770
  107SAPE   H4S10991   4.712   4.057   2.597 -0.4332 -0.5435  0.4995
  107SAPE   C2510992   4.799   3.919   2.733 -0.2898  0.9886 -0.6387
  107SAPE   H5R10993   4.748   3.979   2.810 -3.6080 -0.3339 -1.6455
  107SAPE   C2610994   4.818   3.790   2.769  0.1279  1.0110  0.4893
  107SAPE   H6R10995   4.815   3.762   2.875 -1.5423 -1.1724 -0.0674
  107SAPE   C2710996   4.849   3.676   2.666 -0.7076  0.1785  0.0416
  107SAPE   H7R10997   4.868   3.721   2.567 -0.0245 -0.4299 -0.1184
  107SAPE   H7S10998   4.762   3.608   2.650  0.2804 -0.8896 -1.0453
  107SAPE   C2810999   4.969   3.589   2.710  0.0231 -0.4265  0.0240
  107SAPE   H8R11000   5.066   3.641   2.709 -0.0020 -0.2802  1.6828
  107SAPE   C2911001   4.969   3.460   2.754  0.1256  0.5075  0.1885
  107SAPE   H9R11002   5.071   3.424   2.773  0.9804  2.2220 -0.9069
  107SAPE  C21011003   4.850   3.367   2.770  0.3525 -0.1064 -1.0752
  107SAPE  H10R11004   4.766   3.436   2.793  1.0300  1.0675 -1.9797
  107SAPE  H10S11005   4.843   3.297   2.855 -2.1453  1.3651  0.0474
  107SAPE  C21111006   4.806   3.296   2.645 -0.2688 -1.1545 -0.2089
  107SAPE  H11R11007   4.831   3.362   2.561  2.3863 -0.4378  1.0475
  107SAPE  C21211008   4.751   3.172   2.631 -0.5596 -0.4070  0.2312
  107SAPE  H12R11009   4.713   3.147   2.531 -0.4152 -4.2845  1.0109
  107SAPE  C21311010   4.735   3.076   2.742 -0.1969  0.0071  0.1316
  107SAPE  H13R11011   4.653   3.001   2.734 -1.4900  1.3970  0.0213
  107SAPE  H13S11012   4.702   3.144   2.823  0.9048  1.1884 -0.3726
  107SAPE  C21411013   4.863   3.011   2.794 -0.2541 -0.2897  0.3957
  107SAPE  H14R11014   4.930   2.982   2.712  2.9339 -1.0838  3.1015
  107SAPE  C21511015   4.895   2.968   2.918 -0.0102 -0.1578 -0.6384
  107SAPE  H15R11016   4.991   2.921   2.941 -0.7455 -0.6610  1.6761
  107SAPE  C21611017   4.809   2.984   3.044 -0.1072 -0.3174 -0.8750
  107SAPE  H16R11018   4.788   2.893   3.104 -1.4706  0.8423  0.4928
  107SAPE  H16S11019   4.711   3.028   3.014 -1.2649 -0.9630  1.6996
  107SAPE  C21711020   4.842   3.090   3.150 -0.5190 -0.3992 -0.5066
  107SAPE  H17R11021   4.852   3.194   3.113  1.6171 -0.3419  0.1077
  107SAPE  H17S11022   4.940   3.073   3.201 -1.0496 -1.1775  0.2808
  107SAPE  C21811023   4.740   3.097   3.265  0.5971 -0.1104 -0.0664
  107SAPE  H18R11024   4.636   3.076   3.230  0.6445 -0.5775  0.0796
  107SAPE  H18S11025   4.742   3.202   3.303 -0.8345  0.4987 -1.5551
  107SAPE  C21911026   4.772   3.010   3.378 -0.5387 -0.2968  0.6783
  107SAPE  H19R11027   4.878   3.035   3.396 -0.5057  3.2082 -2.9894
  107SAPE  H19S11028   4.771   2.901   3.355 -1.5694 -0.2562  0.4807
  107SAPE  C22011029   4.693   3.041   3.508  0.0294  0.2710 -0.0576
  107SAPE  H20R11030   4.583   3.049   3.494 -0.2491 -1.6649  0.6251
  107SAPE  H20S11031   4.734   3.135   3.550  1.2005 -0.4522  0.4876
  107SAPE  H20T11032   4.725   2.966   3.584 -0.4584  0.3025  0.1836
  107SAPE   C3311033   5.283   4.496   2.743  0.4844 -0.5319  0.2410
  107SAPE   H3X11034   5.389   4.529   2.734 -0.5659  3.9619  1.9419
  107SAPE   H3Y11035   5.269   4.386   2.732  0.5259 -0.2915 -5.8742
  107SAPE   C3411036   5.235   4.545   2.881  0.0676 -0.7489  0.3399
  107SAPE   H4X11037   5.125   4.559   2.893  0.1733 -0.1041  0.5937
  107SAPE   H4Y11038   5.286   4.642   2.897  1.5872 -1.3051 -0.8754
  107SAPE   C3511039   5.275   4.451   3.000  0.1472 -0.3150  1.1224
  107SAPE   H5X11040   5.384   4.442   3.017  0.9636  0.5812 -2.6884
  107SAPE   H5Y11041   5.232   4.351   2.976  0.9798 -0.1475 -1.4064
  107SAPE   C3611042   5.210   4.505   3.118 -0.3866 -0.0231 -0.9421
  107SAPE   H6X11043   5.101   4.517   3.105 -0.4880  0.9578  0.5378
  107SAPE   H6Y11044   5.257   4.602   3.142  0.2559 -0.7112  0.7620
  107SAPE   C3711045   5.219   4.413   3.249  0.0528  0.0231  0.3892
  107SAPE   H7X11046   5.323   4.408   3.290  0.0484 -1.2101  0.2960
  107SAPE   H7Y11047   5.184   4.311   3.222 -1.4841  0.3387  1.0624
  107SAPE   C3811048   5.115   4.481   3.347 -0.0010  0.4010 -0.5258
  107SAPE   H8X11049   5.010   4.474   3.311 -0.8561  2.0615  1.4071
  107SAPE   H8Y11050   5.146   4.587   3.355  3.1247 -0.2520 -2.2526
  107SAPE   C3911051   5.116   4.410   3.486 -0.3851 -0.4912  0.1072
  107SAPE   H9X11052   5.214   4.358   3.488 -0.1300 -0.2121 -2.0094
  107SAPE   H9Y11053   5.034   4.336   3.487  0.7371 -1.8079 -0.9138
  107SAPE  C31011054   5.107   4.518   3.589  0.0112 -0.4012  0.1343
  107SAPE  H10X11055   5.017   4.581   3.573 -0.0596 -0.6217 -0.3406
  107SAPE  H10Y11056   5.203   4.574   3.585 -0.2498  0.0707  0.3494
  107SAPE  C31111057   5.097   4.467   3.732  0.8254  0.2712  0.5495
  107SAPE  H11X11058   5.189   4.406   3.746 -0.1575 -1.1310  1.1779
  107SAPE  H11Y11059   5.006   4.404   3.741  1.4720 -0.5862  1.3099
  107SAPE  C31211060   5.096   4.579   3.840 -0.3914 -0.2463 -0.2738
  107SAPE  H12X11061   5.001   4.636   3.846 -0.6046 -0.7718  2.8122
  107SAPE  H12Y11062   5.162   4.663   3.806 -1.0363  0.2976 -0.2002
  107SAPE  C31311063   5.149   4.531   3.981 -0.2202 -0.4947  0.2385
  107SAPE  H13X11064   5.242   4.480   3.949  0.7694  2.0062 -1.1759
  107SAPE  H13Y11065   5.075   4.465   4.030 -0.0369 -0.4498  0.5773
  107SAPE  C31411066   5.195   4.644   4.076 -0.0897 -0.6689  0.7057
  107SAPE  H14X11067   5.117   4.724   4.081 -1.9207 -2.4169  1.3070
  107SAPE  H14Y11068   5.280   4.688   4.020 -3.0810 -0.2037 -4.1185
  107SAPE  C31511069   5.237   4.592   4.210 -0.2958 -0.4552  0.0082
  107SAPE  H15X11070   5.327   4.527   4.212  1.1214  1.3908 -0.9942
  107SAPE  H15Y11071   5.151   4.528   4.239 -0.5651 -0.1847 -0.1870
  107SAPE  C31611072   5.233   4.699   4.313 -0.1768 -1.0302  0.2826
  107SAPE  H16X11073   5.265   4.798   4.276 -2.1357 -1.3620 -2.6914
  107SAPE  H16Y11074   5.306   4.669   4.390  0.5849  0.1894  0.0548
  107SAPE  C31711075   5.102   4.720   4.385  0.5637 -0.5815  1.2444
  107SAPE  H17X11076   5.072   4.618   4.417  1.2581 -1.6359 -1.2561
  107SAPE  H17Y11077   5.022   4.762   4.320  2.6130 -0.5618 -1.4527
  107SAPE  C31811078   5.112   4.813   4.509  0.0230  0.2793  0.0788
  107SAPE  H18X11079   5.010   4.826   4.552  0.5622 -1.8015  2.2115
  107SAPE  H18Y11080   5.155   4.911   4.478  2.1346 -0.7722 -0.4572
  107SAPE  H18Z11081   5.166   4.765   4.593  1.0878 -0.0609 -0.7802
  108SAPE     N11082   2.780   6.778   1.502  0.3381 -0.0897  0.7828
  108SAPE   HN111083   2.774   6.724   1.413 -2.4316  1.4406 -0.1037
  108SAPE   HN211084   2.878   6.803   1.526  1.0936 -0.0064 -2.0126
  108SAPE   HN311085   2.731   6.728   1.579 -2.3042  1.4646  0.2359
  108SAPE   C1211086   2.706   6.903   1.469  0.4485  0.2346 -0.1569
  108SAPE  H12A11087   2.611   6.865   1.426  1.2388 -0.9702 -0.9215
  108SAPE  H12B11088   2.759   6.962   1.391  1.5785 -0.4999  0.0338
  108SAPE   C1111089   2.682   6.996   1.585  0.3585  0.0476 -0.2807
  108SAPE  H11A11090   2.647   7.090   1.537  0.8497 -0.5692 -1.9126
  108SAPE  H11B11091   2.782   7.009   1.631  2.3047 -2.3904 -3.3826
  108SAPE     P11092   2.531   7.049   1.794 -0.1598  0.3949  0.5303
  108SAPE   O1311093   2.530   7.186   1.741  0.0607  0.1957 -0.2918
  108SAPE   O1411094   2.412   6.986   1.851  0.4341 -0.1284  0.9427
  108SAPE   O1211095   2.576   6.957   1.676  0.0042  0.4645  0.2911
  108SAPE   O1111096   2.653   7.037   1.899  1.4054 -0.0099  0.7547
  108SAPE    C111097   2.707   6.908   1.924  0.2689 -0.2730 -0.0752
  108SAPE    HA11098   2.627   6.830   1.917 -0.3653  0.1017  2.0748
  108SAPE    HB11099   2.785   6.894   1.847  1.4715  0.4080  0.9852
  108SAPE    C211100   2.753   6.896   2.069 -0.1656  0.1280  0.3118
  108SAPE    HS11101   2.791   6.793   2.084  2.9129  1.3734  1.7351
  108SAPE   O2111102   2.641   6.910   2.163  0.3032 -0.5153 -0.0299
  108SAPE   C2111103   2.560   6.812   2.158 -0.1221 -0.0417 -0.4122
  108SAPE   O2211104   2.589   6.697   2.128 -0.0654  0.3348 -0.3126
  108SAPE   C2211105   2.418   6.858   2.184  0.5702 -0.0414 -0.3319
  108SAPE   H2R11106   2.409   6.969   2.177 -2.4073 -0.2927 -2.2241
  108SAPE   H2S11107   2.359   6.818   2.098  0.9189  1.9994 -1.5877
  108SAPE    C311108   2.869   6.986   2.108  0.1732  0.1977 -0.0140
  108SAPE    HX11109   2.832   7.088   2.086  0.3074  0.1944 -0.2630
  108SAPE    HY11110   2.954   6.970   2.038 -0.5644 -0.0206 -0.8869
  108SAPE   O3111111   2.921   6.970   2.246  0.3952  0.0506 -0.3501
  108SAPE   C3111112   2.988   6.855   2.270 -0.2806  0.2822  0.4180
  108SAPE   O3211113   3.007   6.768   2.187  0.3044  0.2451 -0.5832
  108SAPE   C3211114   3.014   6.846   2.421  0.0484 -0.1081  0.1790
  108SAPE   H2X11115   2.925   6.813   2.477  0.5456 -0.2982  0.8703
  108SAPE   H2Y11116   3.035   6.949   2.457 -2.1071  0.3009  0.3868
  108SAPE   C2311117   2.366   6.810   2.324 -0.1669  1.1663  0.3926
  108SAPE   H3R11118   2.387   6.706   2.356  1.0636  0.8548 -1.2677
  108SAPE   H3S11119   2.255   6.817   2.320 -0.3272  0.0921  2.0709
  108SAPE   C2411120   2.402   6.908   2.442  0.7152 -0.4719  0.1476
  108SAPE   H4R11121   2.339   6.887   2.531 -0.4799  1.2787 -0.2228
  108SAPE   H4S11122   2.384   7.007   2.394 -1.0033 -0.6210  0.4460
  108SAPE   C2511123   2.548   6.894   2.471 -0.0697 -0.9343 -0.4345
  108SAPE   H5R11124   2.620   6.968   2.432 -1.4822  0.9299  0.3417
  108SAPE   C2611125   2.592   6.811   2.568  0.1520 -0.5113 -0.4651
  108SAPE   H6R11126   2.702   6.808   2.572  0.1914 -0.0601 -0.9799
  108SAPE   C2711127   2.525   6.699   2.640 -0.0560 -0.4848 -0.5000
  108SAPE   H7R11128   2.561   6.602   2.600 -0.0409 -0.9586  0.6379
  108SAPE   H7S11129   2.416   6.708   2.617 -0.5029  1.9018  2.0464
  108SAPE   C2811130   2.564   6.707   2.786  0.9647 -0.7435  0.2626
  108SAPE   H8R11131   2.670   6.690   2.808  0.6717 -1.2268  1.3354
  108SAPE   C2911132   2.490   6.760   2.888 -0.3633  0.6938  0.1459
  108SAPE   H9R11133   2.536   6.734   2.984 -0.3102 -1.2094 -0.3511
  108SAPE  C21011134   2.350   6.829   2.889  0.5402 -0.2293  0.2538
  108SAPE  H10R11135   2.337   6.901   2.806  2.3266  1.1727  1.1235
  108SAPE  H10S11136   2.351   6.890   2.982  0.0576  2.0141 -1.1395
  108SAPE  C21111137   2.235   6.730   2.881 -0.2386 -0.0743 -0.2697
  108SAPE  H11R11138   2.216   6.691   2.780 -0.1830  3.3014 -1.7151
  108SAPE  C21211139   2.133   6.710   2.971 -0.8078 -0.8890  0.0359
  108SAPE  H12R11140   2.051   6.644   2.936 -0.9348 -0.5273 -0.3546
  108SAPE  C21311141   2.123   6.763   3.111  0.0394 -0.8431 -0.0239
  108SAPE  H13R11142   2.080   6.865   3.108  1.6080 -0.1309  0.8600
  108SAPE  H13S11143   2.223   6.771   3.159  0.1231  0.0146 -0.3184
  108SAPE  C21411144   2.045   6.677   3.209 -0.5249  0.9320  0.4974
  108SAPE  H14R11145   1.975   6.608   3.160  2.4928 -1.5354 -0.7064
  108SAPE  C21511146   2.056   6.663   3.341 -0.0866  0.1813 -0.3746
  108SAPE  H15R11147   1.974   6.608   3.390  0.3457 -1.8728 -1.8396
  108SAPE  C21611148   2.157   6.736   3.430  0.6805  0.0972  0.4586
  108SAPE  H16R11149   2.102   6.768   3.520  0.3805  0.5908  0.1071
  108SAPE  H16S11150   2.188   6.833   3.386 -0.2994  0.1946 -0.0465
  108SAPE  C21711151   2.279   6.657   3.483 -0.1240 -0.0835  0.7427
  108SAPE  H17R11152   2.357   6.684   3.409 -1.2477 -0.9426 -0.8080
  108SAPE  H17S11153   2.268   6.546   3.479 -0.1929 -0.0355 -0.9461
  108SAPE  C21811154   2.334   6.702   3.615 -0.1028  0.0824  0.5321
  108SAPE  H18R11155   2.266   6.695   3.702  1.1106 -0.7075  1.4594
  108SAPE  H18S11156   2.354   6.811   3.610 -1.4338  0.3133 -0.0469
  108SAPE  C21911157   2.470   6.639   3.657 -0.3699  0.2847  0.5014
  108SAPE  H19R11158   2.553   6.666   3.588  1.5212  1.1542  2.9988
  108SAPE  H19S11159   2.458   6.529   3.642 -0.1880  0.1940  1.0219
  108SAPE  C22011160   2.517   6.668   3.801  0.0057  0.0036  0.3352
  108SAPE  H20R11161   2.596   6.600   3.838  0.4782  0.4302  0.1220
  108SAPE  H20S11162   2.427   6.661   3.867 -1.1563  5.0123 -0.2648
  108SAPE  H20T11163   2.549   6.773   3.821  0.4235  0.1519 -1.0109
  108SAPE   C3311164   3.134   6.751   2.467  0.9948  0.4769  0.6402
  108SAPE   H3X11165   3.224   6.815   2.459  2.4579 -1.4162  1.3473
  108SAPE   H3Y11166   3.154   6.660   2.407 -0.0361  0.3379  0.4787
  108SAPE   C3411167   3.107   6.707   2.608  0.0060  0.2732  0.2781
  108SAPE   H4X11168   3.190   6.636   2.628 -1.3318 -1.3620  0.2480
  108SAPE   H4Y11169   3.007   6.659   2.607  0.6536 -1.1838 -1.3623
  108SAPE   C3511170   3.118   6.815   2.713 -0.2685  0.2972 -0.0376
  108SAPE   H5X11171   3.225   6.848   2.715 -0.0090 -0.3717 -1.7894
  108SAPE   H5Y11172   3.057   6.904   2.687 -0.9015  0.0385  0.5473
  108SAPE   C3611173   3.076   6.771   2.854 -0.4525  0.0953 -0.0566
  108SAPE   H6X11174   3.144   6.684   2.866 -0.1401  0.6521  2.8770
  108SAPE   H6Y11175   2.972   6.732   2.852 -0.2799 -0.3506 -1.7847
  108SAPE   C3711176   3.117   6.860   2.969  0.0311 -0.5184  0.3659
  108SAPE   H7X11177   3.060   6.953   2.946  1.4775  0.5558  0.9429
  108SAPE   H7Y11178   3.224   6.890   2.965 -0.9872  3.6286 -1.5494
  108SAPE   C3811179   3.084   6.794   3.113  0.1491 -0.5462  0.0442
  108SAPE   H8X11180   3.125   6.693   3.133  0.0390 -0.3152  1.5505
  108SAPE   H8Y11181   2.974   6.780   3.121  0.4711 -2.5477  2.6778
  108SAPE   C3911182   3.136   6.886   3.217 -0.1178 -0.2842  0.3363
  108SAPE   H9X11183   3.111   6.993   3.201 -0.1281  0.1529  2.8212
  108SAPE   H9Y11184   3.247   6.885   3.211 -0.1241 -1.7675 -0.1475
  108SAPE  C31011185   3.099   6.830   3.361 -0.1500  0.7231 -0.2229
  108SAPE  H10X11186   3.120   6.721   3.365 -1.1998  0.4868 -0.6078
  108SAPE  H10Y11187   2.988   6.831   3.370 -0.4181 -0.9053 -2.4999
  108SAPE  C31111188   3.181   6.886   3.479 -0.0334  0.0006  0.3319
  108SAPE  H11X11189   3.171   6.997   3.486  1.2404  0.1822 -0.3916
  108SAPE  H11Y11190   3.291   6.873   3.470  0.0367 -0.0349  1.1344
  108SAPE  C31211191   3.141   6.822   3.620 -0.4432  0.1700  0.6391
  108SAPE  H12X11192   3.166   6.714   3.608  1.6508  0.4264  2.1256
  108SAPE  H12Y11193   3.034   6.839   3.642 -0.7189 -0.9120  0.2001
  108SAPE  C31311194   3.226   6.868   3.736  0.5866 -0.9774 -0.5821
  108SAPE  H13X11195   3.190   6.972   3.750  1.5824 -0.7785  0.6837
  108SAPE  H13Y11196   3.336   6.869   3.723  0.5775  0.2765 -0.6526
  108SAPE  C31411197   3.195   6.797   3.870 -0.6481 -0.3485 -0.0520
  108SAPE  H14X11198   3.196   6.686   3.876 -2.8570 -0.3829  0.6315
  108SAPE  H14Y11199   3.090   6.817   3.900 -0.8449  0.9618 -1.5216
  108SAPE  C31511200   3.304   6.839   3.977 -0.4490 -0.0627 -0.2378
  108SAPE  H15X11201   3.400   6.808   3.930  0.2282  2.5099 -0.6903
  108SAPE  H15Y11202   3.288   6.783   4.072 -0.0728 -0.2671 -0.2926
  108SAPE  C31611203   3.306   6.988   3.996 -0.1821  0.0162  0.2217
  108SAPE  H16X11204   3.199   7.018   3.997  0.3602  2.4971 -2.3146
  108SAPE  H16Y11205   3.359   7.039   3.912 -1.1451  0.7771  0.0651
  108SAPE  C31711206   3.371   7.039   4.125 -0.7963  0.3245  0.0334
  108SAPE  H17X11207   3.476   7.001   4.132  0.4096  3.4607  0.9314
  108SAPE  H17Y11208   3.313   6.994   4.208 -0.2259 -2.1893 -0.8279
  108SAPE  C31811209   3.376   7.192   4.120 -0.3953 -0.0470 -0.4728
  108SAPE  H18X11210   3.430   7.225   4.029 -1.4086  1.3467 -0.6005
  108SAPE  H18Y11211   3.421   7.228   4.215 -0.2272 -1.7445  0.1160
  108SAPE  H18Z11212   3.267   7.214   4.119 -0.3504  0.4760  1.3292
  109SAPE     N11213   2.349   3.954   1.956 -0.7177  0.6267 -0.1971
  109SAPE   HN111214   2.375   3.968   1.856 -1.3678 -0.2852 -0.5130
  109SAPE   HN211215   2.310   4.039   2.001 -2.5835 -0.3202  0.0841
  109SAPE   HN311216   2.431   3.933   2.016 -0.8916  1.3178  0.2992
  109SAPE   C1211217   2.259   3.836   1.957 -0.0168  0.0929 -0.3143
  109SAPE  H12A11218   2.295   3.754   1.890  1.3446  0.5907 -0.2225
  109SAPE  H12B11219   2.165   3.882   1.920  0.1864 -0.6474 -1.8297
  109SAPE   C1111220   2.246   3.782   2.099  1.1524  0.6813  0.0604
  109SAPE  H11A11221   2.164   3.708   2.109 -1.5203  3.2831 -1.0702
  109SAPE  H11B11222   2.198   3.858   2.163 -0.4024  0.3406 -0.6686
  109SAPE     P11223   2.456   3.609   2.094 -0.0870 -0.1512 -0.3201
  109SAPE   O1311224   2.381   3.484   2.069 -0.2183 -0.1137  0.8593
  109SAPE   O1411225   2.541   3.651   1.983 -0.0325 -0.3010 -0.1914
  109SAPE   O1211226   2.366   3.724   2.148  0.2840 -0.1877  0.2401
  109SAPE   O1111227   2.551   3.586   2.218  0.5354 -0.2675  0.3993
  109SAPE    C111228   2.559   3.672   2.325  0.0299 -1.3898  0.6394
  109SAPE    HA11229   2.635   3.749   2.298 -1.2349 -0.5912 -0.8018
  109SAPE    HB11230   2.468   3.731   2.349  0.4337 -0.9393  1.0809
  109SAPE    C211231   2.583   3.591   2.455 -0.0681  0.1382 -0.0146
  109SAPE    HS11232   2.597   3.653   2.547  1.5535  0.2231 -0.2796
  109SAPE   O2111233   2.695   3.507   2.442  0.0552 -0.3341  0.3889
  109SAPE   C2111234   2.813   3.579   2.426  0.5886  0.7973 -0.7693
  109SAPE   O2211235   2.824   3.700   2.421  0.5200 -0.6385 -0.1080
  109SAPE   C2211236   2.932   3.480   2.430  0.1051  0.0191 -0.3073
  109SAPE   H2R11237   2.898   3.376   2.447  1.0162 -0.6087 -2.0541
  109SAPE   H2S11238   2.983   3.487   2.331 -2.8978  2.0668 -1.8870
  109SAPE    C311239   2.458   3.514   2.486  0.0895  0.4774 -0.3450
  109SAPE    HX11240   2.431   3.434   2.415  0.1981 -0.8283  1.0362
  109SAPE    HY11241   2.378   3.591   2.479  0.9000  1.3374 -0.3815
  109SAPE   O3111242   2.463   3.440   2.618  0.3771 -0.2818 -0.2978
  109SAPE   C3111243   2.404   3.502   2.722 -0.0503  0.1148  0.0034
  109SAPE   O3211244   2.351   3.614   2.716 -0.3423 -0.1348 -0.3175
  109SAPE   C3211245   2.374   3.397   2.832 -0.2731 -0.5812 -0.1703
  109SAPE   H2X11246   2.301   3.323   2.793 -0.6724 -0.4935  0.4076
  109SAPE   H2Y11247   2.337   3.455   2.919  2.0189  2.0551 -0.8049
  109SAPE   C2311248   3.034   3.523   2.542  0.0395  0.7755  0.1986
  109SAPE   H3R11249   3.047   3.633   2.552  0.9057  0.7164 -0.2477
  109SAPE   H3S11250   3.127   3.466   2.521  0.5009  1.1686  1.0908
  109SAPE   C2411251   2.996   3.471   2.681  0.4106  0.5009 -0.7177
  109SAPE   H4R11252   3.078   3.496   2.752  1.9907 -2.0509 -1.4818
  109SAPE   H4S11253   2.999   3.360   2.684  0.5674  0.4872 -1.3234
  109SAPE   C2511254   2.869   3.529   2.721 -0.4762 -0.7439 -0.3652
  109SAPE   H5R11255   2.776   3.478   2.694 -0.1401 -1.9912  0.7223
  109SAPE   C2611256   2.864   3.631   2.808  0.2487  0.1868  0.4653
  109SAPE   H6R11257   2.767   3.676   2.829 -0.5031 -0.4347 -1.3970
  109SAPE   C2711258   2.975   3.717   2.860 -0.0083 -0.1452 -0.0557
  109SAPE   H7R11259   2.961   3.818   2.816  1.9387  0.5834  0.9041
  109SAPE   H7S11260   3.076   3.694   2.820 -0.4521 -0.2809 -1.1151
  109SAPE   C2811261   2.979   3.731   3.008 -0.5788 -0.1507 -0.1091
  109SAPE   H8R11262   2.940   3.830   3.038  3.6393  2.3029 -1.8361
  109SAPE   C2911263   3.008   3.638   3.099  1.0623  0.5445 -0.5526
  109SAPE   H9R11264   3.019   3.680   3.200 -0.8701  0.8102 -0.4237
  109SAPE  C21011265   3.085   3.511   3.071 -0.0281  0.3438  0.9292
  109SAPE  H10R11266   3.174   3.516   3.136  0.9087 -1.8125 -0.0911
  109SAPE  H10S11267   3.131   3.515   2.970  0.5688  2.8449  1.2492
  109SAPE  C21111268   3.014   3.386   3.102 -0.4760  0.6045 -0.4115
  109SAPE  H11R11269   2.961   3.341   3.017 -0.2725 -1.5270  0.5164
  109SAPE  C21211270   3.008   3.325   3.224  0.8391  0.2353  0.2860
  109SAPE  H12R11271   2.953   3.230   3.227 -0.8161  1.1797  0.6332
  109SAPE  C21311272   3.055   3.379   3.356  1.2008  0.0205 -0.0804
  109SAPE  H13R11273   3.089   3.484   3.349  0.7932  0.0510 -2.0194
  109SAPE  H13S11274   3.139   3.322   3.400  2.0612  1.3000 -0.0170
  109SAPE  C21411275   2.946   3.382   3.463  0.2049  0.4614  1.2986
  109SAPE  H14R11276   2.873   3.464   3.461  1.9164  2.0328 -0.2157
  109SAPE  C21511277   2.948   3.325   3.582 -0.0455  0.2374 -0.7709
  109SAPE  H15R11278   2.865   3.351   3.649  0.7183 -0.4338  0.4804
  109SAPE  C21611279   3.054   3.229   3.638 -0.4001 -0.4831 -0.9588
  109SAPE  H16R11280   3.154   3.233   3.588  2.4489  0.4216  4.0930
  109SAPE  H16S11281   3.016   3.125   3.624  0.2213 -0.5947 -1.9313
  109SAPE  C21711282   3.082   3.280   3.787 -0.1540  0.2362 -0.3745
  109SAPE  H17R11283   3.102   3.389   3.795  1.1907 -0.1291  3.4834
  109SAPE  H17S11284   3.177   3.227   3.810 -0.9045 -1.7344 -1.5240
  109SAPE  C21811285   2.979   3.229   3.890 -0.2495  0.3389 -0.0803
  109SAPE  H18R11286   2.972   3.118   3.882 -1.2226  0.4905 -1.8894
  109SAPE  H18S11287   2.880   3.274   3.865 -0.4943 -0.7494 -1.1777
  109SAPE  C21911288   3.025   3.259   4.028  0.1220 -0.2410 -0.6204
  109SAPE  H19R11289   3.057   3.365   4.033  0.4243 -0.3415 -0.4197
  109SAPE  H19S11290   3.120   3.211   4.057  0.0181 -0.7523 -1.1128
  109SAPE  C22011291   2.928   3.240   4.143  0.2520 -0.2315 -0.5001
  109SAPE  H20R11292   2.820   3.237   4.117 -0.0156  1.4812  0.2681
  109SAPE  H20S11293   2.949   3.318   4.219  2.1659  0.1734 -1.3888
  109SAPE  H20T11294   2.942   3.146   4.199 -0.1705  1.6434  3.0319
  109SAPE   C3311295   2.504   3.315   2.872 -0.2058  0.1135 -0.3286
  109SAPE   H3X11296   2.561   3.278   2.784  1.2986 -1.5569  1.2494
  109SAPE   H3Y11297   2.480   3.219   2.924 -1.5295  0.8724  0.5111
  109SAPE   C3411298   2.606   3.395   2.956 -0.3226  0.1221  0.2732
  109SAPE   H4X11299   2.627   3.490   2.903 -1.0872 -0.5120 -1.2221
  109SAPE   H4Y11300   2.695   3.329   2.955 -1.1954 -1.1038  0.2646
  109SAPE   C3511301   2.553   3.423   3.096 -0.2637 -0.4768  0.0883
  109SAPE   H5X11302   2.523   3.323   3.134 -1.3844 -0.3892 -0.4993
  109SAPE   H5Y11303   2.458   3.481   3.091 -0.1256 -0.2334  0.2795
  109SAPE   C3611304   2.651   3.488   3.200 -1.1293  0.4165 -0.0255
  109SAPE   H6X11305   2.735   3.547   3.156 -0.2593 -0.0131  1.0186
  109SAPE   H6Y11306   2.713   3.408   3.244  1.3563  1.5694 -1.1970
  109SAPE   C3711307   2.576   3.559   3.320  0.4523 -0.1571 -0.0111
  109SAPE   H7X11308   2.531   3.649   3.273  1.8143  0.2923 -0.4855
  109SAPE   H7Y11309   2.650   3.591   3.397 -0.8425 -0.0583  1.2414
  109SAPE   C3811310   2.467   3.482   3.397 -0.1069  0.2986  0.1309
  109SAPE   H8X11311   2.402   3.424   3.327  0.4326  0.0535 -0.1701
  109SAPE   H8Y11312   2.394   3.553   3.442 -1.8114 -1.6175  0.5775
  109SAPE   C3911313   2.526   3.408   3.515 -0.2952  0.2504 -0.3874
  109SAPE   H9X11314   2.581   3.483   3.576 -1.7669  1.0947 -0.0350
  109SAPE   H9Y11315   2.595   3.325   3.489 -1.1372 -0.7335  0.4605
  109SAPE  C31011316   2.412   3.358   3.602 -0.5314  0.1102 -0.0488
  109SAPE  H10X11317   2.346   3.287   3.549  1.7554 -1.3138 -1.1640
  109SAPE  H10Y11318   2.345   3.445   3.621  0.0048  0.2732  1.1727
  109SAPE  C31111319   2.463   3.287   3.728 -0.0192  0.8423 -0.1076
  109SAPE  H11X11320   2.533   3.205   3.700 -0.2482  0.0043  1.5935
  109SAPE  H11Y11321   2.385   3.241   3.794  0.2228 -0.8666 -0.9544
  109SAPE  C31211322   2.541   3.386   3.820 -0.4325 -0.1311  1.2922
  109SAPE  H12X11323   2.493   3.486   3.825 -2.7882 -0.9221 -2.1022
  109SAPE  H12Y11324   2.641   3.407   3.775 -0.6489  3.2062  2.0938
  109SAPE  C31311325   2.571   3.343   3.962  0.0709  0.1638 -0.0497
  109SAPE  H13X11326   2.656   3.402   4.002 -0.3295  0.0760  0.9489
  109SAPE  H13Y11327   2.612   3.240   3.949 -0.4800 -0.3015  1.6365
  109SAPE  C31411328   2.450   3.357   4.058 -0.3385  0.0508 -0.4597
  109SAPE  H14X11329   2.367   3.314   3.999 -1.2208 -0.2047  0.9177
  109SAPE  H14Y11330   2.417   3.462   4.075  1.8415  0.8120 -0.5649
  109SAPE  C31511331   2.464   3.288   4.190  0.5164  0.2738  0.1675
  109SAPE  H15X11332   2.538   3.343   4.252 -2.0512  2.3774  1.6127
  109SAPE  H15Y11333   2.504   3.186   4.171 -0.3289 -0.3907  1.6819
  109SAPE  C31611334   2.334   3.267   4.264  0.1119 -0.5475  0.3970
  109SAPE  H16X11335   2.328   3.185   4.338  0.3319  0.1927  1.2516
  109SAPE  H16Y11336   2.246   3.247   4.199  0.0694 -0.4696  0.4303
  109SAPE  C31711337   2.304   3.393   4.359 -0.4373 -0.7422  0.4527
  109SAPE  H17X11338   2.311   3.490   4.305 -1.1177 -1.2374 -0.5589
  109SAPE  H17Y11339   2.381   3.409   4.437  0.7076  0.8718 -0.9407
  109SAPE  C31811340   2.161   3.392   4.415 -0.0174  0.0837  0.1742
  109SAPE  H18X11341   2.124   3.486   4.462 -2.8628 -0.3745 -1.0124
  109SAPE  H18Y11342   2.165   3.316   4.496 -0.5399  0.9949  1.0953
  109SAPE  H18Z11343   2.088   3.360   4.338 -0.5051 -1.8508  1.3720
  110SAPE     N11344   6.815   6.115   2.089 -0.0243  0.3546  0.0273
  110SAPE   HN111345   6.836   6.210   2.126 -3.1821  0.5174  1.7554
  110SAPE   HN211346   6.787   6.061   2.173  0.7914 -0.3575 -0.1436
  110SAPE   HN311347   6.896   6.060   2.054 -1.5427 -1.9800 -0.0248
  110SAPE   C1211348   6.702   6.117   1.987  0.0485 -0.2344 -0.4465
  110SAPE  H12A11349   6.754   6.114   1.889 -1.2346  0.6278 -1.1938
  110SAPE  H12B11350   6.640   6.209   1.990 -0.6867 -0.7453  0.9810
  110SAPE   C1111351   6.599   6.007   2.004 -0.0095  0.1733  0.2825
  110SAPE  H11A11352   6.647   5.907   2.011 -1.9545 -0.8044  0.3742
  110SAPE  H11B11353   6.530   6.001   1.917 -2.8377 -1.0490  2.4720
  110SAPE     P11354   6.396   5.940   2.157  0.3812 -0.4122  0.0772
  110SAPE   O1311355   6.275   6.006   2.104 -0.1907  0.1633 -0.2740
  110SAPE   O1411356   6.413   5.805   2.097  0.0062  0.5200  0.2435
  110SAPE   O1211357   6.524   6.026   2.127 -0.7386  0.0734  0.5019
  110SAPE   O1111358   6.387   5.927   2.316 -0.5773  0.1786  0.3506
  110SAPE    C111359   6.468   5.833   2.374 -0.3944  0.0576  0.4723
  110SAPE    HA11360   6.445   5.726   2.356  0.6293  0.0733 -1.0610
  110SAPE    HB11361   6.570   5.854   2.338 -0.2009  1.7123  1.8486
  110SAPE    C211362   6.487   5.842   2.530  0.1266  0.5793 -0.1825
  110SAPE    HS11363   6.396   5.796   2.574  0.8025 -0.3525  0.2835
  110SAPE   O2111364   6.504   5.983   2.547 -0.1169  0.7045 -0.6800
  110SAPE   C2111365   6.404   6.046   2.599  0.1427 -0.8508 -0.6087
  110SAPE   O2211366   6.296   5.993   2.628 -0.2455  0.2318  0.3398
  110SAPE   C2211367   6.441   6.194   2.630 -0.6526  0.2974  0.4260
  110SAPE   H2R11368   6.548   6.182   2.656 -0.1479 -1.0349 -2.0037
  110SAPE   H2S11369   6.429   6.243   2.531  1.7506  1.2828  0.5565
  110SAPE    C311370   6.615   5.773   2.584  0.4940  0.2690 -1.0903
  110SAPE    HX11371   6.625   5.669   2.544  0.0638 -0.7115  1.1989
  110SAPE    HY11372   6.704   5.832   2.553  0.2360 -0.0174 -2.4389
  110SAPE   O3111373   6.614   5.764   2.730  0.0134 -0.3527 -0.0911
  110SAPE   C3111374   6.558   5.669   2.797 -0.5127  0.1587 -0.4444
  110SAPE   O3211375   6.475   5.589   2.754 -0.0880 -0.0316 -0.1940
  110SAPE   C3211376   6.599   5.680   2.949 -0.1116  0.4712  0.7254
  110SAPE   H2X11377   6.554   5.773   2.989 -0.3773  1.1223 -0.9922
  110SAPE   H2Y11378   6.710   5.677   2.945 -0.1431 -1.4822  0.0422
  110SAPE   C2311379   6.358   6.246   2.744  0.2543  0.1826 -0.7140
  110SAPE   H3R11380   6.365   6.172   2.827 -0.8855  1.6350  0.7464
  110SAPE   H3S11381   6.253   6.247   2.705 -0.0806 -0.1093  0.1457
  110SAPE   C2411382   6.400   6.385   2.791  0.4314  0.5042  0.3245
  110SAPE   H4R11383   6.322   6.424   2.859  0.0637 -0.5240  0.5126
  110SAPE   H4S11384   6.403   6.452   2.702 -3.4744  1.0062  0.3921
  110SAPE   C2511385   6.533   6.378   2.857 -0.5750  0.4080 -0.0345
  110SAPE   H5R11386   6.608   6.387   2.777  0.0649  4.5971  0.7734
  110SAPE   C2611387   6.570   6.340   2.983 -0.0405  0.1699 -0.0711
  110SAPE   H6R11388   6.678   6.343   3.005  0.4105 -2.4847 -1.5556
  110SAPE   C2711389   6.468   6.304   3.092 -0.4890  0.1349  0.0886
  110SAPE   H7R11390   6.522   6.251   3.174 -1.7746  1.5433  1.9261
  110SAPE   H7S11391   6.387   6.233   3.064 -1.7192  1.6370 -0.2946
  110SAPE   C2811392   6.408   6.425   3.160 -0.2531 -0.3744  0.3025
  110SAPE   H8R11393   6.336   6.480   3.099 -3.6396 -2.1638  2.3941
  110SAPE   C2911394   6.451   6.490   3.270  0.2357  0.4278 -0.3427
  110SAPE   H9R11395   6.394   6.581   3.296 -1.9707 -1.0109  0.0940
  110SAPE  C21011396   6.551   6.425   3.371 -0.1287 -0.0113  0.3082
  110SAPE  H10R11397   6.650   6.407   3.324 -0.4336 -0.6088 -0.1104
  110SAPE  H10S11398   6.498   6.330   3.388  0.0081 -0.8752 -3.3153
  110SAPE  C21111399   6.566   6.509   3.501 -0.1396  0.3013  0.1945
  110SAPE  H11R11400   6.645   6.585   3.493  0.2430 -0.1312 -0.2169
  110SAPE  C21211401   6.479   6.518   3.601 -0.0402  0.5995 -0.3252
  110SAPE  H12R11402   6.489   6.593   3.682 -0.3570  1.0552 -0.7024
  110SAPE  C21311403   6.351   6.437   3.622 -0.8209  0.3398  0.1962
  110SAPE  H13R11404   6.358   6.357   3.546  0.4766 -0.7292  1.4013
  110SAPE  H13S11405   6.258   6.495   3.600  0.1881  1.1889 -2.2606
  110SAPE  C21411406   6.358   6.379   3.761 -0.0626 -0.1593  0.1232
  110SAPE  H14R11407   6.435   6.301   3.770  1.0607  0.8623 -0.2606
  110SAPE  C21511408   6.274   6.408   3.863 -0.7988  0.6975  0.2011
  110SAPE  H15R11409   6.286   6.361   3.962 -2.1575 -0.9758 -0.3725
  110SAPE  C21611410   6.157   6.508   3.867 -0.0622 -0.3525  0.0722
  110SAPE  H16R11411   6.060   6.453   3.866 -0.4195  0.1695  2.1594
  110SAPE  H16S11412   6.144   6.571   3.777  1.6704 -0.9023 -0.6045
  110SAPE  C21711413   6.163   6.589   3.996 -0.2257 -0.2190 -1.3317
  110SAPE  H17R11414   6.098   6.679   3.991  0.1084  0.1346  0.3363
  110SAPE  H17S11415   6.264   6.635   3.993 -0.3556  0.1090 -0.8258
  110SAPE  C21811416   6.148   6.529   4.143 -0.0322  0.1416  0.8575
  110SAPE  H18R11417   6.231   6.459   4.162 -1.1261 -1.1310  1.0691
  110SAPE  H18S11418   6.053   6.472   4.140  1.0977 -1.7730 -0.0877
  110SAPE  C21911419   6.130   6.637   4.240  0.2472 -0.1693 -0.3607
  110SAPE  H19R11420   6.045   6.703   4.212 -0.2311 -0.0838  1.2178
  110SAPE  H19S11421   6.216   6.706   4.258 -1.3946  1.0749  3.9741
  110SAPE  C22011422   6.092   6.574   4.375 -0.3194  0.3580 -0.0297
  110SAPE  H20R11423   6.003   6.511   4.353  0.1818  0.0224 -1.2052
  110SAPE  H20S11424   6.067   6.650   4.452 -1.9384 -1.1740  1.0197
  110SAPE  H20T11425   6.180   6.516   4.411  0.0606  0.8572 -0.1513
  110SAPE   C3311426   6.537   5.564   3.031  0.0666  0.1382 -0.6773
  110SAPE   H3X11427   6.553   5.469   2.976  2.4993  2.0428 -3.6230
  110SAPE   H3Y11428   6.429   5.587   3.043  0.0771 -0.5135  0.8818
  110SAPE   C3411429   6.594   5.546   3.170 -0.1059  0.1725 -0.4154
  110SAPE   H4X11430   6.518   5.496   3.235  0.9473  0.1335  0.8152
  110SAPE   H4Y11431   6.606   5.645   3.217  0.6942 -0.7612  1.4454
  110SAPE   C3511432   6.728   5.461   3.155  0.3410 -1.0174  0.7409
  110SAPE   H5X11433   6.801   5.521   3.097 -1.0505  0.6638  0.6595
  110SAPE   H5Y11434   6.712   5.369   3.094 -0.9341  0.3055 -1.0115
  110SAPE   C3611435   6.792   5.417   3.282 -0.2581  0.2355  0.6444
  110SAPE   H6X11436   6.891   5.370   3.266 -0.2536  0.0537  1.1960
  110SAPE   H6Y11437   6.722   5.350   3.338 -0.5925  0.2399  0.2410
  110SAPE   C3711438   6.830   5.546   3.368 -0.0453 -0.0715  0.4685
  110SAPE   H7X11439   6.738   5.605   3.388 -0.3574 -0.4248  0.0915
  110SAPE   H7Y11440   6.894   5.611   3.304  1.1651 -1.3463  0.3477
  110SAPE   C3811441   6.900   5.513   3.503 -0.0385  0.5543 -0.0930
  110SAPE   H8X11442   6.844   5.426   3.544  0.8513 -1.0427 -2.0724
  110SAPE   H8Y11443   6.878   5.595   3.575  0.4198  0.8551 -0.2897
  110SAPE   C3911444   7.044   5.483   3.505 -0.4786 -0.2442  0.1363
  110SAPE   H9X11445   7.072   5.414   3.423 -4.7901 -0.3933 -1.4499
  110SAPE   H9Y11446   7.086   5.453   3.603 -1.2266  0.7270  0.7742
  110SAPE  C31011447   7.119   5.621   3.477 -0.0537  0.2645  0.4180
  110SAPE  H10X11448   7.092   5.673   3.383 -0.5310 -1.5222 -0.4613
  110SAPE  H10Y11449   7.226   5.593   3.476 -0.2793 -0.6339  0.8968
  110SAPE  C31111450   7.124   5.717   3.595 -0.4408  0.1226 -0.1171
  110SAPE  H11X11451   7.159   5.661   3.685 -0.0633 -1.4923 -1.2302
  110SAPE  H11Y11452   7.028   5.772   3.607 -0.6724 -0.2075 -0.4599
  110SAPE  C31211453   7.224   5.826   3.556  0.1253  0.1412  0.0601
  110SAPE  H12X11454   7.194   5.867   3.457  2.7778 -0.1515 -0.9236
  110SAPE  H12Y11455   7.322   5.777   3.543  0.4843  0.8091  0.2101
  110SAPE  C31311456   7.237   5.940   3.660 -0.3146 -0.6844  0.2467
  110SAPE  H13X11457   7.138   5.990   3.670  0.8920  1.8545  0.1925
  110SAPE  H13Y11458   7.309   6.007   3.608 -0.2116 -1.6467 -0.8909
  110SAPE  C31411459   7.300   5.902   3.796  0.3124 -0.3513  0.4243
  110SAPE  H14X11460   7.392   5.844   3.773 -0.7435 -1.3465 -1.5605
  110SAPE  H14Y11461   7.225   5.834   3.842 -0.2402  1.2861  2.0529
  110SAPE  C31511462   7.325   6.016   3.901  0.4302 -0.4096 -0.8451
  110SAPE  H15X11463   7.240   6.089   3.899  1.2571  1.0770  4.3737
  110SAPE  H15Y11464   7.416   6.070   3.869 -0.1853 -0.0160 -2.0062
  110SAPE  C31611465   7.329   5.980   4.057  0.1015  0.0964  0.1514
  110SAPE  H16X11466   7.410   5.904   4.064 -0.1857 -0.4346 -1.6990
  110SAPE  H16Y11467   7.233   5.942   4.097 -0.0156  0.9543  0.7002
  110SAPE  C31711468   7.376   6.095   4.143 -0.7986  0.1114  0.1685
  110SAPE  H17X11469   7.297   6.173   4.136  0.5133  1.6402  1.4367
  110SAPE  H17Y11470   7.471   6.134   4.101  0.2576 -1.8866  0.5848
  110SAPE  C31811471   7.395   6.064   4.291  0.3039  0.0613  0.2970
  110SAPE  H18X11472   7.459   6.143   4.337  0.2678  1.7088 -2.3227
  110SAPE  H18Y11473   7.442   5.963   4.290 -1.7023 -0.9130 -0.5841
  110SAPE  H18Z11474   7.298   6.053   4.345  0.9827 -2.4977  1.1739
  111SAPE     N11475   6.829   6.790   2.280  0.1933  0.1307 -0.3768
  111SAPE   HN111476   6.735   6.829   2.299  0.0713 -0.9729  1.4820
  111SAPE   HN211477   6.867   6.833   2.192 -0.8964 -0.5543 -1.1986
  111SAPE   HN311478   6.819   6.687   2.270  2.5522  0.0657 -3.5502
  111SAPE   C1211479   6.924   6.808   2.399 -0.4695 -0.0554 -0.4044
  111SAPE  H12A11480   7.027   6.789   2.360  0.0883  0.7496  0.6232
  111SAPE  H12B11481   6.912   6.731   2.478  4.4622 -1.4864 -0.7265
  111SAPE   C1111482   6.904   6.957   2.451 -0.7075  0.1334  0.5562
  111SAPE  H11A11483   6.970   6.971   2.539  0.5305  0.2457 -0.3677
  111SAPE  H11B11484   6.802   6.970   2.494 -1.2995 -0.6340 -0.5539
  111SAPE     P11485   7.008   7.184   2.372 -0.2413 -0.2861 -0.2313
  111SAPE   O1311486   7.151   7.150   2.389  0.1593 -0.0792 -0.0573
  111SAPE   O1411487   6.968   7.281   2.266 -0.7863 -0.3418  0.1900
  111SAPE   O1211488   6.926   7.053   2.349  0.1704 -0.6843  0.6225
  111SAPE   O1111489   6.953   7.231   2.511  0.4661  0.1279 -0.8449
  111SAPE    C111490   6.958   7.363   2.561  0.2599 -0.2546 -0.4843
  111SAPE    HA11491   7.048   7.421   2.532  0.5728 -0.8324 -0.6862
  111SAPE    HB11492   6.881   7.420   2.504  0.4945  3.6436  2.6824
  111SAPE    C211493   6.912   7.375   2.708  0.2905 -0.0541 -0.0420
  111SAPE    HS11494   6.871   7.477   2.724  0.3848 -0.1891  1.1359
  111SAPE   O2111495   7.029   7.348   2.795 -0.2991  0.3392  0.1043
  111SAPE   C2111496   7.115   7.457   2.804 -0.3126  0.6225  0.3718
  111SAPE   O2211497   7.100   7.567   2.756  0.0253 -0.5625  0.0166
  111SAPE   C2211498   7.238   7.427   2.891  0.0339 -0.1125 -0.3513
  111SAPE   H2R11499   7.265   7.319   2.890 -0.7719 -0.3156 -0.5669
  111SAPE   H2S11500   7.322   7.483   2.845 -1.0710  0.9210 -1.1571
  111SAPE    C311501   6.797   7.277   2.745  0.4071  0.0442  0.2719
  111SAPE    HX11502   6.838   7.175   2.726 -1.0547 -0.3402 -1.0145
  111SAPE    HY11503   6.716   7.284   2.669 -1.1391  2.3846  2.0168
  111SAPE   O3111504   6.752   7.287   2.879 -0.4430 -0.8588 -0.0611
  111SAPE   C3111505   6.645   7.360   2.902  0.8676  0.0688  0.0477
  111SAPE   O3211506   6.559   7.393   2.816 -0.4385 -0.4912 -0.5013
  111SAPE   C3211507   6.639   7.396   3.048 -0.1773  0.4041 -0.3655
  111SAPE   H2X11508   6.532   7.390   3.076  0.2578 -0.8509  1.2142
  111SAPE   H2Y11509   6.676   7.501   3.052 -2.6015  1.4980 -2.9694
  111SAPE   C2311510   7.222   7.481   3.040 -0.5398 -0.3985  0.2706
  111SAPE   H3R11511   7.188   7.587   3.038 -2.7908 -1.0912 -0.6124
  111SAPE   H3S11512   7.324   7.478   3.083 -0.5517 -1.2405  0.2497
  111SAPE   C2411513   7.129   7.392   3.126 -0.5244 -0.1071 -0.0610
  111SAPE   H4R11514   7.028   7.391   3.081 -0.1504  0.6232 -0.9546
  111SAPE   H4S11515   7.127   7.452   3.220  0.6703  3.5622 -2.1554
  111SAPE   C2511516   7.160   7.245   3.121  0.3049  0.0478  1.1752
  111SAPE   H5R11517   7.135   7.187   3.030  0.1873 -1.2642  2.0212
  111SAPE   C2611518   7.239   7.184   3.208  0.2868 -0.0833 -0.3988
  111SAPE   H6R11519   7.271   7.079   3.199  0.0615 -0.3758  1.7678
  111SAPE   C2711520   7.290   7.247   3.331  0.0738  0.1150 -0.1706
  111SAPE   H7R11521   7.285   7.358   3.330  0.6241  0.1558 -2.0872
  111SAPE   H7S11522   7.401   7.236   3.337 -0.0120 -0.9542 -0.2746
  111SAPE   C2811523   7.228   7.202   3.469 -0.3079 -0.9900 -0.0608
  111SAPE   H8R11524   7.169   7.287   3.507  2.2719  0.2650  1.4365
  111SAPE   C2911525   7.235   7.094   3.544 -0.3748 -0.1308 -0.8521
  111SAPE   H9R11526   7.173   7.075   3.633  3.8149 -2.5506  1.8986
  111SAPE  C21011527   7.304   6.964   3.502  0.0868  0.4761  0.2207
  111SAPE  H10R11528   7.280   6.944   3.395 -1.4949  1.8786  0.2809
  111SAPE  H10S11529   7.268   6.876   3.558 -1.9314 -1.8448 -4.1822
  111SAPE  C21111530   7.448   6.978   3.534 -0.5886  0.7577 -0.0436
  111SAPE  H11R11531   7.476   7.045   3.617 -0.0039 -1.2920  1.4894
  111SAPE  C21211532   7.546   6.935   3.456 -0.0279  0.3715  0.3204
  111SAPE  H12R11533   7.649   6.952   3.490 -0.3869  2.6174  0.4115
  111SAPE  C21311534   7.535   6.850   3.326 -0.0203  0.2778 -0.3742
  111SAPE  H13R11535   7.443   6.789   3.335  1.4183 -1.7008  2.0369
  111SAPE  H13S11536   7.605   6.765   3.327 -0.4123 -0.0521 -0.6291
  111SAPE  C21411537   7.537   6.925   3.194  0.7094  0.1058 -0.6838
  111SAPE  H14R11538   7.602   7.014   3.191  1.9737 -0.8040 -1.5446
  111SAPE  C21511539   7.479   6.881   3.078  0.2596 -0.1950  0.2155
  111SAPE  H15R11540   7.489   6.947   2.991  1.9109  0.2275  0.6847
  111SAPE  C21611541   7.401   6.751   3.054 -0.0072  0.0833  0.6284
  111SAPE  H16R11542   7.293   6.757   3.078  0.1297 -0.8226  1.5279
  111SAPE  H16S11543   7.448   6.675   3.120  0.7005 -1.4901 -1.5568
  111SAPE  C21711544   7.429   6.708   2.911 -0.2751 -0.5246 -0.0560
  111SAPE  H17R11545   7.411   6.599   2.899  2.3239 -1.0735  0.5966
  111SAPE  H17S11546   7.534   6.728   2.883 -1.2452 -0.9042 -4.8939
  111SAPE  C21811547   7.333   6.775   2.804 -0.9282  0.9909  0.1105
  111SAPE  H18R11548   7.334   6.882   2.835  1.4518  0.8095  0.8184
  111SAPE  H18S11549   7.233   6.730   2.826 -0.7043 -0.0368 -0.8777
  111SAPE  C21911550   7.373   6.759   2.652  0.2412 -0.5804 -0.4442
  111SAPE  H19R11551   7.375   6.649   2.637 -3.8441 -0.7914 -0.5804
  111SAPE  H19S11552   7.476   6.800   2.646  0.0048  0.0560 -0.2509
  111SAPE  C22011553   7.272   6.838   2.565 -0.1257  0.1976  0.0705
  111SAPE  H20R11554   7.270   6.944   2.599  2.2604  0.5232 -0.6458
  111SAPE  H20S11555   7.168   6.802   2.582 -0.5698  1.6931  0.7234
  111SAPE  H20T11556   7.296   6.846   2.457 -0.3789 -0.4632 -0.0344
  111SAPE   C3311557   6.720   7.297   3.136 -0.1182 -0.0841 -0.3643
  111SAPE   H3X11558   6.828   7.296   3.111 -0.0264  0.8356 -0.0551
  111SAPE   H3Y11559   6.692   7.191   3.119  0.8130 -0.4249  0.1683
  111SAPE   C3411560   6.697   7.315   3.289 -0.0307 -0.0359 -0.0915
  111SAPE   H4X11561   6.592   7.287   3.313  0.7524 -0.6576  3.0332
  111SAPE   H4Y11562   6.717   7.414   3.334 -1.3181  0.4445 -0.5284
  111SAPE   C3511563   6.790   7.221   3.368 -0.1634  0.3996  0.3017
  111SAPE   H5X11564   6.894   7.237   3.332  0.0428 -0.4527  0.4866
  111SAPE   H5Y11565   6.769   7.113   3.350 -1.9852  0.8399 -0.4405
  111SAPE   C3611566   6.786   7.229   3.519  0.2670  0.3983  0.1393
  111SAPE   H6X11567   6.837   7.321   3.555 -0.5845  0.3096  1.6590
  111SAPE   H6Y11568   6.833   7.131   3.542 -0.4131 -0.1163 -0.6028
  111SAPE   C3711569   6.652   7.220   3.591 -0.2154 -0.2373  0.6762
  111SAPE   H7X11570   6.597   7.130   3.555  0.2472 -0.0559 -0.5315
  111SAPE   H7Y11571   6.589   7.307   3.563 -0.2124 -0.6641 -0.7661
  111SAPE   C3811572   6.661   7.221   3.742 -0.1643  0.4736  0.1266
  111SAPE   H8X11573   6.746   7.289   3.764  0.4684 -0.2342 -0.1154
  111SAPE   H8Y11574   6.678   7.117   3.777 -1.9569 -0.4669 -1.6030
  111SAPE   C3911575   6.522   7.250   3.816 -0.1727  0.1093 -0.0356
  111SAPE   H9X11576   6.447   7.175   3.783 -0.5033 -0.6715  2.2759
  111SAPE   H9Y11577   6.485   7.342   3.766 -1.2306  0.4101  1.2567
  111SAPE  C31011578   6.522   7.254   3.969  0.2339 -0.1729  0.6156
  111SAPE  H10X11579   6.416   7.269   3.996  0.0008  1.7759 -1.1420
  111SAPE  H10Y11580   6.581   7.340   4.008  1.5081  0.0530 -1.5942
  111SAPE  C31111581   6.563   7.118   4.039  0.4096 -0.0367 -0.6651
  111SAPE  H11X11582   6.660   7.080   4.002  0.4811 -0.7769  0.2173
  111SAPE  H11Y11583   6.490   7.038   4.014 -0.0189  0.2133 -0.2289
  111SAPE  C31211584   6.576   7.142   4.194 -0.6117 -0.5189  0.3882
  111SAPE  H12X11585   6.577   7.045   4.249 -1.9550 -1.1479 -0.6223
  111SAPE  H12Y11586   6.479   7.190   4.219  0.7511  1.6253  1.9565
  111SAPE  C31311587   6.684   7.243   4.240  0.4699 -0.0819 -0.5651
  111SAPE  H13X11588   6.692   7.330   4.172  1.0752 -2.6978 -4.1477
  111SAPE  H13Y11589   6.780   7.188   4.244 -0.1995 -1.2807 -0.4606
  111SAPE  C31411590   6.650   7.311   4.383  0.1073 -0.2577 -0.1687
  111SAPE  H14X11591   6.743   7.357   4.423 -0.0307 -0.8995  0.9163
  111SAPE  H14Y11592   6.613   7.237   4.457 -0.7116  2.5386  2.3975
  111SAPE  C31511593   6.549   7.426   4.366  0.2134 -0.4065 -0.5626
  111SAPE  H15X11594   6.457   7.387   4.318  0.2402 -1.5943  0.2816
  111SAPE  H15Y11595   6.590   7.498   4.293 -0.5936 -1.2109 -1.8370
  111SAPE  C31611596   6.519   7.491   4.503  0.2349 -0.4477  0.2478
  111SAPE  H16X11597   6.622   7.511   4.539 -0.3696  1.4386  1.0598
  111SAPE  H16Y11598   6.473   7.421   4.575 -0.5112  0.7222  0.9424
  111SAPE  C31711599   6.438   7.623   4.485 -0.4596  0.3304  0.4826
  111SAPE  H17X11600   6.349   7.583   4.432 -1.5994  1.2910  1.6281
  111SAPE  H17Y11601   6.492   7.687   4.412  2.0379 -1.7081  0.3991
  111SAPE  C31811602   6.407   7.696   4.621 -0.4157 -0.5615  0.5570
  111SAPE  H18X11603   6.356   7.790   4.589  0.9563  0.0937  0.2006
  111SAPE  H18Y11604   6.499   7.724   4.676 -1.4400  1.8864  1.1961
  111SAPE  H18Z11605   6.337   7.626   4.672 -1.2839  0.8632  1.4034
  112SAPE     N11606   5.589   2.546   2.122 -0.9484 -0.2984  0.0453
  112SAPE   HN111607   5.583   2.636   2.069 -1.0158  0.1775  0.8345
  112SAPE   HN211608   5.683   2.522   2.159 -0.5025  1.0209 -0.1638
  112SAPE   HN311609   5.558   2.466   2.063  1.6160 -1.9687  0.8066
  112SAPE   C1211610   5.516   2.557   2.248 -0.4736 -0.5479  0.3359
  112SAPE  H12A11611   5.547   2.645   2.309 -0.3151 -0.2395 -0.1817
  112SAPE  H12B11612   5.528   2.457   2.295  1.7835 -0.1508  0.6968
  112SAPE   C1111613   5.370   2.575   2.225  1.0454  0.1551  0.8993
  112SAPE  H11A11614   5.318   2.562   2.322  0.7912 -1.3713  0.5870
  112SAPE  H11B11615   5.339   2.498   2.151 -1.0007  2.4044 -0.7273
  112SAPE     P11616   5.217   2.758   2.105 -0.4185  0.3363  0.0624
  112SAPE   O1311617   5.231   2.905   2.082  0.1774 -0.3975 -0.1097
  112SAPE   O1411618   5.211   2.679   1.979  0.7136 -0.2324 -0.0905
  112SAPE   O1211619   5.344   2.705   2.181  0.1916  0.3479 -0.3977
  112SAPE   O1111620   5.100   2.722   2.204 -0.3905 -0.2808 -0.1984
  112SAPE    C111621   5.063   2.799   2.317  0.4425 -0.1020 -0.2748
  112SAPE    HA11622   5.148   2.811   2.388 -0.2960 -0.9153  0.7660
  112SAPE    HB11623   5.029   2.901   2.288 -0.8222 -0.5657 -0.4544
  112SAPE    C211624   4.954   2.721   2.394 -0.9465 -0.5637 -0.1534
  112SAPE    HS11625   4.904   2.788   2.467  1.7942  0.8517  0.5315
  112SAPE   O2111626   5.009   2.611   2.469  0.2285  0.2531  0.0553
  112SAPE   C2111627   5.081   2.646   2.573  0.0081  0.0347 -0.2419
  112SAPE   O2211628   5.084   2.760   2.619  0.1083  0.1094  0.0513
  112SAPE   C2211629   5.168   2.534   2.620 -0.5988  0.0718  0.7915
  112SAPE   H2R11630   5.121   2.438   2.589 -0.2468  0.9524 -2.9665
  112SAPE   H2S11631   5.266   2.555   2.573  0.4838 -0.1161  2.8725
  112SAPE    C311632   4.842   2.665   2.308 -0.7677 -0.1604 -0.1141
  112SAPE    HX11633   4.891   2.604   2.229 -1.5168 -0.5329 -0.3081
  112SAPE    HY11634   4.793   2.748   2.252  1.5450  1.0931 -0.3995
  112SAPE   O3111635   4.739   2.593   2.373 -0.1614  0.5548  0.0630
  112SAPE   C3111636   4.649   2.664   2.440 -0.0806 -0.9260 -0.4466
  112SAPE   O3211637   4.639   2.787   2.437 -0.7044 -0.7728  0.2374
  112SAPE   C3211638   4.551   2.574   2.517 -0.0670 -0.5031 -0.3045
  112SAPE   H2X11639   4.608   2.490   2.563 -0.1721 -0.0062  0.7726
  112SAPE   H2Y11640   4.477   2.530   2.447  0.5345  1.0571 -1.9928
  112SAPE   C2311641   5.193   2.555   2.771  0.3908  0.1577 -0.4473
  112SAPE   H3R11642   5.187   2.661   2.803  0.4125  0.1458 -0.4026
  112SAPE   H3S11643   5.295   2.514   2.789  0.6372  0.8819 -0.1275
  112SAPE   C2411644   5.098   2.468   2.854  0.2235  0.8690  0.0204
  112SAPE   H4R11645   5.151   2.429   2.944  0.6360 -1.9635 -1.3361
  112SAPE   H4S11646   5.062   2.376   2.803  0.0033 -0.0012  1.6740
  112SAPE   C2511647   4.972   2.544   2.894  0.2739 -0.3431  0.2996
  112SAPE   H5R11648   4.886   2.537   2.825  0.8513  3.8872 -1.1351
  112SAPE   C2611649   4.947   2.594   3.014  0.7032 -0.0922  0.3767
  112SAPE   H6R11650   4.851   2.647   3.026  0.2753 -0.7402 -0.1116
  112SAPE   C2711651   5.046   2.610   3.124 -0.0695 -0.0082 -0.2153
  112SAPE   H7R11652   5.145   2.638   3.083  0.3204  0.4347  0.9936
  112SAPE   H7S11653   5.064   2.518   3.183  0.7117  0.0768 -0.3147
  112SAPE   C2811654   5.007   2.718   3.227 -0.0934  0.2794  0.1363
  112SAPE   H8R11655   4.981   2.815   3.182  0.7464  0.5704  0.2682
  112SAPE   C2911656   4.972   2.705   3.361  0.2265 -0.0143 -0.1029
  112SAPE   H9R11657   4.939   2.796   3.414  0.8164 -0.3214  0.8045
  112SAPE  C21011658   4.977   2.593   3.459  0.3082  0.1164 -0.2613
  112SAPE  H10R11659   5.005   2.501   3.404 -0.7242 -1.0905  1.1709
  112SAPE  H10S11660   4.874   2.584   3.499  0.0276  1.7524 -0.5173
  112SAPE  C21111661   5.082   2.617   3.564  0.0373 -0.1281  0.1104
  112SAPE  H11R11662   5.187   2.623   3.531  0.3545 -0.9800  0.9211
  112SAPE  C21211663   5.065   2.633   3.698  0.3130  0.6521  0.2340
  112SAPE  H12R11664   5.157   2.661   3.751  0.0601  1.8265  0.0782
  112SAPE  C21311665   4.934   2.643   3.771 -0.1965  0.3938 -0.1495
  112SAPE  H13R11666   4.850   2.656   3.701 -1.0064 -0.9864  0.5157
  112SAPE  H13S11667   4.945   2.734   3.834  1.3019  1.6874 -2.1810
  112SAPE  C21411668   4.903   2.510   3.847 -0.1122 -0.2922  0.0922
  112SAPE  H14R11669   4.912   2.418   3.788  0.0986  0.5515 -1.2452
  112SAPE  C21511670   4.856   2.493   3.973  0.5252  0.0460 -0.4061
  112SAPE  H15R11671   4.824   2.399   4.021 -0.1905  0.0975 -0.7676
  112SAPE  C21611672   4.823   2.607   4.059 -0.1961  0.3364 -0.5923
  112SAPE  H16R11673   4.890   2.695   4.047 -0.6945  0.6408 -1.2079
  112SAPE  H16S11674   4.847   2.590   4.166 -0.2622  0.1809 -0.6029
  112SAPE  C21711675   4.675   2.660   4.071  0.4584  0.0735  0.0177
  112SAPE  H17R11676   4.639   2.693   3.971  2.5446  1.6816 -0.2656
  112SAPE  H17S11677   4.664   2.733   4.154 -2.2265 -1.3119  1.0066
  112SAPE  C21811678   4.590   2.544   4.121  0.2411 -0.9230 -0.2600
  112SAPE  H18R11679   4.623   2.502   4.218  0.6882  2.4809  1.1814
  112SAPE  H18S11680   4.617   2.465   4.048  0.7905  1.3265 -2.6362
  112SAPE  C21911681   4.438   2.567   4.114 -0.0111  0.0515  0.8448
  112SAPE  H19R11682   4.396   2.465   4.126  2.2998 -0.9976  0.5802
  112SAPE  H19S11683   4.413   2.589   4.008 -2.0178 -0.2263  1.2282
  112SAPE  C22011684   4.367   2.669   4.200  0.3054 -0.0838  0.3960
  112SAPE  H20R11685   4.332   2.644   4.302 -0.2499 -1.5485 -0.1286
  112SAPE  H20S11686   4.284   2.715   4.142 -1.2050 -2.7943  0.2325
  112SAPE  H20T11687   4.431   2.757   4.223 -0.9642  0.2816  2.7885
  112SAPE   C3311688   4.484   2.646   2.629  0.5503 -0.0727 -0.6392
  112SAPE   H3X11689   4.391   2.596   2.664  0.9429 -0.2091  0.2606
  112SAPE   H3Y11690   4.435   2.739   2.594  0.0101  0.5736  1.6615
  112SAPE   C3411691   4.568   2.695   2.753  0.2824 -0.0725  0.5860
  112SAPE   H4X11692   4.613   2.791   2.720 -1.9585  0.1769 -2.0256
  112SAPE   H4Y11693   4.651   2.624   2.777  2.3978  1.5492 -1.4569
  112SAPE   C3511694   4.482   2.722   2.883 -0.3127 -0.1980  0.5328
  112SAPE   H5X11695   4.409   2.638   2.889  0.1504 -0.5145  2.2741
  112SAPE   H5Y11696   4.435   2.822   2.876  0.0926 -0.1063 -1.9703
  112SAPE   C3611697   4.553   2.703   3.023 -0.2567 -0.2655  0.6415
  112SAPE   H6X11698   4.632   2.781   3.032 -2.0770  1.7003  0.4121
  112SAPE   H6Y11699   4.594   2.600   3.026 -1.1525 -0.6178  1.4639
  112SAPE   C3711700   4.450   2.729   3.133 -0.4595  0.0443  0.5821
  112SAPE   H7X11701   4.356   2.679   3.100 -0.6320  0.2377  0.7796
  112SAPE   H7Y11702   4.447   2.840   3.130  0.5394  0.0797 -1.7225
  112SAPE   C3811703   4.510   2.675   3.265 -0.1551  0.4635  0.3846
  112SAPE   H8X11704   4.617   2.705   3.263  0.2077 -0.8035 -0.7301
  112SAPE   H8Y11705   4.511   2.564   3.261 -2.4824  0.4048  0.0181
  112SAPE   C3911706   4.445   2.731   3.394 -0.6289 -0.3217 -0.0098
  112SAPE   H9X11707   4.339   2.698   3.404  0.1436 -2.4427  2.0949
  112SAPE   H9Y11708   4.456   2.841   3.382  2.5695 -0.6438 -0.9434
  112SAPE  C31011709   4.527   2.690   3.517  0.7167 -0.1659  0.6876
  112SAPE  H10X11710   4.599   2.774   3.533  0.3130 -0.0303  1.8134
  112SAPE  H10Y11711   4.578   2.593   3.498 -0.4501 -0.6345 -0.1536
  112SAPE  C31111712   4.437   2.674   3.641  0.8415 -0.0597 -0.4160
  112SAPE  H11X11713   4.499   2.641   3.727  1.1298 -2.6068 -1.4939
  112SAPE  H11Y11714   4.376   2.582   3.629  0.4306  0.3842 -1.9788
  112SAPE  C31211715   4.359   2.804   3.667  0.1611 -0.0382 -0.4935
  112SAPE  H12X11716   4.276   2.825   3.597 -0.1361  0.2240 -0.0685
  112SAPE  H12Y11717   4.426   2.893   3.664  0.8140 -0.5065 -3.8352
  112SAPE  C31311718   4.293   2.806   3.812 -0.7110  0.1744 -0.2130
  112SAPE  H13X11719   4.351   2.735   3.875 -0.1869 -0.1491 -1.0488
  112SAPE  H13Y11720   4.195   2.756   3.799 -1.0093 -0.2423  2.8116
  112SAPE  C31411721   4.261   2.944   3.871 -0.7314 -0.0670 -0.4611
  112SAPE  H14X11722   4.171   2.933   3.935  0.4764 -0.5142  1.1981
  112SAPE  H14Y11723   4.234   3.012   3.787 -0.4356 -2.2753 -2.4326
  112SAPE  C31511724   4.382   3.005   3.941 -0.0179  0.2662  0.2031
  112SAPE  H15X11725   4.446   3.054   3.865 -2.2192  1.6818 -0.8362
  112SAPE  H15Y11726   4.430   2.920   3.994 -0.8078 -0.5841 -0.4028
  112SAPE  C31611727   4.339   3.109   4.044 -0.7898 -0.2787 -0.2056
  112SAPE  H16X11728   4.295   3.194   3.988 -2.1204 -1.4141 -0.9399
  112SAPE  H16Y11729   4.440   3.138   4.080 -0.8972  0.8774 -0.7899
  112SAPE  C31711730   4.257   3.064   4.161  0.3290  0.2641  0.2092
  112SAPE  H17X11731   4.280   2.964   4.202  0.8358  0.1609 -0.3105
  112SAPE  H17Y11732   4.151   3.051   4.129 -0.3907 -0.6575  2.7709
  112SAPE  C31811733   4.251   3.176   4.269  0.1583 -0.1860  0.0172
  112SAPE  H18X11734   4.350   3.213   4.303 -1.0933  1.8716  1.6792
  112SAPE  H18Y11735   4.187   3.146   4.354 -0.0584  1.2801  0.4050
  112SAPE  H18Z11736   4.199   3.260   4.218  0.1488 -0.8820 -1.1677
  113SAPE     N11737   3.117   0.835   1.669 -0.9605  0.4259  0.4943
  113SAPE   HN111738   3.068   0.902   1.607  1.2178  1.3977 -0.2727
  113SAPE   HN211739   3.079   0.859   1.763 -0.4464 -0.1958  0.8662
  113SAPE   HN311740   3.217   0.864   1.661 -1.4365  1.5499 -2.3040
  113SAPE   C1211741   3.098   0.686   1.620 -0.1736 -0.1430  0.3125
  113SAPE  H12A11742   3.121   0.691   1.511 -2.1998 -0.7957 -0.1871
  113SAPE  H12B11743   2.992   0.658   1.640  0.8707 -3.0311  2.5005
  113SAPE   C1111744   3.199   0.584   1.682  0.4803 -0.0943  0.3691
  113SAPE  H11A11745   3.175   0.540   1.781 -0.4463 -1.4803 -0.4396
  113SAPE  H11B11746   3.297   0.635   1.697 -0.2159  2.1405 -1.9799
  113SAPE     P11747   3.321   0.470   1.478 -0.2572 -0.1078 -0.0682
  113SAPE   O1311748   3.260   0.385   1.373  0.3994  0.2647  1.1562
  113SAPE   O1411749   3.347   0.612   1.440  0.2879  0.1204 -0.0145
  113SAPE   O1211750   3.219   0.471   1.596  0.5362  0.0843  0.1070
  113SAPE   O1111751   3.456   0.417   1.535  0.1997 -0.0162  0.0460
  113SAPE    C111752   3.549   0.483   1.620 -0.0161  0.6122 -0.8436
  113SAPE    HA11753   3.649   0.493   1.573  0.6844  3.8897  1.0500
  113SAPE    HB11754   3.530   0.591   1.639  0.1851  0.5843 -0.4843
  113SAPE    C211755   3.569   0.402   1.752  0.6585 -0.1173 -0.1629
  113SAPE    HS11756   3.608   0.304   1.717  0.2520  0.6690 -3.0826
  113SAPE   O2111757   3.439   0.393   1.822 -0.4901 -0.1781 -0.3969
  113SAPE   C2111758   3.399   0.282   1.882  0.0272 -0.2703 -0.2919
  113SAPE   O2211759   3.447   0.175   1.860 -0.6308  0.3368 -0.0486
  113SAPE   C2211760   3.273   0.309   1.968 -0.4332 -0.2398 -0.4080
  113SAPE   H2R11761   3.242   0.416   1.970 -0.8566 -0.3694  0.3538
  113SAPE   H2S11762   3.190   0.265   1.909 -1.8198 -0.1982  1.4033
  113SAPE    C311763   3.667   0.480   1.848  0.2219  0.3201 -0.2739
  113SAPE    HX11764   3.619   0.580   1.856 -0.3764 -0.0466  1.0092
  113SAPE    HY11765   3.766   0.485   1.797  0.2442 -0.5856 -0.3325
  113SAPE   O3111766   3.673   0.419   1.972  0.5681 -0.2507 -0.5692
  113SAPE   C3111767   3.782   0.442   2.043 -0.6195  0.7951  0.8714
  113SAPE   O3211768   3.879   0.503   2.000  0.8562 -0.6330  0.1682
  113SAPE   C3211769   3.763   0.388   2.190  0.5663  0.3340 -0.5668
  113SAPE   H2X11770   3.668   0.440   2.214  1.8110  2.7496 -0.6354
  113SAPE   H2Y11771   3.838   0.435   2.257 -0.5426 -1.3075  1.9872
  113SAPE   C2311772   3.276   0.248   2.113  0.3709 -0.3495 -0.3113
  113SAPE   H3R11773   3.272   0.137   2.107 -1.2331 -0.3277 -0.0694
  113SAPE   H3S11774   3.179   0.272   2.161  0.0759  0.0879 -1.1177
  113SAPE   C2411775   3.386   0.303   2.206 -0.1987 -0.3042  0.2438
  113SAPE   H4R11776   3.485   0.286   2.158 -0.1071  3.5413 -1.2906
  113SAPE   H4S11777   3.379   0.244   2.300  1.5000 -0.0732  0.5550
  113SAPE   C2511778   3.363   0.452   2.229  0.1620  0.4582 -0.3088
  113SAPE   H5R11779   3.397   0.526   2.154  0.6043  1.2004  0.6012
  113SAPE   C2611780   3.316   0.498   2.351 -0.2956 -0.7936  0.3840
  113SAPE   H6R11781   3.299   0.606   2.355 -2.5702 -1.0448 -0.5594
  113SAPE   C2711782   3.256   0.428   2.474  0.2741 -0.3924 -0.5184
  113SAPE   H7R11783   3.218   0.328   2.444  2.3049 -0.8817 -1.6824
  113SAPE   H7S11784   3.164   0.481   2.504  0.7216 -1.0237  2.2557
  113SAPE   C2811785   3.348   0.421   2.593 -0.0136 -0.1072 -0.3599
  113SAPE   H8R11786   3.450   0.450   2.565  0.1286 -0.3290 -0.0742
  113SAPE   C2911787   3.321   0.377   2.716 -0.4325  0.2449 -0.0972
  113SAPE   H9R11788   3.401   0.375   2.793  0.3825 -0.3940 -0.9417
  113SAPE  C21011789   3.191   0.322   2.765  0.8555 -0.2759  0.1988
  113SAPE  H10R11790   3.198   0.287   2.870 -2.6022  2.0789  1.4044
  113SAPE  H10S11791   3.150   0.240   2.703 -1.2617  0.8582 -0.0272
  113SAPE  C21111792   3.085   0.427   2.770  0.5280 -1.0413  0.1924
  113SAPE  H11R11793   3.001   0.429   2.699 -0.9001  1.6856  1.7788
  113SAPE  C21211794   3.073   0.517   2.870 -0.4359 -0.0874  0.2278
  113SAPE  H12R11795   2.988   0.586   2.877  0.9291  1.5232  1.9508
  113SAPE  C21311796   3.157   0.531   2.994 -0.8048  0.7298 -0.2402
  113SAPE  H13R11797   3.186   0.638   3.009 -0.2786  0.3937  1.3535
  113SAPE  H13S11798   3.252   0.476   2.979 -0.9051  0.3840  0.3547
  113SAPE  C21411799   3.092   0.455   3.113 -0.0297  0.0891  0.1375
  113SAPE  H14R11800   3.030   0.370   3.082 -1.6711  1.8334 -1.6132
  113SAPE  C21511801   3.103   0.471   3.246  0.2362 -0.0418  0.4150
  113SAPE  H15R11802   3.050   0.407   3.320 -0.4113  1.8561  1.6725
  113SAPE  C21611803   3.190   0.583   3.291 -0.1469  0.2876  0.0643
  113SAPE  H16R11804   3.125   0.672   3.301 -1.1316 -0.4735  0.6138
  113SAPE  H16S11805   3.270   0.619   3.223 -1.8859  1.9423 -1.2105
  113SAPE  C21711806   3.251   0.551   3.426 -0.4655 -0.5069 -0.4104
  113SAPE  H17R11807   3.302   0.643   3.461 -1.4009  0.3437 -1.2127
  113SAPE  H17S11808   3.319   0.463   3.426 -0.3361 -0.4373  1.4356
  113SAPE  C21811809   3.165   0.511   3.551 -0.5015  0.6473  0.4844
  113SAPE  H18R11810   3.129   0.407   3.542 -0.2682  0.6411 -0.5077
  113SAPE  H18S11811   3.077   0.579   3.552  0.0250  1.3388  1.2413
  113SAPE  C21911812   3.237   0.529   3.680 -0.3074  0.1276  0.0580
  113SAPE  H19R11813   3.284   0.630   3.676 -1.2889  0.5728 -0.5500
  113SAPE  H19S11814   3.317   0.456   3.704  0.2733  0.0896 -1.7763
  113SAPE  C22011815   3.140   0.548   3.799  0.1332  0.4558  0.1341
  113SAPE  H20R11816   3.194   0.566   3.894  1.4412  0.9753 -0.6744
  113SAPE  H20S11817   3.084   0.454   3.821 -0.1142  0.2096 -1.4010
  113SAPE  H20T11818   3.071   0.633   3.780 -0.3821 -0.0687 -0.3951
  113SAPE   C3311819   3.780   0.234   2.197  0.4588 -0.4207  0.2153
  113SAPE   H3X11820   3.867   0.198   2.139  0.3722  1.5360 -1.2227
  113SAPE   H3Y11821   3.686   0.182   2.168 -0.0405 -0.4869  1.8543
  113SAPE   C3411822   3.813   0.189   2.340  0.7056  0.4352 -0.6492
  113SAPE   H4X11823   3.907   0.243   2.366  0.1569  0.8006  0.6588
  113SAPE   H4Y11824   3.846   0.083   2.338  4.2113  1.3629  0.5544
  113SAPE   C3511825   3.708   0.214   2.439 -0.5348  0.2493  0.3856
  113SAPE   H5X11826   3.613   0.175   2.397 -0.9986  1.0483  0.6706
  113SAPE   H5Y11827   3.702   0.324   2.450 -2.4874  0.2312 -0.1034
  113SAPE   C3611828   3.757   0.163   2.578  0.3395  0.1812 -0.3031
  113SAPE   H6X11829   3.847   0.226   2.598  0.3206  0.5445 -1.2984
  113SAPE   H6Y11830   3.790   0.057   2.578  3.1022  0.9280 -1.8028
  113SAPE   C3711831   3.642   0.181   2.682  0.2122 -0.5109 -0.3458
  113SAPE   H7X11832   3.557   0.117   2.651 -0.0996  0.2684 -1.1763
  113SAPE   H7Y11833   3.607   0.287   2.681 -0.9239 -0.8716  0.0359
  113SAPE   C3811834   3.695   0.154   2.823  0.9705  0.4978  0.3687
  113SAPE   H8X11835   3.730   0.052   2.847  0.8160  0.4878  0.5537
  113SAPE   H8Y11836   3.784   0.220   2.825  0.6456  0.9189  1.4225
  113SAPE   C3911837   3.579   0.188   2.921 -0.1403  0.4932  0.0565
  113SAPE   H9X11838   3.492   0.120   2.910 -1.1683  1.5146  1.4762
  113SAPE   H9Y11839   3.541   0.289   2.896 -2.7267 -0.5854 -0.6785
  113SAPE  C31011840   3.612   0.193   3.070  0.5115 -0.0898 -0.0025
  113SAPE  H10X11841   3.670   0.284   3.096 -0.0361  0.3730 -0.3711
  113SAPE  H10Y11842   3.682   0.111   3.098  1.8008  1.1930  0.6428
  113SAPE  C31111843   3.489   0.205   3.167 -0.3772 -0.4257  0.2301
  113SAPE  H11X11844   3.423   0.117   3.150 -0.2706 -0.1408 -1.9534
  113SAPE  H11Y11845   3.433   0.294   3.131  0.3896 -0.2326 -0.5110
  113SAPE  C31211846   3.527   0.220   3.317 -0.8059  0.9517  0.2015
  113SAPE  H12X11847   3.432   0.238   3.372 -1.0485 -0.2623  0.1998
  113SAPE  H12Y11848   3.582   0.316   3.329 -0.0724  0.5370  0.1653
  113SAPE  C31311849   3.601   0.095   3.377 -0.2413 -0.0951  0.3003
  113SAPE  H13X11850   3.692   0.076   3.317 -0.5865 -0.2331 -0.1910
  113SAPE  H13Y11851   3.524   0.015   3.364 -0.9552  0.5599  0.4044
  113SAPE  C31411852   3.630   0.101   3.532 -0.1659 -0.4748  0.2701
  113SAPE  H14X11853   3.687   0.011   3.564 -0.8450 -0.9051  0.2853
  113SAPE  H14Y11854   3.541   0.125   3.594  0.7423  0.5100  1.2445
  113SAPE  C31511855   3.734   0.214   3.557 -0.7588 -0.1561 -0.4710
  113SAPE  H15X11856   3.690   0.314   3.539  0.2110  0.6843  1.5632
  113SAPE  H15Y11857   3.818   0.197   3.485 -0.9112 -1.1820 -0.4190
  113SAPE  C31611858   3.800   0.199   3.696  0.0327 -0.3367  1.1469
  113SAPE  H16X11859   3.832   0.095   3.718  0.8449  0.1203  2.1899
  113SAPE  H16Y11860   3.724   0.222   3.774  1.0774  3.1387  1.3169
  113SAPE  C31711861   3.924   0.297   3.705 -0.1762  0.1577 -0.2564
  113SAPE  H17X11862   3.905   0.397   3.661  0.7912 -0.5739 -2.4697
  113SAPE  H17Y11863   3.999   0.267   3.630  0.0491  1.1791 -0.4602
  113SAPE  C31811864   3.978   0.305   3.849 -0.6568 -0.0444  0.4728
  113SAPE  H18X11865   4.011   0.203   3.878  2.9695  0.2137 -2.1024
  113SAPE  H18Y11866   3.918   0.359   3.926 -0.9655  0.9684 -0.4614
  113SAPE  H18Z11867   4.081   0.346   3.848 -0.7743  0.2503  0.2806
  114SAPE     N11868   6.048   0.169   2.135  0.6330  0.0222  0.3256
  114SAPE   HN111869   6.099   0.187   2.223 -0.0449 -1.4273  1.0378
  114SAPE   HN211870   6.018   0.070   2.126 -0.5289  0.2301  1.5395
  114SAPE   HN311871   6.115   0.198   2.060  0.3866  1.3374  0.5771
  114SAPE   C1211872   5.926   0.252   2.119 -0.2229 -0.9799 -0.1874
  114SAPE  H12A11873   5.838   0.207   2.168 -0.6966  1.4136  1.3067
  114SAPE  H12B11874   5.913   0.262   2.009 -0.3363 -0.2909 -0.1156
  114SAPE   C1111875   5.938   0.397   2.173 -0.7348 -0.0557  0.7584
  114SAPE  H11A11876   5.951   0.401   2.283  1.4268 -0.7314  0.5746
  114SAPE  H11B11877   5.840   0.444   2.149 -0.2664  1.1874  1.2223
  114SAPE     P11878   6.065   0.619   2.090 -0.3601  0.2056 -0.2465
  114SAPE   O1311879   6.215   0.649   2.104  0.0258 -0.0276  0.7645
  114SAPE   O1411880   5.999   0.657   1.959 -0.1042  0.1873 -0.2490
  114SAPE   O1211881   6.042   0.462   2.110  0.0718  0.2502  0.3009
  114SAPE   O1111882   5.987   0.678   2.210  0.0168 -0.4103  0.0161
  114SAPE    C111883   5.988   0.826   2.235 -0.7120  0.0627  0.7655
  114SAPE    HA11884   6.088   0.859   2.271 -1.2781  0.8495  1.6539
  114SAPE    HB11885   5.955   0.885   2.147  0.0908 -1.6768 -0.7824
  114SAPE    C211886   5.880   0.845   2.340 -0.0136  0.5086 -0.4316
  114SAPE    HS11887   5.785   0.818   2.290 -1.1160  1.2781  1.1440
  114SAPE   O2111888   5.890   0.983   2.392 -0.3694  0.2516 -0.1907
  114SAPE   C2111889   5.789   1.026   2.462 -0.3674  0.1082 -0.2556
  114SAPE   O2211890   5.689   0.966   2.491  0.2730  0.6009 -0.5050
  114SAPE   C2211891   5.816   1.160   2.527  0.5372 -0.1335  0.4245
  114SAPE   H2R11892   5.841   1.240   2.454 -3.2280 -1.4850 -2.6860
  114SAPE   H2S11893   5.718   1.193   2.569  0.7403  0.4731  0.4373
  114SAPE    C311894   5.901   0.732   2.445  0.0044 -0.2436  0.9369
  114SAPE    HX11895   6.010   0.738   2.464  0.1317 -0.8297  0.4190
  114SAPE    HY11896   5.881   0.632   2.401 -0.9065 -0.2604  1.3748
  114SAPE   O3111897   5.824   0.749   2.567 -0.0077 -1.2866 -0.0766
  114SAPE   C3111898   5.730   0.666   2.585 -0.7803 -0.4186 -0.4148
  114SAPE   O3211899   5.698   0.570   2.509 -0.1500 -0.4611 -0.5255
  114SAPE   C3211900   5.658   0.704   2.711 -0.3428  0.0655  0.0732
  114SAPE   H2X11901   5.561   0.650   2.716  0.7261 -1.9174  0.3061
  114SAPE   H2Y11902   5.648   0.815   2.701  4.7203  0.5947 -2.0882
  114SAPE   C2311903   5.910   1.150   2.647  0.0377 -0.3692  0.7658
  114SAPE   H3R11904   5.933   1.258   2.660  1.8449 -0.3397 -1.8908
  114SAPE   H3S11905   6.004   1.098   2.616 -0.7778 -0.8999 -0.8835
  114SAPE   C2411906   5.852   1.077   2.771  0.1344  0.1532  0.8011
  114SAPE   H4R11907   5.938   1.065   2.839  1.7894 -0.3981 -1.2847
  114SAPE   H4S11908   5.827   0.975   2.734 -2.5405  1.4345 -1.3645
  114SAPE   C2511909   5.734   1.153   2.824  0.1089  0.3788  0.2282
  114SAPE   H5R11910   5.642   1.158   2.764  1.6171  3.4417 -2.1224
  114SAPE   C2611911   5.735   1.245   2.922  0.3039 -0.5008  1.5012
  114SAPE   H6R11912   5.637   1.291   2.940 -1.3109 -2.0365 -2.2838
  114SAPE   C2711913   5.856   1.293   3.000 -0.2745 -0.0150 -0.0111
  114SAPE   H7R11914   5.894   1.372   2.933 -2.0731 -0.0445 -1.1410
  114SAPE   H7S11915   5.920   1.203   3.012  0.2945  0.1736 -1.5353
  114SAPE   C2811916   5.817   1.364   3.125 -0.0535  0.3789 -0.0073
  114SAPE   H8R11917   5.854   1.467   3.134  2.3655 -0.5266  1.6064
  114SAPE   C2911918   5.761   1.318   3.231  0.0729  0.0815 -0.1924
  114SAPE   H9R11919   5.745   1.390   3.313 -1.6040  0.6724 -0.9874
  114SAPE  C21011920   5.721   1.171   3.270  0.1985  0.3640 -0.3364
  114SAPE  H10R11921   5.807   1.101   3.260 -0.5291 -0.4944 -0.6868
  114SAPE  H10S11922   5.648   1.128   3.198 -0.1546 -0.1887  0.3345
  114SAPE  C21111923   5.666   1.159   3.406 -0.1367 -0.0521  0.1729
  114SAPE  H11R11924   5.719   1.089   3.472 -1.7246 -2.0496 -0.5512
  114SAPE  C21211925   5.563   1.222   3.462  0.6164 -0.1908 -0.4376
  114SAPE  H12R11926   5.547   1.203   3.569  2.2273  1.3563  0.1296
  114SAPE  C21311927   5.468   1.331   3.403  0.0525  0.7111 -0.7349
  114SAPE  H13R11928   5.470   1.320   3.292  1.6113  0.0283 -0.6729
  114SAPE  H13S11929   5.523   1.424   3.427 -0.7155  1.0190 -0.1462
  114SAPE  C21411930   5.319   1.329   3.447 -1.1196  0.0472 -0.2862
  114SAPE  H14R11931   5.241   1.290   3.380 -2.0291 -0.7211  1.1443
  114SAPE  C21511932   5.284   1.359   3.577  0.4705 -0.1349  1.0646
  114SAPE  H15R11933   5.178   1.370   3.604  0.8886 -0.8865  3.1792
  114SAPE  C21611934   5.376   1.394   3.687 -0.1992  0.0255 -0.0006
  114SAPE  H16R11935   5.327   1.477   3.742 -0.3397 -0.5585  0.7821
  114SAPE  H16S11936   5.475   1.427   3.648 -0.8380  0.8016 -1.0138
  114SAPE  C21711937   5.416   1.293   3.796  0.1442 -0.5789 -0.4454
  114SAPE  H17R11938   5.447   1.194   3.754 -0.3164 -1.4604  1.1953
  114SAPE  H17S11939   5.326   1.266   3.855 -0.8252  1.1765 -1.0763
  114SAPE  C21811940   5.520   1.353   3.887  0.0860  0.0967 -0.0809
  114SAPE  H18R11941   5.498   1.454   3.927  1.3363 -0.3562  1.8533
  114SAPE  H18S11942   5.609   1.382   3.826 -1.1066  0.7921 -1.5787
  114SAPE  C21911943   5.556   1.259   4.000  0.1800 -0.2858  0.6425
  114SAPE  H19R11944   5.610   1.174   3.954 -2.1753 -1.2553 -0.5149
  114SAPE  H19S11945   5.461   1.218   4.041  0.1791 -0.8650  0.0572
  114SAPE  C22011946   5.645   1.333   4.103 -1.0794 -0.5795  0.0714
  114SAPE  H20R11947   5.589   1.407   4.164  1.6300 -0.9121  3.2229
  114SAPE  H20S11948   5.724   1.381   4.041  1.2139 -1.8283  1.8698
  114SAPE  H20T11949   5.691   1.259   4.172 -1.1343  0.3032  1.0708
  114SAPE   C3311950   5.740   0.684   2.841  0.0537  0.5770  0.4684
  114SAPE   H3X11951   5.841   0.729   2.830 -0.1233  0.4500 -2.4564
  114SAPE   H3Y11952   5.750   0.574   2.851 -0.6319  0.5294  0.6638
  114SAPE   C3411953   5.684   0.755   2.965 -0.1417  0.5316  0.3980
  114SAPE   H4X11954   5.588   0.705   2.992 -0.0908  0.4581  0.4431
  114SAPE   H4Y11955   5.664   0.864   2.959  1.1190  0.8640  1.7155
  114SAPE   C3511956   5.780   0.742   3.083 -0.2530 -0.2773  0.2109
  114SAPE   H5X11957   5.850   0.829   3.081 -0.4120 -0.1537 -0.4958
  114SAPE   H5Y11958   5.839   0.649   3.075  1.2662  0.7663 -1.3935
  114SAPE   C3611959   5.719   0.735   3.232 -0.3530  0.0557 -0.2917
  114SAPE   H6X11960   5.653   0.646   3.232 -0.0333 -0.2536 -2.6022
  114SAPE   H6Y11961   5.660   0.828   3.224 -0.4977 -0.0535 -0.5043
  114SAPE   C3711962   5.840   0.729   3.342 -0.4148 -0.4279  0.4968
  114SAPE   H7X11963   5.920   0.803   3.318 -0.3775 -0.5244  0.3209
  114SAPE   H7Y11964   5.893   0.632   3.331  0.1776 -0.0422 -0.1309
  114SAPE   C3811965   5.779   0.743   3.481 -0.5451  0.9424 -0.0090
  114SAPE   H8X11966   5.730   0.647   3.508 -0.2061  1.3312  2.2248
  114SAPE   H8Y11967   5.713   0.833   3.482 -1.4749  0.2873 -0.8339
  114SAPE   C3911968   5.885   0.762   3.596  0.5186  0.1867 -0.0989
  114SAPE   H9X11969   5.937   0.859   3.579 -0.0139  0.2009 -1.8497
  114SAPE   H9Y11970   5.958   0.679   3.597  0.6283  0.2775  1.0691
  114SAPE  C31011971   5.821   0.768   3.740 -0.4287  0.4590 -0.3299
  114SAPE  H10X11972   5.773   0.669   3.754  0.3955  0.1566  0.4846
  114SAPE  H10Y11973   5.741   0.844   3.747 -1.6395 -0.8148 -0.0557
  114SAPE  C31111974   5.931   0.788   3.849  0.0325  0.1030  1.0071
  114SAPE  H11X11975   5.986   0.883   3.834  2.3812 -1.5696 -1.8826
  114SAPE  H11Y11976   6.008   0.711   3.831 -0.7106 -0.3531 -0.3988
  114SAPE  C31211977   5.881   0.773   3.993 -0.0593 -0.0979  0.6087
  114SAPE  H12X11978   5.834   0.674   4.005  1.5237 -1.1571 -1.3702
  114SAPE  H12Y11979   5.807   0.852   4.019  1.3504  1.4443  0.2066
  114SAPE  C31311980   5.991   0.788   4.096 -0.3232 -0.2714  0.5250
  114SAPE  H13X11981   6.045   0.877   4.059  1.1515 -0.5333  1.8843
  114SAPE  H13Y11982   6.062   0.702   4.088 -1.0271 -1.0797  2.2775
  114SAPE  C31411983   5.939   0.812   4.239  0.3117  0.0554  0.4136
  114SAPE  H14X11984   5.867   0.896   4.248 -2.1606 -1.8490 -0.4837
  114SAPE  H14Y11985   6.031   0.838   4.297 -0.2185 -0.1852  1.3849
  114SAPE  C31511986   5.881   0.683   4.303 -0.5466 -0.9313 -0.4270
  114SAPE  H15X11987   5.939   0.590   4.282 -1.8981 -1.5684 -1.5069
  114SAPE  H15Y11988   5.780   0.672   4.258 -0.6536 -2.5561  0.1084
  114SAPE  C31611989   5.853   0.703   4.458 -0.5543  0.3152  0.4688
  114SAPE  H16X11990   5.776   0.627   4.482  1.1999 -1.4463  0.7512
  114SAPE  H16Y11991   5.808   0.804   4.474 -2.1326 -0.2254 -0.3702
  114SAPE  C31711992   5.981   0.680   4.545  0.5131  0.1759 -0.0224
  114SAPE  H17X11993   6.056   0.756   4.515  2.0309 -1.1660  0.2532
  114SAPE  H17Y11994   6.020   0.577   4.533 -0.4514 -0.1412 -0.5979
  114SAPE  C31811995   5.954   0.718   4.687 -0.4295  0.5591 -0.7807
  114SAPE  H18X11996   6.049   0.719   4.743 -0.8112  0.4359 -0.1205
  114SAPE  H18Y11997   5.879   0.653   4.737  2.4994 -0.6482  2.4683
  114SAPE  H18Z11998   5.914   0.818   4.713 -1.9795 -0.1595 -0.2202
  115SAPE     N11999   6.513   3.378   2.135 -0.0792  0.1404  0.6183
  115SAPE   HN112000   6.479   3.361   2.038  2.5868  0.9941 -0.5547
  115SAPE   HN212001   6.563   3.468   2.122 -1.8970  1.0293 -0.7746
  115SAPE   HN312002   6.586   3.305   2.141 -0.8615 -0.6699  0.5283
  115SAPE   C1212003   6.412   3.366   2.240  0.1902 -0.1434 -0.1637
  115SAPE  H12A12004   6.386   3.466   2.279  2.3827  0.4520 -0.1145
  115SAPE  H12B12005   6.466   3.315   2.323  4.2042  2.0499 -1.1391
  115SAPE   C1112006   6.299   3.273   2.178  0.1387 -0.1288 -0.2250
  115SAPE  H11A12007   6.262   3.330   2.091 -0.9851 -1.8231 -0.9082
  115SAPE  H11B12008   6.219   3.264   2.255  0.6821 -0.9513  0.2584
  115SAPE     P12009   6.315   3.007   2.173 -0.4012 -0.5461  0.4829
  115SAPE   O1312010   6.178   2.987   2.116 -0.1954 -0.0510 -0.2982
  115SAPE   O1412011   6.427   2.918   2.134  0.2994  0.0038 -0.1009
  115SAPE   O1212012   6.350   3.148   2.123 -0.1576 -0.3841 -0.0278
  115SAPE   O1112013   6.310   3.028   2.331 -0.1263  0.1434 -0.0962
  115SAPE    C112014   6.447   3.049   2.390  0.6270 -0.8891 -0.6340
  115SAPE    HA12015   6.532   3.082   2.326  1.3308  0.6736  1.0182
  115SAPE    HB12016   6.444   3.140   2.453  1.9996 -2.1956  1.4320
  115SAPE    C212017   6.490   2.934   2.484 -0.2597  0.2737 -0.2193
  115SAPE    HS12018   6.465   2.833   2.446  0.9415  0.1178 -0.6565
  115SAPE   O2112019   6.422   2.970   2.605  0.3595 -0.1011 -0.3932
  115SAPE   C2112020   6.362   2.876   2.668  0.0765  0.4805 -0.8587
  115SAPE   O2212021   6.341   2.759   2.636 -0.1062  1.5031 -0.5647
  115SAPE   C2212022   6.307   2.940   2.801  0.1835 -0.1913 -0.0908
  115SAPE   H2R12023   6.333   3.048   2.798  0.7882 -0.3079  0.7705
  115SAPE   H2S12024   6.197   2.929   2.788  0.1382 -1.8988  1.2836
  115SAPE    C312025   6.643   2.935   2.506  0.1851  0.3176 -0.6471
  115SAPE    HX12026   6.667   3.043   2.515 -1.1023  0.4440  2.7638
  115SAPE    HY12027   6.708   2.913   2.419  0.4809  2.2321 -0.9616
  115SAPE   O3112028   6.693   2.876   2.630 -0.7141  0.1179 -0.1943
  115SAPE   C3112029   6.689   2.742   2.632  0.1789 -0.0448 -0.6129
  115SAPE   O3212030   6.621   2.667   2.564 -0.1002  0.1616  0.0642
  115SAPE   C3212031   6.770   2.688   2.751  0.3025 -0.1844  0.5447
  115SAPE   H2X12032   6.778   2.767   2.828  2.2693 -1.0889  1.3488
  115SAPE   H2Y12033   6.871   2.660   2.714 -0.1786  0.0128 -0.9702
  115SAPE   C2312034   6.354   2.872   2.939  0.1522 -0.2661  0.0935
  115SAPE   H3R12035   6.341   2.762   2.931  0.9578 -0.3433 -0.3106
  115SAPE   H3S12036   6.279   2.889   3.019  0.0728 -2.9184  0.6652
  115SAPE   C2412037   6.503   2.903   2.969 -0.2259 -0.2182 -0.4674
  115SAPE   H4R12038   6.495   3.012   2.990 -0.6477 -0.3781  0.2443
  115SAPE   H4S12039   6.574   2.881   2.887 -0.0331 -1.4356  0.0084
  115SAPE   C2512040   6.535   2.818   3.085 -0.5989  0.0592 -0.1738
  115SAPE   H5R12041   6.488   2.718   3.084  2.0289 -1.2710  0.2045
  115SAPE   C2612042   6.618   2.836   3.191  0.4034  0.0915 -1.0359
  115SAPE   H6R12043   6.629   2.751   3.260 -0.0576  2.0235  1.5691
  115SAPE   C2712044   6.703   2.954   3.211  0.3521 -0.5559  0.1937
  115SAPE   H7R12045   6.639   3.042   3.232 -1.0746 -1.9431  1.8847
  115SAPE   H7S12046   6.751   2.974   3.113  0.9429 -2.7216 -0.0154
  115SAPE   C2812047   6.811   2.941   3.312  0.4518  0.2888 -0.9430
  115SAPE   H8R12048   6.891   2.882   3.264  2.4044  0.3343  1.9674
  115SAPE   C2912049   6.839   2.994   3.434  0.4719  0.6804 -0.0547
  115SAPE   H9R12050   6.929   2.950   3.478 -0.6721 -1.0901  0.6443
  115SAPE  C21012051   6.755   3.085   3.520  0.3431 -0.8824  0.6576
  115SAPE  H10R12052   6.700   3.016   3.588 -0.1108 -1.8988 -0.6969
  115SAPE  H10S12053   6.667   3.126   3.467  0.7590  1.0563  1.3879
  115SAPE  C21112054   6.830   3.193   3.591 -0.6888  0.6075 -0.4158
  115SAPE  H11R12055   6.877   3.265   3.522  1.2934  0.5807  0.8168
  115SAPE  C21212056   6.848   3.221   3.720  0.3617 -0.6478  0.5954
  115SAPE  H12R12057   6.916   3.307   3.735  1.2113 -1.2690  0.4025
  115SAPE  C21312058   6.799   3.156   3.849 -0.3798  0.1204 -0.3590
  115SAPE  H13R12059   6.738   3.066   3.827 -2.5579  1.8679 -1.8987
  115SAPE  H13S12060   6.731   3.232   3.893  0.5546 -0.3358  2.0390
  115SAPE  C21412061   6.911   3.143   3.947 -0.3366 -0.4870  0.1708
  115SAPE  H14R12062   6.959   3.239   3.971 -2.1586  0.6291 -0.4535
  115SAPE  C21512063   6.958   3.030   3.995  1.3618  0.3057 -0.3816
  115SAPE  H15R12064   7.041   3.041   4.067  0.5057 -1.8557  1.0147
  115SAPE  C21612065   6.901   2.890   3.975  0.1265  0.3890 -0.0314
  115SAPE  H16R12066   6.984   2.822   3.946 -2.9969 -4.0985  0.4544
  115SAPE  H16S12067   6.826   2.891   3.893 -2.3646 -0.1268  2.1183
  115SAPE  C21712068   6.829   2.827   4.105 -0.0911  0.1190 -0.4501
  115SAPE  H17R12069   6.727   2.866   4.123  0.5266  0.4976  2.6461
  115SAPE  H17S12070   6.900   2.837   4.190 -0.5967  0.1978 -0.0389
  115SAPE  C21812071   6.810   2.674   4.098 -0.3403  0.1168 -0.8452
  115SAPE  H18R12072   6.779   2.635   4.197 -0.9098  0.6561 -0.8019
  115SAPE  H18S12073   6.905   2.623   4.073 -0.6342  0.4332 -2.8252
  115SAPE  C21912074   6.706   2.649   3.986  1.0211  0.2801  0.4123
  115SAPE  H19R12075   6.740   2.694   3.891  0.6497 -1.5446 -0.6267
  115SAPE  H19S12076   6.603   2.686   4.010  0.3512 -1.2166 -0.0377
  115SAPE  C22012077   6.673   2.505   3.946  0.2742  0.4368  0.3674
  115SAPE  H20R12078   6.754   2.447   3.897 -0.2761 -0.1199  0.1006
  115SAPE  H20S12079   6.589   2.506   3.874  0.3408  0.9925  0.2919
  115SAPE  H20T12080   6.650   2.446   4.037  2.4853 -2.8987 -1.0341
  115SAPE   C3312081   6.704   2.564   2.814 -0.6732  0.5449 -0.2666
  115SAPE   H3X12082   6.709   2.482   2.738 -0.3884 -0.9428  1.2848
  115SAPE   H3Y12083   6.608   2.567   2.868 -1.5583  0.6015 -1.7842
  115SAPE   C3412084   6.811   2.500   2.916  0.4757 -0.6813 -0.0143
  115SAPE   H4X12085   6.913   2.500   2.872  0.9147  2.5767  0.7696
  115SAPE   H4Y12086   6.771   2.397   2.932  0.0551 -0.3703  1.0151
  115SAPE   C3512087   6.835   2.572   3.052 -0.1084  0.6008 -0.1864
  115SAPE   H5X12088   6.737   2.597   3.096  0.6761  3.2940  0.2193
  115SAPE   H5Y12089   6.888   2.668   3.037  0.9575  0.2178  0.9435
  115SAPE   C3612090   6.920   2.496   3.161 -0.7718 -0.5797  0.1865
  115SAPE   H6X12091   7.020   2.477   3.118 -1.3293  0.2991 -1.6406
  115SAPE   H6Y12092   6.870   2.400   3.188 -1.8982 -0.4552 -1.3302
  115SAPE   C3712093   6.954   2.579   3.289  0.5244  0.0335  1.2832
  115SAPE   H7X12094   6.861   2.575   3.350 -1.2418  0.1101 -1.2189
  115SAPE   H7Y12095   6.983   2.678   3.250 -2.3711 -0.1629 -1.8626
  115SAPE   C3812096   7.073   2.510   3.365 -0.5671 -0.3039 -0.4265
  115SAPE   H8X12097   7.174   2.545   3.333  0.1764 -0.3551  1.6747
  115SAPE   H8Y12098   7.068   2.402   3.339 -1.1430 -0.2001 -0.7553
  115SAPE   C3912099   7.053   2.522   3.511 -0.5097  0.3519 -1.2007
  115SAPE   H9X12100   6.948   2.488   3.527 -0.5599  0.5443 -1.1083
  115SAPE   H9Y12101   7.067   2.624   3.553  1.6087 -0.3867  0.0387
  115SAPE  C31012102   7.146   2.437   3.602  0.3278 -0.6543  0.2281
  115SAPE  H10X12103   7.248   2.481   3.592  0.1310  0.2343  1.7271
  115SAPE  H10Y12104   7.143   2.327   3.586  2.5626 -0.9317  1.2211
  115SAPE  C31112105   7.111   2.456   3.746  0.1076 -0.1755 -0.0055
  115SAPE  H11X12106   7.148   2.365   3.796  1.1294  1.5451  2.5917
  115SAPE  H11Y12107   7.001   2.446   3.760  0.1273 -1.0538 -0.4245
  115SAPE  C31212108   7.168   2.584   3.808 -0.0555  0.3941 -0.5232
  115SAPE  H12X12109   7.093   2.666   3.804  1.1193  1.4643 -2.4439
  115SAPE  H12Y12110   7.243   2.620   3.734 -1.2532 -0.9460 -2.4885
  115SAPE  C31312111   7.213   2.565   3.948  0.1173 -1.0341 -0.7976
  115SAPE  H13X12112   7.271   2.473   3.972  1.3715 -0.4299 -1.4654
  115SAPE  H13Y12113   7.134   2.565   4.027 -0.4046 -0.7630 -1.3130
  115SAPE  C31412114   7.294   2.694   4.002 -0.2851  0.2088 -0.2925
  115SAPE  H14X12115   7.239   2.787   3.974 -1.2149  1.1382  3.8975
  115SAPE  H14Y12116   7.397   2.705   3.964  0.6516  0.7361  2.2071
  115SAPE  C31512117   7.306   2.689   4.157 -0.0471 -0.5454  0.6074
  115SAPE  H15X12118   7.207   2.668   4.202 -0.0248  0.4924  1.1542
  115SAPE  H15Y12119   7.341   2.793   4.175 -0.3489 -0.3388  0.0558
  115SAPE  C31612120   7.413   2.587   4.208  0.9056 -0.0060 -0.1430
  115SAPE  H16X12121   7.513   2.605   4.164  1.2960  0.4988  0.9052
  115SAPE  H16Y12122   7.379   2.486   4.178 -1.0333  0.6370 -0.2912
  115SAPE  C31712123   7.429   2.572   4.363  0.1519  0.7207  1.0126
  115SAPE  H17X12124   7.504   2.494   4.389  0.3474  0.1978 -0.9840
  115SAPE  H17Y12125   7.337   2.528   4.407 -0.5025 -0.5294 -1.4178
  115SAPE  C31812126   7.475   2.705   4.434  0.4846 -0.4464  0.0059
  115SAPE  H18X12127   7.553   2.752   4.371  0.6287 -2.6436 -1.6040
  115SAPE  H18Y12128   7.512   2.681   4.536  0.9839 -2.9099 -0.6716
  115SAPE  H18Z12129   7.396   2.782   4.444  2.0855  1.4598 -1.2566
  116SAPE     N12130   5.710   3.144   2.271  0.1857 -0.1123  0.2241
  116SAPE   HN112131   5.669   3.214   2.335 -0.1780  0.1481 -0.2914
  116SAPE   HN212132   5.642   3.066   2.262 -0.0728  0.2397 -1.0369
  116SAPE   HN312133   5.797   3.101   2.308  0.1884  0.8074  1.3334
  116SAPE   C1212134   5.705   3.214   2.141 -0.0415  0.5843  0.8064
  116SAPE  H12A12135   5.608   3.194   2.090  0.4743 -0.9389  0.3498
  116SAPE  H12B12136   5.778   3.159   2.077  0.4111  1.1502  0.8394
  116SAPE   C1112137   5.759   3.359   2.138 -0.2723  0.3036  0.0213
  116SAPE  H11A12138   5.700   3.417   2.211  0.1235 -0.8990  1.3388
  116SAPE  H11B12139   5.741   3.402   2.037  3.0480 -0.9099 -1.2195
  116SAPE     P12140   5.970   3.505   2.165 -0.3305 -0.3471  0.3857
  116SAPE   O1312141   6.081   3.502   2.067  0.3751  0.1481 -0.5305
  116SAPE   O1412142   5.866   3.610   2.147  0.1115  0.2619  0.1033
  116SAPE   O1212143   5.896   3.362   2.167  0.6426  0.0342  0.1069
  116SAPE   O1112144   6.022   3.529   2.318 -0.1929  0.3831  0.2210
  116SAPE    C112145   6.011   3.422   2.411 -0.9538  0.5057  0.0305
  116SAPE    HA12146   5.909   3.378   2.411  0.2133 -2.5616 -2.6684
  116SAPE    HB12147   6.084   3.342   2.388  0.9223  2.7223 -2.1743
  116SAPE    C212148   6.061   3.470   2.554  0.5842  0.0557  0.2224
  116SAPE    HS12149   6.032   3.381   2.613 -0.2948 -0.8857 -1.5383
  116SAPE   O2112150   5.992   3.586   2.589 -0.5549 -0.3950 -0.1835
  116SAPE   C2112151   5.977   3.606   2.720  0.3772 -0.1625  0.2916
  116SAPE   O2212152   5.993   3.521   2.802  0.7990  0.1408 -0.0913
  116SAPE   C2212153   5.938   3.751   2.748 -0.4985 -0.6298 -0.1138
  116SAPE   H2R12154   5.978   3.813   2.665 -0.7839  0.7876  0.7693
  116SAPE   H2S12155   5.827   3.750   2.739 -0.4907 -0.2393 -0.2800
  116SAPE    C312156   6.215   3.486   2.564  0.1468  0.1077  0.4525
  116SAPE    HX12157   6.250   3.561   2.490  2.0515 -1.2103 -0.0551
  116SAPE    HY12158   6.262   3.396   2.518  0.9575  0.7880 -0.0608
  116SAPE   O3112159   6.273   3.507   2.697 -0.1130 -0.1634  1.0783
  116SAPE   C3112160   6.288   3.391   2.764 -0.1245  0.6898 -0.3928
  116SAPE   O3212161   6.255   3.281   2.724  1.0289  0.6593 -0.2563
  116SAPE   C3212162   6.344   3.420   2.904  0.5297  0.0093  1.3536
  116SAPE   H2X12163   6.267   3.478   2.958 -1.0628 -0.9467  0.2101
  116SAPE   H2Y12164   6.433   3.486   2.901  0.1224  0.5499 -0.2888
  116SAPE   C2312165   6.009   3.814   2.878 -0.2550 -0.4067  0.6179
  116SAPE   H3R12166   6.120   3.815   2.863 -0.2235  0.8083  0.8631
  116SAPE   H3S12167   5.994   3.743   2.961 -2.2690  1.2135  1.7318
  116SAPE   C2412168   5.953   3.956   2.912 -0.6708 -0.2533 -1.1909
  116SAPE   H4R12169   5.965   4.018   2.820 -0.1666  0.4143 -0.6796
  116SAPE   H4S12170   6.020   3.991   2.992 -0.6408 -2.4611 -0.1769
  116SAPE   C2512171   5.812   3.937   2.962 -0.4020  0.3097  0.2834
  116SAPE   H5R12172   5.735   3.950   2.885 -1.0501  1.0870  1.0391
  116SAPE   C2612173   5.783   3.895   3.083  0.2766 -0.3287  0.4319
  116SAPE   H6R12174   5.674   3.886   3.097  0.5251 -2.1901  1.6352
  116SAPE   C2712175   5.861   3.860   3.210  0.0059  0.8944 -0.8413
  116SAPE   H7R12176   5.822   3.921   3.294 -0.2885  0.4156 -0.6245
  116SAPE   H7S12177   5.969   3.883   3.219 -0.0002  0.3160  1.1806
  116SAPE   C2812178   5.850   3.713   3.245  0.2465 -0.2845 -0.8067
  116SAPE   H8R12179   5.882   3.645   3.166  0.4298 -0.4587 -0.5836
  116SAPE   C2912180   5.822   3.659   3.368 -0.6492  0.1813  0.0380
  116SAPE   H9R12181   5.814   3.550   3.380  2.1170 -0.1401 -0.4429
  116SAPE  C21012182   5.792   3.718   3.501 -0.2774  0.2620  0.2808
  116SAPE  H10R12183   5.687   3.689   3.524 -0.8957  1.8876 -0.3563
  116SAPE  H10S12184   5.800   3.829   3.504  0.7081  0.2283 -0.5604
  116SAPE  C21112185   5.874   3.679   3.623 -0.1503  0.0502  0.4453
  116SAPE  H11R12186   5.975   3.637   3.617 -0.0173  0.1648  1.6728
  116SAPE  C21212187   5.828   3.708   3.752 -0.7490 -0.1515  0.7773
  116SAPE  H12R12188   5.877   3.673   3.844  0.8428  0.2665  0.1221
  116SAPE  C21312189   5.702   3.785   3.787  0.4563 -0.0680 -0.0856
  116SAPE  H13R12190   5.654   3.817   3.692  2.0929  2.4081 -0.1717
  116SAPE  H13S12191   5.726   3.882   3.835 -0.4460  0.7810 -1.2985
  116SAPE  C21412192   5.611   3.698   3.878  0.7605 -0.4034 -0.1481
  116SAPE  H14R12193   5.547   3.628   3.823 -1.4138  0.5813  0.9853
  116SAPE  C21512194   5.568   3.733   4.002 -0.9180  0.1836 -0.6837
  116SAPE  H15R12195   5.503   3.662   4.056  0.6360 -0.7488  0.0435
  116SAPE  C21612196   5.627   3.844   4.094  0.1742  0.1497 -0.0403
  116SAPE  H16R12197   5.712   3.902   4.053 -0.7787  1.5089 -0.1672
  116SAPE  H16S12198   5.643   3.798   4.193 -0.6953 -2.7527 -1.1494
  116SAPE  C21712199   5.521   3.960   4.117 -0.1590 -0.6586  0.1489
  116SAPE  H17R12200   5.429   3.904   4.147 -0.3556 -0.9582 -0.9639
  116SAPE  H17S12201   5.505   4.011   4.020  2.5079  1.2243  0.5942
  116SAPE  C21812202   5.572   4.065   4.216 -0.0996 -0.1636 -0.3339
  116SAPE  H18R12203   5.662   4.102   4.162 -1.1139  1.7399 -0.8178
  116SAPE  H18S12204   5.587   4.015   4.314 -1.3419  0.5307  0.2323
  116SAPE  C21912205   5.473   4.177   4.234 -0.4855  0.3304  0.3419
  116SAPE  H19R12206   5.372   4.141   4.263 -0.3650 -1.1642 -0.9700
  116SAPE  H19S12207   5.456   4.217   4.132  0.0087 -0.0284  0.1190
  116SAPE  C22012208   5.517   4.291   4.328  0.6117 -0.3281 -0.2559
  116SAPE  H20R12209   5.516   4.247   4.430 -1.5761 -0.3205 -0.2179
  116SAPE  H20S12210   5.431   4.361   4.328  0.2724 -0.7381 -0.3436
  116SAPE  H20T12211   5.609   4.343   4.295  1.3955 -1.3715  0.2413
  116SAPE   C3312212   6.359   3.292   2.984  0.5785  0.2922 -0.2866
  116SAPE   H3X12213   6.444   3.232   2.948  1.0356  2.1617 -2.5445
  116SAPE   H3Y12214   6.276   3.218   2.977  0.6959  0.1693 -0.3782
  116SAPE   C3412215   6.364   3.318   3.141  0.3095  0.9925 -0.0438
  116SAPE   H4X12216   6.277   3.380   3.171 -0.9945  0.8901 -3.1639
  116SAPE   H4Y12217   6.450   3.384   3.165 -0.1734  1.1779  1.2508
  116SAPE   C3512218   6.365   3.190   3.226 -0.2594  0.0298  0.3964
  116SAPE   H5X12219   6.447   3.130   3.181  0.0945 -0.1510  1.2748
  116SAPE   H5Y12220   6.274   3.132   3.198 -0.0151  0.2523 -0.9428
  116SAPE   C3612221   6.374   3.214   3.373 -0.2551  1.5515  0.6516
  116SAPE   H6X12222   6.290   3.280   3.405 -2.0107 -0.7367  1.0367
  116SAPE   H6Y12223   6.473   3.262   3.384 -0.0868  1.1813  0.7278
  116SAPE   C3712224   6.374   3.087   3.460 -0.2796 -0.2616  0.2840
  116SAPE   H7X12225   6.456   3.021   3.425  0.7193  1.0090  0.1495
  116SAPE   H7Y12226   6.271   3.049   3.440 -1.0223  1.2120  1.0847
  116SAPE   C3812227   6.392   3.120   3.611 -0.4756  0.0095  0.1030
  116SAPE   H8X12228   6.299   3.175   3.638 -0.2642 -0.0959  1.0675
  116SAPE   H8Y12229   6.480   3.180   3.641 -2.0348  2.2373  0.4696
  116SAPE   C3912230   6.399   2.993   3.698 -0.4249 -0.2784  0.2791
  116SAPE   H9X12231   6.500   2.958   3.669 -0.6407 -0.6858 -0.0012
  116SAPE   H9Y12232   6.331   2.909   3.669 -1.8015  0.8832  0.0323
  116SAPE  C31012233   6.377   3.026   3.845  1.2234  0.3652  0.2005
  116SAPE  H10X12234   6.268   3.025   3.866  1.5333 -1.4209  2.0397
  116SAPE  H10Y12235   6.419   3.128   3.857 -1.1679  1.3770  0.4767
  116SAPE  C31112236   6.444   2.934   3.951  0.4575 -0.5127 -0.1514
  116SAPE  H11X12237   6.554   2.933   3.941  0.3830 -0.8119 -1.0704
  116SAPE  H11Y12238   6.407   2.831   3.932  0.3769 -0.4318 -0.4448
  116SAPE  C31212239   6.393   2.977   4.092 -0.2000  0.1204  0.6966
  116SAPE  H12X12240   6.429   2.902   4.166  0.4051 -0.0257  0.2656
  116SAPE  H12Y12241   6.285   2.952   4.090 -0.2238  0.1335  1.5745
  116SAPE  C31312242   6.431   3.129   4.134 -0.1007  1.0659 -0.3170
  116SAPE  H13X12243   6.375   3.147   4.229 -0.9149 -3.9622  0.4174
  116SAPE  H13Y12244   6.386   3.205   4.067 -2.1620  1.0764  0.9706
  116SAPE  C31412245   6.575   3.156   4.153  0.4522  0.3780  0.8938
  116SAPE  H14X12246   6.633   3.123   4.065  0.4244 -1.4638  1.5335
  116SAPE  H14Y12247   6.607   3.089   4.235 -0.0055 -0.6779  0.2241
  116SAPE  C31512248   6.610   3.298   4.186  0.5109  0.5769 -0.2414
  116SAPE  H15X12249   6.570   3.377   4.119  0.3329  1.2892  0.6919
  116SAPE  H15Y12250   6.721   3.306   4.183  0.6821 -1.3788 -1.3342
  116SAPE  C31612251   6.556   3.331   4.329 -0.1877 -1.0814 -0.5000
  116SAPE  H16X12252   6.592   3.253   4.399  2.3041  1.3391  1.1314
  116SAPE  H16Y12253   6.446   3.326   4.335 -0.4659  2.1784 -0.6323
  116SAPE  C31712254   6.605   3.468   4.379  0.6879  0.0382 -0.3613
  116SAPE  H17X12255   6.584   3.468   4.488 -0.0640  0.3724 -0.5053
  116SAPE  H17Y12256   6.553   3.555   4.335  3.2600  2.3799  0.9644
  116SAPE  C31812257   6.760   3.488   4.362  0.2161  0.1273 -0.2350
  116SAPE  H18X12258   6.819   3.398   4.388  1.5230  0.6346 -1.3167
  116SAPE  H18Y12259   6.793   3.574   4.426 -0.6797  0.1435  0.2172
  116SAPE  H18Z12260   6.779   3.522   4.258  0.6211  1.4429  0.2402
  117SOPE     N12261   3.069   4.229   6.617 -0.0099  0.6130  0.8654
  117SOPE   HN112262   2.975   4.247   6.575 -0.9570 -1.0369  2.1623
  117SOPE   HN212263   3.143   4.260   6.551  0.0501 -1.4203 -0.0934
  117SOPE   HN312264   3.071   4.125   6.625  0.6486  0.3925 -1.4467
  117SOPE   C1212265   3.089   4.302   6.741  0.6171 -0.5751  1.2268
  117SOPE  H12A12266   3.196   4.308   6.771  0.4297 -0.3229  1.8767
  117SOPE  H12B12267   3.021   4.255   6.815 -2.1242  0.6366 -0.4161
  117SOPE   C1112268   3.044   4.450   6.724  0.1140 -0.1435 -0.2588
  117SOPE  H11A12269   3.103   4.495   6.641 -0.4579  2.3656  0.6199
  117SOPE  H11B12270   3.066   4.508   6.816  0.2254  1.2912 -1.1623
  117SOPE     P12271   2.847   4.589   6.609 -0.1582 -0.0628  0.4227
  117SOPE   O1312272   2.890   4.713   6.684  0.3326 -0.5304  0.1371
  117SOPE   O1412273   2.700   4.571   6.600  0.0185  0.3237  0.6727
  117SOPE   O1212274   2.905   4.462   6.689  0.0007 -0.8028 -0.2583
  117SOPE   O1112275   2.914   4.573   6.460  0.4754 -0.1186 -0.1710
  117SOPE    C112276   2.946   4.672   6.374  0.0997  0.4369  0.0036
  117SOPE    HA12277   3.027   4.733   6.420 -1.5003  0.6492  2.7497
  117SOPE    HB12278   2.857   4.737   6.358  0.6312  1.1094 -0.2676
  117SOPE    C212279   2.973   4.619   6.232  0.1374  0.1609 -0.4328
  117SOPE    HS12280   2.975   4.713   6.173  0.9514  1.0291  0.9115
  117SOPE   O2112281   2.875   4.526   6.180  0.2047 -0.3058  0.8184
  117SOPE   C2112282   2.744   4.566   6.188  0.7812 -0.4882 -0.3955
  117SOPE   O2212283   2.706   4.679   6.203  0.6637  0.0715 -0.8675
  117SOPE   C2212284   2.653   4.443   6.177  0.0777  0.0825 -0.5286
  117SOPE   H2R12285   2.606   4.422   6.275 -1.8261  1.9935 -0.9597
  117SOPE   H2S12286   2.725   4.360   6.161  2.1546  1.4363  1.1533
  117SOPE    C312287   3.114   4.551   6.218  0.5476 -0.6028 -0.6953
  117SOPE    HX12288   3.106   4.471   6.295  1.8751  0.5665  0.7378
  117SOPE    HY12289   3.188   4.625   6.256  1.0421 -0.9965 -0.8793
  117SOPE   O3112290   3.144   4.494   6.095 -0.1138 -0.6049  0.2105
  117SOPE   C3112291   3.214   4.573   6.009  0.6884 -0.3951 -0.2838
  117SOPE   O3212292   3.270   4.679   6.038  0.3049 -0.1488  0.4453
  117SOPE   C3212293   3.197   4.523   5.868 -0.1192 -0.2179 -0.5673
  117SOPE   H2X12294   3.218   4.415   5.885  1.0970 -0.0352 -0.8195
  117SOPE   H2Y12295   3.266   4.581   5.804 -0.1083  0.9182  0.4429
  117SOPE   C2312296   2.550   4.453   6.068 -0.0712  0.3491 -0.1868
  117SOPE   H3R12297   2.494   4.549   6.066  0.5469  0.8101  2.1152
  117SOPE   H3S12298   2.487   4.364   6.085 -1.2368  1.2645  0.4927
  117SOPE   C2412299   2.611   4.436   5.931 -0.3423  0.1978  0.1957
  117SOPE   H4R12300   2.689   4.509   5.900 -1.8299  0.7235 -2.6594
  117SOPE   H4S12301   2.669   4.343   5.915  1.1788  1.2469 -0.7572
  117SOPE   C2512302   2.500   4.429   5.822 -0.0177 -0.5033 -0.2232
  117SOPE   H5R12303   2.435   4.341   5.841 -1.7991  1.1601  1.9535
  117SOPE   H5S12304   2.440   4.523   5.832  0.1916 -0.5816  2.5473
  117SOPE   C2612305   2.563   4.431   5.677 -0.1693 -0.1865  0.2286
  117SOPE   H6R12306   2.613   4.527   5.651  0.6570 -1.5380 -3.9115
  117SOPE   H6S12307   2.632   4.347   5.654  0.9769  1.4364 -2.8085
  117SOPE   C2712308   2.444   4.429   5.584  0.1740 -0.3715  0.6777
  117SOPE   H7R12309   2.396   4.329   5.586  1.1932 -0.8622  1.2599
  117SOPE   H7S12310   2.376   4.509   5.621 -2.3397 -2.9086  1.9730
  117SOPE   C2812311   2.474   4.445   5.436 -1.0400  0.5065 -0.2648
  117SOPE   H8R12312   2.372   4.469   5.399 -0.9204  0.4427 -0.6363
  117SOPE   H8S12313   2.532   4.539   5.421 -0.4553 -0.2139 -3.0541
  117SOPE   C2912314   2.534   4.314   5.366 -0.3825 -0.7974 -0.4484
  117SOPE   H9112315   2.473   4.223   5.371 -0.2437 -0.9804 -1.6960
  117SOPE  C21012316   2.656   4.324   5.300  0.0983 -0.2425 -0.2301
  117SOPE  H10112317   2.701   4.236   5.251  0.0804 -0.9512  0.9790
  117SOPE  C21112318   2.752   4.442   5.279 -0.5546  0.3075 -0.4402
  117SOPE  H11R12319   2.857   4.408   5.270 -0.7700 -0.5480  0.1484
  117SOPE  H11S12320   2.743   4.519   5.359  1.2501 -0.2104  0.2988
  117SOPE  C21212321   2.716   4.516   5.144 -0.4558  0.6428 -0.2125
  117SOPE  H12R12322   2.770   4.613   5.155  0.2850  0.0582  1.6815
  117SOPE  H12S12323   2.607   4.537   5.154 -1.3095 -3.2317  0.1651
  117SOPE  C21312324   2.739   4.442   5.018  0.2214 -0.1427  0.1788
  117SOPE  H13R12325   2.666   4.360   5.000  0.9174 -0.2903 -2.4735
  117SOPE  H13S12326   2.839   4.393   5.018  0.6709  0.7242  1.7474
  117SOPE  C21412327   2.719   4.534   4.902 -0.2872  0.4385 -0.3631
  117SOPE  H14R12328   2.770   4.633   4.907 -0.7316  0.7648 -1.8175
  117SOPE  H14S12329   2.610   4.549   4.916 -0.4479 -0.5354 -0.5033
  117SOPE  C21512330   2.739   4.468   4.768 -0.3456  0.6235  0.0426
  117SOPE  H15R12331   2.662   4.518   4.706  0.0409  1.8260  0.4866
  117SOPE  H15S12332   2.714   4.360   4.761  1.7375  0.1474 -0.8184
  117SOPE  C21612333   2.874   4.497   4.710  0.2488 -0.9564  0.5458
  117SOPE  H16R12334   2.937   4.409   4.735 -0.8568 -1.8696  0.2186
  117SOPE  H16S12335   2.912   4.592   4.753 -0.2691 -0.9893  1.0692
  117SOPE  C21712336   2.869   4.504   4.554  0.0711  0.2073 -0.2378
  117SOPE  H17R12337   2.782   4.566   4.523 -1.3144 -1.8001 -0.4993
  117SOPE  H17S12338   2.846   4.406   4.508  0.2141 -0.4649  1.0787
  117SOPE  C21812339   2.990   4.579   4.488 -0.3936 -0.2872  0.5598
  117SOPE  H18R12340   2.975   4.569   4.379  0.2998 -0.3127  0.4611
  117SOPE  H18S12341   3.084   4.526   4.517  0.7060 -0.3352 -2.7210
  117SOPE  H18T12342   3.003   4.687   4.512 -0.1999 -0.6713  2.3181
  117SOPE   C3312343   3.048   4.536   5.820 -0.3010  0.1000 -1.1900
  117SOPE   H3X12344   3.022   4.638   5.787  0.4846  0.7320  0.0884
  117SOPE   H3Y12345   2.980   4.525   5.907  1.8336 -1.9044  0.3575
  117SOPE   C3412346   3.014   4.440   5.699  1.5542  0.1394 -0.2139
  117SOPE   H4X12347   2.907   4.458   5.676  1.3985  1.2486  1.2324
  117SOPE   H4Y12348   3.017   4.341   5.749 -1.5364 -0.4137 -0.9557
  117SOPE   C3512349   3.100   4.456   5.577  0.5532 -0.9551 -0.4229
  117SOPE   H5X12350   3.088   4.367   5.512 -1.8962 -2.5761  2.0305
  117SOPE   H5Y12351   3.207   4.466   5.603  0.6261 -0.0902 -0.9830
  117SOPE   C3612352   3.059   4.570   5.481  0.9856 -0.1019 -0.2579
  117SOPE   H6X12353   3.061   4.659   5.546  1.0561 -0.4216  0.1825
  117SOPE   H6Y12354   2.959   4.569   5.432  0.4126  0.5049  0.8640
  117SOPE   C3712355   3.170   4.594   5.375 -0.0021 -0.0610 -0.8403
  117SOPE   H7X12356   3.180   4.496   5.324 -0.9381 -0.4527 -0.2943
  117SOPE   H7Y12357   3.270   4.626   5.411 -0.4530 -0.8087  1.2459
  117SOPE   C3812358   3.116   4.683   5.264  0.8652 -0.0320  0.1153
  117SOPE   H8X12359   3.104   4.777   5.323  0.1625 -1.0086  1.6093
  117SOPE   H8Y12360   3.017   4.663   5.218 -0.3923  1.6737  1.9240
  117SOPE   C3912361   3.229   4.694   5.151  1.4015  0.0734 -0.0000
  117SOPE   H9X12362   3.221   4.603   5.088 -3.7107  0.7142 -0.6693
  117SOPE   H9Y12363   3.328   4.706   5.201  2.1093  0.0522 -1.3258
  117SOPE  C31012364   3.211   4.811   5.068 -0.2596 -0.2220  0.1953
  117SOPE  H10X12365   3.230   4.898   5.135  0.3966  1.8386 -2.4967
  117SOPE  H10Y12366   3.108   4.820   5.027  0.2671  1.7384 -0.8444
  117SOPE  C31112367   3.315   4.815   4.954  0.0894  0.6332 -0.3065
  117SOPE  H11X12368   3.283   4.738   4.881 -1.5850  0.5921  0.4107
  117SOPE  H11Y12369   3.415   4.786   4.992 -0.2872 -2.0625 -1.1834
  117SOPE  C31212370   3.331   4.947   4.884  0.0210  0.3651 -0.3801
  117SOPE  H12X12371   3.389   5.022   4.941 -2.9719  3.8073 -1.5175
  117SOPE  H12Y12372   3.227   4.981   4.864 -0.6800 -0.5192  1.5277
  117SOPE  C31312373   3.399   4.929   4.741  0.2734 -0.3696  0.2333
  117SOPE  H13X12374   3.475   4.850   4.759  1.2228  0.6385  0.7407
  117SOPE  H13Y12375   3.448   5.026   4.717 -1.8858  0.3572 -1.5190
  117SOPE  C31412376   3.305   4.895   4.627  0.0607 -0.4955  0.0349
  117SOPE  H14X12377   3.224   4.971   4.627 -1.1498 -1.7456 -0.2014
  117SOPE  H14Y12378   3.261   4.799   4.662  1.4641 -0.9587  0.6047
  117SOPE  C31512379   3.360   4.866   4.493 -0.1626  0.4050  0.1657
  117SOPE  H15X12380   3.285   4.828   4.420 -1.0674  1.7900  0.3401
  117SOPE  H15Y12381   3.449   4.800   4.501 -0.5866 -0.1151  0.6074
  117SOPE  C31612382   3.413   4.996   4.428  0.5737 -0.9014 -0.0145
  117SOPE  H16X12383   3.476   4.972   4.341  0.2610  1.6668 -1.0410
  117SOPE  H16Y12384   3.494   5.045   4.486  2.4028 -2.1244 -1.4415
  117SOPE  C31712385   3.297   5.090   4.402 -0.4624  0.2397 -0.1137
  117SOPE  H17X12386   3.250   5.140   4.490  0.8439  1.5969 -0.1500
  117SOPE  H17Y12387   3.215   5.046   4.342 -0.3075  0.8887 -0.8124
  117SOPE  C31812388   3.347   5.201   4.310 -0.2852  0.7447 -0.0501
  117SOPE  H18X12389   3.397   5.148   4.226  1.4846  1.8196  0.2932
  117SOPE  H18Y12390   3.425   5.261   4.360  0.7037 -0.1675 -0.4601
  117SOPE  H18Z12391   3.257   5.263   4.288 -0.2513  0.1616 -2.0442
  118SOPE     N12392   1.973   6.088   7.090  0.2887 -0.0994 -0.3163
  118SOPE   HN112393   1.881   6.043   7.074 -0.3511  0.5896  1.1524
  118SOPE   HN212394   2.047   6.017   7.071  0.0953 -0.1476 -0.8832
  118SOPE   HN312395   1.971   6.124   7.188  1.3531 -0.9162  0.0238
  118SOPE   C1212396   1.982   6.207   7.000 -0.5674 -0.3102  0.3903
  118SOPE  H12A12397   2.069   6.274   7.021 -0.5654  0.2541 -1.2919
  118SOPE  H12B12398   1.884   6.258   7.008 -1.7217 -2.4377  0.5302
  118SOPE   C1112399   1.998   6.163   6.852 -0.2168  0.3255 -0.3684
  118SOPE  H11A12400   1.988   6.256   6.794 -1.3455  0.6793  0.3474
  118SOPE  H11B12401   1.921   6.089   6.819  2.7241 -3.3533  0.2898
  118SOPE     P12402   2.258   6.181   6.811  0.4871 -0.2334 -0.0967
  118SOPE   O1312403   2.369   6.089   6.814  0.0825 -0.1559  0.0546
  118SOPE   O1412404   2.261   6.293   6.903 -0.4705 -0.1976 -0.6196
  118SOPE   O1212405   2.122   6.100   6.836 -0.2363  0.1697 -0.4465
  118SOPE   O1112406   2.232   6.240   6.657 -0.1664 -0.0210  0.2730
  118SOPE    C112407   2.167   6.141   6.564  0.0384 -0.0606  0.1446
  118SOPE    HA12408   2.057   6.145   6.577 -0.0160 -1.5003  0.2647
  118SOPE    HB12409   2.196   6.035   6.581  0.4386 -0.6493 -3.4275
  118SOPE    C212410   2.208   6.163   6.415 -0.0108  0.2686  0.0216
  118SOPE    HS12411   2.203   6.271   6.390  2.0729  0.7970  1.5966
  118SOPE   O2112412   2.137   6.072   6.333  0.4598  0.4287 -0.0818
  118SOPE   C2112413   2.004   6.100   6.316  0.2311 -0.1397  0.8612
  118SOPE   O2212414   1.944   6.201   6.352 -0.2672  0.3778 -0.2978
  118SOPE   C2212415   1.950   6.000   6.220 -0.1303  0.1160 -0.4281
  118SOPE   H2R12416   1.908   5.912   6.274 -1.4459  0.0605 -1.4675
  118SOPE   H2S12417   2.019   5.946   6.151  1.1350 -0.0595  0.9212
  118SOPE    C312418   2.363   6.130   6.408  0.0368 -0.6607 -0.5338
  118SOPE    HX12419   2.391   6.054   6.484 -0.3569  1.2594  1.6497
  118SOPE    HY12420   2.429   6.216   6.435  0.5832 -0.4688 -2.2925
  118SOPE   O3112421   2.387   6.096   6.272 -0.8287 -0.2661  0.1148
  118SOPE   C3112422   2.383   5.967   6.236  0.0741  0.3326 -0.1354
  118SOPE   O3212423   2.375   5.873   6.312  0.6262  0.5170 -0.4674
  118SOPE   C3212424   2.380   5.960   6.078  0.1529  0.4207  1.1589
  118SOPE   H2X12425   2.316   6.043   6.041  0.8605  0.8179  0.8111
  118SOPE   H2Y12426   2.334   5.862   6.051 -0.4369  0.5550  1.6682
  118SOPE   C2312427   1.841   6.055   6.120  0.3859  0.3968  0.6475
  118SOPE   H3R12428   1.856   6.154   6.072 -2.2486  1.4408  1.7471
  118SOPE   H3S12429   1.750   6.067   6.183  0.0674 -3.3399  1.1232
  118SOPE   C2412430   1.794   5.951   6.018 -0.6977  0.1731 -0.3370
  118SOPE   H4R12431   1.819   5.846   6.046  3.0205  0.6844 -1.2026
  118SOPE   H4S12432   1.684   5.962   6.023 -0.7334  0.0487 -0.8196
  118SOPE   C2512433   1.850   5.986   5.876 -0.4548  0.8347 -0.1499
  118SOPE   H5R12434   1.796   5.937   5.792  0.8517  0.5509 -0.8661
  118SOPE   H5S12435   1.859   6.095   5.859  2.7232  0.8610  0.9723
  118SOPE   C2612436   1.985   5.910   5.837  0.2149  0.5589  0.0852
  118SOPE   H6R12437   2.069   5.932   5.906  0.5741 -2.8996  0.9062
  118SOPE   H6S12438   1.963   5.801   5.843 -0.0875  0.6992  2.2572
  118SOPE   C2712439   2.033   5.956   5.697 -0.1761 -0.0678 -0.7833
  118SOPE   H7R12440   1.967   5.919   5.616 -2.0952 -2.3396  1.6446
  118SOPE   H7S12441   2.030   6.067   5.704  1.2786 -0.0211 -0.6797
  118SOPE   C2812442   2.176   5.928   5.660 -0.0753  0.5856 -0.0321
  118SOPE   H8R12443   2.199   5.998   5.577  0.3837  0.7571  0.2383
  118SOPE   H8S12444   2.259   5.955   5.729  1.2952 -1.2295 -0.8930
  118SOPE   C2912445   2.194   5.784   5.613 -0.1900  0.2007  0.1586
  118SOPE   H9112446   2.213   5.708   5.691  0.2729  0.4555  0.2982
  118SOPE  C21012447   2.229   5.750   5.487  0.1102  0.0301  0.1029
  118SOPE  H10112448   2.235   5.645   5.453  0.4536  0.2173 -0.4325
  118SOPE  C21112449   2.239   5.855   5.378 -0.2768  0.1227  1.0124
  118SOPE  H11R12450   2.327   5.920   5.395 -0.5518  1.1391 -1.0983
  118SOPE  H11S12451   2.146   5.917   5.380 -1.9169 -2.1880  0.7753
  118SOPE  C21212452   2.244   5.791   5.233 -0.1250  0.0128  0.4610
  118SOPE  H12R12453   2.164   5.716   5.217 -0.8142  0.4939  1.5588
  118SOPE  H12S12454   2.347   5.750   5.225 -0.2738 -0.1436 -0.9866
  118SOPE  C21312455   2.249   5.894   5.120 -0.5104 -0.3130  0.6237
  118SOPE  H13R12456   2.330   5.964   5.150 -0.1495  0.1836 -1.3862
  118SOPE  H13S12457   2.150   5.943   5.118 -0.1599  0.3818 -0.3712
  118SOPE  C21412458   2.291   5.840   4.984 -0.2440  0.0480  0.2024
  118SOPE  H14R12459   2.219   5.765   4.945  1.2894 -1.5633  0.3333
  118SOPE  H14S12460   2.392   5.795   4.994 -0.2005 -0.8951 -3.2155
  118SOPE  C21512461   2.294   5.953   4.882 -0.5094 -0.4789 -0.2844
  118SOPE  H15R12462   2.366   6.028   4.923 -4.1432  2.3971  1.5037
  118SOPE  H15S12463   2.192   5.998   4.877 -0.8495 -1.2795 -0.6828
  118SOPE  C21612464   2.320   5.905   4.738 -0.6717  0.5469 -0.8377
  118SOPE  H16R12465   2.242   5.834   4.704 -2.6814  2.1306  0.2636
  118SOPE  H16S12466   2.411   5.842   4.737 -1.8878 -1.4485  1.6736
  118SOPE  C21712467   2.329   6.011   4.627 -0.8444 -0.4780 -0.3792
  118SOPE  H17R12468   2.433   6.048   4.616 -0.7673 -0.5040  0.2267
  118SOPE  H17S12469   2.274   6.101   4.661  2.1051  2.2210 -2.2333
  118SOPE  C21812470   2.279   5.958   4.488 -0.4713  0.2505 -0.6208
  118SOPE  H18R12471   2.317   5.854   4.477  4.4798  1.7144  0.4367
  118SOPE  H18S12472   2.333   6.022   4.415 -1.9473 -0.1724 -2.1592
  118SOPE  H18T12473   2.168   5.959   4.480 -0.6654 -3.4018 -0.2124
  118SOPE   C3312474   2.512   5.980   6.001 -1.1215  0.5391 -0.4287
  118SOPE   H3X12475   2.579   5.899   6.039 -1.0444  0.9093  0.2466
  118SOPE   H3Y12476   2.561   6.077   6.027  2.0823 -0.6702 -1.4150
  118SOPE   C3412477   2.501   5.979   5.856 -0.6501  0.1302  0.0541
  118SOPE   H4X12478   2.442   6.066   5.819  0.3497  0.9605  0.3530
  118SOPE   H4Y12479   2.439   5.889   5.834 -0.1135 -0.5826  1.3391
  118SOPE   C3512480   2.628   5.982   5.767  0.2666 -0.4123 -0.2494
  118SOPE   H5X12481   2.684   5.888   5.785  0.5721 -0.0832  0.5770
  118SOPE   H5Y12482   2.682   6.076   5.790  2.1540 -2.0016  2.4273
  118SOPE   C3612483   2.603   5.990   5.616 -0.2158  0.1952  0.1698
  118SOPE   H6X12484   2.576   6.096   5.594  0.4806  0.5639  1.0491
  118SOPE   H6Y12485   2.519   5.925   5.582  1.2224 -0.5792 -2.1057
  118SOPE   C3712486   2.721   5.959   5.522  0.1740  0.3394 -0.8300
  118SOPE   H7X12487   2.744   5.850   5.524  0.7585  0.4667  0.4218
  118SOPE   H7Y12488   2.815   6.004   5.562  1.1409 -2.1750 -0.0648
  118SOPE   C3812489   2.699   6.012   5.384 -0.7376 -0.6147 -0.5276
  118SOPE   H8X12490   2.785   6.074   5.353  0.2053 -1.3027  0.6276
  118SOPE   H8Y12491   2.614   6.083   5.396  0.2696  0.5184  0.1128
  118SOPE   C3912492   2.673   5.910   5.272  0.3435 -0.1887  0.0256
  118SOPE   H9X12493   2.586   5.846   5.297  0.0012 -0.3878 -1.6019
  118SOPE   H9Y12494   2.767   5.851   5.266 -0.0057 -0.7007 -0.5478
  118SOPE  C31012495   2.641   5.969   5.132  0.1684 -0.4090 -0.5821
  118SOPE  H10X12496   2.546   6.025   5.140  0.0152 -0.8239  0.8439
  118SOPE  H10Y12497   2.616   5.880   5.070  0.9877 -0.2310 -1.1868
  118SOPE  C31112498   2.758   6.063   5.087  0.0429  0.1114 -0.8277
  118SOPE  H11X12499   2.852   6.003   5.090 -1.1992 -1.9328  1.8067
  118SOPE  H11Y12500   2.785   6.146   5.156 -1.0523 -2.6481  3.2815
  118SOPE  C31212501   2.737   6.127   4.954  0.2691 -0.1099  0.4310
  118SOPE  H12X12502   2.821   6.198   4.937 -1.9745  2.6224  0.1080
  118SOPE  H12Y12503   2.649   6.194   4.946  2.3137  2.7779  0.4465
  118SOPE  C31312504   2.739   6.004   4.858 -0.2658  0.3021  0.0149
  118SOPE  H13X12505   2.645   5.949   4.876  0.4198 -0.3774  1.6985
  118SOPE  H13Y12506   2.825   5.936   4.878  1.4277  1.9462 -1.2182
  118SOPE  C31412507   2.740   6.045   4.710  0.0694 -0.3811  0.5939
  118SOPE  H14X12508   2.669   6.122   4.673  2.1366  1.9568  1.1772
  118SOPE  H14Y12509   2.719   5.950   4.657  0.5540 -2.3333  3.6537
  118SOPE  C31512510   2.870   6.093   4.653  0.6540  0.0046 -0.2772
  118SOPE  H15X12511   2.956   6.029   4.682 -0.7112 -1.2717  1.1281
  118SOPE  H15Y12512   2.899   6.193   4.691 -1.3806  0.6066 -0.2107
  118SOPE  C31612513   2.867   6.088   4.502 -0.3938  0.5982  0.6436
  118SOPE  H16X12514   2.785   6.157   4.473  0.4776  1.8566  1.0727
  118SOPE  H16Y12515   2.851   5.983   4.469 -4.3846  0.6555  1.9232
  118SOPE  C31712516   2.995   6.144   4.442  0.0259 -0.1945 -0.0250
  118SOPE  H17X12517   3.092   6.091   4.457  1.8434  2.6712 -0.6277
  118SOPE  H17Y12518   3.016   6.242   4.491  1.0740 -0.3957 -0.0457
  118SOPE  C31812519   2.986   6.185   4.291 -0.1078 -0.4384 -0.8080
  118SOPE  H18X12520   2.966   6.098   4.225 -1.4685 -1.1509  0.4903
  118SOPE  H18Y12521   3.071   6.250   4.261  0.5401 -0.1420  1.4774
  118SOPE  H18Z12522   2.895   6.247   4.281  0.0520  0.4721  2.4310
  119SOPE     N12523   5.060   0.141   6.248  0.4218 -0.5593 -0.4020
  119SOPE   HN112524   5.002   0.062   6.285 -0.9609  0.1661 -0.9277
  119SOPE   HN212525   5.058   0.216   6.320 -0.2375  0.6681 -1.6392
  119SOPE   HN312526   5.011   0.173   6.162  0.7994  1.1225 -0.0266
  119SOPE   C1212527   5.204   0.123   6.216 -0.2464  0.1470 -0.1784
  119SOPE  H12A12528   5.219   0.047   6.137 -1.6795  2.0056 -2.3746
  119SOPE  H12B12529   5.247   0.068   6.302 -1.0546  0.0464  0.1687
  119SOPE   C1112530   5.272   0.256   6.191  0.3398 -0.1487 -0.4577
  119SOPE  H11A12531   5.227   0.308   6.105  0.8385  2.0042  0.5196
  119SOPE  H11B12532   5.377   0.235   6.160  0.5981  0.1349  0.1942
  119SOPE     P12533   5.170   0.442   6.366 -0.2297  0.1195  0.2080
  119SOPE   O1312534   5.231   0.526   6.475 -0.1637  0.1472 -0.1451
  119SOPE   O1412535   5.048   0.362   6.394 -0.0353  0.2606 -0.3533
  119SOPE   O1212536   5.285   0.335   6.311  0.6852  0.0594  0.9739
  119SOPE   O1112537   5.146   0.528   6.234  0.5292 -0.1737 -0.1715
  119SOPE    C112538   5.250   0.602   6.176  0.1476 -0.2881 -0.0244
  119SOPE    HA12539   5.236   0.604   6.065  0.3135  0.3166 -0.0399
  119SOPE    HB12540   5.354   0.580   6.208 -0.3095  0.5113  2.2011
  119SOPE    C212541   5.234   0.749   6.214  0.6721 -0.5711  0.0304
  119SOPE    HS12542   5.218   0.759   6.324  0.0195 -0.6310 -0.0510
  119SOPE   O2112543   5.130   0.817   6.140 -0.2976 -0.0868 -0.4343
  119SOPE   C2112544   5.004   0.810   6.190 -0.1978  0.0335 -0.8932
  119SOPE   O2212545   4.975   0.770   6.302  0.1627  0.3018  0.5229
  119SOPE   C2212546   4.916   0.841   6.076  0.4916 -0.8025  0.3775
  119SOPE   H2R12547   4.923   0.758   6.003 -1.8158 -0.8737  0.1683
  119SOPE   H2S12548   4.940   0.944   6.041 -0.6184 -0.9156 -0.7872
  119SOPE    C312549   5.356   0.838   6.187 -0.3286 -0.5123 -0.0598
  119SOPE    HX12550   5.440   0.790   6.242 -1.9052 -1.5731  1.5088
  119SOPE    HY12551   5.331   0.929   6.246 -0.1000 -1.4316  1.4961
  119SOPE   O3112552   5.375   0.856   6.048  0.2658 -0.6051 -0.2295
  119SOPE   C3112553   5.387   0.977   6.001  1.8143  0.1186 -0.1260
  119SOPE   O3212554   5.392   1.086   6.059 -0.0268 -0.5894 -0.5740
  119SOPE   C3212555   5.371   0.961   5.846  0.0189 -0.6327  0.2738
  119SOPE   H2X12556   5.275   0.908   5.833  0.9017 -1.7567 -2.1989
  119SOPE   H2Y12557   5.441   0.885   5.804 -0.0737 -1.8381  2.1725
  119SOPE   C2312558   4.765   0.838   6.116 -0.1788 -0.1279  0.0343
  119SOPE   H3R12559   4.748   0.917   6.191 -2.8984 -0.3109 -0.2807
  119SOPE   H3S12560   4.734   0.743   6.166 -0.2263  0.3851  0.9955
  119SOPE   C2412561   4.685   0.867   5.994 -0.0512 -0.5100 -0.4779
  119SOPE   H4R12562   4.596   0.925   6.025 -1.2243 -1.7468 -1.3976
  119SOPE   H4S12563   4.737   0.931   5.920 -0.7757 -0.1488 -0.6752
  119SOPE   C2512564   4.647   0.745   5.905  0.2742 -0.9076  0.6884
  119SOPE   H5R12565   4.729   0.671   5.898  0.1715 -1.0587  1.0627
  119SOPE   H5S12566   4.560   0.688   5.943 -2.3501  1.1082 -1.8010
  119SOPE   C2612567   4.597   0.780   5.766 -0.2843 -0.4937 -0.3435
  119SOPE   H6R12568   4.491   0.812   5.782 -0.4266 -1.1512  0.0626
  119SOPE   H6S12569   4.648   0.865   5.717 -0.6052 -0.6978 -1.0461
  119SOPE   C2712570   4.600   0.650   5.679 -0.4655  0.4904 -0.7064
  119SOPE   H7R12571   4.694   0.633   5.623  0.0094 -2.8105  0.8616
  119SOPE   H7S12572   4.585   0.557   5.738 -0.8516  0.3357 -1.0510
  119SOPE   C2812573   4.493   0.661   5.576  0.2553 -0.8699 -0.8583
  119SOPE   H8R12574   4.394   0.654   5.625  0.3222  0.6242 -0.4742
  119SOPE   H8S12575   4.487   0.763   5.533 -0.6256  0.1171  1.4330
  119SOPE   C2912576   4.496   0.555   5.469  0.4011 -0.1880 -0.2962
  119SOPE   H9112577   4.453   0.463   5.512  0.0341  1.0225  2.1102
  119SOPE  C21012578   4.528   0.562   5.343 -0.1532 -0.6128  0.1826
  119SOPE  H10112579   4.509   0.476   5.278 -1.1000  0.1550 -0.5994
  119SOPE  C21112580   4.591   0.691   5.281  0.4044 -0.8577  0.0123
  119SOPE  H11R12581   4.668   0.736   5.347 -0.1100  1.3399 -0.7977
  119SOPE  H11S12582   4.509   0.767   5.281  1.8273  0.7463  0.0917
  119SOPE  C21212583   4.630   0.673   5.138  0.7914  0.4348 -0.2847
  119SOPE  H12R12584   4.538   0.650   5.079  1.1823  1.2834 -1.2790
  119SOPE  H12S12585   4.696   0.584   5.143  0.5029  0.3155  2.5257
  119SOPE  C21312586   4.693   0.783   5.070  0.1699 -0.0522  0.4550
  119SOPE  H13R12587   4.790   0.799   5.123  0.5100  2.3563 -0.7270
  119SOPE  H13S12588   4.629   0.873   5.070  0.0616 -0.1302  0.2637
  119SOPE  C21412589   4.725   0.739   4.921  0.3219 -0.2912  0.2968
  119SOPE  H14R12590   4.641   0.739   4.848 -1.8344  3.7287  2.4524
  119SOPE  H14S12591   4.757   0.633   4.938 -2.1220 -1.1008  0.2168
  119SOPE  C21512592   4.840   0.816   4.860 -0.4836 -1.2410 -0.3905
  119SOPE  H15R12593   4.913   0.828   4.943 -0.1230  3.0978 -1.1377
  119SOPE  H15S12594   4.818   0.916   4.817  1.4684 -0.0942  1.1275
  119SOPE  C21612595   4.907   0.735   4.752  0.1966  0.3032  0.3964
  119SOPE  H16R12596   4.829   0.716   4.675  0.8568  1.3151 -0.5504
  119SOPE  H16S12597   4.937   0.639   4.799  0.3585  0.3061  0.3007
  119SOPE  C21712598   5.027   0.806   4.679  0.0441 -0.1983  0.4147
  119SOPE  H17R12599   5.055   0.731   4.602 -0.6181  0.4354 -0.4539
  119SOPE  H17S12600   5.109   0.806   4.755  0.4079 -2.0688  0.0645
  119SOPE  C21812601   4.993   0.940   4.611 -0.9968  0.5779 -0.0262
  119SOPE  H18R12602   4.984   1.017   4.691  0.2159 -1.2562  1.9645
  119SOPE  H18S12603   4.907   0.930   4.540 -1.5921  2.6253  0.3343
  119SOPE  H18T12604   5.081   0.960   4.547 -0.7469  1.0006  0.4397
  119SOPE   C3312605   5.364   1.099   5.775 -0.4554 -0.7049  0.2267
  119SOPE   H3X12606   5.462   1.151   5.777  0.1943 -1.7367 -1.9763
  119SOPE   H3Y12607   5.277   1.162   5.804 -0.1617  0.3383 -1.0810
  119SOPE   C3412608   5.351   1.067   5.623  0.2066 -0.3542 -0.2487
  119SOPE   H4X12609   5.251   1.021   5.609 -0.4850  0.5748  1.2915
  119SOPE   H4Y12610   5.429   0.995   5.590  0.0516 -0.9464  0.6457
  119SOPE   C3512611   5.371   1.195   5.535 -0.1483  0.2058  0.0999
  119SOPE   H5X12612   5.476   1.224   5.555  0.0684 -1.0579  0.9164
  119SOPE   H5Y12613   5.304   1.272   5.579  0.0839  0.2180  0.4340
  119SOPE   C3612614   5.335   1.166   5.391 -0.6177 -0.2305  0.3570
  119SOPE   H6X12615   5.225   1.170   5.383 -0.5139 -1.2599 -2.6264
  119SOPE   H6Y12616   5.364   1.060   5.371 -0.5886  0.0670 -1.2585
  119SOPE   C3712617   5.392   1.249   5.275 -0.0617 -0.2701 -0.2373
  119SOPE   H7X12618   5.360   1.198   5.181  0.1692 -0.1607 -0.3764
  119SOPE   H7Y12619   5.502   1.239   5.272 -0.1840 -1.9371 -0.3440
  119SOPE   C3812620   5.357   1.399   5.278 -0.1699  0.1962  0.7048
  119SOPE   H8X12621   5.435   1.453   5.335 -0.2608  1.2268 -0.1046
  119SOPE   H8Y12622   5.261   1.422   5.328  0.9458  0.6086  2.7391
  119SOPE   C3912623   5.347   1.458   5.134 -0.1890 -0.1510 -0.1130
  119SOPE   H9X12624   5.249   1.428   5.090  0.3974 -0.3745 -1.3133
  119SOPE   H9Y12625   5.426   1.417   5.067 -0.6635  0.3603 -1.0170
  119SOPE  C31012626   5.335   1.615   5.129  0.3440  0.2448  0.1975
  119SOPE  H10X12627   5.429   1.652   5.174 -0.0558 -1.2306  2.3708
  119SOPE  H10Y12628   5.252   1.644   5.196  0.7680 -0.6932  1.1646
  119SOPE  C31112629   5.331   1.665   4.988  0.4445  0.4059  0.7301
  119SOPE  H11X12630   5.246   1.609   4.942 -1.0167  0.9212  2.6553
  119SOPE  H11Y12631   5.423   1.634   4.934 -1.6122  0.8024 -3.4238
  119SOPE  C31212632   5.302   1.812   4.967 -0.3103 -0.0736  0.0490
  119SOPE  H12X12633   5.390   1.867   5.009  0.9747 -1.3193 -0.9023
  119SOPE  H12Y12634   5.206   1.846   5.010 -0.9123  1.8652 -2.5833
  119SOPE  C31312635   5.307   1.843   4.813 -0.0460 -0.6178  0.8484
  119SOPE  H13X12636   5.204   1.817   4.778  0.5777 -2.5552  0.3299
  119SOPE  H13Y12637   5.381   1.773   4.768  1.2111  1.7174 -0.9159
  119SOPE  C31412638   5.327   1.993   4.775 -0.1568 -0.1108  0.0703
  119SOPE  H14X12639   5.429   2.033   4.792  0.0191 -0.9574  1.0865
  119SOPE  H14Y12640   5.258   2.053   4.838 -1.6679 -0.5568 -1.0934
  119SOPE  C31512641   5.287   2.021   4.633  0.0600 -0.3250  1.2801
  119SOPE  H15X12642   5.332   2.118   4.604 -0.5075 -0.5446 -0.4626
  119SOPE  H15Y12643   5.179   2.022   4.608  0.2698  0.5605  0.3766
  119SOPE  C31612644   5.334   1.916   4.537 -0.1959 -0.3718  0.3645
  119SOPE  H16X12645   5.288   1.942   4.439  3.4662  2.7305 -0.7905
  119SOPE  H16Y12646   5.301   1.814   4.565 -1.4146  0.4172  1.9867
  119SOPE  C31712647   5.488   1.913   4.518 -0.3579 -0.3895  0.4118
  119SOPE  H17X12648   5.546   1.879   4.606  0.9069  1.6117  0.4293
  119SOPE  H17Y12649   5.534   2.015   4.515 -0.9167 -0.0807  1.6986
  119SOPE  C31812650   5.528   1.861   4.386 -0.2209  0.4352  0.5107
  119SOPE  H18X12651   5.555   1.753   4.391  0.0138  0.4598 -0.0348
  119SOPE  H18Y12652   5.619   1.904   4.338 -0.3365  1.8405  1.4985
  119SOPE  H18Z12653   5.451   1.873   4.307  0.3373  1.1164  0.0490
  120SOPE     N12654   5.995   2.531   6.425 -0.7436 -0.3836 -0.4255
  120SOPE   HN112655   6.019   2.445   6.477  0.6776  2.4494  4.1634
  120SOPE   HN212656   5.910   2.518   6.366 -2.2015 -2.0449  1.8796
  120SOPE   HN312657   6.080   2.559   6.372 -0.9011  0.7047 -0.1350
  120SOPE   C1212658   5.965   2.651   6.508 -0.0624 -0.5611 -0.1213
  120SOPE  H12A12659   6.042   2.655   6.587 -0.4491 -1.7994  0.3481
  120SOPE  H12B12660   5.867   2.633   6.558 -0.4822 -2.5158 -1.5214
  120SOPE   C1112661   5.982   2.786   6.433 -0.6880 -0.6485  0.3482
  120SOPE  H11A12662   5.971   2.876   6.497  0.4681  0.3332 -0.7661
  120SOPE  H11B12663   5.897   2.805   6.364 -0.2723  1.0494  0.2391
  120SOPE     P12664   6.224   2.888   6.372 -0.1341 -0.1450 -0.1495
  120SOPE   O1312665   6.326   2.879   6.262  0.1724 -0.3507  0.4000
  120SOPE   O1412666   6.279   2.873   6.512  0.3715 -0.0141  0.3879
  120SOPE   O1212667   6.110   2.778   6.350  0.6728  0.2416 -0.0541
  120SOPE   O1112668   6.145   3.024   6.364  0.0372 -0.1312 -0.0186
  120SOPE    C112669   6.052   3.069   6.260 -0.0069  1.0360  0.3942
  120SOPE    HA12670   5.963   3.120   6.303  0.2904  2.4360 -0.5916
  120SOPE    HB12671   6.010   2.982   6.206  2.1816  0.5028 -0.5714
  120SOPE    C212672   6.114   3.172   6.158  0.6809 -0.0061  0.3922
  120SOPE    HS12673   6.041   3.217   6.088 -0.0209 -2.2345 -0.4037
  120SOPE   O2112674   6.209   3.102   6.080 -0.0907 -0.8705 -0.5194
  120SOPE   C2112675   6.180   3.025   5.984 -0.1816  0.3872 -0.4056
  120SOPE   O2212676   6.066   2.985   5.960  0.0864  0.1538 -0.2108
  120SOPE   C2212677   6.297   2.984   5.901  0.4474  0.0204  1.2472
  120SOPE   H2R12678   6.341   2.889   5.938  0.6486 -0.6112 -0.5528
  120SOPE   H2S12679   6.379   3.060   5.901  0.1959  0.3071 -0.1121
  120SOPE    C312680   6.178   3.284   6.240  0.0488  0.1978  0.8607
  120SOPE    HX12681   6.256   3.256   6.314  0.4294 -0.5296  0.2076
  120SOPE    HY12682   6.094   3.326   6.299 -0.2291 -1.9301  2.0749
  120SOPE   O3112683   6.231   3.390   6.157  0.4526  0.7218  0.2029
  120SOPE   C3112684   6.345   3.351   6.101 -0.4843 -0.6080  0.3279
  120SOPE   O3212685   6.418   3.264   6.139  0.3456 -0.4632  0.0955
  120SOPE   C3212686   6.395   3.449   5.991  0.0266  0.7155 -0.1216
  120SOPE   H2X12687   6.504   3.471   6.002 -0.0331  0.4835  1.0242
  120SOPE   H2Y12688   6.345   3.545   6.016 -0.9744  0.3485 -0.6799
  120SOPE   C2312689   6.263   2.941   5.756 -0.3865 -0.2355 -0.1960
  120SOPE   H3R12690   6.180   2.867   5.755  1.3587 -2.3076  0.6116
  120SOPE   H3S12691   6.346   2.885   5.710 -0.7133  1.1445 -2.6080
  120SOPE   C2412692   6.225   3.069   5.672 -0.7977 -0.3803  0.0643
  120SOPE   H4R12693   6.165   3.139   5.734  1.0164 -0.3012  1.8018
  120SOPE   H4S12694   6.324   3.105   5.639 -0.1542 -1.4525  0.7903
  120SOPE   C2512695   6.135   3.023   5.548  0.2054 -0.1090 -0.2974
  120SOPE   H5R12696   6.155   2.917   5.520 -0.5941 -0.9845  2.1120
  120SOPE   H5S12697   6.032   3.011   5.588  0.8243 -0.8657  1.1733
  120SOPE   C2612698   6.143   3.111   5.427 -0.0584  0.5878 -0.0967
  120SOPE   H6R12699   6.055   3.086   5.365 -1.3134  0.4212  1.6853
  120SOPE   H6S12700   6.133   3.214   5.466 -0.5904  0.0818  1.1393
  120SOPE   C2712701   6.271   3.093   5.345 -0.1714  0.8428  0.5441
  120SOPE   H7R12702   6.355   3.144   5.396  0.4174  0.0649  0.3814
  120SOPE   H7S12703   6.295   2.984   5.347  0.9143  0.9720 -1.7038
  120SOPE   C2812704   6.270   3.133   5.195 -0.9625 -0.1184  0.1278
  120SOPE   H8R12705   6.367   3.103   5.149 -1.2012  0.9443 -1.1040
  120SOPE   H8S12706   6.182   3.090   5.143  0.2462  0.4513 -2.5451
  120SOPE   C2912707   6.250   3.286   5.188  0.6243  0.4524 -0.3743
  120SOPE   H9112708   6.152   3.317   5.227 -0.4641 -1.6944 -1.1709
  120SOPE  C21012709   6.336   3.378   5.147 -0.5893 -0.0695 -0.1096
  120SOPE  H10112710   6.313   3.485   5.147  1.2572  0.3599 -0.9267
  120SOPE  C21112711   6.477   3.367   5.098  0.1927  0.2573 -0.2692
  120SOPE  H11R12712   6.506   3.260   5.081  0.6960  0.4685 -0.7837
  120SOPE  H11S12713   6.550   3.412   5.168  0.0496  0.8242 -0.4840
  120SOPE  C21212714   6.507   3.445   4.966 -0.2942 -0.1990  0.5938
  120SOPE  H12R12715   6.463   3.546   4.982 -0.5644 -0.1499 -0.4296
  120SOPE  H12S12716   6.444   3.422   4.878 -0.6398  1.9406  0.2301
  120SOPE  C21312717   6.655   3.447   4.928 -0.3208 -0.1646  0.6153
  120SOPE  H13R12718   6.680   3.353   4.875  1.6680  0.6840 -0.0738
  120SOPE  H13S12719   6.720   3.461   5.017  1.1860 -1.6276 -0.1999
  120SOPE  C21412720   6.661   3.550   4.817  0.0607  0.0669  0.7240
  120SOPE  H14R12721   6.633   3.646   4.864 -3.7403  0.1135 -1.2682
  120SOPE  H14S12722   6.572   3.539   4.753  0.5235  0.8382 -0.0714
  120SOPE  C21512723   6.794   3.564   4.750  0.1166  0.1483  0.3312
  120SOPE  H15R12724   6.777   3.645   4.676 -0.5785  0.0747  0.4056
  120SOPE  H15S12725   6.823   3.470   4.699 -1.0359  1.0103 -2.0447
  120SOPE  C21612726   6.898   3.613   4.847 -0.9217  0.9768  0.6082
  120SOPE  H16R12727   6.935   3.527   4.906 -1.3092 -0.5060 -1.2208
  120SOPE  H16S12728   6.859   3.697   4.908  0.1707  1.9672  0.0018
  120SOPE  C21712729   7.024   3.669   4.766 -0.6931 -0.7881  0.5738
  120SOPE  H17R12730   6.987   3.753   4.702 -1.2185 -1.3120  0.1766
  120SOPE  H17S12731   7.063   3.592   4.696 -0.1060 -0.4894  0.5701
  120SOPE  C21812732   7.150   3.711   4.844  0.2436 -0.4246  0.5692
  120SOPE  H18R12733   7.127   3.811   4.887 -0.9697 -0.0767 -0.8266
  120SOPE  H18S12734   7.233   3.726   4.771  0.2951  0.2135  0.7480
  120SOPE  H18T12735   7.185   3.638   4.920  1.2751 -1.6986 -1.0611
  120SOPE   C3312736   6.344   3.400   5.855 -0.1250 -0.6049 -0.4402
  120SOPE   H3X12737   6.236   3.384   5.872 -0.2126  0.9410  0.6126
  120SOPE   H3Y12738   6.400   3.309   5.823  3.8395  2.2483 -2.6206
  120SOPE   C3412739   6.364   3.508   5.752 -0.3861  0.7188  0.7632
  120SOPE   H4X12740   6.473   3.526   5.760  0.2745 -2.5416  0.5215
  120SOPE   H4Y12741   6.305   3.599   5.777 -1.0491  1.0091 -1.6391
  120SOPE   C3512742   6.328   3.460   5.608 -0.3374  0.1398  0.4101
  120SOPE   H5X12743   6.225   3.418   5.618 -1.3309  2.1956 -0.5999
  120SOPE   H5Y12744   6.404   3.382   5.585  0.4515  1.1171 -0.3724
  120SOPE   C3612745   6.322   3.574   5.498  0.4120  0.4676  0.0216
  120SOPE   H6X12746   6.230   3.632   5.520  1.2933  1.6154  0.7771
  120SOPE   H6Y12747   6.304   3.529   5.398  2.1218 -0.7964  0.2273
  120SOPE   C3712748   6.448   3.653   5.493  0.7704  0.1208 -0.2061
  120SOPE   H7X12749   6.531   3.589   5.457  1.1564  0.7246 -0.4170
  120SOPE   H7Y12750   6.469   3.706   5.588 -0.7780  2.1489 -0.9120
  120SOPE   C3812751   6.440   3.785   5.407 -0.0688  0.2675  0.0782
  120SOPE   H8X12752   6.519   3.854   5.442  0.0300  1.1582 -1.7603
  120SOPE   H8Y12753   6.339   3.832   5.413 -1.1607 -1.9649  0.1401
  120SOPE   C3912754   6.469   3.758   5.261 -0.3297 -0.3665 -0.6046
  120SOPE   H9X12755   6.381   3.704   5.220 -1.0905  2.0608 -2.4569
  120SOPE   H9Y12756   6.564   3.701   5.252  0.5844  1.3106 -2.8400
  120SOPE  C31012757   6.488   3.892   5.180  0.5876  0.3547 -0.8849
  120SOPE  H10X12758   6.570   3.949   5.229 -1.0060  1.0315  1.1251
  120SOPE  H10Y12759   6.398   3.958   5.184  0.2065 -0.2089  0.1540
  120SOPE  C31112760   6.545   3.866   5.037 -0.5418 -0.0226  0.0051
  120SOPE  H11X12761   6.451   3.842   4.985  0.6058 -0.3183 -2.0377
  120SOPE  H11Y12762   6.611   3.778   5.050 -0.5815 -0.1088 -0.3989
  120SOPE  C31212763   6.619   3.975   4.956  0.2555  0.2964  0.6015
  120SOPE  H12X12764   6.718   3.983   5.006  0.8951 -0.3960 -0.5089
  120SOPE  H12Y12765   6.552   4.063   4.958 -1.2571 -0.7595 -0.9176
  120SOPE  C31312766   6.635   3.936   4.803  0.4437 -0.5267  0.2001
  120SOPE  H13X12767   6.542   3.881   4.773 -0.8138  0.8330  1.4433
  120SOPE  H13Y12768   6.717   3.861   4.803  0.9033 -0.1069  2.6159
  120SOPE  C31412769   6.665   4.041   4.696 -0.0584  0.2982 -0.0688
  120SOPE  H14X12770   6.776   4.044   4.686 -0.2053  1.5179 -1.6470
  120SOPE  H14Y12771   6.637   4.144   4.726  3.1580  1.4439 -0.5977
  120SOPE  C31512772   6.617   4.014   4.547 -0.1304 -0.3846 -0.7745
  120SOPE  H15X12773   6.640   4.101   4.481  1.2304  1.1775  1.6195
  120SOPE  H15Y12774   6.507   4.002   4.539 -0.4649  2.3389 -1.3092
  120SOPE  C31612775   6.695   3.900   4.483  0.1054  0.0150 -0.1339
  120SOPE  H16X12776   6.648   3.811   4.529 -3.6098 -0.5077 -4.2291
  120SOPE  H16Y12777   6.799   3.907   4.521 -0.2101  0.0926  0.7504
  120SOPE  C31712778   6.680   3.888   4.332 -0.1831 -0.0102 -0.4045
  120SOPE  H17X12779   6.750   3.805   4.306 -1.4550 -1.3500  0.2889
  120SOPE  H17Y12780   6.721   3.980   4.287  2.3235 -1.2009 -0.7677
  120SOPE  C31812781   6.536   3.869   4.292  0.0054  0.0080 -0.5016
  120SOPE  H18X12782   6.535   3.823   4.191  1.1565  1.3290 -1.1370
  120SOPE  H18Y12783   6.489   3.969   4.285  0.8660  0.3615 -1.2916
  120SOPE  H18Z12784   6.479   3.819   4.374 -0.8474 -0.7625 -1.5355
  121SOPE     N12785   3.605   0.506   6.220  0.3372  0.2372 -0.6195
  121SOPE   HN112786   3.577   0.407   6.231  0.2901  0.2067 -0.9901
  121SOPE   HN212787   3.555   0.552   6.141  2.3990  0.4253 -1.8763
  121SOPE   HN312788   3.707   0.511   6.204  0.0624  0.7841 -2.4842
  121SOPE   C1212789   3.566   0.564   6.352 -0.1835 -0.9226 -0.3939
  121SOPE  H12A12790   3.637   0.648   6.367 -0.1721 -0.7278 -1.4787
  121SOPE  H12B12791   3.575   0.487   6.432 -0.7709  0.0797  0.6755
  121SOPE   C1112792   3.423   0.623   6.354  0.5590  0.0794  0.4985
  121SOPE  H11A12793   3.412   0.689   6.266  1.2792  3.1748  2.5806
  121SOPE  H11B12794   3.411   0.678   6.450  0.9212  0.1342  0.5114
  121SOPE     P12795   3.183   0.520   6.390 -0.5613 -0.0420  0.5324
  121SOPE   O1312796   3.172   0.637   6.485  0.2320 -0.0303 -0.0810
  121SOPE   O1412797   3.142   0.381   6.430  0.5472 -0.3378 -0.1245
  121SOPE   O1212798   3.339   0.507   6.347 -0.2343 -0.1235 -0.0805
  121SOPE   O1112799   3.121   0.560   6.252  0.0228 -0.6908  0.4547
  121SOPE    C112800   3.080   0.466   6.160 -0.4268  0.0066 -0.3471
  121SOPE    HA12801   2.998   0.507   6.097 -2.0422 -0.1647  1.5518
  121SOPE    HB12802   3.041   0.372   6.205 -1.9245  1.3285  1.2357
  121SOPE    C212803   3.183   0.445   6.052 -0.5145 -0.3980  0.8522
  121SOPE    HS12804   3.277   0.414   6.103 -0.3418 -2.2127 -0.4727
  121SOPE   O2112805   3.196   0.569   5.974  0.3905 -0.3734  0.2171
  121SOPE   C2112806   3.324   0.615   5.972 -0.0267  0.4591  0.4178
  121SOPE   O2212807   3.416   0.561   6.033  0.3430 -0.2839  0.4198
  121SOPE   C2212808   3.346   0.735   5.875  0.6186  0.5255 -0.0483
  121SOPE   H2R12809   3.390   0.818   5.934 -0.9854  2.2576 -1.1709
  121SOPE   H2S12810   3.245   0.767   5.843  0.1374  0.5740  1.4202
  121SOPE    C312811   3.150   0.327   5.949  0.7013 -0.5177 -0.1439
  121SOPE    HX12812   3.051   0.360   5.911 -1.0878 -1.7896  3.0289
  121SOPE    HY12813   3.142   0.236   6.012 -0.6208 -0.8469 -0.7590
  121SOPE   O3112814   3.245   0.312   5.840 -0.3505  0.2791 -0.3475
  121SOPE   C3112815   3.366   0.293   5.866 -0.0017  1.3540 -0.2355
  121SOPE   O3212816   3.414   0.248   5.973 -0.4073 -0.9923 -0.3589
  121SOPE   C3212817   3.449   0.327   5.745  0.7224 -0.2977  0.6209
  121SOPE   H2X12818   3.408   0.415   5.691  1.8241 -0.1750 -0.0446
  121SOPE   H2Y12819   3.446   0.238   5.678  2.2906  0.4011 -0.4635
  121SOPE   C2312820   3.435   0.703   5.758  0.3626  0.1178 -0.4323
  121SOPE   H3R12821   3.387   0.638   5.681  0.1200 -1.1527  0.7502
  121SOPE   H3S12822   3.529   0.651   5.786  2.7096  3.1398 -2.0440
  121SOPE   C2412823   3.475   0.833   5.677 -0.0022 -0.8405 -0.1878
  121SOPE   H4R12824   3.382   0.894   5.668 -0.3834 -1.2051  1.0489
  121SOPE   H4S12825   3.546   0.894   5.737  1.7229 -1.2457 -1.7489
  121SOPE   C2512826   3.527   0.814   5.527  0.0147 -0.1237 -0.0289
  121SOPE   H5R12827   3.571   0.914   5.505 -2.9905  1.5788  1.1497
  121SOPE   H5S12828   3.600   0.731   5.529 -0.1747 -0.4150 -2.3463
  121SOPE   C2612829   3.410   0.794   5.426  0.2358 -0.4927  0.0975
  121SOPE   H6R12830   3.368   0.694   5.450 -1.0224 -0.0737 -0.2548
  121SOPE   H6S12831   3.337   0.874   5.447  0.5981 -0.5155  1.4978
  121SOPE   C2712832   3.458   0.798   5.281  0.1189 -0.5246  0.5557
  121SOPE   H7R12833   3.502   0.900   5.275 -0.3541 -0.3854 -1.0875
  121SOPE   H7S12834   3.545   0.729   5.277  0.2398 -0.3197 -0.9424
  121SOPE   C2812835   3.347   0.775   5.177 -0.1678  0.0436 -0.3466
  121SOPE   H8R12836   3.275   0.859   5.189  0.2444  0.3623 -0.0473
  121SOPE   H8S12837   3.404   0.780   5.082 -0.5270  0.5710 -0.5401
  121SOPE   C2912838   3.268   0.651   5.189  0.0629  0.1968  0.4059
  121SOPE   H9112839   3.225   0.634   5.289 -0.7523  0.5782  0.1312
  121SOPE  C21012840   3.240   0.560   5.094 -0.1866  0.2639 -0.4148
  121SOPE  H10112841   3.160   0.490   5.120 -1.4929  1.9554  0.3553
  121SOPE  C21112842   3.288   0.559   4.951 -0.1929 -0.2157 -0.7992
  121SOPE  H11R12843   3.351   0.470   4.935  1.6105  0.4960  1.7679
  121SOPE  H11S12844   3.350   0.649   4.931  0.5051 -0.5059 -0.0165
  121SOPE  C21212845   3.177   0.571   4.851 -0.2179 -0.7227  0.0032
  121SOPE  H12R12846   3.102   0.649   4.877 -1.2022 -1.3819 -0.7717
  121SOPE  H12S12847   3.119   0.478   4.833 -3.6884  1.5338 -1.6285
  121SOPE  C21312848   3.237   0.615   4.712  0.0830  0.4644 -0.2830
  121SOPE  H13R12849   3.300   0.527   4.685  0.6809  0.6703  0.4158
  121SOPE  H13S12850   3.302   0.703   4.728  2.0435 -0.8729 -0.4751
  121SOPE  C21412851   3.142   0.649   4.604 -0.4532  0.4627  1.0516
  121SOPE  H14R12852   3.081   0.736   4.640 -0.6159  0.2469  1.3001
  121SOPE  H14S12853   3.072   0.567   4.579  1.0498 -1.9036  4.0188
  121SOPE  C21512854   3.215   0.679   4.466  0.5401 -0.9294  0.9888
  121SOPE  H15R12855   3.265   0.588   4.428  2.9195  0.1300  1.3794
  121SOPE  H15S12856   3.297   0.750   4.493 -1.5702  0.9253  2.9298
  121SOPE  C21612857   3.111   0.728   4.358 -0.0729  0.0189 -0.3689
  121SOPE  H16R12858   3.065   0.823   4.394  1.0688  0.6547 -0.5446
  121SOPE  H16S12859   3.025   0.658   4.359 -1.0684  1.1372  2.1445
  121SOPE  C21712860   3.167   0.752   4.215 -0.5514  0.0198 -0.9567
  121SOPE  H17R12861   3.232   0.664   4.198  1.4260  1.4213 -1.0064
  121SOPE  H17S12862   3.232   0.841   4.233  2.1213 -2.0239  0.0984
  121SOPE  C21812863   3.062   0.775   4.105  0.1184 -0.1740  0.5320
  121SOPE  H18R12864   2.998   0.863   4.129  1.1935  0.4200  1.2825
  121SOPE  H18S12865   2.992   0.691   4.085 -1.5469  1.4792 -1.0857
  121SOPE  H18T12866   3.116   0.799   4.011  2.5020  2.1507  2.3545
  121SOPE   C3312867   3.595   0.375   5.789  0.1733  0.3782  0.6946
  121SOPE   H3X12868   3.640   0.292   5.847 -0.8280 -0.2300  0.6232
  121SOPE   H3Y12869   3.586   0.457   5.863 -3.4710 -1.4258  2.4662
  121SOPE   C3412870   3.679   0.405   5.667  0.2382  0.7754 -0.1838
  121SOPE   H4X12871   3.642   0.499   5.620 -0.8350  0.3162 -0.3034
  121SOPE   H4Y12872   3.681   0.320   5.596  2.2638 -0.8218  1.6567
  121SOPE   C3512873   3.825   0.441   5.704  1.1625 -0.5170  0.3014
  121SOPE   H5X12874   3.879   0.351   5.740  0.2746 -1.0359  0.3600
  121SOPE   H5Y12875   3.822   0.517   5.785 -0.8230 -1.7165  1.4478
  121SOPE   C3612876   3.905   0.481   5.579 -0.4704  0.2848 -0.0171
  121SOPE   H6X12877   3.871   0.583   5.551  0.0282  1.3324  2.8976
  121SOPE   H6Y12878   3.880   0.400   5.506 -2.0639  0.0470  0.7533
  121SOPE   C3712879   4.059   0.474   5.598  0.0690  0.1835  0.1482
  121SOPE   H7X12880   4.094   0.378   5.643 -3.6402 -1.8624 -0.9028
  121SOPE   H7Y12881   4.088   0.549   5.675  0.5964 -0.2194  0.3508
  121SOPE   C3812882   4.132   0.476   5.458 -0.3000 -0.3368  0.3233
  121SOPE   H8X12883   4.079   0.414   5.383 -2.3252 -1.6903  2.7380
  121SOPE   H8Y12884   4.239   0.451   5.477 -0.3733 -2.0343 -1.3121
  121SOPE   C3912885   4.130   0.617   5.392  0.7253  0.1358 -0.0077
  121SOPE   H9X12886   4.207   0.678   5.444  0.7496  0.2961 -0.2328
  121SOPE   H9Y12887   4.034   0.672   5.391  0.1748 -0.7926  0.2525
  121SOPE  C31012888   4.156   0.604   5.242  0.0165  0.1535 -0.4881
  121SOPE  H10X12889   4.085   0.544   5.181  0.8715 -0.4472 -0.9064
  121SOPE  H10Y12890   4.246   0.542   5.224 -0.2468  0.1540 -1.9589
  121SOPE  C31112891   4.171   0.740   5.170  0.0217 -0.3210 -0.5231
  121SOPE  H11X12892   4.257   0.792   5.217 -1.3091  1.7928 -0.3156
  121SOPE  H11Y12893   4.087   0.811   5.188 -0.3599 -0.8204 -0.3047
  121SOPE  C31212894   4.191   0.721   5.019 -0.4117 -0.5266  0.2420
  121SOPE  H12X12895   4.117   0.647   4.981  0.4714 -0.6290 -1.3920
  121SOPE  H12Y12896   4.291   0.674   5.004 -0.4706 -0.1233 -1.6503
  121SOPE  C31312897   4.178   0.850   4.933 -0.1434 -0.6090 -0.4249
  121SOPE  H13X12898   4.247   0.923   4.981 -2.4072  1.3098  0.0849
  121SOPE  H13Y12899   4.071   0.880   4.929 -0.5307 -1.8723 -0.1051
  121SOPE  C31412900   4.206   0.841   4.788  0.5331 -0.8422 -0.1827
  121SOPE  H14X12901   4.178   0.934   4.733  2.1315 -0.4061 -0.2994
  121SOPE  H14Y12902   4.135   0.769   4.740  2.1039 -1.8476 -1.0727
  121SOPE  C31512903   4.351   0.815   4.763  0.2649  0.7767  0.8913
  121SOPE  H15X12904   4.373   0.723   4.821  0.2713  0.1741 -0.0298
  121SOPE  H15Y12905   4.419   0.896   4.798  1.3641  0.5195 -0.5274
  121SOPE  C31612906   4.373   0.774   4.615 -0.1250  0.0178 -0.8328
  121SOPE  H16X12907   4.295   0.699   4.591 -1.4187  0.4545  1.6535
  121SOPE  H16Y12908   4.469   0.722   4.597  0.1351 -0.0278  0.6016
  121SOPE  C31712909   4.356   0.901   4.515  0.9184 -0.0401 -0.3350
  121SOPE  H17X12910   4.256   0.943   4.539 -0.1017 -1.7543 -1.4257
  121SOPE  H17Y12911   4.364   0.857   4.414  0.0224  1.9293 -1.3043
  121SOPE  C31812912   4.453   1.019   4.528  0.7268 -0.5314 -0.4638
  121SOPE  H18X12913   4.414   1.099   4.460  1.1458 -0.2224 -0.3420
  121SOPE  H18Y12914   4.560   0.999   4.510  1.2025  0.5538  0.9270
  121SOPE  H18Z12915   4.445   1.061   4.631 -0.5836  0.3627 -0.8968
  122SOPE     N12916   2.759   6.174   6.971 -0.1731 -0.0719  0.3149
  122SOPE   HN112917   2.770   6.076   6.939  0.9017 -0.4236  1.6700
  122SOPE   HN212918   2.772   6.160   7.073  1.9321 -2.5562 -0.1872
  122SOPE   HN312919   2.668   6.215   6.942 -0.1443  0.6508  1.1934
  122SOPE   C1212920   2.873   6.251   6.930 -0.2166  0.8190 -0.5038
  122SOPE  H12A12921   2.959   6.185   6.957 -1.2227  0.3289  1.7480
  122SOPE  H12B12922   2.871   6.348   6.985 -1.8049  1.9375 -2.3957
  122SOPE   C1112923   2.864   6.283   6.780 -0.0123 -0.1970  0.0520
  122SOPE  H11A12924   2.951   6.349   6.762  0.0827 -0.5350 -0.7235
  122SOPE  H11B12925   2.766   6.333   6.761  0.6927  0.9547 -0.6501
  122SOPE     P12926   2.946   6.160   6.566  0.0833  0.1295  0.3276
  122SOPE   O1312927   2.952   6.025   6.511  0.1467  0.1833 -0.0066
  122SOPE   O1412928   3.078   6.227   6.572  0.5051 -0.2923 -0.4741
  122SOPE   O1212929   2.873   6.165   6.700 -0.3926  0.3977 -0.4467
  122SOPE   O1112930   2.848   6.253   6.493 -0.4474  0.1885 -0.0556
  122SOPE    C112931   2.725   6.207   6.443  0.2700  0.1564 -0.4547
  122SOPE    HA12932   2.648   6.275   6.487 -0.7634 -1.0490 -0.3519
  122SOPE    HB12933   2.688   6.106   6.472 -0.4242  0.2750 -0.8967
  122SOPE    C212934   2.716   6.217   6.288  0.8002  0.2908  0.3868
  122SOPE    HS12935   2.622   6.173   6.250  1.4895  0.7933 -2.0871
  122SOPE   O2112936   2.831   6.147   6.231  0.2452 -0.1551  0.5761
  122SOPE   C2112937   2.836   6.011   6.226 -0.5956 -0.0897 -0.6793
  122SOPE   O2212938   2.741   5.945   6.233  0.2829 -0.4419  0.1418
  122SOPE   C2212939   2.981   5.954   6.200 -0.4252 -0.7403 -0.6652
  122SOPE   H2R12940   3.022   5.920   6.297 -0.7916  0.2617 -0.1443
  122SOPE   H2S12941   3.038   6.046   6.177 -0.8883  0.2446  1.7962
  122SOPE    C312942   2.707   6.359   6.249  0.4329  0.3285  0.0720
  122SOPE    HX12943   2.805   6.406   6.273 -0.4627  1.3088  2.0243
  122SOPE    HY12944   2.638   6.418   6.312  0.7943  2.1226 -1.1504
  122SOPE   O3112945   2.669   6.375   6.108 -0.6866 -0.0479  0.0129
  122SOPE   C3112946   2.674   6.511   6.062  1.3389  0.1727 -0.3852
  122SOPE   O3212947   2.693   6.596   6.142  0.2315  0.0876 -0.3988
  122SOPE   C3212948   2.658   6.510   5.920  0.0044  0.5868  0.4654
  122SOPE   H2X12949   2.594   6.430   5.877  2.7259 -3.0512  2.6817
  122SOPE   H2Y12950   2.759   6.484   5.883  0.0186 -0.2114  1.0418
  122SOPE   C2312951   2.994   5.840   6.103  0.0823  0.0918  0.0803
  122SOPE   H3R12952   2.929   5.757   6.139  1.4177 -0.8480  0.4536
  122SOPE   H3S12953   3.098   5.802   6.112  0.0724 -0.1330 -0.6830
  122SOPE   C2412954   2.966   5.881   5.961  0.1259  0.7680  0.4911
  122SOPE   H4R12955   2.865   5.911   5.925  0.4177 -1.4664 -2.5302
  122SOPE   H4S12956   3.024   5.974   5.941 -1.8515  1.5486 -2.3341
  122SOPE   C2512957   3.019   5.768   5.865 -0.7917  1.3270  0.1172
  122SOPE   H5R12958   3.118   5.727   5.895 -1.2240  1.5984  2.0437
  122SOPE   H5S12959   2.946   5.687   5.884 -0.3577  0.5497 -1.4433
  122SOPE   C2612960   3.005   5.818   5.722  0.0197  0.0999 -0.4572
  122SOPE   H6R12961   2.902   5.853   5.700  0.0989  1.6878  1.5105
  122SOPE   H6S12962   3.070   5.908   5.715  1.2498 -0.5565  1.6946
  122SOPE   C2712963   3.041   5.713   5.609 -0.1393 -0.0684 -0.3072
  122SOPE   H7R12964   3.131   5.656   5.642 -1.8634 -3.1642 -0.6485
  122SOPE   H7S12965   2.959   5.638   5.607  0.7624 -1.0760 -1.3552
  122SOPE   C2812966   3.060   5.762   5.471 -0.7962  0.1877 -0.0634
  122SOPE   H8R12967   2.977   5.835   5.453 -0.2773  0.4758 -1.4074
  122SOPE   H8S12968   3.152   5.822   5.489 -0.0398 -0.7113 -0.8197
  122SOPE   C2912969   3.081   5.660   5.362 -0.3274  0.0441 -0.1179
  122SOPE   H9112970   3.086   5.553   5.389 -1.3829  0.4782  1.9705
  122SOPE  C21012971   3.073   5.685   5.233 -0.1146 -0.1273  0.0710
  122SOPE  H10112972   3.099   5.608   5.160 -0.1952 -0.0988  0.0125
  122SOPE  C21112973   3.068   5.823   5.174 -0.9616  0.4560  0.4239
  122SOPE  H11R12974   3.155   5.888   5.199 -0.5964 -0.1716  0.8129
  122SOPE  H11S12975   2.980   5.877   5.216 -2.2254 -0.7307 -0.5834
  122SOPE  C21212976   3.065   5.826   5.014  0.0274 -0.5361 -0.3808
  122SOPE  H12R12977   3.052   5.931   4.979  0.0612 -0.9343 -1.6566
  122SOPE  H12S12978   2.970   5.780   4.980  0.5785 -0.9676 -1.4037
  122SOPE  C21312979   3.180   5.773   4.932 -0.2536  0.2053 -0.9874
  122SOPE  H13R12980   3.195   5.665   4.951 -0.9137  0.4030  0.8156
  122SOPE  H13S12981   3.273   5.833   4.945  0.1846 -0.4470 -1.0600
  122SOPE  C21412982   3.158   5.783   4.781  0.4746 -0.9833  0.7159
  122SOPE  H14R12983   3.132   5.891   4.769 -0.5966 -1.3313 -0.3777
  122SOPE  H14S12984   3.067   5.720   4.770 -0.7245  0.1456  3.3238
  122SOPE  C21512985   3.267   5.740   4.683 -0.1441  0.4918  0.8558
  122SOPE  H15R12986   3.316   5.653   4.730 -1.6663 -0.1060  1.3776
  122SOPE  H15S12987   3.331   5.831   4.674 -2.5105  2.4602  2.7579
  122SOPE  C21612988   3.219   5.689   4.545  0.7678  0.2127  0.2464
  122SOPE  H16R12989   3.131   5.624   4.565 -1.3735  2.9599  0.3654
  122SOPE  H16S12990   3.288   5.614   4.502 -1.0446 -1.0959 -0.4981
  122SOPE  C21712991   3.178   5.792   4.436 -0.4013 -0.1094 -0.2770
  122SOPE  H17R12992   3.096   5.848   4.486  0.4973  0.1881  0.9229
  122SOPE  H17S12993   3.150   5.741   4.342  1.3852 -0.4997 -0.6398
  122SOPE  C21812994   3.299   5.889   4.399 -0.4736  0.5790 -0.2329
  122SOPE  H18R12995   3.345   5.939   4.487 -0.7493 -0.5255  0.5728
  122SOPE  H18S12996   3.280   5.960   4.317  1.5921  2.4575  0.8097
  122SOPE  H18T12997   3.379   5.820   4.364 -0.9251 -0.1536  0.1540
  122SOPE   C3312998   2.610   6.648   5.865  0.4084 -0.5812 -0.5331
  122SOPE   H3X12999   2.673   6.723   5.918  0.4633 -1.3381  0.5079
  122SOPE   H3Y13000   2.505   6.665   5.896  0.5496  0.0084 -0.3640
  122SOPE   C3413001   2.630   6.679   5.714  0.3120  0.5183 -0.6413
  122SOPE   H4X13002   2.569   6.770   5.694  0.2374  0.7387  0.5165
  122SOPE   H4Y13003   2.569   6.604   5.659  1.1810  0.1752 -1.1495
  122SOPE   C3513004   2.771   6.688   5.659 -0.8663 -0.4639 -0.0824
  122SOPE   H5X13005   2.843   6.610   5.691 -1.1306 -0.3107  0.9115
  122SOPE   H5Y13006   2.808   6.787   5.693 -2.7751  0.5345 -0.7625
  122SOPE   C3613007   2.759   6.698   5.508 -0.3437 -0.5040  0.3761
  122SOPE   H6X13008   2.687   6.779   5.482  0.9884  0.0356 -1.8980
  122SOPE   H6Y13009   2.726   6.597   5.475  0.7810 -1.4071  1.8352
  122SOPE   C3713010   2.886   6.747   5.438  0.2933  0.3920  0.0019
  122SOPE   H7X13011   2.971   6.678   5.453  1.7333  1.9840 -0.5973
  122SOPE   H7Y13012   2.919   6.846   5.474 -0.5512  1.4179 -1.8707
  122SOPE   C3813013   2.871   6.762   5.284  0.8713 -0.1821 -0.5465
  122SOPE   H8X13014   2.974   6.759   5.242  1.4071 -2.1671  0.7968
  122SOPE   H8Y13015   2.816   6.853   5.251 -1.4491 -1.6203 -0.8647
  122SOPE   C3913016   2.802   6.640   5.224 -0.6023  0.0742 -0.9761
  122SOPE   H9X13017   2.691   6.648   5.233 -0.8799 -1.3296 -2.5850
  122SOPE   H9Y13018   2.837   6.549   5.278  1.2120  2.3004  1.9067
  122SOPE  C31013019   2.840   6.641   5.075 -0.7033 -0.0242  0.4004
  122SOPE  H10X13020   2.936   6.589   5.057 -0.8885 -0.7993  1.5793
  122SOPE  H10Y13021   2.846   6.746   5.039  0.7932  0.5614  2.1586
  122SOPE  C31113022   2.722   6.573   4.989 -0.4658 -0.3795 -0.3163
  122SOPE  H11X13023   2.626   6.621   5.017  0.0835  0.8102 -0.3934
  122SOPE  H11Y13024   2.728   6.464   5.007 -0.6893 -0.1590  1.2662
  122SOPE  C31213025   2.725   6.585   4.834  0.6244 -0.3125 -0.6596
  122SOPE  H12X13026   2.795   6.667   4.806  0.1036  0.3969  0.0486
  122SOPE  H12Y13027   2.623   6.620   4.807  0.0668  2.3696  3.8934
  122SOPE  C31313028   2.738   6.458   4.755 -0.4537  0.1410  0.0163
  122SOPE  H13X13029   2.635   6.416   4.756 -1.2296  1.7935 -2.3106
  122SOPE  H13Y13030   2.809   6.388   4.805  1.0020 -0.7969 -3.1106
  122SOPE  C31413031   2.796   6.472   4.609  0.3787 -0.1869 -0.2227
  122SOPE  H14X13032   2.882   6.404   4.596 -0.2067 -1.3091  1.4253
  122SOPE  H14Y13033   2.832   6.577   4.612  0.3344 -0.1760  1.9238
  122SOPE  C31513034   2.684   6.457   4.508  0.1971  0.3368 -0.7018
  122SOPE  H15X13035   2.590   6.490   4.556 -0.1679 -0.8856 -0.5454
  122SOPE  H15Y13036   2.677   6.350   4.480 -0.2961  0.3406 -0.5959
  122SOPE  C31613037   2.703   6.529   4.373  0.3350 -0.4265  0.3487
  122SOPE  H16X13038   2.793   6.475   4.339  0.2034 -1.4384  1.5307
  122SOPE  H16Y13039   2.727   6.637   4.385  0.1906 -0.5867  2.6070
  122SOPE  C31713040   2.579   6.511   4.281 -0.0819 -0.1886  0.0658
  122SOPE  H17X13041   2.487   6.558   4.322 -1.8234 -0.7947 -2.8145
  122SOPE  H17Y13042   2.562   6.402   4.268 -3.2746  0.3128 -0.9156
  122SOPE  C31813043   2.604   6.587   4.147  0.0035 -0.5360 -0.0483
  122SOPE  H18X13044   2.512   6.575   4.087 -0.8487  0.8508  0.9248
  122SOPE  H18Y13045   2.691   6.548   4.091  0.3496  2.3736 -1.6947
  122SOPE  H18Z13046   2.620   6.693   4.176 -0.8108 -0.8825  1.8453
  123SOPE     N13047   1.179   4.810   2.087 -0.6323 -0.5984  0.1107
  123SOPE   HN113048   1.246   4.876   2.130 -0.4027 -0.0823 -1.0018
  123SOPE   HN213049   1.080   4.817   2.120 -1.2111 -0.7850 -1.4975
  123SOPE   HN313050   1.216   4.716   2.113 -2.6788 -2.2383 -2.3545
  123SOPE   C1213051   1.198   4.853   1.940 -0.2559 -0.6558 -0.9121
  123SOPE  H12A13052   1.096   4.825   1.908 -1.4361 -0.9167  2.6466
  123SOPE  H12B13053   1.280   4.797   1.889  0.5020 -1.0239  0.6394
  123SOPE   C1113054   1.228   5.003   1.944 -0.4172 -0.3251  0.2161
  123SOPE  H11A13055   1.240   5.045   1.841  2.2884 -0.7426  0.2840
  123SOPE  H11B13056   1.332   5.007   1.983  0.3222 -0.2244 -1.6571
  123SOPE     P13057   1.036   5.190   1.982 -0.4597 -0.6874  0.2489
  123SOPE   O1313058   0.920   5.125   1.925  0.3164 -0.0018 -0.4380
  123SOPE   O1413059   1.110   5.280   1.891  0.1056 -0.0540  0.1636
  123SOPE   O1213060   1.143   5.085   2.025 -0.0219 -0.2698  0.3159
  123SOPE   O1113061   0.998   5.249   2.127  0.4049 -0.1229 -0.1022
  123SOPE    C113062   1.092   5.326   2.205  0.2156 -0.5776  0.2041
  123SOPE    HA13063   1.048   5.420   2.244  2.5123 -0.2267  2.1861
  123SOPE    HB13064   1.177   5.360   2.143  1.2962  0.7364  2.2976
  123SOPE    C213065   1.147   5.242   2.324 -0.7598 -0.8044 -0.7242
  123SOPE    HS13066   1.206   5.163   2.272  3.0487 -0.0971  2.1218
  123SOPE   O2113067   1.036   5.190   2.388  0.3147 -0.1036 -0.6359
  123SOPE   C2113068   1.042   5.058   2.414 -0.5304 -0.5661  0.6213
  123SOPE   O2213069   1.144   4.992   2.393 -0.3858  0.2418  0.0422
  123SOPE   C2213070   0.919   4.999   2.481 -0.9270 -0.1315  0.0004
  123SOPE   H2R13071   0.863   4.962   2.392  0.8250 -0.2846 -1.0977
  123SOPE   H2S13072   0.864   5.084   2.526  0.9333  0.6964  0.8263
  123SOPE    C313073   1.237   5.321   2.419  0.2172 -0.1096  0.9930
  123SOPE    HX13074   1.188   5.413   2.455  0.7122 -0.3756  2.4363
  123SOPE    HY13075   1.334   5.345   2.370  1.4246 -0.0971  3.2578
  123SOPE   O3113076   1.265   5.231   2.536 -0.5214 -0.3221  0.1349
  123SOPE   C3113077   1.350   5.306   2.616  0.0586  0.2643  0.3798
  123SOPE   O3213078   1.369   5.428   2.604 -1.0427 -0.0918 -0.6067
  123SOPE   C3213079   1.423   5.227   2.719 -0.0921  0.1780 -0.2868
  123SOPE   H2X13080   1.434   5.284   2.813  1.4669 -0.5594  0.0107
  123SOPE   H2Y13081   1.528   5.210   2.686  1.2424 -1.4294  4.0707
  123SOPE   C2313082   0.947   4.880   2.574 -0.3233 -0.5665 -0.0811
  123SOPE   H3R13083   1.006   4.807   2.514 -1.1840 -1.0496 -0.3494
  123SOPE   H3S13084   0.855   4.826   2.604 -0.5500 -0.1051  0.0633
  123SOPE   C2413085   1.019   4.924   2.698 -0.6978  0.2569 -0.3346
  123SOPE   H4R13086   1.070   4.843   2.756  2.4441  2.5884  0.4629
  123SOPE   H4S13087   1.103   4.992   2.672 -0.2858  0.2986  1.0046
  123SOPE   C2513088   0.929   5.003   2.800  0.9893  0.4350  0.2353
  123SOPE   H5R13089   0.876   5.085   2.747 -0.7969 -0.4242  0.6360
  123SOPE   H5S13090   0.848   4.932   2.827 -0.5756  0.8934 -2.7916
  123SOPE   C2613091   1.009   5.062   2.913 -0.4306  0.3650 -0.1237
  123SOPE   H6R13092   1.051   4.981   2.977 -0.9496  1.4021  1.5994
  123SOPE   H6S13093   1.091   5.128   2.877  2.4600 -3.8587 -2.1091
  123SOPE   C2713094   0.915   5.123   3.018 -0.0614  0.2571 -0.5678
  123SOPE   H7R13095   0.853   5.205   2.976 -1.1179 -0.4454 -0.4225
  123SOPE   H7S13096   0.845   5.045   3.054  0.4068  0.3595  0.6112
  123SOPE   C2813097   0.993   5.171   3.147  0.2799  0.3186  0.1944
  123SOPE   H8R13098   1.081   5.230   3.112  0.4861 -0.7736 -1.2389
  123SOPE   H8S13099   0.923   5.237   3.202 -1.8967 -0.0035 -1.9628
  123SOPE   C2913100   1.036   5.054   3.237 -0.0477 -0.2169 -0.1529
  123SOPE   H9113101   1.137   5.016   3.218  0.2702  0.6742 -0.2833
  123SOPE  C21013102   0.974   5.010   3.347  0.1259  0.5005  0.6043
  123SOPE  H10113103   1.033   4.942   3.410  1.4397  0.8391 -0.2033
  123SOPE  C21113104   0.851   5.070   3.410 -0.4732 -0.4082  0.3454
  123SOPE  H11R13105   0.783   4.989   3.446  0.7268 -1.1945  0.9026
  123SOPE  H11S13106   0.798   5.141   3.342 -0.1978 -0.3382  0.2039
  123SOPE  C21213107   0.890   5.151   3.535  0.0768 -0.5238  0.1639
  123SOPE  H12R13108   0.958   5.234   3.508 -0.0145 -0.4434  0.1785
  123SOPE  H12S13109   0.950   5.096   3.610  0.9099  2.1947  1.6477
  123SOPE  C21313110   0.759   5.198   3.612 -0.0242 -0.9212 -0.5801
  123SOPE  H13R13111   0.698   5.106   3.626 -0.3311 -0.5780  0.4190
  123SOPE  H13S13112   0.700   5.258   3.540  0.8519 -0.0236 -0.5696
  123SOPE  C21413113   0.783   5.295   3.732 -0.5007  0.2112  0.3854
  123SOPE  H14R13114   0.844   5.377   3.688  1.8187 -1.2536  0.7073
  123SOPE  H14S13115   0.848   5.255   3.813 -0.1876 -1.3970 -0.6083
  123SOPE  C21513116   0.646   5.341   3.770 -1.1092  0.0234 -0.1179
  123SOPE  H15R13117   0.587   5.251   3.799  1.1248 -1.6679 -0.5254
  123SOPE  H15S13118   0.587   5.388   3.689 -0.4956  0.1967 -0.4662
  123SOPE  C21613119   0.654   5.438   3.887 -0.3642 -0.3980 -0.1052
  123SOPE  H16R13120   0.737   5.509   3.867 -1.0721  0.9063  1.3676
  123SOPE  H16S13121   0.683   5.401   3.988  0.6256  2.7169  0.8600
  123SOPE  C21713122   0.524   5.526   3.898  0.3265  0.4666 -0.7556
  123SOPE  H17R13123   0.524   5.603   3.819  1.8946  2.1700  0.8050
  123SOPE  H17S13124   0.538   5.587   3.990 -1.9998  0.1468 -0.1413
  123SOPE  C21813125   0.387   5.448   3.914 -0.2407 -0.0406  0.5594
  123SOPE  H18R13126   0.338   5.398   3.828 -3.0073 -1.7844  2.9542
  123SOPE  H18S13127   0.304   5.518   3.940 -0.7859 -0.6740  0.5448
  123SOPE  H18T13128   0.384   5.372   3.994  1.5016  0.6450  1.3279
  123SOPE   C3313129   1.362   5.087   2.748 -0.2832 -0.2054 -0.1889
  123SOPE   H3X13130   1.354   5.027   2.655 -1.0131 -0.1290 -0.1808
  123SOPE   H3Y13131   1.258   5.102   2.785 -0.1462  1.4235 -0.3808
  123SOPE   C3413132   1.443   5.023   2.864 -0.3649 -0.5142 -0.0100
  123SOPE   H4X13133   1.552   5.029   2.847 -0.4684 -1.9709 -1.4507
  123SOPE   H4Y13134   1.434   4.914   2.847  0.6156 -0.4049 -1.3761
  123SOPE   C3513135   1.406   5.062   3.000 -0.4416  0.6735  0.4997
  123SOPE   H5X13136   1.313   5.005   3.024  0.8278 -1.9510 -0.4908
  123SOPE   H5Y13137   1.389   5.171   3.017  0.1155  1.0821 -1.3985
  123SOPE   C3613138   1.500   5.022   3.108 -0.4483 -0.5051  0.1419
  123SOPE   H6X13139   1.604   5.058   3.093 -0.6145 -1.0656 -2.9416
  123SOPE   H6Y13140   1.518   4.913   3.101 -0.0630 -0.3720 -1.2441
  123SOPE   C3713141   1.460   5.065   3.245 -0.0147 -0.2179 -1.2471
  123SOPE   H7X13142   1.359   5.034   3.280 -0.3097  2.3045  0.4101
  123SOPE   H7Y13143   1.473   5.172   3.271 -0.2491 -0.7955  1.5936
  123SOPE   C3813144   1.553   4.996   3.347 -0.1301  0.3124  0.6205
  123SOPE   H8X13145   1.655   5.039   3.346  0.0330 -0.0804 -0.2774
  123SOPE   H8Y13146   1.560   4.889   3.320  3.6672 -0.3304  3.3706
  123SOPE   C3913147   1.507   5.009   3.487 -0.1330  0.2481  0.1300
  123SOPE   H9X13148   1.399   4.987   3.503 -0.0061  0.8639  2.0986
  123SOPE   H9Y13149   1.524   5.118   3.492  2.9741 -0.1003 -1.0052
  123SOPE  C31013150   1.603   4.943   3.585  0.1136  0.1733  0.3196
  123SOPE  H10X13151   1.694   5.006   3.592  0.9888 -1.1586  1.3628
  123SOPE  H10Y13152   1.629   4.845   3.540  0.2219  0.8731 -1.2110
  123SOPE  C31113153   1.548   4.933   3.733 -0.3802 -0.0886 -0.4353
  123SOPE  H11X13154   1.457   4.869   3.729 -0.6397  0.2723 -0.4109
  123SOPE  H11Y13155   1.510   5.030   3.771 -0.2360  1.0328 -2.9390
  123SOPE  C31213156   1.654   4.883   3.836 -0.6515 -0.3160 -0.3664
  123SOPE  H12X13157   1.730   4.962   3.854  0.0615 -0.9817 -0.3958
  123SOPE  H12Y13158   1.693   4.780   3.822  1.1227  0.3418 -0.4285
  123SOPE  C31313159   1.585   4.875   3.974 -0.4500 -0.3350 -0.5733
  123SOPE  H13X13160   1.508   4.796   3.986 -0.0531 -0.3986  2.6054
  123SOPE  H13Y13161   1.540   4.975   3.995 -0.2120 -0.5525  1.1084
  123SOPE  C31413162   1.693   4.858   4.086 -1.0173 -0.2791 -0.1897
  123SOPE  H14X13163   1.759   4.947   4.083 -0.1926 -0.8618  0.3868
  123SOPE  H14Y13164   1.752   4.769   4.055  0.4011  0.8977 -0.9968
  123SOPE  C31513165   1.636   4.841   4.223 -0.6143  0.5132 -0.2485
  123SOPE  H15X13166   1.721   4.809   4.287 -0.8820  1.8485  0.8197
  123SOPE  H15Y13167   1.563   4.759   4.211  0.0188 -0.1453  0.2994
  123SOPE  C31613168   1.572   4.964   4.278 -0.0126 -0.0355 -0.1910
  123SOPE  H16X13169   1.526   4.930   4.374 -0.9109  2.3889  0.3233
  123SOPE  H16Y13170   1.491   4.999   4.211  0.0821  2.0829  0.7141
  123SOPE  C31713171   1.666   5.075   4.306 -0.6335 -0.0818 -0.1781
  123SOPE  H17X13172   1.697   5.124   4.211  2.4624  0.0584  0.7832
  123SOPE  H17Y13173   1.759   5.027   4.345 -0.1484 -1.3317 -2.6699
  123SOPE  C31813174   1.615   5.182   4.406 -0.7549  0.0542  0.2678
  123SOPE  H18X13175   1.698   5.240   4.450 -0.7812  2.3253 -2.4157
  123SOPE  H18Y13176   1.547   5.131   4.478 -2.3457  2.0589  0.2587
  123SOPE  H18Z13177   1.554   5.255   4.348  0.3568  0.8354  0.0592
  124SOPE     N13178   3.843   2.283   2.076  0.0010 -0.2121  0.3725
  124SOPE   HN113179   3.933   2.244   2.108  1.0087  1.4570 -0.3036
  124SOPE   HN213180   3.835   2.378   2.117  0.5809  0.3782 -0.8398
  124SOPE   HN313181   3.769   2.221   2.115  0.1690 -0.2156  0.6864
  124SOPE   C1213182   3.845   2.287   1.921 -0.5127  0.3607 -0.2182
  124SOPE  H12A13183   3.923   2.358   1.887 -0.9067  0.1675 -1.6080
  124SOPE  H12B13184   3.743   2.326   1.900 -1.5108 -1.4583  0.9731
  124SOPE   C1113185   3.870   2.144   1.868 -0.4059  0.1772  0.0908
  124SOPE  H11A13186   3.855   2.134   1.758 -2.4933 -0.1842  0.3580
  124SOPE  H11B13187   3.792   2.072   1.902 -1.7099  0.2244 -2.5693
  124SOPE     P13188   4.128   2.110   1.842 -0.0645  0.4030 -0.1839
  124SOPE   O1313189   4.141   2.256   1.801 -0.1657  0.6960  0.3221
  124SOPE   O1413190   4.137   2.011   1.732  0.5295  0.1566 -0.1235
  124SOPE   O1213191   3.993   2.090   1.914 -0.2204 -0.0432 -0.5330
  124SOPE   O1113192   4.227   2.064   1.961 -0.6296 -0.3362  0.7266
  124SOPE    C113193   4.205   1.930   2.017  0.2712 -0.0360 -0.0053
  124SOPE    HA13194   4.301   1.879   2.038  0.8221  0.5387 -1.0437
  124SOPE    HB13195   4.153   1.872   1.938 -1.3349 -0.3389  1.2172
  124SOPE    C213196   4.124   1.940   2.150  0.1824  0.1385 -0.1785
  124SOPE    HS13197   4.027   1.987   2.123  0.7031  0.6754 -1.1962
  124SOPE   O2113198   4.197   2.022   2.252  0.6124  0.1700  0.4524
  124SOPE   C2113199   4.151   2.141   2.261 -0.3005  0.3401 -0.5579
  124SOPE   O2213200   4.058   2.187   2.197  0.4862 -0.2032  0.3414
  124SOPE   C2213201   4.223   2.222   2.368 -0.1776 -0.1236 -0.1318
  124SOPE   H2R13202   4.156   2.301   2.407  0.7067  0.7544 -0.3504
  124SOPE   H2S13203   4.305   2.276   2.316 -2.2916  2.4546 -0.9620
  124SOPE    C313204   4.089   1.798   2.204  0.4550  0.2575 -0.7524
  124SOPE    HX13205   4.187   1.754   2.234  0.9724  0.2778 -2.3296
  124SOPE    HY13206   4.044   1.744   2.118 -0.7726 -0.2313  0.1682
  124SOPE   O3113207   3.995   1.801   2.314  0.3033  0.5282 -0.1077
  124SOPE   C3113208   3.988   1.685   2.380 -0.1235 -0.4339  0.4739
  124SOPE   O3213209   4.021   1.582   2.329  0.0830  0.0086 -0.0040
  124SOPE   C3213210   3.923   1.701   2.517 -0.2274  0.9844  0.8438
  124SOPE   H2X13211   3.832   1.763   2.503  0.4101  1.6661 -0.3373
  124SOPE   H2Y13212   3.985   1.769   2.579 -0.3249  2.8304 -0.9883
  124SOPE   C2313213   4.265   2.143   2.495  0.5002 -0.5814  0.4988
  124SOPE   H3R13214   4.364   2.095   2.479  0.8371  1.0817 -3.5147
  124SOPE   H3S13215   4.188   2.066   2.516 -0.5404  0.4015  0.3638
  124SOPE   C2413216   4.267   2.236   2.615  0.2801 -0.4621  0.4164
  124SOPE   H4R13217   4.330   2.322   2.584  0.0682  0.7857  3.1693
  124SOPE   H4S13218   4.163   2.273   2.630  0.5479  1.1653 -1.3915
  124SOPE   C2513219   4.320   2.172   2.745  0.1223 -0.4599  0.5305
  124SOPE   H5R13220   4.273   2.072   2.739 -0.2049 -0.2335 -1.3457
  124SOPE   H5S13221   4.429   2.156   2.737  0.1213  0.2939 -1.5308
  124SOPE   C2613222   4.266   2.243   2.865 -0.5751 -0.8461 -0.6734
  124SOPE   H6R13223   4.266   2.353   2.853  0.6754 -0.7461  0.0661
  124SOPE   H6S13224   4.164   2.209   2.891 -0.3941 -1.7257 -1.0639
  124SOPE   C2713225   4.348   2.226   2.997  0.2225 -0.3547  0.6816
  124SOPE   H7R13226   4.341   2.119   3.026  3.0809 -0.8632 -0.1826
  124SOPE   H7S13227   4.457   2.241   2.984 -0.3408  2.7511 -1.8406
  124SOPE   C2813228   4.299   2.325   3.103  0.0164  0.3921  0.3744
  124SOPE   H8R13229   4.304   2.424   3.052 -3.3611 -0.6043 -2.2832
  124SOPE   H8S13230   4.191   2.303   3.112  0.2043 -0.1138  1.5545
  124SOPE   C2913231   4.390   2.314   3.222  0.6635 -0.5741 -0.5639
  124SOPE   H9113232   4.496   2.341   3.203  0.6767  0.5718  0.9854
  124SOPE  C21013233   4.351   2.291   3.343 -0.0976  0.6379 -0.0804
  124SOPE  H10113234   4.430   2.266   3.415  1.7692 -0.9276 -2.5157
  124SOPE  C21113235   4.207   2.255   3.384 -0.4061  0.0359 -0.1274
  124SOPE  H11R13236   4.190   2.155   3.430 -1.7644 -0.8967 -2.4914
  124SOPE  H11S13237   4.128   2.247   3.306  0.3487 -0.6059 -0.8344
  124SOPE  C21213238   4.145   2.373   3.464  0.0920 -0.1395 -0.0194
  124SOPE  H12R13239   4.036   2.362   3.480 -0.0011  0.0733 -0.4941
  124SOPE  H12S13240   4.151   2.468   3.408  0.0595 -2.2826 -4.0274
  124SOPE  C21313241   4.186   2.361   3.615 -0.4415 -0.8966  0.4931
  124SOPE  H13R13242   4.293   2.389   3.622 -0.5905 -0.2993  0.4453
  124SOPE  H13S13243   4.182   2.256   3.652 -0.7632 -0.0990  2.9150
  124SOPE  C21413244   4.103   2.449   3.702  0.1453  0.0538  0.1108
  124SOPE  H14R13245   3.996   2.431   3.678  0.5318  0.6511 -2.3367
  124SOPE  H14S13246   4.121   2.557   3.687  1.1112 -0.2939 -1.5716
  124SOPE  C21513247   4.127   2.425   3.854 -0.1020 -0.2239 -0.0945
  124SOPE  H15R13248   4.227   2.468   3.875 -1.0240  1.9359  0.1180
  124SOPE  H15S13249   4.116   2.318   3.883 -2.1072 -0.1761 -0.5490
  124SOPE  C21613250   4.023   2.494   3.937 -0.4158  0.1752  1.2165
  124SOPE  H16R13251   3.920   2.464   3.906 -0.7506  1.2485  1.2414
  124SOPE  H16S13252   4.036   2.602   3.916 -0.9735 -0.1497 -1.0569
  124SOPE  C21713253   4.041   2.465   4.088 -0.8300 -0.0385 -0.0059
  124SOPE  H17R13254   4.144   2.497   4.116 -1.1467  1.6132 -0.6294
  124SOPE  H17S13255   4.032   2.355   4.101 -0.3248 -0.2230 -1.1005
  124SOPE  C21813256   3.938   2.537   4.174 -0.4708 -0.7826 -0.4027
  124SOPE  H18R13257   3.949   2.510   4.281 -0.3323  0.4687 -0.0810
  124SOPE  H18S13258   3.834   2.526   4.138 -0.9637  1.4516  0.1947
  124SOPE  H18T13259   3.955   2.647   4.166 -1.4878 -0.6252 -0.4720
  124SOPE   C3313260   3.891   1.567   2.582 -0.2073  0.0227  0.6484
  124SOPE   H3X13261   3.990   1.518   2.596 -0.4794 -0.7697 -0.1343
  124SOPE   H3Y13262   3.842   1.501   2.508 -1.7865 -0.4232  2.0241
  124SOPE   C3413263   3.813   1.570   2.714  0.1377  0.1444  0.5225
  124SOPE   H4X13264   3.800   1.463   2.743  0.4311  0.2140  0.9175
  124SOPE   H4Y13265   3.714   1.614   2.687 -0.8626 -1.3020  1.6710
  124SOPE   C3513266   3.887   1.634   2.820  0.2126  0.1901 -0.9358
  124SOPE   H5X13267   3.920   1.736   2.794  0.6364  1.2368  3.0216
  124SOPE   H5Y13268   3.979   1.572   2.827  0.2040 -0.0246 -2.3608
  124SOPE   C3613269   3.808   1.645   2.950 -0.4678 -0.5029 -0.1842
  124SOPE   H6X13270   3.750   1.551   2.964 -0.4106 -0.9845 -2.7885
  124SOPE   H6Y13271   3.736   1.728   2.933  0.7208  0.4282 -0.8628
  124SOPE   C3713272   3.887   1.682   3.079  0.5591  0.8835  0.0501
  124SOPE   H7X13273   3.930   1.784   3.062  1.7162  0.3777 -0.1923
  124SOPE   H7Y13274   3.979   1.620   3.091  2.1418  2.9191 -0.9111
  124SOPE   C3813275   3.800   1.684   3.202 -0.5312  0.1155  0.3069
  124SOPE   H8X13276   3.745   1.587   3.210  1.4970 -1.5061 -3.1904
  124SOPE   H8Y13277   3.722   1.758   3.176  1.5838  1.8029 -1.6516
  124SOPE   C3913278   3.873   1.716   3.335 -0.1461  0.7715  0.5986
  124SOPE   H9X13279   3.806   1.723   3.423  0.3116 -2.8414  1.4125
  124SOPE   H9Y13280   3.929   1.811   3.322  0.2178  0.7240  1.6873
  124SOPE  C31013281   3.964   1.598   3.383 -0.2762 -0.1832 -0.3129
  124SOPE  H10X13282   4.038   1.564   3.308  0.4413  2.0139 -0.6779
  124SOPE  H10Y13283   3.908   1.503   3.395  0.0423 -0.5713 -1.7614
  124SOPE  C31113284   4.034   1.640   3.511 -0.5796  0.2126 -0.2785
  124SOPE  H11X13285   4.061   1.747   3.501 -1.4571  0.7285  2.0982
  124SOPE  H11Y13286   4.132   1.589   3.504  0.3974  2.1281 -1.3582
  124SOPE  C31213287   3.973   1.609   3.646  0.1805  0.8897  0.0799
  124SOPE  H12X13288   3.920   1.511   3.657 -0.6428  0.9429 -2.7190
  124SOPE  H12Y13289   3.898   1.687   3.671  0.7765  1.1909  0.9594
  124SOPE  C31313290   4.074   1.606   3.760 -0.4761  0.9417 -0.1940
  124SOPE  H13X13291   4.141   1.694   3.766 -1.5036  1.7048  0.3888
  124SOPE  H13Y13292   4.135   1.515   3.740 -2.0125  0.2441 -2.0533
  124SOPE  C31413293   4.012   1.601   3.896  0.4907 -0.3301 -0.6683
  124SOPE  H14X13294   3.932   1.524   3.903 -0.5072  0.7782  0.5351
  124SOPE  H14Y13295   3.958   1.696   3.917 -1.1322 -0.9677 -1.7040
  124SOPE  C31513296   4.113   1.560   4.009 -1.0848 -0.7050 -0.3886
  124SOPE  H15X13297   4.199   1.629   4.021 -0.7738 -0.6151 -2.7526
  124SOPE  H15Y13298   4.168   1.465   3.987 -2.4231 -1.9924  1.4839
  124SOPE  C31613299   4.039   1.513   4.139  0.1295 -0.0066  0.7646
  124SOPE  H16X13300   3.952   1.449   4.116  0.1722 -1.6086  4.3478
  124SOPE  H16Y13301   3.990   1.600   4.188 -1.7208 -0.5455 -0.0615
  124SOPE  C31713302   4.125   1.428   4.239 -0.2632 -0.7189 -0.1494
  124SOPE  H17X13303   4.191   1.487   4.306  0.3398  0.0103 -1.3508
  124SOPE  H17Y13304   4.200   1.371   4.180  0.3372 -1.7618  1.5515
  124SOPE  C31813305   4.033   1.338   4.312  0.8824 -0.1456  0.4762
  124SOPE  H18X13306   3.969   1.284   4.239  2.8765 -0.0889 -1.4336
  124SOPE  H18Y13307   3.964   1.397   4.376  0.1490 -0.8963  0.3996
  124SOPE  H18Z13308   4.084   1.263   4.376  2.1619 -0.4293 -0.8204
  125SOPE     N13309   4.606   0.304   1.841 -0.1749  0.0008 -0.1123
  125SOPE   HN113310   4.690   0.315   1.901 -2.1026  0.9399  2.6095
  125SOPE   HN213311   4.631   0.237   1.765  0.0335  1.7717 -1.6888
  125SOPE   HN313312   4.583   0.398   1.801  0.8546  1.1527  1.8505
  125SOPE   C1213313   4.500   0.253   1.942  0.4977  0.0068  0.4948
  125SOPE  H12A13314   4.406   0.244   1.884  0.1137 -0.7698  1.2048
  125SOPE  H12B13315   4.498   0.336   2.016  1.3063  0.3452  0.1417
  125SOPE   C1113316   4.540   0.113   2.002  0.8219  0.3156  0.3188
  125SOPE  H11A13317   4.585   0.063   1.913 -1.3513  2.9674 -2.4805
  125SOPE  H11B13318   4.453   0.058   2.043  2.7191 -1.5222  2.1169
  125SOPE     P13319   4.778   0.118   2.084  0.2380  0.0029 -0.0420
  125SOPE   O1313320   4.824   0.202   1.970 -0.4331 -0.3953  0.3114
  125SOPE   O1413321   4.800  -0.026   2.075 -0.3849 -0.0244  0.2647
  125SOPE   O1213322   4.620   0.139   2.113 -0.8738  0.4581 -0.3135
  125SOPE   O1113323   4.849   0.168   2.217  0.3335  0.1934  0.3256
  125SOPE    C113324   4.774   0.203   2.328  0.2272 -0.2287 -0.7135
  125SOPE    HA13325   4.709   0.118   2.360  1.5281  0.0292  3.1148
  125SOPE    HB13326   4.703   0.285   2.306  0.5308  0.0671 -0.5835
  125SOPE    C213327   4.865   0.261   2.443  0.1552 -0.1847 -0.1495
  125SOPE    HS13328   4.940   0.330   2.399  1.1635 -0.9805  0.2666
  125SOPE   O2113329   4.931   0.162   2.517 -0.4745 -0.3401 -0.2207
  125SOPE   C2113330   5.047   0.205   2.569 -0.4400  0.1718  0.2366
  125SOPE   O2213331   5.086   0.319   2.578 -0.4408 -0.2554 -0.6069
  125SOPE   C2213332   5.127   0.081   2.628  0.4788 -0.2437 -0.6952
  125SOPE   H2R13333   5.214   0.072   2.559  0.7348 -1.4826 -0.2481
  125SOPE   H2S13334   5.066  -0.011   2.613 -0.5774  0.4469 -0.7118
  125SOPE    C313335   4.788   0.349   2.539  0.4875  0.3040  0.0431
  125SOPE    HX13336   4.731   0.434   2.494 -1.0748 -0.3870  0.6445
  125SOPE    HY13337   4.854   0.407   2.607  0.3632 -1.7901  2.0694
  125SOPE   O3113338   4.692   0.266   2.614 -0.2143  0.4336 -0.3012
  125SOPE   C3113339   4.716   0.238   2.741 -0.6306  0.2485 -0.7614
  125SOPE   O3213340   4.808   0.286   2.810  0.2679  0.2253  0.3694
  125SOPE   C3213341   4.631   0.117   2.781  0.5242  0.6333 -0.2770
  125SOPE   H2X13342   4.663   0.030   2.721  0.3695 -0.8176  1.6386
  125SOPE   H2Y13343   4.523   0.133   2.759  0.7889  1.0415 -1.3073
  125SOPE   C2313344   5.184   0.099   2.772 -0.0013  0.3430  0.0192
  125SOPE   H3R13345   5.243   0.194   2.770 -0.9888  0.9616 -1.7444
  125SOPE   H3S13346   5.239   0.004   2.791 -0.7152 -0.2050 -0.6109
  125SOPE   C2413347   5.074   0.105   2.883  0.5208 -0.3082  0.1347
  125SOPE   H4R13348   5.043   0.208   2.910 -1.9967 -0.4182 -1.9115
  125SOPE   H4S13349   4.986   0.047   2.845  0.0361 -0.4770  1.4479
  125SOPE   C2513350   5.131   0.032   3.014  0.9308 -0.0138 -0.3989
  125SOPE   H5R13351   5.174  -0.066   2.984 -0.3555 -0.2557 -1.5742
  125SOPE   H5S13352   5.209   0.102   3.050  1.5032 -0.5372 -0.6004
  125SOPE   C2613353   5.027   0.012   3.127 -0.3711 -0.0545 -0.2016
  125SOPE   H6R13354   4.955  -0.065   3.091  0.4831 -1.5754  1.2021
  125SOPE   H6S13355   5.085  -0.027   3.214  1.6140  0.1980 -1.3569
  125SOPE   C2713356   4.950   0.137   3.176  0.4882  0.0740  0.5954
  125SOPE   H7R13357   4.932   0.200   3.087  0.3836 -1.4839 -0.5290
  125SOPE   H7S13358   4.853   0.119   3.227 -0.6647 -2.2974 -2.1680
  125SOPE   C2813359   5.035   0.225   3.283  0.0110 -0.0740 -0.4232
  125SOPE   H8R13360   5.060   0.159   3.368  1.0174 -2.3749 -2.4067
  125SOPE   H8S13361   5.130   0.256   3.235  1.3550 -1.5314  1.1479
  125SOPE   C2913362   4.951   0.342   3.326 -0.5546  0.0635 -0.0945
  125SOPE   H9113363   4.918   0.401   3.239  1.2035  1.9919  0.4617
  125SOPE  C21013364   4.890   0.359   3.438  0.7887  0.6290 -0.1171
  125SOPE  H10113365   4.850   0.459   3.463  1.7241  0.6882  1.2464
  125SOPE  C21113366   4.875   0.268   3.558 -0.3259 -0.5676  0.3671
  125SOPE  H11R13367   4.890   0.161   3.532  0.8025 -0.7880  1.8063
  125SOPE  H11S13368   4.778   0.279   3.611  0.0276 -0.4742  1.0135
  125SOPE  C21213369   4.984   0.286   3.664  0.0527  0.0841 -0.2400
  125SOPE  H12R13370   4.992   0.396   3.675 -1.0896  0.0964  0.7300
  125SOPE  H12S13371   5.085   0.248   3.640  0.2024 -1.2942  2.3135
  125SOPE  C21313372   4.946   0.219   3.791 -0.7918  0.0848  0.0231
  125SOPE  H13R13373   4.924   0.112   3.772 -0.9443 -0.0279  0.8151
  125SOPE  H13S13374   4.855   0.259   3.840  0.8174 -0.5046  3.8330
  125SOPE  C21413375   5.059   0.239   3.904  0.4144  0.2332 -0.4058
  125SOPE  H14R13376   5.154   0.215   3.851  1.4482  2.4411  0.3241
  125SOPE  H14S13377   5.022   0.176   3.988 -0.5265  0.7967 -0.3844
  125SOPE  C21513378   5.083   0.387   3.934  0.2133  0.1380  0.5065
  125SOPE  H15R13379   4.984   0.439   3.932  0.0658 -0.1546 -0.4622
  125SOPE  H15S13380   5.151   0.437   3.862 -1.7686  1.8001 -0.3426
  125SOPE  C21613381   5.153   0.405   4.077 -0.2365  0.7307  0.0888
  125SOPE  H16R13382   5.151   0.515   4.089  1.6721  0.6947  0.9947
  125SOPE  H16S13383   5.259   0.373   4.078 -0.9125 -1.8035 -0.8610
  125SOPE  C21713384   5.073   0.336   4.194  0.2575 -0.1062  0.4265
  125SOPE  H17R13385   5.072   0.225   4.186  0.6774 -0.0771 -0.0600
  125SOPE  H17S13386   4.976   0.390   4.188 -0.4770 -1.2301  1.5891
  125SOPE  C21813387   5.120   0.362   4.330  0.4082 -0.6211 -0.6474
  125SOPE  H18R13388   5.130   0.470   4.353 -4.4492  0.0604 -0.7566
  125SOPE  H18S13389   5.214   0.307   4.352 -0.1886 -1.3710  0.1224
  125SOPE  H18T13390   5.051   0.332   4.412  0.4025  2.8145  0.7533
  125SOPE   C3313391   4.636   0.091   2.935  0.8257 -0.1207  0.6681
  125SOPE   H3X13392   4.640   0.191   2.982 -0.2483  1.0300 -1.5405
  125SOPE   H3Y13393   4.730   0.041   2.965  3.1153  2.1653 -2.1194
  125SOPE   C3413394   4.517   0.016   2.995  0.1244 -0.1859 -0.0292
  125SOPE   H4X13395   4.513  -0.090   2.962 -2.1911 -0.0272 -0.3622
  125SOPE   H4Y13396   4.415   0.050   2.968 -0.2594  0.0665  1.6372
  125SOPE   C3513397   4.525  -0.004   3.153  0.3028  0.0816 -0.3153
  125SOPE   H5X13398   4.597  -0.085   3.181 -1.0572 -1.0629 -0.0346
  125SOPE   H5Y13399   4.427  -0.049   3.180 -1.4800  4.0210  0.3615
  125SOPE   C3613400   4.534   0.126   3.235 -0.0807  0.2941  0.4200
  125SOPE   H6X13401   4.435   0.173   3.219 -0.2068 -0.2176 -0.3721
  125SOPE   H6Y13402   4.614   0.193   3.196 -0.3961 -0.1261 -1.0152
  125SOPE   C3713403   4.575   0.085   3.382 -0.1994  0.6030  0.2598
  125SOPE   H7X13404   4.623   0.169   3.436 -0.4975  0.5643  0.5854
  125SOPE   H7Y13405   4.654   0.011   3.359 -0.7509  0.0662  0.0484
  125SOPE   C3813406   4.465   0.038   3.473 -0.1071  0.4795  0.5506
  125SOPE   H8X13407   4.429  -0.062   3.440 -0.5039  0.2932  1.5398
  125SOPE   H8Y13408   4.376   0.101   3.452 -0.9882 -1.3345 -1.7288
  125SOPE   C3913409   4.513   0.013   3.620 -0.2805 -0.0979  0.4637
  125SOPE   H9X13410   4.608  -0.043   3.620  1.4570  2.5144  3.2788
  125SOPE   H9Y13411   4.440  -0.061   3.660  0.4788 -0.9276  0.3443
  125SOPE  C31013412   4.516   0.139   3.710 -0.0033 -0.0396  0.1683
  125SOPE  H10X13413   4.604   0.192   3.667 -0.5342  0.2315 -0.6237
  125SOPE  H10Y13414   4.540   0.107   3.813 -1.8517  0.0989  0.6798
  125SOPE  C31113415   4.388   0.222   3.712  0.0660 -0.4754  0.3727
  125SOPE  H11X13416   4.295   0.163   3.701 -0.6413  0.9313 -1.8289
  125SOPE  H11Y13417   4.391   0.286   3.621  0.3049 -1.7392 -0.5345
  125SOPE  C31213418   4.371   0.324   3.823 -0.2403 -0.4752 -0.2628
  125SOPE  H12X13419   4.284   0.389   3.800 -0.1456  0.1030  0.9130
  125SOPE  H12Y13420   4.451   0.400   3.808 -0.3126 -0.7630 -2.3781
  125SOPE  C31313421   4.371   0.270   3.962  0.9956  0.0844 -0.3168
  125SOPE  H13X13422   4.449   0.200   3.999  1.6175  0.6689 -0.5027
  125SOPE  H13Y13423   4.274   0.217   3.968  0.4585  0.8476 -1.6927
  125SOPE  C31413424   4.367   0.398   4.055 -0.2065 -0.1077  1.0191
  125SOPE  H14X13425   4.283   0.462   4.021  0.9629  0.8351 -0.2031
  125SOPE  H14Y13426   4.464   0.452   4.052 -0.5820  0.5210 -0.3154
  125SOPE  C31513427   4.349   0.364   4.208  0.2138  0.1001 -0.3374
  125SOPE  H15X13428   4.349   0.463   4.259 -0.5961 -0.2253  0.3126
  125SOPE  H15Y13429   4.435   0.304   4.243 -1.1562 -1.6409  0.1982
  125SOPE  C31613430   4.215   0.288   4.242  0.3109 -0.3312  0.1912
  125SOPE  H16X13431   4.219   0.263   4.350  1.6109 -0.9355  0.0164
  125SOPE  H16Y13432   4.207   0.192   4.186  0.2274 -0.4244  0.3597
  125SOPE  C31713433   4.085   0.362   4.208 -0.7868 -0.5627  0.2394
  125SOPE  H17X13434   4.099   0.395   4.102 -0.9480  1.6610  0.8749
  125SOPE  H17Y13435   4.090   0.457   4.265  0.7695  0.2157 -1.0902
  125SOPE  C31813436   3.958   0.281   4.227 -0.5639  0.6629  0.2387
  125SOPE  H18X13437   3.872   0.326   4.172 -1.2232  0.8837  1.4176
  125SOPE  H18Y13438   3.934   0.274   4.335 -0.8030  2.3359  0.3131
  125SOPE  H18Z13439   3.972   0.181   4.181 -0.6528  1.4235 -1.5134
  126SOPE     N13440   2.713   4.386   1.862  0.6405 -0.1717  0.4455
  126SOPE   HN113441   2.697   4.430   1.955 -2.1222 -0.1126  0.0305
  126SOPE   HN213442   2.811   4.353   1.855  0.6131 -0.0379 -0.7274
  126SOPE   HN313443   2.699   4.461   1.791  3.6795 -0.9525 -1.1302
  126SOPE   C1213444   2.622   4.265   1.861 -0.0111  0.2015 -0.1040
  126SOPE  H12A13445   2.638   4.218   1.960  2.0586 -0.2966 -0.6289
  126SOPE  H12B13446   2.666   4.200   1.783 -1.0989 -0.2433 -0.3690
  126SOPE   C1113447   2.469   4.292   1.842 -0.1659 -0.5938  0.0476
  126SOPE  H11A13448   2.410   4.202   1.816 -0.5040  0.1373 -1.8215
  126SOPE  H11B13449   2.462   4.359   1.754  0.0538 -0.4531  0.1354
  126SOPE     P13450   2.268   4.373   1.985 -0.0525 -0.3143 -0.5446
  126SOPE   O1313451   2.193   4.427   1.866 -0.0597 -0.6023 -0.3268
  126SOPE   O1413452   2.260   4.444   2.117  0.2568  0.1974 -0.1527
  126SOPE   O1213453   2.423   4.360   1.961 -0.3736  0.3773  0.1847
  126SOPE   O1113454   2.223   4.226   2.016  0.1673  0.0859  0.0238
  126SOPE    C113455   2.089   4.191   2.050  0.2708 -0.1675 -0.4413
  126SOPE    HA13456   2.056   4.090   2.017 -0.0173 -0.3575  0.4114
  126SOPE    HB13457   2.010   4.260   2.011  1.4377  1.0355 -0.7452
  126SOPE    C213458   2.064   4.191   2.208  0.8325 -0.7805  0.5148
  126SOPE    HS13459   2.070   4.296   2.243 -2.5919  0.1038 -1.0738
  126SOPE   O2113460   2.154   4.099   2.270  0.3667  0.3595 -0.1190
  126SOPE   C2113461   2.221   4.155   2.376  0.6545  0.1984  0.8972
  126SOPE   O2213462   2.210   4.272   2.413  0.2074 -0.0111 -0.5811
  126SOPE   C2213463   2.315   4.046   2.425  0.4169 -0.5341 -0.8826
  126SOPE   H2R13464   2.414   4.088   2.450  0.1931  0.5480 -1.7105
  126SOPE   H2S13465   2.330   3.968   2.347 -0.4226 -2.0108  0.3699
  126SOPE    C313466   1.914   4.155   2.244 -0.3712 -0.3023  0.3997
  126SOPE    HX13467   1.890   4.055   2.201 -1.5811 -0.1049  0.5930
  126SOPE    HY13468   1.850   4.225   2.187  0.0611  0.6838  1.1070
  126SOPE   O3113469   1.880   4.167   2.385 -0.6586  0.1925  0.7240
  126SOPE   C3113470   1.880   4.284   2.448  0.4283 -0.1822 -0.5973
  126SOPE   O3213471   1.892   4.392   2.399  0.3448 -0.8595  0.1677
  126SOPE   C3213472   1.877   4.263   2.611 -0.4284  0.2098  0.1226
  126SOPE   H2X13473   1.935   4.169   2.623  0.6107  0.9275  0.8996
  126SOPE   H2Y13474   1.773   4.258   2.650 -0.0146  2.2032  1.6163
  126SOPE   C2313475   2.261   3.984   2.554 -0.0819 -0.3914  0.0337
  126SOPE   H3R13476   2.333   3.904   2.581  3.0560  1.8926 -0.9922
  126SOPE   H3S13477   2.167   3.927   2.537 -0.2972  0.8856 -4.0597
  126SOPE   C2413478   2.260   4.077   2.676  0.0247  0.5622  0.5918
  126SOPE   H4R13479   2.355   4.133   2.692  1.0719 -1.3469  1.3884
  126SOPE   H4S13480   2.180   4.151   2.653 -1.9777 -1.7516 -0.3646
  126SOPE   C2513481   2.234   3.999   2.808 -0.8900  0.6534  0.6092
  126SOPE   H5R13482   2.134   3.951   2.808 -0.8550  0.5320 -0.7593
  126SOPE   H5S13483   2.309   3.918   2.819 -0.4861  0.5460 -2.1501
  126SOPE   C2613484   2.242   4.100   2.923  0.0541  0.0573 -0.2804
  126SOPE   H6R13485   2.343   4.146   2.926 -0.4308  2.0545 -5.2686
  126SOPE   H6S13486   2.161   4.173   2.908 -2.0565 -2.4066 -1.7270
  126SOPE   C2713487   2.225   4.030   3.060  0.1076 -0.1071  0.7007
  126SOPE   H7R13488   2.144   3.955   3.046  2.1717 -2.6562  1.6816
  126SOPE   H7S13489   2.313   3.963   3.067  0.3369 -0.3765 -2.8312
  126SOPE   C2813490   2.225   4.135   3.178 -0.1825  0.7884 -0.4982
  126SOPE   H8R13491   2.317   4.196   3.172  0.5863  0.1938  3.0727
  126SOPE   H8S13492   2.140   4.205   3.161  0.4841  1.0921 -2.8702
  126SOPE   C2913493   2.212   4.049   3.305 -0.5708 -0.5525  0.3939
  126SOPE   H9113494   2.147   3.960   3.306  0.3807 -1.2837 -0.4883
  126SOPE  C21013495   2.293   4.065   3.408 -0.1839 -0.2270  0.2321
  126SOPE  H10113496   2.285   3.990   3.489  1.2025 -1.1706 -0.4741
  126SOPE  C21113497   2.401   4.164   3.439  0.0859  0.5955  0.4862
  126SOPE  H11R13498   2.400   4.248   3.366  0.4985  0.6752  0.5675
  126SOPE  H11S13499   2.506   4.129   3.433 -0.2687 -0.4144 -0.0933
  126SOPE  C21213500   2.399   4.224   3.581  0.0414 -0.8975 -0.6550
  126SOPE  H12R13501   2.479   4.297   3.605 -2.1981  1.2719  0.5818
  126SOPE  H12S13502   2.414   4.143   3.655  2.0350 -0.6368 -0.7241
  126SOPE  C21313503   2.268   4.299   3.605 -0.3818  0.1049 -0.1079
  126SOPE  H13R13504   2.191   4.276   3.527  1.1400 -0.4271 -1.5048
  126SOPE  H13S13505   2.291   4.406   3.584  0.5551  0.0716  0.7232
  126SOPE  C21413506   2.204   4.301   3.746  0.1430  0.4807 -0.0230
  126SOPE  H14R13507   2.282   4.350   3.808  0.5901  0.3838 -0.4996
  126SOPE  H14S13508   2.198   4.196   3.782  2.2399  0.4979  0.5308
  126SOPE  C21513509   2.076   4.377   3.760 -0.8086  0.6742  0.2319
  126SOPE  H15R13510   2.002   4.325   3.695  1.0441  0.8424 -2.1543
  126SOPE  H15S13511   2.087   4.480   3.720 -0.6776 -0.2795 -2.4276
  126SOPE  C21613512   2.034   4.389   3.906 -0.1292  0.7793  0.4996
  126SOPE  H16R13513   2.119   4.391   3.979  1.1613  1.3595 -0.9590
  126SOPE  H16S13514   1.989   4.292   3.936 -0.8438  1.0078  0.1868
  126SOPE  C21713515   1.938   4.490   3.931  0.0224  0.4191 -0.1321
  126SOPE  H17R13516   1.994   4.586   3.933 -0.2972  0.6296 -0.9108
  126SOPE  H17S13517   1.892   4.482   4.032  1.0893 -4.0199  0.2267
  126SOPE  C21813518   1.834   4.507   3.824 -0.8597  0.8258 -0.8387
  126SOPE  H18R13519   1.761   4.590   3.834 -3.2144 -1.0125 -1.7941
  126SOPE  H18S13520   1.780   4.411   3.810 -0.5925  0.3472  1.2038
  126SOPE  H18T13521   1.878   4.515   3.722 -0.1763 -0.9081 -0.7126
  126SOPE   C3313522   1.967   4.370   2.682  0.3312  0.1344 -0.0534
  126SOPE   H3X13523   1.949   4.474   2.647 -0.2882  0.4861  1.2518
  126SOPE   H3Y13524   2.072   4.347   2.656  0.1555  0.3039 -0.9482
  126SOPE   C3413525   1.939   4.363   2.834 -0.7439  0.0750  0.0946
  126SOPE   H4X13526   1.947   4.261   2.878  1.3647  0.9276  1.8943
  126SOPE   H4Y13527   1.841   4.414   2.849  0.3516  3.4752 -3.0172
  126SOPE   C3513528   2.036   4.453   2.908  0.3519  0.3582  0.3823
  126SOPE   H5X13529   2.052   4.551   2.857  1.9857 -0.3852 -0.5986
  126SOPE   H5Y13530   2.138   4.411   2.918  0.4271  0.4268 -0.0526
  126SOPE   C3613531   1.982   4.480   3.049 -0.2347  0.9787 -0.1814
  126SOPE   H6X13532   1.972   4.378   3.092  2.3133 -0.0461 -1.7831
  126SOPE   H6Y13533   1.885   4.534   3.047 -0.3769  0.8005  0.9924
  126SOPE   C3713534   2.084   4.562   3.134  0.5599  0.0596  0.6122
  126SOPE   H7X13535   2.122   4.654   3.085  1.0369  0.7957  2.2812
  126SOPE   H7Y13536   2.168   4.491   3.144  0.8016  0.3451  0.6207
  126SOPE   C3813537   2.024   4.596   3.271  1.0321  1.0555  0.7332
  126SOPE   H8X13538   1.973   4.504   3.306 -0.1556  0.3112 -2.5506
  126SOPE   H8Y13539   1.944   4.671   3.253 -0.3999 -0.4158  0.7973
  126SOPE   C3913540   2.127   4.656   3.368  0.9748 -0.2221 -0.0454
  126SOPE   H9X13541   2.193   4.730   3.320  0.9467 -0.2829 -0.1772
  126SOPE   H9Y13542   2.174   4.565   3.413  0.4690 -1.2920 -1.6020
  126SOPE  C31013543   2.052   4.722   3.490 -0.7243  0.3877  0.1780
  126SOPE  H10X13544   1.987   4.651   3.546 -0.4698 -0.5208 -0.6385
  126SOPE  H10Y13545   1.984   4.802   3.453  0.2034  1.1083 -0.0060
  126SOPE  C31113546   2.147   4.779   3.595  0.3190  0.3420  0.5087
  126SOPE  H11X13547   2.200   4.863   3.544 -0.5230 -0.4017 -1.7026
  126SOPE  H11Y13548   2.232   4.711   3.616 -0.3564 -0.7487 -0.2311
  126SOPE  C31213549   2.074   4.807   3.723 -0.6359  0.5815  0.0314
  126SOPE  H12X13550   2.020   4.715   3.754 -1.4333  0.3102 -1.9811
  126SOPE  H12Y13551   1.994   4.882   3.708 -1.4477 -0.4689 -1.0941
  126SOPE  C31313552   2.163   4.836   3.843  0.0904  0.1639 -0.6822
  126SOPE  H13X13553   2.093   4.851   3.928 -1.7030 -1.4605 -1.7959
  126SOPE  H13Y13554   2.218   4.932   3.830 -1.5357  0.8931 -2.7402
  126SOPE  C31413555   2.263   4.722   3.870 -0.7220  0.7219 -1.0483
  126SOPE  H14X13556   2.350   4.723   3.801  0.6715  0.3854  0.6685
  126SOPE  H14Y13557   2.204   4.628   3.865 -0.8356  0.6023  1.3756
  126SOPE  C31513558   2.321   4.738   4.013 -0.2648 -0.6348  0.3803
  126SOPE  H15X13559   2.340   4.846   4.031 -1.8628 -0.5107  1.4954
  126SOPE  H15Y13560   2.418   4.684   4.016 -0.4467 -0.9107  1.6247
  126SOPE  C31613561   2.236   4.693   4.130 -0.4846  0.6729 -0.8287
  126SOPE  H16X13562   2.219   4.583   4.125  1.5575  0.2422  0.5167
  126SOPE  H16Y13563   2.138   4.741   4.110 -2.4529 -1.1686  3.1819
  126SOPE  C31713564   2.266   4.754   4.263  0.0098  0.2708 -0.4552
  126SOPE  H17X13565   2.179   4.724   4.325 -1.5424 -1.3899 -3.2258
  126SOPE  H17Y13566   2.253   4.863   4.251  2.0612  0.4932 -0.9155
  126SOPE  C31813567   2.406   4.726   4.315 -0.2764 -0.0186  0.2573
  126SOPE  H18X13568   2.416   4.625   4.362  1.8915  1.1204  2.4832
  126SOPE  H18Y13569   2.435   4.802   4.391 -1.9809  1.2938 -0.3566
  126SOPE  H18Z13570   2.476   4.732   4.229  0.7016  1.1175  1.1042
  127SOPE     N13571   2.298   4.537   2.358  0.0315 -0.4552  0.0872
  127SOPE   HN113572   2.282   4.514   2.257 -0.4261 -2.7192  0.6213
  127SOPE   HN213573   2.377   4.604   2.364  0.0705 -0.6399  2.0738
  127SOPE   HN313574   2.327   4.456   2.415  1.7081 -0.0182 -0.1099
  127SOPE   C1213575   2.174   4.596   2.415  0.1809  0.1526 -0.2260
  127SOPE  H12A13576   2.110   4.513   2.452 -0.8502  1.6931  1.6554
  127SOPE  H12B13577   2.129   4.648   2.328  1.3613 -0.2741 -1.1159
  127SOPE   C1113578   2.215   4.686   2.531  0.7199  0.0321 -0.1268
  127SOPE  H11A13579   2.249   4.619   2.612  0.1965 -0.1671 -0.0677
  127SOPE  H11B13580   2.129   4.739   2.577  1.2296  1.1876 -0.4747
  127SOPE     P13581   2.294   4.915   2.420 -0.0159  0.0868 -0.2758
  127SOPE   O1313582   2.231   4.873   2.293 -0.1301 -0.3181  0.2064
  127SOPE   O1413583   2.421   4.987   2.414 -0.6207 -0.3332 -0.0997
  127SOPE   O1213584   2.321   4.772   2.490  0.2906  0.5820  0.0302
  127SOPE   O1113585   2.202   4.997   2.521  0.3462  0.2731  0.0373
  127SOPE    C113586   2.244   4.984   2.665  0.1409 -1.0218 -0.8363
  127SOPE    HA13587   2.288   4.884   2.682 -0.4766 -0.9994  1.0626
  127SOPE    HB13588   2.156   5.004   2.730  1.9635  2.4775  0.8560
  127SOPE    C213589   2.354   5.092   2.703 -0.4585 -0.7203  0.2119
  127SOPE    HS13590   2.447   5.065   2.648 -1.0217  0.4722 -1.4055
  127SOPE   O2113591   2.372   5.102   2.846  0.2593 -0.0226 -0.2746
  127SOPE   C2113592   2.416   4.988   2.901  0.0831 -0.4844 -0.3825
  127SOPE   O2213593   2.458   4.893   2.841 -0.0057 -0.4307 -0.2858
  127SOPE   C2213594   2.410   5.003   3.052  0.0179  0.7424  0.1442
  127SOPE   H2R13595   2.323   5.065   3.083 -1.2107 -0.9520  0.2308
  127SOPE   H2S13596   2.506   5.044   3.087  1.3282 -0.7339 -1.5323
  127SOPE    C313597   2.316   5.228   2.636  0.2441  0.0405 -0.0713
  127SOPE    HX13598   2.316   5.225   2.525 -1.2538  0.6042 -0.1040
  127SOPE    HY13599   2.386   5.311   2.662  0.2547  0.9714 -2.7717
  127SOPE   O3113600   2.190   5.265   2.697  0.0639 -0.1022  0.2861
  127SOPE   C3113601   2.090   5.306   2.615  0.2159 -0.2174  0.3722
  127SOPE   O3213602   2.102   5.304   2.491  0.2506  0.8850 -0.3216
  127SOPE   C3213603   1.976   5.351   2.703  0.1763 -0.8519  0.4928
  127SOPE   H2X13604   2.011   5.331   2.807  2.5218 -0.8611 -0.2242
  127SOPE   H2Y13605   1.884   5.294   2.679 -0.1695 -0.0816 -0.0332
  127SOPE   C2313606   2.387   4.868   3.134 -0.2515 -0.2793  0.5678
  127SOPE   H3R13607   2.294   4.823   3.095  1.2171 -0.1889 -3.4948
  127SOPE   H3S13608   2.377   4.885   3.243 -1.3847  0.6542  0.3381
  127SOPE   C2413609   2.508   4.768   3.128 -0.1177 -0.3144 -0.0831
  127SOPE   H4R13610   2.516   4.730   3.024 -0.2940 -0.3232 -0.0947
  127SOPE   H4S13611   2.598   4.819   3.167 -0.4890 -0.5509  1.1507
  127SOPE   C2513612   2.483   4.644   3.214 -0.1629 -0.4333  0.0994
  127SOPE   H5R13613   2.375   4.619   3.213 -0.1965 -0.3579 -1.7705
  127SOPE   H5S13614   2.529   4.550   3.176 -0.8928 -2.4753  3.8058
  127SOPE   C2613615   2.525   4.673   3.360  0.1817 -0.2698 -0.2119
  127SOPE   H6R13616   2.635   4.690   3.366  0.2080 -0.9110  1.8676
  127SOPE   H6S13617   2.485   4.768   3.401  0.4959 -0.4497  0.5204
  127SOPE   C2713618   2.493   4.558   3.457  0.5123 -0.3958 -0.4980
  127SOPE   H7R13619   2.383   4.549   3.448  0.6231 -1.2174 -1.2426
  127SOPE   H7S13620   2.524   4.456   3.426 -1.4802 -0.4575 -2.5646
  127SOPE   C2813621   2.536   4.585   3.604 -0.1375  0.4103  0.4363
  127SOPE   H8R13622   2.514   4.692   3.625 -1.6827 -0.0344  1.2673
  127SOPE   H8S13623   2.478   4.516   3.670  0.7912 -0.6984  0.1319
  127SOPE   C2913624   2.681   4.549   3.618 -0.1119  0.0429  0.4478
  127SOPE   H9113625   2.751   4.612   3.561  0.5301 -2.2301 -1.4059
  127SOPE  C21013626   2.741   4.466   3.710  0.6736 -0.1706 -0.6134
  127SOPE  H10113627   2.850   4.457   3.719  0.7365  1.4484  0.8725
  127SOPE  C21113628   2.668   4.382   3.811 -0.7133  0.3770 -0.6690
  127SOPE  H11R13629   2.703   4.277   3.804  0.0913  0.6120 -0.2573
  127SOPE  H11S13630   2.558   4.389   3.800 -0.8635  2.8790  1.4151
  127SOPE  C21213631   2.682   4.433   3.958 -0.5539  0.1036  0.0542
  127SOPE  H12R13632   2.691   4.544   3.966  1.0779 -0.0169  0.2517
  127SOPE  H12S13633   2.783   4.405   3.996 -0.5798  0.0988  0.1205
  127SOPE  C21313634   2.584   4.371   4.055  0.3910  1.1787 -0.2813
  127SOPE  H13R13635   2.483   4.386   4.011  0.3016  2.0488  0.2053
  127SOPE  H13S13636   2.595   4.421   4.153  0.9736  0.1520  0.1907
  127SOPE  C21413637   2.600   4.224   4.083  0.0324 -0.2120  0.0936
  127SOPE  H14R13638   2.707   4.205   4.106  0.5628  0.9756 -1.2547
  127SOPE  H14S13639   2.591   4.164   3.990 -0.0686  0.5203 -0.3800
  127SOPE  C21513640   2.523   4.173   4.203  0.3343 -0.2586  0.0107
  127SOPE  H15R13641   2.421   4.214   4.189  0.4096  0.0813  0.4143
  127SOPE  H15S13642   2.565   4.222   4.294 -1.9257 -0.5814  1.2973
  127SOPE  C21613643   2.510   4.023   4.221 -0.6929  0.0843 -0.1984
  127SOPE  H16R13644   2.612   3.983   4.239  0.2400  2.3618 -0.2031
  127SOPE  H16S13645   2.488   3.967   4.127  1.6529 -2.3172  0.5527
  127SOPE  C21713646   2.427   3.963   4.338  0.5899  0.2816  0.2901
  127SOPE  H17R13647   2.469   3.996   4.435 -1.8241 -1.9993  2.2552
  127SOPE  H17S13648   2.430   3.852   4.336  0.5283  0.2130  2.1061
  127SOPE  C21813649   2.281   4.003   4.327  0.3280  0.0615  0.5237
  127SOPE  H18R13650   2.266   4.111   4.348 -0.8412 -0.4338  2.5341
  127SOPE  H18S13651   2.220   3.934   4.389 -1.1641  1.5331  0.7333
  127SOPE  H18T13652   2.246   3.996   4.222  4.1485 -1.6356 -0.8361
  127SOPE   C3313653   1.945   5.497   2.683  0.1304 -0.3201  0.1445
  127SOPE   H3X13654   1.905   5.507   2.580 -0.3906 -3.0983 -0.0009
  127SOPE   H3Y13655   2.031   5.567   2.674  1.4018 -1.9981 -1.4208
  127SOPE   C3413656   1.833   5.538   2.777  0.1512  0.0995  0.3325
  127SOPE   H4X13657   1.752   5.463   2.765  0.6999 -0.3192 -0.9366
  127SOPE   H4Y13658   1.790   5.638   2.759  1.0642  0.9301  2.3935
  127SOPE   C3513659   1.890   5.526   2.920 -0.0082  0.0973  0.0574
  127SOPE   H5X13660   1.982   5.586   2.929  0.0944  0.0088 -0.4035
  127SOPE   H5Y13661   1.894   5.421   2.956  0.1905  0.6006  1.5853
  127SOPE   C3613662   1.784   5.587   3.018  0.0653  0.1771 -0.2140
  127SOPE   H6X13663   1.691   5.526   3.012  0.4698 -0.3714 -0.9573
  127SOPE   H6Y13664   1.750   5.686   2.980  0.3922 -0.1952 -1.5061
  127SOPE   C3713665   1.830   5.598   3.163  0.3319 -0.4578  0.0358
  127SOPE   H7X13666   1.907   5.676   3.180  1.8571 -2.1224  1.1887
  127SOPE   H7Y13667   1.878   5.503   3.196 -0.6055  0.1008  3.3726
  127SOPE   C3813668   1.713   5.631   3.258  0.4473 -0.1376 -0.7076
  127SOPE   H8X13669   1.646   5.542   3.253  0.4378 -0.2596  0.8610
  127SOPE   H8Y13670   1.668   5.728   3.229  6.0620  4.6521  3.8409
  127SOPE   C3913671   1.757   5.646   3.406  0.1528  0.2832  0.8988
  127SOPE   H9X13672   1.808   5.552   3.439 -1.0751  0.4003  3.4033
  127SOPE   H9Y13673   1.668   5.651   3.473 -0.4343 -1.9703  0.3720
  127SOPE  C31013674   1.846   5.771   3.424 -0.4794  0.4222  0.4487
  127SOPE  H10X13675   1.777   5.850   3.387 -4.0276 -2.8168 -0.5219
  127SOPE  H10Y13676   1.924   5.782   3.347 -1.2092  1.0035 -0.2242
  127SOPE  C31113677   1.894   5.819   3.564  0.0369  0.3953 -0.1543
  127SOPE  H11X13678   1.810   5.868   3.618 -1.2194 -2.0582  0.2769
  127SOPE  H11Y13679   1.961   5.902   3.534  0.5775  0.6551  1.6642
  127SOPE  C31213680   1.956   5.711   3.661 -0.4371  0.0468 -0.0770
  127SOPE  H12X13681   2.048   5.670   3.615 -0.0637  0.1705  0.5465
  127SOPE  H12Y13682   1.881   5.631   3.678 -1.7810  0.7760 -2.1767
  127SOPE  C31313683   1.989   5.768   3.798  0.1355 -0.1980 -0.2782
  127SOPE  H13X13684   1.899   5.811   3.848  0.6985 -0.4880  1.0283
  127SOPE  H13Y13685   2.062   5.851   3.786  1.4566 -1.4352 -1.1901
  127SOPE  C31413686   2.061   5.670   3.894  0.4791 -0.3800  0.0046
  127SOPE  H14X13687   2.145   5.615   3.846 -0.4856 -2.3194  0.4199
  127SOPE  H14Y13688   1.986   5.596   3.931 -1.3867  0.5121 -1.7894
  127SOPE  C31513689   2.125   5.739   4.012  0.4301 -0.1435  0.2352
  127SOPE  H15X13690   2.065   5.800   4.083  3.3338  0.6637  2.1698
  127SOPE  H15Y13691   2.184   5.822   3.967 -0.7487  0.5257 -0.1402
  127SOPE  C31613692   2.220   5.648   4.082 -0.5189  1.1170 -0.5384
  127SOPE  H16X13693   2.289   5.596   4.013 -0.2395 -1.9511  1.7656
  127SOPE  H16Y13694   2.162   5.566   4.132  0.4667 -0.2510 -1.5697
  127SOPE  C31713695   2.302   5.715   4.198 -0.5628  0.1509  0.3607
  127SOPE  H17X13696   2.374   5.639   4.235 -1.0976 -0.3482  0.3970
  127SOPE  H17Y13697   2.221   5.743   4.269 -0.5062  1.3770 -0.0474
  127SOPE  C31813698   2.377   5.842   4.160 -0.1596 -0.2362  0.0142
  127SOPE  H18X13699   2.427   5.824   4.063  0.9394 -0.3727  0.5879
  127SOPE  H18Y13700   2.459   5.860   4.233 -0.1221  0.1980 -0.1385
  127SOPE  H18Z13701   2.313   5.932   4.164 -0.6683 -0.6336  2.6239
  128SOPE     N13702   1.024   3.832   1.851  0.3785 -0.3702 -0.1431
  128SOPE   HN113703   1.051   3.931   1.864 -0.0390 -0.3873  1.0433
  128SOPE   HN213704   1.102   3.767   1.875  1.6577  1.0676 -0.2762
  128SOPE   HN313705   1.003   3.817   1.750  0.7575 -2.8929  0.0769
  128SOPE   C1213706   0.896   3.799   1.924 -0.7726  0.2491  0.4071
  128SOPE  H12A13707   0.865   3.698   1.890  1.5842 -0.4397  0.1322
  128SOPE  H12B13708   0.808   3.861   1.900 -0.2197 -0.1284 -3.2209
  128SOPE   C1113709   0.916   3.800   2.078  0.8019 -0.5176  0.2618
  128SOPE  H11A13710   0.830   3.737   2.108 -0.1785  0.6606 -0.0075
  128SOPE  H11B13711   0.913   3.906   2.109  3.7736 -0.1606 -0.3255
  128SOPE     P13712   1.068   3.592   2.137  0.3679 -0.2318  0.2763
  128SOPE   O1313713   1.188   3.572   2.216 -0.3476 -0.1842 -0.2352
  128SOPE   O1413714   1.056   3.523   2.013 -0.3968  0.7911  0.1032
  128SOPE   O1213715   1.048   3.747   2.117  0.1424 -0.0333 -0.2760
  128SOPE   O1113716   0.948   3.561   2.237 -0.1740  0.1449 -0.2647
  128SOPE    C113717   0.948   3.448   2.324 -0.1541 -0.2330 -0.0301
  128SOPE    HA13718   1.019   3.368   2.294 -0.0173 -0.1096 -0.0390
  128SOPE    HB13719   0.853   3.391   2.313  0.6152 -2.3229  3.0925
  128SOPE    C213720   0.954   3.500   2.473 -0.0534 -0.2944  0.0140
  128SOPE    HS13721   0.859   3.551   2.499  0.3372 -0.5673  2.1685
  128SOPE   O2113722   1.067   3.591   2.486  0.5823 -0.1570  0.1183
  128SOPE   C2113723   1.036   3.722   2.507 -0.0448  0.5620  0.4605
  128SOPE   O2213724   0.926   3.758   2.544 -0.1531 -0.4806 -0.4737
  128SOPE   C2213725   1.161   3.803   2.480 -0.1530 -0.3452  0.2060
  128SOPE   H2R13726   1.128   3.907   2.498 -1.6446 -0.7665  0.0720
  128SOPE   H2S13727   1.188   3.794   2.372  1.4362  0.4484  0.5067
  128SOPE    C313728   0.982   3.385   2.577  0.3358  0.4336  0.3449
  128SOPE    HX13729   1.085   3.343   2.578  0.1616 -0.0451 -0.5144
  128SOPE    HY13730   0.917   3.297   2.558 -0.3997  0.5789  2.0432
  128SOPE   O3113731   0.950   3.439   2.705 -0.0995  0.0752 -0.4869
  128SOPE   C3113732   0.830   3.437   2.743  0.1809  0.6670 -0.1698
  128SOPE   O3213733   0.733   3.391   2.679  0.4120  0.3458  0.6435
  128SOPE   C3213734   0.819   3.506   2.876 -0.5114  0.6815 -0.0019
  128SOPE   H2X13735   0.831   3.616   2.864  1.1612  0.3559 -1.8185
  128SOPE   H2Y13736   0.895   3.475   2.951 -0.1299  2.0276  0.1976
  128SOPE   C2313737   1.284   3.765   2.573 -0.6712 -0.6843  0.1950
  128SOPE   H3R13738   1.353   3.852   2.570 -1.2407 -0.1749  1.2913
  128SOPE   H3S13739   1.340   3.682   2.526 -1.8881 -1.0800 -0.6143
  128SOPE   C2413740   1.263   3.728   2.720 -0.3106 -0.1092  0.4952
  128SOPE   H4R13741   1.219   3.627   2.705 -0.9186  0.5166 -2.7583
  128SOPE   H4S13742   1.363   3.703   2.761  0.4830  0.3880 -1.0607
  128SOPE   C2513743   1.168   3.805   2.801 -0.2235  0.1843  0.0897
  128SOPE   H5R13744   1.209   3.905   2.827 -1.0478  0.2259  1.3161
  128SOPE   H5S13745   1.071   3.824   2.749 -1.4544 -1.3193  1.7408
  128SOPE   C2613746   1.128   3.731   2.931 -0.4535  0.3056  0.5616
  128SOPE   H6R13747   1.113   3.624   2.908 -1.5468  0.6896 -0.6560
  128SOPE   H6S13748   1.226   3.740   2.983 -0.2492  2.0582 -0.0365
  128SOPE   C2713749   1.029   3.806   3.022 -0.0256 -0.2988 -0.2671
  128SOPE   H7R13750   0.928   3.809   2.977 -0.6100  0.8563  1.0431
  128SOPE   H7S13751   1.011   3.747   3.115  0.7492 -2.4075 -1.3834
  128SOPE   C2813752   1.067   3.955   3.055  0.0504 -0.2397  0.0275
  128SOPE   H8R13753   1.086   3.999   2.954  3.6509 -0.9685  0.2408
  128SOPE   H8S13754   0.981   4.014   3.094 -0.1766  0.2478 -1.1576
  128SOPE   C2913755   1.194   3.959   3.141  0.0274 -0.4714 -0.2945
  128SOPE   H9113756   1.291   3.929   3.097  1.3150  2.8799 -0.0479
  128SOPE  C21013757   1.197   3.997   3.269  0.6296 -0.4322 -0.9315
  128SOPE  H10113758   1.290   4.004   3.327  1.9135 -1.1083 -2.7838
  128SOPE  C21113759   1.073   4.041   3.352 -0.3128 -0.6887  0.3391
  128SOPE  H11R13760   1.027   3.953   3.402  0.1534 -1.9125 -1.3111
  128SOPE  H11S13761   0.996   4.092   3.292 -0.6250 -0.6963  0.7270
  128SOPE  C21213762   1.096   4.152   3.465 -0.4394  0.0015  0.6421
  128SOPE  H12R13763   0.998   4.191   3.499 -0.9845  1.0089 -1.8655
  128SOPE  H12S13764   1.147   4.238   3.417  0.8482 -1.0410  0.0652
  128SOPE  C21313765   1.179   4.098   3.584  0.8372 -0.6147  0.2532
  128SOPE  H13R13766   1.273   4.043   3.562  2.0556  0.5647  2.1776
  128SOPE  H13S13767   1.117   4.031   3.648 -0.2574 -0.4065 -0.5615
  128SOPE  C21413768   1.220   4.219   3.667 -0.0656  0.3379  0.2265
  128SOPE  H14R13769   1.131   4.281   3.688 -0.3541 -0.1058  0.3246
  128SOPE  H14S13770   1.285   4.288   3.609  1.0242 -0.8383 -0.0039
  128SOPE  C21513771   1.293   4.199   3.806 -0.0208  0.1596 -0.2718
  128SOPE  H15R13772   1.372   4.124   3.787  0.5084  0.5951  0.1884
  128SOPE  H15S13773   1.231   4.153   3.887  2.2729  0.0946  1.5645
  128SOPE  C21613774   1.346   4.331   3.862  0.2219  0.1709 -0.3239
  128SOPE  H16R13775   1.267   4.408   3.850  0.8323  0.6743 -1.2019
  128SOPE  H16S13776   1.424   4.378   3.799 -2.0219  2.5421 -1.5523
  128SOPE  C21713777   1.377   4.319   4.014  0.4291  0.4687 -0.1040
  128SOPE  H17R13778   1.443   4.231   4.027 -2.2520 -1.6023  0.5038
  128SOPE  H17S13779   1.283   4.295   4.069  0.8632  0.5665  0.7042
  128SOPE  C21813780   1.451   4.442   4.071 -0.6706 -0.6716  0.3443
  128SOPE  H18R13781   1.386   4.531   4.054  1.2926  0.7754  0.0628
  128SOPE  H18S13782   1.547   4.478   4.030 -1.2292  0.8331  0.2901
  128SOPE  H18T13783   1.463   4.435   4.182 -0.7514  0.2858  0.4253
  128SOPE   C3313784   0.682   3.474   2.943 -0.2453  0.0545 -0.7968
  128SOPE   H3X13785   0.676   3.368   2.976  0.2085 -0.2697 -1.7065
  128SOPE   H3Y13786   0.603   3.501   2.869 -2.8307 -0.6215  1.5328
  128SOPE   C3413787   0.639   3.564   3.059  0.4159  0.7373  0.4667
  128SOPE   H4X13788   0.530   3.546   3.066  0.6304 -1.1811 -0.5890
  128SOPE   H4Y13789   0.640   3.667   3.017 -1.4589 -0.3330 -2.5549
  128SOPE   C3513790   0.732   3.565   3.173  0.2002  0.0222 -0.8024
  128SOPE   H5X13791   0.834   3.572   3.130 -0.4812  0.8687 -2.3745
  128SOPE   H5Y13792   0.711   3.468   3.223 -1.7166  1.5434  1.6005
  128SOPE   C3613793   0.724   3.689   3.264 -0.0100  0.2636 -0.3876
  128SOPE   H6X13794   0.627   3.706   3.316 -0.8697  3.4818 -2.7385
  128SOPE   H6Y13795   0.761   3.785   3.221  2.5814 -0.3730  0.2869
  128SOPE   C3713796   0.817   3.672   3.391 -0.7862  0.1224  1.3044
  128SOPE   H7X13797   0.919   3.686   3.349 -0.4764  0.1447  2.0387
  128SOPE   H7Y13798   0.809   3.569   3.431 -0.7921 -0.7152 -0.7194
  128SOPE   C3813799   0.790   3.781   3.499 -0.3145  0.3160 -0.3332
  128SOPE   H8X13800   0.681   3.776   3.515 -0.2852 -1.7036 -0.4826
  128SOPE   H8Y13801   0.811   3.887   3.471 -1.2444  0.2924 -1.1698
  128SOPE   C3913802   0.869   3.739   3.618 -0.2405 -0.2580 -0.8571
  128SOPE   H9X13803   0.976   3.729   3.591  0.7709 -1.3162  2.9010
  128SOPE   H9Y13804   0.837   3.638   3.651  0.9376 -0.6275 -0.8142
  128SOPE  C31013805   0.856   3.832   3.742 -0.8330 -0.1228  0.3351
  128SOPE  H10X13806   0.751   3.870   3.745 -0.8434 -0.1567  0.4002
  128SOPE  H10Y13807   0.915   3.925   3.735 -1.3250  0.3390  1.9494
  128SOPE  C31113808   0.899   3.774   3.878 -0.1784  0.0281  0.0542
  128SOPE  H11X13809   0.991   3.712   3.880  1.0917  1.6688  4.3726
  128SOPE  H11Y13810   0.822   3.701   3.912  2.1825 -2.0088  1.3658
  128SOPE  C31213811   0.925   3.891   3.980 -0.1538  0.1972  0.1010
  128SOPE  H12X13812   0.835   3.956   3.967  0.8309  1.3422 -1.3401
  128SOPE  H12Y13813   1.018   3.941   3.946  0.2659 -0.2403  0.5993
  128SOPE  C31313814   0.940   3.829   4.117 -0.5646  0.0815 -0.5823
  128SOPE  H13X13815   1.013   3.889   4.174 -0.4225  0.5974 -1.2931
  128SOPE  H13Y13816   0.994   3.732   4.111 -3.7166 -1.9775  1.1373
  128SOPE  C31413817   0.814   3.821   4.207  0.5813  0.4733  0.7037
  128SOPE  H14X13818   0.723   3.794   4.149  0.5701  0.9964  0.4761
  128SOPE  H14Y13819   0.798   3.920   4.255 -0.3520  0.1872  1.0130
  128SOPE  C31513820   0.823   3.723   4.325 -0.0815 -0.7276 -0.2397
  128SOPE  H15X13821   0.907   3.748   4.394 -1.4031  0.3534  1.0225
  128SOPE  H15Y13822   0.830   3.621   4.281  1.9178 -1.1316  0.9140
  128SOPE  C31613823   0.687   3.725   4.402  0.3704 -0.2392 -0.5456
  128SOPE  H16X13824   0.607   3.691   4.332 -1.5449 -0.0185  1.4318
  128SOPE  H16Y13825   0.647   3.824   4.435 -1.1441 -1.0726  0.2032
  128SOPE  C31713826   0.686   3.636   4.526  0.3846  0.2017  0.7445
  128SOPE  H17X13827   0.777   3.651   4.588  0.8632  0.7276 -0.0635
  128SOPE  H17Y13828   0.701   3.538   4.476  2.4879 -0.0156  1.6872
  128SOPE  C31813829   0.555   3.643   4.609 -0.4840 -0.5808 -0.1946
  128SOPE  H18X13830   0.462   3.624   4.552 -0.8152  1.9515 -0.6145
  128SOPE  H18Y13831   0.566   3.736   4.668 -1.0557 -0.9374  0.4766
  128SOPE  H18Z13832   0.557   3.571   4.693 -2.2242  0.6751  0.9670
  129OSM      N13833   3.654   3.464   6.838  0.5755 -0.6737 -0.0313
  129OSM    C1513834   3.701   3.341   6.773 -0.0358 -0.0951 -0.1284
  129OSM   H15A13835   3.687   3.352   6.666 -2.0868  1.8948  0.2598
  129OSM   H15B13836   3.643   3.258   6.809 -0.4375  0.6963  1.1330
  129OSM   H15C13837   3.805   3.319   6.789 -0.0565  0.8794  1.5704
  129OSM    C1413838   3.506   3.476   6.821 -0.2610 -0.4196  0.2073
  129OSM   H14A13839   3.482   3.495   6.717 -2.6022  1.3977  0.9993
  129OSM   H14B13840   3.466   3.561   6.875  0.8828 -0.8756  1.8380
  129OSM   H14C13841   3.455   3.385   6.852 -1.2251 -1.0149 -2.7457
  129OSM    C1313842   3.668   3.450   6.988 -0.8162 -0.7227 -0.5380
  129OSM   H13A13843   3.759   3.398   7.016  0.7417  1.9365 -0.3363
  129OSM   H13B13844   3.601   3.374   7.027 -1.2949  0.6542  1.5082
  129OSM   H13C13845   3.656   3.545   7.037 -1.6138 -1.2977  0.4304
  129OSM    C1213846   3.727   3.590   6.791 -0.6186  0.2990 -0.6601
  129OSM   H12A13847   3.831   3.569   6.811 -0.7174  0.1638 -0.2930
  129OSM   H12B13848   3.691   3.668   6.857  0.7437 -0.9707  1.7354
  129OSM    C1113849   3.714   3.620   6.638  0.3647  0.0708  0.3513
  129OSM   H11A13850   3.615   3.591   6.597  1.3488 -1.3044 -1.1646
  129OSM   H11B13851   3.778   3.545   6.588  0.5522  1.8383 -2.2622
  129OSM      P13852   3.674   3.883   6.641 -0.4489 -0.7440  0.2379
  129OSM    O1313853   3.635   3.883   6.782 -0.9125 -0.2454  0.7681
  129OSM    O1413854   3.755   3.996   6.585  0.1841 -0.3171  0.4217
  129OSM    O1113855   3.541   3.867   6.548  0.1117 -0.6727  0.5212
  129OSM    O1213856   3.752   3.754   6.601  0.1899 -0.3575  0.0506
  129OSM    C1S13857   3.552   3.896   6.405 -0.6547  0.8025  0.3024
  129OSM    H1S13858   3.654   3.878   6.366 -0.0746  0.4190  1.9337
  129OSM    H1T13859   3.522   4.002   6.390 -0.4959  1.0315  1.4689
  129OSM     NF13860   3.509   3.833   6.178  0.0093 -0.1093  0.3222
  129OSM    HNF13861   3.467   3.897   6.115 -0.0095 -2.2773 -2.0004
  129OSM    C2S13862   3.463   3.812   6.315  0.0868  0.0888 -0.1448
  129OSM    H2S13863   3.474   3.704   6.339  0.2687 -0.3636 -2.1026
  129OSM    C3S13864   3.322   3.844   6.337 -0.0665 -0.3895 -0.4770
  129OSM    H3S13865   3.303   3.951   6.312  0.0788 -0.4579 -0.8862
  129OSM     O313866   3.288   3.828   6.473 -0.2039  0.7900 -0.1741
  129OSM    HO313867   3.375   3.810   6.510  0.6033 -1.2076 -2.7102
  129OSM    C4S13868   3.237   3.764   6.249  1.0424  0.2886 -0.2656
  129OSM    H4S13869   3.229   3.817   6.153 -1.8889  1.2794  0.4221
  129OSM    C5S13870   3.155   3.657   6.269 -0.2443 -0.5777 -0.2110
  129OSM    H5S13871   3.131   3.636   6.375  0.6907 -0.8476 -0.0471
  129OSM    C6S13872   3.065   3.590   6.169  0.6957  0.6410 -0.3366
  129OSM    H6S13873   2.966   3.615   6.212  0.5395 -0.0749 -0.2765
  129OSM    H6T13874   3.077   3.480   6.179  1.0517  0.7657  0.6630
  129OSM    C7S13875   3.099   3.635   6.032  0.2852  0.3564  0.3773
  129OSM    H7S13876   3.204   3.609   6.006 -0.9378 -0.9223 -4.1649
  129OSM    H7T13877   3.095   3.746   6.021  0.7873  0.2532 -0.9995
  129OSM    C8S13878   3.018   3.564   5.924 -0.5438  0.2047  0.1600
  129OSM    H8S13879   2.911   3.585   5.942 -0.5296 -0.2627  0.8575
  129OSM    H8T13880   3.025   3.454   5.940  1.4734  0.3133  0.3444
  129OSM    C9S13881   3.064   3.605   5.782  0.4079  0.1271  0.0853
  129OSM    H9S13882   3.171   3.582   5.766  0.9456  1.0910  1.9430
  129OSM    H9T13883   3.061   3.716   5.793 -0.0405 -0.0153  1.6625
  129OSM   C10S13884   2.978   3.545   5.666  0.3335 -0.9569  0.1050
  129OSM   H10S13885   2.870   3.570   5.681  0.5138 -0.1148  0.0284
  129OSM   H10T13886   2.986   3.434   5.677  0.9711 -0.8634  0.6714
  129OSM   C11S13887   3.024   3.593   5.526  0.0093 -0.2190 -0.8593
  129OSM   H11S13888   3.023   3.705   5.530 -0.5863 -0.2322 -0.4275
  129OSM   H11T13889   2.943   3.563   5.457 -0.3506  1.1945 -1.1010
  129OSM   C12S13890   3.156   3.542   5.478  0.5172 -0.4417 -0.3717
  129OSM   H12S13891   3.155   3.431   5.483  1.8355 -0.4714 -0.2998
  129OSM   H12T13892   3.240   3.576   5.542 -1.8677  1.7876  1.8301
  129OSM   C13S13893   3.174   3.584   5.327  0.5501 -0.0917  0.2870
  129OSM   H13S13894   3.265   3.536   5.283  0.7558 -0.2589  0.8937
  129OSM   H13T13895   3.201   3.692   5.332  1.1498 -0.1669 -0.8712
  129OSM   C14S13896   3.054   3.567   5.229 -0.2884 -0.2515  0.5211
  129OSM   H14S13897   2.966   3.627   5.259 -1.3677 -1.8578  0.7146
  129OSM   H14T13898   3.027   3.459   5.233 -0.1192 -0.3357 -0.4603
  129OSM   C15S13899   3.093   3.604   5.089  0.3086 -0.0287  0.0807
  129OSM   H15S13900   3.170   3.530   5.056 -0.1614 -0.6409  0.3327
  129OSM   H15T13901   3.133   3.707   5.092  0.7382 -0.0332 -2.5952
  129OSM   C16S13902   2.975   3.585   4.988  0.6559  0.3006  0.5188
  129OSM   H16S13903   2.886   3.650   4.985  0.3939 -0.0140  1.3436
  129OSM   H16T13904   2.941   3.479   4.997  2.5930 -0.6759 -2.1895
  129OSM   C17S13905   3.027   3.569   4.838  0.1297 -0.8428 -0.4300
  129OSM   H17S13906   2.934   3.540   4.785 -0.2682 -0.5571  0.1079
  129OSM   H17T13907   3.099   3.484   4.839 -1.3175 -2.1071  0.3770
  129OSM   C18S13908   3.085   3.688   4.771 -0.3367  0.0826 -0.0045
  129OSM   H18S13909   3.152   3.661   4.687 -0.2733 -0.5426  0.2418
  129OSM   H18T13910   3.152   3.741   4.842  1.2110  0.4076 -1.6369
  129OSM   H18U13911   3.006   3.752   4.727 -1.5805 -0.5465  1.2341
  129OSM    C1F13912   3.620   3.775   6.121  0.5238 -1.0801 -0.0286
  129OSM     OF13913   3.696   3.696   6.182 -0.2458 -0.2720 -0.0909
  129OSM    C2F13914   3.649   3.808   5.981 -0.7597  0.2304  0.2135
  129OSM    H2F13915   3.759   3.816   5.967 -0.6186 -1.8979 -0.2252
  129OSM    H2G13916   3.603   3.904   5.948  0.0610 -0.0034 -1.7334
  129OSM    C3F13917   3.605   3.687   5.900 -0.0912 -0.6063  0.4058
  129OSM    H3F13918   3.496   3.667   5.911 -0.2199 -0.3851 -0.4101
  129OSM    H3G13919   3.653   3.589   5.921 -4.0056 -2.8669 -0.1784
  129OSM    C4F13920   3.623   3.733   5.752 -0.3532 -0.0964  0.4344
  129OSM    H4F13921   3.733   3.745   5.741  0.0005 -0.2979  3.0535
  129OSM    H4G13922   3.579   3.832   5.730 -0.6040 -0.5290 -1.1163
  129OSM    C5F13923   3.577   3.626   5.649  0.0826 -0.3509  0.2632
  129OSM    H5F13924   3.469   3.603   5.657  0.2999 -1.3406  0.4685
  129OSM    H5G13925   3.633   3.530   5.652 -3.7938 -2.8386 -0.2866
  129OSM    C6F13926   3.602   3.679   5.504 -1.0036 -0.2919 -0.3753
  129OSM    H6F13927   3.710   3.695   5.481 -1.6277 -0.7289 -4.1714
  129OSM    H6G13928   3.549   3.774   5.481 -0.3696  0.1015 -0.2311
  129OSM    C7F13929   3.561   3.588   5.392 -0.6978 -0.0513  0.4039
  129OSM    H7F13930   3.451   3.593   5.382 -1.0205 -0.6246  2.8263
  129OSM    H7G13931   3.589   3.484   5.418 -0.1393 -0.5391 -1.9539
  129OSM    C8F13932   3.636   3.635   5.267 -0.1775 -0.9544  0.0611
  129OSM    H8F13933   3.614   3.552   5.196  0.2373 -2.2746  1.4135
  129OSM    H8G13934   3.747   3.627   5.269 -0.2388 -2.4537 -0.8168
  129OSM    C9F13935   3.592   3.769   5.213  0.5339  0.6545  0.3117
  129OSM    H9F13936   3.613   3.849   5.285 -0.7202  0.3038  1.0873
  129OSM   C10F13937   3.523   3.791   5.097  0.3417 -0.7774  0.7357
  129OSM   H10F13938   3.502   3.896   5.070  0.0629 -1.3208 -1.2943
  129OSM   C11F13939   3.459   3.693   5.004  0.2878 -0.2083 -0.4773
  129OSM   H11F13940   3.375   3.738   4.948  0.8351  2.2633  0.5333
  129OSM   H11G13941   3.417   3.608   5.061 -3.2360  1.2012 -0.7609
  129OSM   C12F13942   3.567   3.650   4.909 -0.3102  0.1757 -0.5155
  129OSM   H12F13943   3.659   3.622   4.964 -0.0474  1.6662 -0.1766
  129OSM   H12G13944   3.579   3.745   4.854  0.2880  0.4490  0.0761
  129OSM   C13F13945   3.537   3.528   4.816 -0.1971  0.7529 -0.4137
  129OSM   H13F13946   3.539   3.443   4.889 -0.5462 -0.2723 -1.5621
  129OSM   H13G13947   3.621   3.507   4.748  0.2996 -3.4966  1.1774
  129OSM   C14F13948   3.398   3.528   4.741  0.0666  0.2971 -0.7501
  129OSM   H14F13949   3.407   3.611   4.668  0.0702  0.4068 -0.6250
  129OSM   H14G13950   3.326   3.543   4.824  0.0951 -1.1374 -0.4392
  129OSM   C15F13951   3.377   3.407   4.656  0.3519  0.1215 -1.0000
  129OSM   H15F13952   3.272   3.407   4.622 -0.5631  1.5339  1.5034
  129OSM   H15G13953   3.391   3.315   4.718  0.7358  0.4386 -0.6042
  129OSM   C16F13954   3.471   3.410   4.533  0.1371  0.3012 -0.1262
  129OSM   H16F13955   3.578   3.422   4.560  0.7021 -1.6849 -1.3100
  129OSM   H16G13956   3.442   3.498   4.472 -3.6317 -0.4003  0.3775
  129OSM   C17F13957   3.464   3.282   4.447  0.4340 -0.2075 -0.3799
  129OSM   H17F13958   3.358   3.260   4.420  0.2532  2.0136 -1.6972
  129OSM   H17G13959   3.498   3.197   4.510 -0.7216 -0.1806  0.3179
  129OSM   C18F13960   3.559   3.290   4.331 -0.1280 -0.2970  0.1102
  129OSM   H18F13961   3.575   3.201   4.267  1.6194 -0.6650  0.9999
  129OSM   H18G13962   3.656   3.339   4.356  1.2045 -1.5569 -2.1925
  129OSM   H18H13963   3.517   3.369   4.264 -0.6684 -1.7068 -1.2792
  130OSM      N13964   2.884   5.159   6.698  0.2610 -0.8110  0.0236
  130OSM    C1513965   2.921   5.241   6.577 -0.4362  0.0644 -0.2006
  130OSM   H15A13966   2.947   5.341   6.606 -0.7480  0.2725 -0.6326
  130OSM   H15B13967   2.836   5.265   6.515 -1.8584  0.8789  1.9357
  130OSM   H15C13968   3.000   5.199   6.516  1.9245  3.3674  0.3246
  130OSM    C1413969   2.818   5.040   6.637 -0.4220 -0.8292 -0.7703
  130OSM   H14A13970   2.753   4.995   6.711  0.2136  0.4454  0.6268
  130OSM   H14B13971   2.889   4.962   6.611  0.4023 -0.5445  0.5217
  130OSM   H14C13972   2.748   5.064   6.559  0.4782  2.3462 -0.7258
  130OSM    C1313973   3.008   5.128   6.775 -0.1494  0.3559  0.0632
  130OSM   H13A13974   3.094   5.087   6.724  0.5804 -0.6660  2.0115
  130OSM   H13B13975   3.001   5.057   6.856  2.5274 -2.1976 -1.7179
  130OSM   H13C13976   3.044   5.217   6.824 -0.3738  0.5852 -0.1874
  130OSM    C1213977   2.788   5.225   6.797  0.3168  0.1112 -0.0439
  130OSM   H12A13978   2.834   5.310   6.844  0.3812  0.1613 -0.1976
  130OSM   H12B13979   2.767   5.148   6.870 -1.3608 -2.4522 -2.9652
  130OSM    C1113980   2.649   5.281   6.744  0.4624 -0.3411  0.7319
  130OSM   H11A13981   2.690   5.338   6.659  0.8494  0.6393  1.5570
  130OSM   H11B13982   2.611   5.356   6.817  0.3086  1.7984 -1.4436
  130OSM      P13983   2.416   5.203   6.645 -0.3489 -0.0944  0.0594
  130OSM    O1313984   2.348   5.076   6.614  0.0017  0.2987 -0.0397
  130OSM    O1413985   2.341   5.289   6.744 -0.3242 -0.3201  0.3119
  130OSM    O1113986   2.457   5.280   6.512 -0.6518 -0.2668  0.0583
  130OSM    O1213987   2.552   5.181   6.713 -0.6815  0.4297  0.2502
  130OSM    C1S13988   2.523   5.212   6.402 -0.6342 -0.0690 -0.1226
  130OSM    H1S13989   2.483   5.109   6.391 -1.6479  0.2083  0.7231
  130OSM    H1T13990   2.632   5.207   6.422 -0.4596 -1.8216 -1.2979
  130OSM     NF13991   2.541   5.207   6.151 -0.7348 -0.6677  0.3090
  130OSM    HNF13992   2.611   5.256   6.099 -0.3410 -1.2188  0.3094
  130OSM    C2S13993   2.503   5.290   6.267 -0.3688 -0.1992  0.2225
  130OSM    H2S13994   2.393   5.300   6.264 -0.2245  1.5348 -0.4928
  130OSM    C3S13995   2.559   5.429   6.274  0.1198  0.2370 -0.2276
  130OSM    H3S13996   2.670   5.432   6.277  0.1462 -0.9982  0.6254
  130OSM     O313997   2.503   5.504   6.383 -0.6364 -0.3595 -0.2460
  130OSM    HO313998   2.481   5.440   6.452  1.0649 -0.3666  0.3319
  130OSM    C4S13999   2.524   5.500   6.141 -0.1905 -0.0675  0.0864
  130OSM    H4S14000   2.417   5.506   6.119  0.0303  0.3411 -0.9399
  130OSM    C5S14001   2.607   5.553   6.047  0.2351  0.1850 -0.3516
  130OSM    H5S14002   2.715   5.534   6.059  0.1397  0.6181  1.5139
  130OSM    C6S14003   2.555   5.615   5.919  0.1571 -0.1726  0.4516
  130OSM    H6S14004   2.610   5.711   5.907  0.1599 -0.0722  1.1978
  130OSM    H6T14005   2.446   5.634   5.911  0.4725  1.3188 -1.1677
  130OSM    C7S14006   2.609   5.534   5.795  0.8523 -0.2037 -0.2076
  130OSM    H7S14007   2.583   5.427   5.808  0.4077  0.2748  4.1995
  130OSM    H7T14008   2.715   5.565   5.809  0.5674  0.1828  1.1862
  130OSM    C8S14009   2.570   5.581   5.651  0.3789  0.0669  1.1039
  130OSM    H8S14010   2.574   5.690   5.634 -2.4005 -0.0945 -1.2551
  130OSM    H8T14011   2.469   5.549   5.620  0.4466  3.4142 -3.7331
  130OSM    C9S14012   2.669   5.521   5.544  0.7560 -0.0598 -0.0105
  130OSM    H9S14013   2.657   5.411   5.534 -0.4277 -0.0857  1.3527
  130OSM    H9T14014   2.776   5.540   5.567  0.9037  0.1396 -0.8217
  130OSM   C10S14015   2.619   5.583   5.411 -0.1894  0.4149  0.3399
  130OSM   H10S14016   2.664   5.685   5.405 -0.0308  0.6031  3.2884
  130OSM   H10T14017   2.508   5.595   5.407 -0.1374  0.4768 -2.2343
  130OSM   C11S14018   2.659   5.493   5.288 -0.3098 -0.4525  0.3982
  130OSM   H11S14019   2.610   5.394   5.303  1.0881 -1.0529  1.3332
  130OSM   H11T14020   2.769   5.478   5.281 -0.1849  0.8211 -0.6787
  130OSM   C12S14021   2.618   5.549   5.152  0.3405  0.0062  0.1346
  130OSM   H12S14022   2.686   5.634   5.134  0.8329 -0.1217  1.2966
  130OSM   H12T14023   2.511   5.578   5.151  0.6074  1.2331 -2.7255
  130OSM   C13S14024   2.657   5.447   5.041 -0.5579  0.6295 -0.1428
  130OSM   H13S14025   2.625   5.341   5.052  0.9775 -0.1193 -2.1761
  130OSM   H13T14026   2.768   5.440   5.046 -0.7229 -2.9818  1.9418
  130OSM   C14S14027   2.608   5.494   4.907  0.6358 -0.2533  0.2396
  130OSM   H14S14028   2.507   5.539   4.913  1.0534  0.5792  1.4940
  130OSM   H14T14029   2.586   5.398   4.856 -2.1474 -0.7848  2.2397
  130OSM   C15S14030   2.706   5.594   4.839 -0.7969 -0.6740 -0.3027
  130OSM   H15S14031   2.803   5.544   4.819  0.3530  1.4366 -0.2926
  130OSM   H15T14032   2.734   5.680   4.905  1.3795 -1.3241 -0.3020
  130OSM   C16S14033   2.657   5.654   4.706  0.3552  0.2853 -0.2544
  130OSM   H16S14034   2.602   5.750   4.717 -0.4354  0.2575 -2.9887
  130OSM   H16T14035   2.596   5.569   4.667  1.2081 -1.0176  1.1825
  130OSM   C17S14036   2.776   5.684   4.614 -0.1140  0.2953 -0.4346
  130OSM   H17S14037   2.847   5.598   4.604  1.1489  1.4589 -1.9832
  130OSM   H17T14038   2.839   5.765   4.657  0.2470  0.5301 -1.3754
  130OSM   C18S14039   2.736   5.728   4.473 -0.1306  0.5139 -0.8516
  130OSM   H18S14040   2.690   5.828   4.484  0.0596  0.8584 -2.7759
  130OSM   H18T14041   2.667   5.656   4.423 -1.9321  0.0750  2.0526
  130OSM   H18U14042   2.830   5.742   4.414  1.7989 -1.2417  1.5749
  130OSM    C1F14043   2.502   5.081   6.124  0.1126 -0.0023  0.0652
  130OSM     OF14044   2.410   5.036   6.185 -0.2243  0.1164 -0.7845
  130OSM    C2F14045   2.587   4.999   6.038 -0.3710  0.2434  0.2023
  130OSM    H2F14046   2.655   4.939   6.102 -2.9395 -3.3023 -0.0725
  130OSM    H2G14047   2.653   5.067   5.979  1.1549  0.6963  2.3339
  130OSM    C3F14048   2.513   4.899   5.940 -0.2583 -0.5745 -0.0840
  130OSM    H3F14049   2.454   4.962   5.870  0.8560  0.8915  0.2523
  130OSM    H3G14050   2.436   4.844   5.999  0.6317  1.1092  2.8409
  130OSM    C4F14051   2.601   4.800   5.865  0.6104 -0.5168  0.5196
  130OSM    H4F14052   2.538   4.738   5.798 -0.6902  0.8283  0.4486
  130OSM    H4G14053   2.641   4.731   5.943 -1.0052  0.9548  2.7745
  130OSM    C5F14054   2.714   4.852   5.772 -0.2769  0.2895 -0.2263
  130OSM    H5F14055   2.770   4.759   5.748 -3.4452 -2.1881  1.2881
  130OSM    H5G14056   2.787   4.919   5.822 -0.3560  1.7211 -1.9455
  130OSM    C6F14057   2.665   4.914   5.647  0.3465 -1.3237 -0.1464
  130OSM    H6F14058   2.651   5.024   5.657  1.1358 -1.0052 -1.9807
  130OSM    H6G14059   2.568   4.870   5.615  0.8380 -2.6922  0.1911
  130OSM    C7F14060   2.758   4.893   5.522  0.1454 -0.4689  0.0572
  130OSM    H7F14061   2.820   4.800   5.528 -0.5938 -0.9524  0.3103
  130OSM    H7G14062   2.827   4.980   5.525 -2.3082  1.5785  1.5333
  130OSM    C8F14063   2.680   4.898   5.386  0.2685 -0.8892 -0.7611
  130OSM    H8F14064   2.610   4.812   5.391  0.1165 -0.6926  1.7136
  130OSM    H8G14065   2.752   4.871   5.306  1.0018 -0.1734 -0.3570
  130OSM    C9F14066   2.620   5.031   5.343  0.9131  0.6983 -0.1303
  130OSM    H9F14067   2.527   5.062   5.393  0.5489  0.2155 -0.4945
  130OSM   C10F14068   2.655   5.084   5.228 -0.2909 -0.3714 -0.7558
  130OSM   H10F14069   2.587   5.165   5.200 -2.1713  0.5781  5.1317
  130OSM   C11F14070   2.770   5.049   5.136  0.4442  0.5507  0.1220
  130OSM   H11F14071   2.833   4.961   5.164 -0.0704  0.0184 -0.3700
  130OSM   H11G14072   2.846   5.131   5.137 -0.0730  1.0303  0.4262
  130OSM   C12F14073   2.729   5.035   4.992  0.4121 -0.1272 -0.3764
  130OSM   H12F14074   2.721   5.132   4.940  2.1331 -0.6380 -1.6856
  130OSM   H12G14075   2.627   4.990   4.989  0.8469 -1.5460  2.2892
  130OSM   C13F14076   2.813   4.943   4.908  1.1845 -0.4804 -0.1477
  130OSM   H13F14077   2.784   4.838   4.932  1.4446 -0.5362 -0.0817
  130OSM   H13G14078   2.919   4.955   4.939  1.2207 -2.5157  0.6982
  130OSM   C14F14079   2.810   4.968   4.754 -0.2483 -0.8714 -0.7407
  130OSM   H14F14080   2.904   4.923   4.717 -0.0314 -0.1690 -1.0755
  130OSM   H14G14081   2.804   5.077   4.731  0.7817 -1.0227 -1.7982
  130OSM   C15F14082   2.684   4.907   4.690  0.1847  1.3936  0.9846
  130OSM   H15F14083   2.583   4.940   4.723 -0.4573  0.2241  0.2492
  130OSM   H15G14084   2.686   4.796   4.688 -0.7541  1.3808  0.2628
  130OSM   C16F14085   2.676   4.959   4.537 -0.6966  0.2742  0.5103
  130OSM   H16F14086   2.742   5.048   4.541  0.2684 -0.4426  1.0433
  130OSM   H16G14087   2.575   4.999   4.514  0.0014  1.3821 -0.6798
  130OSM   C17F14088   2.725   4.860   4.439 -0.1039 -0.2459 -0.0948
  130OSM   H17F14089   2.665   4.767   4.438  1.4706 -1.3312  0.6684
  130OSM   H17G14090   2.826   4.834   4.479  0.2128  0.2997 -0.5178
  130OSM   C18F14091   2.746   4.912   4.299 -0.6448  0.5790  0.1370
  130OSM   H18F14092   2.654   4.941   4.244 -0.9116  1.4434  1.0212
  130OSM   H18G14093   2.801   4.838   4.237  0.6867  0.2944  1.6026
  130OSM   H18H14094   2.795   5.012   4.304 -1.9321  1.1977  0.9166
  131OSM      N14095   4.761   2.168   6.948 -0.0623 -0.1351 -0.2487
  131OSM    C1514096   4.702   2.128   7.078 -0.3465 -0.0062 -0.3037
  131OSM   H15A14097   4.634   2.203   7.116 -1.1223  0.6831 -2.9001
  131OSM   H15B14098   4.775   2.087   7.147 -0.6278 -1.3432 -0.7735
  131OSM   H15C14099   4.626   2.056   7.053 -0.0271 -0.2327 -0.6197
  131OSM    C1414100   4.838   2.298   6.968  0.2047 -0.0039  0.2304
  131OSM   H14A14101   4.779   2.381   7.002  1.3491  0.1348  1.9829
  131OSM   H14B14102   4.893   2.336   6.883  1.2134  0.1300  0.9287
  131OSM   H14C14103   4.922   2.281   7.034  1.2823 -0.5011 -1.2003
  131OSM    C1314104   4.867   2.066   6.912 -0.6511 -0.4612 -0.1778
  131OSM   H13A14105   4.908   2.035   7.007 -0.1918  1.1163  0.1707
  131OSM   H13B14106   4.947   2.111   6.854  0.8187 -0.4711  1.7216
  131OSM   H13C14107   4.825   1.977   6.867 -0.0386 -1.3380  0.9420
  131OSM    C1214108   4.670   2.202   6.836  0.0248  0.3955  0.8692
  131OSM   H12A14109   4.722   2.219   6.743 -0.8014  0.3477  0.3850
  131OSM   H12B14110   4.617   2.291   6.866  0.6076  1.2743 -0.6147
  131OSM    C1114111   4.557   2.103   6.818  0.5721  0.2206  0.1586
  131OSM   H11A14112   4.599   2.000   6.816 -0.9209 -0.4096 -1.7477
  131OSM   H11B14113   4.518   2.112   6.714 -0.0256  1.8014  0.4965
  131OSM      P14114   4.356   2.228   6.921  0.2599 -0.3426  0.5020
  131OSM    O1314115   4.265   2.216   7.039 -0.1135  0.8926  0.3844
  131OSM    O1414116   4.420   2.362   6.893 -0.1383  0.6744 -0.1216
  131OSM    O1114117   4.274   2.170   6.801  0.2658 -0.2115  0.1594
  131OSM    O1214118   4.463   2.110   6.924 -1.3393  0.2779 -0.1299
  131OSM    C1S14119   4.228   2.236   6.685 -0.3184 -0.2019 -0.0117
  131OSM    H1S14120   4.314   2.298   6.654 -2.5047  2.0568 -2.0150
  131OSM    H1T14121   4.145   2.304   6.712  0.5574  0.4268  1.1685
  131OSM     NF14122   4.157   2.239   6.445 -0.7514  0.6963 -0.4743
  131OSM    HNF14123   4.059   2.248   6.429 -0.8862 -0.9310 -0.7346
  131OSM    C2S14124   4.193   2.149   6.555 -0.4868  0.1392  0.6075
  131OSM    H2S14125   4.283   2.087   6.536  0.1757  1.0568  0.6973
  131OSM    C3S14126   4.077   2.054   6.596  0.4871 -0.5590  0.5013
  131OSM    H3S14127   3.990   2.121   6.612  0.3083 -0.9986  1.4206
  131OSM     O314128   4.079   1.992   6.723 -0.5506  0.6978 -0.1184
  131OSM    HO314129   4.129   2.055   6.775 -1.1667  2.0289 -1.0947
  131OSM    C4S14130   4.038   1.969   6.477 -0.4662 -0.2274 -0.9658
  131OSM    H4S14131   3.967   2.012   6.405 -1.2951  1.3304  0.7201
  131OSM    C5S14132   4.062   1.837   6.466  0.4829 -0.6158 -0.0895
  131OSM    H5S14133   4.102   1.774   6.547  0.7677 -0.6090 -0.2242
  131OSM    C6S14134   4.013   1.755   6.349  0.7037 -0.2406  0.1479
  131OSM    H6S14135   3.906   1.781   6.334  0.9952  1.0536  0.1850
  131OSM    H6T14136   4.016   1.648   6.378 -2.0239 -0.2900  0.5633
  131OSM    C7S14137   4.076   1.773   6.204  0.7839  0.9351 -1.4023
  131OSM    H7S14138   4.021   1.700   6.141 -1.8511  1.8194 -0.2612
  131OSM    H7T14139   4.183   1.743   6.213  0.3347 -0.4912 -0.4965
  131OSM    C8S14140   4.068   1.915   6.160  0.2963 -0.3958  0.0503
  131OSM    H8S14141   4.126   1.972   6.236  0.9346 -1.5552  0.4495
  131OSM    H8T14142   3.962   1.946   6.168  0.9278  1.3411  2.9870
  131OSM    C9S14143   4.140   1.942   6.030  0.1168  0.3583 -0.0950
  131OSM    H9S14144   4.243   1.900   6.032 -0.1975 -0.5129  3.0843
  131OSM    H9T14145   4.157   2.051   6.024  0.5485  0.3554  0.9296
  131OSM   C10S14146   4.054   1.889   5.916 -0.4118 -0.3223  0.2578
  131OSM   H10S14147   3.947   1.916   5.931 -0.7394 -0.5116 -1.5238
  131OSM   H10T14148   4.053   1.779   5.928  0.8838 -0.3175  0.4991
  131OSM   C11S14149   4.087   1.946   5.782  0.5840 -0.2554 -0.7012
  131OSM   H11S14150   4.196   1.932   5.767  0.2682 -2.5684 -1.2068
  131OSM   H11T14151   4.069   2.055   5.784 -4.1242 -0.8118  1.8340
  131OSM   C12S14152   4.004   1.899   5.659 -0.2615  0.3416 -0.2707
  131OSM   H12S14153   3.897   1.925   5.666 -0.3997 -0.4498  0.8256
  131OSM   H12T14154   4.021   1.789   5.652 -0.0647  0.3610 -0.1043
  131OSM   C13S14155   4.067   1.970   5.535 -0.2983 -0.2560 -0.7922
  131OSM   H13S14156   4.170   1.931   5.523  0.2539  1.1695 -0.8945
  131OSM   H13T14157   4.086   2.079   5.545 -1.1005 -0.1762 -0.0423
  131OSM   C14S14158   3.981   1.942   5.412  0.5470 -0.1666  0.3643
  131OSM   H14S14159   3.880   1.979   5.440  0.2568  0.5771 -1.5297
  131OSM   H14T14160   3.972   1.833   5.394 -0.7847 -0.3861  2.1542
  131OSM   C15S14161   4.034   2.013   5.292  0.3227 -0.1715  0.2324
  131OSM   H15S14162   4.133   1.976   5.258  0.3270 -0.2293  0.3090
  131OSM   H15T14163   4.059   2.119   5.316 -0.4789 -0.0636  0.6515
  131OSM   C16S14164   3.927   2.005   5.172 -0.2948 -0.1428  0.4360
  131OSM   H16S14165   3.841   2.068   5.202  0.2393  1.7751 -1.7071
  131OSM   H16T14166   3.895   1.899   5.167 -1.3184  0.1919 -1.3998
  131OSM   C17S14167   3.992   2.070   5.044 -0.1265 -0.5387 -0.9044
  131OSM   H17S14168   4.089   2.017   5.032  0.2661  0.1693 -0.9171
  131OSM   H17T14169   4.001   2.177   5.071 -3.6832 -0.0766 -1.0660
  131OSM   C18S14170   3.905   2.066   4.915 -0.2031 -0.1705 -0.7906
  131OSM   H18S14171   3.937   1.981   4.851  0.6738  0.1770 -0.8304
  131OSM   H18T14172   3.929   2.151   4.848  1.2395  0.4166  0.4277
  131OSM   H18U14173   3.796   2.070   4.935  0.2517 -0.1468  2.1130
  131OSM    C1F14174   4.241   2.321   6.389 -0.5720  0.1003 -0.7191
  131OSM     OF14175   4.362   2.309   6.407 -0.1813 -0.0181 -0.2360
  131OSM    C2F14176   4.177   2.415   6.289  0.2135 -0.8055  0.0700
  131OSM    H2F14177   4.105   2.484   6.338 -0.3433 -1.5516  0.3334
  131OSM    H2G14178   4.131   2.342   6.218  2.2244 -0.2471 -1.9119
  131OSM    C3F14179   4.275   2.500   6.207  0.3532 -0.5888 -0.7239
  131OSM    H3F14180   4.349   2.441   6.149  0.4681  0.2366 -1.4199
  131OSM    H3G14181   4.339   2.559   6.275  0.2468 -0.8743 -0.3683
  131OSM    C4F14182   4.201   2.593   6.120  0.4589  0.5902 -0.4405
  131OSM    H4F14183   4.134   2.663   6.174 -0.4399 -0.0681 -0.6715
  131OSM    H4G14184   4.132   2.536   6.055 -1.1441 -0.8968  2.3795
  131OSM    C5F14185   4.293   2.674   6.024  0.0311 -0.4131 -0.5956
  131OSM    H5F14186   4.362   2.609   5.966  0.4572  0.0070 -0.5679
  131OSM    H5G14187   4.362   2.736   6.085 -0.0217 -0.6940 -0.2449
  131OSM    C6F14188   4.216   2.764   5.928 -0.1511 -0.2848 -0.1521
  131OSM    H6F14189   4.295   2.822   5.876  0.4221 -0.9405 -0.0263
  131OSM    H6G14190   4.152   2.835   5.985 -0.9488  0.5770 -2.0156
  131OSM    C7F14191   4.140   2.678   5.823 -0.0593  0.5704 -0.0179
  131OSM    H7F14192   4.061   2.625   5.880 -0.2741  1.1394  0.2251
  131OSM    H7G14193   4.210   2.597   5.793 -1.9168 -1.7550  1.5571
  131OSM    C8F14194   4.096   2.735   5.686 -0.0325 -0.0833 -0.0289
  131OSM    H8F14195   4.028   2.821   5.701  0.0192  0.3339 -1.9517
  131OSM    H8G14196   4.027   2.656   5.651  0.6519 -0.1896 -1.1908
  131OSM    C9F14197   4.211   2.765   5.592  0.2328 -0.3692  0.0367
  131OSM    H9F14198   4.311   2.790   5.632  0.0190  1.6245 -0.5757
  131OSM   C10F14199   4.211   2.763   5.456  0.0671 -0.5805  0.1429
  131OSM   H10F14200   4.308   2.775   5.404  0.0901 -0.8273  0.1272
  131OSM   C11F14201   4.094   2.733   5.365 -0.7180 -0.4727 -0.2114
  131OSM   H11F14202   3.995   2.734   5.416 -0.0283 -1.2804  1.2321
  131OSM   H11G14203   4.113   2.627   5.336 -1.9517 -0.7674 -0.0122
  131OSM   C12F14204   4.079   2.822   5.237  0.3817 -0.3893  0.3298
  131OSM   H12F14205   4.073   2.931   5.261  0.6620 -0.6837  1.8585
  131OSM   H12G14206   3.983   2.796   5.187 -0.6128  0.3379  1.7717
  131OSM   C13F14207   4.187   2.803   5.130 -0.5038 -0.3517 -0.1924
  131OSM   H13F14208   4.179   2.696   5.101 -1.6859 -1.0709  2.4463
  131OSM   H13G14209   4.284   2.827   5.179 -0.9246  0.9558  0.0363
  131OSM   C14F14210   4.180   2.898   5.007  0.5966  0.3364 -0.2195
  131OSM   H14F14211   4.182   3.003   5.043 -4.2455 -0.4440  3.3927
  131OSM   H14G14212   4.076   2.893   4.968  1.4415  0.0841 -2.5787
  131OSM   C15F14213   4.285   2.873   4.898 -0.1534  1.0872 -0.2725
  131OSM   H15F14214   4.285   2.772   4.852 -0.3808  1.0861 -0.2749
  131OSM   H15G14215   4.380   2.883   4.954 -0.8052  2.6393  0.6429
  131OSM   C16F14216   4.280   2.982   4.786 -0.0388 -0.3308 -0.2068
  131OSM   H16F14217   4.301   3.077   4.841 -1.8170 -0.0977  0.1287
  131OSM   H16G14218   4.177   2.972   4.746  0.6126 -0.6232 -1.8928
  131OSM   C17F14219   4.375   2.963   4.670 -0.3095  0.2999 -0.5665
  131OSM   H17F14220   4.372   2.854   4.652  1.8447  0.1921 -0.4441
  131OSM   H17G14221   4.474   3.004   4.698 -0.8573  1.1997  0.1463
  131OSM   C18F14222   4.324   3.032   4.548  0.1379 -0.1297 -0.5937
  131OSM   H18F14223   4.330   3.142   4.552  2.6163 -0.2150 -0.8070
  131OSM   H18G14224   4.221   2.996   4.524  0.2205  0.5078 -1.9902
  131OSM   H18H14225   4.391   3.007   4.463 -0.1587  0.4535 -1.0068
  132OSM      N14226   3.813   4.841   6.411  0.6128  0.5165 -0.2325
  132OSM    C1514227   3.746   4.716   6.463  0.5429  0.0291 -0.0336
  132OSM   H15A14228   3.701   4.744   6.557 -1.5432 -2.3069 -0.2278
  132OSM   H15B14229   3.823   4.643   6.482  0.5731 -0.1079 -0.6526
  132OSM   H15C14230   3.673   4.667   6.400  1.3106 -0.1267 -0.8188
  132OSM    C1414231   3.877   4.812   6.277  0.2223 -0.6415  0.6186
  132OSM   H14A14232   3.800   4.772   6.212 -0.5566  2.4480 -0.5237
  132OSM   H14B14233   3.962   4.746   6.286 -0.7667 -1.7901  1.9916
  132OSM   H14C14234   3.903   4.911   6.242 -2.3320  0.0086  0.3421
  132OSM    C1314235   3.710   4.950   6.394  0.9278  0.4670  0.3355
  132OSM   H13A14236   3.674   4.975   6.493  0.4485  0.4528  0.1661
  132OSM   H13B14237   3.629   4.919   6.330  0.9424  2.5549 -0.7771
  132OSM   H13C14238   3.760   5.039   6.358 -1.1526  1.5033 -0.0907
  132OSM    C1214239   3.910   4.898   6.508 -0.4694 -0.1242 -0.0290
  132OSM   H12A14240   3.859   4.931   6.597  0.3138 -2.3557  1.3391
  132OSM   H12B14241   3.951   4.985   6.459 -1.8985  0.9620  0.6098
  132OSM    C1114242   4.021   4.802   6.553  0.4358  0.3131  0.0280
  132OSM   H11A14243   3.984   4.706   6.595  0.5939 -0.1773 -0.9150
  132OSM   H11B14244   4.080   4.848   6.635 -2.7201 -0.1495  2.7678
  132OSM      P14245   4.206   4.876   6.387  0.0127  0.1309  0.4527
  132OSM    O1314246   4.142   5.006   6.396 -0.0440  0.0699 -0.2106
  132OSM    O1414247   4.340   4.865   6.444 -0.1878 -0.1633 -0.1952
  132OSM    O1114248   4.206   4.830   6.239 -0.0825 -1.1898  0.5810
  132OSM    O1214249   4.119   4.762   6.451  0.9211 -0.8113  0.2992
  132OSM    C1S14250   4.215   4.698   6.192  0.0762  0.9528  0.5539
  132OSM    H1S14251   4.123   4.642   6.218 -0.1230  0.8690 -0.3144
  132OSM    H1T14252   4.298   4.645   6.242 -0.7909 -2.0522 -0.9908
  132OSM     NF14253   4.251   4.550   5.988  0.1969 -0.3408 -0.0389
  132OSM    HNF14254   4.342   4.517   5.962  0.1747  0.6947 -1.5650
  132OSM    C2S14255   4.253   4.686   6.037  0.4353  0.8428 -0.2412
  132OSM    H2S14256   4.172   4.732   5.977 -0.4352 -0.9777 -0.5221
  132OSM    C3S14257   4.377   4.769   6.001  0.5418  0.0675  0.9626
  132OSM    H3S14258   4.463   4.721   6.053  0.6984 -1.2453 -0.4093
  132OSM     O314259   4.364   4.901   6.047  0.2023  0.4728 -0.2583
  132OSM    HO314260   4.299   4.900   6.117 -0.3684 -0.8700 -0.7813
  132OSM    C4S14261   4.391   4.770   5.852 -0.8241  0.4126 -0.5971
  132OSM    H4S14262   4.295   4.805   5.811 -1.4992  1.1900  1.5098
  132OSM    C5S14263   4.497   4.723   5.785 -0.1711 -0.0985  0.4013
  132OSM    H5S14264   4.576   4.673   5.843  0.3437 -2.2762 -1.9746
  132OSM    C6S14265   4.511   4.720   5.633 -0.1718  0.9168  0.2562
  132OSM    H6S14266   4.616   4.752   5.613  0.5774 -0.6121  1.5226
  132OSM    H6T14267   4.445   4.797   5.587 -1.2682 -0.6520 -0.8933
  132OSM    C7S14268   4.497   4.590   5.574  0.8630 -0.0652 -0.4732
  132OSM    H7S14269   4.389   4.562   5.575  0.9285 -0.3114  0.3175
  132OSM    H7T14270   4.545   4.517   5.643  1.3394  0.1272 -0.6014
  132OSM    C8S14271   4.544   4.585   5.430 -0.5607  0.2991 -0.1411
  132OSM    H8S14272   4.654   4.600   5.439 -0.5663 -0.9864  3.6917
  132OSM    H8T14273   4.492   4.660   5.368  0.5186  0.8829 -0.3715
  132OSM    C9S14274   4.533   4.442   5.373  0.4773 -0.2691  0.5578
  132OSM    H9S14275   4.427   4.411   5.389 -1.0481  4.3074  0.8808
  132OSM    H9T14276   4.607   4.378   5.425  0.2129 -1.2807 -0.2852
  132OSM   C10S14277   4.575   4.436   5.223  0.0471 -0.1755 -1.1336
  132OSM   H10S14278   4.680   4.469   5.206  0.5640 -1.4337 -0.5271
  132OSM   H10T14279   4.507   4.499   5.162  2.3594  3.8349 -0.0369
  132OSM   C11S14280   4.570   4.297   5.168 -0.0595 -0.6338  0.2978
  132OSM   H11S14281   4.473   4.250   5.194 -0.2746  0.0291  0.7020
  132OSM   H11T14282   4.643   4.238   5.228 -2.0606 -0.6574  2.8637
  132OSM   C12S14283   4.606   4.291   5.019 -0.2730  0.7455  0.0440
  132OSM   H12S14284   4.716   4.305   5.009 -0.1447 -0.0542  0.2807
  132OSM   H12T14285   4.561   4.371   4.957  2.3683  0.9841 -1.7648
  132OSM   C13S14286   4.570   4.151   4.963  0.3027  0.5428 -0.5414
  132OSM   H13S14287   4.460   4.156   4.951  0.1193 -0.2150  0.6794
  132OSM   H13T14288   4.599   4.074   5.038  0.7956 -0.6865 -1.9453
  132OSM   C14S14289   4.637   4.121   4.842 -0.1524  0.5676  1.0421
  132OSM   H14S14290   4.748   4.120   4.844 -0.1302 -0.8085  0.3197
  132OSM   H14T14291   4.603   4.196   4.767 -0.7905 -0.5184  0.2119
  132OSM   C15S14292   4.617   3.976   4.784  0.0542  0.0600  0.2340
  132OSM   H15S14293   4.509   3.971   4.761 -0.0882  2.3734  0.2220
  132OSM   H15T14294   4.647   3.905   4.864 -0.4258  0.6681  0.9633
  132OSM   C16S14295   4.689   3.947   4.651 -0.0902  0.3947  0.3639
  132OSM   H16S14296   4.790   3.993   4.645 -0.2990  0.8695  0.3963
  132OSM   H16T14297   4.634   3.995   4.567  1.9412  0.8298 -0.7786
  132OSM   C17S14298   4.705   3.798   4.624  0.4974  0.4073  0.1172
  132OSM   H17S14299   4.605   3.750   4.616  0.6999 -0.3063  1.5341
  132OSM   H17T14300   4.759   3.750   4.708  0.7207 -2.2784 -1.4355
  132OSM   C18S14301   4.786   3.786   4.494 -0.2639  0.0098 -0.4471
  132OSM   H18S14302   4.883   3.837   4.513 -1.4469  2.2302  0.0637
  132OSM   H18T14303   4.737   3.846   4.414  1.4444  1.2621 -0.5950
  132OSM   H18U14304   4.798   3.682   4.458 -2.4417 -0.5072  0.1533
  132OSM    C1F14305   4.136   4.481   5.986 -0.8368 -0.1446  0.2263
  132OSM     OF14306   4.030   4.523   6.022 -0.4598 -0.0520 -0.0949
  132OSM    C2F14307   4.139   4.348   5.915  0.0399  0.0501 -0.5788
  132OSM    H2F14308   4.238   4.300   5.930  1.6871  2.8311 -1.7085
  132OSM    H2G14309   4.131   4.376   5.807 -0.6749 -0.5560 -0.6871
  132OSM    C3F14310   4.013   4.255   5.941 -0.4018  0.1908 -0.8626
  132OSM    H3F14311   3.927   4.324   5.928 -0.0530  0.9966  0.8786
  132OSM    H3G14312   3.994   4.225   6.046  0.8872 -0.6897 -0.8656
  132OSM    C4F14313   4.004   4.133   5.843 -0.6188 -0.0208  0.2585
  132OSM    H4F14314   3.992   4.040   5.902  1.2208  0.7581  1.9470
  132OSM    H4G14315   4.101   4.115   5.791 -1.4991 -1.5668 -0.9316
  132OSM    C5F14316   3.895   4.138   5.733  0.2409 -0.1926 -0.7423
  132OSM    H5F14317   3.899   4.236   5.680  0.4198  1.0748  1.4525
  132OSM    H5G14318   3.794   4.139   5.781  0.4141  0.0804 -0.3784
  132OSM    C6F14319   3.901   4.021   5.632  0.2715  0.0789 -0.4423
  132OSM    H6F14320   3.902   3.920   5.679  0.5519  0.8430  1.2972
  132OSM    H6G14321   3.999   4.026   5.581  1.2608  0.0937  1.3560
  132OSM    C7F14322   3.787   4.020   5.528  0.1566 -0.3362 -0.1767
  132OSM    H7F14323   3.691   4.015   5.583  0.9915 -2.0489  1.2560
  132OSM    H7G14324   3.792   3.928   5.466 -1.6346  1.8117 -3.7953
  132OSM    C8F14325   3.781   4.151   5.446  0.1202  0.0242 -0.1176
  132OSM    H8F14326   3.747   4.242   5.501  2.3694  2.2603 -2.1828
  132OSM    H8G14327   3.699   4.150   5.371 -2.3242  0.0772  2.3743
  132OSM    C9F14328   3.908   4.172   5.369 -0.1033  0.1791  0.2166
  132OSM    H9F14329   3.978   4.231   5.431  0.3702  1.6107 -1.5999
  132OSM   C10F14330   3.938   4.149   5.240 -0.4813  0.2200  0.1735
  132OSM   H10F14331   4.040   4.169   5.204 -0.8243  0.3725 -0.7447
  132OSM   C11F14332   3.851   4.076   5.140 -0.4289 -0.2658  0.1597
  132OSM   H11F14333   3.809   3.989   5.195  1.1809  0.6936  3.1224
  132OSM   H11G14334   3.924   4.046   5.061  1.2427  1.5167  0.9435
  132OSM   C12F14335   3.746   4.175   5.089  0.1416  0.2170  0.4883
  132OSM   H12F14336   3.777   4.271   5.043 -0.1211 -0.4965 -1.2810
  132OSM   H12G14337   3.668   4.204   5.162  1.3670  0.8427  1.5884
  132OSM   C13F14338   3.677   4.109   4.968 -0.0778 -0.0721  1.0871
  132OSM   H13F14339   3.597   4.175   4.929  1.7144 -0.9026 -5.0414
  132OSM   H13G14340   3.642   4.007   4.994  0.6563 -0.3360  1.0675
  132OSM   C14F14341   3.763   4.089   4.841 -0.5719 -0.1577 -0.0497
  132OSM   H14F14342   3.845   4.017   4.862  0.6928  0.7494 -1.6290
  132OSM   H14G14343   3.803   4.190   4.817 -0.5699 -0.3349 -0.8126
  132OSM   C15F14344   3.696   4.040   4.708 -0.1384  0.1337 -0.2798
  132OSM   H15F14345   3.614   4.111   4.685 -0.2938  0.2774  0.6732
  132OSM   H15G14346   3.661   3.935   4.708  0.1099 -0.0003 -2.6349
  132OSM   C16F14347   3.793   4.040   4.588 -0.0952  0.5907  0.0174
  132OSM   H16F14348   3.877   3.969   4.604  0.2738  0.5773 -1.8391
  132OSM   H16G14349   3.832   4.143   4.579  2.4750 -0.0533  2.3266
  132OSM   C17F14350   3.730   3.993   4.460 -0.2769 -0.7407  0.7238
  132OSM   H17F14351   3.647   4.060   4.430  2.7117  2.4577 -1.1543
  132OSM   H17G14352   3.696   3.889   4.479 -1.8972 -0.4061 -0.1024
  132OSM   C18F14353   3.836   3.986   4.345  0.2198 -0.3067  0.2222
  132OSM   H18F14354   3.798   3.927   4.259 -2.6338 -0.7992  1.7076
  132OSM   H18G14355   3.926   3.930   4.380 -0.0236 -1.5459 -1.0530
  132OSM   H18H14356   3.863   4.086   4.307  2.3812 -0.0972  2.0715
  133OSM      N14357   2.133   0.488   7.107 -0.5274  0.7219 -0.4189
  133OSM    C1514358   2.283   0.485   7.094  0.7267 -0.6116 -0.5219
  133OSM   H15A14359   2.328   0.458   7.188  0.8253 -0.3103 -0.4814
  133OSM   H15B14360   2.319   0.582   7.065  0.4812 -0.3714 -0.0367
  133OSM   H15C14361   2.319   0.415   7.020 -0.8085 -0.6745 -1.2524
  133OSM    C1414362   2.099   0.341   7.113 -0.2928  0.1150  0.0743
  133OSM   H14A14363   2.157   0.293   7.191  0.8059  0.4053 -0.5521
  133OSM   H14B14364   2.118   0.288   7.021 -0.3543  0.8368 -0.3585
  133OSM   H14C14365   1.993   0.323   7.125 -0.4016 -0.0463 -1.0549
  133OSM    C1314366   2.110   0.551   7.241  0.3229  0.6456 -0.4967
  133OSM   H13A14367   2.015   0.519   7.283  0.7677  0.1222  0.1235
  133OSM   H13B14368   2.093   0.657   7.222  1.1125  1.3019  2.1112
  133OSM   H13C14369   2.197   0.536   7.303  2.0720  1.7934 -2.5422
  133OSM    C1214370   2.066   0.557   6.990 -0.3892  0.2945  0.1197
  133OSM   H12A14371   2.100   0.660   6.990  1.8015 -0.3740 -0.0326
  133OSM   H12B14372   1.959   0.553   7.000 -0.4019 -0.9140 -0.3992
  133OSM    C1114373   2.102   0.490   6.853  1.0300 -0.7326  0.0519
  133OSM   H11A14374   2.213   0.487   6.850  1.1185  1.1423  0.0243
  133OSM   H11B14375   2.076   0.566   6.776 -1.0544  0.6768  2.0384
  133OSM      P14376   1.949   0.327   6.719 -0.0168  0.1825 -0.1760
  133OSM    O1314377   1.902   0.186   6.721 -0.6149  0.0443  0.5543
  133OSM    O1414378   1.843   0.426   6.736 -0.5176  0.3380  0.0239
  133OSM    O1114379   2.027   0.360   6.584  0.1232 -0.1353  0.7648
  133OSM    O1214380   2.056   0.358   6.832 -0.1537  0.2137 -0.1622
  133OSM    C1S14381   2.123   0.270   6.527  0.1801 -0.0944 -0.7474
  133OSM    H1S14382   2.085   0.166   6.518  0.6611 -0.1892 -1.8080
  133OSM    H1T14383   2.219   0.273   6.583 -1.0895 -2.1650  1.7817
  133OSM     NF14384   2.263   0.219   6.330  0.3332 -0.3066 -0.6143
  133OSM    HNF14385   2.358   0.244   6.347  0.3767 -1.3206  0.7152
  133OSM    C2S14386   2.166   0.308   6.381 -0.3295 -0.1171  0.3540
  133OSM    H2S14387   2.074   0.295   6.320  0.9972  0.0982 -1.7822
  133OSM    C3S14388   2.217   0.455   6.376 -0.0529 -0.4394  0.4123
  133OSM    H3S14389   2.302   0.468   6.447 -0.1918  0.2082  0.4752
  133OSM     O314390   2.124   0.552   6.433  0.0440  0.5230  0.2119
  133OSM    HO314391   2.095   0.493   6.503  2.7852 -0.5924  0.5075
  133OSM    C4S14392   2.268   0.503   6.242 -0.6987 -0.0355 -0.0028
  133OSM    H4S14393   2.370   0.466   6.223  0.2148  2.9964 -1.7148
  133OSM    C5S14394   2.205   0.581   6.143 -0.0840  1.2307  0.1516
  133OSM    H5S14395   2.102   0.618   6.159 -1.3106 -1.3900 -1.0261
  133OSM    C6S14396   2.256   0.621   6.012 -0.7892 -0.0235 -0.4248
  133OSM    H6S14397   2.276   0.730   6.016  1.4322 -0.3959  2.5072
  133OSM    H6T14398   2.173   0.592   5.944  0.0435 -2.3683 -0.5362
  133OSM    C7S14399   2.386   0.558   5.969 -0.3515  0.0649  0.1022
  133OSM    H7S14400   2.392   0.448   5.976  0.1764  0.1791  2.3665
  133OSM    H7T14401   2.478   0.590   6.023  1.4686 -1.3286 -1.9896
  133OSM    C8S14402   2.427   0.602   5.826 -0.4692  0.0164 -0.6267
  133OSM    H8S14403   2.529   0.573   5.791 -0.9906 -1.0494 -1.2920
  133OSM    H8T14404   2.432   0.713   5.831  0.4136 -0.0557  1.5399
  133OSM    C9S14405   2.333   0.573   5.711  0.1898 -0.1756  0.5882
  133OSM    H9S14406   2.232   0.617   5.725  0.6041 -0.1680  4.3355
  133OSM    H9T14407   2.330   0.469   5.673  2.2689 -0.1012  0.1035
  133OSM   C10S14408   2.382   0.647   5.586 -0.2107 -0.2953 -0.5187
  133OSM   H10S14409   2.491   0.660   5.598 -0.5192  0.5494  1.7776
  133OSM   H10T14410   2.343   0.750   5.599 -0.4831 -0.6827  2.5064
  133OSM   C11S14411   2.331   0.585   5.455  0.1602 -0.4487 -0.2775
  133OSM   H11S14412   2.220   0.576   5.451 -0.1164  2.3860 -0.8957
  133OSM   H11T14413   2.381   0.486   5.446 -0.0094 -0.6880  1.2043
  133OSM   C12S14414   2.371   0.662   5.336 -0.1043  0.5492 -0.4409
  133OSM   H12S14415   2.475   0.699   5.343  0.4776 -1.1390  0.2875
  133OSM   H12T14416   2.306   0.752   5.334 -0.3642  0.3515 -1.5314
  133OSM   C13S14417   2.347   0.583   5.205  0.5756 -0.0847 -0.6039
  133OSM   H13S14418   2.241   0.598   5.176  0.8266 -0.0575 -1.5449
  133OSM   H13T14419   2.349   0.473   5.224 -1.9599  0.1253  1.4125
  133OSM   C14S14420   2.438   0.633   5.089 -0.0348  0.5097 -0.3418
  133OSM   H14S14421   2.546   0.610   5.107 -0.5028  0.3954  2.8138
  133OSM   H14T14422   2.414   0.741   5.083 -0.2567  0.5077  0.4023
  133OSM   C15S14423   2.393   0.558   4.965  0.5307  0.4434  0.2341
  133OSM   H15S14424   2.282   0.560   4.956  0.4654 -2.2798 -0.5313
  133OSM   H15T14425   2.418   0.450   4.973  1.5699  0.7136  0.8467
  133OSM   C16S14426   2.444   0.619   4.830  0.3610  0.3157  0.4985
  133OSM   H16S14427   2.546   0.577   4.814 -0.3819 -1.3962 -0.0038
  133OSM   H16T14428   2.455   0.730   4.833  1.1587  0.2385  0.8296
  133OSM   C17S14429   2.355   0.598   4.706  0.4239  0.2398  0.1056
  133OSM   H17S14430   2.393   0.666   4.626  0.1508 -0.0790 -0.2977
  133OSM   H17T14431   2.253   0.631   4.734  0.9612  1.2269  0.9515
  133OSM   C18S14432   2.345   0.453   4.660  0.1354  1.1335 -0.4559
  133OSM   H18S14433   2.446   0.417   4.632 -0.5821 -0.5347 -1.0506
  133OSM   H18T14434   2.266   0.444   4.582  0.2430 -0.4646 -0.4168
  133OSM   H18U14435   2.314   0.396   4.750  0.9790 -1.5329 -1.7300
  133OSM    C1F14436   2.219   0.095   6.307  0.1866  0.0794  0.2723
  133OSM     OF14437   2.098   0.060   6.297 -0.2584 -0.0351 -0.4129
  133OSM    C2F14438   2.326  -0.003   6.271 -0.0347 -0.6795  0.5535
  133OSM    H2F14439   2.413   0.021   6.336  1.2842 -0.0087 -1.3531
  133OSM    H2G14440   2.368   0.019   6.170  1.1944  3.0415  1.7202
  133OSM    C3F14441   2.263  -0.145   6.265 -0.6403 -0.5346  0.0180
  133OSM    H3F14442   2.180  -0.136   6.191 -0.1812  0.2372 -0.4140
  133OSM    H3G14443   2.227  -0.167   6.368 -0.7758 -1.0399 -0.1390
  133OSM    C4F14444   2.354  -0.253   6.211 -0.0415 -0.4795  0.3756
  133OSM    H4F14445   2.433  -0.283   6.283  0.8368  1.7059  0.4005
  133OSM    H4G14446   2.405  -0.210   6.122 -2.6356  0.8008 -0.5911
  133OSM    C5F14447   2.290  -0.375   6.158 -0.0174  0.1767 -0.1747
  133OSM    H5F14448   2.222  -0.432   6.224  0.2488 -0.0532 -0.0977
  133OSM    H5G14449   2.373  -0.439   6.120  0.1529 -1.2794  2.4169
  133OSM    C6F14450   2.189  -0.353   6.037  0.6588 -0.3110  0.5995
  133OSM    H6F14451   2.244  -0.304   5.954  1.4731  1.7185  2.2318
  133OSM    H6G14452   2.121  -0.276   6.080  2.9354  0.2886  3.4739
  133OSM    C7F14453   2.099  -0.463   5.979 -0.2870 -0.0450  1.0217
  133OSM    H7F14454   1.998  -0.416   5.973  0.6406  1.9251 -4.0005
  133OSM    H7G14455   2.098  -0.553   6.045  1.4792 -0.9495 -0.1340
  133OSM    C8F14456   2.147  -0.512   5.839  0.0060 -0.4902 -0.4692
  133OSM    H8F14457   2.136  -0.433   5.762 -1.0129  0.5774  0.7123
  133OSM    H8G14458   2.072  -0.588   5.807  0.5794 -0.7223 -1.2817
  133OSM    C9F14459   2.288  -0.558   5.839 -0.8162  1.2321 -0.1590
  133OSM    H9F14460   2.309  -0.602   5.938  1.0111  3.0146  0.3189
  133OSM   C10F14461   2.390  -0.543   5.749 -0.6225 -0.4214 -0.1512
  133OSM   H10F14462   2.490  -0.586   5.764 -1.1287 -0.9154  2.1817
  133OSM   C11F14463   2.379  -0.465   5.616  0.7132  0.0864  0.8701
  133OSM   H11F14464   2.474  -0.419   5.582 -0.2088  1.0979 -0.4674
  133OSM   H11G14465   2.303  -0.385   5.631 -1.8987 -1.6927 -1.6676
  133OSM   C12F14466   2.359  -0.575   5.505  0.8545 -0.3428 -0.5123
  133OSM   H12F14467   2.295  -0.659   5.538  0.9329 -0.0598  0.3810
  133OSM   H12G14468   2.459  -0.622   5.489  0.7113 -1.4856  1.6211
  133OSM   C13F14469   2.313  -0.504   5.375  0.5081  0.2876 -0.6443
  133OSM   H13F14470   2.401  -0.436   5.364  0.7684  0.4196  1.8121
  133OSM   H13G14471   2.216  -0.451   5.376  0.0036 -0.6344  0.7696
  133OSM   C14F14472   2.309  -0.613   5.266 -0.1168  0.3532 -0.1813
  133OSM   H14F14473   2.236  -0.691   5.296  0.3078 -0.1012 -0.3236
  133OSM   H14G14474   2.407  -0.662   5.251 -1.0946 -1.4106 -1.0800
  133OSM   C15F14475   2.280  -0.568   5.127  0.2823 -0.0504 -0.1580
  133OSM   H15F14476   2.180  -0.520   5.118  1.1150  1.8349  0.0156
  133OSM   H15G14477   2.267  -0.659   5.065 -1.1022 -0.9698  1.3866
  133OSM   C16F14478   2.392  -0.479   5.073 -0.1363  0.5749  0.6025
  133OSM   H16F14479   2.494  -0.521   5.081  0.1036  0.8376 -0.9018
  133OSM   H16G14480   2.387  -0.384   5.131 -2.3338  1.0998 -0.3492
  133OSM   C17F14481   2.376  -0.442   4.920 -0.3075  0.5836  0.2412
  133OSM   H17F14482   2.388  -0.536   4.862  0.9761  1.0426 -0.2819
  133OSM   H17G14483   2.464  -0.380   4.891  0.3513 -1.1052 -1.5878
  133OSM   C18F14484   2.245  -0.377   4.869  0.0236  0.7603  0.5330
  133OSM   H18F14485   2.168  -0.457   4.866  0.3215  0.4265  1.4139
  133OSM   H18G14486   2.263  -0.337   4.767 -1.1706 -0.7248 -0.3106
  133OSM   H18H14487   2.206  -0.302   4.940 -0.7195 -0.1554  1.1150
  134OSM      N14488   6.317   5.089   6.735 -0.2133  0.0885  0.0659
  134OSM    C1514489   6.352   5.187   6.847  0.2823  0.3905  0.6031
  134OSM   H15A14490   6.301   5.171   6.941 -0.5141 -1.8153 -0.1351
  134OSM   H15B14491   6.334   5.285   6.807 -0.2715 -0.3370 -1.0086
  134OSM   H15C14492   6.455   5.185   6.878  0.5397 -1.3606 -0.2428
  134OSM    C1414493   6.324   4.952   6.787  0.2202  0.0378 -0.3036
  134OSM   H14A14494   6.404   4.933   6.857  0.8040  1.3228 -0.5847
  134OSM   H14B14495   6.358   4.893   6.704 -1.8745 -3.2367  0.9780
  134OSM   H14C14496   6.237   4.917   6.840  0.4003  1.5369  1.0511
  134OSM    C1314497   6.183   5.124   6.676  0.0090 -0.1054  0.2287
  134OSM   H13A14498   6.178   5.229   6.655  0.2663 -0.2667 -0.6719
  134OSM   H13B14499   6.104   5.100   6.746  1.1239  0.6320  1.8073
  134OSM   H13C14500   6.178   5.077   6.579 -1.5912  2.0140 -0.7910
  134OSM    C1214501   6.427   5.105   6.626  0.2427  0.4832 -0.7230
  134OSM   H12A14502   6.519   5.108   6.683  0.0206 -2.0681 -0.1327
  134OSM   H12B14503   6.403   5.201   6.584  1.7862  1.0238 -0.4271
  134OSM    C1114504   6.435   5.011   6.506  0.4998 -0.7745 -0.2874
  134OSM   H11A14505   6.497   5.054   6.424 -0.9670  1.2692 -0.4065
  134OSM   H11B14506   6.330   5.002   6.470 -0.0821  0.3278  1.0431
  134OSM      P14507   6.509   4.760   6.455  0.0523 -0.4163 -0.3069
  134OSM    O1314508   6.640   4.705   6.502  0.7389  0.0261  0.0162
  134OSM    O1414509   6.395   4.674   6.452  0.4437 -0.2532 -0.5148
  134OSM    O1114510   6.529   4.817   6.313 -0.7721 -0.3224  0.3116
  134OSM    O1214511   6.483   4.890   6.553  0.3074  0.4087 -0.7670
  134OSM    C1S14512   6.655   4.876   6.274 -0.0742  0.3054 -0.3963
  134OSM    H1S14513   6.732   4.796   6.284 -0.7245 -0.4828 -1.3937
  134OSM    H1T14514   6.695   4.963   6.330  0.9940  0.5345 -1.4594
  134OSM     NF14515   6.766   5.000   6.102 -0.6808 -0.6174  0.5748
  134OSM    HNF14516   6.746   5.098   6.097 -3.1932 -0.8892  2.8852
  134OSM    C2S14517   6.650   4.923   6.132 -0.7168 -0.7616  1.0566
  134OSM    H2S14518   6.654   4.836   6.063  0.1435 -0.8047  1.1531
  134OSM    C3S14519   6.520   5.002   6.099 -0.1766 -0.1708  0.4128
  134OSM    H3S14520   6.521   5.092   6.164  1.6114 -0.2666  0.5871
  134OSM     O314521   6.399   4.935   6.115  0.0859  0.6002  0.1492
  134OSM    HO314522   6.428   4.877   6.186  1.7979 -1.7960 -2.3130
  134OSM    C4S14523   6.525   5.059   5.960 -0.1021  0.1258  0.1426
  134OSM    H4S14524   6.528   5.169   5.965 -0.3606  0.0844  1.9156
  134OSM    C5S14525   6.509   4.981   5.849  0.0266  0.7028  0.0755
  134OSM    H5S14526   6.496   4.873   5.862 -2.0333  0.8988 -0.0163
  134OSM    C6S14527   6.513   5.031   5.705 -0.0683 -0.7485 -0.6562
  134OSM    H6S14528   6.412   5.067   5.676 -0.2028 -1.0851 -0.6158
  134OSM    H6T14529   6.540   4.941   5.646 -0.7907 -1.7256  0.4470
  134OSM    C7S14530   6.613   5.143   5.674 -0.5695 -0.1004  0.0008
  134OSM    H7S14531   6.715   5.114   5.709 -0.5018  2.0552  1.7778
  134OSM    H7T14532   6.585   5.236   5.728  0.6082 -0.9060  2.1172
  134OSM    C8S14533   6.626   5.169   5.527 -0.3402  0.6309 -0.8101
  134OSM    H8S14534   6.529   5.175   5.473 -0.1509 -0.0742 -1.2465
  134OSM    H8T14535   6.692   5.093   5.480  2.2657  1.2667  1.6050
  134OSM    C9S14536   6.702   5.298   5.494 -0.4813  0.3847 -0.5479
  134OSM    H9S14537   6.798   5.285   5.547 -1.8953 -0.5097  1.9823
  134OSM    H9T14538   6.656   5.385   5.546 -0.1344 -0.1105  0.6273
  134OSM   C10S14539   6.732   5.318   5.347 -0.5617  0.3544  0.4701
  134OSM   H10S14540   6.634   5.299   5.297 -0.9437  1.7318  0.6548
  134OSM   H10T14541   6.801   5.235   5.321  1.4603  2.1586 -0.2202
  134OSM   C11S14542   6.778   5.449   5.289 -0.2494  0.1002 -0.3569
  134OSM   H11S14543   6.888   5.443   5.302 -0.4237 -1.2270  0.7273
  134OSM   H11T14544   6.741   5.530   5.355 -2.7132 -1.9662  0.9945
  134OSM   C12S14545   6.748   5.477   5.141  0.0060 -0.4251  1.1205
  134OSM   H12S14546   6.786   5.579   5.117  0.2753 -1.1141 -1.8272
  134OSM   H12T14547   6.637   5.480   5.134  0.0961 -0.5871 -1.4439
  134OSM   C13S14548   6.793   5.361   5.048 -0.0484  0.3274  0.1215
  134OSM   H13S14549   6.743   5.264   5.068 -1.2717  0.9943  0.3676
  134OSM   H13T14550   6.904   5.359   5.055 -0.0530  0.4404  0.2192
  134OSM   C14S14551   6.763   5.377   4.893 -1.1533 -0.0374  0.6165
  134OSM   H14S14552   6.777   5.478   4.850 -3.1401 -0.0648 -0.2251
  134OSM   H14T14553   6.655   5.355   4.881 -1.2818  1.7254 -2.6576
  134OSM   C15S14554   6.825   5.260   4.817 -0.0528 -0.2820 -0.6065
  134OSM   H15S14555   6.808   5.168   4.877 -1.4888  0.5254  0.2850
  134OSM   H15T14556   6.933   5.284   4.804 -0.4119  3.0471  1.4469
  134OSM   C16S14557   6.761   5.230   4.678 -0.2745  0.5235 -0.5679
  134OSM   H16S14558   6.753   5.330   4.629 -1.0784  0.5752 -0.3413
  134OSM   H16T14559   6.659   5.187   4.680  0.0585 -0.5153  3.6649
  134OSM   C17S14560   6.848   5.134   4.595 -0.4764 -0.5821 -0.2280
  134OSM   H17S14561   6.838   5.031   4.636 -1.5032 -1.0002 -1.4789
  134OSM   H17T14562   6.953   5.165   4.575 -0.4316  0.5763  1.5837
  134OSM   C18S14563   6.778   5.114   4.461 -0.4881 -0.0755  0.1770
  134OSM   H18S14564   6.671   5.084   4.470 -0.3576 -1.0967 -1.3338
  134OSM   H18T14565   6.830   5.033   4.406 -0.0446 -0.1984  0.7609
  134OSM   H18U14566   6.775   5.208   4.401 -1.7545 -0.4967 -0.4450
  134OSM    C1F14567   6.894   4.969   6.091 -1.1574 -0.3694 -0.3296
  134OSM     OF14568   6.925   4.857   6.131 -0.5982 -0.2950 -0.5485
  134OSM    C2F14569   6.989   5.064   6.018 -0.3726  0.7864 -0.3061
  134OSM    H2F14570   7.035   5.130   6.095  1.3070  0.0547 -0.6321
  134OSM    H2G14571   6.918   5.125   5.959 -2.1329  0.5782  1.4726
  134OSM    C3F14572   7.080   4.987   5.924 -0.7071  0.4057  0.6120
  134OSM    H3F14573   7.028   4.923   5.848  1.3003  1.2798 -1.6161
  134OSM    H3G14574   7.136   4.915   5.988  0.6908  1.1562  0.2560
  134OSM    C4F14575   7.179   5.085   5.851 -0.9722  0.0843  0.4220
  134OSM    H4F14576   7.227   5.157   5.919  1.0096 -3.1062  2.6610
  134OSM    H4G14577   7.114   5.138   5.778 -0.4217 -0.8599 -0.8088
  134OSM    C5F14578   7.289   5.007   5.779  1.2131 -0.2425  0.3254
  134OSM    H5F14579   7.354   4.954   5.852 -0.4982 -0.6803  1.6031
  134OSM    H5G14580   7.353   5.078   5.722  0.7500 -0.2940 -0.2624
  134OSM    C6F14581   7.252   4.893   5.681 -0.0064  0.5338  0.1263
  134OSM    H6F14582   7.195   4.938   5.598  0.9775  0.1085 -0.8062
  134OSM    H6G14583   7.192   4.815   5.732  2.1714 -1.2799  0.0893
  134OSM    C7F14584   7.374   4.827   5.608  0.3258  0.2445 -0.5563
  134OSM    H7F14585   7.433   4.761   5.675  1.2662  2.5205  1.0006
  134OSM    H7G14586   7.437   4.910   5.567 -0.4998  0.8542 -0.6110
  134OSM    C8F14587   7.339   4.743   5.495 -0.2515  0.2318 -0.4569
  134OSM    H8F14588   7.276   4.665   5.541  1.3635 -0.6669  0.3210
  134OSM    H8G14589   7.429   4.690   5.456 -0.7992 -0.7149 -0.4421
  134OSM    C9F14590   7.272   4.830   5.387 -0.9856  0.5327 -0.0231
  134OSM    H9F14591   7.165   4.847   5.405 -1.7125 -2.6972 -0.5923
  134OSM   C10F14592   7.322   4.881   5.275 -0.2644  0.0562 -0.3795
  134OSM   H10F14593   7.254   4.935   5.207 -1.0154  0.5800  0.7375
  134OSM   C11F14594   7.461   4.856   5.220  0.3904  0.3876 -0.3645
  134OSM   H11F14595   7.509   4.776   5.281 -2.9580 -1.2558  0.3057
  134OSM   H11G14596   7.511   4.955   5.216 -1.2164  1.1917 -2.9717
  134OSM   C12F14597   7.443   4.824   5.069 -0.0022 -0.1926 -0.3958
  134OSM   H12F14598   7.377   4.907   5.037  2.8354  2.8275  0.9072
  134OSM   H12G14599   7.399   4.723   5.062 -2.9408  1.0418 -1.0122
  134OSM   C13F14600   7.581   4.819   4.994 -0.1769  0.4104  0.0615
  134OSM   H13F14601   7.646   4.736   5.027  1.5673  2.0711  1.0454
  134OSM   H13G14602   7.640   4.910   5.019  1.9236 -0.5810 -1.0485
  134OSM   C14F14603   7.563   4.814   4.843 -0.1130  0.0772  0.1360
  134OSM   H14F14604   7.524   4.913   4.812 -2.4921 -0.9621 -0.3720
  134OSM   H14G14605   7.496   4.734   4.805  0.1759  0.5544 -1.4270
  134OSM   C15F14606   7.689   4.787   4.762 -0.0043 -0.1470 -0.0316
  134OSM   H15F14607   7.741   4.698   4.804  1.1613  0.4264 -0.2390
  134OSM   H15G14608   7.752   4.878   4.766 -0.0561 -0.0418 -1.2407
  134OSM   C16F14609   7.663   4.754   4.607 -0.4002  0.4266 -0.0455
  134OSM   H16F14610   7.608   4.657   4.595 -0.2477  0.0107  2.0840
  134OSM   H16G14611   7.759   4.735   4.556  0.1408  2.3063  0.2039
  134OSM   C17F14612   7.594   4.863   4.531  0.0258  0.0447 -0.3253
  134OSM   H17F14613   7.663   4.950   4.529 -1.9644  1.7215 -0.9686
  134OSM   H17G14614   7.513   4.910   4.591  0.9244  1.6556 -0.3251
  134OSM   C18F14615   7.572   4.829   4.384  0.3734  0.0278 -0.1276
  134OSM   H18F14616   7.492   4.754   4.369 -0.6878  1.3001 -0.9999
  134OSM   H18G14617   7.659   4.780   4.335 -1.6491 -2.0770 -1.7945
  134OSM   H18H14618   7.552   4.921   4.326 -0.1221 -1.3295 -2.2331
  135OSM      N14619   1.854   2.679   6.799 -0.6182  0.5615 -1.1248
  135OSM    C1514620   1.702   2.709   6.813 -0.3566 -0.5095  0.5098
  135OSM   H15A14621   1.662   2.687   6.911 -0.8593  2.1127  0.9605
  135OSM   H15B14622   1.653   2.657   6.733  1.4273 -0.4059 -0.7060
  135OSM   H15C14623   1.692   2.812   6.783 -1.0608 -1.2774 -2.0937
  135OSM    C1414624   1.892   2.594   6.924 -0.5629 -0.5773 -0.1794
  135OSM   H14A14625   1.847   2.495   6.920 -1.0766 -0.3052 -1.6631
  135OSM   H14B14626   1.868   2.645   7.016 -1.9391  2.2616 -1.9822
  135OSM   H14C14627   2.000   2.579   6.926 -0.3556 -0.2022  4.5799
  135OSM    C1314628   1.882   2.597   6.675  0.3895  0.9431 -0.6621
  135OSM   H13A14629   1.868   2.645   6.580  0.3591 -1.4133 -1.9259
  135OSM   H13B14630   1.815   2.512   6.674  1.6292 -0.0980  0.2040
  135OSM   H13C14631   1.987   2.571   6.672  1.3277  4.2418 -0.3993
  135OSM    C1214632   1.939   2.801   6.804 -0.4447  0.1925  0.3198
  135OSM   H12A14633   2.045   2.783   6.795 -0.0445  2.4694 -0.0678
  135OSM   H12B14634   1.914   2.856   6.894 -1.2124 -0.5423  0.5707
  135OSM    C1114635   1.922   2.900   6.693 -0.1755 -0.1696 -0.1757
  135OSM   H11A14636   1.941   2.853   6.594  0.4118  0.7606 -0.5179
  135OSM   H11B14637   2.004   2.974   6.702 -0.1232 -0.1559 -0.7187
  135OSM      P14638   1.782   3.119   6.699  0.5589 -0.0942  0.0250
  135OSM    O1314639   1.638   3.159   6.684 -0.0358 -0.3224  0.3724
  135OSM    O1414640   1.859   3.170   6.818  0.4351  0.4206  0.0235
  135OSM    O1114641   1.859   3.165   6.569  0.3725 -0.1714  0.7936
  135OSM    O1214642   1.792   2.959   6.707 -0.0808  0.6645 -0.0308
  135OSM    C1S14643   1.820   3.127   6.434 -0.5174  1.2004 -0.4664
  135OSM    H1S14644   1.734   3.056   6.431  0.9075 -0.5482 -1.3194
  135OSM    H1T14645   1.908   3.080   6.386 -0.0551  2.7780 -1.2129
  135OSM     NF14646   1.737   3.229   6.220  0.5141  0.5452 -0.4088
  135OSM    HNF14647   1.798   3.256   6.146  0.4282  0.6971 -0.4234
  135OSM    C2S14648   1.776   3.260   6.354 -0.2490  0.2788 -0.0472
  135OSM    H2S14649   1.688   3.299   6.408  0.2687  2.7946 -0.8966
  135OSM    C3S14650   1.879   3.377   6.368 -1.0278  0.1422 -0.0022
  135OSM    H3S14651   1.968   3.353   6.307  0.4241  2.1167  1.2344
  135OSM     O314652   1.925   3.412   6.498 -0.1634  0.6495  0.0769
  135OSM    HO314653   1.877   3.349   6.552 -1.3079  1.9990  0.7136
  135OSM    C4S14654   1.828   3.500   6.291  0.0115 -0.1318 -0.1735
  135OSM    H4S14655   1.721   3.518   6.312  0.3409  1.0567  0.5657
  135OSM    C5S14656   1.893   3.581   6.206  0.8017  0.0671  0.5665
  135OSM    H5S14657   1.987   3.541   6.165  0.1039 -2.0494  0.9113
  135OSM    C6S14658   1.834   3.698   6.136 -1.0166 -0.5920 -0.1591
  135OSM    H6S14659   1.742   3.732   6.188 -1.2765  2.7574 -2.4791
  135OSM    H6T14660   1.816   3.670   6.030  1.4860  3.4767 -1.9266
  135OSM    C7S14661   1.943   3.810   6.125 -0.1729  0.2725  0.4675
  135OSM    H7S14662   2.029   3.778   6.063 -1.0812 -2.3614  0.4470
  135OSM    H7T14663   1.987   3.831   6.225  2.0247  3.2678 -0.9600
  135OSM    C8S14664   1.897   3.949   6.079  1.4312  0.1101  0.1229
  135OSM    H8S14665   1.981   4.018   6.057  0.6238  1.3896  0.9331
  135OSM    H8T14666   1.835   3.996   6.158  3.2170  1.5498  0.7516
  135OSM    C9S14667   1.803   3.948   5.952 -0.1406  0.3568  0.6101
  135OSM    H9S14668   1.766   4.051   5.936 -0.0204  0.5792  1.6987
  135OSM    H9T14669   1.722   3.874   5.968 -0.6011  1.1558  2.2299
  135OSM   C10S14670   1.875   3.906   5.828 -0.6039 -0.2908 -0.0453
  135OSM   H10S14671   1.901   3.798   5.835 -0.7770 -0.4144 -1.1820
  135OSM   H10T14672   1.973   3.958   5.822  0.6134 -2.5137 -0.5283
  135OSM   C11S14673   1.797   3.935   5.698  0.0622  0.4312  0.0637
  135OSM   H11S14674   1.785   4.045   5.687 -1.9360  0.3499  1.1000
  135OSM   H11T14675   1.694   3.900   5.717  0.2877  0.6062  1.7090
  135OSM   C12S14676   1.854   3.872   5.573 -0.4811  0.1675 -0.0599
  135OSM   H12S14677   1.844   3.762   5.582  1.4706 -0.0291  0.1815
  135OSM   H12T14678   1.962   3.898   5.580 -0.4079 -0.5772  2.1137
  135OSM   C13S14679   1.791   3.930   5.449 -0.5169 -0.8611 -0.1059
  135OSM   H13S14680   1.817   4.038   5.454 -0.0216 -0.9628 -0.3570
  135OSM   H13T14681   1.681   3.918   5.445 -0.7842  1.3236 -0.4982
  135OSM   C14S14682   1.847   3.872   5.320  0.1663  0.5799  0.3477
  135OSM   H14S14683   1.820   3.766   5.301  1.5889  0.6583 -2.8517
  135OSM   H14T14684   1.958   3.874   5.315  0.1482 -0.4518 -2.5605
  135OSM   C15S14685   1.797   3.943   5.198  0.3772 -0.1445  0.3777
  135OSM   H15S14686   1.811   4.053   5.198  0.0782 -0.0681 -1.5179
  135OSM   H15T14687   1.688   3.924   5.204  0.1136  1.5080  1.3381
  135OSM   C16S14688   1.862   3.885   5.075 -0.1700  0.1410  0.3865
  135OSM   H16S14689   1.787   3.910   4.997 -1.1199  0.2708  1.3170
  135OSM   H16T14690   1.869   3.774   5.079 -1.2322  0.0880  1.6417
  135OSM   C17S14691   1.996   3.947   5.040 -0.3591 -0.2031 -0.8527
  135OSM   H17S14692   2.061   3.917   5.125 -2.5730 -3.1741 -0.0478
  135OSM   H17T14693   1.993   4.057   5.054 -0.8691 -0.4936  1.6678
  135OSM   C18S14694   2.057   3.910   4.905 -0.1760  0.7004 -0.0920
  135OSM   H18S14695   2.154   3.958   4.882 -0.7080  2.4225  1.0655
  135OSM   H18T14696   1.988   3.938   4.822 -1.6200 -1.0567  0.4429
  135OSM   H18U14697   2.060   3.799   4.896  0.6086  0.6244  1.0118
  135OSM    C1F14698   1.624   3.156   6.196  0.0051  0.0500 -0.0850
  135OSM     OF14699   1.537   3.142   6.280 -0.0730 -0.0184  0.1826
  135OSM    C2F14700   1.608   3.110   6.051 -0.0954 -1.3880  0.3838
  135OSM    H2F14701   1.697   3.056   6.012 -1.2535 -1.6610 -2.0795
  135OSM    H2G14702   1.587   3.199   5.987  1.7531 -1.0006  0.2461
  135OSM    C3F14703   1.485   3.020   6.036  0.2505  0.0389  0.6290
  135OSM    H3F14704   1.401   3.067   6.091  1.6091  0.9260  2.0184
  135OSM    H3G14705   1.505   2.916   6.071  1.4854 -0.5939 -1.7409
  135OSM    C4F14706   1.442   2.998   5.887  0.6079  1.2586  0.0362
  135OSM    H4F14707   1.343   2.949   5.873  0.6496  1.7534 -2.3891
  135OSM    H4G14708   1.433   3.099   5.841 -4.3046  0.4867 -1.2773
  135OSM    C5F14709   1.546   2.900   5.819 -0.0027  0.0035 -0.4112
  135OSM    H5F14710   1.564   2.811   5.883 -1.6309 -0.3306 -0.3696
  135OSM    H5G14711   1.642   2.955   5.831  0.1404 -0.2918 -0.1844
  135OSM    C6F14712   1.512   2.856   5.679 -0.0765  0.5661 -1.1033
  135OSM    H6F14713   1.415   2.803   5.670 -0.8889  1.9105 -0.5124
  135OSM    H6G14714   1.585   2.778   5.647 -1.0912 -0.5434 -0.7830
  135OSM    C7F14715   1.531   2.970   5.576 -0.1222 -0.1005 -0.3796
  135OSM    H7F14716   1.598   3.049   5.617 -1.1066 -0.1560  1.4069
  135OSM    H7G14717   1.435   3.019   5.551  0.7195  0.8343 -1.9728
  135OSM    C8F14718   1.589   2.910   5.438 -0.1394 -0.1021  0.5543
  135OSM    H8F14719   1.521   2.832   5.397 -0.1311  0.9492 -1.5775
  135OSM    H8G14720   1.689   2.870   5.461  0.3169  1.6858  1.9514
  135OSM    C9F14721   1.589   3.013   5.329 -0.6999 -0.6913 -0.1522
  135OSM    H9F14722   1.595   3.115   5.369 -1.1276  0.2181 -2.3081
  135OSM   C10F14723   1.567   2.995   5.198  0.0130 -0.0824 -0.3497
  135OSM   H10F14724   1.555   3.083   5.133 -2.5895  1.0941  1.5136
  135OSM   C11F14725   1.539   2.860   5.138 -0.7687  0.9581 -0.4743
  135OSM   H11F14726   1.551   2.771   5.203  1.5846 -0.3308 -2.5279
  135OSM   H11G14727   1.625   2.843   5.071 -0.9609 -1.0851 -0.2690
  135OSM   C12F14728   1.412   2.837   5.060 -0.2019 -0.5296  0.0753
  135OSM   H12F14729   1.412   2.913   4.979  2.2080  0.0329  0.5096
  135OSM   H12G14730   1.321   2.849   5.122 -0.8892  0.0316 -1.0075
  135OSM   C13F14731   1.414   2.702   4.983  0.2107 -0.8689 -0.1141
  135OSM   H13F14732   1.489   2.635   5.030  1.0095  0.3728  0.4293
  135OSM   H13G14733   1.455   2.720   4.881  0.6684  0.9349  0.3492
  135OSM   C14F14734   1.272   2.642   4.968  0.0753 -0.4421  0.2075
  135OSM   H14F14735   1.211   2.710   4.905  2.1007  1.5891  0.3339
  135OSM   H14G14736   1.221   2.619   5.064  1.0723 -1.5021  0.5006
  135OSM   C15F14737   1.289   2.503   4.894  0.3108 -0.2193  0.3493
  135OSM   H15F14738   1.183   2.477   4.873 -0.0710 -0.5721  2.5244
  135OSM   H15G14739   1.322   2.431   4.971  0.1704  0.1939  0.8027
  135OSM   C16F14740   1.357   2.505   4.757 -0.2734  0.7740 -0.0846
  135OSM   H16F14741   1.361   2.405   4.708  1.4672  1.7765 -2.1742
  135OSM   H16G14742   1.462   2.538   4.769 -0.7909  1.8290  1.8880
  135OSM   C17F14743   1.295   2.607   4.669 -0.6288  0.1201  0.2485
  135OSM   H17F14744   1.330   2.706   4.705  4.7199 -1.1807 -0.6390
  135OSM   H17G14745   1.185   2.590   4.676 -0.5738 -1.7726 -2.1504
  135OSM   C18F14746   1.340   2.608   4.518  0.6315 -0.7406  0.0234
  135OSM   H18F14747   1.446   2.578   4.500  1.0383 -0.2298  1.4364
  135OSM   H18G14748   1.328   2.710   4.475  3.7404  0.1004  0.8438
  135OSM   H18H14749   1.283   2.535   4.457  1.1826 -1.2541  0.1126
  136OSM      N14750   4.450   3.257   6.728 -0.1387  0.3164 -0.5895
  136OSM    C1514751   4.544   3.342   6.644  0.4678  0.5811  0.4777
  136OSM   H15A14752   4.623   3.282   6.599  1.3167  0.1446  2.4251
  136OSM   H15B14753   4.583   3.424   6.702  1.0863  0.5930  0.0639
  136OSM   H15C14754   4.490   3.389   6.564  2.5528  0.4128 -1.1221
  136OSM    C1414755   4.528   3.203   6.845 -0.1153 -0.2442 -0.3977
  136OSM   H14A14756   4.488   3.120   6.902  2.3421 -0.8744  0.5478
  136OSM   H14B14757   4.532   3.289   6.910 -0.8250 -0.6127  0.1488
  136OSM   H14C14758   4.628   3.167   6.826 -0.2216 -2.5612  2.5560
  136OSM    C1314759   4.346   3.347   6.788  0.5325 -0.1160 -0.1112
  136OSM   H13A14760   4.395   3.426   6.844  3.6591 -4.1329  3.4939
  136OSM   H13B14761   4.277   3.296   6.853  0.8291 -0.0075  0.2950
  136OSM   H13C14762   4.292   3.381   6.700 -0.7491 -1.0109  0.3038
  136OSM    C1214763   4.390   3.148   6.642 -0.0742 -0.3248  0.1044
  136OSM   H12A14764   4.323   3.093   6.706  0.3522 -0.3210  0.5536
  136OSM   H12B14765   4.465   3.075   6.619 -1.8025 -2.2458  0.2544
  136OSM    C1114766   4.319   3.178   6.507  0.3903 -0.0532  0.7254
  136OSM   H11A14767   4.294   3.082   6.456  0.8909  0.1189  0.1499
  136OSM   H11B14768   4.389   3.236   6.443 -0.0210 -0.8327 -0.4755
  136OSM      P14769   4.068   3.205   6.594  0.3970  0.4692  0.1323
  136OSM    O1314770   4.073   3.061   6.637 -0.2029 -0.8603 -0.0644
  136OSM    O1414771   4.016   3.301   6.688 -0.4790  0.3581  0.7626
  136OSM    O1114772   3.978   3.207   6.469 -0.0186  0.0174 -0.6356
  136OSM    O1214773   4.209   3.260   6.538  0.0092  0.7695  0.2468
  136OSM    C1S14774   3.985   3.316   6.377  0.2422 -0.4399  0.8699
  136OSM    H1S14775   4.086   3.327   6.332 -0.4481  1.3653 -0.3427
  136OSM    H1T14776   3.956   3.410   6.428 -1.9914 -1.0673  0.8607
  136OSM     NF14777   3.898   3.405   6.171 -0.3497 -0.1325  0.2879
  136OSM    HNF14778   3.830   3.475   6.190  0.0480  0.4234 -0.2834
  136OSM    C2S14779   3.887   3.292   6.254 -0.1389 -0.7973 -1.1170
  136OSM    H2S14780   3.916   3.199   6.201  0.1061 -1.7156  0.5721
  136OSM    C3S14781   3.739   3.278   6.311 -0.4624  0.2297 -0.8374
  136OSM    H3S14782   3.709   3.363   6.375 -0.6494 -0.6401  0.2691
  136OSM     O314783   3.727   3.168   6.398 -0.2443  0.1924 -0.0738
  136OSM    HO314784   3.820   3.158   6.418  0.6040  2.6282 -2.2132
  136OSM    C4S14785   3.652   3.269   6.195  0.6297 -0.0588 -0.1986
  136OSM    H4S14786   3.604   3.363   6.163 -1.5587 -0.9136  0.4122
  136OSM    C5S14787   3.631   3.157   6.119 -0.5994  0.4275  0.4100
  136OSM    H5S14788   3.683   3.071   6.162  1.7419  1.2182 -0.6365
  136OSM    C6S14789   3.533   3.147   6.008  0.4528 -0.6291 -0.2193
  136OSM    H6S14790   3.442   3.201   6.041  0.7148  1.0616 -2.0947
  136OSM    H6T14791   3.511   3.042   5.979  0.8477 -0.0939 -2.6857
  136OSM    C7S14792   3.561   3.223   5.874  0.4838  0.1963 -0.2952
  136OSM    H7S14793   3.653   3.202   5.816  0.7670 -0.3797  0.3498
  136OSM    H7T14794   3.570   3.327   5.911  0.2598 -0.1426  0.7361
  136OSM    C8S14795   3.434   3.211   5.777 -0.0701 -0.9920  0.4273
  136OSM    H8S14796   3.359   3.277   5.825  1.0301  0.5048  0.1436
  136OSM    H8T14797   3.402   3.104   5.773  0.6266 -1.1986  0.2466
  136OSM    C9S14798   3.460   3.246   5.629  1.0181  0.0953 -0.7963
  136OSM    H9S14799   3.560   3.209   5.600  0.8399  2.0369 -4.5374
  136OSM    H9T14800   3.480   3.355   5.623  1.4983 -0.0044 -1.0368
  136OSM   C10S14801   3.358   3.189   5.525 -0.2036 -0.5970  0.4404
  136OSM   H10S14802   3.255   3.222   5.551 -0.1502  1.2151 -1.3438
  136OSM   H10T14803   3.355   3.078   5.522  0.6776 -0.6162 -0.1648
  136OSM   C11S14804   3.356   3.248   5.388  0.2415  0.9006  0.7735
  136OSM   H11S14805   3.446   3.219   5.330 -0.6298  2.0273 -1.2622
  136OSM   H11T14806   3.351   3.359   5.390 -0.2677  0.8858  0.5006
  136OSM   C12S14807   3.227   3.210   5.308 -0.6677 -0.1380  0.5328
  136OSM   H12S14808   3.128   3.255   5.333  0.1309  1.7814  0.3856
  136OSM   H12T14809   3.202   3.104   5.330  1.9872 -1.4805 -2.1708
  136OSM   C13S14810   3.252   3.234   5.158  0.4069  0.9520 -0.1001
  136OSM   H13S14811   3.335   3.168   5.125 -0.9566 -0.2155 -1.3876
  136OSM   H13T14812   3.283   3.338   5.133 -0.3042  1.8083  2.3416
  136OSM   C14S14813   3.123   3.192   5.084  0.0338  0.1259 -0.3757
  136OSM   H14S14814   3.041   3.264   5.103  1.0206  1.6367 -1.5714
  136OSM   H14T14815   3.097   3.086   5.101  0.3590  0.3804  2.0185
  136OSM   C15S14816   3.132   3.213   4.931 -0.4736  0.1097  0.3584
  136OSM   H15S14817   3.206   3.292   4.909  0.7764 -0.6068  1.7941
  136OSM   H15T14818   3.038   3.215   4.872  0.3076 -0.8893 -0.9630
  136OSM   C16S14819   3.208   3.090   4.871 -0.0133 -0.6166 -0.1214
  136OSM   H16S14820   3.269   3.043   4.952 -1.2221 -1.1266  0.5080
  136OSM   H16T14821   3.272   3.121   4.785  0.4301 -0.6005  0.2119
  136OSM   C17S14822   3.101   2.997   4.808  0.2606  0.9952 -0.7850
  136OSM   H17S14823   3.020   3.058   4.762 -1.5712  0.3710  1.4104
  136OSM   H17T14824   3.049   2.936   4.885  3.9069 -1.4706 -0.0520
  136OSM   C18S14825   3.174   2.897   4.713  0.5362  0.1754  0.2350
  136OSM   H18S14826   3.237   2.948   4.637  0.4803 -0.4787 -0.2577
  136OSM   H18T14827   3.097   2.837   4.660 -0.2972  3.2762 -2.4045
  136OSM   H18U14828   3.243   2.832   4.771 -0.2972 -0.9450  0.0096
  136OSM    C1F14829   3.995   3.432   6.079 -0.1847  1.0200  0.3614
  136OSM     OF14830   4.081   3.345   6.066  0.5069  0.1356  0.2986
  136OSM    C2F14831   3.992   3.571   6.013 -0.3170 -0.7101  0.4166
  136OSM    H2F14832   3.950   3.636   6.093 -2.2645 -1.4187  0.0280
  136OSM    H2G14833   3.919   3.560   5.930 -0.7219  1.2442  0.4708
  136OSM    C3F14834   4.123   3.613   5.939  0.2363 -0.7633 -0.0973
  136OSM    H3F14835   4.197   3.531   5.925 -0.0072 -1.0057  0.0094
  136OSM    H3G14836   4.165   3.681   6.016  1.5471 -1.8863  0.2063
  136OSM    C4F14837   4.101   3.692   5.809  0.5438  0.2417  0.0705
  136OSM    H4F14838   4.009   3.751   5.830 -0.1249 -0.5190 -0.6379
  136OSM    H4G14839   4.073   3.621   5.729  0.5526 -0.6405  0.8346
  136OSM    C5F14840   4.218   3.776   5.766  0.0141 -0.1629 -0.2214
  136OSM    H5F14841   4.247   3.844   5.849 -0.2694 -1.1103  0.6817
  136OSM    H5G14842   4.189   3.836   5.677  0.6189  1.5412  0.7022
  136OSM    C6F14843   4.342   3.688   5.738  0.4531  0.0030 -0.2380
  136OSM    H6F14844   4.299   3.600   5.686 -0.2864 -0.0436  0.4344
  136OSM    H6G14845   4.408   3.665   5.824  0.1252 -0.3883 -0.0895
  136OSM    C7F14846   4.431   3.768   5.637  0.6522 -0.6597 -0.7558
  136OSM    H7F14847   4.475   3.845   5.704 -1.4457  0.9796 -1.1645
  136OSM    H7G14848   4.365   3.815   5.562 -1.3858 -2.4400 -0.1823
  136OSM    C8F14849   4.547   3.686   5.578  0.0918 -0.4901 -0.0090
  136OSM    H8F14850   4.600   3.759   5.513 -1.8892 -1.3839 -2.8057
  136OSM    H8G14851   4.501   3.618   5.504  0.9170 -1.4046  0.3030
  136OSM    C9F14852   4.644   3.616   5.668  0.3320 -0.3804 -0.0746
  136OSM    H9F14853   4.605   3.569   5.760  0.1383 -0.5680 -0.2547
  136OSM   C10F14854   4.774   3.617   5.652 -0.0664 -0.1116 -0.4390
  136OSM   H10F14855   4.832   3.562   5.727  2.1216  0.5908 -1.5049
  136OSM   C11F14856   4.840   3.673   5.528 -0.4927 -0.2769 -0.2837
  136OSM   H11F14857   4.945   3.695   5.556 -0.4039  0.6730 -1.2902
  136OSM   H11G14858   4.801   3.776   5.515  0.8378  0.1534 -0.9580
  136OSM   C12F14859   4.833   3.580   5.403  0.2346 -0.6400 -0.1148
  136OSM   H12F14860   4.735   3.529   5.403 -0.0658 -0.0800 -1.0998
  136OSM   H12G14861   4.920   3.512   5.416  0.3863 -0.5493 -0.6487
  136OSM   C13F14862   4.844   3.664   5.273  0.2312 -0.0241 -0.3863
  136OSM   H13F14863   4.950   3.693   5.257  0.5514 -1.7419 -1.6948
  136OSM   H13G14864   4.789   3.760   5.280  1.7627  1.0260 -2.0425
  136OSM   C14F14865   4.785   3.588   5.152 -0.0130 -0.3188 -0.2034
  136OSM   H14F14866   4.675   3.593   5.136  0.0971 -0.3459 -1.0016
  136OSM   H14G14867   4.812   3.481   5.163 -1.2928 -0.6651 -0.2325
  136OSM   C15F14868   4.851   3.641   5.028  0.2095  0.0811 -0.4588
  136OSM   H15F14869   4.949   3.691   5.043 -0.1426  0.6148  0.0870
  136OSM   H15G14870   4.781   3.721   4.997  0.7813  0.7202 -0.1139
  136OSM   C16F14871   4.865   3.543   4.916 -0.5983  0.0583  0.0045
  136OSM   H16F14872   4.902   3.605   4.832 -2.1267 -0.8913 -1.4171
  136OSM   H16G14873   4.767   3.501   4.886 -0.8132  0.4012  0.2247
  136OSM   C17F14874   4.958   3.419   4.940 -0.2738  0.1264 -0.7830
  136OSM   H17F14875   4.936   3.363   4.846  0.3512  0.7406 -1.3007
  136OSM   H17G14876   4.920   3.353   5.021  2.1848 -0.4215  0.0172
  136OSM   C18F14877   5.114   3.445   4.961  0.1230 -0.2786 -0.1100
  136OSM   H18F14878   5.154   3.496   4.871  0.3878  0.5032  0.4401
  136OSM   H18G14879   5.179   3.356   4.975 -0.0966 -0.6980 -1.6455
  136OSM   H18H14880   5.122   3.510   5.051  0.3625 -0.2889 -0.1233
  137OSM      N14881   6.617   3.156   6.486 -0.2944 -0.5690  0.3785
  137OSM    C1514882   6.665   3.148   6.626 -0.6506 -0.0174 -0.4556
  137OSM   H15A14883   6.623   3.063   6.678 -1.0966  0.4483 -0.0457
  137OSM   H15B14884   6.639   3.241   6.675  0.3339  0.3005 -0.5070
  137OSM   H15C14885   6.773   3.146   6.635 -0.6904  1.2912  0.7162
  137OSM    C1414886   6.667   3.285   6.434  0.0758 -0.2166  0.3641
  137OSM   H14A14887   6.651   3.302   6.328  3.5798 -1.6690 -0.5351
  137OSM   H14B14888   6.774   3.291   6.445 -0.2541  2.5380  3.5130
  137OSM   H14C14889   6.610   3.361   6.486 -2.4472 -0.5133 -1.7290
  137OSM    C1314890   6.672   3.035   6.410 -0.1292  0.1677  0.3819
  137OSM   H13A14891   6.779   3.031   6.426 -0.1925 -0.5855  0.6389
  137OSM   H13B14892   6.665   3.039   6.302 -0.3948  1.8878  0.4217
  137OSM   H13C14893   6.627   2.945   6.449  0.3151 -0.9507 -1.5886
  137OSM    C1214894   6.467   3.164   6.493 -0.3185  0.0940 -0.2109
  137OSM   H12A14895   6.430   3.066   6.518 -0.3601  0.1306 -0.1307
  137OSM   H12B14896   6.438   3.193   6.392 -0.8230  1.0761  0.1991
  137OSM    C1114897   6.401   3.260   6.593  1.0777  0.4154 -0.9173
  137OSM   H11A14898   6.405   3.221   6.696  0.6422 -0.9860 -1.4109
  137OSM   H11B14899   6.296   3.265   6.558  1.0207  2.1449 -0.6146
  137OSM      P14900   6.379   3.524   6.613 -0.1804  0.6689  0.1437
  137OSM    O1314901   6.242   3.496   6.661 -0.1008  0.0489  0.3403
  137OSM    O1414902   6.459   3.621   6.690  0.1776  0.2673 -0.6375
  137OSM    O1114903   6.374   3.571   6.463 -0.1916  0.6816  0.7714
  137OSM    O1214904   6.460   3.390   6.599  0.1200  0.2379 -0.1630
  137OSM    C1S14905   6.488   3.648   6.418  0.3899 -0.1840  0.0208
  137OSM    H1S14906   6.583   3.592   6.429  1.4013  0.8549 -2.6352
  137OSM    H1T14907   6.503   3.744   6.473  1.5593  0.4505 -1.3622
  137OSM     NF14908   6.596   3.716   6.207  0.0441 -0.0489 -0.5557
  137OSM    HNF14909   6.599   3.809   6.170 -0.9260 -0.2483 -1.1633
  137OSM    C2S14910   6.465   3.681   6.268  0.6856 -0.3732 -0.1534
  137OSM    H2S14911   6.430   3.586   6.222  1.4846  0.0207 -1.6463
  137OSM    C3S14912   6.350   3.785   6.246  0.3579 -0.1487 -0.0598
  137OSM    H3S14913   6.378   3.882   6.292 -0.9697  1.1216 -1.7892
  137OSM     O314914   6.231   3.751   6.322 -0.1899 -0.4016  0.1740
  137OSM    HO314915   6.257   3.676   6.377 -0.5218  0.1450  1.0926
  137OSM    C4S14916   6.317   3.805   6.098 -0.4200  0.0721  0.9090
  137OSM    H4S14917   6.226   3.756   6.061  0.5734  0.2456 -2.0507
  137OSM    C5S14918   6.372   3.904   6.011  0.4384 -0.0199 -0.1763
  137OSM    H5S14919   6.429   3.985   6.060  0.2922 -0.2453  0.3727
  137OSM    C6S14920   6.311   3.944   5.873  0.4999  0.1458 -0.0131
  137OSM    H6S14921   6.209   3.900   5.876 -0.2679  1.8412 -0.1956
  137OSM    H6T14922   6.370   3.900   5.790  3.0170  0.7544  1.3419
  137OSM    C7S14923   6.297   4.098   5.853 -0.6763  0.5167  0.2883
  137OSM    H7S14924   6.402   4.131   5.849 -0.9184  1.7132  2.4078
  137OSM    H7T14925   6.262   4.147   5.946  0.3641 -0.7321  1.3780
  137OSM    C8S14926   6.208   4.128   5.740  0.2145  0.8266 -0.2652
  137OSM    H8S14927   6.183   4.236   5.737 -0.1134  0.7466 -0.3818
  137OSM    H8T14928   6.116   4.073   5.768 -0.3635  3.0320  2.6286
  137OSM    C9S14929   6.261   4.092   5.593  0.7566 -0.3401  0.4784
  137OSM    H9S14930   6.249   3.982   5.577 -0.5955 -0.0266 -0.9022
  137OSM    H9T14931   6.369   4.115   5.603  1.1187 -0.8827 -1.6410
  137OSM   C10S14932   6.198   4.175   5.479 -0.5718 -0.3635 -0.0613
  137OSM   H10S14933   6.226   4.280   5.502 -0.7600  0.0589 -1.5913
  137OSM   H10T14934   6.088   4.160   5.481 -0.5732 -0.3796 -0.2348
  137OSM   C11S14935   6.240   4.130   5.340  0.0701 -0.2235 -0.0003
  137OSM   H11S14936   6.194   4.035   5.306  2.7289 -1.0067 -1.7449
  137OSM   H11T14937   6.349   4.127   5.316 -0.1653 -1.2084 -0.9881
  137OSM   C12S14938   6.180   4.241   5.252 -0.0901  0.3801  0.2938
  137OSM   H12S14939   6.210   4.342   5.287 -0.0649  0.5432 -0.1946
  137OSM   H12T14940   6.071   4.223   5.257 -0.0019  0.1386  2.0413
  137OSM   C13S14941   6.232   4.220   5.105  0.3828 -0.3116 -0.0525
  137OSM   H13S14942   6.224   4.112   5.080 -1.4689 -0.6354  1.6996
  137OSM   H13T14943   6.339   4.239   5.080 -0.1319  0.1907 -2.0020
  137OSM   C14S14944   6.149   4.299   5.003  0.8586  0.4373 -0.2890
  137OSM   H14S14945   6.181   4.405   5.009 -2.2029  1.3834  3.5872
  137OSM   H14T14946   6.042   4.284   5.031  0.6395  0.4595 -1.1048
  137OSM   C15S14947   6.195   4.252   4.867 -0.0008  0.1309  0.7455
  137OSM   H15S14948   6.172   4.148   4.835  1.3388  0.1277 -0.2785
  137OSM   H15T14949   6.305   4.262   4.863 -0.1958  3.4215  0.5736
  137OSM   C16S14950   6.146   4.349   4.755  0.6109  0.0893 -0.5180
  137OSM   H16S14951   6.188   4.315   4.658  1.2558  0.1310 -0.2614
  137OSM   H16T14952   6.179   4.453   4.778  0.1514  0.1689 -0.2285
  137OSM   C17S14953   5.995   4.357   4.738  1.1591 -0.1829 -0.2541
  137OSM   H17S14954   5.976   4.409   4.641 -0.7408 -0.0445  0.1555
  137OSM   H17T14955   5.944   4.426   4.809  1.3235  0.2754 -0.5743
  137OSM   C18S14956   5.932   4.217   4.745  0.0270 -0.4170 -0.2330
  137OSM   H18S14957   5.889   4.193   4.845  1.8483  0.3900  0.7791
  137OSM   H18T14958   6.010   4.145   4.711 -0.5062 -1.0552 -0.1337
  137OSM   H18U14959   5.842   4.198   4.683 -0.3774  1.3422 -0.2352
  137OSM    C1F14960   6.715   3.648   6.200  0.4486  0.3850 -0.7344
  137OSM     OF14961   6.718   3.531   6.226  0.1661 -0.0957 -0.4352
  137OSM    C2F14962   6.840   3.727   6.154  0.1972 -0.5140  0.1708
  137OSM    H2F14963   6.914   3.724   6.237 -0.5844 -0.3300  0.8882
  137OSM    H2G14964   6.805   3.832   6.147  1.8576 -0.0182 -1.5718
  137OSM    C3F14965   6.895   3.679   6.019  0.3053 -0.8773  0.0834
  137OSM    H3F14966   6.914   3.570   6.030 -1.0387 -0.9084  2.9504
  137OSM    H3G14967   6.990   3.731   5.994 -1.0417  1.0866 -1.2175
  137OSM    C4F14968   6.796   3.696   5.898 -0.3218  0.5511  0.3368
  137OSM    H4F14969   6.768   3.804   5.889  1.4246  0.9769 -0.3052
  137OSM    H4G14970   6.703   3.637   5.912 -0.7849  1.8243  3.2651
  137OSM    C5F14971   6.864   3.662   5.763  0.0928  0.2916  0.8747
  137OSM    H5F14972   6.892   3.556   5.782 -3.7085 -0.5659  2.6376
  137OSM    H5G14973   6.953   3.724   5.741  0.6468 -0.9771 -0.7623
  137OSM    C6F14974   6.766   3.688   5.649  0.7625  0.0295 -0.3821
  137OSM    H6F14975   6.740   3.796   5.647 -2.2444 -0.6020 -2.9830
  137OSM    H6G14976   6.672   3.634   5.674  0.5457  0.6493  0.1683
  137OSM    C7F14977   6.812   3.653   5.511  1.0287 -0.1500  0.0286
  137OSM    H7F14978   6.737   3.679   5.433  1.6286  0.7682 -0.2493
  137OSM    H7G14979   6.804   3.542   5.520 -2.6993  0.0286  0.7351
  137OSM    C8F14980   6.955   3.702   5.476  0.0127  0.2380 -0.7354
  137OSM    H8F14981   6.974   3.657   5.376 -1.2442  0.4623 -1.0898
  137OSM    H8G14982   7.026   3.654   5.546  0.2851  1.7412  0.0652
  137OSM    C9F14983   6.966   3.853   5.465  0.8802 -0.0349 -0.6031
  137OSM    H9F14984   7.009   3.890   5.560 -0.9836 -1.2002  0.7701
  137OSM   C10F14985   6.917   3.929   5.370  0.4563  0.4951 -0.6117
  137OSM   H10F14986   6.929   4.037   5.384  0.3622  0.6107 -1.3686
  137OSM   C11F14987   6.864   3.887   5.240 -0.1240  0.3157  0.0143
  137OSM   H11F14988   6.778   3.952   5.214 -1.2659 -0.9126  0.5995
  137OSM   H11G14989   6.836   3.780   5.231  1.1285 -0.0279  0.0227
  137OSM   C12F14990   6.964   3.911   5.130 -0.7292 -0.4932  0.4810
  137OSM   H12F14991   6.929   3.866   5.034 -0.8528  2.3240 -0.8997
  137OSM   H12G14992   7.058   3.854   5.150 -0.0151  0.4029 -0.2026
  137OSM   C13F14993   6.993   4.061   5.094 -0.1362 -0.5381 -0.3942
  137OSM   H13F14994   7.058   4.110   5.170 -3.1786  1.7953  0.8832
  137OSM   H13G14995   6.897   4.115   5.085 -0.2660 -0.7423 -0.2513
  137OSM   C14F14996   7.058   4.071   4.957  0.3537 -0.6553  0.5783
  137OSM   H14F14997   7.024   3.998   4.880  0.2754  0.0591 -0.0768
  137OSM   H14G14998   7.168   4.052   4.959  1.2346  3.4931  1.4560
  137OSM   C15F14999   7.049   4.211   4.894 -0.2012  0.1962 -0.3070
  137OSM   H15F15000   7.100   4.280   4.965 -0.5320  0.6752 -0.5255
  137OSM   H15G15001   6.943   4.245   4.895  0.3454  2.0451  0.5868
  137OSM   C16F15002   7.119   4.235   4.759 -0.7797  0.4223 -0.6536
  137OSM   H16F15003   7.070   4.173   4.681 -2.7525 -0.1335  0.9460
  137OSM   H16G15004   7.226   4.207   4.761 -0.8700  0.1177  1.0601
  137OSM   C17F15005   7.107   4.378   4.703 -0.2655  0.6103 -0.2977
  137OSM   H17F15006   7.161   4.438   4.778  0.8780  1.1626 -1.5223
  137OSM   H17G15007   6.998   4.400   4.713 -0.9359 -2.0552 -0.9068
  137OSM   C18F15008   7.159   4.388   4.561  0.3313  0.0043 -0.2943
  137OSM   H18F15009   7.106   4.315   4.496  1.4246  0.1005 -1.3132
  137OSM   H18G15010   7.266   4.358   4.561  0.5049  0.3897  2.2262
  137OSM   H18H15011   7.163   4.493   4.525  0.8235 -0.5593 -1.9682
  138OSM      N15012   3.751   2.778   6.616 -0.1447 -0.5205 -0.5716
  138OSM    C1515013   3.622   2.766   6.696 -0.5202 -0.4163  0.5479
  138OSM   H15A15014   3.555   2.694   6.651 -1.0853 -0.2329  1.0693
  138OSM   H15B15015   3.572   2.861   6.712 -0.4362 -0.0362 -1.2152
  138OSM   H15C15016   3.637   2.727   6.796  0.3831  0.0775  0.6137
  138OSM    C1415017   3.730   2.876   6.498 -0.1366  0.5745 -0.6961
  138OSM   H14A15018   3.817   2.886   6.435 -0.8546  0.5155 -1.7161
  138OSM   H14B15019   3.714   2.975   6.538  3.2636  1.9777 -2.4434
  138OSM   H14C15020   3.635   2.852   6.452  0.5301 -1.4626 -1.1141
  138OSM    C1315021   3.845   2.847   6.712 -0.6801  0.2141 -0.9708
  138OSM   H13A15022   3.947   2.851   6.678  1.1647 -1.4684  3.5594
  138OSM   H13B15023   3.864   2.788   6.801  4.3845 -1.5216 -2.8206
  138OSM   H13C15024   3.812   2.943   6.750 -0.2014  0.3171 -0.8071
  138OSM    C1215025   3.796   2.644   6.589 -0.2769 -0.3965 -0.2196
  138OSM   H12A15026   3.781   2.591   6.682 -1.2634  1.4172  0.7174
  138OSM   H12B15027   3.903   2.647   6.572 -0.6994  0.5465 -3.1832
  138OSM    C1115028   3.730   2.561   6.478  0.2178 -0.1533 -0.2590
  138OSM   H11A15029   3.805   2.482   6.458 -0.2352 -0.6875  0.1385
  138OSM   H11B15030   3.711   2.614   6.383 -0.4583 -1.0031 -0.6079
  138OSM      P15031   3.604   2.383   6.624  0.1427 -0.1488  0.1599
  138OSM    O1315032   3.702   2.390   6.735 -0.1019 -0.2436  0.2387
  138OSM    O1415033   3.463   2.371   6.656 -0.2136  0.0905  0.0907
  138OSM    O1115034   3.640   2.269   6.526  0.5068  0.2592 -0.0195
  138OSM    O1215035   3.612   2.517   6.537  0.8118 -0.1018 -0.1848
  138OSM    C1S15036   3.571   2.238   6.402 -0.0370 -0.1431  0.0984
  138OSM    H1S15037   3.465   2.266   6.415 -0.1088 -0.6322  0.5999
  138OSM    H1T15038   3.570   2.127   6.388 -1.7727 -0.1831  0.3322
  138OSM     NF15039   3.526   2.273   6.152  0.0294  0.4109  0.5070
  138OSM    HNF15040   3.531   2.194   6.091 -0.7224 -0.3806  1.4301
  138OSM    C2S15041   3.620   2.290   6.268 -1.1787 -0.0980  0.3137
  138OSM    H2S15042   3.628   2.400   6.281 -1.4776 -0.1953  1.3986
  138OSM    C3S15043   3.768   2.226   6.248  0.2637  0.0175 -0.1400
  138OSM    H3S15044   3.757   2.117   6.230 -2.1322  0.2878 -0.6136
  138OSM     O315045   3.861   2.255   6.354  0.1201  0.2997  0.1843
  138OSM    HO315046   3.800   2.276   6.426 -1.4191 -2.6227 -0.1188
  138OSM    C4S15047   3.832   2.281   6.119 -1.0199  0.2578 -0.1221
  138OSM    H4S15048   3.871   2.384   6.123 -0.6225  0.1872 -1.5225
  138OSM    C5S15049   3.865   2.210   6.008  0.4421 -0.4476 -0.1170
  138OSM    H5S15050   3.830   2.107   5.993 -2.2324  0.5534 -1.3188
  138OSM    C6S15051   3.937   2.279   5.893  0.4617 -0.0114  0.3866
  138OSM    H6S15052   4.026   2.216   5.871 -0.8216 -1.5556 -0.6704
  138OSM    H6T15053   3.958   2.386   5.913 -3.8245  0.8522  1.0923
  138OSM    C7S15054   3.853   2.275   5.767 -0.1249  0.3085  0.4476
  138OSM    H7S15055   3.753   2.324   5.775  0.5216  1.5945  1.0024
  138OSM    H7T15056   3.846   2.167   5.743  0.2484 -0.0240  1.7600
  138OSM    C8S15057   3.926   2.336   5.647  0.2032 -0.2636  0.5275
  138OSM    H8S15058   4.028   2.299   5.622  0.8269  2.1053 -0.7118
  138OSM    H8T15059   3.946   2.442   5.672 -0.2372 -0.2082  0.6548
  138OSM    C9S15060   3.838   2.326   5.524  0.0792 -0.7717 -0.8912
  138OSM    H9S15061   3.733   2.357   5.546  0.9373  0.3151  2.1110
  138OSM    H9T15062   3.834   2.223   5.482  0.2331 -0.0961 -2.6742
  138OSM   C10S15063   3.891   2.399   5.398  0.6760 -0.1410 -0.0766
  138OSM   H10S15064   3.992   2.369   5.366  0.8337  0.2884  0.0045
  138OSM   H10T15065   3.891   2.508   5.419 -0.0167 -0.4508  1.6614
  138OSM   C11S15066   3.799   2.392   5.275  0.8521  0.3969  0.1878
  138OSM   H11S15067   3.694   2.418   5.299 -0.1899 -1.4420 -2.0049
  138OSM   H11T15068   3.809   2.287   5.241  0.3006  0.5875 -0.6130
  138OSM   C12S15069   3.850   2.481   5.163  0.0530  0.0285 -0.2864
  138OSM   H12S15070   3.958   2.461   5.146  0.2003  0.6083 -0.0809
  138OSM   H12T15071   3.848   2.588   5.193  1.5252 -0.0117  0.0610
  138OSM   C13S15072   3.764   2.474   5.032 -0.0826  0.3131 -0.0592
  138OSM   H13S15073   3.670   2.529   5.053  1.0846  2.9171 -1.3222
  138OSM   H13T15074   3.754   2.367   5.002  1.1361 -0.4251  1.9267
  138OSM   C14S15075   3.830   2.544   4.913 -0.8502 -0.0008  0.1254
  138OSM   H14S15076   3.888   2.631   4.951 -2.4589  1.6120 -0.9554
  138OSM   H14T15077   3.756   2.590   4.844 -0.8414 -0.0058  0.1125
  138OSM   C15S15078   3.923   2.450   4.831  0.0874  0.5227  0.2925
  138OSM   H15S15079   3.878   2.349   4.817  1.0643 -0.0308  1.0359
  138OSM   H15T15080   4.014   2.425   4.889 -0.2944 -2.0314 -0.0693
  138OSM   C16S15081   3.957   2.512   4.692 -0.4943  0.3882 -0.0111
  138OSM   H16S15082   3.866   2.542   4.637 -1.2328 -2.8925 -0.7798
  138OSM   H16T15083   4.015   2.438   4.633 -0.4118 -0.7456  1.4211
  138OSM   C17S15084   4.040   2.639   4.702 -0.6384 -0.4183  0.3503
  138OSM   H17S15085   4.135   2.626   4.758  0.3337  0.8930 -0.9321
  138OSM   H17T15086   3.989   2.710   4.771 -4.3717 -3.2961  0.9236
  138OSM   C18S15087   4.070   2.693   4.561  0.8586 -0.1462 -0.7874
  138OSM   H18S15088   4.145   2.633   4.506  0.5259  1.5628 -3.2476
  138OSM   H18T15089   4.096   2.799   4.577 -1.5879  0.4089  0.0112
  138OSM   H18U15090   3.974   2.709   4.507  0.9996  0.9000 -0.7409
  138OSM    C1F15091   3.407   2.341   6.158 -0.0002  0.0701 -0.0040
  138OSM     OF15092   3.376   2.415   6.252 -0.4486  0.3013 -0.3046
  138OSM    C2F15093   3.319   2.328   6.036 -0.5890  0.0825 -1.0668
  138OSM    H2F15094   3.278   2.225   6.038  0.9944 -0.5719  1.0913
  138OSM    H2G15095   3.373   2.330   5.939  0.8218 -3.3396 -0.4815
  138OSM    C3F15096   3.206   2.435   6.021 -0.3734 -0.4889 -0.4165
  138OSM    H3F15097   3.265   2.528   6.005 -0.5421  0.0638  1.8760
  138OSM    H3G15098   3.132   2.459   6.099 -0.0249  2.5678 -0.9233
  138OSM    C4F15099   3.118   2.413   5.896 -0.8535  0.4773  0.2131
  138OSM    H4F15100   3.122   2.498   5.824  0.8530 -2.0769 -3.0221
  138OSM    H4G15101   3.014   2.395   5.930 -0.3720 -3.2456  0.1742
  138OSM    C5F15102   3.143   2.289   5.806  0.3639  0.0112  0.2725
  138OSM    H5F15103   3.121   2.194   5.859  1.9055 -0.4963  0.0397
  138OSM    H5G15104   3.250   2.263   5.796  0.0094 -2.0451  1.3896
  138OSM    C6F15105   3.066   2.292   5.675 -0.0154  0.1671  0.5557
  138OSM    H6F15106   3.101   2.377   5.613 -2.2117  1.2818  0.7604
  138OSM    H6G15107   2.958   2.310   5.690 -0.5004 -0.3046 -1.9428
  138OSM    C7F15108   3.083   2.158   5.597  0.0578 -0.0414  0.3080
  138OSM    H7F15109   3.033   2.077   5.654  0.3148 -0.4363 -0.0228
  138OSM    H7G15110   3.191   2.134   5.593  0.5537  1.7877  1.2361
  138OSM    C8F15111   3.033   2.184   5.452 -0.4331  0.1603 -0.7847
  138OSM    H8F15112   3.078   2.127   5.368 -0.2960  0.9717 -1.2839
  138OSM    H8G15113   3.076   2.286   5.436  1.7620 -0.8710 -2.0475
  138OSM    C9F15114   2.882   2.174   5.452  0.5767 -0.7414 -0.0046
  138OSM    H9F15115   2.838   2.184   5.553  1.6148 -1.2254  0.5037
  138OSM   C10F15116   2.809   2.152   5.345 -0.2514  0.2132 -0.0304
  138OSM   H10F15117   2.699   2.156   5.356 -0.0431  0.2259  2.4231
  138OSM   C11F15118   2.861   2.115   5.209 -0.4722 -0.1312  0.0067
  138OSM   H11F15119   2.825   2.017   5.171 -0.0383 -0.2156 -0.1914
  138OSM   H11G15120   2.968   2.086   5.214 -0.3658 -0.2616 -2.1441
  138OSM   C12F15121   2.816   2.223   5.115 -0.5780 -0.0126  0.5185
  138OSM   H12F15122   2.854   2.324   5.141  0.8003  0.3877 -2.5603
  138OSM   H12G15123   2.706   2.237   5.120 -0.4389  1.4138 -0.0585
  138OSM   C13F15124   2.854   2.179   4.973  0.0422 -0.5958 -0.3232
  138OSM   H13F15125   2.801   2.243   4.899  1.7787 -0.7684 -1.7799
  138OSM   H13G15126   2.819   2.074   4.971 -0.3022 -0.5485  1.3660
  138OSM   C14F15127   3.004   2.206   4.939 -0.2327  1.3693 -0.0827
  138OSM   H14F15128   3.070   2.145   5.003 -2.2614 -2.1053 -1.0541
  138OSM   H14G15129   3.033   2.308   4.973  0.2212  1.2263 -0.0445
  138OSM   C15F15130   3.037   2.175   4.792 -0.2018  0.5910 -0.0795
  138OSM   H15F15131   3.147   2.183   4.775  0.2074 -2.8848  0.2448
  138OSM   H15G15132   2.989   2.245   4.720 -1.2369 -1.6746 -1.6843
  138OSM   C16F15133   2.984   2.035   4.761 -0.3343 -0.6279  0.5841
  138OSM   H16F15134   2.881   2.041   4.720  0.5096  0.0931 -1.5479
  138OSM   H16G15135   2.977   1.978   4.856  0.3853 -0.2635  0.8578
  138OSM   C17F15136   3.070   1.963   4.652  0.1448 -0.2947 -0.6630
  138OSM   H17F15137   3.175   1.970   4.685  0.2376 -2.2447 -0.3908
  138OSM   H17G15138   3.069   2.018   4.556  0.1428 -1.1373 -1.1578
  138OSM   C18F15139   3.017   1.821   4.627 -1.2911 -0.0025  0.1140
  138OSM   H18F15140   3.030   1.768   4.724 -0.5852 -0.5740 -0.2824
  138OSM   H18G15141   3.077   1.783   4.542 -2.3564 -1.4966 -0.0008
  138OSM   H18H15142   2.914   1.813   4.587 -0.7121 -1.3628 -1.1751
  139OSM      N15143   4.300   5.787   6.296  0.0477 -0.1102 -0.1939
  139OSM    C1515144   4.162   5.820   6.270 -0.2469 -0.3694 -0.0927
  139OSM   H15A15145   4.131   5.783   6.173 -0.7182 -0.3757  0.0600
  139OSM   H15B15146   4.155   5.927   6.272  0.4413 -0.3188 -0.1870
  139OSM   H15C15147   4.089   5.771   6.333 -0.1489  0.1256  0.4031
  139OSM    C1415148   4.377   5.850   6.179  0.1401  0.9344  0.6404
  139OSM   H14A15149   4.375   5.958   6.171  0.4426  0.9266  0.4411
  139OSM   H14B15150   4.340   5.802   6.090 -3.3027 -0.3805  2.5568
  139OSM   H14C15151   4.481   5.821   6.176 -0.3166 -0.7231 -0.8998
  139OSM    C1315152   4.346   5.849   6.424 -0.7038 -0.0412 -0.6800
  139OSM   H13A15153   4.442   5.807   6.449 -0.5988 -0.4148 -1.6484
  139OSM   H13B15154   4.275   5.820   6.500  0.5088 -2.9358 -0.5174
  139OSM   H13C15155   4.353   5.956   6.418 -3.5681  0.2237 -0.5998
  139OSM    C1215156   4.315   5.629   6.307  0.4377 -0.1910  0.2832
  139OSM   H12A15157   4.421   5.620   6.325  0.1427 -2.6525  1.2098
  139OSM   H12B15158   4.306   5.595   6.205  0.9449  1.3494 -0.2943
  139OSM    C1115159   4.226   5.554   6.404 -0.5748 -0.5502  0.3653
  139OSM   H11A15160   4.216   5.609   6.500 -3.4884 -2.8139  1.5284
  139OSM   H11B15161   4.251   5.448   6.428 -2.8468 -1.1267  0.4239
  139OSM      P15162   4.084   5.467   6.206  0.4016 -0.2503  0.0552
  139OSM    O1315163   3.952   5.391   6.206 -0.7069  0.4337  0.3449
  139OSM    O1415164   4.102   5.554   6.087  0.4619  0.3372 -0.6798
  139OSM    O1115165   4.203   5.369   6.202  0.0949  0.1368  0.6822
  139OSM    O1215166   4.102   5.538   6.343  0.6175  0.2601 -0.6061
  139OSM    C1S15167   4.233   5.264   6.112  0.5604 -0.2407  0.7678
  139OSM    H1S15168   4.187   5.292   6.015  1.1105  0.8814  0.8151
  139OSM    H1T15169   4.195   5.167   6.150  1.0620 -0.4424  0.7634
  139OSM     NF15170   4.417   5.194   5.958 -0.0336 -0.0348 -0.5991
  139OSM    HNF15171   4.449   5.100   5.962 -0.7858 -0.2537  0.8501
  139OSM    C2S15172   4.391   5.260   6.085  0.0115  0.0818 -0.5372
  139OSM    H2S15173   4.424   5.366   6.076 -0.8877  0.2783 -2.0507
  139OSM    C3S15174   4.457   5.194   6.213  0.7305  0.0727  0.1310
  139OSM    H3S15175   4.406   5.096   6.230  0.4034 -0.0373 -1.3594
  139OSM     O315176   4.437   5.277   6.328  0.4678 -0.2103 -0.0568
  139OSM    HO315177   4.355   5.323   6.307 -0.8953 -2.7222 -0.6940
  139OSM    C4S15178   4.600   5.172   6.197 -0.6238  0.1640 -0.9985
  139OSM    H4S15179   4.659   5.264   6.183 -2.4898  1.7953  1.0067
  139OSM    C5S15180   4.660   5.045   6.194 -0.5396  0.1932 -0.4750
  139OSM    H5S15181   4.601   4.952   6.190 -2.4151  1.3501 -3.6373
  139OSM    C6S15182   4.809   5.021   6.177  0.2757  0.1822 -0.0405
  139OSM    H6S15183   4.840   4.963   6.266  2.2451 -0.8357 -1.3177
  139OSM    H6T15184   4.858   5.120   6.167  0.3359  0.0020 -1.7223
  139OSM    C7S15185   4.825   4.936   6.048  0.2475 -1.3964  0.1640
  139OSM    H7S15186   4.753   4.851   6.054  0.0397 -1.1464  1.4860
  139OSM    H7T15187   4.931   4.904   6.036  0.5761 -0.2820  0.0177
  139OSM    C8S15188   4.795   5.011   5.911  0.5777  0.0437 -0.3081
  139OSM    H8S15189   4.809   5.121   5.914  1.2127 -0.0384 -0.1164
  139OSM    H8T15190   4.687   4.993   5.894  0.6254 -1.5618  0.8443
  139OSM    C9S15191   4.864   4.946   5.789  0.1281 -0.3863  0.2269
  139OSM    H9S15192   4.846   4.837   5.783 -1.2975 -0.0689 -2.7473
  139OSM    H9T15193   4.974   4.964   5.786  0.3275 -1.3397  1.1215
  139OSM   C10S15194   4.812   5.004   5.659  0.5255 -0.1219 -0.1412
  139OSM   H10S15195   4.825   5.112   5.634  1.4193 -0.0380  0.6236
  139OSM   H10T15196   4.703   4.982   5.662  0.1798  1.4028 -0.5554
  139OSM   C11S15197   4.878   4.925   5.542  0.5007  0.7717  0.3438
  139OSM   H11S15198   4.870   4.815   5.560 -0.4357  0.2240 -2.7860
  139OSM   H11T15199   4.988   4.938   5.536  0.6212 -0.1973  0.1882
  139OSM   C12S15200   4.811   4.964   5.412  0.0474 -0.3353 -0.0673
  139OSM   H12S15201   4.863   5.054   5.373 -0.7203  0.4718  0.7259
  139OSM   H12T15202   4.706   4.996   5.426 -1.9665 -4.8138 -2.7554
  139OSM   C13S15203   4.812   4.847   5.316  0.1648 -0.3714  1.0080
  139OSM   H13S15204   4.747   4.759   5.335  0.6335 -0.8568  0.3916
  139OSM   H13T15205   4.911   4.798   5.319  0.6829  0.4937 -0.4845
  139OSM   C14S15206   4.763   4.898   5.170 -0.0533 -0.4075 -0.0274
  139OSM   H14S15207   4.819   4.986   5.130  2.3879 -0.2230  3.3741
  139OSM   H14T15208   4.656   4.928   5.182 -0.1131 -0.7647  0.3235
  139OSM   C15S15209   4.791   4.783   5.074  0.1076 -0.8255  0.1437
  139OSM   H15S15210   4.746   4.692   5.119  0.5770 -0.3150  1.7155
  139OSM   H15T15211   4.902   4.777   5.070  0.2064  0.0065  1.2927
  139OSM   C16S15212   4.729   4.794   4.936  0.2994  0.4378  0.1258
  139OSM   H16S15213   4.766   4.888   4.890 -1.6786  1.1852 -0.0364
  139OSM   H16T15214   4.620   4.801   4.956  0.2563 -0.7815  0.3827
  139OSM   C17S15215   4.764   4.673   4.841 -0.1610 -0.1802 -0.2954
  139OSM   H17S15216   4.732   4.579   4.891  0.3259  0.9404  2.3119
  139OSM   H17T15217   4.873   4.662   4.861  0.0311  0.3866 -0.9885
  139OSM   C18S15218   4.718   4.698   4.699 -0.2387  0.7576 -0.4224
  139OSM   H18S15219   4.607   4.705   4.688 -0.2734  0.6578 -0.1314
  139OSM   H18T15220   4.767   4.626   4.630  1.9464 -0.1353  1.9230
  139OSM   H18U15221   4.757   4.784   4.642 -1.4980  1.0661 -0.8593
  139OSM    C1F15222   4.396   5.251   5.847  0.4770  0.3325  0.1660
  139OSM     OF15223   4.346   5.364   5.842 -0.5111  0.5840  0.1222
  139OSM    C2F15224   4.438   5.162   5.729  0.0338 -0.4369  0.3160
  139OSM    H2F15225   4.402   5.061   5.759  0.0707 -0.1772  1.2631
  139OSM    H2G15226   4.549   5.171   5.726 -0.0006 -0.0465 -2.5579
  139OSM    C3F15227   4.390   5.221   5.591  0.0813  0.2887  0.2844
  139OSM    H3F15228   4.414   5.328   5.579 -0.4488  0.3914  0.1265
  139OSM    H3G15229   4.279   5.224   5.591  0.0524 -0.5197  0.1129
  139OSM    C4F15230   4.440   5.143   5.470 -0.2084 -0.0119  0.6104
  139OSM    H4F15231   4.445   5.035   5.497 -2.4823 -0.4873 -0.6484
  139OSM    H4G15232   4.543   5.183   5.462  0.0903 -0.7647  0.6091
  139OSM    C5F15233   4.362   5.169   5.338 -0.0994  0.1444  0.0979
  139OSM    H5F15234   4.365   5.279   5.328 -0.0300 -0.0544 -2.8534
  139OSM    H5G15235   4.255   5.140   5.344 -0.0872  0.3152  1.6156
  139OSM    C6F15236   4.419   5.102   5.213  0.3845  0.8953 -0.4450
  139OSM    H6F15237   4.430   4.998   5.252  1.1873  0.8615 -0.7328
  139OSM    H6G15238   4.522   5.128   5.181  1.0077 -1.2238 -0.3367
  139OSM    C7F15239   4.319   5.118   5.092 -0.4977  0.9723 -0.3175
  139OSM    H7F15240   4.342   5.217   5.048 -0.5169  2.1725  2.2524
  139OSM    H7G15241   4.216   5.111   5.134 -0.2939  0.1069  0.0650
  139OSM    C8F15242   4.340   5.004   4.988 -0.0426 -0.9233 -0.2485
  139OSM    H8F15243   4.246   4.994   4.929 -1.2347  3.4029  0.6117
  139OSM    H8G15244   4.352   4.906   5.039 -0.0448  0.1438  1.8695
  139OSM    C9F15245   4.452   5.034   4.893 -1.0067  0.7621 -0.0922
  139OSM    H9F15246   4.546   5.065   4.941  0.7475 -0.7460 -2.3336
  139OSM   C10F15247   4.455   5.042   4.756 -0.5187 -0.3508 -0.9124
  139OSM   H10F15248   4.547   5.082   4.710  0.2842 -1.7907 -0.6233
  139OSM   C11F15249   4.342   5.011   4.671  0.5612 -0.2551 -0.0757
  139OSM   H11F15250   4.373   5.029   4.566  0.8692 -0.2901  0.0089
  139OSM   H11G15251   4.254   5.076   4.687 -0.9355 -1.7678 -1.6286
  139OSM   C12F15252   4.276   4.866   4.687  0.5321  0.1101  1.1563
  139OSM   H12F15253   4.188   4.888   4.752 -0.4744  0.8947 -0.3883
  139OSM   H12G15254   4.351   4.787   4.709  1.5197  0.8114  0.4148
  139OSM   C13F15255   4.204   4.809   4.563  0.1880  0.0730 -0.0424
  139OSM   H13F15256   4.161   4.902   4.522 -0.2055 -0.3100 -0.5178
  139OSM   H13G15257   4.125   4.732   4.579  1.0769 -1.0748 -0.9808
  139OSM   C14F15258   4.296   4.751   4.464  0.1468  0.0851 -0.2800
  139OSM   H14F15259   4.367   4.673   4.498  1.8318  1.1889 -1.1304
  139OSM   H14G15260   4.360   4.838   4.437  0.5118  0.0368  0.3956
  139OSM   C15F15261   4.214   4.716   4.343 -0.1055  0.0415  0.3006
  139OSM   H15F15262   4.142   4.796   4.314  0.9016  0.0826 -2.4013
  139OSM   H15G15263   4.147   4.630   4.364 -0.3612  0.4715  1.3197
  139OSM   C16F15264   4.297   4.677   4.218 -0.8893 -0.3231  0.2723
  139OSM   H16F15265   4.373   4.606   4.256  0.4117  0.4223 -0.8338
  139OSM   H16G15266   4.347   4.769   4.180  1.9965 -1.4337  1.1198
  139OSM   C17F15267   4.212   4.618   4.109 -0.3719  0.2191  0.6793
  139OSM   H17F15268   4.133   4.693   4.087 -0.6317  0.0009  0.8546
  139OSM   H17G15269   4.165   4.526   4.150  0.1597  0.1769  1.2204
  139OSM   C18F15270   4.303   4.580   3.990 -0.6557 -0.6587  0.2608
  139OSM   H18F15271   4.251   4.559   3.894  1.7914 -3.4541 -0.6057
  139OSM   H18G15272   4.375   4.498   4.013  1.1514  1.2253  1.6966
  139OSM   H18H15273   4.364   4.668   3.964 -2.3006  0.6967  0.8098
  140OSM      N15274   0.528   3.463   6.229  0.3459  0.3783 -0.2409
  140OSM    C1515275   0.543   3.364   6.345 -0.1827 -0.5238  0.5678
  140OSM   H15A15276   0.482   3.277   6.325 -0.4747 -0.3687  0.7740
  140OSM   H15B15277   0.494   3.391   6.438 -1.3943 -0.3465 -0.0955
  140OSM   H15C15278   0.645   3.329   6.352  0.9807  2.1901 -1.1780
  140OSM    C1415279   0.570   3.398   6.099  0.8433 -0.4027  0.2955
  140OSM   H14A15280   0.550   3.466   6.018 -0.0953 -1.4387 -0.3685
  140OSM   H14B15281   0.515   3.306   6.089  0.9754 -0.4263 -0.2471
  140OSM   H14C15282   0.674   3.368   6.095  0.6944 -0.7225 -2.1313
  140OSM    C1315283   0.389   3.501   6.216 -0.0226  0.0619  0.4700
  140OSM   H13A15284   0.370   3.594   6.166 -0.4360  0.5116  1.4451
  140OSM   H13B15285   0.341   3.533   6.306  0.3803  2.7064 -0.1848
  140OSM   H13C15286   0.335   3.422   6.166  1.0787 -0.8301  0.6384
  140OSM    C1215287   0.603   3.590   6.256 -0.3075 -0.5650  0.4137
  140OSM   H12A15288   0.704   3.569   6.288 -0.6890 -2.2368  0.6052
  140OSM   H12B15289   0.558   3.647   6.336  2.1313  1.3124  0.5624
  140OSM    C1115290   0.619   3.696   6.143 -0.4849  0.3615 -0.0281
  140OSM   H11A15291   0.669   3.647   6.057  2.8478  1.6408  0.9910
  140OSM   H11B15292   0.694   3.774   6.171 -0.2852 -0.4426  1.9061
  140OSM      P15293   0.447   3.880   6.194  0.1371  0.1456 -0.0655
  140OSM    O1315294   0.365   3.834   6.307  1.1027 -0.6829  0.0544
  140OSM    O1415295   0.563   3.965   6.239 -0.2490  0.2423  0.5029
  140OSM    O1115296   0.358   3.960   6.090  0.2464 -0.4938  0.6845
  140OSM    O1215297   0.496   3.753   6.110  0.0745 -0.1144  0.1525
  140OSM    C1S15298   0.390   3.969   5.948  0.0567 -0.0807 -0.3074
  140OSM    H1S15299   0.443   3.877   5.916  0.1371  0.4139 -1.6731
  140OSM    H1T15300   0.465   4.049   5.935  0.2792  0.0281  1.3946
  140OSM     NF15301   0.312   4.017   5.720  0.1562 -0.3296  0.2907
  140OSM    HNF15302   0.339   4.112   5.705 -3.6792  0.8620 -0.1547
  140OSM    C2S15303   0.264   3.990   5.853  0.4609 -0.3241 -0.4874
  140OSM    H2S15304   0.206   3.895   5.854 -1.0201  0.5311  0.9835
  140OSM    C3S15305   0.175   4.108   5.910  0.3462 -0.2272 -0.4182
  140OSM    H3S15306   0.241   4.197   5.909 -2.1539  1.7774  0.7057
  140OSM     O315307   0.132   4.096   6.047  0.6616 -0.1031  1.1133
  140OSM    HO315308   0.200   4.036   6.078  2.6220 -0.0560 -2.5268
  140OSM    C4S15309   0.059   4.139   5.816  0.1332 -0.0137  0.0001
  140OSM    H4S15310   0.073   4.222   5.744  0.0600 -1.1151 -1.3158
  140OSM    C5S15311  -0.065   4.091   5.808  0.0964 -0.1704  0.2397
  140OSM    H5S15312  -0.096   4.015   5.882 -2.5301  0.4948 -0.0738
  140OSM    C6S15313  -0.175   4.123   5.715 -0.1257 -0.5721  0.7703
  140OSM    H6S15314  -0.246   4.195   5.761  2.5265  2.4018  0.5385
  140OSM    H6T15315  -0.239   4.035   5.692 -1.3944  0.4512  0.2422
  140OSM    C7S15316  -0.116   4.194   5.589  0.2820  0.7401  0.6938
  140OSM    H7S15317  -0.018   4.153   5.556 -0.2360  0.0047  0.0135
  140OSM    H7T15318  -0.107   4.302   5.613  0.4903  1.2800 -1.5543
  140OSM    C8S15319  -0.202   4.207   5.457  0.0600  0.1627  0.4309
  140OSM    H8S15320  -0.301   4.252   5.475 -0.9309 -0.2303 -3.3490
  140OSM    H8T15321  -0.225   4.107   5.414 -0.3390  0.9014 -1.1182
  140OSM    C9S15322  -0.137   4.292   5.341 -0.3416  0.3995 -0.4249
  140OSM    H9S15323  -0.035   4.258   5.316  0.4982  2.8459 -0.6265
  140OSM    H9T15324  -0.117   4.396   5.377 -0.0573  0.5983 -1.1441
  140OSM   C10S15325  -0.223   4.285   5.212 -0.5938 -0.1075  0.2050
  140OSM   H10S15326  -0.322   4.330   5.234 -0.2919  1.4400 -1.3914
  140OSM   H10T15327  -0.243   4.181   5.179 -1.9299  0.4294 -0.7507
  140OSM   C11S15328  -0.151   4.368   5.098 -0.0683  0.1332  0.3856
  140OSM   H11S15329  -0.048   4.328   5.084 -0.1235  0.0746  0.1430
  140OSM   H11T15330  -0.150   4.476   5.124 -2.2233  0.5747 -1.1104
  140OSM   C12S15331  -0.214   4.347   4.961 -0.5684  0.4816 -0.3147
  140OSM   H12S15332  -0.323   4.365   4.948 -1.2241 -3.7124 -2.3498
  140OSM   H12T15333  -0.179   4.247   4.929  0.1133  0.5481  0.1897
  140OSM   C13S15334  -0.150   4.447   4.856 -0.2863 -0.2626 -0.1811
  140OSM   H13S15335  -0.049   4.411   4.829  0.0136 -1.4885  2.3282
  140OSM   H13T15336  -0.148   4.542   4.914  1.4352 -0.2954 -0.1499
  140OSM   C14S15337  -0.244   4.464   4.734 -0.6977 -0.1357 -0.5037
  140OSM   H14S15338  -0.343   4.494   4.773 -0.1338 -0.1379  0.9767
  140OSM   H14T15339  -0.258   4.368   4.680  3.1783 -1.4803  0.5700
  140OSM   C15S15340  -0.194   4.558   4.622  0.7715  0.5462 -0.2445
  140OSM   H15S15341  -0.097   4.523   4.583  1.8357  1.6461  1.2776
  140OSM   H15T15342  -0.169   4.655   4.670  1.5327 -0.8795  2.4845
  140OSM   C16S15343  -0.291   4.568   4.503  0.0786  0.1832 -0.5888
  140OSM   H16S15344  -0.383   4.629   4.518  1.1509  2.4113 -2.4064
  140OSM   H16T15345  -0.314   4.466   4.464  2.4207  0.4790 -3.0475
  140OSM   C17S15346  -0.206   4.624   4.386  0.3233  0.4444 -0.1381
  140OSM   H17S15347  -0.268   4.624   4.293  0.0363  1.7281  0.0410
  140OSM   H17T15348  -0.118   4.562   4.358 -0.9326 -1.4355 -0.0707
  140OSM   C18S15349  -0.170   4.769   4.410  0.0840  1.0412 -0.5569
  140OSM   H18S15350  -0.082   4.783   4.477  0.3675 -1.7533 -0.2119
  140OSM   H18T15351  -0.254   4.827   4.454 -0.6890  0.8454 -1.7389
  140OSM   H18U15352  -0.148   4.817   4.313  2.9945 -0.0735 -0.5246
  140OSM    C1F15353   0.377   3.928   5.654  0.2609  0.8258 -0.6723
  140OSM     OF15354   0.388   3.812   5.703  0.5692 -0.0489  0.5409
  140OSM    C2F15355   0.447   3.981   5.537  0.3656 -0.2097 -0.0129
  140OSM    H2F15356   0.531   4.045   5.572  1.4592 -0.7886 -1.4529
  140OSM    H2G15357   0.375   4.050   5.487  0.2384 -0.7947 -0.6500
  140OSM    C3F15358   0.490   3.878   5.432 -0.4700  0.2607 -0.1039
  140OSM    H3F15359   0.413   3.812   5.387  1.0979 -1.1042 -0.9155
  140OSM    H3G15360   0.554   3.811   5.494 -0.6631 -0.1828 -0.3807
  140OSM    C4F15361   0.557   3.947   5.312 -0.6129 -0.0199 -0.5087
  140OSM    H4F15362   0.656   3.994   5.329 -0.4282 -0.6941  0.3548
  140OSM    H4G15363   0.495   4.037   5.292 -2.4960 -1.2332 -0.4075
  140OSM    C5F15364   0.567   3.848   5.194  0.5742  0.1713  0.8431
  140OSM    H5F15365   0.464   3.814   5.170  0.7961 -0.1103  0.2763
  140OSM    H5G15366   0.632   3.762   5.219 -0.4765 -0.7523  0.4741
  140OSM    C6F15367   0.625   3.920   5.068 -1.2416 -0.5436 -0.0523
  140OSM    H6F15368   0.711   3.983   5.100 -2.7573  1.1765  0.8054
  140OSM    H6G15369   0.546   3.993   5.040  0.1872  1.6750  1.4158
  140OSM    C7F15370   0.675   3.827   4.958 -0.6783 -0.4224  0.1609
  140OSM    H7F15371   0.598   3.758   4.916 -0.4090 -0.4667 -0.2737
  140OSM    H7G15372   0.751   3.764   5.008  2.4462  2.5877 -0.3919
  140OSM    C8F15373   0.734   3.900   4.836  0.1116 -0.7531 -0.4297
  140OSM    H8F15374   0.779   3.828   4.764 -0.1239  1.0445 -2.4595
  140OSM    H8G15375   0.815   3.969   4.867 -1.2082  0.5103  0.3112
  140OSM    C9F15376   0.626   3.975   4.762  0.5165 -0.1839 -0.5309
  140OSM    H9F15377   0.529   3.923   4.770  1.8942 -3.0233 -1.0743
  140OSM   C10F15378   0.634   4.093   4.696 -0.4826 -0.4129  0.4861
  140OSM   H10F15379   0.544   4.147   4.664  1.7784  3.8685  0.5602
  140OSM   C11F15380   0.760   4.174   4.678 -0.0500 -0.5256 -0.1437
  140OSM   H11F15381   0.798   4.172   4.574 -1.9037  0.6666 -0.8773
  140OSM   H11G15382   0.842   4.132   4.741 -0.2780  0.2045  0.6559
  140OSM   C12F15383   0.762   4.331   4.718  0.0245  0.4688 -0.1586
  140OSM   H12F15384   0.696   4.385   4.646 -0.5779 -0.6700 -0.4848
  140OSM   H12G15385   0.859   4.379   4.694 -0.8067  1.5499 -1.5614
  140OSM   C13F15386   0.712   4.369   4.858 -0.2304  0.3486  0.2975
  140OSM   H13F15387   0.609   4.329   4.870 -0.3135  0.4804  0.0103
  140OSM   H13G15388   0.709   4.479   4.866  0.9792  0.5509 -1.5212
  140OSM   C14F15389   0.795   4.311   4.972  0.4316 -0.3836  0.1180
  140OSM   H14F15390   0.903   4.334   4.961  0.4132  1.0809  2.2927
  140OSM   H14G15391   0.796   4.200   4.967  0.1557 -0.3940  0.2429
  140OSM   C15F15392   0.746   4.366   5.110  0.3163 -0.4032  0.0809
  140OSM   H15F15393   0.636   4.351   5.106  0.4385 -1.9182  1.5741
  140OSM   H15G15394   0.758   4.477   5.115 -0.3062 -0.2741 -0.9775
  140OSM   C16F15395   0.782   4.289   5.235  0.1990  0.4454  0.7563
  140OSM   H16F15396   0.889   4.308   5.258 -0.1203  0.8166  2.0033
  140OSM   H16G15397   0.777   4.180   5.213  2.2806  0.4767 -0.1114
  140OSM   C17F15398   0.697   4.330   5.359 -0.6828  0.2896  0.2931
  140OSM   H17F15399   0.588   4.317   5.348 -0.9513  2.2547  0.2396
  140OSM   H17G15400   0.712   4.440   5.372  0.4438 -0.0517  2.2273
  140OSM   C18F15401   0.733   4.249   5.479  0.6743 -0.5786 -0.1668
  140OSM   H18F15402   0.669   4.280   5.563  1.0442  2.0785 -0.7628
  140OSM   H18G15403   0.834   4.257   5.525  0.6648 -0.5747 -0.1463
  140OSM   H18H15404   0.717   4.140   5.465  0.1164 -0.7957  1.9685
  141OSM      N15405   0.093   4.193   6.395  0.6239 -0.4395 -0.2590
  141OSM    C1515406   0.184   4.301   6.339 -0.3439  0.4050  0.0818
  141OSM   H15A15407   0.137   4.386   6.294  0.3620  0.7001 -0.1166
  141OSM   H15B15408   0.247   4.259   6.262 -0.4819  0.1194  0.1247
  141OSM   H15C15409   0.248   4.343   6.415 -1.3212  1.2547  0.4515
  141OSM    C1415410  -0.022   4.173   6.307  0.4348  0.2856 -0.0449
  141OSM   H14A15411   0.009   4.142   6.208  0.7130 -1.4571  0.5452
  141OSM   H14B15412  -0.073   4.268   6.306 -0.0684  0.0194 -0.1017
  141OSM   H14C15413  -0.082   4.092   6.346  1.0316  1.0151  2.5692
  141OSM    C1315414   0.160   4.056   6.406  0.0991 -0.2942  0.2646
  141OSM   H13A15415   0.224   4.038   6.320  0.4672 -1.1191  0.6930
  141OSM   H13B15416   0.085   3.978   6.404  0.2856 -0.5023 -2.0424
  141OSM   H13C15417   0.222   4.048   6.494  0.1707 -0.2249  0.2206
  141OSM    C1215418   0.052   4.250   6.532  0.6697  0.2434 -0.2525
  141OSM   H12A15419  -0.012   4.336   6.515 -0.4493 -0.4699  0.2450
  141OSM   H12B15420   0.137   4.285   6.588  1.8843 -1.6871 -0.8208
  141OSM    C1115421  -0.024   4.160   6.633 -0.7624 -0.3948 -0.8243
  141OSM   H11A15422  -0.012   4.198   6.737  0.2937  2.1534 -1.7865
  141OSM   H11B15423   0.013   4.055   6.622 -0.0054  0.0309 -2.7187
  141OSM      P15424  -0.267   4.067   6.566 -0.0929  0.2711 -0.8145
  141OSM    O1315425  -0.222   3.978   6.456 -0.1119  0.5737  0.0140
  141OSM    O1415426  -0.300   3.998   6.693 -0.5465 -0.1047  0.4965
  141OSM    O1115427  -0.390   4.156   6.529 -0.0311 -0.3009 -0.4868
  141OSM    O1215428  -0.157   4.181   6.595 -0.6652  0.1560  0.3651
  141OSM    C1S15429  -0.385   4.269   6.447  0.9927 -0.3748  0.1056
  141OSM    H1S15430  -0.289   4.274   6.392  0.0682 -0.5374 -1.6114
  141OSM    H1T15431  -0.388   4.365   6.502 -1.1595 -0.6214  0.5267
  141OSM     NF15432  -0.453   4.379   6.231 -0.1001 -0.4699  0.0310
  141OSM    HNF15433  -0.508   4.461   6.224  0.2489 -0.3349 -1.4857
  141OSM    C2S15434  -0.494   4.276   6.332  1.0034 -0.4596  0.1095
  141OSM    H2S15435  -0.497   4.176   6.284  2.6372 -1.1431  1.3036
  141OSM    C3S15436  -0.644   4.278   6.387  0.1260 -0.5564  0.1124
  141OSM    H3S15437  -0.651   4.382   6.423 -3.2887 -0.3921 -0.7372
  141OSM     O315438  -0.675   4.195   6.498  0.4650 -0.8563  0.2760
  141OSM    HO315439  -0.593   4.189   6.548 -0.6503  1.7601  2.6994
  141OSM    C4S15440  -0.749   4.268   6.282  0.4906  0.3657 -0.0054
  141OSM    H4S15441  -0.754   4.369   6.237  1.4179  0.5754  0.3260
  141OSM    C5S15442  -0.810   4.159   6.237  0.3387  0.4388 -0.6243
  141OSM    H5S15443  -0.789   4.067   6.292  0.6958  0.5594 -0.5601
  141OSM    C6S15444  -0.909   4.161   6.118  0.0392  0.3045 -0.7284
  141OSM    H6S15445  -1.013   4.150   6.155  0.1703 -0.4412 -0.5471
  141OSM    H6T15446  -0.885   4.075   6.052  1.8175  0.2066 -0.0070
  141OSM    C7S15447  -0.897   4.290   6.037  0.0706  0.4607  0.9519
  141OSM    H7S15448  -0.795   4.306   5.995 -0.6078  0.5326 -0.7099
  141OSM    H7T15449  -0.929   4.378   6.097 -0.3698  0.7933  0.2394
  141OSM    C8S15450  -0.979   4.280   5.906 -0.0608  0.7003 -0.5444
  141OSM    H8S15451  -1.083   4.258   5.941  0.5467  0.1176  0.9911
  141OSM    H8T15452  -0.939   4.190   5.855 -0.4723  1.1774 -1.7376
  141OSM    C9S15453  -0.963   4.403   5.818 -0.3215  0.4549  0.3714
  141OSM    H9S15454  -0.853   4.425   5.818 -0.5563  1.7632  0.9503
  141OSM    H9T15455  -1.014   4.488   5.868 -0.4651 -0.0057  1.0135
  141OSM   C10S15456  -1.010   4.383   5.674  0.3941 -0.5646  0.4596
  141OSM   H10S15457  -1.119   4.398   5.683  0.7615  3.0034  0.4600
  141OSM   H10T15458  -0.990   4.277   5.648 -1.5787 -0.7737 -0.3507
  141OSM   C11S15459  -0.940   4.473   5.569 -0.3222  0.2375  0.4619
  141OSM   H11S15460  -0.842   4.421   5.555 -1.0857 -0.6821 -1.9775
  141OSM   H11T15461  -0.930   4.578   5.602 -1.3039  0.3405  0.4644
  141OSM   C12S15462  -1.002   4.469   5.425  0.3589 -0.0578  0.0142
  141OSM   H12S15463  -1.102   4.512   5.447 -0.4929 -2.2472  0.6343
  141OSM   H12T15464  -0.997   4.362   5.397  1.0107  0.2864 -1.2435
  141OSM   C13S15465  -0.928   4.559   5.324  0.3598 -0.0636  0.1114
  141OSM   H13S15466  -0.831   4.518   5.289  0.3926  0.3589 -0.3016
  141OSM   H13T15467  -0.916   4.660   5.369 -0.5117 -0.0427  0.3216
  141OSM   C14S15468  -1.019   4.579   5.198 -0.0907  0.3498 -0.4951
  141OSM   H14S15469  -1.112   4.618   5.245  1.6703  1.5380  2.2743
  141OSM   H14T15470  -1.035   4.481   5.149  2.2564  0.6325 -2.0254
  141OSM   C15S15471  -0.945   4.672   5.104 -0.7348 -0.5029  0.2923
  141OSM   H15S15472  -0.865   4.622   5.044  1.5563  1.8809  1.1723
  141OSM   H15T15473  -0.896   4.755   5.159 -0.1770  0.1900 -1.1738
  141OSM   C16S15474  -1.035   4.743   5.000  0.1312  0.0641 -0.0126
  141OSM   H16S15475  -1.118   4.796   5.050 -0.6306 -0.4982 -0.6542
  141OSM   H16T15476  -1.082   4.674   4.926  0.6813 -0.1341 -0.1852
  141OSM   C17S15477  -0.961   4.853   4.917  0.4404 -0.1248 -0.3852
  141OSM   H17S15478  -1.043   4.912   4.871 -0.7050 -0.6474  0.9338
  141OSM   H17T15479  -0.908   4.796   4.837  0.0917  0.0212 -0.7235
  141OSM   C18S15480  -0.870   4.948   4.991  0.4479  0.6747 -0.0176
  141OSM   H18S15481  -0.800   4.882   5.047 -0.5355  0.0276  0.4792
  141OSM   H18T15482  -0.926   5.009   5.065  2.0121  1.3000  0.6986
  141OSM   H18U15483  -0.823   5.023   4.923  1.9507  0.3985  0.6729
  141OSM    C1F15484  -0.355   4.368   6.137  0.5487  0.5669 -0.4036
  141OSM     OF15485  -0.290   4.266   6.125  0.6754  0.3612  0.4825
  141OSM    C2F15486  -0.351   4.480   6.045  0.4335 -0.5939  0.5637
  141OSM    H2F15487  -0.267   4.543   6.081 -0.1769 -0.2249  1.3602
  141OSM    H2G15488  -0.447   4.536   6.048  1.6001  1.4728  1.3137
  141OSM    C3F15489  -0.370   4.434   5.896 -0.6455  0.2377  0.4219
  141OSM    H3F15490  -0.466   4.378   5.889 -0.1029 -0.8195  1.1985
  141OSM    H3G15491  -0.292   4.358   5.874 -0.6053  0.8508 -1.8616
  141OSM    C4F15492  -0.367   4.540   5.791  0.0411 -0.0871  0.1612
  141OSM    H4F15493  -0.260   4.565   5.774 -0.1630  0.9529  0.3575
  141OSM    H4G15494  -0.411   4.634   5.830 -0.2293  0.6787 -1.8304
  141OSM    C5F15495  -0.437   4.502   5.659  0.0332  1.0338 -0.0815
  141OSM    H5F15496  -0.533   4.449   5.679  1.3269 -0.8586  1.6264
  141OSM    H5G15497  -0.372   4.422   5.619  3.3629  3.1777  0.6597
  141OSM    C6F15498  -0.453   4.614   5.558  0.2935 -0.4966  0.5646
  141OSM    H6F15499  -0.362   4.673   5.537 -1.2425  2.2930  1.2203
  141OSM    H6G15500  -0.523   4.686   5.606 -2.8452 -2.4369 -0.7241
  141OSM    C7F15501  -0.509   4.582   5.417 -0.5837 -0.5269  0.4025
  141OSM    H7F15502  -0.607   4.531   5.421 -1.2582  0.8222  2.5461
  141OSM    H7G15503  -0.443   4.513   5.359 -0.9079  0.7942 -1.6696
  141OSM    C8F15504  -0.501   4.704   5.330  0.6111 -0.2472  0.2869
  141OSM    H8F15505  -0.394   4.729   5.315  0.3447  1.0956  0.4475
  141OSM    H8G15506  -0.539   4.796   5.381 -1.1863  0.5548 -2.2839
  141OSM    C9F15507  -0.588   4.704   5.209  0.1340 -0.0048 -0.3956
  141OSM    H9F15508  -0.691   4.671   5.230  0.6838 -0.4532  1.8134
  141OSM   C10F15509  -0.541   4.714   5.082 -0.3170  0.0206 -0.8595
  141OSM   H10F15510  -0.605   4.713   4.992  1.3749  1.3275 -2.1463
  141OSM   C11F15511  -0.404   4.762   5.050  0.3204  0.5632  0.9337
  141OSM   H11F15512  -0.342   4.672   5.029 -0.9474 -0.4458  1.4130
  141OSM   H11G15513  -0.350   4.810   5.134  1.5135 -0.3078  0.7065
  141OSM   C12F15514  -0.400   4.862   4.936 -0.2814 -0.4215  0.0240
  141OSM   H12F15515  -0.309   4.923   4.955  0.0898 -1.2423  0.9595
  141OSM   H12G15516  -0.484   4.934   4.951  0.0004  0.0573 -0.6144
  141OSM   C13F15517  -0.408   4.813   4.792 -0.9238 -0.1726 -0.4329
  141OSM   H13F15518  -0.465   4.719   4.776  0.5797 -0.9562 -1.5174
  141OSM   H13G15519  -0.306   4.780   4.761 -0.4608  0.9317 -0.1358
  141OSM   C14F15520  -0.464   4.918   4.690  0.6127 -0.3814 -0.1768
  141OSM   H14F15521  -0.433   4.889   4.587  1.4323 -0.1681 -0.0006
  141OSM   H14G15522  -0.419   5.020   4.692  1.6158 -0.8270  0.5064
  141OSM   C15F15523  -0.619   4.928   4.702 -0.4934  0.6174  0.2977
  141OSM   H15F15524  -0.645   4.988   4.792 -2.9666 -2.4439  1.8326
  141OSM   H15G15525  -0.671   4.832   4.724 -0.2543  0.4673  0.2195
  141OSM   C16F15526  -0.688   4.982   4.580  0.2901  0.2807 -0.2258
  141OSM   H16F15527  -0.650   4.927   4.491 -0.2629  0.5673 -0.6470
  141OSM   H16G15528  -0.656   5.087   4.558 -1.7341  0.9221 -0.3254
  141OSM   C17F15529  -0.842   4.972   4.588  0.2125 -0.5246 -0.0685
  141OSM   H17F15530  -0.878   5.005   4.688 -0.2794  0.8540 -0.6834
  141OSM   H17G15531  -0.884   4.869   4.585 -1.7719  0.2327 -0.0273
  141OSM   C18F15532  -0.917   5.041   4.471 -0.7467 -0.2583  0.0472
  141OSM   H18F15533  -1.025   5.031   4.498 -1.3320  3.9460 -0.0007
  141OSM   H18G15534  -0.890   4.989   4.377  1.1394 -0.2264  0.5387
  141OSM   H18H15535  -0.895   5.150   4.463 -1.2494 -0.2026 -0.7020
  142OSM      N15536   5.595   3.370   6.644 -0.2267  0.1186 -0.0111
  142OSM    C1515537   5.564   3.233   6.692 -0.9390  0.6039 -0.6289
  142OSM   H15A15538   5.633   3.165   6.643 -1.7513 -0.4385 -0.3638
  142OSM   H15B15539   5.460   3.211   6.674 -0.6700 -2.4747  0.8664
  142OSM   H15C15540   5.589   3.236   6.797  1.8200  1.6873 -1.2289
  142OSM    C1415541   5.492   3.470   6.698 -0.1564  0.2539 -0.3805
  142OSM   H14A15542   5.506   3.488   6.803 -0.1931  0.4051 -0.4021
  142OSM   H14B15543   5.389   3.438   6.692  0.1252 -1.1890  1.5025
  142OSM   H14C15544   5.496   3.567   6.652 -2.7355 -0.2514 -1.9310
  142OSM    C1315545   5.729   3.400   6.697 -0.0744  0.1155  0.0463
  142OSM   H13A15546   5.765   3.495   6.659 -1.5225  0.6439 -0.0425
  142OSM   H13B15547   5.788   3.315   6.666 -0.2173 -0.5008  1.4281
  142OSM   H13C15548   5.747   3.407   6.803  1.2103 -2.8174  0.1301
  142OSM    C1215549   5.577   3.371   6.494 -0.2999 -0.2930 -0.2163
  142OSM   H12A15550   5.605   3.468   6.457  1.6362 -0.5369  0.4933
  142OSM   H12B15551   5.475   3.351   6.465 -0.3252 -1.3850  0.5594
  142OSM    C1115552   5.670   3.275   6.415  0.5958 -0.5245 -0.8978
  142OSM   H11A15553   5.774   3.290   6.452 -0.8434  2.1337  2.5557
  142OSM   H11B15554   5.668   3.302   6.307  0.3187 -0.5280 -0.8929
  142OSM      P15555   5.500   3.073   6.358  0.3403  0.1153 -0.0835
  142OSM    O1315556   5.482   2.939   6.427 -0.6257 -0.3307 -0.3158
  142OSM    O1415557   5.387   3.166   6.380 -0.1830 -0.5260  0.1316
  142OSM    O1115558   5.541   3.060   6.206  0.2691 -0.2491  0.0771
  142OSM    O1215559   5.627   3.142   6.424 -0.4220  0.0618 -0.6024
  142OSM    C1S15560   5.671   2.992   6.179 -0.3476 -0.2384 -0.1121
  142OSM    H1S15561   5.658   2.885   6.209 -1.5367 -0.3400 -0.9584
  142OSM    H1T15562   5.750   3.048   6.233 -1.9750  3.5634 -1.3816
  142OSM     NF15563   5.808   2.899   6.001  0.0175 -0.8114  0.6308
  142OSM    HNF15564   5.885   2.942   5.955 -1.3479  0.3470 -0.6993
  142OSM    C2S15565   5.696   2.990   6.027 -0.2362  0.6080  0.0638
  142OSM    H2S15566   5.602   2.953   5.980 -0.7341  1.6019  0.2362
  142OSM    C3S15567   5.709   3.136   5.976  0.1585 -0.2123 -0.0226
  142OSM    H3S15568   5.805   3.177   6.014 -0.5397  1.5891 -0.0913
  142OSM     O315569   5.610   3.225   6.031  0.2375  0.0701 -0.1224
  142OSM    HO315570   5.575   3.173   6.104 -1.5797 -2.0588 -2.3118
  142OSM    C4S15571   5.713   3.150   5.828 -0.4401 -0.5420  0.4821
  142OSM    H4S15572   5.618   3.135   5.774  0.5825 -0.4486 -1.4300
  142OSM    C5S15573   5.820   3.197   5.763 -0.1223  0.1624  0.2722
  142OSM    H5S15574   5.915   3.224   5.811  0.6083  0.7325 -1.4105
  142OSM    C6S15575   5.832   3.240   5.619  0.0331  0.5839  0.4176
  142OSM    H6S15576   5.922   3.195   5.572 -0.3346  0.4075 -0.1317
  142OSM    H6T15577   5.850   3.349   5.610  1.9105  0.1312 -2.8759
  142OSM    C7S15578   5.714   3.210   5.525 -0.2112  0.2758  0.0588
  142OSM    H7S15579   5.616   3.236   5.569 -0.8731 -2.6638  0.5278
  142OSM    H7T15580   5.700   3.100   5.519  0.9836 -0.1204  2.6658
  142OSM    C8S15581   5.723   3.281   5.390  0.0223  0.1161  0.0143
  142OSM    H8S15582   5.753   3.387   5.404  1.2035 -0.0419 -1.0886
  142OSM    H8T15583   5.619   3.276   5.349  0.5478 -1.3561 -1.2466
  142OSM    C9S15584   5.831   3.220   5.294  0.4197  0.0043  0.6832
  142OSM    H9S15585   5.828   3.111   5.316  1.6653  0.0497  1.1831
  142OSM    H9T15586   5.927   3.245   5.343 -0.2362  0.8883  1.5588
  142OSM   C10S15587   5.838   3.249   5.142 -0.4597  0.5771  0.2021
  142OSM   H10S15588   5.943   3.236   5.107 -0.2559 -0.2510  1.0719
  142OSM   H10T15589   5.799   3.349   5.113 -1.1687 -0.0570 -1.1293
  142OSM   C11S15590   5.766   3.140   5.055  0.1096 -0.1251 -0.1497
  142OSM   H11S15591   5.660   3.126   5.084  0.0253 -0.1673 -0.4683
  142OSM   H11T15592   5.811   3.048   5.097 -0.2144  0.3390  1.2586
  142OSM   C12S15593   5.759   3.157   4.899 -0.5231  0.2622 -0.1382
  142OSM   H12S15594   5.735   3.068   4.837  0.2684  0.2850 -0.4939
  142OSM   H12T15595   5.853   3.197   4.854  0.3949 -2.5383 -0.9570
  142OSM   C13S15596   5.653   3.246   4.853 -0.3655  0.2217 -0.6710
  142OSM   H13S15597   5.655   3.344   4.906 -0.7325  0.0484 -0.3355
  142OSM   H13T15598   5.557   3.204   4.888  0.7422 -0.5359  1.6821
  142OSM   C14S15599   5.650   3.259   4.700  0.2186 -0.3230 -0.5697
  142OSM   H14S15600   5.758   3.244   4.678  0.3846  0.9316 -0.7069
  142OSM   H14T15601   5.641   3.367   4.676 -1.5527  0.0309  1.4234
  142OSM   C15S15602   5.557   3.168   4.622 -0.4173 -0.1650  0.5062
  142OSM   H15S15603   5.582   3.062   4.639  1.5117 -0.1134 -1.5770
  142OSM   H15T15604   5.572   3.181   4.513 -0.0523  0.2151  0.5989
  142OSM   C16S15605   5.404   3.206   4.650 -0.3753 -0.2309 -0.3008
  142OSM   H16S15606   5.373   3.194   4.756  1.4239  0.4880  0.3423
  142OSM   H16T15607   5.341   3.141   4.586 -0.6944 -0.0994 -0.1221
  142OSM   C17S15608   5.359   3.344   4.601 -0.7311  0.1003  0.1234
  142OSM   H17S15609   5.394   3.353   4.496  1.1034 -0.9617  0.5911
  142OSM   H17T15610   5.416   3.419   4.661 -0.8504 -0.6137  1.1467
  142OSM   C18S15611   5.209   3.368   4.609  0.2320  0.4249 -0.6527
  142OSM   H18S15612   5.151   3.287   4.560 -0.7171 -0.2297  1.4509
  142OSM   H18T15613   5.173   3.462   4.561 -2.6044  1.3959  2.9280
  142OSM   H18U15614   5.177   3.369   4.715  0.5902  1.2616 -0.5424
  142OSM    C1F15615   5.806   2.765   6.025 -0.3931  0.0443 -0.2906
  142OSM     OF15616   5.714   2.706   6.083 -0.1740 -0.1091  0.4163
  142OSM    C2F15617   5.926   2.691   5.979 -0.6969  0.3516 -0.2867
  142OSM    H2F15618   5.983   2.668   6.071 -1.0727 -0.2728 -0.1990
  142OSM    H2G15619   5.979   2.750   5.902 -1.6506  1.5275 -0.0748
  142OSM    C3F15620   5.891   2.553   5.921 -0.1253  0.4121  0.0631
  142OSM    H3F15621   5.823   2.552   5.832 -1.2228 -0.0171  0.8848
  142OSM    H3G15622   5.833   2.501   6.000 -0.4285  1.8172  0.7791
  142OSM    C4F15623   6.008   2.465   5.879  0.0949 -0.1476  0.0034
  142OSM    H4F15624   5.973   2.368   5.837 -0.4442  0.7793 -1.7754
  142OSM    H4G15625   6.063   2.437   5.971  0.2216 -1.3778 -0.4166
  142OSM    C5F15626   6.110   2.528   5.788 -0.9872 -1.2184  0.4927
  142OSM    H5F15627   6.154   2.611   5.846 -1.2076 -1.0162  0.3732
  142OSM    H5G15628   6.055   2.560   5.697 -1.3149 -0.6630  0.8801
  142OSM    C6F15629   6.218   2.414   5.765 -0.3121 -0.1768  0.9376
  142OSM    H6F15630   6.163   2.319   5.749 -1.3873  0.4927  0.6018
  142OSM    H6G15631   6.283   2.419   5.855  1.1615  0.5005 -0.1146
  142OSM    C7F15632   6.319   2.446   5.646  0.3544  0.0477  0.3437
  142OSM    H7F15633   6.407   2.382   5.670 -0.5845 -0.4768  2.6840
  142OSM    H7G15634   6.343   2.554   5.634  1.9896 -0.3176  0.0691
  142OSM    C8F15635   6.260   2.400   5.510 -0.0338 -0.1072 -0.0470
  142OSM    H8F15636   6.170   2.460   5.490  2.4568  4.5361  1.2131
  142OSM    H8G15637   6.227   2.294   5.515  1.0237 -0.4003  2.5893
  142OSM    C9F15638   6.367   2.416   5.408 -0.0202  1.3104  0.0714
  142OSM    H9F15639   6.453   2.347   5.413 -0.3071  0.9995  0.7761
  142OSM   C10F15640   6.368   2.510   5.312  0.1927  0.5132 -0.2927
  142OSM   H10F15641   6.453   2.507   5.242  0.1246  0.8916 -0.3933
  142OSM   C11F15642   6.269   2.622   5.278 -0.7938 -0.6384  0.2543
  142OSM   H11F15643   6.306   2.698   5.206  0.4672 -1.0526  0.4425
  142OSM   H11G15644   6.242   2.682   5.367 -1.3392  0.5981 -0.7082
  142OSM   C12F15645   6.150   2.558   5.220  0.1953 -0.3494  0.5522
  142OSM   H12F15646   6.114   2.479   5.289  0.9491 -0.7051  0.5519
  142OSM   H12G15647   6.186   2.520   5.122 -1.3578 -1.3642  0.3467
  142OSM   C13F15648   6.040   2.651   5.191  0.1555 -0.0849 -0.6414
  142OSM   H13F15649   5.955   2.602   5.140  1.9390 -0.7875 -3.1439
  142OSM   H13G15650   6.073   2.731   5.121 -2.5038 -0.2057 -2.1653
  142OSM   C14F15651   5.998   2.733   5.313  0.0049  0.2709  0.3904
  142OSM   H14F15652   6.051   2.830   5.320 -0.6654  0.7988 -1.2583
  142OSM   H14G15653   6.013   2.679   5.408  2.9772 -2.2936 -1.3454
  142OSM   C15F15654   5.844   2.763   5.310 -0.4188  0.3004 -0.1357
  142OSM   H15F15655   5.792   2.665   5.304 -1.2173  0.4484  2.7961
  142OSM   H15G15656   5.823   2.820   5.217  2.8500  1.1942 -0.4579
  142OSM   C16F15657   5.792   2.827   5.442  0.5729  0.1642 -0.2546
  142OSM   H16F15658   5.687   2.860   5.424  0.9065  0.5414 -1.6444
  142OSM   H16G15659   5.833   2.928   5.459 -3.1436  1.6401  0.9294
  142OSM   C17F15660   5.795   2.744   5.571 -0.1975 -0.1871  0.3758
  142OSM   H17F15661   5.901   2.741   5.607 -0.5658  0.3780  1.5632
  142OSM   H17G15662   5.764   2.641   5.545  1.4128 -1.1537  2.0184
  142OSM   C18F15663   5.706   2.798   5.683 -0.5194 -0.6234 -0.6907
  142OSM   H18F15664   5.744   2.896   5.717  1.1119 -1.4860  0.0777
  142OSM   H18G15665   5.708   2.725   5.767  5.1349 -0.0310  0.0634
  142OSM   H18H15666   5.601   2.815   5.650  0.0730 -0.4691 -2.5723
  143OSM      N15667   5.412   6.031   6.768 -0.3398  0.3537 -0.2840
  143OSM    C1515668   5.546   6.066   6.717 -0.1364  0.0428  0.0953
  143OSM   H15A15669   5.623   6.107   6.781  1.1440 -1.6779 -0.2492
  143OSM   H15B15670   5.546   6.133   6.633  1.0742  2.3524  1.8122
  143OSM   H15C15671   5.584   5.972   6.679  0.4741  0.8018 -1.2246
  143OSM    C1415672   5.332   5.969   6.661  0.2854  1.1974  0.6104
  143OSM   H14A15673   5.381   5.888   6.609 -1.0050  0.4327  0.5425
  143OSM   H14B15674   5.290   6.037   6.588  0.3051  1.3590  0.7477
  143OSM   H14C15675   5.247   5.915   6.698  0.2541  1.0342  0.3098
  143OSM    C1315676   5.434   5.914   6.867 -0.0363  0.1482  0.1118
  143OSM   H13A15677   5.522   5.931   6.927  0.1930 -0.0404 -0.1694
  143OSM   H13B15678   5.440   5.823   6.809 -2.2828  1.2093 -1.9487
  143OSM   H13C15679   5.356   5.917   6.941 -1.3745 -0.3116 -1.2325
  143OSM    C1215680   5.352   6.147   6.842 -0.8565  0.3063 -0.1467
  143OSM   H12A15681   5.411   6.182   6.925  1.0043 -0.1006 -1.2382
  143OSM   H12B15682   5.257   6.112   6.879  1.6173 -3.5852  3.3426
  143OSM    C1115683   5.316   6.274   6.752  0.4376  0.0962  0.3671
  143OSM   H11A15684   5.398   6.298   6.681  2.0126 -1.4779  1.5693
  143OSM   H11B15685   5.308   6.363   6.817  1.3239  0.3825  0.1002
  143OSM      P15686   5.142   6.326   6.555  0.1028  0.4526  0.5315
  143OSM    O1315687   4.994   6.309   6.553 -0.2919 -0.3199  0.2900
  143OSM    O1415688   5.192   6.469   6.553 -0.2768 -0.1002  0.0273
  143OSM    O1115689   5.199   6.245   6.437 -0.6078 -0.8734  0.7474
  143OSM    O1215690   5.198   6.246   6.685  0.2458 -0.7193  0.4105
  143OSM    C1S15691   5.129   6.219   6.316  0.5150 -0.3962  0.2337
  143OSM    H1S15692   5.036   6.278   6.312  0.5933 -0.3321 -0.7741
  143OSM    H1T15693   5.114   6.110   6.298 -1.1294 -0.1821  0.1758
  143OSM     NF15694   5.149   6.242   6.064 -0.2514 -0.1397  0.4002
  143OSM    HNF15695   5.189   6.174   6.003 -2.4435 -0.3635 -0.8968
  143OSM    C2S15696   5.216   6.269   6.190  0.0436  0.0218 -0.0365
  143OSM    H2S15697   5.233   6.379   6.197 -2.0495  0.3704  0.2417
  143OSM    C3S15698   5.363   6.204   6.199 -1.1180  0.0614 -0.5551
  143OSM    H3S15699   5.349   6.095   6.184 -0.6311  0.1318 -1.6267
  143OSM     O315700   5.436   6.220   6.323  0.6078 -0.0919  0.4018
  143OSM    HO315701   5.360   6.231   6.380  0.4622  0.3481  0.1242
  143OSM    C4S15702   5.449   6.272   6.092  0.1697 -0.2653 -0.1728
  143OSM    H4S15703   5.450   6.382   6.085 -1.3640 -0.1804  0.5851
  143OSM    C5S15704   5.535   6.210   6.008 -0.0945 -0.1903  0.3465
  143OSM    H5S15705   5.544   6.103   6.033 -2.7255 -0.1304  2.0090
  143OSM    C6S15706   5.625   6.271   5.903  1.4146 -0.4740  0.0237
  143OSM    H6S15707   5.680   6.198   5.840 -2.4743 -1.6880 -2.3022
  143OSM    H6T15708   5.706   6.322   5.960  0.6055 -0.5186  1.2486
  143OSM    C7S15709   5.548   6.377   5.818 -1.1957 -0.0335  0.0732
  143OSM    H7S15710   5.625   6.419   5.751 -2.5333  0.6157 -1.1239
  143OSM    H7T15711   5.499   6.455   5.881 -0.4850 -0.7885  1.6055
  143OSM    C8S15712   5.434   6.320   5.732 -0.7080 -0.4640  0.5149
  143OSM    H8S15713   5.351   6.281   5.796  0.0952 -0.2577  1.7250
  143OSM    H8T15714   5.487   6.243   5.672  0.6059  0.2136  0.7710
  143OSM    C9S15715   5.372   6.411   5.624  0.2585  0.5595  0.6092
  143OSM    H9S15716   5.460   6.445   5.564 -0.2944  0.5358 -0.2391
  143OSM    H9T15717   5.329   6.495   5.683  0.1374  2.0516 -1.4646
  143OSM   C10S15718   5.277   6.336   5.529  0.7770  0.3212  0.3674
  143OSM   H10S15719   5.199   6.403   5.488  0.3993 -0.3517 -0.0268
  143OSM   H10T15720   5.225   6.253   5.582  0.4203  0.2578 -0.0781
  143OSM   C11S15721   5.361   6.297   5.401  0.0080  1.0989  0.7223
  143OSM   H11S15722   5.445   6.228   5.424  0.2333 -0.7162 -4.3543
  143OSM   H11T15723   5.409   6.393   5.372 -0.7523  1.2190 -0.1938
  143OSM   C12S15724   5.284   6.237   5.286 -0.1162 -0.4676  0.6344
  143OSM   H12S15725   5.198   6.174   5.317 -0.7009 -0.2998 -0.6109
  143OSM   H12T15726   5.355   6.174   5.229  0.0013  0.1396  0.0924
  143OSM   C13S15727   5.226   6.341   5.188 -0.3476 -0.9228 -0.3914
  143OSM   H13S15728   5.312   6.402   5.153 -0.6719 -0.8238 -1.0327
  143OSM   H13T15729   5.163   6.408   5.249  0.0107 -0.2976 -0.7019
  143OSM   C14S15730   5.148   6.285   5.067  0.2593 -0.8745  0.2679
  143OSM   H14S15731   5.120   6.370   5.002  1.8693 -0.4948  0.0204
  143OSM   H14T15732   5.056   6.252   5.120  1.6849 -0.8674  2.9285
  143OSM   C15S15733   5.209   6.170   4.993 -0.0213  0.2675  0.0690
  143OSM   H15S15734   5.209   6.074   5.049  0.2755  1.1445  1.6194
  143OSM   H15T15735   5.314   6.180   4.959  0.0839 -0.8780  0.0224
  143OSM   C16S15736   5.125   6.130   4.863 -0.8079 -0.3181  0.3902
  143OSM   H16S15737   5.018   6.103   4.879 -0.9878  0.8874  1.3378
  143OSM   H16T15738   5.155   6.027   4.832  0.4789 -0.2887  1.4568
  143OSM   C17S15739   5.150   6.231   4.751  0.4554  0.3156 -0.4550
  143OSM   H17S15740   5.261   6.235   4.744  0.7899 -1.8614  2.1357
  143OSM   H17T15741   5.120   6.334   4.779 -1.8726 -0.9276  2.0705
  143OSM   C18S15742   5.092   6.183   4.608  0.4525 -0.5917 -0.4464
  143OSM   H18S15743   4.983   6.168   4.624  0.9857 -3.1008  1.4388
  143OSM   H18T15744   5.119   6.079   4.580  1.5971 -1.0561  2.1077
  143OSM   H18U15745   5.112   6.259   4.530  0.0437 -0.5752 -0.5376
  143OSM    C1F15746   5.028   6.295   6.032  0.1291  0.5071  0.0924
  143OSM     OF15747   4.974   6.388   6.090  0.2152 -0.0876  0.1054
  143OSM    C2F15748   4.958   6.213   5.929  0.2941  0.7357 -0.4171
  143OSM    H2F15749   4.894   6.141   5.984 -0.4453 -1.1650 -3.4934
  143OSM    H2G15750   5.041   6.155   5.883  0.2418  1.0545 -0.9237
  143OSM    C3F15751   4.878   6.295   5.825  0.2843  0.1285  0.2836
  143OSM    H3F15752   4.952   6.360   5.773  1.8230 -1.7421 -0.0084
  143OSM    H3G15753   4.788   6.342   5.870 -1.1510 -0.8399 -1.4255
  143OSM    C4F15754   4.821   6.213   5.706  0.4507 -0.3332  0.4331
  143OSM    H4F15755   4.781   6.280   5.627 -0.6192 -1.2203  0.2004
  143OSM    H4G15756   4.740   6.149   5.748 -1.6462  2.2410  0.6013
  143OSM    C5F15757   4.927   6.111   5.644  0.0005  0.3218 -0.0876
  143OSM    H5F15758   4.923   6.019   5.706  0.9621  0.4357  0.1497
  143OSM    H5G15759   5.029   6.150   5.663  0.6994 -1.5727  0.3291
  143OSM    C6F15760   4.909   6.077   5.494 -0.4234  0.1535  0.0176
  143OSM    H6F15761   4.912   6.179   5.450  1.9943  0.3930  0.5910
  143OSM    H6G15762   4.808   6.031   5.488 -0.3036 -0.0915 -0.1530
  143OSM    C7F15763   5.025   6.002   5.427  0.5443 -0.7672 -0.0996
  143OSM    H7F15764   5.121   6.024   5.478  0.5427  0.3397 -0.5382
  143OSM    H7G15765   5.024   6.017   5.317  2.1087 -0.7540 -0.1315
  143OSM    C8F15766   5.014   5.842   5.448  0.1127  0.0553 -0.0641
  143OSM    H8F15767   5.030   5.833   5.558  1.6633 -0.3778 -0.2965
  143OSM    H8G15768   5.109   5.801   5.407 -1.1415 -4.7292  1.1527
  143OSM    C9F15769   4.888   5.780   5.393  0.0016 -1.3086  0.5138
  143OSM    H9F15770   4.807   5.754   5.464 -1.4255 -0.5116 -0.7521
  143OSM   C10F15771   4.850   5.782   5.262  0.5474  0.1567 -0.4273
  143OSM   H10F15772   4.763   5.718   5.238  1.4813 -0.9538 -0.9254
  143OSM   C11F15773   4.917   5.839   5.138 -0.5288  1.1159 -0.6481
  143OSM   H11F15774   5.013   5.890   5.159 -0.2501  0.0215  0.9053
  143OSM   H11G15775   4.843   5.913   5.101 -1.4770  1.0043  0.9417
  143OSM   C12F15776   4.967   5.721   5.055 -0.5364 -0.6471 -0.3315
  143OSM   H12F15777   4.887   5.647   5.033  0.0267 -0.9136 -1.5811
  143OSM   H12G15778   5.059   5.684   5.105 -0.1474  0.8360  0.1158
  143OSM   C13F15779   5.000   5.768   4.913 -0.4111  0.3193  0.2568
  143OSM   H13F15780   5.017   5.679   4.849  1.2216  0.6088  0.2592
  143OSM   H13G15781   5.078   5.846   4.914  0.6682 -0.7266 -0.3378
  143OSM   C14F15782   4.873   5.827   4.839 -0.0159  0.2719  0.5486
  143OSM   H14F15783   4.845   5.929   4.873  0.3984  0.6055 -0.0898
  143OSM   H14G15784   4.787   5.765   4.873  0.0116 -0.4539 -0.6532
  143OSM   C15F15785   4.889   5.822   4.685  0.6491 -0.6263  0.2607
  143OSM   H15F15786   4.916   5.720   4.651 -1.8089 -1.3267  0.2370
  143OSM   H15G15787   4.971   5.894   4.665  0.1669 -0.2780 -0.5403
  143OSM   C16F15788   4.766   5.875   4.612  0.6693  0.9034  0.7224
  143OSM   H16F15789   4.747   5.981   4.640  2.0696  0.9309  1.6692
  143OSM   H16G15790   4.673   5.819   4.636 -0.2547  1.1831 -1.8774
  143OSM   C17F15791   4.788   5.856   4.461  0.6390 -0.8878 -0.0249
  143OSM   H17F15792   4.877   5.905   4.415  0.8941 -1.0678  0.2733
  143OSM   H17G15793   4.699   5.901   4.412 -0.3856 -1.6513  1.0799
  143OSM   C18F15794   4.779   5.707   4.414 -0.1530 -0.6042 -0.6425
  143OSM   H18F15795   4.780   5.710   4.303  0.9654 -3.5409 -0.8019
  143OSM   H18G15796   4.688   5.661   4.459  0.1153 -0.8724 -0.3668
  143OSM   H18H15797   4.868   5.645   4.440 -0.1870  0.4910  2.5151
  144OSM      N15798   5.929   4.532   6.715  0.3668 -0.4056 -0.3442
  144OSM    C1515799   5.786   4.572   6.731  0.0063  0.5463 -0.4510
  144OSM   H15A15800   5.784   4.675   6.764  0.3335  1.1235 -2.1270
  144OSM   H15B15801   5.739   4.505   6.802 -1.3842  0.0759 -1.7491
  144OSM   H15C15802   5.735   4.558   6.636 -0.4905  2.0211 -0.4364
  144OSM    C1415803   5.990   4.538   6.853 -0.2747 -0.5261  0.0364
  144OSM   H14A15804   5.995   4.641   6.888 -1.8828  0.0565 -1.2862
  144OSM   H14B15805   6.093   4.508   6.857  0.5277  1.9917 -0.0298
  144OSM   H14C15806   5.932   4.468   6.910 -0.4168  1.6122  2.7526
  144OSM    C1315807   5.924   4.385   6.678 -0.1586 -0.0066  0.0087
  144OSM   H13A15808   6.021   4.339   6.665  0.0150 -0.0510  1.2750
  144OSM   H13B15809   5.865   4.373   6.588 -1.7796 -0.2084  1.0600
  144OSM   H13C15810   5.860   4.330   6.746 -1.5069  0.8654 -0.5341
  144OSM    C1215811   6.000   4.617   6.616  0.5163 -0.5444 -0.7093
  144OSM   H12A15812   5.941   4.633   6.527  2.0936  3.1287 -1.3118
  144OSM   H12B15813   6.094   4.568   6.594  2.0009  0.9444  1.7517
  144OSM    C1115814   6.038   4.768   6.659 -0.0306  0.1569 -0.1442
  144OSM   H11A15815   6.124   4.812   6.605 -1.5122  2.4275 -0.7974
  144OSM   H11B15816   6.089   4.769   6.758 -1.6776  3.5384  0.8479
  144OSM      P15817   5.868   4.913   6.534 -0.4228 -0.1723 -0.1810
  144OSM    O1315818   5.814   4.801   6.461 -0.5281 -0.2446  0.2162
  144OSM    O1415819   5.778   5.029   6.558  0.2031 -0.2234  0.1276
  144OSM    O1115820   5.998   4.949   6.454 -0.2049 -0.0953 -0.3098
  144OSM    O1215821   5.932   4.856   6.669  0.6787 -0.0374 -0.7141
  144OSM    C1S15822   6.055   4.875   6.343 -1.1913 -0.1142  0.2071
  144OSM    H1S15823   6.030   4.766   6.344  1.3916 -0.7738  0.2832
  144OSM    H1T15824   6.165   4.864   6.355 -0.9785  0.1197 -1.3343
  144OSM     NF15825   6.109   4.878   6.104  0.1408  0.4112  0.2193
  144OSM    HNF15826   6.203   4.901   6.079  1.7389 -2.4037  2.9181
  144OSM    C2S15827   6.043   4.958   6.211  0.1266  0.5922  0.8104
  144OSM    H2S15828   5.939   4.972   6.174  0.2781 -3.3387 -1.6780
  144OSM    C3S15829   6.111   5.094   6.219 -0.5309 -0.0307 -0.0753
  144OSM    H3S15830   6.218   5.080   6.248 -0.5395  3.3545  2.2792
  144OSM     O315831   6.058   5.177   6.320  0.2175  0.3542  0.4740
  144OSM    HO315832   6.001   5.118   6.369 -0.3896  0.8794  0.4077
  144OSM    C4S15833   6.096   5.152   6.085 -0.2723 -0.4208 -1.2370
  144OSM    H4S15834   6.193   5.179   6.040 -0.1431  0.7665 -0.2913
  144OSM    C5S15835   5.992   5.196   6.018 -0.1389  0.6769 -0.3244
  144OSM    H5S15836   5.892   5.195   6.064  0.6282 -1.5088  1.4961
  144OSM    C6S15837   6.017   5.273   5.892 -0.5568  0.2801 -0.1563
  144OSM    H6S15838   6.109   5.238   5.841 -0.3269 -0.5806  0.8211
  144OSM    H6T15839   6.033   5.380   5.919  2.3558 -0.3341  0.9252
  144OSM    C7S15840   5.907   5.265   5.780 -0.1751 -0.2071  0.6428
  144OSM    H7S15841   5.811   5.303   5.821  0.9567  3.4499  0.2589
  144OSM    H7T15842   5.903   5.158   5.750  1.4373 -0.6729  2.0140
  144OSM    C8S15843   5.936   5.350   5.661 -0.2937  0.1332  0.3880
  144OSM    H8S15844   6.030   5.316   5.614  0.8192  1.5034  1.5356
  144OSM    H8T15845   5.952   5.456   5.692 -1.1255  0.5920 -0.6566
  144OSM    C9S15846   5.821   5.349   5.555  0.0416  0.8153  0.1526
  144OSM    H9S15847   5.730   5.380   5.610  1.3824  3.9539  0.8704
  144OSM    H9T15848   5.808   5.250   5.506 -1.6376  0.6830  0.8054
  144OSM   C10S15849   5.858   5.447   5.451 -0.1564 -0.4976  1.1361
  144OSM   H10S15850   5.967   5.440   5.430 -0.6782 -2.5584 -1.5764
  144OSM   H10T15851   5.837   5.548   5.492 -1.8610 -1.0810  1.7684
  144OSM   C11S15852   5.783   5.451   5.314 -0.8511 -0.5840  0.2363
  144OSM   H11S15853   5.688   5.503   5.338 -1.0202 -1.4749  1.6567
  144OSM   H11T15854   5.774   5.343   5.287  1.4858 -0.8345  0.2297
  144OSM   C12S15855   5.851   5.527   5.198 -0.1031 -0.2007 -0.2755
  144OSM   H12S15856   5.961   5.538   5.213 -0.2672  1.6599 -0.1633
  144OSM   H12T15857   5.813   5.631   5.198  0.2630  0.0004  2.5916
  144OSM   C13S15858   5.843   5.450   5.068 -0.2997  0.5735  0.6507
  144OSM   H13S15859   5.892   5.351   5.078  1.3556  1.3639  0.6422
  144OSM   H13T15860   5.901   5.504   4.990  2.5379  1.6803  3.3293
  144OSM   C14S15861   5.695   5.435   5.022 -0.1926 -0.0374 -0.3063
  144OSM   H14S15862   5.638   5.527   5.045 -0.0693 -0.4283  1.8083
  144OSM   H14T15863   5.672   5.349   5.089  2.3349  0.0365  0.7936
  144OSM   C15S15864   5.679   5.394   4.879 -0.3145 -0.3966  0.6436
  144OSM   H15S15865   5.696   5.483   4.815 -0.7761  0.2200  1.3607
  144OSM   H15T15866   5.572   5.371   4.860 -0.7290  1.0760  1.0549
  144OSM   C16S15867   5.767   5.276   4.850 -0.3385  0.3515  0.3182
  144OSM   H16S15868   5.797   5.205   4.929 -0.8583  0.4087  0.5676
  144OSM   H16T15869   5.869   5.310   4.820 -0.6270  0.4231 -0.6253
  144OSM   C17S15870   5.726   5.192   4.734  0.2563  0.0975 -1.0030
  144OSM   H17S15871   5.629   5.143   4.758  0.2775  1.7992  3.2289
  144OSM   H17T15872   5.791   5.102   4.723  0.2144 -0.0828  0.1189
  144OSM   C18S15873   5.718   5.271   4.603  0.1154  0.0444 -0.0677
  144OSM   H18S15874   5.611   5.273   4.571  0.7068 -0.4195 -2.2548
  144OSM   H18T15875   5.778   5.208   4.534  2.0849 -1.0444  2.4819
  144OSM   H18U15876   5.758   5.374   4.590 -0.3938  0.3398  0.6384
  144OSM    C1F15877   6.071   4.763   6.057 -0.2328  0.6396 -0.7097
  144OSM     OF15878   5.972   4.714   6.107 -0.5714 -0.4565  0.1540
  144OSM    C2F15879   6.151   4.683   5.965 -0.4061 -1.1030  0.1370
  144OSM    H2F15880   6.149   4.573   5.984  2.4037 -1.3014 -0.2603
  144OSM    H2G15881   6.256   4.714   5.986 -0.2866 -0.2581 -1.5233
  144OSM    C3F15882   6.108   4.721   5.820  0.1260  0.2875  0.4149
  144OSM    H3F15883   5.997   4.714   5.824  0.0976  0.8971  0.8677
  144OSM    H3G15884   6.161   4.639   5.768 -0.8740 -0.0407 -0.1087
  144OSM    C4F15885   6.145   4.856   5.765 -0.1616  0.1256 -0.1628
  144OSM    H4F15886   6.253   4.880   5.774 -0.1966 -0.0177  0.7326
  144OSM    H4G15887   6.099   4.933   5.831 -0.5081  2.3194 -2.7773
  144OSM    C5F15888   6.089   4.881   5.619  0.2331 -0.0236  0.2162
  144OSM    H5F15889   5.978   4.888   5.627  0.1338 -0.2165 -0.8379
  144OSM    H5G15890   6.115   4.785   5.570  1.1055 -0.7135  1.9109
  144OSM    C6F15891   6.143   5.019   5.565 -0.1021  0.6847 -0.0104
  144OSM    H6F15892   6.249   4.996   5.540  0.2144  0.2436  1.6224
  144OSM    H6G15893   6.140   5.101   5.640  0.3906  3.2164 -2.5561
  144OSM    C7F15894   6.071   5.064   5.432  0.0305  0.0127 -0.5822
  144OSM    H7F15895   5.969   5.098   5.460 -0.4875  1.3118 -3.5740
  144OSM    H7G15896   6.045   4.977   5.366  0.1335  0.2349 -0.9211
  144OSM    C8F15897   6.131   5.181   5.363  0.0215 -0.3942  0.1781
  144OSM    H8F15898   6.153   5.262   5.436  1.0817  1.2654 -1.8652
  144OSM    H8G15899   6.062   5.225   5.287  0.1603  2.0731  1.3727
  144OSM    C9F15900   6.255   5.145   5.291 -0.1590  0.0202 -0.2361
  144OSM    H9F15901   6.298   5.048   5.320 -0.4199 -0.1702 -0.4797
  144OSM   C10F15902   6.305   5.199   5.185 -0.4505 -0.9112 -0.2211
  144OSM   H10F15903   6.391   5.151   5.136  0.1179 -0.5856  0.4569
  144OSM   C11F15904   6.261   5.332   5.128 -0.2558 -0.1236 -0.1180
  144OSM   H11F15905   6.358   5.379   5.102 -1.1078  0.6590 -2.0659
  144OSM   H11G15906   6.211   5.398   5.202 -0.4009  0.1574 -0.4621
  144OSM   C12F15907   6.175   5.318   5.001 -0.5899  0.3839  0.1086
  144OSM   H12F15908   6.123   5.416   4.992 -2.2223 -0.5926 -1.7692
  144OSM   H12G15909   6.084   5.255   5.013  0.6594 -1.6709 -0.7581
  144OSM   C13F15910   6.252   5.285   4.867 -0.1683  0.1325 -0.6175
  144OSM   H13F15911   6.174   5.234   4.808 -1.4152  0.8621  0.3605
  144OSM   H13G15912   6.338   5.216   4.885 -1.8259 -2.1110 -0.9377
  144OSM   C14F15913   6.294   5.393   4.769 -0.5828  0.4096  0.2567
  144OSM   H14F15914   6.362   5.462   4.825 -3.0687  4.3062 -1.0556
  144OSM   H14G15915   6.209   5.460   4.743 -1.0094 -0.4870 -0.6720
  144OSM   C15F15916   6.351   5.340   4.642  0.2778  0.0677  0.2858
  144OSM   H15F15917   6.288   5.260   4.598 -1.2444  1.7775 -0.7788
  144OSM   H15G15918   6.451   5.293   4.658 -0.0484 -0.9916 -0.6994
  144OSM   C16F15919   6.378   5.446   4.536  0.3310  0.2390  0.5307
  144OSM   H16F15920   6.433   5.527   4.588  2.0864 -0.8011  0.3726
  144OSM   H16G15921   6.279   5.485   4.506 -0.0580  0.3404  1.8962
  144OSM   C17F15922   6.467   5.384   4.421  0.2098 -0.7372  0.7112
  144OSM   H17F15923   6.400   5.324   4.356  0.2881 -0.5829  0.4866
  144OSM   H17G15924   6.543   5.318   4.467 -1.3141 -3.3658 -0.3589
  144OSM   C18F15925   6.543   5.496   4.332  0.0086  0.1719  0.2097
  144OSM   H18F15926   6.602   5.440   4.256 -0.8528 -0.8332  0.2675
  144OSM   H18G15927   6.602   5.567   4.393  2.4882  0.7787 -2.6365
  144OSM   H18H15928   6.473   5.561   4.276  1.7904  0.7093 -1.5123
  145OSM      N15929   6.719   0.983   6.821  0.2440 -1.0088 -0.5722
  145OSM    C1515930   6.809   1.049   6.919 -0.0449  0.8847  0.2289
  145OSM   H15A15931   6.809   0.994   7.012 -0.2877 -0.3487 -0.4835
  145OSM   H15B15932   6.776   1.151   6.931  0.4895  1.2653 -1.3168
  145OSM   H15C15933   6.908   1.059   6.879 -0.2461  0.4720 -0.3837
  145OSM    C1415934   6.772   0.844   6.806  0.4629  0.4186  0.3243
  145OSM   H14A15935   6.698   0.789   6.750  0.1273 -1.5178  2.5329
  145OSM   H14B15936   6.780   0.797   6.903 -2.8197  1.0339  1.0000
  145OSM   H14C15937   6.875   0.847   6.773  1.0777 -1.5489  1.8700
  145OSM    C1315938   6.581   0.961   6.879  0.2086  0.7266  0.3407
  145OSM   H13A15939   6.532   0.885   6.819  0.9536  0.2705  0.2978
  145OSM   H13B15940   6.520   1.049   6.890  0.7538  0.9870  1.4757
  145OSM   H13C15941   6.588   0.930   6.982 -1.6682  0.7742  0.5269
  145OSM    C1215942   6.719   1.049   6.683 -0.1145  0.2655  0.1733
  145OSM   H12A15943   6.671   1.143   6.705 -2.1055 -0.3375 -1.3210
  145OSM   H12B15944   6.673   0.989   6.606  1.1864 -1.1153  0.4174
  145OSM    C1115945   6.860   1.083   6.636 -1.1238 -0.0673  0.6338
  145OSM   H11A15946   6.861   1.115   6.529  2.7065 -1.1278  0.2184
  145OSM   H11B15947   6.925   0.993   6.638 -2.8379 -1.3529  0.4966
  145OSM      P15948   6.897   1.338   6.699 -0.2055  0.0282  0.0054
  145OSM    O1315949   6.752   1.363   6.730  0.2140 -0.1875  0.4571
  145OSM    O1415950   6.995   1.418   6.771 -0.0576 -0.6676 -0.2832
  145OSM    O1115951   6.925   1.361   6.541 -0.2681 -1.0647 -0.1552
  145OSM    O1215952   6.920   1.180   6.716 -0.6226 -0.7664 -0.5220
  145OSM    C1S15953   7.057   1.350   6.492 -0.7546 -0.0016  0.1658
  145OSM    H1S15954   7.095   1.250   6.523  0.8519  0.6692  0.4584
  145OSM    H1T15955   7.118   1.432   6.534 -0.0502 -0.9114  0.9801
  145OSM     NF15956   7.183   1.271   6.285 -0.1964 -0.2377 -0.1592
  145OSM    HNF15957   7.248   1.338   6.249 -0.8059  1.2999  1.4394
  145OSM    C2S15958   7.063   1.338   6.333 -0.3322  0.1306 -0.4875
  145OSM    H2S15959   6.980   1.268   6.307  0.2603 -0.1475 -1.7443
  145OSM    C3S15960   7.028   1.472   6.276 -0.1624 -0.3573  0.2145
  145OSM    H3S15961   7.118   1.536   6.289 -0.8840  0.7719 -0.2090
  145OSM     O315962   6.923   1.539   6.344 -0.2491  0.2222  0.4227
  145OSM    HO315963   6.902   1.478   6.415  0.2246  1.1114  1.3472
  145OSM    C4S15964   6.997   1.456   6.118 -0.3851 -0.0037  0.0520
  145OSM    H4S15965   7.092   1.448   6.064  0.5403 -0.2920  1.6344
  145OSM    C5S15966   6.887   1.449   6.040  0.3467  0.0092 -0.1831
  145OSM    H5S15967   6.790   1.462   6.090  0.2948  0.1187 -0.3119
  145OSM    C6S15968   6.885   1.436   5.887 -0.1432  0.9390 -0.5649
  145OSM    H6S15969   6.847   1.340   5.846 -1.2663  0.5281  1.2926
  145OSM    H6T15970   6.989   1.439   5.848  0.1572  1.6082  0.2430
  145OSM    C7S15971   6.811   1.549   5.818 -0.3850  0.1863  0.6276
  145OSM    H7S15972   6.844   1.647   5.858 -1.4658  0.5755  0.6212
  145OSM    H7T15973   6.703   1.542   5.845 -0.7355  1.3916 -0.3923
  145OSM    C8S15974   6.829   1.551   5.666 -0.5137  0.2953 -0.4602
  145OSM    H8S15975   6.866   1.448   5.646 -0.0981  0.4087 -0.2859
  145OSM    H8T15976   6.902   1.626   5.629 -0.7450  0.0014 -1.5358
  145OSM    C9S15977   6.704   1.580   5.592  0.2746  0.0491  0.1397
  145OSM    H9S15978   6.639   1.492   5.615  1.8986 -0.7215  2.1839
  145OSM    H9T15979   6.725   1.574   5.484  1.9286  0.7820  0.4012
  145OSM   C10S15980   6.621   1.715   5.621  0.2587 -0.1389 -0.3309
  145OSM   H10S15981   6.685   1.805   5.614  0.5934 -0.4957 -2.5354
  145OSM   H10T15982   6.570   1.713   5.720 -1.0539  1.0830 -0.9601
  145OSM   C11S15983   6.500   1.724   5.524 -0.1806 -0.6663 -0.3884
  145OSM   H11S15984   6.441   1.817   5.535  0.1726 -0.6313  1.6171
  145OSM   H11T15985   6.421   1.656   5.563 -1.6260  0.7389 -0.7661
  145OSM   C12S15986   6.521   1.709   5.371 -0.1396  0.4441  0.0899
  145OSM   H12S15987   6.535   1.600   5.355  0.8138  0.4786  0.6231
  145OSM   H12T15988   6.606   1.772   5.339 -0.9591  0.8956 -1.2876
  145OSM   C13S15989   6.399   1.754   5.283  0.3242  0.2422 -0.7228
  145OSM   H13S15990   6.383   1.864   5.285 -1.6225 -0.0108  0.0551
  145OSM   H13T15991   6.318   1.715   5.349  0.3961  0.5874 -0.4252
  145OSM   C14S15992   6.406   1.702   5.143 -0.7310 -0.8756 -0.1648
  145OSM   H14S15993   6.428   1.593   5.146 -0.9309 -0.9520 -1.2557
  145OSM   H14T15994   6.493   1.736   5.083  0.9717 -1.8838  1.5916
  145OSM   C15S15995   6.275   1.733   5.071  0.0429 -0.2511  0.1043
  145OSM   H15S15996   6.261   1.842   5.058  0.1373 -0.1997  0.4270
  145OSM   H15T15997   6.188   1.692   5.128  1.2485 -1.1613  1.3606
  145OSM   C16S15998   6.274   1.674   4.923 -0.3679 -0.0277 -0.1104
  145OSM   H16S15999   6.270   1.563   4.934 -0.6860  0.0262  0.3462
  145OSM   H16T16000   6.366   1.717   4.878 -1.1325  1.6594 -0.1281
  145OSM   C17S16001   6.152   1.722   4.856 -0.0065 -0.1690 -0.6583
  145OSM   H17S16002   6.135   1.831   4.875  0.6284 -0.3233  0.8762
  145OSM   H17T16003   6.060   1.670   4.891 -0.3284  0.2055 -0.9258
  145OSM   C18S16004   6.156   1.691   4.710 -0.3461  0.1020  0.4254
  145OSM   H18S16005   6.065   1.726   4.657  0.4654  0.2514 -0.9291
  145OSM   H18T16006   6.179   1.587   4.678  0.1646 -0.0016  1.0996
  145OSM   H18U16007   6.233   1.758   4.667  0.3748 -0.2879  1.0840
  145OSM    C1F16008   7.212   1.148   6.311 -0.7460 -0.0713  0.1691
  145OSM     OF16009   7.124   1.074   6.346  0.0072 -0.1557  0.4906
  145OSM    C2F16010   7.359   1.113   6.304 -0.1140  0.7939 -0.3405
  145OSM    H2F16011   7.380   1.006   6.327  1.8316  1.3560  0.7141
  145OSM    H2G16012   7.418   1.168   6.380  2.7672  0.9342 -2.5146
  145OSM    C3F16013   7.412   1.146   6.161  0.0541 -0.0336  0.2704
  145OSM    H3F16014   7.518   1.113   6.168 -0.4007 -1.4595  0.8748
  145OSM    H3G16015   7.415   1.255   6.141 -1.9095  0.0898  0.5204
  145OSM    C4F16016   7.349   1.065   6.053  0.1183 -0.0036  0.2142
  145OSM    H4F16017   7.240   1.058   6.076  0.4721 -1.1400  1.6338
  145OSM    H4G16018   7.382   0.959   6.061 -0.8561 -0.3145  0.3522
  145OSM    C5F16019   7.390   1.118   5.906 -0.2749 -0.3776  0.2250
  145OSM    H5F16020   7.485   1.175   5.905 -1.2900  1.3938 -0.2915
  145OSM    H5G16021   7.313   1.196   5.883 -0.8071 -0.8065  0.5297
  145OSM    C6F16022   7.391   1.024   5.789 -0.5468 -0.2867  0.2414
  145OSM    H6F16023   7.293   0.974   5.805 -1.3892  1.7806  1.9930
  145OSM    H6G16024   7.469   0.948   5.812 -1.9914 -0.9210  3.5898
  145OSM    C7F16025   7.399   1.085   5.650  0.6234 -0.3690 -0.6097
  145OSM    H7F16026   7.501   1.129   5.638  0.8152 -0.1961  1.3306
  145OSM    H7G16027   7.320   1.163   5.652 -0.2210 -1.2249  0.7437
  145OSM    C8F16028   7.385   0.986   5.537 -0.3485  0.0673 -0.1035
  145OSM    H8F16029   7.466   0.915   5.565  0.1253 -0.1916 -1.9945
  145OSM    H8G16030   7.434   1.030   5.448  0.4487 -1.3942 -0.4278
  145OSM    C9F16031   7.253   0.925   5.505  0.0811  0.3230 -0.3021
  145OSM    H9F16032   7.176   0.916   5.582 -0.4795 -1.5471 -1.0197
  145OSM   C10F16033   7.230   0.855   5.389  0.2668 -0.1313 -0.1276
  145OSM   H10F16034   7.133   0.802   5.387  0.8634 -1.5269  2.7616
  145OSM   C11F16035   7.315   0.834   5.263 -0.4628  0.0750 -0.5816
  145OSM   H11F16036   7.331   0.727   5.240 -0.6974  0.3160 -1.9242
  145OSM   H11G16037   7.417   0.876   5.276 -1.2671  1.4224  2.3754
  145OSM   C12F16038   7.254   0.909   5.145 -0.2448  0.1849 -0.5154
  145OSM   H12F16039   7.236   1.015   5.171 -3.1440 -0.4984  0.7587
  145OSM   H12G16040   7.148   0.876   5.132 -0.2259 -0.5124  0.8236
  145OSM   C13F16041   7.316   0.890   5.009 -0.0552 -0.2479 -0.7948
  145OSM   H13F16042   7.323   0.783   4.982  0.1498 -1.3697  3.0632
  145OSM   H13G16043   7.418   0.934   5.018  0.2599 -1.4058  3.6155
  145OSM   C14F16044   7.230   0.961   4.910 -0.3942  1.0193  0.1086
  145OSM   H14F16045   7.214   1.070   4.924  1.3533  1.3248  0.0094
  145OSM   H14G16046   7.131   0.910   4.912  0.4379 -0.6765  0.4124
  145OSM   C15F16047   7.271   0.949   4.759 -0.1487 -0.5274 -0.6915
  145OSM   H15F16048   7.292   0.844   4.730  2.2632 -0.0373 -0.9476
  145OSM   H15G16049   7.367   1.003   4.750 -0.5358  0.2202 -0.3853
  145OSM   C16F16050   7.176   1.004   4.654  0.1114  0.1531 -0.0180
  145OSM   H16F16051   7.175   1.114   4.642  0.3059  0.0118 -1.5410
  145OSM   H16G16052   7.073   0.972   4.681 -2.0148  3.1970 -3.4903
  145OSM   C17F16053   7.215   0.954   4.511 -0.5665  0.7117 -0.2501
  145OSM   H17F16054   7.221   0.843   4.511  0.8251  0.7692  0.1569
  145OSM   H17G16055   7.322   0.979   4.499  0.2328 -1.5833  1.3248
  145OSM   C18F16056   7.130   0.993   4.394  0.4555  0.1028  0.0620
  145OSM   H18F16057   7.031   0.943   4.408  1.3022 -1.9827 -1.0549
  145OSM   H18G16058   7.182   0.978   4.297  0.5295  1.7104 -0.1830
  145OSM   H18H16059   7.113   1.103   4.405 -0.6544  0.3944 -3.4388
  146OSM      N16060   6.132   3.861   6.708 -0.6297  0.3805 -0.1430
  146OSM    C1516061   6.079   3.772   6.603  0.3869  0.0494  0.9086
  146OSM   H15A16062   6.114   3.794   6.504  0.1515 -1.4204  0.4795
  146OSM   H15B16063   5.972   3.769   6.615  0.0505 -0.7496 -1.7645
  146OSM   H15C16064   6.123   3.674   6.616  0.0132 -0.3584 -0.7132
  146OSM    C1416065   6.284   3.885   6.694  0.1222 -0.5735 -0.1520
  146OSM   H14A16066   6.351   3.802   6.680  0.5664 -0.4915  1.3387
  146OSM   H14B16067   6.316   3.949   6.775 -0.9361 -0.3272  0.0930
  146OSM   H14C16068   6.304   3.949   6.608 -0.4887 -0.3222 -0.1136
  146OSM    C1316069   6.062   3.998   6.699  0.0591 -0.4157  0.5819
  146OSM   H13A16070   5.955   3.979   6.701 -0.1320  0.3373 -0.8154
  146OSM   H13B16071   6.094   4.053   6.611 -0.5289 -0.1027  0.5575
  146OSM   H13C16072   6.085   4.056   6.787 -0.8979 -2.6587  2.4074
  146OSM    C1216073   6.095   3.804   6.849  0.8719  0.1865 -0.3603
  146OSM   H12A16074   6.158   3.853   6.922 -0.8777 -0.5207  1.7259
  146OSM   H12B16075   6.140   3.706   6.849  0.2592 -0.0941 -0.1104
  146OSM    C1116076   5.941   3.804   6.889 -0.0803  0.3252  0.2277
  146OSM   H11A16077   5.910   3.910   6.903 -0.6996  0.7463 -3.3112
  146OSM   H11B16078   5.924   3.746   6.982 -1.1132  0.7131  0.3002
  146OSM      P16079   5.732   3.800   6.732  0.0426  0.1234  0.1200
  146OSM    O1316080   5.603   3.766   6.804 -0.1876  0.3626 -0.3022
  146OSM    O1416081   5.763   3.941   6.703  0.8107  0.4835 -0.1376
  146OSM    O1116082   5.727   3.713   6.600  0.4734 -0.1146 -0.0848
  146OSM    O1216083   5.859   3.731   6.793  0.2375 -0.4594 -0.2390
  146OSM    C1S16084   5.662   3.757   6.479  1.1327 -0.3555 -0.4502
  146OSM    H1S16085   5.617   3.858   6.483  1.7535 -0.0230 -1.5089
  146OSM    H1T16086   5.591   3.675   6.453 -1.1210  0.8971  1.3991
  146OSM     NF16087   5.685   3.793   6.250 -0.8162  0.4943  0.3722
  146OSM    HNF16088   5.663   3.725   6.180 -1.9537 -0.2481  1.4105
  146OSM    C2S16089   5.766   3.748   6.363 -0.3199  0.3566  0.0272
  146OSM    H2S16090   5.850   3.817   6.384  0.9161 -1.3651  1.0136
  146OSM    C3S16091   5.826   3.604   6.337 -0.2729 -0.4706 -0.0266
  146OSM    H3S16092   5.746   3.529   6.318 -1.6081  0.7409  0.6458
  146OSM     O316093   5.909   3.557   6.452 -0.3892  0.2643  0.5747
  146OSM    HO316094   5.888   3.617   6.525 -0.8340  0.5222  0.2386
  146OSM    C4S16095   5.921   3.611   6.221  0.0202 -0.0769  0.5084
  146OSM    H4S16096   6.025   3.637   6.247  0.4756  1.1948 -2.2096
  146OSM    C5S16097   5.900   3.549   6.096  0.2471 -0.0837 -0.3531
  146OSM    H5S16098   5.805   3.496   6.078 -2.0754  3.7029 -0.3621
  146OSM    C6S16099   6.003   3.534   5.991 -0.0156  0.2442  0.6368
  146OSM    H6S16100   6.034   3.428   5.986 -1.5435 -0.2396  0.6671
  146OSM    H6T16101   6.090   3.599   6.015 -0.7533  1.1980  0.7990
  146OSM    C7S16102   5.954   3.558   5.846 -0.2452  0.3036 -0.2792
  146OSM    H7S16103   5.860   3.502   5.825  0.1050 -0.5876  0.5007
  146OSM    H7T16104   6.027   3.518   5.773  0.8089 -1.7704  1.7918
  146OSM    C8S16105   5.950   3.713   5.807  0.7947  0.3555 -0.1130
  146OSM    H8S16106   6.055   3.746   5.798  0.6672  0.3832 -1.8532
  146OSM    H8T16107   5.888   3.770   5.879  0.3355  0.2892 -0.4557
  146OSM    C9S16108   5.878   3.733   5.677  0.2934  0.1519  0.1960
  146OSM    H9S16109   5.773   3.699   5.683  0.0390  0.8243 -0.2529
  146OSM    H9T16110   5.922   3.668   5.599  1.8458 -0.6166  1.6456
  146OSM   C10S16111   5.872   3.876   5.627  0.1162  0.3067 -0.0064
  146OSM   H10S16112   5.964   3.924   5.667  0.8024 -1.1208  0.1859
  146OSM   H10T16113   5.789   3.932   5.676  0.2526  1.5361 -1.1394
  146OSM   C11S16114   5.857   3.902   5.475 -0.1703  0.5803 -0.1949
  146OSM   H11S16115   5.852   4.011   5.457  2.1619  0.3135 -3.3316
  146OSM   H11T16116   5.755   3.873   5.440 -1.4961 -0.3157  3.8367
  146OSM   C12S16117   5.965   3.840   5.389 -0.1028  0.2879 -0.7695
  146OSM   H12S16118   5.953   3.730   5.404 -0.0363  0.6292  2.6199
  146OSM   H12T16119   6.066   3.866   5.428 -0.0919  2.8970 -2.3115
  146OSM   C13S16120   5.955   3.882   5.247  0.4738 -0.8187 -0.0515
  146OSM   H13S16121   5.975   3.991   5.243  0.4568 -0.8012  0.3231
  146OSM   H13T16122   5.850   3.857   5.219 -0.4672  0.5808  2.0132
  146OSM   C14S16123   6.051   3.810   5.152 -0.0239 -0.5968  0.4441
  146OSM   H14S16124   6.031   3.701   5.142  3.9092 -1.1863 -3.7110
  146OSM   H14T16125   6.151   3.829   5.196  0.9438  0.4419 -2.0431
  146OSM   C15S16126   6.043   3.864   5.011  0.1811 -0.3572  0.1211
  146OSM   H15S16127   6.059   3.974   5.006  0.8534 -0.4069  0.8849
  146OSM   H15T16128   5.941   3.853   4.969  1.4796 -0.9169 -3.2348
  146OSM   C16S16129   6.141   3.799   4.909  0.2476 -0.5960  1.0129
  146OSM   H16S16130   6.246   3.777   4.937  1.1694  0.2917 -1.5389
  146OSM   H16T16131   6.158   3.873   4.828  0.8712 -2.0598 -0.2354
  146OSM   C17S16132   6.079   3.672   4.848  0.0573 -0.1969 -0.5302
  146OSM   H17S16133   5.990   3.711   4.794  1.9483  1.6809 -2.5493
  146OSM   H17T16134   6.050   3.604   4.930 -0.6129  2.2530  1.3898
  146OSM   C18S16135   6.170   3.602   4.747  0.0577  0.8275 -0.7911
  146OSM   H18S16136   6.265   3.567   4.793 -1.4284 -5.7282 -1.6152
  146OSM   H18T16137   6.195   3.670   4.662 -0.7393  1.6337 -0.3978
  146OSM   H18U16138   6.121   3.505   4.721  0.4492  0.8846 -1.8112
  146OSM    C1F16139   5.648   3.920   6.231  0.1912  0.4821 -0.2918
  146OSM     OF16140   5.693   4.006   6.308 -0.2451  0.1721  0.0190
  146OSM    C2F16141   5.546   3.941   6.122 -0.1276  0.4017  0.1563
  146OSM    H2F16142   5.487   4.029   6.156 -2.3169 -0.9690  0.1658
  146OSM    H2G16143   5.475   3.855   6.126 -0.3915  0.4665 -1.9545
  146OSM    C3F16144   5.618   3.948   5.981 -0.0887  0.1871 -0.1928
  146OSM    H3F16145   5.691   3.867   5.960 -1.7541 -1.1583 -1.0925
  146OSM    H3G16146   5.671   4.046   5.984  0.8359 -0.3390  1.3046
  146OSM    C4F16147   5.520   3.948   5.862  0.7174  0.6402 -0.6577
  146OSM    H4F16148   5.565   3.982   5.766  0.3865  1.1862 -0.6237
  146OSM    H4G16149   5.442   4.024   5.884  0.2665  0.3205 -1.1196
  146OSM    C5F16150   5.451   3.810   5.835  0.0018 -0.9395  0.3603
  146OSM    H5F16151   5.390   3.782   5.923 -1.4660 -0.3329 -0.4269
  146OSM    H5G16152   5.529   3.731   5.833  0.4859 -0.5517  2.1033
  146OSM    C6F16153   5.354   3.806   5.712  0.3111 -0.0551 -0.0308
  146OSM    H6F16154   5.274   3.878   5.740 -0.4060 -0.0752 -1.9006
  146OSM    H6G16155   5.310   3.705   5.709 -1.3508  0.4898  2.7329
  146OSM    C7F16156   5.415   3.843   5.578 -0.3796 -0.2528 -0.4430
  146OSM    H7F16157   5.505   3.778   5.573  0.3619  0.5151  1.6536
  146OSM    H7G16158   5.460   3.945   5.579 -0.2934 -0.2858 -0.9605
  146OSM    C8F16159   5.328   3.817   5.456  0.0382 -0.0796  0.2727
  146OSM    H8F16160   5.395   3.855   5.376  1.0652  2.6021  2.2416
  146OSM    H8G16161   5.231   3.871   5.464 -1.1026 -1.9086 -0.6047
  146OSM    C9F16162   5.309   3.668   5.430 -0.0193  0.3700  0.0706
  146OSM    H9F16163   5.238   3.616   5.496  0.2276 -1.1427 -0.8233
  146OSM   C10F16164   5.370   3.577   5.343 -0.1506  0.0773  0.0201
  146OSM   H10F16165   5.343   3.471   5.355  1.9474 -0.1989  3.7021
  146OSM   C11F16166   5.486   3.610   5.245  0.6860  0.1553 -0.3644
  146OSM   H11F16167   5.574   3.557   5.286  0.7597 -0.3577 -1.1552
  146OSM   H11G16168   5.497   3.721   5.251  0.1538  0.2482 -0.9547
  146OSM   C12F16169   5.488   3.574   5.098 -0.2850  0.4053  0.0116
  146OSM   H12F16170   5.400   3.625   5.054 -0.7221  1.4886  2.0317
  146OSM   H12G16171   5.476   3.466   5.073 -0.4436 -0.2325  2.5763
  146OSM   C13F16172   5.616   3.615   5.021 -0.5171  0.3041  0.1329
  146OSM   H13F16173   5.696   3.541   5.042  0.9492  2.6954  4.0207
  146OSM   H13G16174   5.664   3.711   5.048  0.9805 -0.6181  0.8651
  146OSM   C14F16175   5.578   3.620   4.871  0.0037 -0.3441  0.4307
  146OSM   H14F16176   5.535   3.520   4.851  1.3814 -0.6410 -1.2194
  146OSM   H14G16177   5.496   3.694   4.859  1.5313  1.4492  0.5756
  146OSM   C15F16178   5.677   3.645   4.758 -0.0467 -0.4070  0.9015
  146OSM   H15F16179   5.757   3.569   4.763 -1.1470 -1.5187  2.7243
  146OSM   H15G16180   5.720   3.745   4.781 -1.2930  0.3723  0.0393
  146OSM   C16F16181   5.612   3.658   4.616 -0.0159  0.0092  0.1839
  146OSM   H16F16182   5.521   3.720   4.633 -1.1016 -2.0329  2.4418
  146OSM   H16G16183   5.599   3.552   4.589 -0.0201 -1.0968  3.8985
  146OSM   C17F16184   5.707   3.730   4.522 -0.7461 -0.1478 -0.8986
  146OSM   H17F16185   5.669   3.711   4.419  0.4349 -1.1598 -1.1745
  146OSM   H17G16186   5.810   3.690   4.523 -0.2313  1.1380 -0.9750
  146OSM   C18F16187   5.702   3.885   4.539  0.6904 -0.2401 -0.2904
  146OSM   H18F16188   5.596   3.907   4.562  0.7310  2.0079 -1.9325
  146OSM   H18G16189   5.736   3.934   4.445  1.9707  2.0213  1.2519
  146OSM   H18H16190   5.760   3.916   4.629  1.0480 -1.1805 -0.1826
  147OSM      N16191   6.671   5.072   2.022 -0.2994  0.3808 -0.0932
  147OSM    C1516192   6.758   5.130   1.908 -0.1593 -0.0518 -0.4255
  147OSM   H15A16193   6.857   5.087   1.898 -0.3315 -0.9802  1.3915
  147OSM   H15B16194   6.766   5.236   1.927 -1.9703 -0.1456  1.1202
  147OSM   H15C16195   6.712   5.119   1.811  0.2164  1.7802 -0.8550
  147OSM    C1416196   6.540   5.143   2.014 -0.0723  0.1679 -0.2632
  147OSM   H14A16197   6.552   5.246   1.983  1.4657 -0.1338 -0.7611
  147OSM   H14B16198   6.491   5.128   2.109  0.6375 -1.0661 -0.0654
  147OSM   H14C16199   6.471   5.101   1.943  0.8222  0.2973 -1.2275
  147OSM    C1316200   6.664   4.925   2.005  0.4936  0.7222 -0.0227
  147OSM   H13A16201   6.614   4.908   1.911 -2.1525  1.0822  1.2249
  147OSM   H13B16202   6.608   4.879   2.085 -0.1580  1.9698  0.2715
  147OSM   H13C16203   6.764   4.888   1.989  1.2700  2.0576  1.4037
  147OSM    C1216204   6.740   5.101   2.151  0.5750 -0.4374 -0.4959
  147OSM   H12A16205   6.757   5.208   2.162  3.4476 -0.8917  0.4639
  147OSM   H12B16206   6.837   5.055   2.157  1.5867  1.1372 -2.9079
  147OSM    C1116207   6.667   5.060   2.279 -0.7987  0.1883  0.7316
  147OSM   H11A16208   6.739   5.065   2.364  1.2345  0.7623 -0.9535
  147OSM   H11B16209   6.643   4.953   2.263 -0.4206  0.4757 -2.2416
  147OSM      P16210   6.582   5.288   2.363  0.2306 -0.1891  0.1081
  147OSM    O1316211   6.699   5.338   2.300  0.0680 -0.4368  0.3033
  147OSM    O1416212   6.464   5.379   2.359 -0.2930 -0.3766 -0.2091
  147OSM    O1116213   6.616   5.252   2.515 -0.1102 -0.1066 -0.2943
  147OSM    O1216214   6.553   5.143   2.301 -0.0160  0.0928 -0.0619
  147OSM    C1S16215   6.737   5.261   2.582  0.0373 -0.5310  0.1410
  147OSM    H1S16216   6.793   5.355   2.565  0.0103 -0.5948 -0.3137
  147OSM    H1T16217   6.804   5.185   2.535  0.5494  0.3020 -0.4928
  147OSM     NF16218   6.833   5.269   2.800 -0.2332 -0.2482  0.4237
  147OSM    HNF16219   6.890   5.187   2.803  0.8135  0.4323 -0.1813
  147OSM    C2S16220   6.713   5.241   2.729 -0.0160 -0.2846 -0.6290
  147OSM    H2S16221   6.640   5.314   2.770  0.6781 -0.1429  0.3939
  147OSM    C3S16222   6.647   5.101   2.767 -0.0970 -0.4318 -0.6961
  147OSM    H3S16223   6.725   5.024   2.750 -0.7870 -0.9918 -1.4509
  147OSM     O316224   6.546   5.061   2.684  0.2880 -0.0562  0.1849
  147OSM    HO316225   6.550   5.122   2.610 -1.9768  2.0862  1.6911
  147OSM    C4S16226   6.605   5.104   2.907  0.4793 -0.3844 -0.1400
  147OSM    H4S16227   6.529   5.178   2.936  1.1763 -0.0121  0.7743
  147OSM    C5S16228   6.622   5.006   2.996  0.5251 -0.1814 -0.1205
  147OSM    H5S16229   6.647   4.906   2.958 -3.0108 -0.8658 -0.9721
  147OSM    C6S16230   6.556   4.998   3.132  0.0625  0.1936  0.2450
  147OSM    H6S16231   6.449   4.972   3.121  0.6393 -2.3018 -0.1694
  147OSM    H6T16232   6.554   5.087   3.197  0.4912  0.8763 -0.6493
  147OSM    C7S16233   6.615   4.900   3.240  0.0024 -1.0685  0.1005
  147OSM    H7S16234   6.717   4.937   3.266 -0.8833  0.8658  1.0599
  147OSM    H7T16235   6.626   4.801   3.191  1.0007 -0.4407 -0.9890
  147OSM    C8S16236   6.531   4.896   3.374  0.0748  0.3303  0.1850
  147OSM    H8S16237   6.422   4.898   3.354  0.2756 -0.5134 -1.0690
  147OSM    H8T16238   6.543   4.995   3.423 -0.8357  1.4971 -1.8014
  147OSM    C9S16239   6.582   4.784   3.472  0.2520 -0.3908  0.2678
  147OSM    H9S16240   6.692   4.786   3.487  0.3090  0.6386 -0.2147
  147OSM    H9T16241   6.556   4.691   3.417 -2.3267  0.9752 -0.9900
  147OSM   C10S16242   6.523   4.777   3.612  0.4105 -0.0701  0.5471
  147OSM   H10S16243   6.412   4.774   3.611  0.3483  0.5312  2.2741
  147OSM   H10T16244   6.547   4.870   3.669 -1.1371 -0.1169  1.3181
  147OSM   C11S16245   6.564   4.663   3.691 -0.4094 -0.1676 -0.0366
  147OSM   H11S16246   6.676   4.663   3.691 -0.3752  2.0519 -0.3499
  147OSM   H11T16247   6.541   4.571   3.633 -0.4919  0.0644 -0.3740
  147OSM   C12S16248   6.509   4.662   3.836  0.2211  0.2393 -0.6686
  147OSM   H12S16249   6.408   4.710   3.837 -0.0814 -0.3937  0.2159
  147OSM   H12T16250   6.575   4.713   3.908 -0.8448 -0.3465  0.7777
  147OSM   C13S16251   6.488   4.521   3.875 -0.5002  0.6488  0.3111
  147OSM   H13S16252   6.579   4.457   3.884 -1.1075 -0.0453  2.0261
  147OSM   H13T16253   6.422   4.466   3.805 -1.1716  0.6640  0.9140
  147OSM   C14S16254   6.407   4.515   4.012 -0.8458  0.6039 -0.0676
  147OSM   H14S16255   6.307   4.538   3.970 -0.2538  2.6006 -0.5228
  147OSM   H14T16256   6.452   4.590   4.081 -1.8824 -1.0993  2.5925
  147OSM   C15S16257   6.421   4.383   4.080 -0.2998 -0.4322 -0.1035
  147OSM   H15S16258   6.527   4.369   4.110 -0.4591  1.5933  1.6293
  147OSM   H15T16259   6.388   4.300   4.014  2.3313  0.2306 -2.4190
  147OSM   C16S16260   6.345   4.380   4.215 -0.0687 -0.2509  0.0433
  147OSM   H16S16261   6.235   4.386   4.207 -0.0989  1.3862  1.1630
  147OSM   H16T16262   6.380   4.467   4.275 -0.6163 -0.5459  0.8000
  147OSM   C17S16263   6.381   4.248   4.294 -0.4711 -0.7666  0.2986
  147OSM   H17S16264   6.485   4.256   4.334 -1.0361 -0.5525  1.7630
  147OSM   H17T16265   6.384   4.154   4.236  0.6718 -1.1481  0.9454
  147OSM   C18S16266   6.288   4.216   4.413 -0.2421 -0.1705 -0.6609
  147OSM   H18S16267   6.247   4.315   4.443  2.6457  0.9518 -0.0741
  147OSM   H18T16268   6.347   4.161   4.490  1.7354  0.3103 -1.7606
  147OSM   H18U16269   6.201   4.152   4.386 -2.1020  0.7800  2.5730
  147OSM    C1F16270   6.888   5.389   2.819  0.0392  0.1520  1.3873
  147OSM     OF16271   6.826   5.489   2.792  0.1798  0.4260  0.0687
  147OSM    C2F16272   7.026   5.393   2.884 -0.6840 -0.0945 -0.2924
  147OSM    H2F16273   7.096   5.338   2.816  0.1005 -0.0503  0.4673
  147OSM    H2G16274   7.017   5.330   2.975 -2.8530  0.7254  0.1226
  147OSM    C3F16275   7.073   5.531   2.923 -0.0122  0.1642 -0.6641
  147OSM    H3F16276   6.985   5.573   2.976  0.9099 -1.1513  2.0989
  147OSM    H3G16277   7.108   5.593   2.838  2.8565 -1.0048 -0.4509
  147OSM    C4F16278   7.184   5.538   3.034  0.9730 -0.2203  0.1007
  147OSM    H4F16279   7.152   5.481   3.124 -0.0834 -0.3820 -0.3560
  147OSM    H4G16280   7.187   5.644   3.066 -2.4405 -0.3330  1.2569
  147OSM    C5F16281   7.316   5.496   2.980  0.0133 -0.3937 -0.3439
  147OSM    H5F16282   7.352   5.547   2.888  1.0282 -0.7985 -0.1905
  147OSM    H5G16283   7.317   5.388   2.957 -0.1220 -0.2552 -1.0109
  147OSM    C6F16284   7.423   5.520   3.087 -0.4777 -0.4132  0.0777
  147OSM    H6F16285   7.404   5.465   3.181 -1.2342  0.1302  0.2586
  147OSM    H6G16286   7.435   5.625   3.120 -2.6962 -0.0054 -0.1958
  147OSM    C7F16287   7.558   5.477   3.037  0.7245 -1.2737 -0.8668
  147OSM    H7F16288   7.583   5.512   2.935  3.8600  0.4864  0.3531
  147OSM    H7G16289   7.553   5.368   3.017 -1.9614 -0.9648 -2.3429
  147OSM    C8F16290   7.673   5.503   3.140  0.0419 -0.7026 -0.7134
  147OSM    H8F16291   7.769   5.469   3.095 -0.9373 -2.4279 -1.5840
  147OSM    H8G16292   7.652   5.432   3.222  0.0221  0.8224  0.6633
  147OSM    C9F16293   7.680   5.644   3.193 -0.0125  0.0511 -0.4858
  147OSM    H9F16294   7.703   5.721   3.117  1.5085 -0.9580 -1.0972
  147OSM   C10F16295   7.667   5.682   3.323  0.0823 -0.1598 -0.1485
  147OSM   H10F16296   7.661   5.790   3.344 -2.3871 -0.0673 -0.9948
  147OSM   C11F16297   7.622   5.597   3.436 -0.2982  0.2555  0.8891
  147OSM   H11F16298   7.709   5.537   3.470 -0.6581 -0.0074  1.3585
  147OSM   H11G16299   7.544   5.522   3.411  0.2895 -0.6665  1.7624
  147OSM   C12F16300   7.586   5.681   3.559  0.3655  0.1000 -0.6633
  147OSM   H12F16301   7.532   5.634   3.643 -0.0153 -0.3759 -1.1638
  147OSM   H12G16302   7.517   5.760   3.523 -0.7487 -0.1920  0.7680
  147OSM   C13F16303   7.714   5.736   3.620  0.4199  0.0543 -0.4741
  147OSM   H13F16304   7.771   5.804   3.553  2.0038 -0.6143  0.1441
  147OSM   H13G16305   7.785   5.652   3.636 -0.1527 -0.6389 -1.5090
  147OSM   C14F16306   7.686   5.792   3.751  0.7070 -0.7974 -0.5465
  147OSM   H14F16307   7.626   5.721   3.812 -2.4752  2.5597  0.6254
  147OSM   H14G16308   7.625   5.884   3.744 -0.4898 -1.3530  1.5895
  147OSM   C15F16309   7.809   5.805   3.829 -0.2958  0.7267  0.5916
  147OSM   H15F16310   7.860   5.902   3.808 -2.6536  2.1186  0.9534
  147OSM   H15G16311   7.878   5.728   3.788 -0.6098  1.3234 -1.1565
  147OSM   C16F16312   7.781   5.795   3.984 -0.7028 -0.0414  0.0508
  147OSM   H16F16313   7.726   5.701   4.002 -1.0833  0.2066  0.1867
  147OSM   H16G16314   7.723   5.881   4.025  1.7540  0.6290  2.4531
  147OSM   C17F16315   7.917   5.805   4.051 -0.1685 -0.3057 -0.0724
  147OSM   H17F16316   7.949   5.911   4.052  0.5592 -0.5226  0.5338
  147OSM   H17G16317   7.998   5.762   3.987  1.1334  0.7079  0.8395
  147OSM   C18F16318   7.920   5.757   4.194  0.1907 -0.3439  0.9365
  147OSM   H18F16319   7.870   5.657   4.194  0.0192 -0.2747 -0.1229
  147OSM   H18G16320   7.872   5.821   4.271 -1.3652 -0.0861 -0.2022
  147OSM   H18H16321   8.028   5.749   4.220  0.1546  1.7738  1.9690
  148OSM      N16322   0.746   3.298   1.916  0.0543  0.0192 -0.0892
  148OSM    C1516323   0.897   3.322   1.899 -0.2493 -0.1852  0.0016
  148OSM   H15A16324   0.940   3.241   1.842 -0.3015  0.0556 -0.3866
  148OSM   H15B16325   0.952   3.327   1.992  3.4706  1.5819 -2.0831
  148OSM   H15C16326   0.910   3.419   1.852  1.9092  1.4919  3.5983
  148OSM    C1416327   0.691   3.401   2.011 -0.1572  0.3553 -0.4054
  148OSM   H14A16328   0.708   3.501   1.974 -0.5643  1.4459  2.1536
  148OSM   H14B16329   0.743   3.396   2.105  1.9584  2.7380 -1.3361
  148OSM   H14C16330   0.585   3.385   2.025 -0.2667  0.4031 -1.1390
  148OSM    C1316331   0.681   3.311   1.784  0.6011 -0.5010  0.7447
  148OSM   H13A16332   0.695   3.401   1.726 -1.6131 -0.1716  0.6492
  148OSM   H13B16333   0.575   3.311   1.805  0.6369 -0.0463  0.9293
  148OSM   H13C16334   0.714   3.227   1.724 -0.8882 -1.0884  0.7164
  148OSM    C1216335   0.728   3.163   1.972 -0.3890  0.5387  0.4417
  148OSM   H12A16336   0.781   3.091   1.911 -0.3723  0.1822  0.8722
  148OSM   H12B16337   0.623   3.137   1.967 -0.1382 -0.6582  1.0100
  148OSM    C1116338   0.785   3.126   2.113  1.2129 -0.0495  0.6960
  148OSM   H11A16339   0.775   3.015   2.107 -1.1303  0.1927 -1.8167
  148OSM   H11B16340   0.709   3.169   2.182 -3.2658 -1.0813 -3.0653
  148OSM      P16341   1.039   3.090   2.092 -0.4142 -0.2415 -0.1790
  148OSM    O1316342   1.002   3.003   1.979 -0.1835  0.5301 -0.2900
  148OSM    O1416343   1.156   3.184   2.068  0.5635 -0.2200  0.1414
  148OSM    O1116344   1.073   3.000   2.223  0.5919 -0.5194  0.1074
  148OSM    O1216345   0.912   3.166   2.133  0.4651 -0.3635 -0.4414
  148OSM    C1S16346   1.076   3.060   2.349 -0.0102  0.3597  0.1415
  148OSM    H1S16347   0.976   3.100   2.378  0.3201 -0.1905  2.2100
  148OSM    H1T16348   1.152   3.141   2.356  1.3085 -0.9465  2.1135
  148OSM     NF16349   1.089   3.005   2.588 -0.3337  0.5194 -0.7408
  148OSM    HNF16350   1.161   3.050   2.640 -0.6183  0.1363 -0.0066
  148OSM    C2S16351   1.125   2.960   2.454  0.2892 -0.1933  0.3631
  148OSM    H2S16352   1.074   2.865   2.430 -0.5172 -0.0585  1.4233
  148OSM    C3S16353   1.280   2.920   2.415  0.1701  0.5951 -0.5555
  148OSM    H3S16354   1.338   3.015   2.420  1.0336  0.0739 -0.4965
  148OSM     O316355   1.285   2.865   2.283  0.7303 -0.1019  0.2423
  148OSM    HO316356   1.197   2.880   2.248  0.4027  0.5516  1.3062
  148OSM    C4S16357   1.344   2.823   2.514 -0.1760 -0.6062 -0.3251
  148OSM    H4S16358   1.393   2.877   2.596 -0.0741 -0.1689 -0.6705
  148OSM    C5S16359   1.357   2.691   2.497  0.1106 -0.0807 -0.4410
  148OSM    H5S16360   1.328   2.650   2.400 -0.1001  0.0906 -0.4512
  148OSM    C6S16361   1.422   2.591   2.589 -0.4062 -0.1466 -0.1967
  148OSM    H6S16362   1.530   2.581   2.564 -0.1412 -1.4204  1.3181
  148OSM    H6T16363   1.377   2.491   2.574 -0.0482  0.0748 -3.5979
  148OSM    C7S16364   1.421   2.637   2.742  0.3938  0.6172  0.5751
  148OSM    H7S16365   1.320   2.624   2.786  0.6251 -0.4295  0.8251
  148OSM    H7T16366   1.454   2.743   2.750  0.4779  0.5003  2.0830
  148OSM    C8S16367   1.509   2.545   2.825  0.4461 -0.5254 -0.1467
  148OSM    H8S16368   1.609   2.532   2.779  0.2997 -2.8343  0.0504
  148OSM    H8T16369   1.461   2.449   2.796  1.1428 -0.3778 -1.9651
  148OSM    C9S16370   1.508   2.586   2.967  0.6923  0.5705 -0.3851
  148OSM    H9S16371   1.414   2.556   3.019  0.1748  0.8771 -1.1235
  148OSM    H9T16372   1.505   2.696   2.976 -1.0225  0.4644  0.8215
  148OSM   C10S16373   1.629   2.534   3.048 -0.4967 -0.3947 -0.1395
  148OSM   H10S16374   1.715   2.558   2.980  0.4601  0.4165  1.3088
  148OSM   H10T16375   1.631   2.423   3.053  1.9685 -0.3291  2.2378
  148OSM   C11S16376   1.652   2.598   3.188 -0.5044 -0.1136 -0.2696
  148OSM   H11S16377   1.614   2.702   3.178  0.2247  0.0731 -1.3862
  148OSM   H11T16378   1.756   2.598   3.228 -0.6341 -0.0853  0.0688
  148OSM   C12S16379   1.572   2.520   3.293 -0.4317  0.3155  0.5828
  148OSM   H12S16380   1.622   2.422   3.307 -0.5855  0.1670  0.0932
  148OSM   H12T16381   1.468   2.511   3.254 -0.2836 -1.2936  0.4557
  148OSM   C13S16382   1.573   2.594   3.422  0.2121 -0.6288 -0.6343
  148OSM   H13S16383   1.544   2.701   3.416  2.5099  0.0294 -1.2291
  148OSM   H13T16384   1.674   2.586   3.469  1.8136 -1.0629 -3.8342
  148OSM   C14S16385   1.490   2.533   3.531 -0.4263  1.2698  0.7735
  148OSM   H14S16386   1.526   2.428   3.537  2.3736  1.9127 -1.7559
  148OSM   H14T16387   1.382   2.540   3.507 -0.3847  1.8009  0.7205
  148OSM   C15S16388   1.500   2.608   3.661 -1.2100 -0.3480  0.0580
  148OSM   H15S16389   1.437   2.699   3.654  1.4715  1.6902  0.6517
  148OSM   H15T16390   1.598   2.650   3.692 -1.4746  0.0141  0.4120
  148OSM   C16S16391   1.433   2.508   3.759 -0.2654 -0.5934 -0.4550
  148OSM   H16S16392   1.502   2.422   3.766 -0.2271 -0.6888 -1.8529
  148OSM   H16T16393   1.340   2.466   3.716  0.7723 -1.8485 -1.5545
  148OSM   C17S16394   1.400   2.570   3.901  0.8398 -0.0034  0.7428
  148OSM   H17S16395   1.343   2.486   3.946  1.4402 -1.2518 -0.7334
  148OSM   H17T16396   1.335   2.660   3.897  0.0157 -0.6154 -0.5932
  148OSM   C18S16397   1.539   2.590   3.964 -0.0801 -0.2413  0.1627
  148OSM   H18S16398   1.529   2.628   4.068 -0.3148 -0.8233  0.3599
  148OSM   H18T16399   1.605   2.667   3.919  1.3650 -2.3326 -1.5409
  148OSM   H18U16400   1.592   2.492   3.967 -0.8079 -0.6727 -0.7277
  148OSM    C1F16401   0.963   3.003   2.632 -0.2236  0.6474  0.0910
  148OSM     OF16402   0.875   2.955   2.555 -0.0724 -0.4976  0.1802
  148OSM    C2F16403   0.930   3.056   2.769 -0.1869  0.3047 -0.8343
  148OSM    H2F16404   0.948   3.166   2.770 -0.6170  0.3919 -1.7228
  148OSM    H2G16405   1.005   3.014   2.839 -1.1457 -0.6566 -0.3505
  148OSM    C3F16406   0.792   3.013   2.817  0.3634 -0.2498  0.2026
  148OSM    H3F16407   0.780   2.903   2.814  2.3654 -0.7374  3.7081
  148OSM    H3G16408   0.723   3.044   2.737  0.4058  2.5634  1.1381
  148OSM    C4F16409   0.742   3.052   2.951  0.0931  0.0274 -0.3561
  148OSM    H4F16410   0.671   2.972   2.981 -1.0692  1.0417 -0.3271
  148OSM    H4G16411   0.681   3.143   2.939  1.0928  0.6970 -0.4906
  148OSM    C5F16412   0.851   3.087   3.048 -0.0889  0.1157 -0.9379
  148OSM    H5F16413   0.895   3.185   3.017  0.2611  0.5487  0.7987
  148OSM    H5G16414   0.937   3.016   3.055  1.8340  2.4021  0.1236
  148OSM    C6F16415   0.800   3.095   3.189  0.1604 -0.2018 -0.1962
  148OSM    H6F16416   0.783   2.991   3.226  0.3173  0.0034  0.4565
  148OSM    H6G16417   0.697   3.137   3.187  1.0540  2.1397 -0.5870
  148OSM    C7F16418   0.892   3.185   3.280  0.5132 -0.1727 -0.0795
  148OSM    H7F16419   0.876   3.289   3.244  0.4048 -0.0775  0.2396
  148OSM    H7G16420   0.994   3.145   3.266  0.9123  0.7194  0.2510
  148OSM    C8F16421   0.859   3.173   3.435  0.4019  0.1532  0.7038
  148OSM    H8F16422   0.943   3.227   3.485 -0.4825  0.4406  1.9411
  148OSM    H8G16423   0.866   3.066   3.464  0.0024 -0.1827 -0.4065
  148OSM    C9F16424   0.735   3.247   3.479  0.3346 -0.0779  0.6946
  148OSM    H9F16425   0.663   3.280   3.403 -0.4662 -0.7915  1.1211
  148OSM   C10F16426   0.703   3.274   3.605 -0.7971  0.0022 -0.6978
  148OSM   H10F16427   0.607   3.320   3.635 -0.7089  0.5314 -1.2164
  148OSM   C11F16428   0.789   3.227   3.727 -1.0595 -0.4041  0.3127
  148OSM   H11F16429   0.858   3.146   3.695 -0.3051  1.3829 -3.0598
  148OSM   H11G16430   0.718   3.180   3.798 -0.1421 -1.0613  0.8068
  148OSM   C12F16431   0.882   3.338   3.781  0.1908 -0.2804 -0.6301
  148OSM   H12F16432   0.807   3.416   3.807 -0.2511 -0.6565 -0.7594
  148OSM   H12G16433   0.942   3.398   3.710 -0.0592  0.8846  0.1119
  148OSM   C13F16434   0.956   3.302   3.913 -0.9796  0.5428  0.6161
  148OSM   H13F16435   1.039   3.235   3.882 -0.8506  1.1026 -0.2877
  148OSM   H13G16436   0.883   3.250   3.979 -1.0210 -0.4297 -0.1644
  148OSM   C14F16437   1.014   3.416   3.996  0.8974 -0.3823 -0.1092
  148OSM   H14F16438   0.934   3.465   4.057  0.3044 -1.2946 -0.1205
  148OSM   H14G16439   1.058   3.486   3.922  0.6307 -1.0469 -0.9140
  148OSM   C15F16440   1.145   3.371   4.074  0.4477 -0.4786 -0.3338
  148OSM   H15F16441   1.201   3.459   4.112  0.4373 -1.0160  0.9748
  148OSM   H15G16442   1.210   3.328   3.996  2.7533  2.6042 -0.3039
  148OSM   C16F16443   1.110   3.277   4.189 -0.0402 -0.5349 -0.1735
  148OSM   H16F16444   1.061   3.184   4.152 -2.2441  0.2296  0.6550
  148OSM   H16G16445   1.031   3.324   4.252  1.2864 -1.6729  2.5417
  148OSM   C17F16446   1.232   3.253   4.275 -0.2394  0.0627 -1.2225
  148OSM   H17F16447   1.288   3.347   4.295 -0.8854  0.3696 -0.8111
  148OSM   H17G16448   1.301   3.194   4.213  1.8568  1.2793 -0.1571
  148OSM   C18F16449   1.203   3.178   4.400  0.0443  0.0474  0.5864
  148OSM   H18F16450   1.301   3.184   4.452  1.1773  1.9456 -1.5920
  148OSM   H18G16451   1.171   3.073   4.381 -0.1311  0.5440 -2.3254
  148OSM   H18H16452   1.122   3.222   4.462 -0.8698  1.2352 -1.3835
  149OSM      N16453   3.376   3.980   1.829 -0.2274  0.1633 -0.2746
  149OSM    C1516454   3.500   4.062   1.860 -0.3841 -0.6523  0.3882
  149OSM   H15A16455   3.551   4.033   1.951  1.9873  1.0318 -0.2977
  149OSM   H15B16456   3.468   4.165   1.858 -4.3735 -1.6636  2.2723
  149OSM   H15C16457   3.578   4.041   1.789 -2.3684 -2.2220 -1.4526
  149OSM    C1416458   3.299   4.047   1.720 -0.1065  0.2807 -0.4185
  149OSM   H14A16459   3.284   4.152   1.742 -1.3788  0.3360 -1.3759
  149OSM   H14B16460   3.207   3.992   1.708 -0.5365  1.5675 -5.2142
  149OSM   H14C16461   3.342   4.043   1.621  0.7660  2.0926 -0.1558
  149OSM    C1316462   3.421   3.848   1.761  0.3778 -0.8669 -0.2349
  149OSM   H13A16463   3.487   3.791   1.825  0.3093  1.6144  2.2451
  149OSM   H13B16464   3.483   3.861   1.673 -1.1344 -0.3400 -1.2737
  149OSM   H13C16465   3.327   3.796   1.755 -0.6852  1.0778 -1.3542
  149OSM    C1216466   3.296   3.947   1.945 -0.1874 -0.0981 -0.2035
  149OSM   H12A16467   3.362   3.890   2.008  2.4598  2.5511 -0.3895
  149OSM   H12B16468   3.205   3.889   1.935 -1.0686  0.9523  1.1773
  149OSM    C1116469   3.231   4.072   2.020 -0.3106 -0.4021 -0.4653
  149OSM   H11A16470   3.318   4.140   2.028 -0.8440  0.2396  0.0326
  149OSM   H11B16471   3.205   4.031   2.119  0.6161 -1.3315 -0.5900
  149OSM      P16472   3.092   4.282   1.915 -0.5780 -0.1344 -0.5766
  149OSM    O1316473   3.205   4.318   1.828 -0.3317 -0.2264 -0.4056
  149OSM    O1416474   2.960   4.314   1.863 -1.1171  0.3812 -0.9186
  149OSM    O1116475   3.111   4.349   2.051  0.2908 -0.3822 -0.8701
  149OSM    O1216476   3.111   4.130   1.947  0.2952  0.1918 -0.0613
  149OSM    C1S16477   3.028   4.334   2.164  0.5710  0.3316 -0.6269
  149OSM    H1S16478   2.939   4.268   2.156  2.1089 -1.8439 -0.4701
  149OSM    H1T16479   2.984   4.434   2.187 -1.2188 -0.7573  1.0267
  149OSM     NF16480   2.999   4.266   2.398  0.1407 -0.9630  0.2851
  149OSM    HNF16481   3.000   4.327   2.477  1.7657  0.4682 -0.7564
  149OSM    C2S16482   3.104   4.296   2.298  0.2884  0.2482  0.1842
  149OSM    H2S16483   3.151   4.198   2.275 -0.5779  0.4386 -2.7372
  149OSM    C3S16484   3.210   4.403   2.345  1.0774 -0.1857 -0.3344
  149OSM    H3S16485   3.166   4.503   2.365  2.0999  0.3711 -0.7831
  149OSM     O316486   3.302   4.435   2.240  0.3624  0.0824  0.3218
  149OSM    HO316487   3.249   4.421   2.161  0.5230 -1.0583  0.3999
  149OSM    C4S16488   3.283   4.360   2.466  0.2931 -0.5528 -0.7894
  149OSM    H4S16489   3.293   4.250   2.462 -1.9436 -0.8306 -0.5196
  149OSM    C5S16490   3.315   4.435   2.570  0.3442 -0.3431 -0.2268
  149OSM    H5S16491   3.302   4.543   2.552  0.8950 -0.0110  1.2722
  149OSM    C6S16492   3.369   4.407   2.709 -0.0902 -0.3971  0.0066
  149OSM    H6S16493   3.390   4.298   2.721 -2.2221 -0.7426  1.0496
  149OSM    H6T16494   3.291   4.428   2.785  1.4059 -0.2618  1.5745
  149OSM    C7S16495   3.506   4.485   2.740 -0.1874  0.6585  0.1429
  149OSM    H7S16496   3.491   4.594   2.755 -0.4223  0.7884 -0.9774
  149OSM    H7T16497   3.567   4.481   2.647 -2.9401  1.1708 -1.8006
  149OSM    C8S16498   3.587   4.417   2.845  0.0079 -0.0785 -0.1436
  149OSM    H8S16499   3.685   4.471   2.843 -0.1545  0.2797  0.9369
  149OSM    H8T16500   3.609   4.308   2.835 -1.8271 -0.6543  1.5533
  149OSM    C9S16501   3.529   4.439   2.986 -0.4072 -0.3972 -0.6148
  149OSM    H9S16502   3.466   4.349   3.004 -1.6381  0.9339  2.4126
  149OSM    H9T16503   3.474   4.535   2.991  0.1849 -0.0831  0.2676
  149OSM   C10S16504   3.641   4.425   3.091  0.1396 -0.0862  0.5605
  149OSM   H10S16505   3.729   4.489   3.069 -1.2357  1.4171 -0.8743
  149OSM   H10T16506   3.671   4.319   3.076 -1.7025 -0.4298 -1.0521
  149OSM   C11S16507   3.586   4.460   3.229 -0.7098  0.4035 -0.2166
  149OSM   H11S16508   3.480   4.425   3.226 -0.3544 -0.6811 -0.4269
  149OSM   H11T16509   3.600   4.570   3.234  0.7244  0.2346 -0.2133
  149OSM   C12S16510   3.646   4.379   3.341  0.0060 -0.1128 -0.7152
  149OSM   H12S16511   3.751   4.413   3.345  0.0863 -0.4343 -0.0453
  149OSM   H12T16512   3.643   4.273   3.308 -1.0428 -0.2577 -0.2164
  149OSM   C13S16513   3.583   4.396   3.480 -0.4348 -0.3903 -0.0108
  149OSM   H13S16514   3.479   4.355   3.480 -0.6384  0.1096  0.6997
  149OSM   H13T16515   3.551   4.502   3.486 -1.0194 -0.5251 -0.5382
  149OSM   C14S16516   3.670   4.363   3.592 -0.1791 -0.1785 -0.8890
  149OSM   H14S16517   3.774   4.400   3.578 -0.8564  1.9820 -0.5584
  149OSM   H14T16518   3.675   4.252   3.596  0.0694 -0.2175 -2.0074
  149OSM   C15S16519   3.621   4.406   3.737  0.1905  0.2161  0.8822
  149OSM   H15S16520   3.512   4.386   3.748 -0.1697  1.5371 -0.0844
  149OSM   H15T16521   3.632   4.516   3.739 -2.2073  0.5145  0.4438
  149OSM   C16S16522   3.700   4.331   3.843 -0.2909 -0.3232  0.0565
  149OSM   H16S16523   3.673   4.223   3.839 -0.7202 -0.1891 -2.6184
  149OSM   H16T16524   3.666   4.368   3.942 -2.4071 -1.6312 -0.1351
  149OSM   C17S16525   3.859   4.344   3.840  0.4853  0.3930  0.1608
  149OSM   H17S16526   3.889   4.448   3.817 -0.3318  0.7609  0.6903
  149OSM   H17T16527   3.903   4.295   3.751  0.6051 -2.3070  1.5741
  149OSM   C18S16528   3.936   4.304   3.966 -0.0898  0.7172  0.3257
  149OSM   H18S16529   4.041   4.311   3.932 -0.4195 -0.0286 -0.9020
  149OSM   H18T16530   3.895   4.210   4.008 -0.4838  0.9045  0.3639
  149OSM   H18U16531   3.925   4.376   4.050 -2.0529 -0.6774  1.3460
  149OSM    C1F16532   2.917   4.157   2.383  0.5656 -0.6081  0.4155
  149OSM     OF16533   2.930   4.078   2.292  0.2437  0.3319  0.4789
  149OSM    C2F16534   2.824   4.143   2.491 -0.1330  0.2947 -0.3220
  149OSM    H2F16535   2.728   4.193   2.465  0.0104 -0.0536 -1.5613
  149OSM    H2G16536   2.858   4.187   2.587 -0.2225 -0.8637  0.2580
  149OSM    C3F16537   2.787   3.996   2.522 -0.0601  0.4540  0.2049
  149OSM    H3F16538   2.879   3.938   2.546  0.5360  1.4269  0.2842
  149OSM    H3G16539   2.754   3.954   2.424 -0.6693 -0.0988  0.6350
  149OSM    C4F16540   2.675   3.976   2.623 -0.3713  0.4879 -0.2240
  149OSM    H4F16541   2.669   3.866   2.633  0.0841  0.4251 -0.6196
  149OSM    H4G16542   2.577   4.013   2.587 -1.2548 -3.4103 -2.3318
  149OSM    C5F16543   2.701   4.047   2.755 -0.5324 -0.5141  0.1722
  149OSM    H5F16544   2.685   4.156   2.747 -2.3259 -0.7996 -0.5299
  149OSM    H5G16545   2.807   4.032   2.784  0.0461  1.7310 -0.6055
  149OSM    C6F16546   2.606   4.008   2.876  0.2721  0.5971 -0.2519
  149OSM    H6F16547   2.625   3.901   2.900  2.2099  1.0430  0.3992
  149OSM    H6G16548   2.507   4.004   2.826 -0.1109 -0.6245  0.5534
  149OSM    C7F16549   2.606   4.111   2.991  0.3551 -0.4382  0.3809
  149OSM    H7F16550   2.535   4.075   3.068  1.2302 -0.0056  1.4186
  149OSM    H7G16551   2.581   4.214   2.958  0.3642 -0.4902  0.2115
  149OSM    C8F16552   2.739   4.121   3.072 -0.1013  0.0598 -0.0683
  149OSM    H8F16553   2.823   4.159   3.011 -0.0916  0.0183 -0.0806
  149OSM    H8G16554   2.764   4.014   3.087  0.9919  0.5124  1.5135
  149OSM    C9F16555   2.726   4.203   3.197 -0.3667  0.0975  0.0173
  149OSM    H9F16556   2.668   4.297   3.191 -0.9708 -0.2604  0.2221
  149OSM   C10F16557   2.775   4.172   3.319 -0.1131  0.1992 -0.2436
  149OSM   H10F16558   2.737   4.236   3.401 -0.3126 -2.1757  1.6257
  149OSM   C11F16559   2.864   4.045   3.359  0.0068  0.0709 -0.3226
  149OSM   H11F16560   2.968   4.076   3.383 -0.5189  0.4060  1.7734
  149OSM   H11G16561   2.878   3.976   3.273 -0.1379  0.9192 -1.0471
  149OSM   C12F16562   2.811   3.977   3.485 -0.2612 -0.2980 -0.4082
  149OSM   H12F16563   2.711   3.929   3.474 -1.2436  1.4016  0.6503
  149OSM   H12G16564   2.815   4.059   3.559  0.1444 -0.4192 -0.2931
  149OSM   C13F16565   2.904   3.870   3.545 -0.0933  0.7009 -0.2297
  149OSM   H13F16566   2.991   3.916   3.597 -0.6067 -0.2625  1.6045
  149OSM   H13G16567   2.939   3.802   3.464 -2.3994 -0.5594 -0.2480
  149OSM   C14F16568   2.838   3.766   3.649 -0.5340  0.0013  0.2390
  149OSM   H14F16569   2.926   3.699   3.659 -0.2032  0.3216 -0.4273
  149OSM   H14G16570   2.751   3.706   3.615  1.0083 -2.8555  1.0277
  149OSM   C15F16571   2.783   3.840   3.774  0.4382 -0.0053  0.4014
  149OSM   H15F16572   2.689   3.895   3.750  0.7803  0.4531  0.0965
  149OSM   H15G16573   2.865   3.909   3.804 -0.8525  1.5079  0.5771
  149OSM   C16F16574   2.754   3.749   3.891 -0.0567  0.0936 -0.0262
  149OSM   H16F16575   2.680   3.669   3.864  1.0413 -1.1204  0.4459
  149OSM   H16G16576   2.709   3.795   3.981 -0.6959  2.2214 -1.3618
  149OSM   C17F16577   2.880   3.677   3.952 -0.2314 -0.2821 -0.1611
  149OSM   H17F16578   2.959   3.754   3.955  1.4490 -1.9588  1.3777
  149OSM   H17G16579   2.928   3.607   3.880  2.1708  0.9118  0.2015
  149OSM   C18F16580   2.864   3.629   4.093  0.3967 -0.2144 -0.0495
  149OSM   H18F16581   2.830   3.712   4.160  1.0917  0.3782 -0.4275
  149OSM   H18G16582   2.962   3.585   4.120 -0.3272 -2.5804 -0.9772
  149OSM   H18H16583   2.785   3.551   4.090  0.5278 -0.3103 -1.6319
  150OSM      N16584   5.497   5.379   1.899  0.0813  0.4201 -0.1649
  150OSM    C1516585   5.604   5.469   1.840  0.3260  0.1794 -0.6039
  150OSM   H15A16586   5.579   5.516   1.746  3.2691 -0.0776 -1.6254
  150OSM   H15B16587   5.698   5.417   1.827 -0.8307 -2.3716  0.5496
  150OSM   H15C16588   5.620   5.547   1.913 -0.3539  0.5472 -0.8445
  150OSM    C1416589   5.360   5.448   1.873 -0.3260  0.2496  0.1232
  150OSM   H14A16590   5.283   5.374   1.892  0.6558 -1.6145 -2.5619
  150OSM   H14B16591   5.348   5.481   1.771 -1.7465 -3.0018 -0.8855
  150OSM   H14C16592   5.356   5.535   1.937  2.1090  1.0287 -0.6458
  150OSM    C1316593   5.489   5.255   1.822 -0.1291 -0.1022 -0.7634
  150OSM   H13A16594   5.445   5.269   1.725 -0.5063 -0.7555 -0.6938
  150OSM   H13B16595   5.422   5.181   1.863 -0.5780  0.7584  0.1101
  150OSM   H13C16596   5.589   5.220   1.805  2.2437  5.5667 -0.8681
  150OSM    C1216597   5.528   5.350   2.045 -0.4481 -0.8109  0.9929
  150OSM   H12A16598   5.544   5.438   2.106 -0.5945 -0.9778  1.2702
  150OSM   H12B16599   5.626   5.306   2.052 -0.3258 -0.7426 -0.0658
  150OSM    C1116600   5.420   5.270   2.124 -0.1898 -0.4027 -0.3723
  150OSM   H11A16601   5.474   5.246   2.218 -0.7025 -1.2543 -0.2948
  150OSM   H11B16602   5.409   5.173   2.071  1.0018 -1.8976  1.9506
  150OSM      P16603   5.183   5.278   2.225  0.0963  0.1082 -0.1314
  150OSM    O1316604   5.077   5.381   2.250  0.3195  0.0359 -0.1048
  150OSM    O1416605   5.142   5.153   2.153 -0.2812  0.3841 -0.1588
  150OSM    O1116606   5.249   5.222   2.359  0.9379 -0.7890 -0.4187
  150OSM    O1216607   5.301   5.346   2.151 -0.6136 -0.1144 -0.2328
  150OSM    C1S16608   5.347   5.300   2.431  0.4633  0.0074 -0.2289
  150OSM    H1S16609   5.346   5.410   2.412 -1.3938  0.6369  2.7984
  150OSM    H1T16610   5.449   5.264   2.403  0.9096  1.3133 -0.3814
  150OSM     NF16611   5.377   5.364   2.679  0.0752  0.2808 -0.0369
  150OSM    HNF16612   5.442   5.334   2.749 -1.8537  2.2991  2.8338
  150OSM    C2S16613   5.323   5.265   2.586 -0.4211  0.9186  0.1996
  150OSM    H2S16614   5.214   5.264   2.605 -0.7523 -0.3682 -1.4903
  150OSM    C3S16615   5.384   5.128   2.628  0.3268  0.4564  0.0740
  150OSM    H3S16616   5.495   5.141   2.627  0.3386  0.4841  1.0734
  150OSM     O316617   5.359   5.020   2.531  0.6984 -0.3275  0.8941
  150OSM    HO316618   5.326   5.060   2.451  1.9643 -0.6915  0.1442
  150OSM    C4S16619   5.339   5.085   2.769  0.0264 -0.1202 -0.3443
  150OSM    H4S16620   5.397   5.129   2.851 -0.8703 -1.0941  0.8481
  150OSM    C5S16621   5.239   4.991   2.800 -0.3397 -0.2973 -0.3009
  150OSM    H5S16622   5.198   4.935   2.715 -1.3825  1.2481 -0.8590
  150OSM    C6S16623   5.204   4.947   2.939  0.4155  0.4265  0.4792
  150OSM    H6S16624   5.191   4.837   2.941  2.3864  0.1579  0.9189
  150OSM    H6T16625   5.110   5.002   2.960 -0.2090  0.3760 -1.8870
  150OSM    C7S16626   5.297   4.984   3.055 -0.2241 -0.6926 -0.3943
  150OSM    H7S16627   5.318   5.093   3.057  1.5375 -1.0237  0.4636
  150OSM    H7T16628   5.399   4.942   3.051  0.8399  1.6066  0.5236
  150OSM    C8S16629   5.242   4.942   3.196  0.0758 -0.3124 -0.1581
  150OSM    H8S16630   5.246   4.831   3.196 -0.7785 -0.3705  0.9403
  150OSM    H8T16631   5.139   4.978   3.218  1.0204  1.6965  1.2601
  150OSM    C9S16632   5.332   4.999   3.299 -0.3639 -1.0150 -0.0013
  150OSM    H9S16633   5.320   5.109   3.304 -1.2059 -1.1136  0.3195
  150OSM    H9T16634   5.437   4.970   3.281 -0.1216 -0.3672  0.3379
  150OSM   C10S16635   5.305   4.943   3.443  0.2544  0.4071  0.9606
  150OSM   H10S16636   5.295   4.833   3.447 -0.2058  0.4188  0.2286
  150OSM   H10T16637   5.214   5.001   3.472  1.5099  2.1264  1.6872
  150OSM   C11S16638   5.403   4.987   3.547 -0.1119  0.1589  0.7642
  150OSM   H11S16639   5.407   5.098   3.548  0.2392  0.1798 -0.6501
  150OSM   H11T16640   5.502   4.945   3.519  0.9976  1.5191  2.4151
  150OSM   C12S16641   5.390   4.923   3.683  0.4030 -0.0652 -0.0430
  150OSM   H12S16642   5.394   4.814   3.663 -0.5384  0.0272 -0.8094
  150OSM   H12T16643   5.296   4.949   3.736  0.5817  0.3189  0.0879
  150OSM   C13S16644   5.505   4.954   3.774 -0.0480  0.0430  0.5719
  150OSM   H13S16645   5.516   5.062   3.799 -2.5844  1.1496 -2.3045
  150OSM   H13T16646   5.599   4.928   3.721 -0.2748  0.4507 -0.0478
  150OSM   C14S16647   5.515   4.872   3.904 -0.0925 -0.1523 -0.5662
  150OSM   H14S16648   5.505   4.762   3.894 -1.4132 -0.0820 -0.3140
  150OSM   H14T16649   5.443   4.906   3.982  0.9816 -0.0319  0.3986
  150OSM   C15S16650   5.656   4.896   3.974  0.3079  0.4603 -0.2431
  150OSM   H15S16651   5.676   5.003   3.998 -0.5937 -0.2090  4.6287
  150OSM   H15T16652   5.718   4.856   3.891 -0.3083 -1.6550  0.2590
  150OSM   C16S16653   5.690   4.805   4.095 -0.5384  0.0426  0.4101
  150OSM   H16S16654   5.799   4.786   4.102 -0.4185  0.6261  0.2306
  150OSM   H16T16655   5.652   4.701   4.095 -0.0274 -0.1519 -0.4372
  150OSM   C17S16656   5.639   4.879   4.219 -0.9211  0.1699  0.2276
  150OSM   H17S16657   5.528   4.886   4.215 -0.9433  0.2622  0.8346
  150OSM   H17T16658   5.672   4.984   4.206  1.9573 -0.6927 -0.0075
  150OSM   C18S16659   5.684   4.822   4.349  0.4387 -0.4182 -0.4277
  150OSM   H18S16660   5.638   4.721   4.352 -4.2107  1.4472 -0.9098
  150OSM   H18T16661   5.648   4.889   4.430  3.2407 -0.4261  0.9414
  150OSM   H18U16662   5.795   4.820   4.348  0.4341 -1.3620 -0.0724
  150OSM    C1F16663   5.312   5.482   2.687 -0.1756  0.7345  0.5599
  150OSM     OF16664   5.223   5.512   2.602 -0.1893  0.0852 -0.0695
  150OSM    C2F16665   5.363   5.570   2.808  0.4450 -0.3642 -0.1677
  150OSM    H2F16666   5.425   5.640   2.748  0.8056 -0.6486 -0.1325
  150OSM    H2G16667   5.442   5.514   2.863  2.5471  0.5677 -2.0702
  150OSM    C3F16668   5.260   5.631   2.903  1.0298 -0.3668 -0.3654
  150OSM    H3F16669   5.195   5.705   2.853 -1.4057 -0.8457  1.8534
  150OSM    H3G16670   5.317   5.684   2.983 -0.5293 -1.0519  1.2725
  150OSM    C4F16671   5.170   5.519   2.961  0.3445 -0.6371  0.0636
  150OSM    H4F16672   5.078   5.495   2.904  0.0790 -1.0752  0.6691
  150OSM    H4G16673   5.127   5.562   3.054  1.7041 -0.7443  0.7829
  150OSM    C5F16674   5.237   5.389   3.017  0.5070  0.3440 -0.3528
  150OSM    H5F16675   5.347   5.401   3.023  0.3593  1.5630  0.0453
  150OSM    H5G16676   5.219   5.300   2.953  3.3287 -0.7530  0.2201
  150OSM    C6F16677   5.197   5.370   3.160  0.1169 -0.1754 -0.0735
  150OSM    H6F16678   5.204   5.460   3.224 -2.8175  0.0246  0.0926
  150OSM    H6G16679   5.263   5.289   3.199  1.1919  1.3927  1.5138
  150OSM    C7F16680   5.054   5.325   3.172  0.2737 -0.2139 -0.1794
  150OSM    H7F16681   5.046   5.219   3.138 -0.9144 -0.1176 -0.2426
  150OSM    H7G16682   4.986   5.381   3.105 -0.8820 -2.0265 -0.6171
  150OSM    C8F16683   4.994   5.324   3.313 -0.0988  0.5680  0.6612
  150OSM    H8F16684   5.059   5.263   3.379 -0.2600  1.9834  2.1915
  150OSM    H8G16685   4.899   5.266   3.311 -0.4316  1.0120  2.2874
  150OSM    C9F16686   4.956   5.460   3.365  0.1404  0.6313 -0.2494
  150OSM    H9F16687   4.864   5.507   3.328 -0.8845  0.5710  2.0598
  150OSM   C10F16688   5.016   5.523   3.467 -0.3462  1.0535 -0.7522
  150OSM   H10F16689   4.985   5.623   3.502  1.1935  1.1858  0.3364
  150OSM   C11F16690   5.137   5.467   3.533  0.2721 -0.6621  0.3408
  150OSM   H11F16691   5.209   5.550   3.554  0.3645 -0.7136  0.2302
  150OSM   H11G16692   5.190   5.408   3.455 -1.0137 -0.5581 -0.6430
  150OSM   C12F16693   5.107   5.372   3.649 -0.6608 -0.4379  0.1006
  150OSM   H12F16694   5.047   5.288   3.609 -0.2896 -0.7512  0.1938
  150OSM   H12G16695   5.051   5.430   3.725 -1.3298 -1.5641  0.4934
  150OSM   C13F16696   5.239   5.322   3.706  0.2151  0.1884 -0.1521
  150OSM   H13F16697   5.305   5.400   3.748  0.1101  0.0749  0.2298
  150OSM   H13G16698   5.293   5.266   3.627 -0.1322  1.1595 -1.0959
  150OSM   C14F16699   5.210   5.232   3.833 -0.4520 -0.2045 -1.1264
  150OSM   H14F16700   5.306   5.179   3.852  0.6590  2.1161  0.1499
  150OSM   H14G16701   5.123   5.168   3.806 -0.7438  0.3390 -1.4913
  150OSM   C15F16702   5.186   5.301   3.970  0.8160 -0.4895  0.0782
  150OSM   H15F16703   5.133   5.393   3.938 -0.8182 -1.6975 -0.8632
  150OSM   H15G16704   5.280   5.334   4.018  2.0469 -1.5090 -1.5383
  150OSM   C16F16705   5.099   5.215   4.064  0.6107  0.4332  0.3981
  150OSM   H16F16706   5.134   5.110   4.072  1.5222  0.5607 -1.3810
  150OSM   H16G16707   4.995   5.211   4.024  0.3267  1.3779  1.0151
  150OSM   C17F16708   5.089   5.282   4.196 -0.0056 -0.2626 -0.3491
  150OSM   H17F16709   5.192   5.282   4.238  0.0678 -2.3904 -0.4643
  150OSM   H17G16710   5.035   5.219   4.270  0.1974 -0.3461 -0.2736
  150OSM   C18F16711   5.017   5.424   4.180 -0.3857 -0.0011  0.1062
  150OSM   H18F16712   5.092   5.489   4.131  0.9277 -1.6702 -0.1794
  150OSM   H18G16713   4.991   5.476   4.275  2.6771  0.7971  0.5944
  150OSM   H18H16714   4.925   5.414   4.118 -0.2701 -1.5273  0.1414
  151OSM      N16715   5.972   5.950   2.348 -0.6730 -0.0168 -0.1812
  151OSM    C1516716   6.101   6.004   2.401  0.8460  0.2234 -0.2313
  151OSM   H15A16717   6.180   6.020   2.329  0.7440 -0.5964 -0.5488
  151OSM   H15B16718   6.157   5.944   2.471  3.6889  3.7305  0.7864
  151OSM   H15C16719   6.081   6.092   2.460  0.1881  0.5118 -0.8777
  151OSM    C1416720   5.891   5.918   2.468 -0.4724  0.2906 -0.3238
  151OSM   H14A16721   5.811   5.850   2.443  1.3842 -2.0993 -0.1092
  151OSM   H14B16722   5.853   6.007   2.517  0.2958  0.2566  0.3605
  151OSM   H14C16723   5.947   5.864   2.543 -2.4042 -1.0542  0.2168
  151OSM    C1316724   5.899   6.047   2.268  0.8006 -0.1805 -0.3007
  151OSM   H13A16725   5.892   6.139   2.325 -0.0925 -1.6664  2.1793
  151OSM   H13B16726   5.802   6.009   2.239  1.8615 -1.8859 -1.7857
  151OSM   H13C16727   5.943   6.074   2.174 -1.5080 -0.5379 -1.5683
  151OSM    C1216728   5.996   5.818   2.273 -0.0777  0.2055  0.1498
  151OSM   H12A16729   6.043   5.740   2.331  0.6644 -0.8767 -1.8263
  151OSM   H12B16730   6.056   5.834   2.185 -0.6484  1.0312 -0.0998
  151OSM    C1116731   5.878   5.739   2.207  1.1755  0.1832 -0.3410
  151OSM   H11A16732   5.916   5.645   2.162  1.2047  0.0469 -0.0333
  151OSM   H11B16733   5.831   5.793   2.122  0.1881  0.9015  0.6344
  151OSM      P16734   5.706   5.580   2.338 -0.1874  0.1789  0.4215
  151OSM    O1316735   5.652   5.592   2.469 -0.8130 -0.6863  0.1936
  151OSM    O1416736   5.610   5.560   2.232  0.1384  0.2487  0.4489
  151OSM    O1116737   5.821   5.471   2.323  0.0962 -0.0028  0.1333
  151OSM    O1216738   5.775   5.711   2.298  0.0243  0.6726 -0.5304
  151OSM    C1S16739   5.918   5.427   2.422  0.3801 -0.1803 -0.1270
  151OSM    H1S16740   5.930   5.503   2.503 -0.8355  1.0022 -1.0179
  151OSM    H1T16741   6.013   5.407   2.367  0.7817  1.5939 -0.1517
  151OSM     NF16742   5.972   5.268   2.589 -0.5362 -0.0003 -0.5579
  151OSM    HNF16743   6.049   5.216   2.552 -2.2368 -2.5777 -0.6953
  151OSM    C2S16744   5.870   5.300   2.497  0.2478 -0.3506  0.5001
  151OSM    H2S16745   5.775   5.329   2.548  0.0247  3.2527 -1.6244
  151OSM    C3S16746   5.828   5.185   2.401 -0.8040 -0.1164  0.0501
  151OSM    H3S16747   5.914   5.170   2.331  1.8649  1.2784  2.8213
  151OSM     O316748   5.709   5.216   2.331 -0.4024 -0.5195  0.1726
  151OSM    HO316749   5.714   5.312   2.335 -1.1064 -0.5086  1.7877
  151OSM    C4S16750   5.793   5.063   2.477 -0.2037 -0.6742  0.2943
  151OSM    H4S16751   5.690   5.053   2.515 -0.7277 -1.3113 -1.2242
  151OSM    C5S16752   5.873   4.958   2.488 -0.4607  0.8321 -0.1216
  151OSM    H5S16753   5.966   4.959   2.429 -0.8322 -1.0027 -0.8005
  151OSM    C6S16754   5.845   4.833   2.567  1.2958  0.6498 -0.1412
  151OSM    H6S16755   5.939   4.799   2.616  0.0344 -0.9798  1.2421
  151OSM    H6T16756   5.801   4.759   2.498 -1.7969  1.2999  0.9788
  151OSM    C7S16757   5.750   4.837   2.686  0.0816  0.7552 -0.6137
  151OSM    H7S16758   5.658   4.890   2.654 -2.2827 -2.3047  0.6766
  151OSM    H7T16759   5.790   4.893   2.773 -1.8817  1.0830  0.1310
  151OSM    C8S16760   5.709   4.700   2.732  0.1650  0.6010 -0.1994
  151OSM    H8S16761   5.805   4.647   2.752  0.7876  1.7574 -0.0234
  151OSM    H8T16762   5.667   4.638   2.651  0.3191 -1.8427  1.4673
  151OSM    C9S16763   5.626   4.700   2.860  0.1417  0.1539 -0.1446
  151OSM    H9S16764   5.564   4.608   2.860 -0.8947  0.7198  3.3801
  151OSM    H9T16765   5.552   4.780   2.842  0.2516 -0.0651 -1.6501
  151OSM   C10S16766   5.700   4.694   2.994 -0.4358 -0.0104 -0.6151
  151OSM   H10S16767   5.748   4.792   3.013 -1.6976  0.5277 -0.1460
  151OSM   H10T16768   5.777   4.613   2.994 -1.1953 -0.8285  1.7593
  151OSM   C11S16769   5.611   4.666   3.122  0.0443 -0.4979  0.5541
  151OSM   H11S16770   5.541   4.580   3.113  0.1520 -0.5110 -0.1754
  151OSM   H11T16771   5.556   4.763   3.129  0.3921 -0.2548 -0.0279
  151OSM   C12S16772   5.692   4.645   3.248  0.0506  0.1752 -0.6064
  151OSM   H12S16773   5.748   4.735   3.281  1.0968 -0.2962 -1.0850
  151OSM   H12T16774   5.771   4.569   3.236 -0.5576 -0.4118 -0.9584
  151OSM   C13S16775   5.603   4.598   3.365 -0.6720 -0.2717  0.2139
  151OSM   H13S16776   5.564   4.497   3.339 -0.9037 -0.2562  0.4854
  151OSM   H13T16777   5.513   4.663   3.367 -1.2288 -0.9566 -1.1589
  151OSM   C14S16778   5.662   4.606   3.505  1.0644  0.0722 -0.0871
  151OSM   H14S16779   5.677   4.715   3.523  1.3197 -0.1342  0.9879
  151OSM   H14T16780   5.763   4.560   3.505  0.1304 -2.0987  0.0839
  151OSM   C15S16781   5.584   4.535   3.610 -0.5148 -0.1478  0.0018
  151OSM   H15S16782   5.477   4.568   3.612 -0.2099  0.8580  1.1009
  151OSM   H15T16783   5.624   4.578   3.704 -0.8735  1.8945 -0.7233
  151OSM   C16S16784   5.608   4.383   3.603  0.2652  0.0884 -0.0017
  151OSM   H16S16785   5.712   4.356   3.629  0.0106  0.2739  1.3320
  151OSM   H16T16786   5.589   4.345   3.501  1.3018  0.8569 -0.4990
  151OSM   C17S16787   5.517   4.302   3.708 -0.5567 -0.3409 -0.6224
  151OSM   H17S16788   5.527   4.194   3.684 -0.4309  0.0412 -2.4263
  151OSM   H17T16789   5.412   4.329   3.684  0.0271  1.5773 -1.1874
  151OSM   C18S16790   5.548   4.315   3.858 -0.9047 -0.3467  0.2106
  151OSM   H18S16791   5.523   4.415   3.900  3.5629  1.1405 -0.0779
  151OSM   H18T16792   5.657   4.303   3.877 -0.2798  0.9426 -2.0925
  151OSM   H18U16793   5.497   4.234   3.913  2.1585 -2.1613  0.6238
  151OSM    C1F16794   5.999   5.330   2.708 -0.1392 -0.3781 -0.0390
  151OSM     OF16795   5.937   5.433   2.732 -0.2028 -0.5574 -0.0386
  151OSM    C2F16796   6.110   5.289   2.800  0.5030 -0.4465 -0.0791
  151OSM    H2F16797   6.187   5.368   2.799  0.2963 -0.2308  0.7543
  151OSM    H2G16798   6.165   5.205   2.753 -1.1871 -0.7267 -1.6720
  151OSM    C3F16799   6.067   5.251   2.941  0.2026  0.5371 -0.2706
  151OSM    H3F16800   5.992   5.169   2.946 -2.0934  2.4883 -0.3269
  151OSM    H3G16801   6.019   5.345   2.976 -0.3894  0.1556 -0.0385
  151OSM    C4F16802   6.180   5.228   3.046  0.3119 -0.8037  0.1206
  151OSM    H4F16803   6.243   5.319   3.037  2.2442 -2.0569  0.3496
  151OSM    H4G16804   6.239   5.137   3.019  0.6669 -0.7593  0.7306
  151OSM    C5F16805   6.136   5.181   3.190  0.3373  0.2930  0.0512
  151OSM    H5F16806   6.096   5.078   3.188 -1.0860  0.7807  1.5696
  151OSM    H5G16807   6.049   5.238   3.228 -0.0280 -1.5525  2.1809
  151OSM    C6F16808   6.246   5.186   3.294  0.9615  0.5925 -0.2208
  151OSM    H6F16809   6.340   5.133   3.267 -0.1559 -1.7925  0.3617
  151OSM    H6G16810   6.200   5.122   3.371 -4.5170  0.0503 -3.4387
  151OSM    C7F16811   6.293   5.323   3.358  0.6281  0.0945  0.0689
  151OSM    H7F16812   6.208   5.363   3.418 -0.4258  0.1412 -1.3896
  151OSM    H7G16813   6.297   5.402   3.279  1.1671  0.0156  0.0149
  151OSM    C8F16814   6.428   5.316   3.425  0.2999 -0.0809 -0.1154
  151OSM    H8F16815   6.442   5.418   3.467  0.2977 -0.2535  0.3071
  151OSM    H8G16816   6.508   5.305   3.349  0.2886 -1.7114  0.0708
  151OSM    C9F16817   6.425   5.215   3.538  0.5000 -0.1795  0.1485
  151OSM    H9F16818   6.337   5.149   3.545 -1.2138  1.7442 -1.7192
  151OSM   C10F16819   6.529   5.191   3.627  0.0930  0.0044 -0.5830
  151OSM   H10F16820   6.512   5.117   3.706 -0.8137 -0.1470 -0.9170
  151OSM   C11F16821   6.654   5.273   3.643 -0.5431  0.7180  0.7893
  151OSM   H11F16822   6.646   5.370   3.590  1.8958  0.6891  0.2388
  151OSM   H11G16823   6.737   5.226   3.585 -2.4409 -1.6646 -0.1554
  151OSM   C12F16824   6.696   5.298   3.786 -0.5044 -0.4577  0.1496
  151OSM   H12F16825   6.799   5.340   3.788 -0.1029 -1.4127  0.1136
  151OSM   H12G16826   6.701   5.197   3.831  0.3477  1.0050  3.6429
  151OSM   C13F16827   6.602   5.394   3.857 -0.5656 -0.0035 -0.1895
  151OSM   H13F16828   6.648   5.411   3.957  0.0660 -1.9667 -0.1048
  151OSM   H13G16829   6.511   5.330   3.861 -0.8268  0.3553 -0.3443
  151OSM   C14F16830   6.553   5.528   3.807 -0.7292 -0.8545  0.8637
  151OSM   H14F16831   6.482   5.571   3.880 -0.6674  0.4347  0.1793
  151OSM   H14G16832   6.503   5.514   3.709  0.3686  1.4262 -0.0943
  151OSM   C15F16833   6.666   5.625   3.783 -0.1334 -0.8594  0.4846
  151OSM   H15F16834   6.629   5.708   3.720 -0.6073  1.2495  3.3419
  151OSM   H15G16835   6.748   5.569   3.733 -0.5917 -0.5139 -0.6774
  151OSM   C16F16836   6.725   5.695   3.912 -0.3070 -0.5016 -0.2093
  151OSM   H16F16837   6.753   5.608   3.976  2.0234 -1.6575 -2.5995
  151OSM   H16G16838   6.653   5.759   3.967 -1.6714 -1.2407 -1.0784
  151OSM   C17F16839   6.857   5.762   3.880  0.4734 -0.5750  0.4586
  151OSM   H17F16840   6.845   5.852   3.816 -0.0757 -0.9285  0.0481
  151OSM   H17G16841   6.906   5.687   3.814  0.3001  0.3485 -0.7763
  151OSM   C18F16842   6.944   5.798   4.003 -0.5667 -0.5844 -0.2007
  151OSM   H18F16843   6.894   5.810   4.102  1.1283 -0.5199  0.6829
  151OSM   H18G16844   7.015   5.882   3.991 -0.6738 -0.3701  0.5851
  151OSM   H18H16845   7.015   5.715   4.023  0.6117  0.0506 -1.6040
  152OSM      N16846   0.419   6.543   1.934  0.4275 -0.6023  0.4459
  152OSM    C1516847   0.478   6.508   1.800 -0.9420  0.1614 -0.0861
  152OSM   H15A16848   0.422   6.423   1.763 -3.4232  1.8566 -0.4576
  152OSM   H15B16849   0.584   6.491   1.808 -0.9592 -0.0762 -0.3282
  152OSM   H15C16850   0.469   6.593   1.735  0.6313  0.4461  0.0437
  152OSM    C1416851   0.453   6.439   2.036  0.3509  0.2237  0.1652
  152OSM   H14A16852   0.395   6.457   2.125 -0.3924 -0.2080 -0.2217
  152OSM   H14B16853   0.559   6.437   2.060  0.3783  1.3940  0.2130
  152OSM   H14C16854   0.424   6.342   1.999  1.3274  0.6899 -2.0308
  152OSM    C1316855   0.476   6.673   1.972 -0.2274  0.4359  0.4598
  152OSM   H13A16856   0.444   6.745   1.899  0.0783 -0.8524 -0.9914
  152OSM   H13B16857   0.584   6.669   1.980  0.0824 -4.9356 -2.1262
  152OSM   H13C16858   0.439   6.706   2.068  0.3173  1.0670  0.4625
  152OSM    C1216859   0.268   6.563   1.923 -0.0089  0.6514 -0.1069
  152OSM   H12A16860   0.229   6.468   1.891  1.1087  0.5683 -1.2909
  152OSM   H12B16861   0.245   6.623   1.835 -0.1444  0.1923 -0.3858
  152OSM    C1116862   0.192   6.625   2.042 -0.1941  0.2245  0.6325
  152OSM   H11A16863   0.084   6.618   2.016  0.3886 -2.0759 -1.6213
  152OSM   H11B16864   0.215   6.733   2.051  1.6107 -0.0505 -0.2319
  152OSM      P16865   0.112   6.455   2.215 -0.2105 -0.1120  0.3992
  152OSM    O1316866  -0.004   6.533   2.265 -0.5326 -0.1110  0.2119
  152OSM    O1416867   0.078   6.361   2.106 -0.1305  0.1706  0.4059
  152OSM    O1116868   0.193   6.368   2.321 -0.1713  0.0574 -0.5825
  152OSM    O1216869   0.218   6.563   2.165 -0.1773 -0.1658  0.0473
  152OSM    C1S16870   0.190   6.438   2.453 -0.1627  1.1004 -0.6912
  152OSM    H1S16871   0.151   6.542   2.462  1.0499  1.5921 -0.9917
  152OSM    H1T16872   0.294   6.458   2.486 -0.6940  0.8518  1.2965
  152OSM     NF16873   0.122   6.424   2.689 -0.4816 -0.6825 -0.5208
  152OSM    HNF16874   0.195   6.410   2.756 -0.3058 -0.1850 -0.6074
  152OSM    C2S16875   0.130   6.349   2.561 -0.8446  0.6073  0.9583
  152OSM    H2S16876   0.023   6.342   2.531 -1.0241  3.1440  0.7562
  152OSM    C3S16877   0.189   6.204   2.570  0.8295  0.2095 -0.0694
  152OSM    H3S16878   0.298   6.212   2.591  1.0498  4.7092 -1.7688
  152OSM     O316879   0.172   6.135   2.443  0.1823  0.1543 -0.1237
  152OSM    HO316880   0.190   6.211   2.387  1.6887 -0.9788 -1.2644
  152OSM    C4S16881   0.125   6.120   2.682  0.0516 -0.7709 -0.1586
  152OSM    H4S16882   0.196   6.109   2.765 -0.8813  1.4989  1.0452
  152OSM    C5S16883  -0.004   6.079   2.694  0.3687 -0.2176  0.5033
  152OSM    H5S16884  -0.072   6.092   2.609  1.2392  1.4304  0.0141
  152OSM    C6S16885  -0.067   6.024   2.811 -0.1876 -0.2860 -0.5977
  152OSM    H6S16886  -0.107   5.923   2.788 -0.5928  0.0030 -1.1897
  152OSM    H6T16887  -0.153   6.090   2.834 -0.2548  0.0672 -1.7832
  152OSM    C7S16888   0.021   6.029   2.944 -0.6573  0.2702 -0.0557
  152OSM    H7S16889   0.073   6.127   2.950 -1.8699  1.0455 -1.3863
  152OSM    H7T16890   0.102   5.953   2.934 -0.9444  0.0202 -0.4903
  152OSM    C8S16891  -0.057   5.995   3.074 -0.1245 -0.0042  1.0127
  152OSM    H8S16892  -0.069   5.885   3.083 -1.7522  0.0528 -0.1573
  152OSM    H8T16893  -0.155   6.047   3.074 -0.7875 -1.1932  2.3934
  152OSM    C9S16894   0.021   6.041   3.202  0.4227 -0.3160 -0.1894
  152OSM    H9S16895   0.050   6.148   3.195  1.4198 -0.5737 -0.1982
  152OSM    H9T16896   0.117   5.985   3.198  1.0703  0.7270  0.1787
  152OSM   C10S16897  -0.048   6.005   3.336 -0.1556 -0.3422  0.3363
  152OSM   H10S16898  -0.072   5.896   3.343  0.7881 -0.5520  0.4918
  152OSM   H10T16899  -0.137   6.071   3.328 -0.1379  0.0774  2.7372
  152OSM   C11S16900   0.013   6.060   3.471 -0.2612  0.0157  0.2997
  152OSM   H11S16901   0.011   6.170   3.465 -0.4939  0.0352  0.6895
  152OSM   H11T16902   0.115   6.021   3.489 -0.5948 -1.8402 -1.3872
  152OSM   C12S16903  -0.077   6.042   3.590  0.5321 -0.6573  0.4289
  152OSM   H12S16904  -0.097   5.933   3.600  2.0501 -1.1243 -1.2030
  152OSM   H12T16905  -0.167   6.096   3.553  1.6902  0.2821 -1.1485
  152OSM   C13S16906  -0.035   6.126   3.711 -0.1385  0.1371  0.2204
  152OSM   H13S16907   0.020   6.218   3.681  0.0417 -0.0448 -0.0057
  152OSM   H13T16908   0.035   6.061   3.767 -0.6361  0.5927  1.4149
  152OSM   C14S16909  -0.156   6.170   3.805  0.2129 -0.1230 -0.0341
  152OSM   H14S16910  -0.194   6.078   3.854  1.9833 -0.6398  0.4654
  152OSM   H14T16911  -0.239   6.209   3.742  0.5178 -0.6668 -0.7920
  152OSM   C15S16912  -0.124   6.275   3.913  0.3894  0.5712  0.6240
  152OSM   H15S16913  -0.217   6.298   3.970  0.5570  0.6123  0.8844
  152OSM   H15T16914  -0.115   6.374   3.864  1.8065  1.1623  1.9815
  152OSM   C16S16915  -0.001   6.246   3.986  0.5835 -0.3446 -0.1615
  152OSM   H16S16916   0.084   6.252   3.915  0.6261 -1.3514 -0.2064
  152OSM   H16T16917  -0.014   6.139   4.011 -3.8361  0.0025 -0.1242
  152OSM   C17S16918   0.034   6.335   4.111  0.1992  0.1273 -0.0570
  152OSM   H17S16919   0.032   6.443   4.087 -1.6443  0.3280  0.7871
  152OSM   H17T16920   0.136   6.303   4.142  0.5605  0.1889 -1.1517
  152OSM   C18S16921  -0.055   6.315   4.234  0.4910 -0.3662 -0.7482
  152OSM   H18S16922  -0.163   6.325   4.209  0.2007 -2.6025 -0.6106
  152OSM   H18T16923  -0.037   6.393   4.311 -0.1106 -2.6260  1.8463
  152OSM   H18U16924  -0.029   6.215   4.274 -0.8697 -0.0097  1.1727
  152OSM    C1F16925   0.049   6.532   2.703 -0.6492  0.0916 -0.3447
  152OSM     OF16926  -0.058   6.538   2.649  1.0898  0.6231  0.1166
  152OSM    C2F16927   0.112   6.636   2.789  0.0423  1.1929 -0.2057
  152OSM    H2F16928   0.213   6.660   2.748  1.1437 -1.1296  0.9505
  152OSM    H2G16929   0.124   6.595   2.891  1.4978  0.6616 -0.5626
  152OSM    C3F16930   0.038   6.776   2.791 -0.1034 -0.4695 -0.0617
  152OSM    H3F16931  -0.065   6.766   2.832  0.0997 -0.5525  0.4362
  152OSM    H3G16932   0.028   6.811   2.686  0.8343 -0.7786 -0.2640
  152OSM    C4F16933   0.131   6.877   2.861  0.0936 -0.4473 -0.1279
  152OSM    H4F16934   0.063   6.964   2.873  0.3472 -0.2858  0.1714
  152OSM    H4G16935   0.213   6.904   2.792  0.2753  0.0662  0.2805
  152OSM    C5F16936   0.180   6.849   3.008  0.3686 -0.3864  0.3430
  152OSM    H5F16937   0.256   6.929   3.017 -0.8762  0.7691  0.8004
  152OSM    H5G16938   0.237   6.754   2.996  0.7655  0.1768 -4.4854
  152OSM    C6F16939   0.079   6.842   3.122  0.3634  0.2315 -0.0523
  152OSM    H6F16940   0.010   6.755   3.121  2.0477 -1.1776 -1.1782
  152OSM    H6G16941   0.015   6.932   3.117 -0.3144 -0.3034 -1.9070
  152OSM    C7F16942   0.150   6.834   3.263 -0.6301 -0.0269 -0.2092
  152OSM    H7F16943   0.160   6.937   3.303  0.3198 -0.1690 -0.0633
  152OSM    H7G16944   0.252   6.795   3.244  0.3327  2.2383 -0.0671
  152OSM    C8F16945   0.074   6.742   3.357 -0.1355 -0.6207  0.2161
  152OSM    H8F16946   0.138   6.720   3.445  1.3269 -1.1427 -0.9593
  152OSM    H8G16947   0.052   6.647   3.304  1.2502 -1.4100  1.0049
  152OSM    C9F16948  -0.050   6.821   3.393  0.3557 -0.1332  0.1044
  152OSM    H9F16949  -0.121   6.833   3.309 -0.5071  2.0812  1.0472
  152OSM   C10F16950  -0.092   6.855   3.519 -0.8228 -0.3613 -0.4705
  152OSM   H10F16951  -0.185   6.910   3.537  0.7278  1.5362  2.6521
  152OSM   C11F16952  -0.017   6.824   3.644  0.6341  0.4377 -0.1409
  152OSM   H11F16953   0.029   6.921   3.671 -1.4479  1.3915  0.2127
  152OSM   H11G16954   0.055   6.741   3.634  0.0246 -0.4319  2.1634
  152OSM   C12F16955  -0.122   6.793   3.751 -0.3821  0.8752 -0.5924
  152OSM   H12F16956  -0.171   6.698   3.722 -0.4307  0.4974  0.6498
  152OSM   H12G16957  -0.186   6.883   3.756 -0.0941  1.0525 -0.0087
  152OSM   C13F16958  -0.044   6.761   3.881  0.3664  0.0983 -0.0857
  152OSM   H13F16959   0.009   6.849   3.923  0.2971 -0.4350  1.1572
  152OSM   H13G16960   0.040   6.688   3.865  0.7230  0.4054  0.3654
  152OSM   C14F16961  -0.141   6.708   3.989 -0.0744 -0.7377  0.1414
  152OSM   H14F16962  -0.164   6.600   3.972 -1.8783 -0.4912  0.7699
  152OSM   H14G16963  -0.234   6.768   3.990  1.0030  0.9920  0.2640
  152OSM   C15F16964  -0.077   6.730   4.125 -0.0514 -0.0310  0.2351
  152OSM   H15F16965  -0.049   6.838   4.131  2.9958 -0.5434 -2.0553
  152OSM   H15G16966   0.012   6.665   4.135 -0.7812 -1.3405 -1.3562
  152OSM   C16F16967  -0.162   6.684   4.244  0.1444  0.3855  0.1895
  152OSM   H16F16968  -0.205   6.583   4.230  0.3421  0.2178  0.7438
  152OSM   H16G16969  -0.250   6.751   4.242 -0.8220 -0.8077  1.1622
  152OSM   C17F16970  -0.080   6.682   4.377  0.2258 -0.5246  0.4159
  152OSM   H17F16971  -0.055   6.786   4.409 -0.2847  0.3851 -1.9297
  152OSM   H17G16972   0.016   6.627   4.373 -0.0534 -0.9900 -0.1336
  152OSM   C18F16973  -0.163   6.616   4.494 -0.0174 -0.4636  0.4292
  152OSM   H18F16974  -0.178   6.508   4.472 -2.4175  0.2331 -1.9564
  152OSM   H18G16975  -0.267   6.655   4.505 -0.4642 -1.8734  1.5479
  152OSM   H18H16976  -0.110   6.620   4.591 -2.8857 -3.1969  2.3139
  153OSM      N16977   6.480   6.432   2.113  0.2645  0.2816  0.2407
  153OSM    C1516978   6.391   6.373   2.010  0.0107  0.5660 -0.1733
  153OSM   H15A16979   6.324   6.446   1.968 -0.9484  0.5298  1.2313
  153OSM   H15B16980   6.320   6.304   2.052  0.0511  0.2660 -0.5951
  153OSM   H15C16981   6.444   6.329   1.927  1.1116 -0.3223  0.9589
  153OSM    C1416982   6.526   6.326   2.214  0.3044 -0.3405 -0.5708
  153OSM   H14A16983   6.435   6.298   2.266 -0.9141  1.0422 -1.8481
  153OSM   H14B16984   6.586   6.378   2.288  0.3619 -0.5719 -0.4553
  153OSM   H14C16985   6.579   6.243   2.170 -0.5773 -2.1766  1.6412
  153OSM    C1316986   6.599   6.500   2.050  0.4550 -0.5764 -0.1116
  153OSM   H13A16987   6.568   6.586   1.992  1.0898  0.1611  0.6344
  153OSM   H13B16988   6.656   6.434   1.986  0.6634 -2.9706  2.3635
  153OSM   H13C16989   6.669   6.541   2.121 -1.6395 -1.6007  2.7457
  153OSM    C1216990   6.402   6.539   2.195  0.0325 -0.2473 -0.3963
  153OSM   H12A16991   6.468   6.576   2.272  0.0413  1.9605 -1.3981
  153OSM   H12B16992   6.322   6.496   2.252 -0.5250  1.4883  0.1866
  153OSM    C1116993   6.350   6.665   2.115 -0.6562 -0.3394  0.0578
  153OSM   H11A16994   6.436   6.709   2.061  2.4635 -3.5920  1.9411
  153OSM   H11B16995   6.321   6.741   2.191 -0.0574  1.4872 -1.4818
  153OSM      P16996   6.087   6.634   2.065  0.4281 -0.2929  0.1705
  153OSM    O1316997   6.024   6.766   2.040 -0.2766 -0.1543 -0.0275
  153OSM    O1416998   6.021   6.523   1.996  0.0977 -0.0226 -0.7325
  153OSM    O1116999   6.095   6.605   2.221  0.0662 -0.4218  0.0481
  153OSM    O1217000   6.245   6.634   2.026  0.6436 -0.2203  0.6073
  153OSM    C1S17001   6.007   6.522   2.291  0.0319  0.6364 -0.1967
  153OSM    H1S17002   6.026   6.415   2.270 -0.1071  0.7907 -1.1633
  153OSM    H1T17003   5.902   6.532   2.257  0.7443 -0.6164 -3.0705
  153OSM     NF17004   5.896   6.473   2.514  0.1151  0.1881  0.5050
  153OSM    HNF17005   5.814   6.528   2.531  0.5802  0.6738  1.2685
  153OSM    C2S17006   6.004   6.552   2.448 -0.0959  0.9782  0.2599
  153OSM    H2S17007   6.102   6.517   2.487  0.9004  2.1994 -1.0614
  153OSM    C3S17008   5.980   6.700   2.480 -0.7312  0.1480  0.3733
  153OSM    H3S17009   5.872   6.721   2.467 -1.1061 -1.4570  0.6513
  153OSM     O317010   6.050   6.791   2.397 -0.6374  0.2107 -0.5114
  153OSM    HO317011   6.083   6.733   2.327 -2.3182 -2.6663  0.9142
  153OSM    C4S17012   5.998   6.729   2.630 -0.1839 -0.0406  0.4923
  153OSM    H4S17013   5.909   6.707   2.691 -0.0130 -0.8895  0.4453
  153OSM    C5S17014   6.101   6.780   2.693  0.4409  0.5558  0.2659
  153OSM    H5S17015   6.175   6.831   2.630 -0.2578 -2.4365 -3.3974
  153OSM    C6S17016   6.095   6.795   2.844  0.2647  0.9495  0.2401
  153OSM    H6S17017   6.086   6.901   2.876  1.6580  0.9274  0.7903
  153OSM    H6T17018   6.186   6.755   2.894 -0.6573 -0.0960  1.1179
  153OSM    C7S17019   5.977   6.728   2.918  0.0378 -0.0222 -0.7364
  153OSM    H7S17020   5.972   6.619   2.897 -1.7701 -0.4038  1.3618
  153OSM    H7T17021   5.880   6.765   2.878  0.5349  0.9405 -1.0735
  153OSM    C8S17022   5.997   6.764   3.068 -0.1760 -0.0834  0.1191
  153OSM    H8S17023   5.981   6.871   3.093  1.8429  0.4129 -0.4567
  153OSM    H8T17024   6.101   6.752   3.107 -0.1772  0.6769  0.3734
  153OSM    C9S17025   5.924   6.675   3.172  0.2744  0.1234 -0.6497
  153OSM    H9S17026   5.930   6.567   3.144  3.9645 -0.0376  0.2638
  153OSM    H9T17027   5.818   6.703   3.158 -0.0169  0.3122  1.6210
  153OSM   C10S17028   5.963   6.698   3.319  0.6533  0.4475  0.3049
  153OSM   H10S17029   5.933   6.802   3.344 -4.2734 -0.7948  0.6789
  153OSM   H10T17030   6.072   6.680   3.304  0.3120 -2.1034  0.4234
  153OSM   C11S17031   5.893   6.597   3.412 -0.2704 -0.4533 -0.1154
  153OSM   H11S17032   5.939   6.498   3.394 -0.1118 -0.4175  0.0883
  153OSM   H11T17033   5.787   6.598   3.379 -0.8309  2.3483  1.3803
  153OSM   C12S17034   5.897   6.616   3.564 -0.3773  0.2266  0.0304
  153OSM   H12S17035   6.004   6.636   3.588  0.3719 -0.0398 -2.6625
  153OSM   H12T17036   5.876   6.519   3.613  1.5788 -1.1164 -1.6006
  153OSM   C13S17037   5.812   6.730   3.610 -0.1047 -0.6382 -0.1852
  153OSM   H13S17038   5.707   6.719   3.576  0.1906 -0.3906 -1.2273
  153OSM   H13T17039   5.845   6.827   3.568  0.0944 -0.4674  0.3526
  153OSM   C14S17040   5.821   6.746   3.766  0.4401  0.2551 -0.5109
  153OSM   H14S17041   5.744   6.823   3.789 -1.7780 -1.7835 -0.6671
  153OSM   H14T17042   5.923   6.783   3.790  0.2404  0.0032  0.7812
  153OSM   C15S17043   5.778   6.623   3.852  0.0150  0.5347  0.3713
  153OSM   H15S17044   5.855   6.547   3.830 -0.1821  0.1670  0.9425
  153OSM   H15T17045   5.676   6.589   3.825  0.8046  0.7458 -3.4744
  153OSM   C16S17046   5.791   6.646   4.003 -0.2717 -0.1303 -0.0538
  153OSM   H16S17047   5.897   6.671   4.023  0.5471 -0.7430 -3.0796
  153OSM   H16T17048   5.778   6.549   4.056 -1.7301 -0.0265 -0.1767
  153OSM   C17S17049   5.674   6.737   4.051  0.1910  0.2515 -0.7850
  153OSM   H17S17050   5.577   6.692   4.018 -0.0763  0.0957  0.1872
  153OSM   H17T17051   5.683   6.837   4.003 -1.2199  0.5681 -0.4445
  153OSM   C18S17052   5.660   6.756   4.205 -0.4052 -0.4686  0.5002
  153OSM   H18S17053   5.660   6.659   4.259  2.7613 -0.0111  1.5363
  153OSM   H18T17054   5.570   6.819   4.224 -2.1326 -1.8238 -2.5554
  153OSM   H18U17055   5.752   6.810   4.237 -0.9818  0.4947  0.5873
  153OSM    C1F17056   5.902   6.342   2.518 -0.0136  0.5250  0.0550
  153OSM     OF17057   5.985   6.273   2.463 -0.0601  0.1103 -0.4442
  153OSM    C2F17058   5.783   6.278   2.591 -0.1065 -0.1990  0.6321
  153OSM    H2F17059   5.756   6.183   2.540 -0.4131  0.3767 -0.3082
  153OSM    H2G17060   5.701   6.353   2.593  1.3945  1.5158  1.3636
  153OSM    C3F17061   5.828   6.245   2.734  0.2142  0.4090 -0.0673
  153OSM    H3F17062   5.735   6.217   2.789  0.0312 -0.2478 -0.6916
  153OSM    H3G17063   5.860   6.339   2.783 -1.6858  0.6104  0.9149
  153OSM    C4F17064   5.929   6.135   2.755  0.2048 -0.1090  0.4583
  153OSM    H4F17065   6.011   6.147   2.681  1.8026 -1.5481  1.8932
  153OSM    H4G17066   5.891   6.030   2.749 -1.5211  0.5613 -1.6151
  153OSM    C5F17067   6.019   6.150   2.879  0.1736 -0.0769  0.1459
  153OSM    H5F17068   6.085   6.240   2.881 -0.5483  0.5233 -1.3074
  153OSM    H5G17069   6.085   6.061   2.879  1.4953  0.8754 -0.6321
  153OSM    C6F17070   5.940   6.158   3.007 -1.0803 -0.2689  0.2838
  153OSM    H6F17071   5.869   6.073   3.019 -2.1950  0.3676 -1.4576
  153OSM    H6G17072   5.871   6.244   3.017  1.9081  2.6199 -1.9843
  153OSM    C7F17073   6.033   6.164   3.130 -0.0398 -0.1686 -0.4215
  153OSM    H7F17074   6.130   6.215   3.114 -0.2296  1.7403  3.5139
  153OSM    H7G17075   6.057   6.058   3.152  1.0546  0.0343 -0.5912
  153OSM    C8F17076   5.964   6.229   3.260  0.2768 -0.1077  0.2947
  153OSM    H8F17077   5.866   6.181   3.278 -0.1503 -0.4508 -2.4929
  153OSM    H8G17078   5.937   6.335   3.239 -0.6611 -0.3543  0.2322
  153OSM    C9F17079   6.057   6.213   3.381  0.2254 -0.1177  0.0467
  153OSM    H9F17080   6.166   6.212   3.367  0.1235  0.6398 -0.9282
  153OSM   C10F17081   6.022   6.208   3.506  0.6580  0.1364 -0.6239
  153OSM   H10F17082   6.093   6.180   3.586 -0.1117  0.2221  0.1077
  153OSM   C11F17083   5.881   6.191   3.554  0.5746 -0.1188 -0.1152
  153OSM   H11F17084   5.862   6.082   3.544  0.7918 -0.1419 -0.3000
  153OSM   H11G17085   5.804   6.243   3.493 -0.2403 -1.4448 -0.2650
  153OSM   C12F17086   5.856   6.244   3.699  0.0859  0.1423  0.1944
  153OSM   H12F17087   5.756   6.209   3.732  0.9878 -2.5151  0.3251
  153OSM   H12G17088   5.870   6.354   3.708 -0.9357  0.1974  1.4759
  153OSM   C13F17089   5.951   6.187   3.802 -0.4420 -0.0130  0.4554
  153OSM   H13F17090   6.049   6.238   3.804  0.0542 -0.9438  0.5534
  153OSM   H13G17091   5.979   6.081   3.786  1.0391  0.5686 -0.9752
  153OSM   C14F17092   5.906   6.212   3.945 -0.2127 -0.1041 -0.0199
  153OSM   H14F17093   5.805   6.169   3.963 -0.8543  1.8828  1.4958
  153OSM   H14G17094   5.892   6.320   3.969 -2.6334 -0.8374  2.4592
  153OSM   C15F17095   5.990   6.160   4.056 -0.8918 -0.8815  0.0610
  153OSM   H15F17096   6.089   6.210   4.056 -1.3219  0.0148  1.4679
  153OSM   H15G17097   6.013   6.053   4.037  1.6535 -0.5262  0.8454
  153OSM   C16F17098   5.932   6.175   4.197 -0.0224 -0.2533 -1.2741
  153OSM   H16F17099   5.864   6.087   4.204  0.5701 -0.6261  0.2641
  153OSM   H16G17100   5.884   6.274   4.212  0.0643 -0.6516  2.5653
  153OSM   C17F17101   6.037   6.153   4.306  0.5809 -0.3119  0.0259
  153OSM   H17F17102   6.113   6.233   4.312 -0.3343  0.4947  1.3507
  153OSM   H17G17103   6.089   6.065   4.263 -2.0257 -1.2554 -1.4739
  153OSM   C18F17104   5.982   6.113   4.444 -0.8117  0.6679  1.4929
  153OSM   H18F17105   6.064   6.094   4.517  0.6721  1.4078  0.0874
  153OSM   H18G17106   5.916   6.025   4.430 -0.3709  0.5737 -0.1759
  153OSM   H18H17107   5.927   6.200   4.486 -2.2710  0.8116 -0.5874
  154OSM      N17108   4.602   0.819   1.492 -0.5469 -0.3056  0.2057
  154OSM    C1517109   4.705   0.935   1.481  0.2249 -0.2143  0.1854
  154OSM   H15A17110   4.741   0.961   1.579 -1.0288  1.6851  0.1928
  154OSM   H15B17111   4.662   1.029   1.449  1.4157  0.6238  0.9847
  154OSM   H15C17112   4.793   0.907   1.425  1.4677  1.1426  1.3829
  154OSM    C1417113   4.555   0.810   1.354  0.6144  0.3000  0.3351
  154OSM   H14A17114   4.475   0.738   1.348 -0.9017  1.7998  1.6596
  154OSM   H14B17115   4.631   0.789   1.280 -1.4602  0.1912 -1.8753
  154OSM   H14C17116   4.506   0.902   1.325 -0.8275 -0.2650  0.8996
  154OSM    C1317117   4.668   0.691   1.528 -0.2017 -0.0115 -0.4665
  154OSM   H13A17118   4.702   0.705   1.630 -0.4601 -3.7390  0.2889
  154OSM   H13B17119   4.747   0.662   1.461  0.4714  0.1864  0.2245
  154OSM   H13C17120   4.593   0.613   1.521  0.2186 -0.3194 -1.6300
  154OSM    C1217121   4.485   0.840   1.587 -0.2791 -0.3232  0.0130
  154OSM   H12A17122   4.432   0.746   1.597  0.4199 -0.5656  1.8080
  154OSM   H12B17123   4.409   0.908   1.553 -1.9763 -1.9900  0.3134
  154OSM    C1117124   4.516   0.881   1.725  0.0793  0.4834 -0.0432
  154OSM   H11A17125   4.585   0.805   1.767 -1.0864 -0.7292 -0.2640
  154OSM   H11B17126   4.433   0.867   1.798  0.8776 -0.1983  0.7600
  154OSM      P17127   4.467   1.133   1.711  0.1252 -0.0593  0.4225
  154OSM    O1317128   4.555   1.251   1.693  1.0165 -0.4681  0.0003
  154OSM    O1417129   4.380   1.115   1.594 -0.1268  0.2008 -0.5562
  154OSM    O1117130   4.375   1.154   1.839  0.5021 -0.2459 -0.0944
  154OSM    O1217131   4.563   1.011   1.740 -0.0447  0.0195 -0.4084
  154OSM    C1S17132   4.434   1.139   1.965 -0.2403 -0.0066 -1.1234
  154OSM    H1S17133   4.532   1.187   1.985 -0.6991 -0.0524  1.7648
  154OSM    H1T17134   4.452   1.032   1.989 -1.3218  0.3668  1.7614
  154OSM     NF17135   4.411   1.146   2.214 -0.9200 -0.0225  0.4831
  154OSM    HNF17136   4.363   1.076   2.267 -0.1583 -0.9091  0.0287
  154OSM    C2S17137   4.349   1.196   2.083  0.3376  0.9677 -0.7995
  154OSM    H2S17138   4.339   1.306   2.072  0.0417  0.8049 -2.4685
  154OSM    C3S17139   4.204   1.142   2.061  0.2429 -0.0758 -0.1500
  154OSM    H3S17140   4.191   1.034   2.085 -0.7238  0.6408  3.0106
  154OSM     O317141   4.146   1.182   1.938  0.3417  0.5718 -0.0616
  154OSM    HO317142   4.218   1.193   1.876  0.0372 -0.8515 -0.7130
  154OSM    C4S17143   4.118   1.196   2.175  0.2403 -0.0983  0.2672
  154OSM    H4S17144   4.138   1.299   2.210 -1.4102  1.3986 -2.7616
  154OSM    C5S17145   4.025   1.134   2.231 -0.0483  0.0345 -0.5421
  154OSM    H5S17146   3.993   1.037   2.190  0.4596 -0.2382 -0.3033
  154OSM    C6S17147   3.928   1.182   2.340 -0.5532 -0.1891 -0.2023
  154OSM    H6S17148   3.822   1.189   2.309 -0.6355  2.0257  0.4170
  154OSM    H6T17149   3.947   1.290   2.360  1.2250 -0.3786 -0.6835
  154OSM    C7S17150   3.930   1.104   2.473  0.2481  1.1031 -0.7165
  154OSM    H7S17151   4.023   1.130   2.528  0.2374 -1.3257  0.5999
  154OSM    H7T17152   3.926   0.995   2.454 -0.6821  1.0545 -0.2888
  154OSM    C8S17153   3.805   1.148   2.564 -0.3145 -1.0614  0.1296
  154OSM    H8S17154   3.725   1.124   2.491  0.1403  0.3965 -0.8810
  154OSM    H8T17155   3.817   1.257   2.576  0.9952 -1.0107 -1.2915
  154OSM    C9S17156   3.787   1.073   2.696  0.1191  0.3329  0.7226
  154OSM    H9S17157   3.884   1.083   2.750  0.5908 -1.2281  0.2117
  154OSM    H9T17158   3.758   0.967   2.680  1.3003  0.2231 -0.9521
  154OSM   C10S17159   3.675   1.149   2.765 -0.1367 -0.2055 -0.3479
  154OSM   H10S17160   3.584   1.131   2.705 -0.9568 -0.4460  0.9277
  154OSM   H10T17161   3.685   1.259   2.753  1.2867 -0.3982 -1.2546
  154OSM   C11S17162   3.650   1.102   2.909  0.8123 -0.4821 -0.2315
  154OSM   H11S17163   3.654   0.991   2.910 -1.7441 -0.6323  0.1111
  154OSM   H11T17164   3.545   1.135   2.928  1.1714  1.4170 -1.2503
  154OSM   C12S17165   3.746   1.177   3.007  0.5894 -0.2644  0.7325
  154OSM   H12S17166   3.744   1.288   2.998  2.1156 -0.2406  0.4152
  154OSM   H12T17167   3.851   1.149   2.984  0.6768  2.2075 -2.7032
  154OSM   C13S17168   3.734   1.128   3.152  0.3106  0.5095  0.7694
  154OSM   H13S17169   3.749   1.018   3.158  1.6794  0.6717  0.6462
  154OSM   H13T17170   3.626   1.145   3.170  0.0499  2.1725 -1.7433
  154OSM   C14S17171   3.824   1.195   3.257 -0.1617 -0.2485 -0.3126
  154OSM   H14S17172   3.806   1.305   3.256  2.2454  0.1804 -1.0470
  154OSM   H14T17173   3.930   1.181   3.231  0.2971 -0.3911  1.4650
  154OSM   C15S17174   3.808   1.140   3.401  1.0031  0.2346  0.7834
  154OSM   H15S17175   3.854   1.040   3.385  1.1397  0.5112 -0.7207
  154OSM   H15T17176   3.702   1.122   3.430  0.7081  1.5265  0.5417
  154OSM   C16S17177   3.885   1.209   3.514 -0.2546  0.1631  0.0914
  154OSM   H16S17178   3.837   1.309   3.525  1.2510  0.7337  1.9194
  154OSM   H16T17179   3.980   1.232   3.461 -0.0292  0.8042  0.7617
  154OSM   C17S17180   3.892   1.134   3.653 -0.4778  0.2022 -0.0140
  154OSM   H17S17181   3.930   1.031   3.636  0.8238  0.7854 -0.8433
  154OSM   H17T17182   3.801   1.125   3.716  0.4504  0.1350  1.3586
  154OSM   C18S17183   4.001   1.193   3.749 -0.0615 -0.1875 -0.2802
  154OSM   H18S17184   3.980   1.300   3.770 -0.8358 -0.4090  0.1110
  154OSM   H18T17185   4.105   1.185   3.711 -0.1762  0.5224 -0.7620
  154OSM   H18U17186   3.993   1.147   3.849  1.7966  1.1400  0.5336
  154OSM    C1F17187   4.526   1.185   2.267 -0.7125  0.4059  0.3981
  154OSM     OF17188   4.596   1.277   2.226  0.0091  0.2122  0.3851
  154OSM    C2F17189   4.570   1.113   2.390  0.5912  0.6743  0.0306
  154OSM    H2F17190   4.614   1.186   2.461  0.1918 -0.1619  1.1742
  154OSM    H2G17191   4.652   1.046   2.355  0.3515 -0.6526  1.8042
  154OSM    C3F17192   4.466   1.016   2.461 -0.8423 -0.0141 -0.0071
  154OSM    H3F17193   4.516   0.979   2.553 -0.6051 -0.0321 -0.1427
  154OSM    H3G17194   4.446   0.924   2.403  0.6989 -1.0386  1.0152
  154OSM    C4F17195   4.330   1.078   2.512 -0.4330 -0.2250 -0.2055
  154OSM    H4F17196   4.275   1.006   2.576 -1.1640  0.3355 -0.1972
  154OSM    H4G17197   4.274   1.108   2.421 -0.2792  0.2813 -0.1356
  154OSM    C5F17198   4.355   1.210   2.591  0.4469  0.4199 -0.1311
  154OSM    H5F17199   4.355   1.294   2.518  2.3516  2.9650  2.5634
  154OSM    H5G17200   4.450   1.193   2.647  1.7989 -1.6586 -2.8202
  154OSM    C6F17201   4.247   1.246   2.694  0.4188  0.2538 -0.0365
  154OSM    H6F17202   4.147   1.209   2.666  0.1760  0.2056  0.8612
  154OSM    H6G17203   4.253   1.356   2.709  1.1589  0.1542  0.4668
  154OSM    C7F17204   4.270   1.165   2.828  0.3051  0.2273  0.3353
  154OSM    H7F17205   4.372   1.183   2.868  0.0804 -2.2325  2.2035
  154OSM    H7G17206   4.270   1.059   2.795 -1.7892  0.6814 -1.3964
  154OSM    C8F17207   4.155   1.193   2.936  0.2007  0.4955  0.3661
  154OSM    H8F17208   4.168   1.113   3.012  1.8681 -0.5966 -0.9882
  154OSM    H8G17209   4.057   1.168   2.890  0.5341  0.3534 -0.2856
  154OSM    C9F17210   4.147   1.326   2.994 -0.8533  0.0636 -0.5801
  154OSM    H9F17211   4.078   1.394   2.941 -1.2435 -0.1507 -0.3517
  154OSM   C10F17212   4.216   1.367   3.101 -0.4764  0.2481  0.3556
  154OSM   H10F17213   4.204   1.468   3.142 -1.8361 -0.8354  2.8637
  154OSM   C11F17214   4.325   1.290   3.188 -0.4472  0.4625  0.9657
  154OSM   H11F17215   4.426   1.333   3.177 -0.8783  0.8569 -2.5663
  154OSM   H11G17216   4.333   1.187   3.148 -0.6326  1.0974 -0.7985
  154OSM   C12F17217   4.285   1.294   3.336  0.1623  0.4745 -0.4591
  154OSM   H12F17218   4.206   1.217   3.342 -0.3906  1.1300  1.5437
  154OSM   H12G17219   4.244   1.390   3.375  1.0424  0.6392  0.1112
  154OSM   C13F17220   4.396   1.242   3.423 -0.3048  0.1307 -0.5273
  154OSM   H13F17221   4.495   1.279   3.388 -0.0558 -0.9243 -0.9766
  154OSM   H13G17222   4.400   1.131   3.422 -0.4554  0.0634 -3.3883
  154OSM   C14F17223   4.363   1.266   3.568 -0.5693 -0.1683 -0.4530
  154OSM   H14F17224   4.280   1.195   3.590 -1.4931  1.1417  0.5113
  154OSM   H14G17225   4.321   1.366   3.591  2.3526  0.5365  2.5076
  154OSM   C15F17226   4.479   1.236   3.668 -0.2046 -0.1016  0.5191
  154OSM   H15F17227   4.563   1.309   3.665  0.7869 -1.2266 -0.0176
  154OSM   H15G17228   4.525   1.140   3.635  0.7422  1.0253 -1.6774
  154OSM   C16F17229   4.430   1.219   3.811  0.3487  0.9085 -0.5738
  154OSM   H16F17230   4.383   1.120   3.828  1.2961  0.4963 -0.2584
  154OSM   H16G17231   4.363   1.299   3.849  0.3179  0.4625  0.3472
  154OSM   C17F17232   4.552   1.211   3.912 -0.0093 -0.2506  1.1870
  154OSM   H17F17233   4.610   1.304   3.895 -0.6631  0.0140  0.3639
  154OSM   H17G17234   4.617   1.123   3.891  0.1975  0.4746 -1.6067
  154OSM   C18F17235   4.518   1.194   4.057 -0.0890  0.7498  0.0020
  154OSM   H18F17236   4.451   1.106   4.065 -0.5762  1.1958  0.8880
  154OSM   H18G17237   4.459   1.281   4.092  1.1601  0.8137  2.1082
  154OSM   H18H17238   4.612   1.185   4.116 -1.4613 -1.1295  2.0537
  155OSM      N17239   1.976   0.932   2.614 -0.6023  0.8002 -0.0780
  155OSM    C1517240   2.029   0.793   2.659  0.1786 -0.3846 -0.5840
  155OSM   H15A17241   2.122   0.790   2.713  0.9953 -0.6824 -1.9618
  155OSM   H15B17242   2.050   0.740   2.567  0.6324  1.5043 -1.6428
  155OSM   H15C17243   1.954   0.737   2.713 -1.7437  0.8755 -1.7835
  155OSM    C1417244   1.847   0.909   2.549 -0.0187 -0.0949 -0.4606
  155OSM   H14A17245   1.860   0.820   2.489  2.1282 -1.2768  1.5886
  155OSM   H14B17246   1.814   0.998   2.496 -1.0188  0.0420  0.3651
  155OSM   H14C17247   1.769   0.884   2.619  1.0723 -0.4740  0.6507
  155OSM    C1317248   1.949   0.993   2.742 -0.4355 -0.1766 -0.3494
  155OSM   H13A17249   2.027   1.052   2.787 -0.3421 -0.4932 -0.0994
  155OSM   H13B17250   1.905   0.927   2.816  0.2509  0.2062  0.4134
  155OSM   H13C17251   1.877   1.073   2.730 -0.2358  0.1095  0.3106
  155OSM    C1217252   2.080   1.005   2.521 -0.3768 -0.0371 -0.5676
  155OSM   H12A17253   2.095   0.948   2.431  0.0978  0.0978 -0.5792
  155OSM   H12B17254   2.170   1.000   2.580 -2.5795 -1.0729  3.0472
  155OSM    C1117255   2.044   1.149   2.480 -0.7024 -0.9305 -0.4840
  155OSM   H11A17256   1.942   1.138   2.439 -0.5868  2.1718 -1.8751
  155OSM   H11B17257   2.106   1.178   2.392 -0.1801  0.2449  0.2449
  155OSM      P17258   2.187   1.285   2.653  0.1683 -0.0604 -0.2917
  155OSM    O1317259   2.244   1.175   2.723  0.1014  0.0387  0.2572
  155OSM    O1417260   2.250   1.367   2.545 -0.5932  0.6514  0.6180
  155OSM    O1117261   2.150   1.399   2.758 -0.0275  0.3882  0.2136
  155OSM    O1217262   2.049   1.241   2.592 -0.5902 -0.3317  0.4860
  155OSM    C1S17263   2.047   1.490   2.725 -0.3887 -0.0101  0.9541
  155OSM    H1S17264   1.963   1.441   2.670  3.2982 -1.2619 -4.2635
  155OSM    H1T17265   2.095   1.564   2.658  0.3889 -1.4578 -0.1626
  155OSM     NF17266   1.875   1.635   2.820  0.1275 -0.2548  0.4839
  155OSM    HNF17267   1.886   1.726   2.781 -0.6730 -1.5133 -3.1660
  155OSM    C2S17268   1.999   1.566   2.847  0.8548 -0.4871 -0.0585
  155OSM    H2S17269   1.976   1.495   2.929  0.1329 -0.5437 -0.3031
  155OSM    C3S17270   2.118   1.643   2.902 -0.4149 -0.4681  0.1273
  155OSM    H3S17271   2.153   1.716   2.826 -0.2009  0.6806  1.2856
  155OSM     O317272   2.238   1.569   2.924 -0.0872 -0.3647 -0.7104
  155OSM    HO317273   2.209   1.493   2.872 -0.5369 -0.8784  0.2506
  155OSM    C4S17274   2.079   1.727   3.027 -0.0824 -0.5652 -0.4838
  155OSM    H4S17275   2.027   1.820   3.002 -0.0898 -0.0824  1.2428
  155OSM    C5S17276   2.095   1.698   3.155  0.1158  0.4402 -0.6650
  155OSM    H5S17277   2.147   1.608   3.192 -0.6137 -0.0395 -0.7877
  155OSM    C6S17278   2.048   1.771   3.278 -0.5403 -0.7329  0.0767
  155OSM    H6S17279   1.968   1.715   3.333 -1.4899  0.6277  0.1324
  155OSM    H6T17280   1.992   1.863   3.251  0.8538 -0.0174 -0.4147
  155OSM    C7S17281   2.170   1.807   3.360  0.0550  0.5253  0.1734
  155OSM    H7S17282   2.233   1.876   3.300  2.2769 -0.5406  1.1661
  155OSM    H7T17283   2.233   1.720   3.389  2.1332  1.5341 -1.1247
  155OSM    C8S17284   2.133   1.884   3.490 -0.3555 -0.4063 -0.3244
  155OSM    H8S17285   2.064   1.829   3.559 -0.6138  0.5172  0.1770
  155OSM    H8T17286   2.070   1.966   3.449 -1.5530 -0.3012  1.5679
  155OSM    C9S17287   2.248   1.937   3.575 -0.4271 -0.8716  0.3139
  155OSM    H9S17288   2.312   2.014   3.527 -0.8451  0.0403  1.1672
  155OSM    H9T17289   2.313   1.857   3.616 -0.4683  0.2381  2.7595
  155OSM   C10S17290   2.195   2.010   3.699 -0.2879 -0.3219 -0.8947
  155OSM   H10S17291   2.087   1.987   3.707 -1.4079  4.3353  0.1964
  155OSM   H10T17292   2.195   2.119   3.675  1.2550  0.0056  0.4291
  155OSM   C11S17293   2.258   1.975   3.838 -0.2362  0.3825 -0.3862
  155OSM   H11S17294   2.363   2.011   3.835  0.9293 -2.7833 -0.7414
  155OSM   H11T17295   2.270   1.867   3.859 -0.3473  0.7145  1.6146
  155OSM   C12S17296   2.178   2.041   3.954 -0.0992  0.2035  0.3352
  155OSM   H12S17297   2.089   1.975   3.969  0.6110 -1.7183 -2.9580
  155OSM   H12T17298   2.149   2.140   3.914 -0.7428 -0.5075 -1.0290
  155OSM   C13S17299   2.266   2.060   4.072 -0.0420  0.4391  0.3516
  155OSM   H13S17300   2.348   2.121   4.028  0.3798  0.0949  0.6492
  155OSM   H13T17301   2.320   1.965   4.091 -1.0696 -0.2883 -0.2551
  155OSM   C14S17302   2.193   2.117   4.195 -0.2220  0.0817  0.1027
  155OSM   H14S17303   2.175   2.035   4.267 -1.0371  0.6444  0.5641
  155OSM   H14T17304   2.099   2.168   4.165 -1.2078 -0.9686  1.3122
  155OSM   C15S17305   2.271   2.225   4.263 -0.7104 -0.5026  0.4536
  155OSM   H15S17306   2.260   2.319   4.205 -0.9899 -0.2437  0.9228
  155OSM   H15T17307   2.379   2.196   4.266 -1.0166 -1.8500 -0.6021
  155OSM   C16S17308   2.220   2.257   4.403 -0.2057 -0.3863 -0.4466
  155OSM   H16S17309   2.259   2.182   4.475 -0.5079  0.1688  0.3139
  155OSM   H16T17310   2.110   2.242   4.395 -0.5982  2.0265 -0.4258
  155OSM   C17S17311   2.232   2.411   4.440  0.7407 -0.2403  0.3475
  155OSM   H17S17312   2.151   2.425   4.515  0.5208  1.3266 -0.1366
  155OSM   H17T17313   2.198   2.463   4.348 -0.2122  0.3798  1.0238
  155OSM   C18S17314   2.366   2.452   4.503 -0.1262 -0.1023  0.0534
  155OSM   H18S17315   2.381   2.379   4.586 -0.5291  0.6733  0.8234
  155OSM   H18T17316   2.358   2.552   4.551  2.5866  0.1343  0.1829
  155OSM   H18U17317   2.452   2.434   4.435 -0.0319  1.3656 -0.2509
  155OSM    C1F17318   1.763   1.565   2.817  0.0922  0.0779  0.5839
  155OSM     OF17319   1.757   1.446   2.833  0.6137 -0.1167 -0.3576
  155OSM    C2F17320   1.640   1.648   2.797  0.3809  0.9551  0.8916
  155OSM    H2F17321   1.627   1.667   2.689  2.7737  1.2083  0.5892
  155OSM    H2G17322   1.658   1.746   2.849 -1.2155  1.9036 -0.2695
  155OSM    C3F17323   1.512   1.582   2.865 -0.4705 -0.3778 -0.0998
  155OSM    H3F17324   1.537   1.527   2.958  1.0844 -1.0083 -0.8514
  155OSM    H3G17325   1.479   1.497   2.802 -0.4032  0.3314 -1.1162
  155OSM    C4F17326   1.405   1.686   2.900 -0.0236 -0.3328 -0.0443
  155OSM    H4F17327   1.392   1.760   2.819 -0.6781 -1.9829 -1.5107
  155OSM    H4G17328   1.440   1.749   2.984  1.7993 -0.1520 -0.8983
  155OSM    C5F17329   1.274   1.623   2.941  0.1536  0.6245  0.9000
  155OSM    H5F17330   1.278   1.540   2.866  0.2181  1.4531 -0.0335
  155OSM    H5G17331   1.182   1.682   2.920 -1.1925 -1.2312  1.2817
  155OSM    C6F17332   1.268   1.560   3.081 -0.2578 -0.3378 -0.0366
  155OSM    H6F17333   1.360   1.501   3.102  2.0190  3.1185  0.5289
  155OSM    H6G17334   1.178   1.495   3.078 -2.0232  1.9496  0.5054
  155OSM    C7F17335   1.241   1.661   3.191  0.0496  0.3129 -0.9093
  155OSM    H7F17336   1.163   1.621   3.259 -2.4748  3.6994 -1.5174
  155OSM    H7G17337   1.185   1.747   3.148 -2.1158 -0.8480 -0.5218
  155OSM    C8F17338   1.371   1.698   3.256  0.0289  0.3972  0.0956
  155OSM    H8F17339   1.436   1.733   3.173  1.3814 -1.2969  0.3981
  155OSM    H8G17340   1.418   1.609   3.301 -0.8773 -0.4960 -0.6580
  155OSM    C9F17341   1.336   1.804   3.356 -0.5011 -0.9616 -0.2393
  155OSM    H9F17342   1.358   1.902   3.312 -0.1228 -1.3174 -0.8550
  155OSM   C10F17343   1.282   1.791   3.477 -0.1878  0.1488  0.0994
  155OSM   H10F17344   1.249   1.873   3.541 -2.3033  1.0984 -2.0727
  155OSM   C11F17345   1.257   1.655   3.549 -0.7133  0.3199  0.5559
  155OSM   H11F17346   1.288   1.576   3.476  3.0401 -1.7935  4.0334
  155OSM   H11G17347   1.155   1.633   3.585 -0.2224  0.5942  2.1953
  155OSM   C12F17348   1.347   1.630   3.674 -0.0717  0.3311 -0.3753
  155OSM   H12F17349   1.444   1.678   3.648  0.4494 -0.5721 -0.1455
  155OSM   H12G17350   1.363   1.523   3.699  1.1527  0.3549 -0.9757
  155OSM   C13F17351   1.278   1.695   3.793  0.5924 -0.4076 -0.3392
  155OSM   H13F17352   1.187   1.632   3.803  0.3635 -0.2413 -1.2751
  155OSM   H13G17353   1.250   1.802   3.783  1.6194 -0.0060  0.8882
  155OSM   C14F17354   1.358   1.689   3.921 -0.6109  0.4252 -0.0230
  155OSM   H14F17355   1.452   1.745   3.900 -0.4491  0.7542  1.5105
  155OSM   H14G17356   1.392   1.585   3.936 -0.3422  0.6359  0.8632
  155OSM   C15F17357   1.303   1.750   4.048  0.3341 -0.4510 -0.5766
  155OSM   H15F17358   1.215   1.697   4.090 -0.8098  2.5906  1.2131
  155OSM   H15G17359   1.267   1.851   4.017  3.9846  0.4206 -2.6569
  155OSM   C16F17360   1.404   1.786   4.157  0.2305  0.1049 -0.3820
  155OSM   H16F17361   1.466   1.869   4.118 -1.4467  1.0838 -1.0105
  155OSM   H16G17362   1.488   1.713   4.161 -0.4702 -0.6717  0.8232
  155OSM   C17F17363   1.343   1.824   4.293  0.5734  0.6150  0.7366
  155OSM   H17F17364   1.264   1.901   4.284 -0.6667 -0.6541  0.3071
  155OSM   H17G17365   1.423   1.877   4.348 -0.4356 -0.3432  3.3105
  155OSM   C18F17366   1.278   1.703   4.356  0.0339 -0.3354  0.1360
  155OSM   H18F17367   1.347   1.617   4.370 -0.4810 -0.8837 -0.6271
  155OSM   H18G17368   1.190   1.660   4.305 -0.3497 -1.6222  1.7877
  155OSM   H18H17369   1.223   1.727   4.450 -0.4697  1.6339 -0.6057
  156OSM      N17370   1.687   1.674   1.963  0.4932  0.2228 -0.2600
  156OSM    C1517371   1.578   1.688   2.064  1.0249 -0.6838  0.0869
  156OSM   H15A17372   1.478   1.696   2.023  0.6385  0.2624  1.1915
  156OSM   H15B17373   1.601   1.758   2.142 -0.4609 -1.9757  1.7775
  156OSM   H15C17374   1.569   1.593   2.115 -0.1528  1.0200  3.3052
  156OSM    C1417375   1.665   1.544   1.888 -0.5836 -0.5828  0.5490
  156OSM   H14A17376   1.737   1.540   1.808 -1.4818  1.4834 -0.4266
  156OSM   H14B17377   1.569   1.536   1.840  0.4993  2.4686 -2.4882
  156OSM   H14C17378   1.676   1.468   1.964  2.4342 -1.1340 -0.2834
  156OSM    C1317379   1.689   1.796   1.877 -0.1739  0.5776 -0.5260
  156OSM   H13A17380   1.600   1.804   1.817  0.7553  0.8928 -1.9026
  156OSM   H13B17381   1.778   1.793   1.816  1.5578 -0.5996  1.8767
  156OSM   H13C17382   1.702   1.882   1.941  0.1393  0.2679 -0.1668
  156OSM    C1217383   1.817   1.654   2.041 -0.1382 -0.5344 -0.2972
  156OSM   H12A17384   1.902   1.642   1.975 -1.3754 -0.7761 -1.9144
  156OSM   H12B17385   1.811   1.553   2.080 -0.6172 -0.4871 -0.2424
  156OSM    C1117386   1.866   1.736   2.168 -0.2761 -0.3129 -0.1537
  156OSM   H11A17387   1.871   1.844   2.144 -3.0701 -0.0647  0.1292
  156OSM   H11B17388   1.967   1.698   2.196 -0.5131 -0.6923  0.2033
  156OSM      P17389   1.816   1.637   2.399 -0.2975 -0.3093  0.2066
  156OSM    O1317390   1.697   1.603   2.479  0.3834 -0.1217 -0.1209
  156OSM    O1417391   1.889   1.524   2.352 -0.3884  0.4339 -0.1200
  156OSM    O1117392   1.913   1.730   2.484 -0.1137  0.3223 -0.2021
  156OSM    O1217393   1.774   1.729   2.276  0.0003  0.6238  0.1545
  156OSM    C1S17394   1.860   1.855   2.527 -0.8240 -0.4901 -0.3296
  156OSM    H1S17395   1.786   1.843   2.610 -0.8455  0.1769 -0.2459
  156OSM    H1T17396   1.815   1.906   2.439  1.9061  0.0123 -1.5200
  156OSM     NF17397   1.919   2.069   2.653 -0.0159  0.2162 -0.5891
  156OSM    HNF17398   1.933   2.153   2.602  0.6208  1.1674  1.0636
  156OSM    C2S17399   1.970   1.944   2.588  0.2067 -0.5874  0.6275
  156OSM    H2S17400   2.030   1.887   2.662  1.6331 -0.5070 -0.4376
  156OSM    C3S17401   2.076   1.979   2.473  0.5225  1.1764 -0.0872
  156OSM    H3S17402   2.024   2.035   2.393 -0.9253  1.2076  0.8263
  156OSM     O317403   2.132   1.862   2.415 -0.1700 -0.3216 -0.3806
  156OSM    HO317404   2.088   1.783   2.449 -1.0913  0.0650 -0.6513
  156OSM    C4S17405   2.185   2.064   2.534  0.4523 -0.0559  0.1054
  156OSM    H4S17406   2.181   2.168   2.496 -0.6984  0.3771  1.3223
  156OSM    C5S17407   2.287   2.030   2.618  0.6367 -0.0525 -0.5288
  156OSM    H5S17408   2.312   1.928   2.651  1.9008 -0.2395 -1.9557
  156OSM    C6S17409   2.385   2.131   2.674 -0.2897  0.0359 -0.4721
  156OSM    H6S17410   2.486   2.094   2.649 -0.8189 -0.7613 -1.5225
  156OSM    H6T17411   2.393   2.120   2.784  0.3164  0.2007 -0.4960
  156OSM    C7S17412   2.380   2.270   2.622  0.2670  0.2429  0.2246
  156OSM    H7S17413   2.281   2.316   2.638 -0.2903 -1.3143  1.5530
  156OSM    H7T17414   2.397   2.262   2.512 -0.0572 -1.4620  0.2764
  156OSM    C8S17415   2.494   2.364   2.680  0.6696  0.1157 -0.3007
  156OSM    H8S17416   2.508   2.444   2.604  1.1108 -1.4163 -1.8961
  156OSM    H8T17417   2.586   2.304   2.693  0.9277  0.7299  0.8850
  156OSM    C9S17418   2.467   2.421   2.823 -0.7988 -0.3736  0.4791
  156OSM    H9S17419   2.415   2.343   2.882  0.6976 -0.0159  2.3875
  156OSM    H9T17420   2.398   2.509   2.826 -2.2102 -1.4519  0.5647
  156OSM   C10S17421   2.597   2.464   2.894 -0.6432  0.4044 -0.1203
  156OSM   H10S17422   2.663   2.519   2.823  0.6631 -1.4185 -0.3878
  156OSM   H10T17423   2.647   2.366   2.905 -0.4786  0.0266 -3.2790
  156OSM   C11S17424   2.585   2.543   3.026 -0.1643 -1.2346  0.7647
  156OSM   H11S17425   2.516   2.627   3.003 -1.1940 -2.2054  0.2039
  156OSM   H11T17426   2.687   2.577   3.055  0.0595 -0.7474 -0.5509
  156OSM   C12S17427   2.538   2.469   3.143  0.5030  0.2387 -0.6060
  156OSM   H12S17428   2.575   2.364   3.153 -0.4614 -0.0593 -0.0543
  156OSM   H12T17429   2.431   2.449   3.123  0.0958 -0.6972  2.0767
  156OSM   C13S17430   2.560   2.556   3.267  0.1607  0.0174 -0.5962
  156OSM   H13S17431   2.535   2.663   3.252  1.1740  0.4772  0.8308
  156OSM   H13T17432   2.666   2.536   3.292  0.0547  0.4490  0.2238
  156OSM   C14S17433   2.480   2.519   3.390 -0.3222 -0.4512  0.0163
  156OSM   H14S17434   2.479   2.410   3.414 -1.4999 -0.5700 -0.5113
  156OSM   H14T17435   2.378   2.561   3.375  0.0204  0.0909 -0.8646
  156OSM   C15S17436   2.536   2.593   3.511 -0.5637  0.2585 -0.4781
  156OSM   H15S17437   2.539   2.703   3.494  0.7236  0.8838  2.9812
  156OSM   H15T17438   2.638   2.562   3.542 -1.7112  0.5684  4.2836
  156OSM   C16S17439   2.449   2.580   3.633  0.3485  0.1680 -0.5487
  156OSM   H16S17440   2.341   2.577   3.604  0.2398  0.4171 -0.1834
  156OSM   H16T17441   2.455   2.664   3.706 -0.9814  1.1855 -1.5584
  156OSM   C17S17442   2.466   2.448   3.710 -0.4756  0.1561  0.3018
  156OSM   H17S17443   2.552   2.454   3.780  0.3800 -0.9992 -0.6141
  156OSM   H17T17444   2.483   2.367   3.637  1.8627  1.1806 -0.3788
  156OSM   C18S17445   2.347   2.420   3.803 -0.0442  0.6562 -0.0657
  156OSM   H18S17446   2.254   2.430   3.742  0.9308  2.8575 -1.2788
  156OSM   H18T17447   2.335   2.490   3.889  0.4606  1.2885 -0.5003
  156OSM   H18U17448   2.355   2.316   3.843 -0.0878  1.2643  1.5842
  156OSM    C1F17449   1.851   2.063   2.769  0.4263  0.1338 -0.8236
  156OSM     OF17450   1.835   1.950   2.816  0.0318 -0.1657 -0.4548
  156OSM    C2F17451   1.789   2.189   2.819  0.4637 -0.2794  0.1015
  156OSM    H2F17452   1.716   2.152   2.895  0.1077  2.0218  0.9769
  156OSM    H2G17453   1.730   2.241   2.740  0.5414  0.7537  0.6990
  156OSM    C3F17454   1.884   2.288   2.885  0.2211  0.0183  0.0076
  156OSM    H3F17455   1.824   2.373   2.925  0.7509  0.2269  0.3746
  156OSM    H3G17456   1.957   2.337   2.818 -1.3464  3.3524  0.5009
  156OSM    C4F17457   1.965   2.237   3.003  0.0568  0.2022  0.1356
  156OSM    H4F17458   2.031   2.152   2.975  1.7454  2.0980 -2.0770
  156OSM    H4G17459   1.887   2.190   3.066 -1.6424  1.8551 -0.6478
  156OSM    C5F17460   2.044   2.361   3.055  0.7559 -0.2687  0.6677
  156OSM    H5F17461   1.982   2.453   3.053 -0.0307 -0.8070 -0.1395
  156OSM    H5G17462   2.131   2.396   2.996 -0.9910  0.6717 -1.4863
  156OSM    C6F17463   2.049   2.342   3.207 -0.3682 -0.0783 -1.0469
  156OSM    H6F17464   2.114   2.253   3.226  0.1689  0.9004  2.3357
  156OSM    H6G17465   1.947   2.315   3.241 -0.6171  1.0381 -0.8738
  156OSM    C7F17466   2.101   2.456   3.292 -0.0007  0.1554 -0.6269
  156OSM    H7F17467   2.030   2.539   3.267  0.3524 -0.0956 -2.6381
  156OSM    H7G17468   2.203   2.475   3.254  0.8820  0.9411  1.9630
  156OSM    C8F17469   2.119   2.429   3.442 -0.1959 -0.0991 -0.1237
  156OSM    H8F17470   2.124   2.527   3.493 -3.9493 -0.6613  1.6618
  156OSM    H8G17471   2.214   2.372   3.450 -0.3340 -0.2017  0.8320
  156OSM    C9F17472   2.012   2.356   3.520 -0.0119  0.4948 -0.1293
  156OSM    H9F17473   2.009   2.247   3.503 -0.6223  0.4947 -0.0205
  156OSM   C10F17474   1.916   2.409   3.600  0.3562  0.4685 -0.5334
  156OSM   H10F17475   1.841   2.342   3.647  2.1586 -0.8693  0.5796
  156OSM   C11F17476   1.901   2.552   3.627 -0.2007  0.0579  0.4310
  156OSM   H11F17477   1.803   2.587   3.666  0.1679 -0.3926  1.8325
  156OSM   H11G17478   1.929   2.606   3.534 -0.0093 -0.9751 -0.1212
  156OSM   C12F17479   1.990   2.604   3.737 -0.7888  0.3148 -0.7062
  156OSM   H12F17480   1.965   2.710   3.756  0.2673  0.5848 -0.7987
  156OSM   H12G17481   2.098   2.591   3.715  0.0432  0.2022  2.8229
  156OSM   C13F17482   1.976   2.516   3.864  0.5340  0.8870 -0.3928
  156OSM   H13F17483   2.015   2.412   3.873 -1.9725  0.0205  2.5688
  156OSM   H13G17484   1.866   2.500   3.865  0.6932 -0.5213 -1.7902
  156OSM   C14F17485   2.024   2.583   3.999 -0.3290  0.2982  0.2213
  156OSM   H14F17486   1.971   2.677   4.026  0.0054  0.6373 -0.2839
  156OSM   H14G17487   2.133   2.605   3.994  0.1287 -1.8695 -0.1244
  156OSM   C15F17488   1.999   2.496   4.121 -0.0969  0.4911  0.2535
  156OSM   H15F17489   2.029   2.563   4.204  0.1137 -0.6152  1.0913
  156OSM   H15G17490   2.062   2.404   4.121  0.4488  0.8543  1.1911
  156OSM   C16F17491   1.855   2.452   4.139 -1.2607 -0.8548  0.0839
  156OSM   H16F17492   1.841   2.356   4.084 -1.2829 -0.3891 -0.7365
  156OSM   H16G17493   1.782   2.516   4.084 -2.0933 -1.1782  0.7919
  156OSM   C17F17494   1.836   2.446   4.288  0.5199 -0.6815 -0.5547
  156OSM   H17F17495   1.874   2.536   4.342 -0.0241 -0.6137 -0.2751
  156OSM   H17G17496   1.875   2.353   4.335  0.1256 -1.0158 -0.8831
  156OSM   C18F17497   1.682   2.449   4.304 -0.4603  0.3230 -0.4359
  156OSM   H18F17498   1.651   2.543   4.253  0.5663  1.5914  1.1901
  156OSM   H18G17499   1.645   2.463   4.408  1.6544  1.8567  0.1800
  156OSM   H18H17500   1.629   2.366   4.254  2.7160 -2.0669 -0.1229
  157OSM      N17501   2.675   4.901   2.116 -0.3010 -0.0846  0.4434
  157OSM    C1517502   2.730   4.898   2.255  0.1801  0.4525  1.0424
  157OSM   H15A17503   2.771   4.991   2.293 -0.4509  0.3416  2.0421
  157OSM   H15B17504   2.799   4.816   2.260  1.1337  1.1230 -0.5624
  157OSM   H15C17505   2.653   4.877   2.329 -0.3637  4.8192  2.0442
  157OSM    C1417506   2.559   4.998   2.108  0.4864  0.3585  0.5088
  157OSM   H14A17507   2.475   4.962   2.164  0.0411 -0.2297 -0.5156
  157OSM   H14B17508   2.514   5.003   2.010  0.7335  1.2490  0.4318
  157OSM   H14C17509   2.585   5.099   2.135 -0.1764  0.0676  2.3442
  157OSM    C1317510   2.779   4.942   2.006  0.1835 -0.3163  0.2961
  157OSM   H13A17511   2.727   4.926   1.913 -0.7838 -3.0218  1.1968
  157OSM   H13B17512   2.867   4.879   2.007  0.9643  0.4549 -3.6075
  157OSM   H13C17513   2.806   5.046   2.015  0.3934 -0.1809 -1.5344
  157OSM    C1217514   2.622   4.759   2.076 -0.2571 -0.4234 -0.1635
  157OSM   H12A17515   2.703   4.695   2.044 -1.1090 -1.8936  0.5361
  157OSM   H12B17516   2.570   4.774   1.982 -1.2823 -0.2704  0.4196
  157OSM    C1117517   2.533   4.675   2.165 -0.1396  0.0258  0.0629
  157OSM   H11A17518   2.481   4.599   2.103 -0.5639 -0.4924  1.0515
  157OSM   H11B17519   2.458   4.745   2.206  1.1523  1.0315  0.8056
  157OSM      P17520   2.720   4.513   2.244 -0.2353 -0.5614  0.3079
  157OSM    O1317521   2.654   4.389   2.289  0.6585  0.2306  0.3593
  157OSM    O1417522   2.764   4.518   2.105 -0.7593 -0.7134  0.1517
  157OSM    O1117523   2.842   4.551   2.331 -0.0471 -0.0585  0.2863
  157OSM    O1217524   2.613   4.627   2.276  0.4944  0.0059 -0.1567
  157OSM    C1S17525   2.824   4.576   2.473  0.4024 -0.5769  0.4744
  157OSM    H1S17526   2.776   4.490   2.524  0.1801 -1.5359 -1.2969
  157OSM    H1T17527   2.755   4.663   2.479  2.8875  1.7565 -2.0680
  157OSM     NF17528   2.934   4.606   2.691 -0.2618  0.0636  0.4266
  157OSM    HNF17529   2.897   4.683   2.743 -1.5244 -0.6220  0.5901
  157OSM    C2S17530   2.949   4.622   2.544  0.0105 -0.6838 -0.3561
  157OSM    H2S17531   3.029   4.552   2.512 -0.7808 -0.8701 -2.0022
  157OSM    C3S17532   2.987   4.764   2.496  0.1244  0.5395  0.2706
  157OSM    H3S17533   2.891   4.817   2.508  0.2870  0.8193  0.3544
  157OSM     O317534   3.014   4.782   2.354 -0.4511  0.0551 -0.0893
  157OSM    HO317535   2.986   4.693   2.331 -1.0396  0.0651  0.5486
  157OSM    C4S17536   3.091   4.824   2.587  0.0512  0.0745 -0.8490
  157OSM    H4S17537   3.054   4.907   2.649  2.8830 -0.8482  2.4040
  157OSM    C5S17538   3.220   4.815   2.580 -0.5337  0.1932  0.7387
  157OSM    H5S17539   3.262   4.758   2.496 -0.1257  2.0423 -0.3704
  157OSM    C6S17540   3.318   4.893   2.662  0.6880 -0.3497 -0.7579
  157OSM    H6S17541   3.348   4.981   2.602  0.0290  0.6968  0.4058
  157OSM    H6T17542   3.413   4.836   2.675  0.0986 -1.2695 -0.3436
  157OSM    C7S17543   3.294   4.945   2.808  0.8741 -0.7525  0.4593
  157OSM    H7S17544   3.216   5.023   2.792 -1.6531 -3.1773  0.1081
  157OSM    H7T17545   3.386   4.995   2.844 -0.2398  1.8935 -0.1969
  157OSM    C8S17546   3.243   4.841   2.899 -0.0870  0.1936 -0.2083
  157OSM    H8S17547   3.318   4.761   2.921  0.3046  1.0784  1.9239
  157OSM    H8T17548   3.156   4.790   2.852 -0.3274 -0.5219  0.9710
  157OSM    C9S17549   3.191   4.892   3.031  0.3675 -0.2195  0.4873
  157OSM    H9S17550   3.139   4.812   3.088  0.6671 -0.5737  0.2731
  157OSM    H9T17551   3.108   4.962   3.010  0.7098  0.2422  0.6650
  157OSM   C10S17552   3.295   4.962   3.122  0.4952  0.3616  0.1174
  157OSM   H10S17553   3.256   4.983   3.224  2.0548 -0.3610  0.8957
  157OSM   H10T17554   3.335   5.050   3.067 -0.2850 -0.3947 -1.7392
  157OSM   C11S17555   3.403   4.861   3.149 -0.0799  0.1879 -0.3794
  157OSM   H11S17556   3.471   4.853   3.061 -1.1069 -2.0442 -1.0465
  157OSM   H11T17557   3.365   4.759   3.171 -1.1963  0.4952 -0.8237
  157OSM   C12S17558   3.491   4.887   3.274 -0.3439 -0.1394 -0.2641
  157OSM   H12S17559   3.542   4.986   3.270  1.4240 -0.9596  0.9288
  157OSM   H12T17560   3.570   4.809   3.278  1.9341  2.0543  0.9090
  157OSM   C13S17561   3.419   4.870   3.413  0.0724  0.2747 -0.5568
  157OSM   H13S17562   3.428   4.763   3.440 -0.2829  0.3673 -0.0525
  157OSM   H13T17563   3.310   4.887   3.403 -0.3185  1.1622  3.4311
  157OSM   C14S17564   3.461   4.963   3.524 -0.0516  0.5164  0.7018
  157OSM   H14S17565   3.425   5.067   3.511 -0.5656  0.5779  2.3902
  157OSM   H14T17566   3.572   4.961   3.537 -0.2010 -0.5757  2.0209
  157OSM   C15S17567   3.393   4.933   3.666 -0.1517  0.4816 -0.2064
  157OSM   H15S17568   3.433   4.837   3.705 -1.8744 -0.1734  0.0555
  157OSM   H15T17569   3.283   4.922   3.649  0.1609 -0.1609 -2.0153
  157OSM   C16S17570   3.413   5.046   3.764  0.2622  0.2702 -0.4771
  157OSM   H16S17571   3.394   5.138   3.704  0.9477  1.0823  0.5142
  157OSM   H16T17572   3.520   5.047   3.794  0.5461  1.4204 -1.4406
  157OSM   C17S17573   3.328   5.032   3.886 -0.0448  0.1523  0.0577
  157OSM   H17S17574   3.227   4.993   3.864  0.8773 -0.6757 -3.3389
  157OSM   H17T17575   3.317   5.139   3.916 -0.4473 -0.1191  0.8888
  157OSM   C18S17576   3.397   4.957   4.002 -0.2972  0.2650  0.1858
  157OSM   H18S17577   3.440   4.860   3.971 -1.7297 -0.4956  0.4772
  157OSM   H18T17578   3.339   4.945   4.096  0.3182  1.5279  0.7535
  157OSM   H18U17579   3.479   5.022   4.038  0.1110  1.0484 -1.9805
  157OSM    C1F17580   2.958   4.486   2.742 -0.0440 -0.5918  0.5931
  157OSM     OF17581   3.004   4.398   2.668 -0.1651 -0.3227  0.2224
  157OSM    C2F17582   2.929   4.454   2.883 -0.1389 -0.1723  0.1605
  157OSM    H2F17583   3.028   4.425   2.925  0.9904  0.8693 -1.6645
  157OSM    H2G17584   2.866   4.363   2.880 -0.8184  0.2836  0.4326
  157OSM    C3F17585   2.873   4.571   2.971  0.0217 -0.5025  0.3210
  157OSM    H3F17586   2.792   4.628   2.919  0.7736  0.5034  0.2344
  157OSM    H3G17587   2.946   4.654   2.983 -1.8344  1.4132 -0.9154
  157OSM    C4F17588   2.848   4.524   3.116 -0.1126  0.2799  0.3104
  157OSM    H4F17589   2.795   4.427   3.109  2.3540 -1.0765 -1.3705
  157OSM    H4G17590   2.783   4.601   3.163 -1.9759  0.5999 -2.5416
  157OSM    C5F17591   2.980   4.504   3.191  0.5540  0.6872 -0.0050
  157OSM    H5F17592   3.057   4.570   3.146  0.4724  0.1764 -0.9146
  157OSM    H5G17593   3.014   4.398   3.192  0.2091  0.5105  3.0747
  157OSM    C6F17594   2.972   4.530   3.344 -0.3689 -0.2617  0.2244
  157OSM    H6F17595   2.893   4.476   3.401 -0.9632  2.3605  2.1111
  157OSM    H6G17596   2.947   4.638   3.352  0.8742  0.0088  0.5966
  157OSM    C7F17597   3.108   4.522   3.418 -0.3706  0.3595  0.2207
  157OSM    H7F17598   3.169   4.600   3.368  4.2183 -1.9514  1.6623
  157OSM    H7G17599   3.160   4.428   3.388 -2.1410 -1.4911  2.5687
  157OSM    C8F17600   3.093   4.535   3.571  0.3274 -0.4949 -0.1371
  157OSM    H8F17601   3.025   4.456   3.610 -2.1851  0.2158 -2.7093
  157OSM    H8G17602   3.042   4.632   3.585 -0.1685 -0.9374  1.3186
  157OSM    C9F17603   3.230   4.538   3.632 -0.0495  0.1215  0.0866
  157OSM    H9F17604   3.317   4.540   3.565 -1.2180 -0.3559 -1.5054
  157OSM   C10F17605   3.252   4.527   3.759  0.4584 -0.4344 -0.7523
  157OSM   H10F17606   3.354   4.540   3.798  0.2831 -0.4752 -0.2656
  157OSM   C11F17607   3.151   4.518   3.874  0.1602  0.6538  0.2323
  157OSM   H11F17608   3.198   4.460   3.957 -1.2380  0.3616  0.8644
  157OSM   H11G17609   3.070   4.449   3.843  0.5295  0.2111  0.2361
  157OSM   C12F17610   3.078   4.638   3.936  0.0361 -0.2601 -0.4646
  157OSM   H12F17611   3.152   4.696   3.995 -1.0329  0.2962  0.3570
  157OSM   H12G17612   2.999   4.595   4.001  0.9207 -1.4911 -0.1474
  157OSM   C13F17613   3.016   4.737   3.832 -0.4000  0.2775 -0.5870
  157OSM   H13F17614   2.953   4.675   3.765  1.8968 -2.9223 -0.0672
  157OSM   H13G17615   3.096   4.786   3.774 -2.0681  1.2728 -2.1532
  157OSM   C14F17616   2.939   4.856   3.892  0.0522  0.8679  1.0613
  157OSM   H14F17617   3.007   4.913   3.959  0.9921  0.7085  0.2673
  157OSM   H14G17618   2.870   4.805   3.963  1.0686 -0.9246  0.8266
  157OSM   C15F17619   2.864   4.940   3.783  0.1440  0.1924 -0.4643
  157OSM   H15F17620   2.874   4.877   3.692 -0.7015 -3.2296  1.6015
  157OSM   H15G17621   2.911   5.040   3.791 -0.5913  0.4280  1.7548
  157OSM   C16F17622   2.716   4.945   3.814 -0.3752 -1.2424  0.0834
  157OSM   H16F17623   2.711   5.006   3.907 -1.8418 -1.4182  0.1404
  157OSM   H16G17624   2.677   4.842   3.828 -1.9321 -0.5060  1.5771
  157OSM   C17F17625   2.629   5.023   3.708  0.1227 -0.8349  0.1149
  157OSM   H17F17626   2.624   4.958   3.618  0.0262 -0.5946 -0.0532
  157OSM   H17G17627   2.680   5.114   3.671 -1.9347 -0.4120 -1.9062
  157OSM   C18F17628   2.495   5.058   3.756 -0.7590  0.1835  0.6605
  157OSM   H18F17629   2.493   5.114   3.852 -2.9050 -2.2192  2.1361
  157OSM   H18G17630   2.436   4.969   3.785 -0.2731 -0.3813 -0.0475
  157OSM   H18H17631   2.433   5.120   3.687 -0.7437 -1.3884 -0.8434
  158OSM      N17632   6.571   0.388   1.641  0.0958  0.5190  0.5102
  158OSM    C1517633   6.665   0.453   1.545  0.3891 -0.7356  0.2772
  158OSM   H15A17634   6.630   0.432   1.445  1.3635 -0.3004 -0.1747
  158OSM   H15B17635   6.767   0.418   1.555  0.3759 -0.6649  0.6506
  158OSM   H15C17636   6.663   0.560   1.563 -2.3047 -0.8073  0.7794
  158OSM    C1417637   6.434   0.455   1.635  0.1142  0.0369  0.0268
  158OSM   H14A17638   6.453   0.555   1.671  0.9750  0.5129 -1.6518
  158OSM   H14B17639   6.370   0.407   1.708  0.7548 -0.6292  0.1577
  158OSM   H14C17640   6.392   0.455   1.536  1.5105  2.0501 -0.6310
  158OSM    C1317641   6.563   0.244   1.601 -0.5898 -0.5552 -0.5672
  158OSM   H13A17642   6.658   0.195   1.585 -1.1514 -0.9254 -3.0925
  158OSM   H13B17643   6.498   0.226   1.517  1.1980 -0.6944 -1.9666
  158OSM   H13C17644   6.511   0.188   1.677 -1.4130 -0.4969 -1.0750
  158OSM    C1217645   6.628   0.399   1.779 -0.4127 -0.8476 -0.8869
  158OSM   H12A17646   6.594   0.495   1.816  1.5111 -1.4709  3.0649
  158OSM   H12B17647   6.735   0.415   1.771 -0.1544  0.9496  3.2220
  158OSM    C1117648   6.588   0.297   1.887  0.0866 -0.0292  0.0848
  158OSM   H11A17649   6.631   0.331   1.984  0.3548 -0.4799  0.1309
  158OSM   H11B17650   6.634   0.198   1.864  0.7689  0.0963  0.8285
  158OSM      P17651   6.362   0.170   1.936 -0.0233 -0.0491 -0.1055
  158OSM    O1317652   6.221   0.208   1.931  0.0539 -0.7884 -0.1007
  158OSM    O1417653   6.409   0.056   1.851  0.3260 -0.3791  0.3239
  158OSM    O1117654   6.398   0.150   2.083  0.4701  0.3124  0.0562
  158OSM    O1217655   6.445   0.290   1.891 -0.5703 -0.6240  0.2951
  158OSM    C1S17656   6.383   0.252   2.177  0.1830 -0.1549 -0.0823
  158OSM    H1S17657   6.286   0.305   2.162 -0.1723 -0.6416  0.4510
  158OSM    H1T17658   6.476   0.312   2.168  0.4494 -0.7193 -1.3768
  158OSM     NF17659   6.322   0.303   2.412 -0.4873  0.8523 -0.5358
  158OSM    HNF17660   6.400   0.360   2.437  0.3557 -0.9300  1.1390
  158OSM    C2S17661   6.375   0.198   2.325 -0.0310  0.2091 -0.2085
  158OSM    H2S17662   6.299   0.116   2.328  0.2692 -0.0540  0.8795
  158OSM    C3S17663   6.510   0.132   2.370  0.7687  0.0778  0.4084
  158OSM    H3S17664   6.581   0.217   2.381  1.1326 -0.3398  1.4072
  158OSM     O317665   6.571   0.058   2.263 -0.2130  0.2964  0.2049
  158OSM    HO317666   6.520   0.077   2.184 -0.2673  0.4681  0.2807
  158OSM    C4S17667   6.512   0.070   2.510  0.1321 -0.5580  0.0035
  158OSM    H4S17668   6.578   0.125   2.578 -0.3404  1.3036 -1.0023
  158OSM    C5S17669   6.481  -0.050   2.553  0.2053 -0.2440  0.1539
  158OSM    H5S17670   6.453  -0.123   2.475  0.9511  0.8416 -1.1855
  158OSM    C6S17671   6.500  -0.110   2.690 -0.6319  0.5584 -0.3373
  158OSM    H6S17672   6.582  -0.184   2.693 -2.2596 -1.3086  0.2338
  158OSM    H6T17673   6.415  -0.174   2.721  0.0493 -0.0816  0.2373
  158OSM    C7S17674   6.533  -0.013   2.802  0.4825 -0.1960 -0.6008
  158OSM    H7S17675   6.447   0.057   2.798  0.0213 -0.5101  1.9082
  158OSM    H7T17676   6.630   0.042   2.794 -0.4154  1.1111 -3.4023
  158OSM    C8S17677   6.527  -0.069   2.947  0.2623  0.4425 -0.3810
  158OSM    H8S17678   6.621  -0.127   2.962  0.5494  0.4215 -2.0394
  158OSM    H8T17679   6.450  -0.147   2.965  0.1762  0.6090 -0.0288
  158OSM    C9S17680   6.530   0.041   3.047  0.4809 -0.5974 -0.8752
  158OSM    H9S17681   6.494   0.138   3.008  1.6504  0.2676  0.0850
  158OSM    H9T17682   6.627   0.076   3.089  0.0478  0.2272 -0.5440
  158OSM   C10S17683   6.452  -0.008   3.170  0.6572 -0.1522 -0.5369
  158OSM   H10S17684   6.510  -0.090   3.217  1.6539 -0.2049 -1.8299
  158OSM   H10T17685   6.352  -0.043   3.136  0.0853  1.3025 -0.4411
  158OSM   C11S17686   6.439   0.096   3.279 -0.6585  0.0043 -0.2159
  158OSM   H11S17687   6.377   0.177   3.235 -0.2842 -1.1307 -3.0329
  158OSM   H11T17688   6.542   0.135   3.296 -0.8030 -0.3604  1.6785
  158OSM   C12S17689   6.389   0.056   3.413  0.8667 -0.1602 -0.5243
  158OSM   H12S17690   6.421   0.123   3.495 -0.6916  1.7026 -1.3719
  158OSM   H12T17691   6.423  -0.050   3.422 -3.1354 -1.7046 -1.1642
  158OSM   C13S17692   6.241   0.048   3.413 -0.0500  0.4388  0.2418
  158OSM   H13S17693   6.197  -0.015   3.333 -0.4483  1.0248 -0.0059
  158OSM   H13T17694   6.193   0.148   3.405 -3.0571 -0.9225 -0.3008
  158OSM   C14S17695   6.185  -0.007   3.543 -0.2727 -0.0872  0.8731
  158OSM   H14S17696   6.231  -0.105   3.569 -0.6944 -1.1223 -1.9924
  158OSM   H14T17697   6.081  -0.037   3.521  0.1681 -1.5840  0.6643
  158OSM   C15S17698   6.167   0.084   3.660  0.5143  0.3683  0.3210
  158OSM   H15S17699   6.263   0.130   3.692  0.1151  1.7895 -0.4334
  158OSM   H15T17700   6.140   0.016   3.744  0.3845 -2.6138 -1.9741
  158OSM   C16S17701   6.059   0.185   3.646 -0.0600  0.1288 -0.9644
  158OSM   H16S17702   5.971   0.128   3.612  0.8970 -2.4609  0.6002
  158OSM   H16T17703   6.080   0.258   3.565 -0.8231 -2.0378 -3.2538
  158OSM   C17S17704   6.015   0.238   3.782  0.2683 -0.2900  0.3040
  158OSM   H17S17705   5.977   0.155   3.845 -1.7553  0.3027 -0.0715
  158OSM   H17T17706   5.930   0.308   3.771  0.2931 -0.3170 -0.0722
  158OSM   C18S17707   6.118   0.310   3.857 -0.0498  0.3129 -0.8835
  158OSM   H18S17708   6.075   0.376   3.935 -1.2095 -1.0627 -0.3223
  158OSM   H18T17709   6.172   0.376   3.785  0.0793 -1.0296 -2.0843
  158OSM   H18U17710   6.185   0.236   3.906 -2.1559 -0.9810  0.1931
  158OSM    C1F17711   6.199   0.327   2.433  0.1553 -0.1375 -0.6129
  158OSM     OF17712   6.113   0.247   2.395  0.5512 -0.0089 -0.6208
  158OSM    C2F17713   6.155   0.454   2.513  0.1790  0.3212  0.2535
  158OSM    H2F17714   6.104   0.530   2.449  0.4136 -0.0556 -0.3939
  158OSM    H2G17715   6.243   0.503   2.560  0.8953 -0.7327  0.0525
  158OSM    C3F17716   6.049   0.432   2.617  0.9194 -0.6414  0.3808
  158OSM    H3F17717   5.979   0.373   2.555  2.0062 -1.0292 -0.5171
  158OSM    H3G17718   6.007   0.527   2.657 -0.6453 -1.9455  1.9848
  158OSM    C4F17719   6.092   0.344   2.730  0.4192  0.4062  0.0774
  158OSM    H4F17720   6.127   0.245   2.693  0.7915  0.9375 -1.0174
  158OSM    H4G17721   6.013   0.327   2.806 -1.3374 -1.8718 -2.0787
  158OSM    C5F17722   6.222   0.388   2.800  0.0478 -0.5904 -0.0871
  158OSM    H5F17723   6.211   0.495   2.828 -1.8015 -0.8238  0.1834
  158OSM    H5G17724   6.306   0.389   2.727  0.2418  2.0766  0.0681
  158OSM    C6F17725   6.266   0.308   2.931 -0.3934 -0.7027  1.4906
  158OSM    H6F17726   6.376   0.316   2.945  0.1264 -3.4116 -0.2810
  158OSM    H6G17727   6.250   0.202   2.902  0.5990 -0.4876  0.0234
  158OSM    C7F17728   6.189   0.343   3.061 -0.2141 -0.1684  0.1519
  158OSM    H7F17729   6.233   0.275   3.138  1.6937  2.2179  1.2984
  158OSM    H7G17730   6.082   0.321   3.041  0.4068 -2.2266 -1.1881
  158OSM    C8F17731   6.195   0.489   3.102  0.2805  0.3351  0.5755
  158OSM    H8F17732   6.141   0.546   3.024 -0.4116  0.7201  1.3299
  158OSM    H8G17733   6.299   0.529   3.096  1.1626 -1.5680  1.9143
  158OSM    C9F17734   6.148   0.518   3.241  0.0297 -0.6491  0.3694
  158OSM    H9F17735   6.048   0.475   3.255 -0.0407 -0.0918  1.6539
  158OSM   C10F17736   6.190   0.598   3.339 -0.5386 -0.5098 -0.0934
  158OSM   H10F17737   6.127   0.610   3.428 -1.8939  0.3461 -1.1284
  158OSM   C11F17738   6.316   0.674   3.350 -0.0455  0.3692 -0.2873
  158OSM   H11F17739   6.299   0.782   3.328 -0.5853  0.3938  0.2365
  158OSM   H11G17740   6.390   0.647   3.272 -2.9427 -3.1078 -2.1252
  158OSM   C12F17741   6.375   0.679   3.494  0.8544  0.4960 -0.0378
  158OSM   H12F17742   6.402   0.578   3.533 -2.6585 -0.7941 -0.6506
  158OSM   H12G17743   6.294   0.717   3.559 -0.5784 -1.4169 -0.6107
  158OSM   C13F17744   6.499   0.772   3.508 -0.3337 -0.1350 -0.7812
  158OSM   H13F17745   6.462   0.875   3.489 -1.1081 -0.6730 -2.3035
  158OSM   H13G17746   6.575   0.753   3.430  1.2839  0.1737  0.6457
  158OSM   C14F17747   6.559   0.781   3.652 -0.6141  0.6497  0.3778
  158OSM   H14F17748   6.634   0.863   3.661  0.3445 -0.1399 -0.1216
  158OSM   H14G17749   6.608   0.686   3.684 -0.5275 -0.4094 -2.5863
  158OSM   C15F17750   6.456   0.816   3.757 -0.3272  0.6028 -0.0876
  158OSM   H15F17751   6.363   0.755   3.746  0.5390 -0.3266 -3.0954
  158OSM   H15G17752   6.415   0.917   3.735 -1.2419 -0.0021 -1.2865
  158OSM   C16F17753   6.506   0.816   3.903 -0.0846  0.8030 -0.1076
  158OSM   H16F17754   6.607   0.861   3.911  1.0807 -1.8071  1.3571
  158OSM   H16G17755   6.507   0.709   3.933  0.3377  0.6786 -0.5450
  158OSM   C17F17756   6.399   0.867   3.992 -0.5750 -0.5140 -0.1384
  158OSM   H17F17757   6.305   0.811   3.971 -0.9727  0.2967 -0.5699
  158OSM   H17G17758   6.381   0.972   3.962  1.8586 -0.5805 -2.2023
  158OSM   C18F17759   6.412   0.847   4.139  0.0085  0.8442 -0.0142
  158OSM   H18F17760   6.491   0.913   4.183 -0.4769  0.9658  0.7083
  158OSM   H18G17761   6.428   0.739   4.157  1.5983  1.3300  1.8625
  158OSM   H18H17762   6.313   0.864   4.187 -0.2918 -1.8740  0.4845
  159OSM      N17763   2.263   2.015   2.071  0.6207  0.6195 -0.2627
  159OSM    C1517764   2.181   1.902   2.012  0.6060 -0.9003  0.7219
  159OSM   H15A17765   2.238   1.843   1.942 -0.3699 -2.1605  0.9490
  159OSM   H15B17766   2.107   1.944   1.945  3.6473  0.6816 -1.9829
  159OSM   H15C17767   2.140   1.840   2.090  2.6265  0.4861  3.0025
  159OSM    C1417768   2.316   2.095   1.959  0.0681 -0.1413  0.1859
  159OSM   H14A17769   2.250   2.121   1.878 -2.5465  0.9646  2.5146
  159OSM   H14B17770   2.403   2.051   1.913  0.3335 -1.8046  2.1286
  159OSM   H14C17771   2.357   2.184   2.003  1.4021  0.7934 -2.6935
  159OSM    C1317772   2.179   2.098   2.160  0.7423  0.3796  0.4202
  159OSM   H13A17773   2.114   2.033   2.217 -0.6142 -1.6526 -3.1309
  159OSM   H13B17774   2.110   2.152   2.097  1.2464 -0.1700 -0.6236
  159OSM   H13C17775   2.238   2.169   2.216  0.6485  0.2575  0.6776
  159OSM    C1217776   2.387   1.961   2.154  0.0612  0.2538  0.1645
  159OSM   H12A17777   2.465   1.935   2.084 -0.1157 -1.7986  0.6647
  159OSM   H12B17778   2.368   1.868   2.205 -0.9421 -1.6967 -3.4842
  159OSM    C1117779   2.464   2.056   2.248  0.4911  0.3890  0.8044
  159OSM   H11A17780   2.545   2.005   2.304  1.4226  1.9449  0.9540
  159OSM   H11B17781   2.393   2.103   2.320 -1.0473  1.4372 -1.2730
  159OSM      P17782   2.652   2.112   2.077 -0.1452  0.1834  0.2339
  159OSM    O1317783   2.668   1.971   2.096  0.4403 -0.2064  0.4869
  159OSM    O1417784   2.640   2.165   1.943 -0.5208  0.3079 -0.4453
  159OSM    O1117785   2.770   2.183   2.147 -0.4318  0.3141 -1.0920
  159OSM    O1217786   2.526   2.158   2.162  0.2132 -0.6566 -0.6966
  159OSM    C1S17787   2.762   2.321   2.184  0.2666 -0.1583  0.1449
  159OSM    H1S17788   2.669   2.375   2.157  0.8187  1.1176  0.6844
  159OSM    H1T17789   2.845   2.370   2.130  0.7588 -1.6712 -0.5060
  159OSM     NF17790   2.756   2.493   2.366 -0.1833  0.0470  0.1048
  159OSM    HNF17791   2.833   2.551   2.390 -0.5812  2.2649 -3.1998
  159OSM    C2S17792   2.770   2.353   2.336 -0.3399 -0.0975  0.3992
  159OSM    H2S17793   2.689   2.300   2.391  1.9070 -3.1542  1.0651
  159OSM    C3S17794   2.896   2.278   2.399  0.2817  0.3675  0.4935
  159OSM    H3S17795   2.981   2.320   2.340 -0.6013  1.6981  0.1331
  159OSM     O317796   2.905   2.139   2.392  0.2526 -0.3631  0.2752
  159OSM    HO317797   2.852   2.119   2.314 -0.1433  0.5134  0.3059
  159OSM    C4S17798   2.912   2.317   2.542 -0.6478  0.2848  0.9939
  159OSM    H4S17799   2.825   2.305   2.608 -0.8174 -0.6433  0.6175
  159OSM    C5S17800   3.025   2.373   2.587 -0.1617 -0.3098 -0.6006
  159OSM    H5S17801   3.109   2.372   2.516  0.2922 -0.1415 -0.0628
  159OSM    C6S17802   3.047   2.415   2.733  0.3490 -0.0305  0.9203
  159OSM    H6S17803   3.030   2.524   2.744  0.5367  0.3276 -1.6543
  159OSM    H6T17804   3.157   2.407   2.749  0.1807 -0.5305  1.9233
  159OSM    C7S17805   2.981   2.339   2.842  0.1500  0.2100  0.4778
  159OSM    H7S17806   3.026   2.237   2.839 -0.6859 -0.1478  0.0254
  159OSM    H7T17807   2.870   2.338   2.838  0.0266 -2.7238  1.6991
  159OSM    C8S17808   3.010   2.389   2.982  0.5978 -0.3946 -0.7126
  159OSM    H8S17809   2.976   2.495   2.977  0.0110 -0.5658 -0.5257
  159OSM    H8T17810   3.117   2.380   3.009  0.7474  0.2165 -1.0915
  159OSM    C9S17811   2.915   2.332   3.096 -0.7662 -0.2251  0.6668
  159OSM    H9S17812   2.947   2.226   3.108  1.5005 -0.0005 -2.1782
  159OSM    H9T17813   2.806   2.341   3.076 -0.6845  1.3609  0.8258
  159OSM   C10S17814   2.932   2.411   3.231 -0.8097 -0.0591  0.0769
  159OSM   H10S17815   2.869   2.502   3.224 -0.8353  0.0077  1.1255
  159OSM   H10T17816   3.042   2.426   3.240 -0.5724 -0.3085 -1.9338
  159OSM   C11S17817   2.881   2.334   3.348 -0.3138 -0.2549  0.9378
  159OSM   H11S17818   2.917   2.229   3.334 -0.1941 -0.0154 -0.7124
  159OSM   H11T17819   2.770   2.326   3.346 -0.3686  0.5706 -0.6975
  159OSM   C12S17820   2.921   2.387   3.486  0.3640 -0.5751  0.4685
  159OSM   H12S17821   2.876   2.488   3.498  0.3826 -0.2375 -1.8067
  159OSM   H12T17822   3.032   2.396   3.494  0.2488  0.2816  1.3345
  159OSM   C13S17823   2.869   2.302   3.603 -0.0509  0.2250  0.5550
  159OSM   H13S17824   2.937   2.215   3.619  1.4141  1.3179  0.4551
  159OSM   H13T17825   2.766   2.273   3.574 -0.5039  1.0932  1.2338
  159OSM   C14S17826   2.863   2.377   3.733 -0.2600  0.6818  0.2178
  159OSM   H14S17827   2.782   2.333   3.795  0.2848  2.4155  2.2562
  159OSM   H14T17828   2.830   2.483   3.727  1.6735  1.4770  2.4323
  159OSM   C15S17829   2.996   2.388   3.808 -0.0387  0.9749  0.2925
  159OSM   H15S17830   3.070   2.437   3.741 -0.0456  0.2203 -0.2815
  159OSM   H15T17831   3.045   2.296   3.848  0.8036  0.7930 -1.0778
  159OSM   C16S17832   2.985   2.484   3.920  0.5650  0.0729  0.5669
  159OSM   H16S17833   2.957   2.582   3.876  0.8049 -0.7276 -1.5101
  159OSM   H16T17834   3.078   2.499   3.979 -0.4085 -0.3776  2.2665
  159OSM   C17S17835   2.875   2.444   4.024  0.5099  0.0865  0.0634
  159OSM   H17S17836   2.888   2.334   4.036 -0.1394 -0.1051 -0.8433
  159OSM   H17T17837   2.774   2.454   3.979  0.3020  0.7794  0.6775
  159OSM   C18S17838   2.872   2.516   4.160 -0.2331  1.0996  0.2024
  159OSM   H18S17839   2.843   2.442   4.237 -1.8228  0.0998 -1.2762
  159OSM   H18T17840   2.795   2.596   4.165 -0.0822  1.2002  0.9319
  159OSM   H18U17841   2.970   2.563   4.183  1.2427 -1.4116 -0.5295
  159OSM    C1F17842   2.640   2.556   2.353  0.5374  0.0921  0.1626
  159OSM     OF17843   2.536   2.495   2.319 -0.2255 -0.8098  0.6700
  159OSM    C2F17844   2.647   2.706   2.396 -0.2575  0.0273  0.6470
  159OSM    H2F17845   2.656   2.775   2.310  4.3028  3.1641  3.2230
  159OSM    H2G17846   2.733   2.721   2.464  1.9127  1.7831 -2.2683
  159OSM    C3F17847   2.514   2.743   2.465  0.0309 -0.4777 -0.1472
  159OSM    H3F17848   2.500   2.694   2.564  0.5654  0.6379  0.4937
  159OSM    H3G17849   2.434   2.710   2.395 -0.8991 -0.2066  0.7733
  159OSM    C4F17850   2.499   2.895   2.485 -0.5126 -0.2255 -0.6526
  159OSM    H4F17851   2.532   2.942   2.390  0.2508  0.6233  0.0204
  159OSM    H4G17852   2.585   2.916   2.552  0.4191 -1.6907 -1.3362
  159OSM    C5F17853   2.369   2.949   2.538  1.4277 -0.7143 -0.3945
  159OSM    H5F17854   2.289   2.924   2.466  1.6730 -1.6127 -0.3614
  159OSM    H5G17855   2.366   3.060   2.536 -0.7034 -0.7320  0.0605
  159OSM    C6F17856   2.323   2.900   2.683 -0.1531 -0.0044  0.5614
  159OSM    H6F17857   2.296   2.793   2.674 -0.1422  0.0474 -0.1208
  159OSM    H6G17858   2.235   2.961   2.714  0.3613 -0.0639  2.2011
  159OSM    C7F17859   2.438   2.916   2.790 -0.1310 -0.3040  0.2422
  159OSM    H7F17860   2.473   3.021   2.780 -1.7769  0.2811  0.3298
  159OSM    H7G17861   2.519   2.839   2.789 -1.5599 -1.9117  1.1018
  159OSM    C8F17862   2.389   2.900   2.937 -0.0179  0.1966 -1.2152
  159OSM    H8F17863   2.343   2.800   2.953 -1.8662  1.4027  2.0597
  159OSM    H8G17864   2.307   2.971   2.958 -0.1289  0.1229 -1.4009
  159OSM    C9F17865   2.495   2.909   3.041 -0.1969  0.2491  0.4240
  159OSM    H9F17866   2.574   2.834   3.023 -1.0159 -0.7177  0.7714
  159OSM   C10F17867   2.487   2.969   3.158  0.1159  0.2840  0.1765
  159OSM   H10F17868   2.563   2.933   3.229 -0.7856  0.3046  1.1781
  159OSM   C11F17869   2.386   3.069   3.213 -0.1277  0.5925  0.7161
  159OSM   H11F17870   2.364   3.154   3.144 -1.2849  0.3279  0.7414
  159OSM   H11G17871   2.437   3.113   3.302 -0.7617 -2.3008  2.6406
  159OSM   C12F17872   2.252   3.006   3.253 -0.3934 -0.6012  0.0537
  159OSM   H12F17873   2.223   2.942   3.167  2.5305  0.8600 -2.2005
  159OSM   H12G17874   2.173   3.084   3.253 -1.4115 -1.5859  1.7623
  159OSM   C13F17875   2.246   2.920   3.383  0.4124  0.6587  0.1580
  159OSM   H13F17876   2.348   2.881   3.404  0.4741  0.6306 -0.1931
  159OSM   H13G17877   2.181   2.834   3.356  0.2147  1.2788 -1.4484
  159OSM   C14F17878   2.203   3.005   3.501  0.1279  1.1969  0.5470
  159OSM   H14F17879   2.103   3.048   3.480 -0.5054 -0.4037  0.1147
  159OSM   H14G17880   2.269   3.094   3.501 -0.2420  1.5095 -0.9964
  159OSM   C15F17881   2.223   2.939   3.633  0.1454  0.4406 -0.4852
  159OSM   H15F17882   2.329   2.918   3.657  0.2015 -3.6461 -3.2213
  159OSM   H15G17883   2.168   2.842   3.638 -0.5196  0.7317 -1.8270
  159OSM   C16F17884   2.145   3.025   3.743 -0.2278  0.3591 -0.5805
  159OSM   H16F17885   2.041   3.044   3.711 -0.8797 -1.2499  0.4332
  159OSM   H16G17886   2.196   3.119   3.774 -1.7342  0.6959  1.0165
  159OSM   C17F17887   2.166   2.947   3.875  0.8245  0.1148 -0.1256
  159OSM   H17F17888   2.277   2.937   3.871  1.2195  2.7998  1.6524
  159OSM   H17G17889   2.116   2.848   3.865 -0.4065  0.6487  0.5995
  159OSM   C18F17890   2.127   3.024   4.000 -0.3298  0.0183 -0.2458
  159OSM   H18F17891   2.016   3.015   4.008 -0.5223  1.7521 -0.6245
  159OSM   H18G17892   2.158   3.131   3.999  0.3709 -0.1740  0.2824
  159OSM   H18H17893   2.168   2.976   4.091 -1.4884 -0.1743  0.1957
  160OSM      N17894   0.691   1.305   2.250 -0.2688  0.0495 -0.5730
  160OSM    C1517895   0.634   1.217   2.361  0.0907  0.3886 -0.8857
  160OSM   H15A17896   0.533   1.246   2.386 -0.5496 -0.7495 -2.0534
  160OSM   H15B17897   0.691   1.205   2.452 -1.9125  1.4881  0.5856
  160OSM   H15C17898   0.621   1.118   2.320 -0.5664  0.5999 -1.1930
  160OSM    C1417899   0.708   1.445   2.306  1.0307 -0.0837 -0.0870
  160OSM   H14A17900   0.748   1.515   2.234  0.3847 -1.0644 -1.4322
  160OSM   H14B17901   0.764   1.446   2.399  0.5770  0.6972  0.1929
  160OSM   H14C17902   0.611   1.480   2.337 -0.5361 -0.1704 -4.3072
  160OSM    C1317903   0.821   1.249   2.218  0.2841  0.0057 -0.4867
  160OSM   H13A17904   0.825   1.148   2.182  0.7029  0.0717 -0.6326
  160OSM   H13B17905   0.885   1.244   2.305  0.3504  3.3461 -0.1807
  160OSM   H13C17906   0.870   1.314   2.147  0.1888 -0.9502 -1.4477
  160OSM    C1217907   0.606   1.307   2.127 -0.3438 -0.2064 -0.7445
  160OSM   H12A17908   0.667   1.355   2.052  0.2580  1.3730  0.6946
  160OSM   H12B17909   0.522   1.374   2.138 -1.5583 -1.2731 -2.9300
  160OSM    C1117910   0.566   1.176   2.068 -0.8592  0.0639 -0.4742
  160OSM   H11A17911   0.656   1.111   2.058  0.6908  1.8173  1.2970
  160OSM   H11B17912   0.532   1.218   1.970  0.9671  2.2911 -0.2315
  160OSM      P17913   0.317   1.135   2.132 -0.2586  0.1574  0.3157
  160OSM    O1317914   0.294   1.281   2.124  0.1908 -0.0366  0.1458
  160OSM    O1417915   0.273   1.063   2.014 -0.1268 -0.1064  0.3547
  160OSM    O1117916   0.240   1.071   2.262  0.0097  0.1699 -0.0283
  160OSM    O1217917   0.470   1.105   2.152 -0.1046  0.0990  0.5509
  160OSM    C1S17918   0.311   1.002   2.371  0.2063 -0.3652  0.6033
  160OSM    H1S17919   0.411   1.032   2.407  0.3096 -0.5329  0.4578
  160OSM    H1T17920   0.315   0.895   2.343  1.7417 -0.2695  0.4144
  160OSM     NF17921   0.303   0.964   2.621 -0.8764  0.4982 -0.5742
  160OSM    HNF17922   0.273   0.882   2.670  0.4380  1.4004  1.9192
  160OSM    C2S17923   0.236   1.024   2.511 -0.0426 -0.1760  0.7577
  160OSM    H2S17924   0.229   1.134   2.525 -1.1325 -0.5255  3.6096
  160OSM    C3S17925   0.094   0.974   2.494  0.0890  0.7678  0.4399
  160OSM    H3S17926   0.100   0.863   2.493  0.2169  0.7714 -1.3082
  160OSM     O317927   0.012   1.003   2.385 -0.0648  0.3598  0.6377
  160OSM    HO317928   0.084   1.021   2.325  0.8406 -0.9272  1.2860
  160OSM    C4S17929   0.021   1.002   2.622  0.3477 -0.5160  0.6352
  160OSM    H4S17930  -0.001   1.107   2.645  1.7387 -0.5352  2.3484
  160OSM    C5S17931  -0.044   0.915   2.700  0.5697 -0.2855 -0.0895
  160OSM    H5S17932  -0.051   0.807   2.683  0.3241 -0.4291  0.9008
  160OSM    C6S17933  -0.128   0.956   2.823  0.4695  0.5366  0.2528
  160OSM    H6S17934  -0.228   0.908   2.824 -0.0204  1.5310  1.4313
  160OSM    H6T17935  -0.146   1.064   2.836  1.8368  1.0755 -1.7152
  160OSM    C7S17936  -0.054   0.901   2.949  0.2300 -1.1611  0.3547
  160OSM    H7S17937   0.044   0.953   2.951 -0.8453  0.9850  2.8985
  160OSM    H7T17938  -0.044   0.793   2.926  2.1234 -0.5507 -2.1852
  160OSM    C8S17939  -0.120   0.932   3.088  0.9544 -0.1263  0.0090
  160OSM    H8S17940  -0.223   0.895   3.071  0.2602  1.4966  0.4677
  160OSM    H8T17941  -0.142   1.039   3.108  0.9712 -0.0648 -0.2926
  160OSM    C9S17942  -0.055   0.858   3.202 -0.9459 -0.3655  0.2066
  160OSM    H9S17943  -0.029   0.755   3.168 -0.6116 -0.2125 -0.0073
  160OSM    H9T17944  -0.130   0.853   3.283 -0.5782  3.8968  1.0401
  160OSM   C10S17945   0.072   0.923   3.258 -1.6671 -0.4054  1.0971
  160OSM   H10S17946   0.042   1.013   3.316  0.3094 -0.2683  1.9853
  160OSM   H10T17947   0.138   0.961   3.177 -1.0778  0.3713  1.9237
  160OSM   C11S17948   0.145   0.845   3.368 -0.1303  0.7055  0.2510
  160OSM   H11S17949   0.228   0.914   3.395 -0.2806  1.2735 -0.6869
  160OSM   H11T17950   0.191   0.754   3.325 -0.3287  1.4157 -1.5587
  160OSM   C12S17951   0.057   0.811   3.497  0.2167 -0.6867 -0.3496
  160OSM   H12S17952  -0.033   0.760   3.458  1.7431 -2.2971 -1.9763
  160OSM   H12T17953   0.021   0.906   3.542  3.5909  1.6329 -2.1060
  160OSM   C13S17954   0.138   0.733   3.594 -0.3892 -0.6965  0.7357
  160OSM   H13S17955   0.234   0.789   3.606 -0.1661 -0.9031 -0.0550
  160OSM   H13T17956   0.164   0.633   3.553  1.9187  0.3581 -0.5546
  160OSM   C14S17957   0.060   0.733   3.726 -0.0537  0.7405  0.0994
  160OSM   H14S17958  -0.037   0.680   3.716  0.7460 -0.3426 -2.8633
  160OSM   H14T17959   0.042   0.832   3.773 -0.7540  0.6311  0.0671
  160OSM   C15S17960   0.139   0.649   3.826  0.1007 -0.7096  0.3773
  160OSM   H15S17961   0.239   0.697   3.833  0.0889 -0.5923 -0.2286
  160OSM   H15T17962   0.156   0.544   3.795  0.7186 -0.8848  1.2663
  160OSM   C16S17963   0.072   0.636   3.965 -0.3165 -0.2986  0.0831
  160OSM   H16S17964   0.131   0.568   4.030  0.6696  1.1750  0.7799
  160OSM   H16T17965  -0.027   0.596   3.934 -0.1791 -1.3551  0.9267
  160OSM   C17S17966   0.055   0.768   4.030  0.0568 -0.2364 -0.1133
  160OSM   H17S17967  -0.018   0.823   3.968  0.7975 -0.8361 -1.5749
  160OSM   H17T17968   0.147   0.829   4.015  1.1417 -1.5496  0.8607
  160OSM   C18S17969   0.022   0.781   4.176 -0.0380 -0.3674  0.2136
  160OSM   H18S17970  -0.044   0.700   4.214  0.4750 -1.2366 -0.6904
  160OSM   H18T17971  -0.022   0.878   4.207 -0.0053 -0.5181  0.7353
  160OSM   H18U17972   0.118   0.772   4.230 -0.8685 -0.6871  1.6984
  160OSM    C1F17973   0.418   1.013   2.671 -0.0573  0.8283  0.9512
  160OSM     OF17974   0.457   1.111   2.615 -0.0099 -0.5365  0.1182
  160OSM    C2F17975   0.468   0.954   2.797 -0.0295 -0.6845  0.8373
  160OSM    H2F17976   0.494   0.850   2.767  0.1061 -0.4304  0.0746
  160OSM    H2G17977   0.383   0.953   2.869  0.0485  0.5549  0.9606
  160OSM    C3F17978   0.593   1.023   2.848  0.4787 -0.4754 -0.1221
  160OSM    H3F17979   0.570   1.127   2.879  1.3805 -0.2080 -0.3051
  160OSM    H3G17980   0.666   1.023   2.764  0.0939 -1.1173 -0.4599
  160OSM    C4F17981   0.664   0.962   2.971 -0.0172 -0.1309  0.0132
  160OSM    H4F17982   0.767   1.001   2.985  0.8866 -2.8244  1.7468
  160OSM    H4G17983   0.685   0.856   2.943  1.7915  0.4394 -0.9868
  160OSM    C5F17984   0.581   0.966   3.103 -0.8402  0.4098 -0.0552
  160OSM    H5F17985   0.475   0.940   3.082 -0.2527 -2.2959  0.0112
  160OSM    H5G17986   0.565   1.075   3.117 -2.6586  0.3547 -1.2999
  160OSM    C6F17987   0.650   0.901   3.226 -0.4429 -0.5016  0.1419
  160OSM    H6F17988   0.746   0.948   3.257  0.9140 -2.9236 -0.1849
  160OSM    H6G17989   0.669   0.797   3.194 -0.1505  0.2162 -2.2014
  160OSM    C7F17990   0.555   0.897   3.341 -0.6893 -0.0058  0.3806
  160OSM    H7F17991   0.459   0.856   3.302  0.1160 -0.4510 -1.1733
  160OSM    H7G17992   0.537   0.993   3.394 -1.5449 -0.9017  1.8249
  160OSM    C8F17993   0.604   0.801   3.452  0.9520 -0.9049  0.2609
  160OSM    H8F17994   0.632   0.700   3.415  0.7253 -0.4851 -1.1134
  160OSM    H8G17995   0.512   0.786   3.513  0.8952  2.1002  1.0619
  160OSM    C9F17996   0.715   0.859   3.535 -1.2854  0.7055 -0.2845
  160OSM    H9F17997   0.813   0.873   3.487 -0.9292 -1.1149 -0.1617
  160OSM   C10F17998   0.709   0.866   3.672  0.0601  0.3474  0.1573
  160OSM   H10F17999   0.798   0.899   3.727 -1.1158 -0.7782  2.9467
  160OSM   C11F18000   0.590   0.838   3.764 -0.0353 -0.2115  0.3586
  160OSM   H11F18001   0.622   0.795   3.861 -0.2666 -1.2185  0.0021
  160OSM   H11G18002   0.518   0.762   3.724  2.0365 -2.4454  0.6708
  160OSM   C12F18003   0.523   0.970   3.785 -0.0157  0.3374  0.9569
  160OSM   H12F18004   0.491   1.003   3.684  1.4735 -0.9063  0.0226
  160OSM   H12G18005   0.597   1.047   3.815  1.5734 -0.5830 -0.3950
  160OSM   C13F18006   0.419   0.974   3.895  0.0038 -0.5256  0.0039
  160OSM   H13F18007   0.481   0.945   3.983  0.6142 -2.0825 -0.9087
  160OSM   H13G18008   0.343   0.894   3.887 -1.0495  0.1141  2.6899
  160OSM   C14F18009   0.358   1.108   3.916  0.6068 -0.4663 -0.1693
  160OSM   H14F18010   0.284   1.117   3.833 -0.5892 -1.9024  0.6886
  160OSM   H14G18011   0.433   1.190   3.908 -0.2138  0.3263  0.1859
  160OSM   C15F18012   0.289   1.115   4.052 -0.1126  0.1038  0.0732
  160OSM   H15F18013   0.362   1.103   4.135  0.1987  2.1656  0.1303
  160OSM   H15G18014   0.211   1.035   4.059 -0.5621  0.4990 -0.3767
  160OSM   C16F18015   0.208   1.239   4.065 -0.2097  0.4806 -0.3793
  160OSM   H16F18016   0.158   1.260   3.968 -2.1362 -0.2408  0.3963
  160OSM   H16G18017   0.264   1.333   4.080  1.9509 -0.7949 -0.0349
  160OSM   C17F18018   0.101   1.225   4.175  0.5840 -0.5271  0.0844
  160OSM   H17F18019   0.147   1.226   4.276  0.3598 -2.1036  0.2283
  160OSM   H17G18020   0.046   1.129   4.165 -1.5818  0.7334 -0.7113
  160OSM   C18F18021  -0.018   1.328   4.170  0.4737  0.6846  0.0693
  160OSM   H18F18022  -0.076   1.315   4.075 -1.6640  1.5253  1.1774
  160OSM   H18G18023   0.033   1.426   4.184  1.3564  0.0369  1.5104
  160OSM   H18H18024  -0.080   1.303   4.259 -1.8154  1.6808 -1.1412
  161OSM      N18025   3.965   1.527   1.758  0.2133  0.4600 -0.1512
  161OSM    C1518026   3.998   1.462   1.893 -1.0336 -0.0012  0.8903
  161OSM   H15A18027   3.946   1.368   1.905 -0.1451 -0.7610 -0.8555
  161OSM   H15B18028   3.971   1.522   1.979 -0.3931  0.8819  0.4904
  161OSM   H15C18029   4.106   1.456   1.898 -0.8195 -2.1695 -2.5264
  161OSM    C1418030   4.027   1.454   1.645 -0.4389  0.4861 -0.2640
  161OSM   H14A18031   3.998   1.350   1.655 -2.9086  1.1214 -0.0895
  161OSM   H14B18032   4.135   1.458   1.646 -0.4211  1.0738 -1.8877
  161OSM   H14C18033   3.995   1.484   1.547 -1.6524  1.9230  0.5456
  161OSM    C1318034   3.820   1.505   1.749 -0.1623  0.2456  0.8859
  161OSM   H13A18035   3.779   1.555   1.663  0.5257 -1.7554 -0.6989
  161OSM   H13B18036   3.765   1.531   1.839 -1.2451  0.4449  0.1873
  161OSM   H13C18037   3.799   1.402   1.724  1.0828  0.0523  0.5543
  161OSM    C1218038   3.987   1.666   1.754  1.1738 -0.9793  0.0264
  161OSM   H12A18039   3.986   1.705   1.653  1.0263  2.5336  1.2303
  161OSM   H12B18040   4.086   1.691   1.789  1.0076  1.9133 -1.2582
  161OSM    C1118041   3.887   1.758   1.831 -0.4298  0.2228 -0.4369
  161OSM   H11A18042   3.945   1.848   1.860 -0.4478 -0.1967  0.9588
  161OSM   H11B18043   3.858   1.701   1.922  0.4544  1.9084  0.9692
  161OSM      P18044   3.640   1.839   1.827  0.2172 -0.5975 -0.4672
  161OSM    O1318045   3.599   1.971   1.786 -0.2235  0.1782  0.2879
  161OSM    O1418046   3.542   1.727   1.817 -0.3553 -0.8917 -0.1580
  161OSM    O1118047   3.672   1.849   1.982  0.1781 -0.0518  0.0294
  161OSM    O1218048   3.769   1.798   1.759 -0.1311  0.3253 -0.4852
  161OSM    C1S18049   3.579   1.799   2.072  0.9371  0.2505  0.0057
  161OSM    H1S18050   3.571   1.689   2.064 -2.3545  0.3388  0.7567
  161OSM    H1T18051   3.474   1.833   2.054  0.8765 -0.0175 -0.1458
  161OSM     NF18052   3.525   1.768   2.317 -0.0691  0.1059  0.7630
  161OSM    HNF18053   3.454   1.803   2.379 -2.6585 -2.9177 -0.2110
  161OSM    C2S18054   3.605   1.847   2.217  0.3032  0.6280 -0.0503
  161OSM    H2S18055   3.715   1.831   2.225  0.4235  0.1774 -2.0518
  161OSM    C3S18056   3.591   2.001   2.223  0.0685 -0.2156  1.4656
  161OSM    H3S18057   3.488   2.030   2.193  0.3831 -0.3328  0.2253
  161OSM     O318058   3.678   2.069   2.132  0.0082 -0.0064 -0.0586
  161OSM    HO318059   3.696   1.996   2.072 -0.9879 -1.1093  0.9191
  161OSM    C4S18060   3.625   2.049   2.362  0.6245  0.3217  0.1959
  161OSM    H4S18061   3.541   2.097   2.415  1.3754  0.6256  1.1533
  161OSM    C5S18062   3.750   2.073   2.410  0.1281 -0.2057 -0.8202
  161OSM    H5S18063   3.839   2.048   2.349  0.0253 -1.5410 -0.4430
  161OSM    C6S18064   3.779   2.144   2.534 -0.0101 -0.5382 -0.2888
  161OSM    H6S18065   3.688   2.148   2.596 -0.2915  0.8712 -0.7616
  161OSM    H6T18066   3.818   2.245   2.511  3.1189 -1.9970 -2.2073
  161OSM    C7S18067   3.887   2.065   2.598 -0.1508 -0.1316 -0.2823
  161OSM    H7S18068   3.982   2.068   2.541 -0.0400 -0.7380 -0.1374
  161OSM    H7T18069   3.869   1.957   2.616  1.4536 -0.0287  2.6026
  161OSM    C8S18070   3.921   2.122   2.740  0.0276  0.6577  0.2528
  161OSM    H8S18071   3.952   2.227   2.719 -0.9372  1.3914  2.2089
  161OSM    H8T18072   4.012   2.074   2.781 -1.9881 -2.6563  1.1997
  161OSM    C9S18073   3.809   2.114   2.852  0.5069  0.7074 -0.0736
  161OSM    H9S18074   3.771   2.010   2.846  3.1323 -0.2697 -1.4127
  161OSM    H9T18075   3.725   2.178   2.817 -1.9334 -1.2802  1.7329
  161OSM   C10S18076   3.852   2.158   2.997  0.2474  0.5157 -0.2736
  161OSM   H10S18077   3.922   2.244   2.989 -0.2379  1.0382  0.8824
  161OSM   H10T18078   3.929   2.084   3.027 -0.1858  1.0847  2.5061
  161OSM   C11S18079   3.735   2.171   3.091 -0.0103 -0.0627 -0.0979
  161OSM   H11S18080   3.661   2.088   3.090 -0.6348  0.4877 -1.3865
  161OSM   H11T18081   3.693   2.273   3.075  1.7074  0.2987 -2.9740
  161OSM   C12S18082   3.779   2.195   3.236 -0.0948 -0.0539  0.1070
  161OSM   H12S18083   3.703   2.250   3.296 -0.4629  0.3084 -0.6778
  161OSM   H12T18084   3.870   2.259   3.240 -0.4425  0.4010  1.2806
  161OSM   C13S18085   3.806   2.062   3.313  0.8779 -0.4573  0.3809
  161OSM   H13S18086   3.902   2.017   3.281  0.3560 -1.4098  0.1204
  161OSM   H13T18087   3.726   1.988   3.290  1.0734 -0.9094  1.1175
  161OSM   C14S18088   3.814   2.097   3.471  0.6263 -0.5374  0.4689
  161OSM   H14S18089   3.708   2.096   3.507 -0.0685  1.2609 -1.3260
  161OSM   H14T18090   3.846   2.202   3.488  0.9714  0.4880 -4.8302
  161OSM   C15S18091   3.907   2.010   3.548  0.2875 -0.2360  0.5448
  161OSM   H15S18092   4.009   2.037   3.514 -1.1577  3.3072 -1.4769
  161OSM   H15T18093   3.879   1.905   3.522  0.4657  0.1148 -1.1941
  161OSM   C16S18094   3.910   2.046   3.695  0.6739  0.2050  0.1472
  161OSM   H16S18095   3.812   2.038   3.747  0.2265  0.1435 -0.6819
  161OSM   H16T18096   3.945   2.151   3.703  0.9117  0.0635  1.0564
  161OSM   C17S18097   4.007   1.958   3.766  0.3139 -0.0206 -0.2396
  161OSM   H17S18098   4.106   1.959   3.715 -0.0750  0.0310 -1.0031
  161OSM   H17T18099   3.966   1.855   3.764  0.8104 -0.2264 -0.1319
  161OSM   C18S18100   4.024   1.991   3.915 -0.6152  0.0424  0.1254
  161OSM   H18S18101   4.081   1.915   3.972  0.3101  1.5239  1.2834
  161OSM   H18T18102   3.921   1.993   3.957  0.2051 -2.6949  2.5862
  161OSM   H18U18103   4.067   2.092   3.935 -1.0629  0.0422  1.1920
  161OSM    C1F18104   3.543   1.639   2.326  1.5896  0.1388  0.5134
  161OSM     OF18105   3.627   1.588   2.257 -0.4129  0.1423  0.7273
  161OSM    C2F18106   3.445   1.555   2.404  0.5014 -0.0039  0.1722
  161OSM    H2F18107   3.365   1.524   2.333  0.5733 -0.4189  0.2699
  161OSM    H2G18108   3.392   1.614   2.483 -0.3654 -0.6317  0.0725
  161OSM    C3F18109   3.509   1.441   2.479  0.8250  0.8233 -0.1033
  161OSM    H3F18110   3.579   1.484   2.554 -0.3397 -2.4030  3.1108
  161OSM    H3G18111   3.563   1.380   2.403 -0.2717  1.5296 -1.4947
  161OSM    C4F18112   3.414   1.344   2.547 -0.2611  0.4905 -0.8341
  161OSM    H4F18113   3.473   1.266   2.599 -1.7246  0.7489  1.3222
  161OSM    H4G18114   3.340   1.296   2.478 -0.8476  0.0905  0.0578
  161OSM    C5F18115   3.318   1.400   2.659  0.0539  0.1555 -0.2664
  161OSM    H5F18116   3.250   1.316   2.685  1.7704 -1.5456 -1.0055
  161OSM    H5G18117   3.254   1.481   2.618  1.4936  0.1911 -2.6233
  161OSM    C6F18118   3.387   1.435   2.791 -0.0209  0.1091 -0.4450
  161OSM    H6F18119   3.453   1.521   2.771  0.0913 -0.2682 -1.7998
  161OSM    H6G18120   3.450   1.348   2.820 -0.2081 -0.1466 -0.7898
  161OSM    C7F18121   3.305   1.489   2.905  0.9500 -0.0531  0.3877
  161OSM    H7F18122   3.231   1.412   2.936 -2.5259  2.5698 -0.6738
  161OSM    H7G18123   3.251   1.582   2.876 -1.8600 -0.6032  3.1809
  161OSM    C8F18124   3.390   1.530   3.021  0.1757 -0.5327 -0.1117
  161OSM    H8F18125   3.316   1.575   3.091 -0.3966 -1.7841  0.1058
  161OSM    H8G18126   3.464   1.608   2.990 -1.1370  0.6405 -0.4335
  161OSM    C9F18127   3.465   1.416   3.084  0.1222  0.3051  0.2430
  161OSM    H9F18128   3.514   1.345   3.016 -0.3199  0.0267  0.2104
  161OSM   C10F18129   3.466   1.378   3.212 -0.0663 -0.2840 -0.4016
  161OSM   H10F18130   3.533   1.295   3.239  2.2034  1.9232  1.1292
  161OSM   C11F18131   3.396   1.445   3.332 -1.0165  0.6949 -0.1688
  161OSM   H11F18132   3.320   1.375   3.372 -0.3188  0.5971  1.0098
  161OSM   H11G18133   3.361   1.543   3.291  1.6388  1.7017 -0.2361
  161OSM   C12F18134   3.498   1.491   3.439 -0.7565 -0.2699 -0.1517
  161OSM   H12F18135   3.562   1.567   3.388 -0.1532  0.1432  1.1928
  161OSM   H12G18136   3.570   1.409   3.460  1.2985  1.6243  0.4998
  161OSM   C13F18137   3.438   1.542   3.574 -0.4840  0.2788  0.5414
  161OSM   H13F18138   3.401   1.448   3.621 -0.1861  0.0463  0.3162
  161OSM   H13G18139   3.347   1.603   3.553 -2.6071 -3.1085 -1.0069
  161OSM   C14F18140   3.548   1.610   3.674 -0.1418  0.6264  0.3838
  161OSM   H14F18141   3.592   1.705   3.638 -1.0212  0.9187  0.0578
  161OSM   H14G18142   3.626   1.531   3.681 -1.7764 -0.9868  1.6200
  161OSM   C15F18143   3.491   1.621   3.815 -0.4103  0.4591 -0.2642
  161OSM   H15F18144   3.461   1.522   3.856  0.6521  1.2040  2.4934
  161OSM   H15G18145   3.406   1.692   3.806  0.0970  1.1964  0.6206
  161OSM   C16F18146   3.604   1.676   3.905  0.4983  0.3531 -0.4911
  161OSM   H16F18147   3.652   1.759   3.849  0.2418  1.5106  0.9607
  161OSM   H16G18148   3.680   1.598   3.929  0.9029  0.9269  0.1394
  161OSM   C17F18149   3.560   1.752   4.034  0.9934 -0.4265 -0.0078
  161OSM   H17F18150   3.513   1.846   3.998  1.3923  0.0649  0.7373
  161OSM   H17G18151   3.635   1.778   4.112 -0.8342 -0.6692  1.9294
  161OSM   C18F18152   3.455   1.671   4.114 -0.1039 -0.0416 -0.8483
  161OSM   H18F18153   3.357   1.655   4.063  0.0431 -1.8560 -0.6203
  161OSM   H18G18154   3.424   1.721   4.208  1.4972  1.9813 -1.3287
  161OSM   H18H18155   3.481   1.567   4.143  0.3130 -0.5390 -2.8602
  162OSM      N18156   5.015   2.298   2.172  0.3202 -0.6567 -0.2744
  162OSM    C1518157   5.019   2.408   2.065  0.4375 -0.2804 -0.2375
  162OSM   H15A18158   4.970   2.488   2.117 -0.2883 -1.6279  1.2539
  162OSM   H15B18159   4.963   2.381   1.977  2.2685 -1.0115 -1.2384
  162OSM   H15C18160   5.124   2.426   2.053  0.8588 -0.6255  2.3445
  162OSM    C1418161   5.082   2.357   2.297 -0.0367 -0.3347  0.4458
  162OSM   H14A18162   5.176   2.398   2.265 -0.4606 -0.3700 -0.9239
  162OSM   H14B18163   5.105   2.291   2.380  1.8768  0.9269  0.9788
  162OSM   H14C18164   5.028   2.442   2.336  0.3386 -0.2576  0.8061
  162OSM    C1318165   4.874   2.257   2.202 -0.0336  0.3965 -0.0742
  162OSM   H13A18166   4.829   2.195   2.126 -0.2508 -1.8250  1.7540
  162OSM   H13B18167   4.803   2.336   2.221 -0.4843  0.1676 -0.7878
  162OSM   H13C18168   4.883   2.187   2.284  0.9764 -0.1577 -0.6340
  162OSM    C1218169   5.104   2.182   2.131  0.0607  0.5390 -0.4066
  162OSM   H12A18170   5.199   2.221   2.099  1.0134 -1.0594  0.3614
  162OSM   H12B18171   5.055   2.133   2.048 -1.7484  3.1524 -1.0398
  162OSM    C1118172   5.129   2.069   2.245  0.2561 -0.3630 -0.1028
  162OSM   H11A18173   5.202   2.106   2.320 -0.5057  1.9324 -0.4100
  162OSM   H11B18174   5.194   1.994   2.195  1.9206  1.5104 -0.8938
  162OSM      P18175   4.934   1.893   2.257 -0.1531 -0.7488  0.2295
  162OSM    O1318176   4.809   1.881   2.331  0.4404  0.3964 -0.5085
  162OSM    O1418177   4.919   1.883   2.107  0.2465  0.1661  0.7652
  162OSM    O1118178   5.030   1.781   2.296 -0.4767  0.9936  0.0954
  162OSM    O1218179   5.016   2.021   2.308  0.0547  0.2100  0.2084
  162OSM    C1S18180   5.074   1.776   2.436 -0.8347  0.2425 -0.3433
  162OSM    H1S18181   5.099   1.875   2.479  0.0750 -0.5109  0.9324
  162OSM    H1T18182   5.173   1.726   2.436 -0.6290  0.6452  0.6296
  162OSM     NF18183   5.028   1.701   2.673  1.1152 -0.5373  0.9821
  162OSM    HNF18184   5.066   1.622   2.721 -0.4528 -2.3869 -0.6352
  162OSM    C2S18185   4.975   1.697   2.534 -0.6933  0.4670  0.5792
  162OSM    H2S18186   4.874   1.743   2.524 -0.5378  1.0740  1.6104
  162OSM    C3S18187   4.960   1.556   2.484  0.2549 -0.3685 -1.2841
  162OSM    H3S18188   5.064   1.517   2.474  0.9598  1.2527 -0.6126
  162OSM     O318189   4.896   1.550   2.353 -0.3340 -0.3167  0.3090
  162OSM    HO318190   4.927   1.629   2.308  0.1969 -1.6740 -1.8530
  162OSM    C4S18191   4.873   1.476   2.580 -0.6578  1.0512 -0.0892
  162OSM    H4S18192   4.783   1.529   2.613 -1.0649 -0.0671  0.6533
  162OSM    C5S18193   4.905   1.358   2.638  0.5070 -0.1232 -0.7712
  162OSM    H5S18194   5.007   1.320   2.630  0.8711  0.4199  0.8572
  162OSM    C6S18195   4.823   1.286   2.743 -0.3038  0.4900 -0.0443
  162OSM    H6S18196   4.808   1.184   2.701 -2.9314  1.4226 -1.7039
  162OSM    H6T18197   4.719   1.326   2.746 -0.0734  1.0344  1.0655
  162OSM    C7S18198   4.892   1.286   2.881 -0.4485 -0.6056 -0.5941
  162OSM    H7S18199   4.907   1.392   2.912  1.3134 -0.3174 -2.2363
  162OSM    H7T18200   4.987   1.230   2.870  0.7467  1.2911 -0.5029
  162OSM    C8S18201   4.789   1.241   2.988 -0.0253  0.0458 -0.7023
  162OSM    H8S18202   4.723   1.161   2.948  0.2086  0.8497 -2.7941
  162OSM    H8T18203   4.722   1.329   2.995  0.4683  0.4132 -0.5546
  162OSM    C9S18204   4.860   1.205   3.120  0.8748  0.5795 -0.9745
  162OSM    H9S18205   4.958   1.258   3.122  0.6888  1.0114 -2.2899
  162OSM    H9T18206   4.878   1.096   3.112 -2.1522  0.0825 -2.4097
  162OSM   C10S18207   4.793   1.215   3.250  0.0591 -0.0470 -0.4982
  162OSM   H10S18208   4.695   1.163   3.248 -0.2560  0.5662 -1.7729
  162OSM   H10T18209   4.778   1.324   3.264  2.1077  0.2573 -0.3839
  162OSM   C11S18210   4.887   1.176   3.367 -0.5198 -0.0879 -0.0228
  162OSM   H11S18211   4.992   1.204   3.347 -0.2372 -0.9825  0.1745
  162OSM   H11T18212   4.888   1.065   3.366  1.3036 -0.1157  0.8789
  162OSM   C12S18213   4.842   1.234   3.503 -0.3402 -0.9174  0.1665
  162OSM   H12S18214   4.736   1.229   3.535 -0.1833 -1.6949  0.5710
  162OSM   H12T18215   4.870   1.341   3.505  0.8751 -1.1174 -2.1239
  162OSM   C13S18216   4.917   1.173   3.625  0.8405  0.0535  0.3909
  162OSM   H13S18217   5.026   1.182   3.600  1.3236 -3.3696  0.8482
  162OSM   H13T18218   4.898   1.064   3.634 -3.2654  0.2941 -2.6165
  162OSM   C14S18219   4.886   1.235   3.762 -0.0988  0.2297  0.0414
  162OSM   H14S18220   4.790   1.199   3.806  0.4778 -1.7258 -0.1876
  162OSM   H14T18221   4.887   1.345   3.748 -1.2622  0.1475 -0.8667
  162OSM   C15S18222   4.993   1.198   3.868  0.0859 -0.2721 -0.5037
  162OSM   H15S18223   5.095   1.233   3.842 -0.5094  1.7886 -0.2071
  162OSM   H15T18224   5.000   1.088   3.880 -2.8344 -0.4589  0.2331
  162OSM   C16S18225   4.960   1.272   4.007 -0.6441 -0.4211  0.5643
  162OSM   H16S18226   4.851   1.275   4.027 -1.4004  1.5673 -2.9890
  162OSM   H16T18227   4.983   1.380   4.003 -2.0810 -0.0679  1.2615
  162OSM   C17S18228   5.050   1.226   4.120 -0.7612  0.0190 -0.3614
  162OSM   H17S18229   5.017   1.287   4.207  0.5186  0.7052 -0.3288
  162OSM   H17T18230   5.159   1.245   4.108  0.1316 -0.4236  4.7357
  162OSM   C18S18231   5.020   1.081   4.162 -0.0980 -0.6433 -0.0213
  162OSM   H18S18232   4.910   1.074   4.177 -0.2398  1.2532  0.1334
  162OSM   H18T18233   5.059   1.054   4.262 -1.0768 -2.5775 -0.1116
  162OSM   H18U18234   5.048   1.005   4.086 -1.0130  0.2885 -1.3418
  162OSM    C1F18235   4.996   1.818   2.731  0.1551 -0.8828 -0.0782
  162OSM     OF18236   4.965   1.917   2.666  0.0171  0.8064  0.4677
  162OSM    C2F18237   4.995   1.823   2.884 -0.2662  0.0572 -0.1563
  162OSM    H2F18238   5.098   1.797   2.917 -0.4147 -2.6675 -1.5997
  162OSM    H2G18239   4.935   1.738   2.924 -0.2603  0.2614  0.3001
  162OSM    C3F18240   4.954   1.963   2.946  0.3386  0.0207 -0.4911
  162OSM    H3F18241   4.851   1.986   2.910 -0.1318  0.6711  1.1711
  162OSM    H3G18242   5.019   2.042   2.903 -0.4661  0.2425 -1.3366
  162OSM    C4F18243   4.938   1.945   3.098 -0.3800  0.2881 -0.4747
  162OSM    H4F18244   5.038   1.937   3.145 -0.2191  3.3335 -0.0585
  162OSM    H4G18245   4.887   1.852   3.129  0.8633 -0.3233 -0.1838
  162OSM    C5F18246   4.880   2.078   3.156  0.0745 -0.2711 -0.3114
  162OSM    H5F18247   4.770   2.066   3.141 -0.5151  2.7114  0.9312
  162OSM    H5G18248   4.920   2.156   3.088  0.1048 -2.0766 -2.4686
  162OSM    C6F18249   4.911   2.099   3.312  0.0883 -0.3116  0.1816
  162OSM    H6F18250   5.017   2.133   3.319  0.9251 -2.4324 -1.1863
  162OSM    H6G18251   4.900   1.997   3.354 -0.1796 -0.7031 -0.8125
  162OSM    C7F18252   4.809   2.205   3.376 -0.2073 -0.1963 -0.7426
  162OSM    H7F18253   4.703   2.171   3.368  0.3721 -2.0843 -0.8810
  162OSM    H7G18254   4.823   2.299   3.318 -0.4569  0.2007 -0.1729
  162OSM    C8F18255   4.844   2.229   3.524  0.1592  0.0372  0.0809
  162OSM    H8F18256   4.798   2.325   3.558  0.9302  1.2867 -2.1726
  162OSM    H8G18257   4.953   2.250   3.522  0.0279  0.7198 -0.5918
  162OSM    C9F18258   4.822   2.112   3.620  0.3061  0.7192 -0.2589
  162OSM    H9F18259   4.902   2.039   3.636  0.8512  1.6551  1.4737
  162OSM   C10F18260   4.718   2.097   3.700  0.3318 -0.7968  0.0774
  162OSM   H10F18261   4.725   2.011   3.769 -0.3984 -1.1637 -0.3001
  162OSM   C11F18262   4.600   2.192   3.706 -0.3093 -0.2823  0.1903
  162OSM   H11F18263   4.571   2.229   3.605  0.6562  2.8578  0.9482
  162OSM   H11G18264   4.617   2.281   3.770  0.0938  1.1073 -1.7670
  162OSM   C12F18265   4.473   2.126   3.762  0.1667 -0.5986  0.5086
  162OSM   H12F18266   4.457   2.027   3.713 -1.2863 -0.7481  1.2325
  162OSM   H12G18267   4.381   2.182   3.738  0.5947 -0.6284 -1.3696
  162OSM   C13F18268   4.501   2.090   3.912 -0.0889 -0.4360  0.0172
  162OSM   H13F18269   4.564   2.176   3.943  0.9275 -0.5183 -1.7104
  162OSM   H13G18270   4.561   1.997   3.910  1.0497  0.2157  1.6228
  162OSM   C14F18271   4.380   2.083   4.004 -0.0743 -0.2033  0.1882
  162OSM   H14F18272   4.317   1.997   3.970 -0.1083  0.4306 -1.4463
  162OSM   H14G18273   4.324   2.176   3.981  0.8286  0.2339 -0.2687
  162OSM   C15F18274   4.415   2.089   4.155 -0.1414 -0.2426 -0.1451
  162OSM   H15F18275   4.456   2.192   4.166  0.0154 -0.3606  0.3578
  162OSM   H15G18276   4.500   2.020   4.172  1.2251  1.1174 -1.0842
  162OSM   C16F18277   4.291   2.066   4.247  0.3579  0.3007 -0.9939
  162OSM   H16F18278   4.318   2.071   4.354  0.7254 -1.7974 -0.9449
  162OSM   H16G18279   4.260   1.961   4.230  0.8912 -0.1741  0.7733
  162OSM   C17F18280   4.181   2.172   4.219 -0.0989 -0.1425 -0.3968
  162OSM   H17F18281   4.172   2.197   4.111 -0.0506  2.2255  0.1013
  162OSM   H17G18282   4.210   2.266   4.271 -1.2799  0.0571 -0.0581
  162OSM   C18F18283   4.043   2.145   4.276 -0.1372  0.2353 -0.8300
  162OSM   H18F18284   4.000   2.241   4.312 -0.3220 -0.4414  0.8478
  162OSM   H18G18285   4.043   2.080   4.366 -2.4280  0.8668 -0.3238
  162OSM   H18H18286   3.975   2.102   4.199 -1.5413 -1.8649  1.4387
  163OSM      N18287   3.217   1.952   1.773  0.1380 -0.2461 -0.5377
  163OSM    C1518288   3.237   1.936   1.624  0.0187  0.0979 -0.4646
  163OSM   H15A18289   3.338   1.902   1.603  0.0149  0.6677 -1.5013
  163OSM   H15B18290   3.222   2.031   1.574  1.2906  0.7724  0.3872
  163OSM   H15C18291   3.170   1.862   1.582 -0.3884 -0.0143  0.3701
  163OSM    C1418292   3.078   1.987   1.799 -0.7407  0.2687 -0.3343
  163OSM   H14A18293   3.053   1.984   1.904  1.0862  1.2422  0.1712
  163OSM   H14B18294   3.012   1.925   1.740  0.9327 -0.3090 -1.6577
  163OSM   H14C18295   3.054   2.089   1.769 -0.5231  0.0291 -1.3697
  163OSM    C1318296   3.245   1.815   1.828 -0.0949  0.5694 -0.2751
  163OSM   H13A18297   3.266   1.822   1.934  0.8337  0.6226 -0.4552
  163OSM   H13B18298   3.326   1.768   1.774 -0.4046  1.5190 -1.6226
  163OSM   H13C18299   3.163   1.748   1.812  0.4701 -0.0382 -0.6664
  163OSM    C1218300   3.319   2.057   1.817  0.2217  0.0764 -0.1232
  163OSM   H12A18301   3.321   2.143   1.751 -1.2633 -0.6883 -1.2211
  163OSM   H12B18302   3.417   2.016   1.799  0.3819  0.8042 -1.0338
  163OSM    C1118303   3.319   2.104   1.966 -0.3513 -0.1594 -0.9265
  163OSM   H11A18304   3.414   2.151   1.998 -0.3082 -1.3226  0.8019
  163OSM   H11B18305   3.330   2.013   2.028  0.8490 -0.2582 -1.2576
  163OSM      P18306   3.195   2.329   1.962  0.3092  0.1343 -0.3025
  163OSM    O1318307   3.278   2.359   1.845 -0.0807  0.2149  0.3640
  163OSM    O1418308   3.051   2.360   1.950  0.0799 -0.3456 -0.4675
  163OSM    O1118309   3.270   2.393   2.088  0.8172 -0.1258 -0.2735
  163OSM    O1218310   3.208   2.177   1.999  0.0674 -0.3727  0.2894
  163OSM    C1S18311   3.233   2.508   2.160  0.3571  0.1607 -0.4831
  163OSM    H1S18312   3.122   2.510   2.165  0.0003 -0.2977 -4.7697
  163OSM    H1T18313   3.280   2.596   2.112 -0.8287  0.9550 -0.2243
  163OSM     NF18314   3.255   2.631   2.372 -0.5781 -0.0389 -0.7817
  163OSM    HNF18315   3.334   2.689   2.390 -1.5907  1.1225  0.1200
  163OSM    C2S18316   3.290   2.501   2.305 -0.0054  0.1443  0.4548
  163OSM    H2S18317   3.238   2.419   2.360  3.0988 -1.5653  1.1250
  163OSM    C3S18318   3.440   2.458   2.313 -0.4783  0.1881 -0.2717
  163OSM    H3S18319   3.499   2.540   2.267  0.0963 -0.0189  0.0775
  163OSM     O318320   3.473   2.342   2.246 -0.9008 -0.3025 -0.2792
  163OSM    HO318321   3.401   2.326   2.184 -0.9139  0.5790 -0.4980
  163OSM    C4S18322   3.485   2.459   2.459  0.3869  0.3408  0.4613
  163OSM    H4S18323   3.567   2.527   2.484  0.1637  1.0573 -0.6738
  163OSM    C5S18324   3.448   2.369   2.560  0.0717 -0.5462  0.2097
  163OSM    H5S18325   3.366   2.300   2.534 -1.7898  2.0456 -1.3596
  163OSM    C6S18326   3.508   2.374   2.694 -0.3622 -0.7582  0.5083
  163OSM    H6S18327   3.619   2.384   2.692 -0.4266 -0.0075  0.5630
  163OSM    H6T18328   3.477   2.279   2.743  1.9572 -2.1626 -0.5368
  163OSM    C7S18329   3.466   2.489   2.787  0.1979  0.1342 -0.7647
  163OSM    H7S18330   3.356   2.501   2.777  0.4316  1.1788 -2.4370
  163OSM    H7T18331   3.518   2.580   2.750  1.2849  0.8583  2.2734
  163OSM    C8S18332   3.498   2.453   2.939  0.2415  0.0595  0.3373
  163OSM    H8S18333   3.606   2.439   2.958  0.4391 -0.1812 -0.8752
  163OSM    H8T18334   3.459   2.353   2.965 -0.3290  0.3024  0.4396
  163OSM    C9S18335   3.434   2.545   3.039 -0.6170  0.2609 -0.8805
  163OSM    H9S18336   3.327   2.555   3.010 -0.7397 -0.3184 -0.6267
  163OSM    H9T18337   3.493   2.639   3.039 -0.0343 -0.1027 -0.9520
  163OSM   C10S18338   3.440   2.493   3.182  0.4638 -0.3616  0.2242
  163OSM   H10S18339   3.544   2.463   3.208  0.2210 -0.2410  1.4030
  163OSM   H10T18340   3.365   2.412   3.199  1.6978 -1.2186  1.7928
  163OSM   C11S18341   3.407   2.611   3.276 -0.1704 -0.6684 -0.2556
  163OSM   H11S18342   3.348   2.685   3.218  0.3870 -0.6105 -0.7538
  163OSM   H11T18343   3.508   2.656   3.289 -0.1432  0.4552 -3.5555
  163OSM   C12S18344   3.336   2.584   3.416  0.0486  0.1842  0.2409
  163OSM   H12S18345   3.235   2.540   3.407 -0.1077  0.3439  1.1054
  163OSM   H12T18346   3.332   2.681   3.470  0.5382  0.8244 -0.8479
  163OSM   C13S18347   3.411   2.475   3.506  0.6751 -0.1558  0.3732
  163OSM   H13S18348   3.515   2.514   3.513  0.9307 -0.5146 -1.1351
  163OSM   H13T18349   3.423   2.383   3.445  0.1694 -0.3297  0.5309
  163OSM   C14S18350   3.345   2.448   3.640 -0.5024  0.2151 -0.7717
  163OSM   H14S18351   3.285   2.354   3.647  0.5705 -0.3520  3.2304
  163OSM   H14T18352   3.275   2.533   3.659 -0.0348  0.7425 -1.3935
  163OSM   C15S18353   3.445   2.430   3.752 -0.3117  0.4197 -0.0481
  163OSM   H15S18354   3.512   2.518   3.753  1.5785 -0.9379 -1.0569
  163OSM   H15T18355   3.504   2.340   3.727 -1.2837 -0.1180 -0.4811
  163OSM   C16S18356   3.388   2.411   3.897 -0.0999  0.1187 -0.3601
  163OSM   H16S18357   3.312   2.331   3.901 -1.3364  1.2758 -0.2152
  163OSM   H16T18358   3.332   2.504   3.920  1.8580  1.1972  0.3737
  163OSM   C17S18359   3.501   2.384   3.993  0.0890  0.1721 -0.1982
  163OSM   H17S18360   3.459   2.415   4.092  2.6684 -0.5636  1.2006
  163OSM   H17T18361   3.588   2.451   3.977  0.0350 -0.0561 -1.5316
  163OSM   C18S18362   3.563   2.245   3.982 -0.0919 -0.0939 -0.2555
  163OSM   H18S18363   3.487   2.167   4.001  2.2651 -3.0395 -1.9365
  163OSM   H18T18364   3.641   2.232   4.060 -1.5272  0.2563  1.2881
  163OSM   H18U18365   3.597   2.224   3.878  0.4345 -1.7038  0.2054
  163OSM    C1F18366   3.131   2.683   2.389 -0.2769  0.4736  0.1950
  163OSM     OF18367   3.032   2.634   2.337  0.2684 -0.0747 -0.4962
  163OSM    C2F18368   3.123   2.799   2.484 -0.4128 -0.2661 -0.2511
  163OSM    H2F18369   3.177   2.889   2.448  0.3984  1.1816  4.0023
  163OSM    H2G18370   3.170   2.776   2.581 -0.3445 -0.8809 -0.4260
  163OSM    C3F18371   2.975   2.832   2.520  0.0365 -1.1102 -0.2189
  163OSM    H3F18372   2.929   2.744   2.572 -3.2582  0.7983  0.3991
  163OSM    H3G18373   2.914   2.862   2.432  0.1435  0.9836  0.3746
  163OSM    C4F18374   2.964   2.958   2.604 -0.1371  0.4010 -1.0458
  163OSM    H4F18375   2.858   2.971   2.634 -0.3420  0.4560 -1.7708
  163OSM    H4G18376   3.000   3.055   2.563  0.3705  1.1844  1.1048
  163OSM    C5F18377   3.038   2.940   2.746  0.7705 -0.6027 -0.3092
  163OSM    H5F18378   3.039   3.043   2.788  2.5551 -0.1446 -1.3672
  163OSM    H5G18379   3.144   2.908   2.739  0.7023 -0.8547 -0.2001
  163OSM    C6F18380   2.956   2.840   2.834 -0.1883  0.8595  0.9780
  163OSM    H6F18381   2.966   2.739   2.790 -0.5076  0.4355  1.8564
  163OSM    H6G18382   2.847   2.860   2.848 -0.2143  0.7884  0.8782
  163OSM    C7F18383   3.021   2.835   2.978 -0.3584  0.0792  0.2433
  163OSM    H7F18384   3.129   2.858   2.971  0.6328 -3.5982  1.0417
  163OSM    H7G18385   3.029   2.738   3.032  0.7167 -1.1162 -1.8906
  163OSM    C8F18386   2.950   2.934   3.067 -0.6796 -0.7076 -0.9445
  163OSM    H8F18387   2.858   2.879   3.095 -1.8651  0.9956 -1.3493
  163OSM    H8G18388   2.920   3.022   3.006 -1.3867 -0.2214  0.0791
  163OSM    C9F18389   3.033   2.985   3.187 -0.5219  0.5194 -0.0515
  163OSM    H9F18390   3.136   3.013   3.161 -0.4466 -2.1895 -3.3718
  163OSM   C10F18391   2.983   2.985   3.311  0.9261  0.1075  0.4094
  163OSM   H10F18392   3.033   3.038   3.394 -0.6432  0.0714  1.4238
  163OSM   C11F18393   2.842   2.936   3.351  0.0280  0.2116 -0.5641
  163OSM   H11F18394   2.823   2.827   3.338  0.8328  0.1422 -1.2060
  163OSM   H11G18395   2.771   2.979   3.278  1.3140  1.5565 -1.0789
  163OSM   C12F18396   2.798   2.968   3.495  0.0673  0.0282 -0.8014
  163OSM   H12F18397   2.689   2.951   3.504  0.1893 -2.5820 -2.8553
  163OSM   H12G18398   2.822   3.076   3.497  0.3343 -0.0275 -0.9506
  163OSM   C13F18399   2.880   2.892   3.591  0.2445 -0.1795  0.0586
  163OSM   H13F18400   2.989   2.912   3.581  0.3702 -0.9580 -0.2802
  163OSM   H13G18401   2.858   2.785   3.569 -1.0923  0.4962 -2.2523
  163OSM   C14F18402   2.838   2.911   3.742  0.2737  0.7175 -0.2157
  163OSM   H14F18403   2.816   3.020   3.751  1.9197  1.3161 -2.6128
  163OSM   H14G18404   2.916   2.887   3.817 -0.8368  1.6556  1.3201
  163OSM   C15F18405   2.698   2.848   3.778 -0.5626  0.7087  0.6090
  163OSM   H15F18406   2.706   2.739   3.760 -2.1539  0.6385  0.1671
  163OSM   H15G18407   2.624   2.894   3.710  0.4617  2.0636  0.3685
  163OSM   C16F18408   2.669   2.864   3.925  0.5879 -0.6457  0.4960
  163OSM   H16F18409   2.649   2.968   3.959  1.7495 -0.0156 -0.6716
  163OSM   H16G18410   2.758   2.846   3.990  0.5695 -0.0607  0.6865
  163OSM   C17F18411   2.549   2.781   3.976  0.2348 -0.5145  0.3395
  163OSM   H17F18412   2.562   2.671   3.977  3.9987 -0.2031 -1.0967
  163OSM   H17G18413   2.471   2.796   3.898  1.7389 -0.4302 -1.1843
  163OSM   C18F18414   2.504   2.820   4.115  0.1915  0.6721 -0.2172
  163OSM   H18F18415   2.457   2.921   4.118  0.9403  1.1749 -2.7572
  163OSM   H18G18416   2.584   2.807   4.190 -0.0850 -1.3968 -0.2390
  163OSM   H18H18417   2.425   2.751   4.152  2.0415 -0.1235  2.5565
  164OSM      N18418   6.830   1.385   2.270  1.2131  0.8553 -0.2177
  164OSM    C1518419   6.795   1.259   2.195  0.4030  0.9340  0.3193
  164OSM   H15A18420   6.740   1.283   2.105  2.4350 -1.2242 -1.6722
  164OSM   H15B18421   6.723   1.202   2.251  0.8508 -0.3850 -0.4005
  164OSM   H15C18422   6.878   1.192   2.175  0.2776  0.2383  1.9490
  164OSM    C1418423   6.704   1.460   2.313 -0.0390  0.1212  0.2842
  164OSM   H14A18424   6.628   1.479   2.239 -1.2306 -0.5919  1.3042
  164OSM   H14B18425   6.737   1.558   2.345  0.2772  0.1620 -0.1494
  164OSM   H14C18426   6.665   1.416   2.404  0.6184  1.8031  1.4320
  164OSM    C1318427   6.911   1.352   2.385  0.0754  0.2833  0.3874
  164OSM   H13A18428   6.849   1.316   2.466 -0.6559 -0.0172 -0.2828
  164OSM   H13B18429   6.958   1.437   2.432  1.6596 -0.3604  0.0330
  164OSM   H13C18430   6.984   1.276   2.365 -0.0774  0.1054  0.4937
  164OSM    C1218431   6.903   1.477   2.168  0.8015 -0.0722  0.1123
  164OSM   H12A18432   6.832   1.499   2.090 -0.4061  0.1752  1.2353
  164OSM   H12B18433   6.989   1.429   2.123  0.3115  0.4955 -1.4809
  164OSM    C1118434   6.949   1.618   2.210  0.3467  0.3292  0.2064
  164OSM   H11A18435   6.865   1.687   2.187  1.4183  1.3868 -0.6847
  164OSM   H11B18436   7.034   1.659   2.150  0.4520  2.0063  1.4248
  164OSM      P18437   6.939   1.739   2.445  0.0575 -0.6616  0.0838
  164OSM    O1318438   7.004   1.870   2.424 -0.0802  0.1954  0.1331
  164OSM    O1418439   6.790   1.730   2.440 -0.4318 -0.1041  0.0205
  164OSM    O1118440   6.992   1.676   2.581 -0.8167  0.0066 -0.2022
  164OSM    O1218441   6.994   1.632   2.342 -1.0365 -0.0195 -0.2778
  164OSM    C1S18442   7.134   1.663   2.604  0.5214 -0.0971 -0.2773
  164OSM    H1S18443   7.167   1.767   2.621 -3.2658  0.9288  2.0778
  164OSM    H1T18444   7.187   1.619   2.517 -0.1107 -0.6061 -0.4134
  164OSM     NF18445   7.322   1.581   2.754 -0.5727 -0.0468 -0.4428
  164OSM    HNF18446   7.379   1.514   2.706 -0.3957  0.0643 -0.3871
  164OSM    C2S18447   7.174   1.571   2.729  0.0576  0.1034  0.0258
  164OSM    H2S18448   7.127   1.605   2.824 -0.0110  1.0478 -0.3404
  164OSM    C3S18449   7.110   1.432   2.707 -0.0642  0.1828  0.0484
  164OSM    H3S18450   7.154   1.381   2.619 -2.1644 -0.0523 -0.9310
  164OSM     O318451   6.970   1.432   2.673 -0.4638  0.0531  0.4466
  164OSM    HO318452   6.959   1.514   2.624  1.0842 -0.8617 -1.5796
  164OSM    C4S18453   7.141   1.346   2.831  0.0174 -0.4980  0.6550
  164OSM    H4S18454   7.250   1.331   2.839 -0.1530 -1.7426  0.8532
  164OSM    C5S18455   7.066   1.292   2.932 -0.1796  0.1575  0.0405
  164OSM    H5S18456   6.957   1.306   2.925 -0.1665  0.1980 -0.1062
  164OSM    C6S18457   7.129   1.205   3.030 -0.4278  0.4395 -0.4740
  164OSM    H6S18458   7.230   1.172   2.999 -0.3824 -1.2761  1.3151
  164OSM    H6T18459   7.073   1.109   3.038  2.2727 -1.2625 -0.7224
  164OSM    C7S18460   7.148   1.282   3.161 -0.0823  0.7648 -0.2803
  164OSM    H7S18461   7.210   1.234   3.240 -3.0876  0.1282  1.8729
  164OSM    H7T18462   7.054   1.301   3.217  0.4855  1.1286  0.5688
  164OSM    C8S18463   7.215   1.418   3.145  0.0911  0.0423 -0.0969
  164OSM    H8S18464   7.142   1.487   3.095  1.1705  2.4642  1.4796
  164OSM    H8T18465   7.307   1.410   3.084 -1.1409 -3.6242 -1.7707
  164OSM    C9S18466   7.249   1.486   3.279  0.3973 -0.2777 -0.6403
  164OSM    H9S18467   7.331   1.431   3.329 -0.7993 -1.0030  0.5907
  164OSM    H9T18468   7.165   1.461   3.347  1.7882  0.6209  1.5021
  164OSM   C10S18469   7.261   1.638   3.276 -0.0311 -0.3222 -0.5547
  164OSM   H10S18470   7.164   1.677   3.238  0.4181  1.7558  0.2891
  164OSM   H10T18471   7.348   1.668   3.213  0.9992  0.6502  1.2342
  164OSM   C11S18472   7.282   1.684   3.413 -0.7840 -0.1213 -0.8108
  164OSM   H11S18473   7.385   1.648   3.436 -0.6484  1.3811  1.2951
  164OSM   H11T18474   7.212   1.653   3.493 -0.0431  0.1345 -0.0426
  164OSM   C12S18475   7.279   1.838   3.423  0.6958  0.2951 -0.3845
  164OSM   H12S18476   7.180   1.874   3.387 -1.4591 -1.3604  3.3337
  164OSM   H12T18477   7.359   1.864   3.351  2.7407 -2.5975  0.6576
  164OSM   C13S18478   7.312   1.888   3.559  0.0450  0.1490  0.2399
  164OSM   H13S18479   7.397   1.827   3.596 -0.3481  0.2090  1.2687
  164OSM   H13T18480   7.218   1.877   3.617 -0.3334  0.7229 -0.2428
  164OSM   C14S18481   7.374   2.024   3.561  0.2789 -0.2070  0.7308
  164OSM   H14S18482   7.322   2.095   3.493  0.2841  0.2067  1.1559
  164OSM   H14T18483   7.478   2.008   3.525  0.5736 -0.8874  1.8293
  164OSM   C15S18484   7.375   2.086   3.706  0.0040  0.2901 -0.2100
  164OSM   H15S18485   7.410   2.006   3.775  0.6766  1.3347  0.7027
  164OSM   H15T18486   7.266   2.107   3.720 -0.0081  1.2627 -1.6059
  164OSM   C16S18487   7.452   2.213   3.720 -0.0571 -0.6265 -1.7560
  164OSM   H16S18488   7.428   2.284   3.638 -2.0126  0.8217 -0.0099
  164OSM   H16T18489   7.559   2.183   3.709  0.5522  0.2533  1.0506
  164OSM   C17S18490   7.441   2.284   3.847  0.4301  0.3986  0.2480
  164OSM   H17S18491   7.476   2.214   3.926 -0.0268 -0.0243  0.0756
  164OSM   H17T18492   7.337   2.318   3.867  0.6037  1.1604 -0.0953
  164OSM   C18S18493   7.531   2.407   3.858 -0.0200 -0.7159 -0.8198
  164OSM   H18S18494   7.638   2.388   3.835  0.3041  0.5275 -0.4303
  164OSM   H18T18495   7.524   2.449   3.961 -0.7522  0.6302 -1.4052
  164OSM   H18U18496   7.491   2.490   3.797 -0.5538  0.5460  1.1310
  164OSM    C1F18497   7.386   1.689   2.793  0.4898 -0.1742 -0.1588
  164OSM     OF18498   7.504   1.698   2.766  0.1713 -0.2939  0.2414
  164OSM    C2F18499   7.314   1.782   2.882  0.2029  0.0110  0.0815
  164OSM    H2F18500   7.266   1.734   2.970  0.8436 -2.2168 -0.7079
  164OSM    H2G18501   7.241   1.839   2.821 -1.1428 -2.8538 -1.1691
  164OSM    C3F18502   7.407   1.893   2.960  0.2015  0.0629  0.2853
  164OSM    H3F18503   7.468   1.939   2.879  0.5299  0.0704  0.5381
  164OSM    H3G18504   7.474   1.830   3.023  1.3193 -0.3091 -1.2210
  164OSM    C4F18505   7.326   1.993   3.038  0.0769  0.1432 -0.0164
  164OSM    H4F18506   7.252   1.935   3.096  0.8992  0.0971  1.0339
  164OSM    H4G18507   7.283   2.064   2.965  2.0548 -0.1053 -1.5221
  164OSM    C5F18508   7.404   2.076   3.143 -0.2164  0.3806  0.1053
  164OSM    H5F18509   7.500   2.098   3.091 -1.3060  0.6482 -1.8874
  164OSM    H5G18510   7.430   2.004   3.223  0.8341 -2.8326 -2.8775
  164OSM    C6F18511   7.326   2.198   3.190  0.1015 -0.9435  0.4443
  164OSM    H6F18512   7.305   2.189   3.299 -1.0412 -0.1055  0.3081
  164OSM    H6G18513   7.238   2.215   3.125  1.0003  2.0959 -0.0914
  164OSM    C7F18514   7.426   2.316   3.184 -0.2049  0.3755  0.4486
  164OSM    H7F18515   7.374   2.414   3.192 -3.5232 -1.1760 -0.1813
  164OSM    H7G18516   7.477   2.321   3.085  0.4599 -3.0225  0.4941
  164OSM    C8F18517   7.531   2.312   3.290  0.0224 -0.0662  0.4103
  164OSM    H8F18518   7.573   2.210   3.299  0.7433  0.1998  0.1398
  164OSM    H8G18519   7.478   2.340   3.383 -2.4336  0.9643 -1.1953
  164OSM    C9F18520   7.646   2.409   3.262  0.3424 -1.0076 -1.1564
  164OSM    H9F18521   7.746   2.370   3.238  2.1559  3.2063 -1.3402
  164OSM   C10F18522   7.653   2.542   3.301  0.3921  0.3148  0.4776
  164OSM   H10F18523   7.732   2.617   3.290  0.0685  0.6154  0.1567
  164OSM   C11F18524   7.525   2.608   3.360 -0.5162  0.3931 -0.1677
  164OSM   H11F18525   7.442   2.535   3.360 -0.6854  0.5091  2.3897
  164OSM   H11G18526   7.500   2.682   3.281  3.4322 -0.4244 -2.4844
  164OSM   C12F18527   7.525   2.656   3.507 -0.2416  0.0584 -0.0126
  164OSM   H12F18528   7.514   2.568   3.574 -0.8010 -1.4952 -2.0354
  164OSM   H12G18529   7.437   2.723   3.517 -0.4744 -0.4352  1.3726
  164OSM   C13F18530   7.651   2.738   3.544  0.0719  0.1040  0.6285
  164OSM   H13F18531   7.633   2.840   3.504 -1.0100 -0.4793 -0.4837
  164OSM   H13G18532   7.732   2.687   3.488 -0.9228 -1.1522  0.2827
  164OSM   C14F18533   7.684   2.735   3.686 -0.3360  0.2486 -0.2867
  164OSM   H14F18534   7.722   2.636   3.720  0.1765  0.2322 -0.9070
  164OSM   H14G18535   7.596   2.758   3.750 -1.1340 -0.2782 -1.1865
  164OSM   C15F18536   7.792   2.842   3.711  0.8762 -0.7190  0.4762
  164OSM   H15F18537   7.797   2.862   3.821 -0.7104 -1.0103  0.6393
  164OSM   H15G18538   7.750   2.933   3.664  1.1234 -1.5702 -1.4741
  164OSM   C16F18539   7.933   2.817   3.648  0.9839  0.2168  0.8058
  164OSM   H16F18540   7.923   2.799   3.539 -0.0188  2.1783  0.5148
  164OSM   H16G18541   7.989   2.742   3.707 -0.0523 -2.8679 -1.8503
  164OSM   C17F18542   8.030   2.938   3.655 -0.3160 -0.4582  0.6009
  164OSM   H17F18543   8.000   3.010   3.575 -0.8007 -0.2488  0.9705
  164OSM   H17G18544   8.135   2.909   3.632 -0.7989 -1.7389 -0.1158
  164OSM   C18F18545   8.029   3.014   3.787  0.0498 -0.3513 -0.0179
  164OSM   H18F18546   8.050   2.945   3.871 -2.8878 -1.8640 -0.3928
  164OSM   H18G18547   7.927   3.047   3.815  0.0571 -1.2392  1.1286
  164OSM   H18H18548   8.086   3.107   3.766  0.3519 -0.4588  0.3295
  165SAPS     N18549   3.313   4.709   6.703  0.5724  0.1839  0.1692
  165SAPS   HN118550   3.217   4.746   6.716 -0.3404 -2.4052  1.3499
  165SAPS   HN218551   3.312   4.659   6.612 -1.8471 -1.6081  1.0823
  165SAPS   HN318552   3.337   4.651   6.786 -0.5360 -0.0257  0.3499
  165SAPS   C1218553   3.404   4.832   6.672  0.6185 -0.0119 -0.4713
  165SAPS  H12A18554   3.364   4.912   6.732 -2.0653 -2.6958  1.6165
  165SAPS   C1318555   3.555   4.816   6.708  0.1669  0.6006  0.3981
  165SAPS  O13A18556   3.610   4.708   6.734 -0.3080  0.5700 -0.9056
  165SAPS  O13B18557   3.630   4.917   6.691  0.3524 -0.2023  0.3646
  165SAPS   C1118558   3.391   4.856   6.516 -0.1478 -0.6916  0.3256
  165SAPS  H11A18559   3.438   4.774   6.458  2.0970  1.4521 -1.1257
  165SAPS  H11B18560   3.447   4.952   6.511 -0.1061 -0.5300  2.7596
  165SAPS     P18561   3.215   5.003   6.382  0.4728  0.0941  0.0796
  165SAPS   O1318562   3.095   4.975   6.302 -0.1845  0.0378  0.4769
  165SAPS   O1418563   3.209   5.124   6.467 -0.1832  0.0179  0.2165
  165SAPS   O1218564   3.257   4.871   6.471  0.1620 -0.4372  0.6791
  165SAPS   O1118565   3.345   5.016   6.280  0.1421  0.4051 -0.5834
  165SAPS    C118566   3.374   5.136   6.216  0.6661  0.1413  1.2029
  165SAPS    HA18567   3.331   5.222   6.272 -0.8033 -0.0977  0.4759
  165SAPS    HB18568   3.482   5.152   6.193  0.5852 -1.9461 -1.0350
  165SAPS    C218569   3.311   5.133   6.073  0.2012  0.2679  0.2304
  165SAPS    HS18570   3.207   5.095   6.087  0.9991 -1.5985  1.6279
  165SAPS   O2118571   3.387   5.043   5.995 -0.6042 -0.3825 -0.1259
  165SAPS   C2118572   3.314   4.984   5.893  0.8422 -0.3486 -0.9658
  165SAPS   O2218573   3.192   4.998   5.879 -0.2810  0.5035 -0.0064
  165SAPS   C2218574   3.407   4.885   5.809  0.4299  0.2264  0.0816
  165SAPS   H2R18575   3.452   4.807   5.875 -0.3944 -0.0463  0.3300
  165SAPS   H2S18576   3.335   4.832   5.744  2.0542 -1.9318 -0.0834
  165SAPS    C318577   3.318   5.273   6.008  0.3540  0.0528 -0.2852
  165SAPS    HX18578   3.423   5.307   6.012  0.0451  0.9064  1.9449
  165SAPS    HY18579   3.264   5.351   6.065  0.0020  0.0247 -0.5727
  165SAPS   O3118580   3.283   5.278   5.869  0.3184  0.4383  0.9385
  165SAPS   C3118581   3.158   5.293   5.832 -0.2872  0.8053 -0.1517
  165SAPS   O3218582   3.070   5.294   5.919 -0.2875  0.4648  0.0539
  165SAPS   C3218583   3.130   5.276   5.680 -0.7599 -0.2868  0.6615
  165SAPS   H2X18584   3.197   5.193   5.651 -0.5128  0.9348 -2.7176
  165SAPS   H2Y18585   3.162   5.368   5.626  0.7258 -1.8616 -1.2784
  165SAPS   C2318586   3.519   4.947   5.724  0.3109 -0.7740  0.5462
  165SAPS   H3R18587   3.578   4.861   5.686 -0.0019 -0.9413  0.4427
  165SAPS   H3S18588   3.585   4.994   5.801  0.3274 -0.2381  0.2094
  165SAPS   C2418589   3.479   5.049   5.617  0.3351  0.0580 -0.6028
  165SAPS   H4R18590   3.575   5.095   5.583  0.9908 -1.4912 -0.9122
  165SAPS   H4S18591   3.423   5.132   5.665  1.2507 -0.4856  1.5647
  165SAPS   C2518592   3.405   4.982   5.503  0.1452 -0.5492 -0.0602
  165SAPS   H5R18593   3.306   4.945   5.534  0.0360 -0.1711  0.0373
  165SAPS   C2618594   3.441   4.964   5.368 -0.5290  0.0008 -0.2701
  165SAPS   H6R18595   3.373   4.913   5.299 -0.2075  0.5716 -1.0177
  165SAPS   C2718596   3.575   4.996   5.309 -0.3677  0.0912 -0.8574
  165SAPS   H7R18597   3.646   4.912   5.299  0.9878  0.7355  2.1551
  165SAPS   H7S18598   3.635   5.063   5.375 -1.3161  0.7774 -0.6642
  165SAPS   C2818599   3.544   5.059   5.177 -0.2843  0.1137  0.9759
  165SAPS   H8R18600   3.458   5.127   5.173 -0.8154 -0.3885  3.0093
  165SAPS   C2918601   3.622   5.041   5.065 -0.3981  0.3209  0.3727
  165SAPS   H9R18602   3.577   5.085   4.975  0.0534 -0.7197 -0.3808
  165SAPS  C21018603   3.735   4.943   5.045  0.1863 -0.0840 -0.6917
  165SAPS  H10R18604   3.710   4.879   4.958  1.4182 -1.8450  0.1728
  165SAPS  H10S18605   3.740   4.870   5.129 -1.0493  2.4943  1.8259
  165SAPS  C21118606   3.872   5.011   5.016  0.0589 -0.3921  0.5808
  165SAPS  H11R18607   3.932   5.023   5.107 -1.5779 -1.5502  1.8904
  165SAPS  C21218608   3.917   5.048   4.894 -0.4840  0.0767 -0.9574
  165SAPS  H12R18609   4.017   5.095   4.891 -0.9013  1.1011  0.4856
  165SAPS  C21318610   3.850   5.060   4.766 -0.1790 -0.3065 -0.3305
  165SAPS  H13R18611   3.742   5.040   4.780  0.4380 -2.4146  2.3441
  165SAPS  H13S18612   3.890   4.976   4.705  0.6250  0.2896 -0.6460
  165SAPS  C21418613   3.863   5.194   4.695  0.0881 -0.0503  1.1694
  165SAPS  H14R18614   3.871   5.282   4.761 -1.2583  0.1473  1.0850
  165SAPS  C21518615   3.844   5.223   4.566  0.0045  0.3309  0.5446
  165SAPS  H15R18616   3.855   5.326   4.529 -2.1081  0.0836 -0.9128
  165SAPS  C21618617   3.819   5.121   4.457 -0.2118 -0.0850  0.4959
  165SAPS  H16R18618   3.713   5.116   4.425  0.3444 -1.6862 -1.3142
  165SAPS  H16S18619   3.845   5.016   4.485 -2.1968 -0.6664  0.3093
  165SAPS  C21718620   3.896   5.169   4.330  0.9331 -0.0554  0.0850
  165SAPS  H17R18621   3.863   5.273   4.309 -0.8160 -0.4011  0.9501
  165SAPS  H17S18622   3.869   5.104   4.244  1.0861  0.3012 -0.2364
  165SAPS  C21818623   4.051   5.178   4.338  0.5744  0.6184 -0.2233
  165SAPS  H18R18624   4.082   5.102   4.413 -3.5381 -2.6485 -1.4340
  165SAPS  H18S18625   4.070   5.264   4.405  0.4444 -0.4039  1.1674
  165SAPS  C21918626   4.116   5.195   4.199 -0.1287  0.3007 -0.7130
  165SAPS  H19R18627   4.197   5.268   4.218  0.3003 -0.3755  0.1409
  165SAPS  H19S18628   4.048   5.253   4.134 -1.2646  1.9250  1.7900
  165SAPS  C22018629   4.169   5.067   4.138  0.1567  0.2400 -0.0500
  165SAPS  H20R18630   4.198   5.075   4.031  1.0216  0.2695  0.1765
  165SAPS  H20S18631   4.089   4.991   4.146  0.4118 -0.2292 -1.5982
  165SAPS  H20T18632   4.257   5.034   4.198  1.8873  2.0392 -1.4407
  165SAPS   C3318633   2.988   5.239   5.632  0.1646  0.7935 -0.1788
  165SAPS   H3X18634   2.911   5.292   5.691 -1.4089 -0.9523 -0.5583
  165SAPS   H3Y18635   2.977   5.128   5.631  0.8436  0.6064  2.9213
  165SAPS   C3418636   2.974   5.284   5.487 -0.3896 -0.3508  0.3762
  165SAPS   H4X18637   2.990   5.394   5.493  1.1153 -0.4205 -1.2579
  165SAPS   H4Y18638   2.872   5.267   5.447 -0.7878  0.1693  1.1527
  165SAPS   C3518639   3.072   5.224   5.384 -0.3292 -0.6680 -0.2312
  165SAPS   H5X18640   3.052   5.116   5.368 -2.9446 -0.4726  1.2513
  165SAPS   H5Y18641   3.171   5.243   5.431 -0.2676 -3.7458  1.1024
  165SAPS   C3618642   3.074   5.292   5.243 -0.3583 -0.5104 -0.2817
  165SAPS   H6X18643   3.103   5.399   5.245 -1.2969 -0.2415 -0.2088
  165SAPS   H6Y18644   2.966   5.282   5.216 -0.1911 -2.8551 -0.2857
  165SAPS   C3718645   3.165   5.228   5.136  0.2586  0.1630 -0.0101
  165SAPS   H7X18646   3.139   5.122   5.116 -0.8792  0.0225  1.9646
  165SAPS   H7Y18647   3.271   5.229   5.171  0.2401 -1.5732  0.1587
  165SAPS   C3818648   3.169   5.307   5.004 -0.1290  0.0895  0.5853
  165SAPS   H8X18649   3.258   5.281   4.943 -0.8129  2.5828 -1.6385
  165SAPS   H8Y18650   3.182   5.416   5.022  3.3112  0.0279 -0.8169
  165SAPS   C3918651   3.049   5.272   4.901 -0.0132 -0.1160  0.5788
  165SAPS   H9X18652   2.950   5.305   4.938 -0.0175  1.8769 -1.0522
  165SAPS   H9Y18653   3.055   5.162   4.891 -2.5427 -0.2286 -0.3932
  165SAPS  C31018654   3.069   5.329   4.764 -0.6249 -1.0341 -0.0726
  165SAPS  H10X18655   3.177   5.314   4.741 -0.6379  0.5206 -1.2574
  165SAPS  H10Y18656   3.053   5.439   4.764 -1.1503 -1.1096 -0.4322
  165SAPS  C31118657   2.974   5.268   4.648  0.2582 -0.6011 -0.5259
  165SAPS  H11X18658   2.870   5.274   4.686  0.0870  0.0662 -1.0891
  165SAPS  H11Y18659   3.016   5.165   4.639  1.6699 -0.0332 -0.8206
  165SAPS  C31218660   3.010   5.334   4.517 -0.7505 -0.1123  0.3799
  165SAPS  H12X18661   3.118   5.330   4.493 -0.5441  1.2405  1.0140
  165SAPS  H12Y18662   2.983   5.441   4.525  3.1321  1.0953 -0.6248
  165SAPS  C31318663   2.925   5.280   4.399  0.0201 -0.0536 -0.2420
  165SAPS  H13X18664   2.933   5.170   4.392  0.7818 -0.0728  0.7866
  165SAPS  H13Y18665   2.963   5.342   4.315 -0.2982  2.2675  1.2164
  165SAPS  C31418666   2.776   5.315   4.412 -0.1854 -0.6004  0.3756
  165SAPS  H14X18667   2.771   5.424   4.435  0.9708 -0.5720  0.5500
  165SAPS  H14Y18668   2.734   5.270   4.505  1.0283 -0.9763  0.7653
  165SAPS  C31518669   2.680   5.281   4.296  0.1816  0.5041 -0.5448
  165SAPS  H15X18670   2.585   5.339   4.308  0.6916  0.8406  2.7817
  165SAPS  H15Y18671   2.655   5.173   4.299  3.5717 -0.5020 -2.7687
  165SAPS  C31618672   2.729   5.317   4.157 -0.6716  0.2152  0.1044
  165SAPS  H16X18673   2.657   5.267   4.089  0.5082 -0.6433 -0.5302
  165SAPS  H16Y18674   2.827   5.267   4.143 -0.8322  0.0823 -0.5924
  165SAPS  C31718675   2.731   5.466   4.126 -0.1021 -0.5656  0.0382
  165SAPS  H17X18676   2.756   5.477   4.018  1.4731 -0.7995  0.3475
  165SAPS  H17Y18677   2.809   5.515   4.189  0.9789  0.8862 -2.3171
  165SAPS  C31818678   2.599   5.543   4.154 -0.3434 -0.9889  0.4116
  165SAPS  H18X18679   2.591   5.639   4.097 -1.6950 -1.0558  0.4508
  165SAPS  H18Y18680   2.607   5.578   4.259 -1.1893 -0.5969  0.3518
  165SAPS  H18Z18681   2.513   5.475   4.138  1.5916 -3.4951  0.1291
  166SAPS     N18682   0.258   6.045   6.687 -0.0068 -0.7023  0.2934
  166SAPS   HN118683   0.256   6.038   6.790  0.2538 -0.7671  0.2953
  166SAPS   HN218684   0.326   6.122   6.669 -0.6315 -0.3215 -0.5264
  166SAPS   HN318685   0.160   6.064   6.659  0.5707  1.8890 -0.2223
  166SAPS   C1218686   0.298   5.910   6.644 -0.3741 -0.0829  0.1818
  166SAPS  H12A18687   0.320   5.912   6.538 -1.6493  2.5001 -0.1201
  166SAPS   C1318688   0.407   5.838   6.740  0.2187  0.3949 -0.4435
  166SAPS  O13A18689   0.447   5.915   6.835  0.5353  0.3382 -0.2917
  166SAPS  O13B18690   0.482   5.742   6.699  0.1696 -0.6345  0.1691
  166SAPS   C1118691   0.176   5.826   6.660 -0.5107 -0.0188  0.2189
  166SAPS  H11A18692   0.151   5.805   6.767  0.8560 -1.3699  0.3107
  166SAPS  H11B18693   0.206   5.726   6.621  0.3488  0.4773 -0.4021
  166SAPS     P18694   0.008   5.797   6.462  0.1142  0.1481 -0.5907
  166SAPS   O1318695   0.002   5.656   6.498 -0.5698 -0.1735 -0.1882
  166SAPS   O1418696  -0.122   5.853   6.426 -0.0650 -0.3003  0.3120
  166SAPS   O1218697   0.063   5.875   6.589 -0.0905 -0.2784  0.2458
  166SAPS   O1118698   0.114   5.798   6.343 -0.4693 -0.3364  0.2170
  166SAPS    C118699   0.160   5.921   6.278  0.3124 -0.2253 -0.1697
  166SAPS    HA18700   0.146   6.005   6.349  2.1496  0.1182 -0.1724
  166SAPS    HB18701   0.266   5.913   6.248  0.3379  0.8802 -0.3929
  166SAPS    C218702   0.072   5.957   6.152 -0.1543  0.3917 -1.0390
  166SAPS    HS18703  -0.036   5.968   6.174 -0.3042  1.8845 -2.3318
  166SAPS   O2118704   0.095   5.857   6.049  0.2505  0.1173 -0.5977
  166SAPS   C2118705  -0.011   5.768   6.030  0.0157 -0.2397 -0.3912
  166SAPS   O2218706  -0.120   5.775   6.078 -0.3292 -0.2319 -0.1924
  166SAPS   C2218707   0.042   5.652   5.944  0.1484  0.6129  0.2426
  166SAPS   H2R18708   0.137   5.685   5.897  1.1594 -1.9607  0.3119
  166SAPS   H2S18709   0.086   5.579   6.015  3.2671  0.1228 -2.0087
  166SAPS    C318710   0.110   6.098   6.105 -0.8724 -0.4828 -0.8626
  166SAPS    HX18711   0.218   6.093   6.078 -1.0782 -2.0112 -1.4831
  166SAPS    HY18712   0.089   6.174   6.183  0.6514 -0.1866 -0.6978
  166SAPS   O3118713   0.031   6.136   5.994 -0.1740  0.2105 -0.0647
  166SAPS   C3118714   0.053   6.264   5.954  0.4806 -0.5374  0.3803
  166SAPS   O3218715   0.131   6.342   6.004  0.1773 -0.5493  0.2530
  166SAPS   C3218716  -0.039   6.285   5.835  0.1025 -0.1907 -0.9172
  166SAPS   H2X18717  -0.130   6.229   5.865 -0.3334  0.5640 -0.7993
  166SAPS   H2Y18718  -0.007   6.244   5.737 -1.3400 -1.8686 -0.7266
  166SAPS   C2318719  -0.062   5.576   5.851 -0.6820  0.7111  0.5802
  166SAPS   H3R18720  -0.163   5.568   5.896 -1.5051 -0.7070 -1.4045
  166SAPS   H3S18721  -0.040   5.467   5.840  2.8172  1.3230  0.3554
  166SAPS   C2418722  -0.074   5.623   5.706  0.1991 -0.0553 -1.0634
  166SAPS   H4R18723  -0.117   5.546   5.639  0.8818 -1.4824  0.0635
  166SAPS   H4S18724   0.024   5.635   5.656  0.7529 -3.2468 -0.9797
  166SAPS   C2518725  -0.152   5.755   5.693  0.4257  0.3624 -0.5522
  166SAPS   H5R18726  -0.256   5.760   5.729  0.3190  0.2645 -0.8442
  166SAPS   C2618727  -0.114   5.872   5.647  0.2150  0.1652 -0.5260
  166SAPS   H6R18728  -0.189   5.952   5.649 -0.3985 -0.3973 -0.3793
  166SAPS   C2718729   0.024   5.899   5.592 -0.5772 -0.0790 -0.7130
  166SAPS   H7R18730   0.028   5.987   5.524  2.9815  0.6371  0.2199
  166SAPS   H7S18731   0.067   5.818   5.529 -0.3446 -0.9715  0.5586
  166SAPS   C2818732   0.134   5.932   5.691 -0.4953  0.6534 -0.1020
  166SAPS   H8R18733   0.122   5.917   5.799 -0.5520 -0.2270 -0.2245
  166SAPS   C2918734   0.262   5.960   5.645  0.3790 -0.0067  0.5465
  166SAPS   H9R18735   0.338   5.977   5.724  0.7760  1.9809 -0.1892
  166SAPS  C21018736   0.319   5.980   5.506 -0.8989 -0.3518 -0.3646
  166SAPS  H10R18737   0.338   6.089   5.508 -1.0757 -0.3234  1.9289
  166SAPS  H10S18738   0.244   5.969   5.425 -1.2750 -1.2748  0.0934
  166SAPS  C21118739   0.442   5.890   5.483  0.8297 -0.2822 -0.0833
  166SAPS  H11R18740   0.434   5.787   5.520  1.9324 -0.6915 -0.9162
  166SAPS  C21218741   0.561   5.932   5.432 -0.0690 -0.2049  0.1023
  166SAPS  H12R18742   0.639   5.855   5.422 -0.2807 -0.3988 -0.0513
  166SAPS  C21318743   0.580   6.068   5.368 -0.6166  0.3224  0.6740
  166SAPS  H13R18744   0.607   6.145   5.443  0.9311 -1.3247  1.9229
  166SAPS  H13S18745   0.482   6.099   5.326 -1.0708  0.4833  1.8101
  166SAPS  C21418746   0.694   6.079   5.267  0.6528  0.6028 -0.1978
  166SAPS  H14R18747   0.798   6.066   5.300 -0.0114  0.4823  2.0337
  166SAPS  C21518748   0.675   6.122   5.141 -0.3833 -0.2209 -0.2996
  166SAPS  H15R18749   0.765   6.132   5.078 -0.4393 -0.1757 -0.3745
  166SAPS  C21618750   0.542   6.147   5.076 -0.1074 -0.3895 -1.0269
  166SAPS  H16R18751   0.460   6.085   5.119 -0.6094  1.4552  0.8280
  166SAPS  H16S18752   0.552   6.132   4.966 -0.2791  1.4036 -1.3210
  166SAPS  C21718753   0.500   6.292   5.091  0.8447  0.5374 -0.1303
  166SAPS  H17R18754   0.480   6.330   5.194 -0.3143  0.5052 -0.3319
  166SAPS  H17S18755   0.399   6.298   5.046  0.0853 -0.6625  1.3415
  166SAPS  C21818756   0.588   6.394   5.011 -0.0118  0.0191  0.5137
  166SAPS  H18R18757   0.615   6.348   4.914 -1.7691 -1.6424  0.7558
  166SAPS  H18S18758   0.678   6.402   5.076 -0.2633 -1.7831  1.1601
  166SAPS  C21918759   0.519   6.527   5.001  0.2367  0.3121 -0.2215
  166SAPS  H19R18760   0.439   6.539   4.924 -0.5328  3.9328  0.9227
  166SAPS  H19S18761   0.607   6.589   4.976  2.0280 -1.2418  1.8551
  166SAPS  C22018762   0.440   6.574   5.124 -0.8555  0.2773 -0.4447
  166SAPS  H20R18763   0.355   6.503   5.129 -0.8147  0.2706  0.3852
  166SAPS  H20S18764   0.404   6.679   5.116 -0.0666  0.8356  2.2240
  166SAPS  H20T18765   0.500   6.567   5.217 -2.7556  1.7874  0.9818
  166SAPS   C3318766  -0.068   6.438   5.846 -0.3499 -0.0418  0.0193
  166SAPS   H3X18767   0.021   6.490   5.803  0.7105 -0.4858  1.6212
  166SAPS   H3Y18768  -0.093   6.480   5.946  0.2071 -1.6222  0.8514
  166SAPS   C3418769  -0.199   6.473   5.765  0.1239  0.7244  0.5268
  166SAPS   H4X18770  -0.278   6.409   5.811  1.2080 -0.9725  0.1170
  166SAPS   H4Y18771  -0.179   6.427   5.666 -0.7956  4.4369 -1.5333
  166SAPS   C3518772  -0.231   6.618   5.765  0.4036 -0.4586  0.1901
  166SAPS   H5X18773  -0.218   6.668   5.863 -2.7432 -2.3162  1.6915
  166SAPS   H5Y18774  -0.337   6.639   5.742  0.3599 -0.1480  0.6625
  166SAPS   C3618775  -0.152   6.700   5.657 -0.4434  0.5077 -0.2454
  166SAPS   H6X18776  -0.044   6.682   5.674 -1.0520 -1.6576  1.9474
  166SAPS   H6Y18777  -0.175   6.808   5.672  1.0746  0.7972  0.1165
  166SAPS   C3718778  -0.186   6.669   5.515 -0.2280 -0.1893 -0.2569
  166SAPS   H7X18779  -0.137   6.571   5.498  1.8964  1.2151 -2.9488
  166SAPS   H7Y18780  -0.130   6.747   5.458 -0.1566 -0.1556 -0.1425
  166SAPS   C3818781  -0.335   6.688   5.478  0.0034  0.2881  0.0670
  166SAPS   H8X18782  -0.379   6.782   5.517 -3.1427 -1.4197  0.9781
  166SAPS   H8Y18783  -0.382   6.597   5.521 -0.0131 -0.4981 -1.5141
  166SAPS   C3918784  -0.360   6.672   5.333 -0.1527 -0.2440 -0.1260
  166SAPS   H9X18785  -0.288   6.601   5.288  1.5606  1.3874 -0.1065
  166SAPS   H9Y18786  -0.326   6.771   5.295  1.8668 -0.2396  1.4644
  166SAPS  C31018787  -0.506   6.645   5.306 -0.5214  0.3078  0.2552
  166SAPS  H10X18788  -0.577   6.723   5.343 -1.5419  0.1180 -1.2335
  166SAPS  H10Y18789  -0.526   6.547   5.353  2.3020 -1.4624 -1.9100
  166SAPS  C31118790  -0.536   6.629   5.157  0.1114 -0.3364 -0.1930
  166SAPS  H11X18791  -0.634   6.578   5.147  0.0644 -0.2440 -0.2047
  166SAPS  H11Y18792  -0.459   6.562   5.114  1.3769  0.3749  0.8633
  166SAPS  C31218793  -0.525   6.754   5.075 -0.0985  0.1420  0.4392
  166SAPS  H12X18794  -0.427   6.804   5.084 -0.6955  1.3950  0.2194
  166SAPS  H12Y18795  -0.602   6.829   5.103 -0.7455 -0.0587 -0.7235
  166SAPS  C31318796  -0.553   6.716   4.929 -0.3853  0.0294  0.0871
  166SAPS  H13X18797  -0.614   6.623   4.935 -0.8905  0.2325 -1.4003
  166SAPS  H13Y18798  -0.454   6.696   4.883 -1.2649 -1.2425 -1.3671
  166SAPS  C31418799  -0.635   6.821   4.850 -0.5236 -0.0407 -0.5110
  166SAPS  H14X18800  -0.594   6.918   4.884  1.3378 -1.3005  1.1159
  166SAPS  H14Y18801  -0.740   6.800   4.878 -0.5151 -0.9458 -1.0993
  166SAPS  C31518802  -0.619   6.804   4.697 -0.1665 -0.1367 -0.1371
  166SAPS  H15X18803  -0.697   6.861   4.644  0.5186  0.4034 -0.5876
  166SAPS  H15Y18804  -0.648   6.698   4.682  1.0631 -0.6563  0.8955
  166SAPS  C31618805  -0.475   6.819   4.643 -0.0424  0.7895  0.0143
  166SAPS  H16X18806  -0.490   6.788   4.538 -1.6466 -0.0643  0.4500
  166SAPS  H16Y18807  -0.405   6.746   4.690  1.8215  1.2262 -1.9414
  166SAPS  C31718808  -0.416   6.955   4.656 -0.0681 -0.3788 -0.0065
  166SAPS  H17X18809  -0.416   6.983   4.764 -0.0510 -1.1168  0.1932
  166SAPS  H17Y18810  -0.482   7.031   4.610 -1.2777 -0.5279  1.4008
  166SAPS  C31818811  -0.273   6.952   4.589  0.3975 -0.3940  0.4072
  166SAPS  H18X18812  -0.196   6.878   4.622  0.5443  0.4194  1.9433
  166SAPS  H18Y18813  -0.234   7.056   4.581 -2.4097  0.5974 -3.8744
  166SAPS  H18Z18814  -0.293   6.930   4.481  0.7425  1.1612  0.0089
  167SAPS     N18815   4.474   6.525   6.246  0.0812 -0.0202  0.4171
  167SAPS   HN118816   4.424   6.571   6.167  1.4764  0.1346 -0.4064
  167SAPS   HN218817   4.574   6.545   6.231 -0.4509  2.0190 -0.7423
  167SAPS   HN318818   4.453   6.423   6.241  2.3555 -0.5192  0.0219
  167SAPS   C1218819   4.445   6.586   6.374 -0.4746  0.2630 -0.3199
  167SAPS  H12A18820   4.338   6.585   6.388 -0.2257 -0.1328  1.8624
  167SAPS   C1318821   4.492   6.505   6.496 -0.3381 -0.5035 -0.3214
  167SAPS  O13A18822   4.550   6.389   6.483 -0.0918 -0.0827  0.9159
  167SAPS  O13B18823   4.467   6.541   6.612  0.1663  0.0945  0.1603
  167SAPS   C1118824   4.504   6.727   6.378 -0.6725 -0.2690 -0.2626
  167SAPS  H11A18825   4.490   6.776   6.476 -0.0681  0.7119 -0.6450
  167SAPS  H11B18826   4.445   6.784   6.303  0.8166 -1.8136 -2.7544
  167SAPS     P18827   4.725   6.856   6.309 -0.1910 -0.1194  0.0529
  167SAPS   O1318828   4.691   6.964   6.402  0.8666  0.0661 -1.2846
  167SAPS   O1418829   4.870   6.825   6.306 -0.5175  0.4099  0.6593
  167SAPS   O1218830   4.649   6.723   6.354 -0.3035  0.2801 -0.0416
  167SAPS   O1118831   4.669   6.897   6.167 -0.1784 -0.2473 -0.5746
  167SAPS    C118832   4.641   6.807   6.062 -0.2547  0.9334 -0.4610
  167SAPS    HA18833   4.611   6.710   6.106  2.5791  0.0044 -0.3847
  167SAPS    HB18834   4.558   6.856   6.006  1.3272  2.2956 -1.7250
  167SAPS    C218835   4.757   6.795   5.952  0.6774  0.3137 -0.3535
  167SAPS    HS18836   4.850   6.766   6.006  0.1630 -0.5891  0.0614
  167SAPS   O2118837   4.762   6.922   5.875 -0.2561  0.1372 -0.0815
  167SAPS   C2118838   4.843   7.014   5.926 -0.0031 -0.7038 -0.1308
  167SAPS   O2218839   4.939   6.993   6.002  0.0767 -0.2428 -0.0173
  167SAPS   C2218840   4.794   7.156   5.879  0.1414 -0.0485  0.0517
  167SAPS   H2R18841   4.778   7.152   5.770 -1.7391 -1.5417  0.3287
  167SAPS   H2S18842   4.694   7.177   5.922  0.5627 -1.1897  1.6993
  167SAPS    C318843   4.734   6.682   5.850 -0.1976 -0.6225 -0.2369
  167SAPS    HX18844   4.754   6.582   5.895 -2.2953 -0.2322  1.7051
  167SAPS    HY18845   4.808   6.702   5.768  1.5505  0.8962  1.6124
  167SAPS   O3118846   4.608   6.680   5.788 -0.4122  0.4632 -0.1743
  167SAPS   C3118847   4.528   6.580   5.822 -0.4875  0.1396 -0.3032
  167SAPS   O3218848   4.556   6.506   5.915  0.1811 -0.7382 -0.0012
  167SAPS   C3218849   4.408   6.578   5.728 -0.2480  0.3332 -0.2784
  167SAPS   H2X18850   4.383   6.685   5.709  0.1070  0.4897  0.1263
  167SAPS   H2Y18851   4.323   6.544   5.790 -0.7837  0.7096 -0.7867
  167SAPS   C2318852   4.904   7.260   5.917  0.6077 -0.2296  0.3660
  167SAPS   H3R18853   4.947   7.237   6.017 -0.4625  4.5782  2.1785
  167SAPS   H3S18854   4.859   7.359   5.938 -0.6384 -0.6332 -0.3081
  167SAPS   C2418855   5.016   7.272   5.809 -0.2926 -0.4140 -0.3403
  167SAPS   H4R18856   4.972   7.291   5.709  1.5972 -0.2202 -1.1806
  167SAPS   H4S18857   5.062   7.170   5.811  1.0009  0.1021 -1.5542
  167SAPS   C2518858   5.128   7.365   5.846 -0.3615  0.7103 -0.2544
  167SAPS   H5R18859   5.167   7.323   5.940 -0.0667 -1.7594 -1.3792
  167SAPS   C2618860   5.188   7.461   5.781 -0.0938  0.3005  0.5643
  167SAPS   H6R18861   5.272   7.508   5.834 -1.0667  0.1491  2.3359
  167SAPS   C2718862   5.158   7.511   5.642  0.2418  0.4718 -0.2138
  167SAPS   H7R18863   5.168   7.427   5.570 -1.3988  1.2810 -1.4522
  167SAPS   H7S18864   5.237   7.583   5.610  1.3250 -1.0505 -1.0870
  167SAPS   C2818865   5.017   7.568   5.625  0.6389  0.1499 -0.5562
  167SAPS   H8R18866   4.964   7.586   5.720  0.4078 -0.1598 -0.6267
  167SAPS   C2918867   4.945   7.581   5.510 -0.1307 -0.1131 -0.3224
  167SAPS   H9R18868   4.842   7.618   5.513  0.1012  0.4961  0.3660
  167SAPS  C21018869   5.006   7.574   5.377 -0.5760 -0.1428 -0.2793
  167SAPS  H10R18870   4.921   7.557   5.308 -0.3473  0.8910 -0.8350
  167SAPS  H10S18871   5.063   7.480   5.364 -0.1618 -0.0257  0.6204
  167SAPS  C21118872   5.088   7.693   5.331 -0.1505  0.3135  0.2788
  167SAPS  H11R18873   5.093   7.772   5.407 -0.9607 -0.1276  0.8077
  167SAPS  C21218874   5.162   7.699   5.217  0.3981  0.3123 -0.2028
  167SAPS  H12R18875   5.217   7.787   5.183  0.4153  0.6187  0.5986
  167SAPS  C21318876   5.156   7.587   5.126  0.1605  0.3060  0.8927
  167SAPS  H13R18877   5.173   7.609   5.019  2.6537 -1.3194  0.8897
  167SAPS  H13S18878   5.056   7.540   5.130 -0.0855  0.5986 -1.0162
  167SAPS  C21418879   5.270   7.493   5.163 -0.4753  0.6516  0.7933
  167SAPS  H14R18880   5.333   7.514   5.251 -0.0993 -0.4359  0.7962
  167SAPS  C21518881   5.316   7.400   5.075  0.0546  0.4498 -0.8449
  167SAPS  H15R18882   5.401   7.333   5.093 -0.0922  0.6680  0.8456
  167SAPS  C21618883   5.259   7.368   4.938 -0.0910 -0.2507  0.0463
  167SAPS  H16R18884   5.157   7.412   4.935  1.5708  4.3041  1.4454
  167SAPS  H16S18885   5.248   7.258   4.923 -1.2319  0.0985 -2.0216
  167SAPS  C21718886   5.334   7.425   4.825  0.6805 -0.2200  0.0384
  167SAPS  H17R18887   5.441   7.393   4.828  1.0115  0.8690  0.3455
  167SAPS  H17S18888   5.333   7.536   4.833  0.5424 -0.1027 -1.3312
  167SAPS  C21818889   5.268   7.378   4.698 -0.6593  0.3405  0.9733
  167SAPS  H18R18890   5.160   7.403   4.704 -0.9074  0.3263 -2.0082
  167SAPS  H18S18891   5.288   7.269   4.685  1.3993  0.8882 -1.1097
  167SAPS  C21918892   5.329   7.444   4.571 -0.6060  1.0535  0.2873
  167SAPS  H19R18893   5.366   7.546   4.597 -1.0831  0.7447  2.3169
  167SAPS  H19S18894   5.254   7.461   4.491 -0.7452 -0.6866  0.0053
  167SAPS  C22018895   5.452   7.362   4.515 -0.1889 -0.3925 -0.5140
  167SAPS  H20R18896   5.525   7.330   4.592  0.4435 -1.9534 -1.7308
  167SAPS  H20S18897   5.495   7.416   4.428 -0.3891  1.1695  0.3078
  167SAPS  H20T18898   5.408   7.267   4.480 -0.5161 -1.2492  1.9751
  167SAPS   C3318899   4.416   6.504   5.593 -0.3037 -0.0363  0.0652
  167SAPS   H3X18900   4.312   6.509   5.553 -0.0907  0.2005 -0.4770
  167SAPS   H3Y18901   4.439   6.396   5.596  2.1544  0.4650  1.5895
  167SAPS   C3418902   4.500   6.576   5.490 -0.5383 -0.3295  0.6228
  167SAPS   H4X18903   4.511   6.679   5.529 -1.7558 -0.1776  0.6257
  167SAPS   H4Y18904   4.445   6.578   5.393  1.3289 -1.2059 -0.4971
  167SAPS   C3518905   4.637   6.510   5.467 -0.6159 -0.1419  0.2224
  167SAPS   H5X18906   4.648   6.400   5.483  0.2904  0.2111  2.4783
  167SAPS   H5Y18907   4.699   6.551   5.550 -1.2881  0.8038  0.2686
  167SAPS   C3618908   4.705   6.564   5.342  0.0704  0.1845 -0.0474
  167SAPS   H6X18909   4.718   6.674   5.350  0.1946  0.0809  1.8185
  167SAPS   H6Y18910   4.641   6.543   5.254  2.7971 -1.0766 -1.8850
  167SAPS   C3718911   4.851   6.510   5.327  0.5102  0.0992 -0.1842
  167SAPS   H7X18912   4.860   6.403   5.297  1.4107  0.2336 -0.4429
  167SAPS   H7Y18913   4.908   6.517   5.422 -0.2591  1.2089  0.2075
  167SAPS   C3818914   4.930   6.599   5.221  0.6535 -0.1903  0.3507
  167SAPS   H8X18915   5.039   6.586   5.241  1.6167  2.6393 -2.1952
  167SAPS   H8Y18916   4.898   6.705   5.222 -1.5136 -0.6785 -2.7116
  167SAPS   C3918917   4.906   6.565   5.074 -0.4440 -0.1814  0.2167
  167SAPS   H9X18918   4.796   6.573   5.056  0.0072  0.7031 -2.8901
  167SAPS   H9Y18919   4.930   6.457   5.074  1.8929  0.2464 -1.8298
  167SAPS  C31018920   4.978   6.653   4.976  0.6005 -0.2505  0.3357
  167SAPS  H10X18921   5.087   6.635   4.987  0.4928  0.3309  3.7698
  167SAPS  H10Y18922   4.970   6.762   4.998 -1.8656 -0.7902  2.7135
  167SAPS  C31118923   4.916   6.629   4.834 -0.5840  0.3839  0.6273
  167SAPS  H11X18924   4.806   6.634   4.832 -0.7024 -1.3936  0.8397
  167SAPS  H11Y18925   4.936   6.523   4.805 -1.9455  0.0115  1.0042
  167SAPS  C31218926   4.965   6.723   4.725  0.2795  0.3429 -0.5338
  167SAPS  H12X18927   5.074   6.713   4.707  0.2959  0.2811 -0.3964
  167SAPS  H12Y18928   4.947   6.828   4.758  3.9198  1.5346 -1.8415
  167SAPS  C31318929   4.890   6.695   4.592 -0.4937 -0.2408  0.2688
  167SAPS  H13X18930   4.784   6.666   4.610 -0.5435 -0.7467 -0.7554
  167SAPS  H13Y18931   4.952   6.619   4.540  1.5200  1.0784  0.6322
  167SAPS  C31418932   4.887   6.819   4.503 -0.2278 -0.1980  0.0844
  167SAPS  H14X18933   4.984   6.842   4.454  0.7918 -2.0746  1.1080
  167SAPS  H14Y18934   4.857   6.903   4.569  1.6645  0.2674  0.3850
  167SAPS  C31518935   4.777   6.805   4.393  1.4504  0.4090  0.4343
  167SAPS  H15X18936   4.676   6.793   4.439  1.5331 -0.9760  0.2883
  167SAPS  H15Y18937   4.796   6.707   4.344 -0.1965 -0.5805  1.6598
  167SAPS  C31618938   4.776   6.915   4.287  0.6266  0.1927  0.5587
  167SAPS  H16X18939   4.875   6.945   4.247 -1.1457  2.8191 -2.3901
  167SAPS  H16Y18940   4.728   7.004   4.333  0.3024  0.3260 -0.0126
  167SAPS  C31718941   4.694   6.873   4.166 -0.5233  0.0234 -1.2692
  167SAPS  H17X18942   4.651   6.964   4.118 -0.1119  0.1537 -1.4014
  167SAPS  H17Y18943   4.615   6.801   4.194 -2.0161  1.1993 -2.2722
  167SAPS  C31818944   4.781   6.811   4.055  0.6963 -0.0123 -0.1934
  167SAPS  H18X18945   4.710   6.786   3.974  1.5084 -1.4298 -0.5088
  167SAPS  H18Y18946   4.838   6.719   4.081  0.7795 -0.2296 -1.1334
  167SAPS  H18Z18947   4.865   6.877   4.024  0.4672  0.5817  0.4290
  168SAPS     N18948   1.194   5.455   6.569  0.2086 -0.1586  0.3071
  168SAPS   HN118949   1.155   5.360   6.556 -1.0415  0.4010 -0.2184
  168SAPS   HN218950   1.233   5.480   6.475  0.0838 -1.8740 -0.2386
  168SAPS   HN318951   1.273   5.450   6.636 -0.9565 -1.6389  1.6332
  168SAPS   C1218952   1.093   5.547   6.631 -0.6143  0.6519 -0.3686
  168SAPS  H12A18953   0.995   5.515   6.598 -1.1620  0.6313  1.2079
  168SAPS   C1318954   1.082   5.536   6.789 -0.5951 -0.2395 -0.4204
  168SAPS  O13A18955   1.180   5.489   6.852  0.1430  0.7038 -0.5879
  168SAPS  O13B18956   0.994   5.613   6.836  0.0726  0.2001 -0.0233
  168SAPS   C1118957   1.115   5.693   6.582  0.5781 -0.9352  0.3381
  168SAPS  H11A18958   1.039   5.756   6.634 -0.8164 -1.0176 -1.5077
  168SAPS  H11B18959   1.096   5.698   6.473  3.7089  0.5636 -0.2286
  168SAPS     P18960   1.271   5.900   6.617  0.2213  0.0638  0.2778
  168SAPS   O1318961   1.149   5.979   6.576  0.7689 -0.2651 -0.0620
  168SAPS   O1418962   1.327   5.920   6.752  0.3524 -1.1088  0.4432
  168SAPS   O1218963   1.240   5.745   6.602 -0.0672 -0.0262 -0.5909
  168SAPS   O1118964   1.393   5.928   6.514 -0.1941  0.8238  0.2270
  168SAPS    C118965   1.383   5.899   6.376  0.0201  0.7541 -0.4930
  168SAPS    HA18966   1.457   5.824   6.341 -1.2794 -0.8377  0.0448
  168SAPS    HB18967   1.293   5.838   6.352  0.6240  0.0714 -1.0995
  168SAPS    C218968   1.374   6.026   6.296 -0.4767  0.2627  0.0638
  168SAPS    HS18969   1.278   6.082   6.304 -1.4989 -1.5081  0.6283
  168SAPS   O2118970   1.407   5.985   6.162  0.0449 -0.4350 -0.2084
  168SAPS   C2118971   1.298   5.964   6.088  0.3243  0.2140  0.2913
  168SAPS   O2218972   1.183   5.966   6.126 -0.2447  0.9197 -0.0708
  168SAPS   C2218973   1.340   5.953   5.944 -0.1584 -0.3177 -0.3680
  168SAPS   H2R18974   1.431   6.013   5.925 -0.5229 -0.1733 -1.7590
  168SAPS   H2S18975   1.372   5.847   5.946  0.4857 -0.1172  0.4385
  168SAPS    C318976   1.489   6.119   6.336 -0.9489 -0.3587  0.2038
  168SAPS    HX18977   1.573   6.061   6.381  0.4165  0.3560 -1.3253
  168SAPS    HY18978   1.452   6.190   6.413 -0.4208 -0.7497  0.8298
  168SAPS   O3118979   1.544   6.204   6.230 -0.1047 -0.4572 -0.0303
  168SAPS   C3118980   1.475   6.291   6.177  0.5253 -1.1654  0.3791
  168SAPS   O3218981   1.356   6.312   6.192 -0.2500  0.4231 -0.3966
  168SAPS   C3218982   1.555   6.380   6.085 -0.6314  0.9613 -0.2988
  168SAPS   H2X18983   1.662   6.353   6.100 -0.6372  0.3266 -1.2705
  168SAPS   H2Y18984   1.548   6.486   6.116  1.8679  1.4440 -1.1029
  168SAPS   C2318985   1.233   5.984   5.840 -0.5935  0.4082 -0.1205
  168SAPS   H3R18986   1.131   6.000   5.880 -1.0292 -0.9828 -0.6221
  168SAPS   H3S18987   1.221   5.891   5.779 -0.0555 -0.3082  0.8459
  168SAPS   C2418988   1.262   6.108   5.748  0.3012  0.0123 -0.9274
  168SAPS   H4R18989   1.284   6.197   5.811 -1.2960 -0.0127 -0.2876
  168SAPS   H4S18990   1.179   6.125   5.677  0.7351 -0.3527 -1.5315
  168SAPS   C2518991   1.381   6.064   5.675  0.0884 -0.6418  0.0130
  168SAPS   H5R18992   1.450   5.993   5.723 -1.0800 -1.1178  1.0665
  168SAPS   C2618993   1.418   6.099   5.544  0.3041 -0.5567  0.0481
  168SAPS   H6R18994   1.503   6.054   5.491  0.5763 -1.2930  1.0893
  168SAPS   C2718995   1.326   6.190   5.456 -0.4028  0.5552 -0.4386
  168SAPS   H7R18996   1.330   6.292   5.500 -0.0856  0.1238  0.5655
  168SAPS   H7S18997   1.217   6.173   5.471 -1.0118  4.1167  0.1721
  168SAPS   C2818998   1.359   6.199   5.305 -0.4742 -0.0336 -0.2674
  168SAPS   H8R18999   1.423   6.288   5.291 -1.4262  0.4823 -1.5813
  168SAPS   C2919000   1.305   6.131   5.205  0.4449  0.0868 -0.3000
  168SAPS   H9R19001   1.344   6.146   5.103  3.1413  1.5862  0.8224
  168SAPS  C21019002   1.207   6.019   5.220 -0.0213  0.4255 -0.1609
  168SAPS  H10R19003   1.139   6.042   5.305  2.0412 -1.2228  2.0804
  168SAPS  H10S19004   1.265   5.930   5.254  0.1284  0.1378 -1.1224
  168SAPS  C21119005   1.120   5.993   5.101  0.3952 -0.6332 -0.1730
  168SAPS  H11R19006   1.047   6.074   5.086  0.0630 -0.5981  1.5113
  168SAPS  C21219007   1.117   5.893   5.016 -0.6280 -0.1276 -0.0194
  168SAPS  H12R19008   1.042   5.887   4.936 -0.4761  3.0179 -0.5253
  168SAPS  C21319009   1.217   5.779   5.026 -0.3977  0.9280 -0.4438
  168SAPS  H13R19010   1.231   5.740   5.129  0.3128  1.2411 -0.4130
  168SAPS  H13S19011   1.318   5.814   4.993 -0.7878  1.0646 -1.5550
  168SAPS  C21419012   1.163   5.658   4.952  0.6100  0.0136 -0.2742
  168SAPS  H14R19013   1.070   5.618   4.997  0.8415 -0.0594  0.1439
  168SAPS  C21519014   1.231   5.586   4.861  0.2510 -0.4568 -0.4633
  168SAPS  H15R19015   1.190   5.494   4.818  1.4455 -0.4806 -1.5959
  168SAPS  C21619016   1.368   5.622   4.796 -0.2283  0.1267  0.2194
  168SAPS  H16R19017   1.436   5.536   4.812  1.0894  1.3147  1.2322
  168SAPS  H16S19018   1.424   5.708   4.838 -2.1182  0.4287  2.3505
  168SAPS  C21719019   1.339   5.637   4.639 -0.3423 -0.6792 -0.3349
  168SAPS  H17R19020   1.294   5.546   4.595  0.8712 -0.9445 -1.0759
  168SAPS  H17S19021   1.438   5.651   4.591  0.2976  2.6334  1.6665
  168SAPS  C21819022   1.252   5.763   4.611 -0.2758  0.6671 -0.2362
  168SAPS  H18R19023   1.186   5.772   4.701 -0.7635 -2.0748 -0.2382
  168SAPS  H18S19024   1.191   5.747   4.520 -0.0584 -1.3531 -0.0568
  168SAPS  C21919025   1.333   5.892   4.607 -0.2821 -0.0054  0.2296
  168SAPS  H19R19026   1.420   5.861   4.546  0.5287  0.1225  1.2962
  168SAPS  H19S19027   1.370   5.902   4.711  0.7733 -2.3195  0.1277
  168SAPS  C22019028   1.263   6.016   4.556 -0.2072  0.6862 -0.3582
  168SAPS  H20R19029   1.164   6.018   4.606 -0.9875 -0.7523 -1.7594
  168SAPS  H20S19030   1.243   6.009   4.447  0.8626 -2.1417 -0.4655
  168SAPS  H20T19031   1.318   6.110   4.576 -1.5901  1.7414 -1.3259
  168SAPS   C3319032   1.524   6.374   5.939  0.4904 -0.3094 -0.0535
  168SAPS   H3X19033   1.449   6.454   5.918  0.7459 -0.1258 -0.2731
  168SAPS   H3Y19034   1.480   6.274   5.919 -0.9032 -0.4910  3.2413
  168SAPS   C3419035   1.651   6.405   5.860 -0.1920  0.4711 -0.0243
  168SAPS   H4X19036   1.719   6.331   5.907 -1.7817  0.0058  1.6107
  168SAPS   H4Y19037   1.698   6.506   5.865 -0.1757  0.5799 -1.7450
  168SAPS   C3519038   1.644   6.398   5.710 -0.4234  0.3263  1.1151
  168SAPS   H5X19039   1.594   6.490   5.673 -0.0143  0.5218  1.0411
  168SAPS   H5Y19040   1.577   6.314   5.679 -1.0177  1.4758 -0.8477
  168SAPS   C3619041   1.784   6.387   5.646 -0.2310 -0.3238 -0.1253
  168SAPS   H6X19042   1.829   6.292   5.684  1.6592  0.4116 -0.4004
  168SAPS   H6Y19043   1.848   6.470   5.681 -0.7973  0.2230 -0.3613
  168SAPS   C3719044   1.796   6.378   5.489 -0.6267  0.0107 -0.1362
  168SAPS   H7X19045   1.759   6.473   5.445 -1.6015  0.2721  1.2031
  168SAPS   H7Y19046   1.726   6.293   5.472 -2.6598  1.1102  2.2664
  168SAPS   C3819047   1.935   6.326   5.446 -0.2914 -0.4614 -0.5558
  168SAPS   H8X19048   1.989   6.271   5.527 -0.0647 -1.0527 -1.0987
  168SAPS   H8Y19049   1.995   6.419   5.434 -2.6903  1.0702 -1.2519
  168SAPS   C3919050   1.939   6.245   5.318  0.2536 -0.5472  0.2490
  168SAPS   H9X19051   1.894   6.145   5.330 -1.3461  0.3612  2.3658
  168SAPS   H9Y19052   2.048   6.229   5.300  0.0710 -1.9959  0.3437
  168SAPS  C31019053   1.870   6.320   5.206  0.4351  0.4664  0.7369
  168SAPS  H10X19054   1.918   6.420   5.201  2.0540 -0.2246  1.7819
  168SAPS  H10Y19055   1.768   6.346   5.242 -0.1499 -1.9189  0.9433
  168SAPS  C31119056   1.866   6.225   5.077  0.0623  0.2894  0.1187
  168SAPS  H11X19057   1.835   6.121   5.102  1.4335 -0.3701 -0.7609
  168SAPS  H11Y19058   1.974   6.221   5.051  0.3651 -1.2499  1.4711
  168SAPS  C31219059   1.793   6.284   4.960  0.5177 -0.7094 -0.3820
  168SAPS  H12X19060   1.813   6.221   4.870 -1.1100 -1.6506 -0.1291
  168SAPS  H12Y19061   1.840   6.382   4.935 -1.7816  0.7286  0.6225
  168SAPS  C31319062   1.644   6.291   4.984  0.5104  0.6789 -0.5121
  168SAPS  H13X19063   1.635   6.385   5.042  1.3334  0.4949 -0.0627
  168SAPS  H13Y19064   1.606   6.219   5.059 -2.2514  3.5241  1.0224
  168SAPS  C31419065   1.560   6.296   4.859  0.0121 -0.0081  0.0959
  168SAPS  H14X19066   1.569   6.196   4.813  1.0868 -0.7500  1.8006
  168SAPS  H14Y19067   1.599   6.372   4.788  1.2458 -0.5404  0.1758
  168SAPS  C31519068   1.410   6.342   4.881 -0.7911  0.6524  0.5123
  168SAPS  H15X19069   1.403   6.433   4.945 -0.7192 -0.0039  1.4754
  168SAPS  H15Y19070   1.357   6.257   4.930  1.2840 -0.5552  0.7734
  168SAPS  C31619071   1.338   6.375   4.750  0.2797  0.3232  0.2644
  168SAPS  H16X19072   1.349   6.303   4.666 -1.8662 -0.4374  0.5794
  168SAPS  H16Y19073   1.404   6.455   4.710 -0.8502  1.1290 -0.0388
  168SAPS  C31719074   1.198   6.442   4.753 -0.1097 -0.1422  0.7828
  168SAPS  H17X19075   1.182   6.493   4.656  0.1489  2.5861  2.0656
  168SAPS  H17Y19076   1.199   6.528   4.823 -2.4862 -0.8170  1.7790
  168SAPS  C31819077   1.078   6.346   4.790 -0.0254  0.3632  0.5805
  168SAPS  H18X19078   1.040   6.290   4.702 -0.4485  1.5665 -0.0260
  168SAPS  H18Y19079   0.997   6.409   4.832  0.9332 -0.5360  4.0794
  168SAPS  H18Z19080   1.115   6.271   4.863  0.7436  0.2317  0.0676
  169SAPS     N19081   3.910   0.218   6.612 -0.6288 -0.5079 -0.1238
  169SAPS   HN119082   3.905   0.188   6.712  0.2304 -1.3356 -0.3131
  169SAPS   HN219083   4.011   0.222   6.588 -0.3763 -2.9311  0.2878
  169SAPS   HN319084   3.870   0.314   6.611  0.5187 -0.0115 -1.5546
  169SAPS   C1219085   3.852   0.119   6.517  0.2531  0.3760  0.3391
  169SAPS  H12A19086   3.925   0.039   6.514  0.3097  0.4370 -0.0193
  169SAPS   C1319087   3.706   0.062   6.557 -0.0275  0.2669  0.0903
  169SAPS  O13A19088   3.656   0.094   6.665  0.3545  0.1965 -0.5621
  169SAPS  O13B19089   3.644  -0.021   6.489  0.0677  0.3800  0.3736
  169SAPS   C1119090   3.845   0.188   6.369 -0.6726 -0.4396 -0.5858
  169SAPS  H11A19091   3.768   0.267   6.378  1.0788  1.3698 -0.6148
  169SAPS  H11B19092   3.815   0.115   6.292  0.1180  0.5989 -1.9300
  169SAPS     P19093   3.994   0.407   6.286 -0.3206  0.3126  0.3132
  169SAPS   O1319094   3.876   0.492   6.301  0.4924  0.2220  0.4962
  169SAPS   O1419095   4.126   0.445   6.348 -0.4639 -0.1906  0.2433
  169SAPS   O1219096   3.963   0.264   6.331  0.1633  0.1631 -0.6627
  169SAPS   O1119097   4.011   0.388   6.133 -0.8522 -0.2511  0.3662
  169SAPS    C119098   3.958   0.276   6.062  0.1984 -0.1469  0.0756
  169SAPS    HA19099   3.866   0.233   6.108 -1.5083 -1.8119 -4.2689
  169SAPS    HB19100   3.938   0.305   5.956  2.0953  1.1331  0.0118
  169SAPS    C219101   4.060   0.167   6.035 -0.0065 -0.0233  0.3114
  169SAPS    HS19102   4.108   0.153   6.134 -1.1865  0.8191  1.0227
  169SAPS   O2119103   4.153   0.216   5.936 -0.3851  0.4265  0.3266
  169SAPS   C2119104   4.273   0.159   5.931  0.2798  1.0171 -0.0507
  169SAPS   O2219105   4.311   0.064   5.998 -0.1354  0.0820 -0.0817
  169SAPS   C2219106   4.355   0.227   5.825  0.2813 -0.8132 -0.5881
  169SAPS   H2R19107   4.290   0.288   5.758  1.0937  0.3376 -0.3509
  169SAPS   H2S19108   4.423   0.296   5.879  0.1736  0.7748 -2.3605
  169SAPS    C319109   3.994   0.031   5.983  0.0133  0.0211 -0.0964
  169SAPS    HX19110   3.902  -0.000   6.038 -0.5807 -1.8772 -2.0357
  169SAPS    HY19111   4.072  -0.046   5.994 -1.9487 -2.1303 -0.4536
  169SAPS   O3119112   3.947   0.049   5.842 -0.4954  0.1232 -0.7944
  169SAPS   C3119113   4.022   0.002   5.749 -0.9219 -0.0327  0.3478
  169SAPS   O3219114   4.133  -0.043   5.757 -0.2442 -0.2801  0.3455
  169SAPS   C3219115   3.943   0.015   5.619 -0.7936  0.2909  0.6771
  169SAPS   H2X19116   3.870   0.098   5.629 -2.1499 -0.5209 -1.6076
  169SAPS   H2Y19117   3.892  -0.081   5.596  0.4839 -0.5044  1.0510
  169SAPS   C2319118   4.431   0.131   5.725 -0.6281 -0.0385  0.0232
  169SAPS   H3R19119   4.358   0.059   5.681 -0.7522 -0.4827  0.9355
  169SAPS   H3S19120   4.494   0.069   5.792 -2.2040 -2.1572 -0.3295
  169SAPS   C2419121   4.503   0.194   5.609 -0.0888 -0.4969  0.4369
  169SAPS   H4R19122   4.586   0.255   5.651  1.4023 -1.8047 -0.5096
  169SAPS   H4S19123   4.431   0.259   5.554 -0.8708 -2.0823 -0.5011
  169SAPS   C2519124   4.565   0.094   5.517  0.3642 -0.4112 -0.0964
  169SAPS   H5R19125   4.635   0.031   5.575  1.9095  0.9799 -0.3681
  169SAPS   C2619126   4.542   0.073   5.386  0.7676 -0.0862  0.3477
  169SAPS   H6R19127   4.589  -0.014   5.339  1.2812  0.1161  0.4681
  169SAPS   C2719128   4.450   0.153   5.296  0.1414  0.2594 -0.5313
  169SAPS   H7R19129   4.390   0.235   5.340 -0.5248 -1.5683  2.2298
  169SAPS   H7S19130   4.365   0.088   5.265 -1.3046  2.2402 -0.9642
  169SAPS   C2819131   4.520   0.198   5.170  0.1671  0.5696  0.3057
  169SAPS   H8R19132   4.619   0.162   5.141  0.5650  1.3491  0.6715
  169SAPS   C2919133   4.469   0.285   5.082  0.5692 -0.5376 -0.3280
  169SAPS   H9R19134   4.532   0.318   4.998  0.0578 -0.8832 -0.8548
  169SAPS  C21019135   4.319   0.326   5.083 -1.1940 -0.0020 -0.5385
  169SAPS  H10R19136   4.308   0.432   5.052 -0.0674  0.7334  1.3911
  169SAPS  H10S19137   4.277   0.312   5.185 -1.4156 -0.4579 -0.6930
  169SAPS  C21119138   4.250   0.234   4.985 -0.6420  0.0455 -0.1791
  169SAPS  H11R19139   4.224   0.134   5.023 -2.3907 -0.0944 -1.6059
  169SAPS  C21219140   4.217   0.263   4.858  0.4818  0.2853 -0.1256
  169SAPS  H12R19141   4.169   0.182   4.801  0.3871 -1.0271  1.7168
  169SAPS  C21319142   4.235   0.389   4.772  0.3481 -0.0065 -0.3283
  169SAPS  H13R19143   4.278   0.472   4.833 -0.9018 -0.0634  0.6801
  169SAPS  H13S19144   4.132   0.430   4.763  0.4353 -0.1848 -2.7809
  169SAPS  C21419145   4.290   0.387   4.632  0.3138 -0.0884 -0.6884
  169SAPS  H14R19146   4.214   0.440   4.572 -1.6625  0.5528  2.1760
  169SAPS  C21519147   4.415   0.353   4.581 -0.3789 -0.4570 -1.0099
  169SAPS  H15R19148   4.444   0.376   4.477 -0.0465  0.4937 -0.7109
  169SAPS  C21619149   4.529   0.305   4.673 -1.0264 -0.5383 -0.6992
  169SAPS  H16R19150   4.582   0.224   4.619  3.0370  0.6310  1.1615
  169SAPS  H16S19151   4.495   0.261   4.770  1.9432  0.8746  1.1487
  169SAPS  C21719152   4.623   0.420   4.713  0.4008  0.0578 -0.2196
  169SAPS  H17R19153   4.578   0.468   4.803 -0.5856 -2.0066  0.4494
  169SAPS  H17S19154   4.637   0.500   4.637  1.2082  2.0708  1.9103
  169SAPS  C21819155   4.762   0.361   4.748  0.5163 -0.0268  0.0812
  169SAPS  H18R19156   4.740   0.276   4.816  1.1321 -1.2861 -1.2455
  169SAPS  H18S19157   4.819   0.436   4.808  0.5733  0.5108 -0.6261
  169SAPS  C21919158   4.848   0.331   4.626 -0.2877 -0.6521  0.3472
  169SAPS  H19R19159   4.866   0.420   4.563 -2.3364 -0.1043  0.4621
  169SAPS  H19S19160   4.806   0.249   4.563  2.4733  0.9714 -4.0357
  169SAPS  C22019161   4.986   0.285   4.685  0.4133  0.0144 -0.4824
  169SAPS  H20R19162   4.975   0.211   4.767  0.7482 -0.6639 -1.0483
  169SAPS  H20S19163   5.033   0.372   4.736 -0.9761  0.6919 -0.2957
  169SAPS  H20T19164   5.054   0.253   4.603  1.1711  0.2752  0.0309
  169SAPS   C3319165   4.036   0.048   5.496 -0.1408 -0.3376  0.0216
  169SAPS   H3X19166   4.098  -0.043   5.479  2.7352  1.5799 -0.4708
  169SAPS   H3Y19167   4.093   0.139   5.525  1.5871 -1.3545 -0.0159
  169SAPS   C3419168   3.960   0.080   5.360 -1.6354 -0.0505 -0.0244
  169SAPS   H4X19169   4.028   0.133   5.290 -2.5666 -0.2188 -1.0849
  169SAPS   H4Y19170   3.878   0.148   5.392 -2.4328 -1.3837  0.8899
  169SAPS   C3519171   3.901  -0.035   5.281 -0.0025  0.1698 -0.1428
  169SAPS   H5X19172   3.839  -0.008   5.192 -1.5726 -0.2758  0.7816
  169SAPS   H5Y19173   3.831  -0.100   5.339  1.4891 -0.3239  1.1540
  169SAPS   C3619174   4.018  -0.125   5.233  0.4575 -0.3708 -0.4442
  169SAPS   H6X19175   4.083  -0.173   5.309  0.0127  0.8931  0.7877
  169SAPS   H6Y19176   4.090  -0.055   5.184  0.9366  0.6560  1.6027
  169SAPS   C3719177   3.984  -0.239   5.140  0.1892 -0.4345 -0.3625
  169SAPS   H7X19178   3.892  -0.216   5.082 -1.5944  0.5828  2.6193
  169SAPS   H7Y19179   3.953  -0.330   5.195  0.8211 -0.7475 -0.5129
  169SAPS   C3819180   4.094  -0.279   5.036  0.0913 -0.3145  0.0979
  169SAPS   H8X19181   4.086  -0.199   4.959 -0.9932  1.2256  1.7254
  169SAPS   H8Y19182   4.073  -0.380   4.995  0.4354  0.0716 -1.0750
  169SAPS   C3919183   4.233  -0.274   5.100 -0.1289  0.3261 -0.2987
  169SAPS   H9X19184   4.229  -0.331   5.195 -0.7467 -1.0833 -1.1415
  169SAPS   H9Y19185   4.259  -0.171   5.133  2.9102 -0.4493  0.0757
  169SAPS  C31019186   4.348  -0.342   5.015 -0.6082  0.6820 -0.4751
  169SAPS  H10X19187   4.308  -0.445   5.019  0.9477  0.0466 -0.3732
  169SAPS  H10Y19188   4.443  -0.334   5.073 -0.5479  0.2816 -0.5128
  169SAPS  C31119189   4.352  -0.292   4.872 -0.0962  0.7993 -0.1821
  169SAPS  H11X19190   4.264  -0.336   4.821  0.0470 -1.1007  1.0818
  169SAPS  H11Y19191   4.442  -0.328   4.818 -0.2618  0.4908 -0.2554
  169SAPS  C31219192   4.358  -0.138   4.867  0.5156 -0.2186  0.6316
  169SAPS  H12X19193   4.431  -0.101   4.942  1.3555  0.4979 -0.5101
  169SAPS  H12Y19194   4.261  -0.083   4.871  0.6414  0.1067 -0.4332
  169SAPS  C31319195   4.407  -0.084   4.727  0.7794 -0.2039 -0.0492
  169SAPS  H13X19196   4.505  -0.121   4.689  1.7149  2.1288 -0.0854
  169SAPS  H13Y19197   4.440   0.022   4.727  1.1861 -0.2970 -2.0892
  169SAPS  C31419198   4.295  -0.093   4.618 -0.1604 -0.2489  1.0142
  169SAPS  H14X19199   4.190  -0.074   4.649 -2.5003 -2.3100 -4.3885
  169SAPS  H14Y19200   4.287  -0.202   4.598 -0.0538 -0.0467 -0.2224
  169SAPS  C31519201   4.333  -0.043   4.474  0.5439 -0.5727 -0.8248
  169SAPS  H15X19202   4.436  -0.072   4.446  0.9416  0.1142 -0.1241
  169SAPS  H15Y19203   4.328   0.067   4.487  1.7997 -0.3991 -1.6937
  169SAPS  C31619204   4.251  -0.094   4.356  0.8082  0.0783  0.2957
  169SAPS  H16X19205   4.282  -0.199   4.335  0.8892  0.0660  0.4766
  169SAPS  H16Y19206   4.283  -0.042   4.263  1.3787  0.8047  0.8847
  169SAPS  C31719207   4.097  -0.082   4.377 -0.5333  0.1741 -0.1098
  169SAPS  H17X19208   4.079   0.025   4.399 -1.2358 -0.1177  0.7776
  169SAPS  H17Y19209   4.073  -0.138   4.470 -1.7872 -0.0900 -0.5766
  169SAPS  C31819210   4.007  -0.131   4.262 -0.7354  0.4397 -0.0203
  169SAPS  H18X19211   4.031  -0.087   4.163 -1.3791  2.0502  0.4988
  169SAPS  H18Y19212   3.897  -0.119   4.275 -1.2086  0.3991 -3.1663
  169SAPS  H18Z19213   4.030  -0.239   4.257  1.6987  0.8269  1.4555
  170SAPS     N19214   2.750   0.582   6.876 -0.2432 -0.3977  0.1665
  170SAPS   HN119215   2.695   0.641   6.811 -0.5913 -1.7889 -0.8585
  170SAPS   HN219216   2.690   0.522   6.936 -0.1453 -1.5477 -0.8388
  170SAPS   HN319217   2.802   0.641   6.943 -0.1628 -0.2119 -0.0593
  170SAPS   C1219218   2.849   0.497   6.802 -0.0024 -0.4090  0.3340
  170SAPS  H12A19219   2.872   0.550   6.711  0.1607  1.7576  1.5863
  170SAPS   C1319220   2.976   0.477   6.884  0.6008 -0.2296  0.2183
  170SAPS  O13A19221   2.997   0.545   6.991  0.3770 -0.2925 -0.0630
  170SAPS  O13B19222   3.064   0.399   6.845  0.0987  0.3460 -0.1831
  170SAPS   C1119223   2.782   0.359   6.772  0.3358 -0.8779 -0.5523
  170SAPS  H11A19224   2.761   0.306   6.868 -2.3374  0.3557 -0.3708
  170SAPS  H11B19225   2.860   0.298   6.721  0.0019 -0.5768 -1.4379
  170SAPS     P19226   2.595   0.255   6.627  0.0016 -0.2689  0.1014
  170SAPS   O1319227   2.687   0.136   6.636 -0.1539 -0.3066 -0.3718
  170SAPS   O1419228   2.456   0.258   6.679 -0.0098 -0.1312 -0.6848
  170SAPS   O1219229   2.662   0.381   6.695 -0.4138  0.4222 -0.0899
  170SAPS   O1119230   2.584   0.300   6.473 -0.1569  0.4396  0.1740
  170SAPS    C119231   2.654   0.425   6.442 -0.0986 -0.1545  0.7654
  170SAPS    HA19232   2.635   0.508   6.512 -1.6603  0.8010 -0.7119
  170SAPS    HB19233   2.764   0.418   6.446  0.1534  3.0985  1.8107
  170SAPS    C219234   2.630   0.479   6.293  0.2414 -0.1559  0.2334
  170SAPS    HS19235   2.539   0.543   6.293 -0.8464 -1.6466  0.2009
  170SAPS   O2119236   2.609   0.375   6.197 -0.3630  0.2347  0.0415
  170SAPS   C2119237   2.708   0.287   6.181 -1.3273  0.0346  0.2968
  170SAPS   O2219238   2.820   0.298   6.221 -0.0975 -0.2763 -0.0666
  170SAPS   C2219239   2.672   0.173   6.092  0.5248  0.4471  0.1649
  170SAPS   H2R19240   2.762   0.110   6.079 -1.3397 -2.6587  1.2898
  170SAPS   H2S19241   2.596   0.113   6.146  0.9682 -1.4975 -1.2361
  170SAPS    C319242   2.736   0.576   6.240 -0.5134  0.5138  0.5319
  170SAPS    HX19243   2.837   0.531   6.238 -0.4268  0.7378 -1.4683
  170SAPS    HY19244   2.731   0.653   6.321  2.0127 -0.4020  1.6478
  170SAPS   O3119245   2.710   0.632   6.106  0.7760  0.1610 -0.3897
  170SAPS   C3119246   2.790   0.730   6.069 -0.1669  0.0045  0.2073
  170SAPS   O3219247   2.873   0.791   6.132  0.0708  0.3816 -0.2484
  170SAPS   C3219248   2.748   0.760   5.925 -0.0086 -0.2103  0.5941
  170SAPS   H2X19249   2.679   0.847   5.931 -0.3955 -0.3830 -0.9252
  170SAPS   H2Y19250   2.704   0.671   5.875  1.0844 -0.6045  0.3272
  170SAPS   C2319251   2.599   0.211   5.957  0.2598 -0.6692 -0.3658
  170SAPS   H3R19252   2.502   0.262   5.974 -0.1202 -0.4697 -2.7705
  170SAPS   H3S19253   2.574   0.115   5.907  0.7187 -1.8271  1.5298
  170SAPS   C2419254   2.683   0.301   5.869 -0.4550 -0.4997  0.2465
  170SAPS   H4R19255   2.734   0.386   5.920 -0.2532 -0.4687 -0.0051
  170SAPS   H4S19256   2.624   0.344   5.785 -2.0997  1.0615  2.0888
  170SAPS   C2519257   2.799   0.212   5.821  0.5415 -0.5580  0.1160
  170SAPS   H5R19258   2.858   0.160   5.899  0.7231  0.8493  0.9590
  170SAPS   C2619259   2.840   0.208   5.699  0.7290  0.5980  0.5011
  170SAPS   H6R19260   2.920   0.138   5.670 -0.2975 -0.7000  0.7207
  170SAPS   C2719261   2.774   0.255   5.577 -0.5267 -0.2797  0.0770
  170SAPS   H7R19262   2.664   0.244   5.578 -0.3964 -1.7823  0.4670
  170SAPS   H7S19263   2.791   0.185   5.492 -5.4246 -2.2462  0.4367
  170SAPS   C2819264   2.795   0.402   5.555 -0.1791 -0.5205 -0.4737
  170SAPS   H8R19265   2.730   0.470   5.612  1.9268  1.1123  0.1086
  170SAPS   C2919266   2.896   0.455   5.484  0.8073  0.1821 -0.1062
  170SAPS   H9R19267   2.907   0.564   5.486 -2.1512  0.5522 -0.3806
  170SAPS  C21019268   2.996   0.366   5.414 -0.4379  0.4978 -0.6341
  170SAPS  H10R19269   3.046   0.428   5.337  0.1671  0.3743 -0.3428
  170SAPS  H10S19270   2.934   0.302   5.347 -1.8192 -0.8968  1.8076
  170SAPS  C21119271   3.097   0.287   5.497  0.2577 -0.3950  0.4712
  170SAPS  H11R19272   3.110   0.318   5.602  0.4822  3.4049 -0.5469
  170SAPS  C21219273   3.168   0.191   5.440  0.0095  0.8940 -0.3806
  170SAPS  H12R19274   3.252   0.152   5.500 -2.7649 -0.3893  2.9970
  170SAPS  C21319275   3.157   0.127   5.304 -0.2066  0.3833  0.5289
  170SAPS  H13R19276   3.051   0.128   5.273  0.4648  0.1404 -2.0177
  170SAPS  H13S19277   3.190   0.021   5.316 -1.5101 -0.2816 -1.3201
  170SAPS  C21419278   3.238   0.201   5.198 -0.1273  0.1546 -0.1525
  170SAPS  H14R19279   3.308   0.279   5.232 -0.6060  0.0486  1.1278
  170SAPS  C21519280   3.235   0.168   5.068  0.4310  0.5711  0.3710
  170SAPS  H15R19281   3.288   0.232   4.995  1.1687 -1.2614 -0.7735
  170SAPS  C21619282   3.159   0.049   5.017  0.5349 -0.0978 -0.0829
  170SAPS  H16R19283   3.048   0.059   5.012  0.3669 -1.6636  0.0119
  170SAPS  H16S19284   3.183  -0.045   5.070  1.9298  1.7495  2.8372
  170SAPS  C21719285   3.200   0.032   4.869 -0.4100 -0.4951 -0.2043
  170SAPS  H17R19286   3.168  -0.068   4.833  0.4297 -1.3551  1.3642
  170SAPS  H17S19287   3.310   0.039   4.856 -0.5462  0.6757 -0.9544
  170SAPS  C21819288   3.130   0.130   4.774 -0.3573 -0.0173  0.3708
  170SAPS  H18R19289   3.131   0.231   4.818  0.5924  0.5761 -0.9259
  170SAPS  H18S19290   3.026   0.097   4.754 -0.9692  2.3131 -0.5773
  170SAPS  C21919291   3.200   0.152   4.635 -0.0096 -0.2188  0.6925
  170SAPS  H19R19292   3.209   0.059   4.575  1.2167  0.1178  0.3343
  170SAPS  H19S19293   3.306   0.184   4.641  0.3259 -1.5056  2.3728
  170SAPS  C22019294   3.125   0.257   4.555  0.1783 -0.5947 -0.7999
  170SAPS  H20R19295   3.018   0.235   4.574  0.1129  0.0927 -0.3566
  170SAPS  H20S19296   3.159   0.254   4.449  0.9986  1.4149 -0.6434
  170SAPS  H20T19297   3.153   0.357   4.595  0.6182 -1.2415  0.5739
  170SAPS   C3319298   2.862   0.817   5.834  0.7543  0.6950  0.1301
  170SAPS   H3X19299   2.944   0.742   5.846 -1.8849 -2.6859 -1.2498
  170SAPS   H3Y19300   2.888   0.914   5.880 -1.3255 -0.1816  3.5018
  170SAPS   C3419301   2.830   0.821   5.692 -0.1292 -0.8841  0.3634
  170SAPS   H4X19302   2.807   0.721   5.648  0.7362 -1.1066  0.3898
  170SAPS   H4Y19303   2.921   0.860   5.642 -0.3107 -0.6811  0.1900
  170SAPS   C3519304   2.707   0.911   5.646  0.0956  1.0010 -0.6721
  170SAPS   H5X19305   2.742   1.010   5.684 -0.2473  1.4670 -1.5454
  170SAPS   H5Y19306   2.617   0.871   5.697  0.3158 -0.2875 -1.2579
  170SAPS   C3619307   2.676   0.911   5.495  0.7627  0.0716 -0.1811
  170SAPS   H6X19308   2.601   0.992   5.480  1.2715  0.3851 -1.1063
  170SAPS   H6Y19309   2.621   0.818   5.471 -1.0595  1.2213 -0.6432
  170SAPS   C3719310   2.785   0.924   5.387  0.5160 -0.5881  0.2777
  170SAPS   H7X19311   2.866   0.850   5.403  1.4911  0.0814 -1.3323
  170SAPS   H7Y19312   2.835   1.023   5.391 -0.9833  0.2378 -0.4167
  170SAPS   C3819313   2.717   0.896   5.250 -0.1008 -0.4794  0.8133
  170SAPS   H8X19314   2.647   0.981   5.234  1.2576  0.8139  1.4681
  170SAPS   H8Y19315   2.652   0.807   5.265 -0.5247 -0.0755  1.4453
  170SAPS   C3919316   2.816   0.894   5.130 -0.0068 -0.5150 -0.2786
  170SAPS   H9X19317   2.903   0.831   5.160 -0.2157 -1.1032 -0.8937
  170SAPS   H9Y19318   2.855   0.997   5.114 -2.0380  0.1673 -1.1058
  170SAPS  C31019319   2.742   0.853   5.000  0.6445  0.3176  0.0183
  170SAPS  H10X19320   2.654   0.917   4.978  0.3008 -0.1185  0.1047
  170SAPS  H10Y19321   2.715   0.745   5.005  1.2542  0.2445  2.7723
  170SAPS  C31119322   2.834   0.855   4.879  0.4500 -0.5457  1.1635
  170SAPS  H11X19323   2.788   0.845   4.778  0.3093  0.6058  1.1055
  170SAPS  H11Y19324   2.900   0.765   4.884  0.1282 -0.9045 -0.5794
  170SAPS  C31219325   2.915   0.984   4.867  0.0652 -0.2532 -0.2932
  170SAPS  H12X19326   2.988   0.993   4.950 -0.1584 -2.0574  0.1337
  170SAPS  H12Y19327   2.843   1.064   4.894  0.9604  0.0477  1.3562
  170SAPS  C31319328   2.984   1.033   4.734  0.3613  0.5237 -0.2865
  170SAPS  H13X19329   3.015   0.941   4.680  2.3440 -0.3224  2.1081
  170SAPS  H13Y19330   3.071   1.093   4.768  2.3949 -1.7232 -1.2419
  170SAPS  C31419331   2.884   1.126   4.653 -0.0368  0.0530 -0.6532
  170SAPS  H14X19332   2.891   1.227   4.698 -0.1483  0.0242 -0.5720
  170SAPS  H14Y19333   2.776   1.107   4.666  0.1497 -1.2786 -0.9392
  170SAPS  C31519334   2.913   1.117   4.506 -0.0330 -0.6438  0.1227
  170SAPS  H15X19335   2.909   1.012   4.471  0.5006 -0.9532  0.9799
  170SAPS  H15Y19336   3.021   1.141   4.492  0.1193 -1.8520 -0.9271
  170SAPS  C31619337   2.823   1.203   4.421  0.3254 -0.3437  0.4420
  170SAPS  H16X19338   2.828   1.300   4.476  0.8251  0.6049 -1.2254
  170SAPS  H16Y19339   2.718   1.167   4.423  0.5187 -1.0199 -0.7407
  170SAPS  C31719340   2.865   1.231   4.278 -0.2356 -1.1057  0.6701
  170SAPS  H17X19341   2.960   1.287   4.275 -2.0222  2.1204 -0.3467
  170SAPS  H17Y19342   2.808   1.309   4.224  0.7769  0.8523  2.3191
  170SAPS  C31819343   2.888   1.104   4.190  1.4618 -0.0956 -0.3349
  170SAPS  H18X19344   2.962   1.039   4.240  0.8518 -2.4276 -2.2691
  170SAPS  H18Y19345   2.921   1.131   4.088  1.0024  2.0555  0.0460
  170SAPS  H18Z19346   2.792   1.047   4.192  0.4699  1.5452  1.1948
  171SAPS     N19347   0.358   6.544   6.450 -0.0825  0.0956 -0.7441
  171SAPS   HN119348   0.431   6.489   6.400  0.9406  1.6576 -1.0314
  171SAPS   HN219349   0.296   6.472   6.492  1.7289 -0.8930  0.3575
  171SAPS   HN319350   0.320   6.586   6.363 -0.2063 -0.4524 -0.9599
  171SAPS   C1219351   0.393   6.650   6.552 -0.2971  0.1306 -0.2666
  171SAPS  H12A19352   0.293   6.691   6.563 -0.9699 -1.7981  1.7363
  171SAPS   C1319353   0.443   6.596   6.695 -0.4752 -0.0208  0.3631
  171SAPS  O13A19354   0.436   6.474   6.726 -0.4884  0.2749  0.3924
  171SAPS  O13B19355   0.451   6.683   6.786  0.9281  0.8860 -0.3846
  171SAPS   C1119356   0.485   6.757   6.491 -0.0317 -0.2725 -0.1703
  171SAPS  H11A19357   0.587   6.718   6.469  0.4719 -0.5448  2.3481
  171SAPS  H11B19358   0.492   6.852   6.549  1.0436 -0.0218 -0.6894
  171SAPS     P19359   0.470   6.906   6.276 -0.4869  0.5979  0.1320
  171SAPS   O1319360   0.613   6.925   6.299  0.3016 -0.1190 -0.9289
  171SAPS   O1419361   0.438   6.883   6.136 -0.0205 -0.3822 -0.1348
  171SAPS   O1219362   0.423   6.787   6.371  0.3917  0.1515  0.8159
  171SAPS   O1119363   0.401   7.033   6.326  0.4719  0.6329  0.0165
  171SAPS    C119364   0.264   7.055   6.353 -0.0655  0.8953 -0.4411
  171SAPS    HA19365   0.213   6.957   6.368  1.2269  0.0280 -1.4738
  171SAPS    HB19366   0.260   7.106   6.452 -0.2734 -0.2487  0.1627
  171SAPS    C219367   0.188   7.149   6.248 -0.0615 -0.2350  0.5110
  171SAPS    HS19368   0.078   7.145   6.264 -0.0745 -1.9194  0.1487
  171SAPS   O2119369   0.212   7.121   6.109  0.2224  0.1434 -0.4882
  171SAPS   C2119370   0.163   7.011   6.066  1.0136  0.5930  0.6269
  171SAPS   O2219371   0.079   6.940   6.118 -0.2246 -0.0768  0.3201
  171SAPS   C2219372   0.220   6.985   5.924  0.4569 -0.6762  0.1496
  171SAPS   H2R19373   0.271   7.082   5.903 -1.2213  0.6701  1.9496
  171SAPS   H2S19374   0.297   6.905   5.919  1.6207  0.4848 -2.7183
  171SAPS    C319375   0.228   7.299   6.279 -0.3321  1.3873 -0.7358
  171SAPS    HX19376   0.330   7.304   6.322 -1.4295  1.2045  2.1355
  171SAPS    HY19377   0.161   7.332   6.362 -2.3462 -0.0429 -1.6891
  171SAPS   O3119378   0.207   7.393   6.168 -0.3426  0.5527 -0.7358
  171SAPS   C3119379   0.299   7.390   6.080  0.3665  0.4484  0.3714
  171SAPS   O3219380   0.405   7.333   6.084 -0.4776  0.0541 -0.3626
  171SAPS   C3219381   0.255   7.481   5.963  0.1918 -0.3592  0.0614
  171SAPS   H2X19382   0.239   7.579   6.013 -0.2695 -1.6076  2.5383
  171SAPS   H2Y19383   0.165   7.436   5.917  0.3193 -0.4772 -0.0740
  171SAPS   C2319384   0.097   6.957   5.832 -0.4940 -0.2274 -0.5842
  171SAPS   H3R19385   0.043   7.053   5.822 -1.0550 -0.4155  0.4308
  171SAPS   H3S19386   0.019   6.896   5.884 -0.8215  0.6097 -0.0683
  171SAPS   C2419387   0.139   6.879   5.708  1.0560 -0.9050  0.1066
  171SAPS   H4R19388   0.049   6.879   5.643  0.7625  0.9612  0.4559
  171SAPS   H4S19389   0.153   6.771   5.728 -2.0544 -1.2739  0.7941
  171SAPS   C2519390   0.242   6.947   5.622  0.3967  0.3856 -0.5414
  171SAPS   H5R19391   0.335   6.981   5.671  0.7997  1.7321 -2.1573
  171SAPS   C2619392   0.233   6.948   5.488 -0.4309  0.0357  0.5822
  171SAPS   H6R19393   0.324   6.989   5.443 -0.5486 -1.4890 -1.1401
  171SAPS   C2719394   0.106   6.903   5.403 -0.6280 -0.3592  0.4929
  171SAPS   H7R19395   0.011   6.926   5.456 -1.9711 -1.0213 -1.5549
  171SAPS   H7S19396   0.123   6.797   5.376 -0.3680 -0.8297  2.3679
  171SAPS   C2819397   0.101   6.974   5.264 -0.4245  0.0247  0.1696
  171SAPS   H8R19398   0.183   7.042   5.234 -0.0068 -0.3965  0.3498
  171SAPS   C2919399   0.019   6.957   5.163 -0.3213  0.3083  0.3243
  171SAPS   H9R19400   0.029   7.025   5.077 -0.8480 -0.0465 -0.0198
  171SAPS  C21019401  -0.098   6.864   5.159 -0.9511 -0.5094  0.2059
  171SAPS  H10R19402  -0.181   6.915   5.213 -2.2653  1.5631 -3.4051
  171SAPS  H10S19403  -0.069   6.770   5.211  1.8641 -1.3297 -2.5405
  171SAPS  C21119404  -0.151   6.845   5.021  0.2026  0.1494 -0.2282
  171SAPS  H11R19405  -0.210   6.918   4.966  3.6185  2.5298 -1.0328
  171SAPS  C21219406  -0.124   6.734   4.952 -0.4126  0.2128 -0.3471
  171SAPS  H12R19407  -0.140   6.739   4.843  0.3117 -1.1361 -0.5315
  171SAPS  C21319408  -0.034   6.621   5.004  0.9435 -0.0160  0.2115
  171SAPS  H13R19409  -0.099   6.531   5.004 -1.4854  1.6335  0.4038
  171SAPS  H13S19410   0.018   6.619   5.102 -0.8408  1.4851  1.2643
  171SAPS  C21419411   0.074   6.597   4.897  0.1208 -0.1278 -0.1657
  171SAPS  H14R19412   0.126   6.690   4.870  0.4801  0.0962  1.2510
  171SAPS  C21519413   0.117   6.483   4.845  0.9191  0.1075 -0.3467
  171SAPS  H15R19414   0.207   6.486   4.782  2.7975 -0.2711  2.1882
  171SAPS  C21619415   0.059   6.351   4.872 -0.0213  0.4291  1.1442
  171SAPS  H16R19416  -0.017   6.359   4.953 -0.8489  1.7701  0.2634
  171SAPS  H16S19417   0.125   6.272   4.915 -2.0052 -1.5715  0.6997
  171SAPS  C21719418  -0.005   6.304   4.742  0.3255 -0.3745 -0.0650
  171SAPS  H17R19419  -0.067   6.383   4.694 -1.5088 -1.7869 -0.1457
  171SAPS  H17S19420  -0.082   6.225   4.757 -2.3323  2.1934  0.8465
  171SAPS  C21819421   0.096   6.245   4.642  0.1951 -0.6820 -0.3460
  171SAPS  H18R19422   0.181   6.194   4.692 -0.9411 -2.5994 -0.2668
  171SAPS  H18S19423   0.136   6.336   4.593  0.0750  0.7200  2.0030
  171SAPS  C21919424   0.046   6.151   4.535 -0.2854  0.5389  0.4456
  171SAPS  H19R19425  -0.023   6.214   4.475  1.0301  0.6779 -0.9761
  171SAPS  H19S19426  -0.007   6.061   4.573 -0.0116  1.4829  3.2644
  171SAPS  C22019427   0.165   6.104   4.451 -0.0588  0.2624  0.2403
  171SAPS  H20R19428   0.124   6.038   4.371 -3.2377 -0.4849  2.2885
  171SAPS  H20S19429   0.250   6.066   4.511 -0.5941 -0.1447  0.7615
  171SAPS  H20T19430   0.202   6.183   4.383 -2.2117 -1.4917 -3.3316
  171SAPS   C3319431   0.362   7.500   5.855 -0.4574  0.4405 -0.0669
  171SAPS   H3X19432   0.465   7.517   5.893 -0.4846  1.0347 -0.2519
  171SAPS   H3Y19433   0.346   7.583   5.783 -0.6730 -1.0406 -1.7897
  171SAPS   C3419434   0.376   7.377   5.763  0.3472 -0.0029  0.0578
  171SAPS   H4X19435   0.416   7.296   5.827 -1.7199 -0.1424  1.2559
  171SAPS   H4Y19436   0.456   7.393   5.687 -0.9633  2.2331 -0.9514
  171SAPS   C3519437   0.257   7.325   5.677 -0.0627 -0.6568 -0.4004
  171SAPS   H5X19438   0.167   7.335   5.742  1.0746  2.1042  0.8880
  171SAPS   H5Y19439   0.278   7.217   5.660 -0.7625 -1.2353  1.9817
  171SAPS   C3619440   0.237   7.409   5.555 -0.2229 -0.1694 -0.3708
  171SAPS   H6X19441   0.338   7.442   5.522  0.7811 -2.9550 -0.3410
  171SAPS   H6Y19442   0.173   7.497   5.578  0.4309  0.9120 -2.4554
  171SAPS   C3719443   0.169   7.327   5.441 -0.0598 -0.7122  0.3071
  171SAPS   H7X19444   0.074   7.279   5.474 -0.1642 -3.7291 -3.6114
  171SAPS   H7Y19445   0.239   7.246   5.412 -1.2739 -1.2692 -1.2135
  171SAPS   C3819446   0.148   7.422   5.319  0.2620  1.0790  0.4607
  171SAPS   H8X19447   0.250   7.465   5.310  0.6741  0.1478  0.6106
  171SAPS   H8Y19448   0.065   7.495   5.328  0.4108  1.8995 -3.2528
  171SAPS   C3919449   0.136   7.352   5.185  0.5875  0.5724  0.9584
  171SAPS   H9X19450   0.049   7.283   5.198  0.6141  0.3154 -0.1394
  171SAPS   H9Y19451   0.222   7.284   5.168  0.0797  0.4832 -1.6018
  171SAPS  C31019452   0.117   7.435   5.051  0.2869 -0.0364  0.2594
  171SAPS  H10X19453   0.195   7.513   5.039 -1.4280  1.5987 -0.7404
  171SAPS  H10Y19454   0.018   7.485   5.063  0.5978  1.0054 -1.2632
  171SAPS  C31119455   0.122   7.337   4.934 -0.2572  0.3401 -0.7173
  171SAPS  H11X19456   0.075   7.240   4.959  1.5497  0.1264  2.4972
  171SAPS  H11Y19457   0.221   7.300   4.901 -0.5108  0.1816 -1.3173
  171SAPS  C31219458   0.071   7.403   4.800  0.7514  0.7814 -0.5215
  171SAPS  H12X19459   0.117   7.505   4.800  0.8324  0.7462 -0.0749
  171SAPS  H12Y19460  -0.039   7.411   4.792  0.8040  2.1014 -0.1412
  171SAPS  C31319461   0.102   7.320   4.684  0.5393  0.2860 -0.1987
  171SAPS  H13X19462   0.005   7.296   4.635 -1.0551  1.8990  2.0157
  171SAPS  H13Y19463   0.151   7.222   4.704 -0.4098 -0.5447 -1.7564
  171SAPS  C31419464   0.193   7.384   4.577 -0.2548  0.5873 -0.6353
  171SAPS  H14X19465   0.289   7.416   4.624 -0.9608  0.9502  0.5802
  171SAPS  H14Y19466   0.142   7.477   4.544  0.2978  1.5599  1.1438
  171SAPS  C31519467   0.222   7.303   4.450 -0.6077 -0.4590  0.1580
  171SAPS  H15X19468   0.306   7.352   4.395  0.2630 -1.7482  0.2784
  171SAPS  H15Y19469   0.136   7.303   4.380 -2.0318  3.2540  1.6465
  171SAPS  C31619470   0.285   7.164   4.486  0.3913 -0.1836 -0.1300
  171SAPS  H16X19471   0.212   7.116   4.554  0.3732  1.1699  0.8355
  171SAPS  H16Y19472   0.382   7.184   4.537  2.7049  3.4122 -5.0333
  171SAPS  C31719473   0.320   7.074   4.370  0.3675  0.2082 -0.1146
  171SAPS  H17X19474   0.376   6.991   4.417  0.4269 -0.1627 -0.8347
  171SAPS  H17Y19475   0.388   7.120   4.295 -0.4999 -2.8142 -2.9707
  171SAPS  C31819476   0.205   7.013   4.291  0.3258  0.6706  0.5622
  171SAPS  H18X19477   0.235   6.917   4.244 -0.0743  1.4842 -1.4475
  171SAPS  H18Y19478   0.158   7.077   4.213  1.9692 -0.7462 -1.7058
  171SAPS  H18Z19479   0.124   6.979   4.360  0.5526  1.8726  1.4611
  172SAPS     N19480   5.940   1.553   6.829  0.7728 -0.2882  0.3126
  172SAPS   HN119481   5.987   1.591   6.744 -0.4566  2.1880  0.6626
  172SAPS   HN219482   5.901   1.459   6.807 -0.7660  0.4490 -0.1984
  172SAPS   HN319483   5.864   1.619   6.853 -1.1609 -2.2592 -0.1339
  172SAPS   C1219484   6.039   1.548   6.935  0.2352  0.2396  0.2257
  172SAPS  H12A19485   6.073   1.650   6.951  1.9408  0.1608 -2.2556
  172SAPS   C1319486   6.005   1.493   7.069  0.3508  0.4761 -0.5965
  172SAPS  O13A19487   5.891   1.457   7.094  1.0894  0.3305  0.2003
  172SAPS  O13B19488   6.089   1.508   7.167 -0.2853  0.0396  0.0426
  172SAPS   C1119489   6.163   1.468   6.877 -0.7190  0.0780  0.3365
  172SAPS  H11A19490   6.143   1.361   6.901 -2.4023  0.6049  1.4940
  172SAPS  H11B19491   6.253   1.499   6.934 -1.0522  0.4764  0.6530
  172SAPS     P19492   6.273   1.593   6.673  0.1982  0.2062  0.5692
  172SAPS   O1319493   6.238   1.716   6.743  0.0715  0.0638  0.1007
  172SAPS   O1419494   6.416   1.555   6.691  0.5934  0.6694 -0.0458
  172SAPS   O1219495   6.183   1.480   6.737  0.2188  0.1971 -0.0823
  172SAPS   O1119496   6.232   1.605   6.518  0.1588 -0.1535  0.0477
  172SAPS    C119497   6.115   1.546   6.457 -0.4551 -0.0564 -0.5501
  172SAPS    HA19498   6.042   1.524   6.537  1.1537  0.0705  1.0074
  172SAPS    HB19499   6.051   1.614   6.397 -1.4450 -1.1968 -0.8303
  172SAPS    C219500   6.170   1.424   6.379  0.3098  0.7193 -1.1443
  172SAPS    HS19501   6.251   1.385   6.445 -1.4576  1.0337  1.3434
  172SAPS   O2119502   6.219   1.485   6.256 -0.4015  0.1726 -0.7135
  172SAPS   C2119503   6.334   1.431   6.215 -0.3877  0.0868 -0.2721
  172SAPS   O2219504   6.396   1.334   6.268 -0.0146 -0.1440 -0.1999
  172SAPS   C2219505   6.375   1.507   6.092  0.2919  0.0566 -0.4928
  172SAPS   H2R19506   6.279   1.548   6.052  0.9487  2.2767  0.1045
  172SAPS   H2S19507   6.436   1.591   6.129 -0.5527 -0.4112  2.1661
  172SAPS    C319508   6.073   1.305   6.362 -0.1511 -0.1230  0.3242
  172SAPS    HX19509   5.982   1.346   6.314  2.5694  2.0341 -3.5549
  172SAPS    HY19510   6.037   1.267   6.460  0.7446  0.2289  0.8094
  172SAPS   O3119511   6.120   1.197   6.278 -0.4864  0.3259  0.1142
  172SAPS   C3119512   6.201   1.110   6.341  0.8682 -0.3923 -0.9768
  172SAPS   O3219513   6.230   1.127   6.460 -0.5996  0.4544  0.2157
  172SAPS   C3219514   6.258   1.006   6.251  0.0918 -0.3439 -0.7041
  172SAPS   H2X19515   6.315   0.921   6.295 -0.0016 -0.6410 -1.1460
  172SAPS   H2Y19516   6.325   1.065   6.184  1.7604  0.0866  1.2401
  172SAPS   C2319517   6.442   1.423   5.980 -0.1752  0.1888  0.8409
  172SAPS   H3R19518   6.413   1.317   5.998  0.4878 -0.0933  0.3013
  172SAPS   H3S19519   6.551   1.443   5.991 -0.2702  0.9327  0.4606
  172SAPS   C2419520   6.393   1.464   5.843 -0.4800  0.4109  0.2798
  172SAPS   H4R19521   6.470   1.440   5.767  0.0170 -1.4716  1.3146
  172SAPS   H4S19522   6.379   1.574   5.837 -2.5169  0.2281  0.8420
  172SAPS   C2519523   6.267   1.384   5.809  0.5476 -0.2394  0.5174
  172SAPS   H5R19524   6.179   1.402   5.872 -0.4057 -1.8544 -0.2896
  172SAPS   C2619525   6.244   1.312   5.697  0.1853 -0.1952  0.9103
  172SAPS   H6R19526   6.147   1.259   5.690  0.1207 -0.0670  0.8249
  172SAPS   C2719527   6.344   1.279   5.581  1.0005  0.3490  0.2493
  172SAPS   H7R19528   6.315   1.177   5.547  0.5572  0.9366 -1.2188
  172SAPS   H7S19529   6.452   1.276   5.607  1.0452 -0.2740 -0.0011
  172SAPS   C2819530   6.327   1.376   5.468 -0.3694 -0.3266  0.2953
  172SAPS   H8R19531   6.293   1.478   5.490 -0.4514 -0.0472 -1.0264
  172SAPS   C2919532   6.317   1.349   5.333 -0.3533 -1.0582  0.1615
  172SAPS   H9R19533   6.306   1.436   5.267  0.9086  0.1331  1.4525
  172SAPS  C21019534   6.357   1.219   5.270 -0.2779 -0.6188  0.5803
  172SAPS  H10R19535   6.411   1.158   5.345 -1.6449 -0.6061  1.6187
  172SAPS  H10S19536   6.434   1.237   5.192 -0.9950 -2.6233 -0.6810
  172SAPS  C21119537   6.249   1.133   5.208  0.2029 -0.3601 -0.1457
  172SAPS  H11R19538   6.168   1.107   5.278 -1.8352  5.2438  0.0828
  172SAPS  C21219539   6.231   1.100   5.080 -0.8477 -0.5363 -0.1751
  172SAPS  H12R19540   6.145   1.038   5.052 -0.1341 -0.4108 -2.9420
  172SAPS  C21319541   6.321   1.139   4.959 -0.1100  0.0288 -0.0837
  172SAPS  H13R19542   6.326   1.050   4.893 -1.8874  0.3493 -0.6978
  172SAPS  H13S19543   6.425   1.166   4.988 -0.0294  0.0188 -0.3656
  172SAPS  C21419544   6.258   1.248   4.872 -1.0316 -0.4130  0.2730
  172SAPS  H14R19545   6.336   1.325   4.864 -1.8677  0.8518  3.0040
  172SAPS  C21519546   6.143   1.259   4.811 -0.1974  0.6545 -0.6193
  172SAPS  H15R19547   6.122   1.359   4.770 -0.8305  1.4532  1.5185
  172SAPS  C21619548   6.030   1.153   4.818 -0.2480  0.1444  0.8405
  172SAPS  H16R19549   5.949   1.191   4.884  0.9177  0.0072  2.4024
  172SAPS  H16S19550   6.066   1.052   4.847 -0.2247 -0.0194  0.2582
  172SAPS  C21719551   5.976   1.141   4.670 -0.4769  0.5811 -0.0857
  172SAPS  H17R19552   5.926   1.233   4.634 -1.0234 -0.1103 -1.1427
  172SAPS  H17S19553   5.898   1.063   4.683  0.0670  0.1605  0.7638
  172SAPS  C21819554   6.073   1.090   4.557  0.1093  0.1952  0.0706
  172SAPS  H18R19555   6.011   1.057   4.471  0.0078 -1.3130  0.7042
  172SAPS  H18S19556   6.127   1.002   4.597 -0.8425 -1.3881 -1.9621
  172SAPS  C21919557   6.168   1.192   4.494  0.4188 -0.2207  0.6999
  172SAPS  H19R19558   6.250   1.233   4.557 -0.8977 -0.7537  2.8558
  172SAPS  H19S19559   6.111   1.282   4.464  3.0059  1.5858  0.8956
  172SAPS  C22019560   6.237   1.150   4.368 -0.6702  1.0260  0.4353
  172SAPS  H20R19561   6.293   1.056   4.390  0.3452  1.9432  1.9715
  172SAPS  H20S19562   6.308   1.229   4.334  1.0101 -1.0006 -1.0256
  172SAPS  H20T19563   6.172   1.127   4.281  1.1526  1.2089 -1.0324
  172SAPS   C3319564   6.154   0.941   6.158 -0.1333 -0.3901  0.7114
  172SAPS   H3X19565   6.100   1.017   6.099  4.3117  1.5988 -1.2414
  172SAPS   H3Y19566   6.090   0.882   6.227  0.8408  0.1429  2.1244
  172SAPS   C3419567   6.207   0.845   6.053  0.3053  0.4484  0.3517
  172SAPS   H4X19568   6.115   0.808   6.005  0.8589  1.4700 -1.5656
  172SAPS   H4Y19569   6.265   0.756   6.088  1.8999  1.2096 -0.2390
  172SAPS   C3519570   6.281   0.928   5.945 -0.7906 -0.4067  0.1386
  172SAPS   H5X19571   6.379   0.974   5.971 -0.5771  0.1332 -1.5498
  172SAPS   H5Y19572   6.222   1.018   5.920 -1.9458 -1.0935  0.2919
  172SAPS   C3619573   6.301   0.850   5.815  0.3039  0.5858  0.8230
  172SAPS   H6X19574   6.343   0.749   5.837  0.6757  0.3867 -0.7397
  172SAPS   H6Y19575   6.387   0.902   5.768  1.7836 -2.2488  0.1866
  172SAPS   C3719576   6.177   0.837   5.724 -0.0168 -0.4562  0.3974
  172SAPS   H7X19577   6.120   0.932   5.733  0.2430 -0.3283  0.7244
  172SAPS   H7Y19578   6.101   0.762   5.754 -1.6088  0.5549 -0.9547
  172SAPS   C3819579   6.208   0.817   5.572  0.7559  0.4961  0.4156
  172SAPS   H8X19580   6.217   0.708   5.555 -1.9099 -0.0544  1.9496
  172SAPS   H8Y19581   6.306   0.862   5.543 -0.4524  1.0161 -3.5339
  172SAPS   C3919582   6.093   0.868   5.481 -0.9499 -0.7992 -0.4411
  172SAPS   H9X19583   6.129   0.869   5.376  0.0910 -0.0054 -0.0920
  172SAPS   H9Y19584   6.061   0.972   5.505 -1.6600 -0.9544 -0.6945
  172SAPS  C31019585   5.968   0.770   5.474  0.3444 -0.8586 -0.2795
  172SAPS  H10X19586   5.930   0.754   5.577  0.0121  2.0234  0.1265
  172SAPS  H10Y19587   6.004   0.680   5.420 -1.3979 -0.6667 -1.8720
  172SAPS  C31119588   5.859   0.824   5.378 -0.3536  0.8212  0.0621
  172SAPS  H11X19589   5.854   0.933   5.396  2.6874  0.9118  0.9886
  172SAPS  H11Y19590   5.762   0.772   5.395  1.3312 -2.0112  1.9477
  172SAPS  C31219591   5.891   0.802   5.231  1.2854  0.3269 -0.1260
  172SAPS  H12X19592   5.908   0.692   5.226 -1.6857 -0.2082 -0.5007
  172SAPS  H12Y19593   5.987   0.846   5.198  0.4475  2.1922 -0.2210
  172SAPS  C31319594   5.770   0.846   5.139 -0.3995 -0.0509 -0.5125
  172SAPS  H13X19595   5.788   0.950   5.103 -2.9481  0.9933  0.9308
  172SAPS  H13Y19596   5.676   0.858   5.197  0.1473 -2.1280  0.9330
  172SAPS  C31419597   5.730   0.758   5.020 -0.2388  0.1881  0.0713
  172SAPS  H14X19598   5.700   0.657   5.053  0.2994 -0.4188 -1.2603
  172SAPS  H14Y19599   5.819   0.734   4.959 -0.8027 -2.2510  0.1287
  172SAPS  C31519600   5.614   0.815   4.937  0.2370  0.2642  0.2980
  172SAPS  H15X19601   5.532   0.846   5.006 -0.8243 -0.8903 -0.3895
  172SAPS  H15Y19602   5.558   0.737   4.880  0.2682  2.1524 -2.5226
  172SAPS  C31619603   5.648   0.936   4.857 -0.3439  0.4374  0.1115
  172SAPS  H16X19604   5.703   1.011   4.918  2.5850 -1.8909  0.6018
  172SAPS  H16Y19605   5.724   0.905   4.782 -1.4884 -0.9549 -0.5373
  172SAPS  C31719606   5.534   0.993   4.771  0.1016  0.0228 -0.4234
  172SAPS  H17X19607   5.499   0.906   4.712  0.2071  1.4367 -2.7166
  172SAPS  H17Y19608   5.577   1.069   4.702  0.9802  0.1136  0.2046
  172SAPS  C31819609   5.423   1.062   4.853 -0.0935 -0.1115 -0.0426
  172SAPS  H18X19610   5.366   0.989   4.915  1.1094 -1.2845 -0.2598
  172SAPS  H18Y19611   5.355   1.109   4.779 -2.0808 -0.0343  1.7129
  172SAPS  H18Z19612   5.464   1.145   4.914 -0.1471  2.3920 -3.2055
  173SAPS     N19613   0.298   5.836   1.758  0.3740  0.1757  0.2253
  173SAPS   HN119614   0.292   5.735   1.779  0.4385 -0.4253 -2.3132
  173SAPS   HN219615   0.215   5.864   1.703 -0.9422 -1.7973  1.1118
  173SAPS   HN319616   0.382   5.839   1.696  0.0706  0.8253 -0.1568
  173SAPS   C1219617   0.318   5.921   1.882  0.5620  0.4530  0.0067
  173SAPS  H12A19618   0.345   6.021   1.852 -2.0448  0.7597 -1.6809
  173SAPS   C1319619   0.196   5.936   1.965 -0.4523 -0.3565  0.5372
  173SAPS  O13A19620   0.094   5.875   1.945 -0.2630 -0.2941 -0.6112
  173SAPS  O13B19621   0.204   6.023   2.053 -0.6734 -0.4949  0.0807
  173SAPS   C1119622   0.421   5.844   1.977  0.5343 -0.2715  0.3795
  173SAPS  H11A19623   0.436   5.920   2.057 -0.2716  0.4302 -0.1206
  173SAPS  H11B19624   0.518   5.824   1.927  1.7193 -0.5218  2.6480
  173SAPS     P19625   0.447   5.605   2.086  0.1323 -0.2474  0.4976
  173SAPS   O1319626   0.357   5.485   2.105  0.5959 -0.4867 -0.3617
  173SAPS   O1419627   0.567   5.583   2.010  0.1617 -0.0413 -0.6006
  173SAPS   O1219628   0.363   5.722   2.022  0.1385 -0.0614 -0.0073
  173SAPS   O1119629   0.473   5.661   2.224 -0.8777  0.3414 -0.2543
  173SAPS    C119630   0.393   5.760   2.294 -0.2774  0.4219  0.1932
  173SAPS    HA19631   0.441   5.859   2.281  1.3588 -0.5206 -1.2836
  173SAPS    HB19632   0.290   5.769   2.254  0.2069  0.5619 -1.0732
  173SAPS    C219633   0.389   5.744   2.445 -0.9297 -0.1145 -0.3751
  173SAPS    HS19634   0.494   5.749   2.482 -0.5394  0.9905 -1.5711
  173SAPS   O2119635   0.326   5.619   2.459 -0.5797 -0.4429 -0.3261
  173SAPS   C2119636   0.372   5.549   2.561 -0.3895  0.5618  0.2420
  173SAPS   O2219637   0.450   5.591   2.648 -0.4343  0.0053  0.2346
  173SAPS   C2219638   0.319   5.410   2.550 -0.4450  0.9604  0.0748
  173SAPS   H2R19639   0.335   5.358   2.648 -2.1464 -0.3653 -0.2982
  173SAPS   H2S19640   0.212   5.406   2.521 -0.7742 -0.3656  1.3292
  173SAPS    C319641   0.309   5.851   2.507 -0.2421 -0.2893 -0.6120
  173SAPS    HX19642   0.203   5.833   2.481 -0.3319 -1.0778  0.2541
  173SAPS    HY19643   0.347   5.945   2.461  3.6225 -1.2074  0.3157
  173SAPS   O3119644   0.308   5.856   2.649 -0.0592 -0.6288  0.1840
  173SAPS   C3119645   0.424   5.894   2.697  0.0278  0.6327  0.5127
  173SAPS   O3219646   0.518   5.928   2.634 -0.5247  0.0872  0.4484
  173SAPS   C3219647   0.413   5.869   2.845 -0.8289  0.1059 -0.5899
  173SAPS   H2X19648   0.428   5.766   2.883  2.3612  0.8977  0.6070
  173SAPS   H2Y19649   0.318   5.912   2.883 -0.3357 -0.1380  1.0082
  173SAPS   C2319650   0.389   5.340   2.432 -0.4350  0.0880 -0.0178
  173SAPS   H3R19651   0.386   5.414   2.349  1.8790 -1.3347 -1.4816
  173SAPS   H3S19652   0.321   5.263   2.390  1.7371 -1.3566 -0.9881
  173SAPS   C2419653   0.534   5.300   2.445 -0.1490 -0.4869  0.0278
  173SAPS   H4R19654   0.597   5.389   2.463 -0.6155  0.0722 -0.9913
  173SAPS   H4S19655   0.565   5.261   2.345  0.7960  1.6996 -0.5949
  173SAPS   C2519656   0.540   5.193   2.549  0.7926 -0.7880  0.0373
  173SAPS   H5R19657   0.492   5.100   2.515  0.3989 -0.6715  0.2808
  173SAPS   C2619658   0.612   5.200   2.661 -0.3806  0.0556 -0.5125
  173SAPS   H6R19659   0.622   5.118   2.733 -0.7234  0.6176  0.1963
  173SAPS   C2719660   0.691   5.326   2.702  0.2968 -0.1458 -0.7272
  173SAPS   H7R19661   0.713   5.327   2.811  1.1813  1.5713 -0.8944
  173SAPS   H7S19662   0.623   5.413   2.689 -1.8052 -1.3861  1.1537
  173SAPS   C2819663   0.815   5.336   2.619  0.0589 -0.1640 -0.1005
  173SAPS   H8R19664   0.812   5.302   2.515  3.1140 -2.0173  0.3056
  173SAPS   C2919665   0.936   5.393   2.645  0.6041 -0.1952 -1.3393
  173SAPS   H9R19666   1.007   5.399   2.560 -0.3733  1.4157 -2.0885
  173SAPS  C21019667   0.989   5.443   2.780 -0.3044  0.3829 -0.6392
  173SAPS  H10R19668   1.035   5.359   2.835 -0.8089  1.0627  0.8757
  173SAPS  H10S19669   0.905   5.469   2.848  0.6399 -2.2133  1.6528
  173SAPS  C21119670   1.089   5.560   2.782  0.4534 -0.2646  0.1900
  173SAPS  H11R19671   1.073   5.638   2.706 -0.9578  0.2236  0.9484
  173SAPS  C21219672   1.195   5.561   2.866  0.3820  0.0038 -0.1169
  173SAPS  H12R19673   1.281   5.630   2.854  1.9352 -1.3658  2.3373
  173SAPS  C21319674   1.217   5.452   2.968  0.2231  0.6213  0.3266
  173SAPS  H13R19675   1.238   5.351   2.927 -0.8692 -0.9624  3.3409
  173SAPS  H13S19676   1.127   5.421   3.026  0.5976 -2.2601 -0.5330
  173SAPS  C21419677   1.333   5.491   3.055  0.0087  0.5576 -0.0688
  173SAPS  H14R19678   1.427   5.522   3.007  1.4715  0.6728  2.6800
  173SAPS  C21519679   1.344   5.483   3.187 -0.3303 -0.1346 -0.2853
  173SAPS  H15R19680   1.433   5.530   3.231  0.3966 -0.4563 -1.3772
  173SAPS  C21619681   1.241   5.427   3.279 -0.5232  0.0412 -0.3894
  173SAPS  H16R19682   1.277   5.326   3.308  1.1717 -0.1049 -2.6779
  173SAPS  H16S19683   1.141   5.421   3.232  0.3660  1.1208 -2.5824
  173SAPS  C21719684   1.240   5.511   3.410 -0.1394  0.7174  0.3249
  173SAPS  H17R19685   1.153   5.472   3.468  1.0449 -0.7728  1.1601
  173SAPS  H17S19686   1.210   5.616   3.390 -1.9459  0.2260  0.2934
  173SAPS  C21819687   1.361   5.507   3.503 -0.8507 -0.1942  0.4918
  173SAPS  H18R19688   1.328   5.565   3.591 -2.2393 -0.2248  0.0213
  173SAPS  H18S19689   1.436   5.562   3.442 -2.0003  1.0645  0.1603
  173SAPS  C21919690   1.423   5.376   3.551  0.1331 -0.9829 -0.2738
  173SAPS  H19R19691   1.459   5.328   3.457  1.5589  1.6864 -1.2175
  173SAPS  H19S19692   1.344   5.311   3.594  2.1342 -3.9117 -0.7641
  173SAPS  C22019693   1.544   5.393   3.656  0.0254  0.6248 -0.2963
  173SAPS  H20R19694   1.641   5.364   3.610 -0.9456 -1.8456 -0.9207
  173SAPS  H20S19695   1.519   5.331   3.744 -0.0796  3.1039  1.5403
  173SAPS  H20T19696   1.551   5.500   3.684 -3.0501  1.4449 -2.2227
  173SAPS   C3319697   0.522   5.950   2.926 -0.4961 -0.5880  0.6215
  173SAPS   H3X19698   0.518   6.055   2.892  0.7213 -0.5499  0.5411
  173SAPS   H3Y19699   0.624   5.910   2.908 -0.1525  0.7348 -0.5533
  173SAPS   C3419700   0.507   5.953   3.081 -0.1052  0.7250 -0.3653
  173SAPS   H4X19701   0.493   5.847   3.112 -0.2924  0.2083 -2.0717
  173SAPS   H4Y19702   0.415   6.011   3.106  0.3590  0.5632  1.8950
  173SAPS   C3519703   0.622   6.012   3.154 -0.6290  0.2169  0.3473
  173SAPS   H5X19704   0.637   6.120   3.135 -0.3295  0.3064  1.0673
  173SAPS   H5Y19705   0.713   5.958   3.120 -0.1242  0.3058  1.5055
  173SAPS   C3619706   0.616   6.012   3.307 -0.0079  0.3483 -0.1856
  173SAPS   H6X19707   0.618   5.907   3.342 -1.3796  0.0228 -1.0165
  173SAPS   H6Y19708   0.527   6.071   3.338  0.6239 -0.0873  2.7475
  173SAPS   C3719709   0.740   6.080   3.370  0.2898  0.3835 -0.0373
  173SAPS   H7X19710   0.753   6.182   3.328 -2.4631  1.5574  1.6445
  173SAPS   H7Y19711   0.830   6.023   3.339  0.7193  1.3478 -0.5924
  173SAPS   C3819712   0.731   6.100   3.522  0.0606  0.1560  0.3440
  173SAPS   H8X19713   0.739   5.995   3.559 -0.4889  0.0919  0.2848
  173SAPS   H8Y19714   0.629   6.140   3.539  1.0915  3.2791 -0.0950
  173SAPS   C3919715   0.839   6.192   3.579  0.3114 -0.5129  0.1243
  173SAPS   H9X19716   0.823   6.298   3.549 -0.4437 -0.2882  1.2659
  173SAPS   H9Y19717   0.942   6.157   3.553  1.2538  2.4335 -0.5386
  173SAPS  C31019718   0.840   6.189   3.734 -0.3202 -1.0056 -0.3927
  173SAPS  H10X19719   0.890   6.095   3.764 -0.3391 -0.0177  3.1599
  173SAPS  H10Y19720   0.738   6.201   3.777  0.3827  2.7158  0.5686
  173SAPS  C31119721   0.923   6.310   3.789  0.3987 -0.1333 -0.0102
  173SAPS  H11X19722   0.895   6.403   3.735  4.2392  1.8709  1.0862
  173SAPS  H11Y19723   1.030   6.293   3.763  1.1829 -0.2190  2.9456
  173SAPS  C31219724   0.923   6.324   3.942  0.8121  0.1178 -0.2438
  173SAPS  H12X19725   0.818   6.339   3.974  0.5976  0.3689 -1.0242
  173SAPS  H12Y19726   0.982   6.416   3.960  0.7568  0.6504 -2.4365
  173SAPS  C31319727   0.980   6.211   4.017 -0.7217 -0.7996 -0.7555
  173SAPS  H13X19728   1.043   6.161   3.940 -0.4507 -2.4281  0.4688
  173SAPS  H13Y19729   0.905   6.137   4.052 -1.7761  0.4348 -0.3623
  173SAPS  C31419730   1.073   6.258   4.140  0.2305 -0.5896 -0.0413
  173SAPS  H14X19731   1.021   6.342   4.192  2.5053  1.1164 -0.3699
  173SAPS  H14Y19732   1.160   6.306   4.090 -0.3647 -0.1431 -0.6648
  173SAPS  C31519733   1.108   6.154   4.247  0.6992  0.4013 -0.0302
  173SAPS  H15X19734   1.187   6.190   4.317 -0.0204 -0.3551  1.2068
  173SAPS  H15Y19735   1.152   6.068   4.191 -0.3030  0.8277 -1.5190
  173SAPS  C31619736   0.991   6.106   4.333 -0.3400 -0.2137  0.0169
  173SAPS  H16X19737   1.030   6.021   4.392 -1.5533  0.8066  2.4318
  173SAPS  H16Y19738   0.898   6.074   4.281 -1.6782  1.3128  1.3536
  173SAPS  C31719739   0.933   6.207   4.431  0.3693 -0.8839 -0.2013
  173SAPS  H17X19740   0.863   6.276   4.379 -0.0798 -0.4219  0.9779
  173SAPS  H17Y19741   1.012   6.269   4.478  0.0224 -1.0008  0.5520
  173SAPS  C31819742   0.840   6.151   4.541 -0.1410  1.4076  0.2106
  173SAPS  H18X19743   0.788   6.221   4.610 -1.3109 -0.6682  1.5518
  173SAPS  H18Y19744   0.895   6.075   4.601  0.8677  0.7235 -1.5136
  173SAPS  H18Z19745   0.766   6.093   4.480 -0.0935  0.0452  1.4021
  174SAPS     N19746   4.413   5.036   1.497  0.0515 -0.5403 -0.2153
  174SAPS   HN119747   4.361   4.953   1.462  0.7261 -1.4118  0.8000
  174SAPS   HN219748   4.396   5.115   1.432  1.6832  0.0535  0.0337
  174SAPS   HN319749   4.515   5.013   1.493 -0.1487 -2.0633  1.6192
  174SAPS   C1219750   4.389   5.093   1.635 -0.1902  0.3598  0.4033
  174SAPS  H12A19751   4.439   5.188   1.634  2.0724 -0.7661 -0.7480
  174SAPS   C1319752   4.236   5.120   1.669  0.1060 -0.2957 -0.4400
  174SAPS  O13A19753   4.152   5.063   1.593 -0.7710  0.0959 -0.5981
  174SAPS  O13B19754   4.207   5.153   1.792 -0.1033  0.1426  0.4533
  174SAPS   C1119755   4.455   5.006   1.743  0.1174 -0.2844  0.0417
  174SAPS  H11A19756   4.398   4.911   1.743 -0.1487 -0.1849 -2.3608
  174SAPS  H11B19757   4.446   5.055   1.843  0.4444 -0.2400  0.0491
  174SAPS     P19758   4.670   4.864   1.729  0.4924 -0.1261  0.1233
  174SAPS   O1319759   4.600   4.768   1.647 -0.4682  0.5656 -0.2303
  174SAPS   O1419760   4.813   4.881   1.700  0.7134  0.1736 -0.2661
  174SAPS   O1219761   4.593   4.998   1.713 -0.7619 -0.0497 -0.3202
  174SAPS   O1119762   4.655   4.832   1.887  0.5201  0.3397  0.4156
  174SAPS    C119763   4.694   4.937   1.973 -0.0367 -0.1155 -0.3933
  174SAPS    HA19764   4.797   4.967   1.947  0.2035 -1.9031 -1.6785
  174SAPS    HB19765   4.626   5.025   1.966 -0.9948 -0.8890 -1.2430
  174SAPS    C219766   4.692   4.886   2.126 -0.6305  0.2121  0.4047
  174SAPS    HS19767   4.587   4.886   2.162 -0.7694  0.5922  0.0042
  174SAPS   O2119768   4.767   4.981   2.210  0.5841  0.4462 -0.2320
  174SAPS   C2119769   4.715   5.098   2.229  0.4018 -0.2215  0.4222
  174SAPS   O2219770   4.606   5.138   2.192 -0.1452 -0.0232 -0.0313
  174SAPS   C2219771   4.811   5.181   2.318  0.3756  0.3631 -0.5988
  174SAPS   H2R19772   4.899   5.115   2.333 -0.2892 -0.8741 -1.8796
  174SAPS   H2S19773   4.828   5.273   2.258 -1.4100  0.6206 -0.7659
  174SAPS    C319774   4.751   4.742   2.132  0.8483  0.5708  0.4401
  174SAPS    HX19775   4.840   4.724   2.069  0.1176 -2.8398  0.1670
  174SAPS    HY19776   4.672   4.676   2.089  1.7340  0.3436 -0.9148
  174SAPS   O3119777   4.789   4.706   2.270  0.3003  0.4083 -0.2053
  174SAPS   C3119778   4.786   4.576   2.292  0.7622 -0.0083 -0.4730
  174SAPS   O3219779   4.750   4.489   2.218  0.0939 -0.3437 -0.0139
  174SAPS   C3219780   4.843   4.550   2.429 -0.6806  0.0923 -0.5230
  174SAPS   H2X19781   4.948   4.586   2.428 -0.9867  1.1914  1.9053
  174SAPS   H2Y19782   4.842   4.441   2.453 -1.0642  0.1268 -0.3822
  174SAPS   C2319783   4.728   5.214   2.445  0.1283 -0.0233 -0.9533
  174SAPS   H3R19784   4.626   5.250   2.420  0.7641  0.6515 -2.8385
  174SAPS   H3S19785   4.779   5.295   2.501  1.6024 -1.9521  0.6450
  174SAPS   C2419786   4.741   5.106   2.558 -0.3284 -0.6910  0.1982
  174SAPS   H4R19787   4.719   5.011   2.504 -3.5121  0.3914 -0.6377
  174SAPS   H4S19788   4.660   5.114   2.634  0.4090  3.0027  0.7686
  174SAPS   C2519789   4.875   5.096   2.624 -0.3336  1.0380  0.1507
  174SAPS   H5R19790   4.964   5.066   2.567 -1.8465 -4.5870  0.1560
  174SAPS   C2619791   4.892   5.140   2.752 -0.1482 -0.2771  0.0402
  174SAPS   H6R19792   4.979   5.101   2.806 -0.6047 -1.6951 -0.2027
  174SAPS   C2719793   4.784   5.213   2.835 -0.7797  0.5321  0.5415
  174SAPS   H7R19794   4.722   5.276   2.768 -1.6491  0.2162  1.0394
  174SAPS   H7S19795   4.834   5.287   2.902  1.3818  0.7524 -1.1809
  174SAPS   C2819796   4.695   5.118   2.913 -0.1594 -0.0717  0.0806
  174SAPS   H8R19797   4.660   5.029   2.859 -2.2208  0.0147  1.1908
  174SAPS   C2919798   4.641   5.151   3.027  0.6435  0.2660 -0.1832
  174SAPS   H9R19799   4.580   5.071   3.073  0.7993  0.1344 -0.2037
  174SAPS  C21019800   4.662   5.279   3.112  0.1581  0.3022 -0.2514
  174SAPS  H10R19801   4.664   5.361   3.037  1.3083 -1.0103 -1.7206
  174SAPS  H10S19802   4.762   5.275   3.160  0.1013 -0.8396 -0.1843
  174SAPS  C21119803   4.547   5.295   3.212  0.2886 -0.2286  0.3380
  174SAPS  H11R19804   4.559   5.219   3.291  0.7825 -0.6975 -0.1815
  174SAPS  C21219805   4.449   5.393   3.225  0.4311  0.3460  0.5821
  174SAPS  H12R19806   4.376   5.387   3.308 -1.0195  2.0115 -0.5184
  174SAPS  C21319807   4.431   5.510   3.137 -0.1730 -0.0543 -0.3677
  174SAPS  H13R19808   4.501   5.512   3.050  2.1090 -0.7688  1.3535
  174SAPS  H13S19809   4.441   5.606   3.193 -0.5119 -0.2898  0.1033
  174SAPS  C21419810   4.291   5.516   3.079  0.2039  0.4049  0.0223
  174SAPS  H14R19811   4.213   5.567   3.137 -1.8942 -0.3843 -1.9272
  174SAPS  C21519812   4.252   5.458   2.965  0.0121 -0.0447  0.0464
  174SAPS  H15R19813   4.151   5.479   2.929 -0.2843 -1.0269  0.2825
  174SAPS  C21619814   4.330   5.381   2.858 -0.8479 -0.0652 -0.2110
  174SAPS  H16R19815   4.315   5.274   2.883  1.0547 -0.7850 -1.8871
  174SAPS  H16S19816   4.437   5.408   2.874 -0.9703 -0.7591  2.2033
  174SAPS  C21719817   4.281   5.418   2.716  0.5290 -0.6265  0.2749
  174SAPS  H17R19818   4.286   5.527   2.698  0.7282 -0.2945  2.1008
  174SAPS  H17S19819   4.176   5.384   2.721 -0.2896  1.9253  3.5131
  174SAPS  C21819820   4.362   5.341   2.607  0.2965 -0.2165 -0.3329
  174SAPS  H18R19821   4.374   5.236   2.641  0.9321  0.4386  1.5564
  174SAPS  H18S19822   4.466   5.380   2.594  0.2247 -0.2212 -0.9627
  174SAPS  C21919823   4.300   5.330   2.467  0.5462 -0.2645 -0.3171
  174SAPS  H19R19824   4.361   5.267   2.399 -0.9518 -0.9328 -1.1093
  174SAPS  H19S19825   4.299   5.425   2.410  1.2955 -1.4087 -2.3254
  174SAPS  C22019826   4.156   5.274   2.467 -0.1597 -0.1304  0.6404
  174SAPS  H20R19827   4.153   5.214   2.560 -0.5680 -1.3111 -0.1054
  174SAPS  H20S19828   4.137   5.207   2.380 -0.4222 -1.3385  1.6053
  174SAPS  H20T19829   4.084   5.358   2.474 -1.1218 -0.8368 -0.4486
  174SAPS   C3319830   4.768   4.645   2.542  0.5505 -0.0525  0.8331
  174SAPS   H3X19831   4.663   4.615   2.566 -0.3692  1.8493 -0.5989
  174SAPS   H3Y19832   4.755   4.748   2.503  0.0946 -0.1555  0.6986
  174SAPS   C3419833   4.861   4.649   2.663  0.2731 -0.2444 -0.1777
  174SAPS   H4X19834   4.951   4.709   2.638  1.1145 -0.9045  1.1378
  174SAPS   H4Y19835   4.887   4.544   2.692  4.1961  0.0416 -2.0536
  174SAPS   C3519836   4.793   4.710   2.785 -0.5788 -0.5999 -0.2229
  174SAPS   H5X19837   4.704   4.652   2.815  1.0166 -1.1319  4.1957
  174SAPS   H5Y19838   4.772   4.818   2.770 -1.9493 -0.9019 -0.5499
  174SAPS   C3619839   4.885   4.706   2.910  0.6465  0.1163 -0.4703
  174SAPS   H6X19840   4.986   4.747   2.889  1.5256 -0.1097  2.8381
  174SAPS   H6Y19841   4.896   4.606   2.957  0.3728  0.0619 -0.5188
  174SAPS   C3719842   4.831   4.793   3.030  0.0246  0.8157 -0.3394
  174SAPS   H7X19843   4.721   4.788   3.044 -0.1814  1.5972 -1.5407
  174SAPS   H7Y19844   4.846   4.900   3.002 -2.8375  1.3337 -0.1888
  174SAPS   C3819845   4.908   4.762   3.166 -0.3079  0.7042  0.5537
  174SAPS   H8X19846   5.019   4.752   3.163 -0.5056 -3.0182  1.1406
  174SAPS   H8Y19847   4.865   4.663   3.193 -0.1611  0.7511  0.9516
  174SAPS   C3919848   4.861   4.864   3.272  0.0589 -0.4396 -0.5978
  174SAPS   H9X19849   4.750   4.864   3.275  0.0464 -2.4116  0.7234
  174SAPS   H9Y19850   4.897   4.960   3.231  0.9126 -1.6589 -2.8906
  174SAPS  C31019851   4.905   4.837   3.411 -0.7665 -0.2544  0.0397
  174SAPS  H10X19852   5.014   4.860   3.410 -0.9806  1.1852 -3.5209
  174SAPS  H10Y19853   4.905   4.727   3.427 -1.1146 -0.5580 -1.8141
  174SAPS  C31119854   4.831   4.915   3.528 -0.8627 -0.6655  0.5725
  174SAPS  H11X19855   4.721   4.929   3.516 -0.7272  0.2015  0.2527
  174SAPS  H11Y19856   4.874   5.014   3.501 -1.6917 -1.2365 -3.5468
  174SAPS  C31219857   4.893   4.891   3.670  0.1296 -0.3318 -0.4951
  174SAPS  H12X19858   4.991   4.944   3.676  0.5967 -1.0480 -1.5388
  174SAPS  H12Y19859   4.908   4.781   3.665  0.7568 -0.2367 -0.7713
  174SAPS  C31319860   4.793   4.932   3.782  0.5198  0.0714  0.6592
  174SAPS  H13X19861   4.700   4.881   3.750  0.1752  0.9537  0.2326
  174SAPS  H13Y19862   4.778   5.040   3.764  0.4492  0.0496  0.5893
  174SAPS  C31419863   4.847   4.896   3.914  0.4307  0.0847 -0.0725
  174SAPS  H14X19864   4.952   4.932   3.906  0.2094  0.4833 -1.3675
  174SAPS  H14Y19865   4.857   4.785   3.919  3.1862  0.2773  0.5985
  174SAPS  C31519866   4.775   4.964   4.037  0.5491 -0.0880  0.7954
  174SAPS  H15X19867   4.673   4.922   4.035  0.8540 -0.8601  0.9969
  174SAPS  H15Y19868   4.770   5.075   4.039 -0.1589 -0.1225  2.1710
  174SAPS  C31619869   4.854   4.927   4.166  0.5011 -0.5593 -0.4118
  174SAPS  H16X19870   4.952   4.977   4.155 -1.9258  4.6299 -2.0376
  174SAPS  H16Y19871   4.861   4.817   4.179  0.6061 -0.3760  1.3460
  174SAPS  C31719872   4.809   4.996   4.300 -0.2912 -0.7201  0.5052
  174SAPS  H17X19873   4.818   5.106   4.288 -0.7771 -0.6461  0.7982
  174SAPS  H17Y19874   4.880   4.963   4.378 -0.3589 -0.9694  0.4638
  174SAPS  C31819875   4.673   4.959   4.343  0.5717  0.0327 -0.2130
  174SAPS  H18X19876   4.634   5.033   4.416  1.1802 -1.3578  1.5968
  174SAPS  H18Y19877   4.673   4.858   4.389  1.1712 -0.1686 -0.6274
  174SAPS  H18Z19878   4.603   4.955   4.258 -1.5389 -3.1102  1.4668
  175SAPS     N19879   0.878   4.364   1.998 -0.0748  0.6426 -0.4173
  175SAPS   HN119880   0.946   4.438   1.974  1.3741  0.0255  1.4549
  175SAPS   HN219881   0.812   4.354   1.918  0.9561 -2.1801 -1.0356
  175SAPS   HN319882   0.827   4.404   2.080  2.2426 -0.9307  1.9757
  175SAPS   C1219883   0.957   4.242   2.032 -0.0864  1.2066  0.0046
  175SAPS  H12A19884   0.900   4.162   2.077  1.1833 -0.2035 -0.7763
  175SAPS   C1319885   1.025   4.174   1.907  0.0607 -0.2917  0.4635
  175SAPS  O13A19886   1.010   4.226   1.793 -0.3461 -0.3996 -0.1866
  175SAPS  O13B19887   1.120   4.088   1.918 -0.4523 -0.2537 -0.6480
  175SAPS   C1119888   1.067   4.270   2.133 -0.5443  0.5255  0.6139
  175SAPS  H11A19889   1.123   4.175   2.138 -1.9049 -0.3055  0.4254
  175SAPS  H11B19890   1.016   4.297   2.227 -0.4730 -0.1948  0.8641
  175SAPS     P19891   1.242   4.456   2.210 -0.0279 -0.1028 -0.3368
  175SAPS   O1319892   1.335   4.351   2.253  1.1828  0.6971  0.2156
  175SAPS   O1419893   1.298   4.578   2.147  0.0908  0.1729 -0.0667
  175SAPS   O1219894   1.154   4.384   2.098  0.2029 -0.1626  0.0683
  175SAPS   O1119895   1.137   4.483   2.320 -0.5593  0.3150 -0.6240
  175SAPS    C119896   1.155   4.581   2.421 -0.0782  0.2666  0.4314
  175SAPS    HA19897   1.159   4.680   2.372  1.7743  1.2893  2.5139
  175SAPS    HB19898   1.058   4.570   2.475 -0.3797 -0.0656 -0.1687
  175SAPS    C219899   1.272   4.547   2.515 -0.3741  0.5058 -0.3442
  175SAPS    HS19900   1.369   4.543   2.460 -0.6716 -0.2816 -0.8238
  175SAPS   O2119901   1.250   4.425   2.583  0.3403  0.0391  0.0602
  175SAPS   C2119902   1.361   4.369   2.622 -0.8096  0.3701  0.1428
  175SAPS   O2219903   1.467   4.407   2.587 -0.5674 -0.1429 -0.2596
  175SAPS   C2219904   1.332   4.250   2.717  0.2591 -0.0102  0.1544
  175SAPS   H2R19905   1.236   4.202   2.685 -0.4733  1.1267  0.5992
  175SAPS   H2S19906   1.404   4.170   2.691 -0.8193 -1.5070  1.5531
  175SAPS    C319907   1.295   4.663   2.621 -0.0072 -0.1714 -0.0814
  175SAPS    HX19908   1.197   4.665   2.673 -0.6253 -0.8250 -1.1851
  175SAPS    HY19909   1.295   4.765   2.577 -0.8148  0.9555  2.3873
  175SAPS   O3119910   1.402   4.641   2.715 -0.0323  0.7308  0.3429
  175SAPS   C3119911   1.522   4.689   2.675  0.3804 -0.4397 -0.7747
  175SAPS   O3219912   1.545   4.745   2.572  0.5080  0.2005  0.0198
  175SAPS   C3219913   1.632   4.670   2.777  0.0846 -0.6062 -0.1748
  175SAPS   H2X19914   1.637   4.560   2.791 -0.4142 -0.7445 -1.0193
  175SAPS   H2Y19915   1.604   4.711   2.877  0.3584 -2.8998  0.9170
  175SAPS   C2319916   1.335   4.274   2.864  0.0185 -0.8427 -0.2580
  175SAPS   H3R19917   1.438   4.315   2.875  0.2896 -1.6178  0.1621
  175SAPS   H3S19918   1.332   4.172   2.909 -1.1894 -0.7007  0.0140
  175SAPS   C2419919   1.239   4.371   2.924 -0.0711  0.1894  0.1103
  175SAPS   H4R19920   1.139   4.341   2.884 -1.4191  2.5575  1.4860
  175SAPS   H4S19921   1.244   4.476   2.887  1.3671  0.4324  0.9424
  175SAPS   C2519922   1.225   4.369   3.075  0.7722  0.2822  0.1312
  175SAPS   H5R19923   1.177   4.279   3.115  0.4891  0.6865  0.7173
  175SAPS   C2619924   1.281   4.455   3.164 -0.2071 -0.5780 -0.2220
  175SAPS   H6R19925   1.278   4.428   3.271  2.9024 -0.8223 -0.1047
  175SAPS   C2719926   1.375   4.567   3.135  0.8265 -0.7567  0.1655
  175SAPS   H7R19927   1.366   4.647   3.212 -1.7431 -0.8445  0.0266
  175SAPS   H7S19928   1.351   4.620   3.041 -1.1201 -0.9045  0.5521
  175SAPS   C2819929   1.510   4.512   3.115  0.5409 -0.6665 -0.0861
  175SAPS   H8R19930   1.534   4.477   3.014 -0.5063 -0.3729 -0.4433
  175SAPS   C2919931   1.616   4.530   3.194  0.4513  0.2196 -0.4321
  175SAPS   H9R19932   1.711   4.501   3.146 -0.6337 -3.0849 -0.8162
  175SAPS  C21019933   1.623   4.595   3.328 -0.2614 -0.6331 -0.6702
  175SAPS  H10R19934   1.556   4.684   3.322 -0.4977 -0.8100 -0.6664
  175SAPS  H10S19935   1.727   4.628   3.351 -0.6619  0.3783 -0.2335
  175SAPS  C21119936   1.582   4.492   3.438  0.3409 -0.5235  0.0680
  175SAPS  H11R19937   1.625   4.392   3.425  0.7290 -0.3846  0.2608
  175SAPS  C21219938   1.484   4.506   3.529  0.2532 -0.3749  0.3656
  175SAPS  H12R19939   1.472   4.428   3.606 -0.9749  0.4208  1.0257
  175SAPS  C21319940   1.388   4.627   3.553  0.2426 -0.3250 -0.1805
  175SAPS  H13R19941   1.417   4.711   3.485  0.0591  0.3866  0.6000
  175SAPS  H13S19942   1.405   4.666   3.655 -2.1240  1.6627 -0.4457
  175SAPS  C21419943   1.239   4.590   3.550 -0.1007 -0.1900  0.8902
  175SAPS  H14R19944   1.217   4.509   3.479  1.9367  1.9431 -2.4871
  175SAPS  C21519945   1.136   4.633   3.625  0.5557 -0.2001  0.1929
  175SAPS  H15R19946   1.034   4.597   3.601  0.4998  0.6570 -0.9082
  175SAPS  C21619947   1.151   4.735   3.732  0.1063  0.0102 -0.0245
  175SAPS  H16R19948   1.068   4.807   3.745  0.5226  0.4509  0.2578
  175SAPS  H16S19949   1.239   4.797   3.702  1.0378 -2.3350 -2.6088
  175SAPS  C21719950   1.194   4.663   3.862  0.2683  0.9788 -0.2875
  175SAPS  H17R19951   1.297   4.626   3.844 -0.4794 -0.5529 -1.6380
  175SAPS  H17S19952   1.129   4.573   3.873  2.8521 -1.3967 -2.6337
  175SAPS  C21819953   1.180   4.756   3.981  0.3470  0.7526 -0.3299
  175SAPS  H18R19954   1.241   4.849   3.971  0.7124  0.4217 -1.1734
  175SAPS  H18S19955   1.220   4.714   4.076  0.2978  1.0339 -0.1836
  175SAPS  C21919956   1.029   4.795   4.020 -0.0793 -0.4435 -0.1925
  175SAPS  H19R19957   0.982   4.695   4.022  1.2046 -1.0555  0.6463
  175SAPS  H19S19958   0.976   4.861   3.948  1.2709  0.5722 -0.2971
  175SAPS  C22019959   1.022   4.872   4.153 -0.2644  0.0687 -1.1644
  175SAPS  H20R19960   1.090   4.960   4.152 -2.0532  1.6951  2.5814
  175SAPS  H20S19961   1.060   4.805   4.233  0.8395  2.5487  0.4889
  175SAPS  H20T19962   0.916   4.892   4.176 -0.8476 -2.3150 -1.5247
  175SAPS   C3319963   1.771   4.731   2.732 -0.1758  0.6595 -0.2197
  175SAPS   H3X19964   1.773   4.744   2.621  1.4333  0.9060 -0.1843
  175SAPS   H3Y19965   1.856   4.665   2.758 -1.5104 -0.6108  1.0338
  175SAPS   C3419966   1.805   4.863   2.800 -0.1013 -0.0955 -0.3372
  175SAPS   H4X19967   1.729   4.939   2.773  1.4762  1.4468 -0.6438
  175SAPS   H4Y19968   1.899   4.911   2.766  0.3413 -0.2431  0.6416
  175SAPS   C3519969   1.827   4.865   2.951 -0.4773  0.7534 -0.4443
  175SAPS   H5X19970   1.900   4.784   2.976 -1.3599 -0.6780 -2.2759
  175SAPS   H5Y19971   1.735   4.825   3.000  0.9553 -0.9240  1.0508
  175SAPS   C3619972   1.873   4.997   3.011 -0.1033 -0.6681 -0.7192
  175SAPS   H6X19973   1.786   5.066   2.999 -0.0021 -0.1982  0.9365
  175SAPS   H6Y19974   1.959   5.047   2.962 -0.1790  0.2679  0.0467
  175SAPS   C3719975   1.912   4.989   3.160  0.1750  0.2729 -0.7493
  175SAPS   H7X19976   2.018   4.955   3.158  0.6408  1.6322 -0.0677
  175SAPS   H7Y19977   1.847   4.916   3.213  1.5816  0.2020  0.9849
  175SAPS   C3819978   1.912   5.116   3.243 -0.2299 -0.3307 -1.2131
  175SAPS   H8X19979   1.806   5.144   3.225 -0.7857 -1.2064  0.4787
  175SAPS   H8Y19980   1.969   5.200   3.198 -1.5702  1.3560  0.0540
  175SAPS   C3919981   1.957   5.089   3.389 -0.6087 -0.3113  1.0370
  175SAPS   H9X19982   2.068   5.078   3.395 -0.6075 -3.0204 -1.7262
  175SAPS   H9Y19983   1.910   4.997   3.429 -0.7043 -0.0226  1.6002
  175SAPS  C31019984   1.918   5.203   3.479 -0.4320  0.2416  0.3228
  175SAPS  H10X19985   1.809   5.225   3.478 -0.2038  1.4264  0.2431
  175SAPS  H10Y19986   1.960   5.295   3.436  0.4053 -0.5512 -0.5951
  175SAPS  C31119987   1.964   5.170   3.621 -0.1172 -0.0231  0.1200
  175SAPS  H11X19988   2.072   5.150   3.638 -0.2532  1.1843  2.8083
  175SAPS  H11Y19989   1.908   5.079   3.652 -0.6959  0.3338  0.1287
  175SAPS  C31219990   1.928   5.282   3.721  0.3938 -0.0972  0.0633
  175SAPS  H12X19991   1.818   5.299   3.722  0.0483 -2.0752  1.6908
  175SAPS  H12Y19992   1.985   5.366   3.675 -0.3929 -0.1609 -1.0731
  175SAPS  C31319993   1.963   5.247   3.875 -0.1486 -0.4746  0.4461
  175SAPS  H13X19994   1.909   5.158   3.914 -0.7147 -0.5596 -0.4848
  175SAPS  H13Y19995   1.926   5.334   3.933 -1.3361 -0.4505 -0.3203
  175SAPS  C31419996   2.117   5.230   3.897 -0.7708  0.3764 -0.0306
  175SAPS  H14X19997   2.174   5.310   3.845  2.5850 -1.4592  0.6234
  175SAPS  H14Y19998   2.143   5.136   3.846  0.5524  2.0010 -2.5662
  175SAPS  C31519999   2.153   5.229   4.047 -0.7776 -0.1613 -0.4698
  175SAPS  H15X20000   2.142   5.333   4.084  2.1722 -0.1937  0.8016
  175SAPS  H15Y20001   2.259   5.200   4.059 -0.6456  0.9769  1.5945
  175SAPS  C31620002   2.072   5.141   4.147  0.1997  0.5522  0.1313
  175SAPS  H16X20003   2.061   5.047   4.088  0.1703  1.1786 -0.8840
  175SAPS  H16Y20004   1.972   5.186   4.160 -0.1391 -0.2288  0.3049
  175SAPS  C31720005   2.143   5.128   4.277  0.5883 -0.1972  0.1062
  175SAPS  H17X20006   2.186   5.220   4.322  0.0267  0.0048  0.2356
  175SAPS  H17Y20007   2.236   5.069   4.261  0.7894  0.5086 -1.4593
  175SAPS  C31820008   2.060   5.057   4.384  0.2294 -0.8479  0.4477
  175SAPS  H18X20009   2.099   5.074   4.486 -0.3680 -0.8955  0.6858
  175SAPS  H18Y20010   2.052   4.948   4.365  3.0467 -1.2146  1.0184
  175SAPS  H18Z20011   1.956   5.096   4.381  0.4643 -0.2492 -1.4764
  176SAPS     N20012   1.304   1.305   2.640  0.4474 -0.2418  0.5348
  176SAPS   HN120013   1.250   1.390   2.665  0.8580  0.9121 -2.1432
  176SAPS   HN220014   1.320   1.232   2.712 -1.5053 -0.5288  0.7264
  176SAPS   HN320015   1.397   1.339   2.606  0.6898 -0.2273  1.1923
  176SAPS   C1220016   1.223   1.233   2.535 -0.0815 -0.1053  0.3814
  176SAPS  H12A20017   1.143   1.178   2.584 -1.2698  1.7131  0.5883
  176SAPS   C1320018   1.161   1.318   2.425  0.4603 -0.6089 -0.4487
  176SAPS  O13A20019   1.189   1.444   2.406  0.1343 -0.9646 -0.2653
  176SAPS  O13B20020   1.083   1.259   2.347 -0.7410 -0.0626 -0.3752
  176SAPS   C1120021   1.315   1.121   2.473  0.5432 -0.3576 -0.0034
  176SAPS  H11A20022   1.390   1.181   2.417  0.6728 -1.1847 -0.7254
  176SAPS  H11B20023   1.257   1.067   2.395  1.3425 -0.5107 -0.4954
  176SAPS     P20024   1.444   0.903   2.543  0.4962 -0.2705  0.0643
  176SAPS   O1320025   1.528   0.919   2.417  0.5471 -0.1856 -0.5090
  176SAPS   O1420026   1.509   0.849   2.663  0.4987  0.5229 -0.3589
  176SAPS   O1220027   1.377   1.040   2.572  0.2239  1.0681 -0.1547
  176SAPS   O1120028   1.314   0.813   2.505  0.3717  0.1876  0.6331
  176SAPS    C120029   1.189   0.824   2.564 -0.6214 -0.5385  0.6935
  176SAPS    HA20030   1.147   0.924   2.538 -0.9079 -1.0786 -1.0635
  176SAPS    HB20031   1.126   0.743   2.520  2.8447 -2.4210 -1.3010
  176SAPS    C220032   1.185   0.784   2.711  0.8476 -0.1674  0.0454
  176SAPS    HS20033   1.257   0.844   2.770 -0.7613  0.9482  0.9634
  176SAPS   O2120034   1.219   0.645   2.712 -0.0039 -0.4367  0.2250
  176SAPS   C2120035   1.276   0.605   2.826  0.2173 -0.5114  0.4631
  176SAPS   O2220036   1.303   0.683   2.920 -0.3159 -0.0723  0.4888
  176SAPS   C2220037   1.288   0.456   2.830  0.3251 -0.0608  0.5377
  176SAPS   H2R20038   1.191   0.405   2.812  0.9450 -0.5042 -1.8886
  176SAPS   H2S20039   1.354   0.435   2.743 -2.2637 -0.3666 -1.4727
  176SAPS    C320040   1.042   0.820   2.776  0.4528 -0.0802  0.5752
  176SAPS    HX20041   0.972   0.761   2.713  2.8029 -0.0022 -2.3473
  176SAPS    HY20042   1.013   0.925   2.752 -1.5088 -1.0804 -1.8664
  176SAPS   O3120043   1.019   0.781   2.912 -0.2322 -0.1522  0.4658
  176SAPS   C3120044   1.064   0.864   2.996  0.7107  0.0056 -0.3009
  176SAPS   O3220045   1.115   0.977   2.978  0.2332  0.2112  0.7338
  176SAPS   C3220046   1.059   0.790   3.133 -0.4156 -0.3507 -0.0703
  176SAPS   H2X20047   1.071   0.681   3.115  3.5369 -0.1160  0.2364
  176SAPS   H2Y20048   0.963   0.812   3.184 -0.4725 -0.5984 -0.0701
  176SAPS   C2320049   1.350   0.397   2.961  0.6417 -0.5562  0.0411
  176SAPS   H3R20050   1.309   0.442   3.054  0.5103 -0.2797 -0.1479
  176SAPS   H3S20051   1.450   0.441   2.982 -0.3691  1.3052  1.1963
  176SAPS   C2420052   1.351   0.245   2.967  0.7277 -0.0114  0.2009
  176SAPS   H4R20053   1.423   0.218   3.047  0.7169 -0.1991  0.1466
  176SAPS   H4S20054   1.391   0.215   2.868 -0.0086  1.4802 -0.5871
  176SAPS   C2520055   1.211   0.191   2.986 -0.1788 -0.1667  0.1337
  176SAPS   H5R20056   1.141   0.194   2.901 -0.5649 -2.3622  0.3057
  176SAPS   C2620057   1.159   0.134   3.093 -0.2212  0.2074 -0.3223
  176SAPS   H6R20058   1.053   0.105   3.090 -0.1027 -0.8966  2.4240
  176SAPS   C2720059   1.224   0.106   3.228  0.9346  0.2575 -0.3046
  176SAPS   H7R20060   1.316   0.165   3.251  1.0737  0.4699 -1.3403
  176SAPS   H7S20061   1.265   0.004   3.214 -1.0879 -0.4457 -1.4729
  176SAPS   C2820062   1.134   0.102   3.353  0.1128  0.5006  0.4668
  176SAPS   H8R20063   1.028   0.124   3.338 -0.0139 -1.0659 -1.3977
  176SAPS   C2920064   1.183   0.084   3.474  0.3929 -0.2558  0.0566
  176SAPS   H9R20065   1.114   0.098   3.558  0.9103 -0.5363  0.5349
  176SAPS  C21020066   1.328   0.067   3.510 -0.5014 -0.5935 -1.1545
  176SAPS  H10R20067   1.387  -0.002   3.446  2.9654 -1.2721  2.3773
  176SAPS  H10S20068   1.329   0.012   3.606 -2.3522  2.1287  0.5716
  176SAPS  C21120069   1.399   0.201   3.527  0.3733 -0.1954  0.1278
  176SAPS  H11R20070   1.410   0.260   3.435 -1.5267  2.6140  1.5778
  176SAPS  C21220071   1.443   0.256   3.645  0.0431 -0.0275  0.3607
  176SAPS  H12R20072   1.502   0.349   3.642  0.7582 -0.5038 -1.6554
  176SAPS  C21320073   1.431   0.192   3.780 -0.4090  0.9969  0.0556
  176SAPS  H13R20074   1.528   0.139   3.793 -1.6323 -0.8978  2.0872
  176SAPS  H13S20075   1.357   0.110   3.772  2.0058 -1.1642 -1.6212
  176SAPS  C21420076   1.406   0.282   3.897  0.6475 -0.3644  0.2207
  176SAPS  H14R20077   1.381   0.387   3.875  0.3409 -0.4603  0.1091
  176SAPS  C21520078   1.420   0.236   4.021  0.1584  0.4433  0.0266
  176SAPS  H15R20079   1.396   0.297   4.109 -2.0647  0.8621 -0.7876
  176SAPS  C21620080   1.464   0.094   4.046 -0.3302  0.0005  0.0392
  176SAPS  H16R20081   1.567   0.076   4.009 -0.4867 -1.3677  0.2155
  176SAPS  H16S20082   1.384   0.024   4.012 -1.4636 -0.3672  3.1495
  176SAPS  C21720083   1.467   0.072   4.199  0.0292  0.2483 -0.2298
  176SAPS  H17R20084   1.487  -0.034   4.225 -0.0794  0.2796 -0.0162
  176SAPS  H17S20085   1.371   0.099   4.247  0.2156 -1.7211  1.3851
  176SAPS  C21820086   1.578   0.145   4.276  0.4233  0.4906  0.6348
  176SAPS  H18R20087   1.589   0.255   4.259  1.5767  0.5400  1.5746
  176SAPS  H18S20088   1.675   0.110   4.235 -0.9549  0.6557 -3.1571
  176SAPS  C21920089   1.571   0.119   4.428 -0.0094  0.3441 -0.0824
  176SAPS  H19R20090   1.673   0.141   4.466  0.7589 -1.0328 -1.2438
  176SAPS  H19S20091   1.544   0.014   4.453 -0.1560  0.2665 -0.5636
  176SAPS  C22020092   1.475   0.225   4.489 -0.4825 -0.4694  0.2179
  176SAPS  H20R20093   1.520   0.327   4.486  1.3761 -1.2918 -0.7544
  176SAPS  H20S20094   1.469   0.220   4.600  2.0178  2.8066  0.6701
  176SAPS  H20T20095   1.381   0.238   4.431  0.5263  0.3559 -1.2989
  176SAPS   C3320096   1.170   0.835   3.234  0.0174 -0.6990 -0.1698
  176SAPS   H3X20097   1.165   0.946   3.233  1.6898 -0.5857 -0.0386
  176SAPS   H3Y20098   1.269   0.819   3.185  0.0643 -0.0567 -0.3053
  176SAPS   C3420099   1.162   0.763   3.369 -0.5687  0.5145  0.2612
  176SAPS   H4X20100   1.161   0.652   3.373 -3.9036  0.4828  2.1238
  176SAPS   H4Y20101   1.062   0.781   3.414 -0.4388 -2.0208  1.7466
  176SAPS   C3520102   1.270   0.810   3.471 -0.3465 -0.3439  0.3644
  176SAPS   H5X20103   1.247   0.917   3.491  0.2697  0.3073 -2.0644
  176SAPS   H5Y20104   1.373   0.799   3.429  0.1837  2.4397  0.6902
  176SAPS   C3620105   1.252   0.721   3.591  1.1147  0.3227  0.4686
  176SAPS   H6X20106   1.247   0.615   3.558  1.9504  0.5630 -0.5202
  176SAPS   H6Y20107   1.149   0.737   3.628 -0.3763 -0.1811 -3.0930
  176SAPS   C3720108   1.346   0.727   3.711  0.2023  0.3555 -0.4246
  176SAPS   H7X20109   1.443   0.704   3.662  0.9886  1.5299  0.5335
  176SAPS   H7Y20110   1.317   0.653   3.789  2.2854 -0.9054 -0.7827
  176SAPS   C3820111   1.352   0.867   3.772  0.3419  0.1140  0.0719
  176SAPS   H8X20112   1.253   0.916   3.776  0.6051  0.7419 -0.8204
  176SAPS   H8Y20113   1.414   0.928   3.704 -0.5126  0.6829 -0.2132
  176SAPS   C3920114   1.406   0.871   3.916 -0.2207  0.1848 -0.3224
  176SAPS   H9X20115   1.389   0.973   3.956  2.7504 -0.1250  2.1039
  176SAPS   H9Y20116   1.514   0.845   3.907 -0.0183  1.1428 -0.8220
  176SAPS  C31020117   1.317   0.779   4.014  0.0147 -0.2631  0.6806
  176SAPS  H10X20118   1.357   0.793   4.117  2.0298  1.0214 -0.2233
  176SAPS  H10Y20119   1.338   0.674   3.983 -1.8160 -0.3272 -0.5456
  176SAPS  C31120120   1.167   0.815   4.025 -0.9634 -0.0217 -0.3441
  176SAPS  H11X20121   1.123   0.797   3.925  0.1823 -1.0249 -0.6931
  176SAPS  H11Y20122   1.153   0.916   4.069  3.4385  1.0062 -0.8073
  176SAPS  C31220123   1.099   0.712   4.125  0.5698 -0.3703  0.7400
  176SAPS  H12X20124   0.994   0.747   4.136 -0.2883 -2.1183 -1.2955
  176SAPS  H12Y20125   1.151   0.726   4.222 -0.4014  1.1327  1.0929
  176SAPS  C31320126   1.088   0.565   4.079 -0.2457 -0.6356  0.1463
  176SAPS  H13X20127   1.180   0.507   4.057  0.5047 -1.4973  4.6313
  176SAPS  H13Y20128   1.029   0.565   3.985 -1.5521 -1.2176  0.9352
  176SAPS  C31420129   1.028   0.477   4.190  0.5947  0.7412 -0.1123
  176SAPS  H14X20130   0.987   0.384   4.146 -1.5360  2.7321 -2.6067
  176SAPS  H14Y20131   0.931   0.525   4.215 -0.0287  0.9049 -2.5917
  176SAPS  C31520132   1.117   0.454   4.311  0.8115 -0.3405 -0.5890
  176SAPS  H15X20133   1.155   0.551   4.349 -3.3036  0.0624  3.5182
  176SAPS  H15Y20134   1.208   0.398   4.284  0.7117  0.0995 -1.9009
  176SAPS  C31620135   1.036   0.390   4.430  0.5934 -0.0796 -0.0947
  176SAPS  H16X20136   1.007   0.286   4.406 -0.8297 -0.1210  1.6704
  176SAPS  H16Y20137   0.944   0.447   4.453 -0.6786 -2.2476  0.4253
  176SAPS  C31720138   1.114   0.368   4.563 -0.6821 -0.0503  0.1779
  176SAPS  H17X20139   1.207   0.315   4.534 -1.1942  0.1610 -2.0705
  176SAPS  H17Y20140   1.051   0.302   4.627  2.4361 -1.6160  1.8324
  176SAPS  C31820141   1.157   0.497   4.643 -0.3239  0.4328  0.0923
  176SAPS  H18X20142   1.075   0.572   4.649  0.9302  1.8174  0.8102
  176SAPS  H18Y20143   1.236   0.549   4.585  0.0860  2.1191  2.0172
  176SAPS  H18Z20144   1.192   0.464   4.743 -0.7804  0.8083  0.3823
  177SAPS     N20145   3.969   2.874   1.626  1.2638 -0.6308 -0.2308
  177SAPS   HN120146   4.047   2.938   1.599  1.0434  0.2993  1.2042
  177SAPS   HN220147   3.999   2.822   1.711 -3.8586 -0.2395  2.1507
  177SAPS   HN320148   3.962   2.802   1.551  0.7196  0.5713 -1.3817
  177SAPS   C1220149   3.830   2.932   1.648 -0.7281  1.0925 -0.1965
  177SAPS  H12A20150   3.811   2.999   1.565 -0.2833 -0.5326 -1.6755
  177SAPS   C1320151   3.716   2.825   1.644 -0.3382  0.0030 -0.0316
  177SAPS  O13A20152   3.737   2.703   1.610 -0.0582 -0.4463  0.1606
  177SAPS  O13B20153   3.601   2.874   1.667 -0.0145 -0.3501  1.2858
  177SAPS   C1120154   3.820   3.023   1.771  0.0907 -0.1018  0.3527
  177SAPS  H11A20155   3.873   2.966   1.850 -0.6650  0.7482  1.4933
  177SAPS  H11B20156   3.719   3.045   1.811 -0.0147 -2.3672  1.4463
  177SAPS     P20157   3.911   3.263   1.866  0.7723  0.0095 -0.3363
  177SAPS   O1320158   3.922   3.207   2.001 -0.2723 -0.1818  0.2450
  177SAPS   O1420159   4.020   3.351   1.823  0.5884  0.6551  0.0011
  177SAPS   O1220160   3.893   3.148   1.752 -0.4261  0.5692 -0.1977
  177SAPS   O1120161   3.782   3.338   1.849 -0.6233 -0.6966 -0.1445
  177SAPS    C120162   3.657   3.329   1.914 -0.1767  0.4299  0.2875
  177SAPS    HA20163   3.572   3.357   1.849 -0.1039 -0.6386 -0.2704
  177SAPS    HB20164   3.634   3.225   1.945 -0.2044  0.1466 -0.6587
  177SAPS    C220165   3.651   3.424   2.037 -0.3467  0.3516  0.1999
  177SAPS    HS20166   3.701   3.519   2.010 -0.6011  0.4594  0.1091
  177SAPS   O2120167   3.714   3.363   2.148  0.0292  0.1824  0.0452
  177SAPS   C2120168   3.795   3.444   2.220 -0.7902  0.1883  0.8587
  177SAPS   O2220169   3.822   3.561   2.199 -0.7767 -0.2241  0.1747
  177SAPS   C2220170   3.849   3.359   2.339 -0.0960  0.2079 -1.0249
  177SAPS   H2R20171   3.763   3.303   2.382  1.6919  0.8883  4.0721
  177SAPS   H2S20172   3.933   3.297   2.302  0.3069 -1.6941  2.6067
  177SAPS    C320173   3.503   3.464   2.078  0.4140 -0.1193  0.4594
  177SAPS    HX20174   3.451   3.365   2.084  0.8529 -0.6541 -2.6941
  177SAPS    HY20175   3.448   3.512   1.994  0.2701 -1.3800 -0.2026
  177SAPS   O3120176   3.478   3.532   2.205 -0.3231  0.5208  0.3950
  177SAPS   C3120177   3.506   3.662   2.196 -0.4090  0.8083 -0.0494
  177SAPS   O3220178   3.518   3.726   2.093 -0.1285  0.4871 -0.4018
  177SAPS   C3220179   3.515   3.711   2.333 -0.2886 -0.6716  0.7240
  177SAPS   H2X20180   3.610   3.679   2.381 -1.3933 -0.8560  2.9250
  177SAPS   H2Y20181   3.430   3.663   2.386 -0.4846 -0.4675  0.5927
  177SAPS   C2320182   3.919   3.443   2.448 -0.1218  0.1766 -0.4228
  177SAPS   H3R20183   3.850   3.514   2.498  1.9768  1.3463  0.9481
  177SAPS   H3S20184   3.997   3.500   2.392 -1.3801  1.9869 -0.4005
  177SAPS   C2420185   3.987   3.357   2.553  0.3760 -0.2267 -0.1284
  177SAPS   H4R20186   4.042   3.418   2.628  0.2002  0.3552 -0.4650
  177SAPS   H4S20187   4.074   3.306   2.507 -1.4359 -1.4795 -2.3596
  177SAPS   C2520188   3.894   3.253   2.612  0.2892 -0.1584 -0.6257
  177SAPS   H5R20189   3.853   3.180   2.541  1.8978 -0.0434 -1.7317
  177SAPS   C2620190   3.849   3.244   2.737 -0.1697  0.0176 -0.2082
  177SAPS   H6R20191   3.795   3.158   2.779  1.1268 -0.0465  1.3993
  177SAPS   C2720192   3.873   3.339   2.846 -0.6001 -0.4316 -0.3713
  177SAPS   H7R20193   3.776   3.370   2.891 -1.1178 -2.9020  0.3757
  177SAPS   H7S20194   3.929   3.431   2.821 -2.3965  1.0511  0.7977
  177SAPS   C2820195   3.950   3.281   2.967  0.9403 -0.5270  0.5507
  177SAPS   H8R20196   4.006   3.191   2.937 -1.0444 -1.2970 -1.1522
  177SAPS   C2920197   3.959   3.336   3.094  0.2125 -0.5610  0.2226
  177SAPS   H9R20198   4.015   3.281   3.172 -2.3034 -0.1976  2.4421
  177SAPS  C21020199   3.900   3.457   3.146  0.7448 -0.2484  0.6594
  177SAPS  H10R20200   3.864   3.519   3.060 -2.1088  0.3331  2.1633
  177SAPS  H10S20201   3.980   3.501   3.209  2.4402 -1.9037 -0.2278
  177SAPS  C21120202   3.774   3.424   3.223  0.3809  0.0310  0.2815
  177SAPS  H11R20203   3.689   3.405   3.155 -0.2248 -0.1051  1.0656
  177SAPS  C21220204   3.751   3.427   3.353 -0.1537 -0.7959  0.0611
  177SAPS  H12R20205   3.663   3.387   3.404  1.2413 -2.1585  1.4980
  177SAPS  C21320206   3.851   3.467   3.457 -0.3477  0.6275 -0.2747
  177SAPS  H13R20207   3.790   3.505   3.542 -2.8811  0.6338 -1.9820
  177SAPS  H13S20208   3.910   3.546   3.405 -0.4545 -0.0455 -1.4476
  177SAPS  C21420209   3.936   3.353   3.511  0.1490 -0.2978 -0.1056
  177SAPS  H14R20210   4.030   3.339   3.456  0.7286  2.4292  0.0301
  177SAPS  C21520211   3.909   3.273   3.611  0.2948 -0.5309 -0.0711
  177SAPS  H15R20212   3.978   3.191   3.637  1.7343  0.6850  0.0435
  177SAPS  C21620213   3.787   3.275   3.695 -0.0214  0.0471  0.5043
  177SAPS  H16R20214   3.712   3.202   3.660  0.2806  1.3832 -3.4538
  177SAPS  H16S20215   3.726   3.368   3.701 -0.3391 -0.1352  0.1763
  177SAPS  C21720216   3.841   3.250   3.839  0.1047  0.0253  0.0074
  177SAPS  H17R20217   3.917   3.169   3.841  2.7364  2.3000 -0.9979
  177SAPS  H17S20218   3.747   3.221   3.890 -0.9399 -1.8592 -2.7066
  177SAPS  C21820219   3.923   3.365   3.900 -0.2244  0.0651 -0.2539
  177SAPS  H18R20220   3.855   3.451   3.918 -0.5694  0.3296 -2.5554
  177SAPS  H18S20221   3.995   3.412   3.829  1.8798 -0.8520  1.1901
  177SAPS  C21920222   3.999   3.324   4.028  0.2908 -0.5118 -1.1056
  177SAPS  H19R20223   4.061   3.411   4.060 -0.1082 -0.4267 -0.5539
  177SAPS  H19S20224   4.072   3.242   4.014  0.3536 -0.2348 -2.5907
  177SAPS  C22020225   3.886   3.302   4.140  0.5821  0.1776 -0.1550
  177SAPS  H20R20226   3.805   3.377   4.143  0.5036  0.0593  2.9022
  177SAPS  H20S20227   3.923   3.286   4.243 -0.4822 -1.1414  0.0526
  177SAPS  H20T20228   3.834   3.209   4.109 -1.5659  1.7629 -1.5799
  177SAPS   C3320229   3.527   3.867   2.337 -0.4395  0.0704  0.2283
  177SAPS   H3X20230   3.441   3.905   2.277  0.9228 -0.7672 -2.4189
  177SAPS   H3Y20231   3.615   3.912   2.287 -1.5615  1.5436 -0.5133
  177SAPS   C3420232   3.525   3.938   2.475 -0.0569 -0.0094 -0.6833
  177SAPS   H4X20233   3.530   4.047   2.452 -1.4943  0.0508 -0.7648
  177SAPS   H4Y20234   3.608   3.925   2.548 -1.7396  0.4868  1.4243
  177SAPS   C3520235   3.396   3.924   2.553 -0.1242 -0.1591  0.2708
  177SAPS   H5X20236   3.368   3.820   2.577 -0.5289 -0.4639 -1.3732
  177SAPS   H5Y20237   3.318   3.963   2.484  0.4739 -0.4613 -0.6010
  177SAPS   C3620238   3.393   4.015   2.673  0.2131  0.2596 -0.2952
  177SAPS   H6X20239   3.424   4.119   2.652 -0.6508  0.4550 -0.6164
  177SAPS   H6Y20240   3.468   3.967   2.740 -0.2009 -0.9507 -0.6720
  177SAPS   C3720241   3.266   4.028   2.759 -0.0755 -0.4554  0.4298
  177SAPS   H7X20242   3.210   3.932   2.759 -0.4888 -0.2201  1.1056
  177SAPS   H7Y20243   3.206   4.100   2.699  0.8537 -0.3117 -0.3378
  177SAPS   C3820244   3.291   4.078   2.904 -0.2021 -0.1059  0.4385
  177SAPS   H8X20245   3.346   4.175   2.901  0.2155 -0.3421  0.4396
  177SAPS   H8Y20246   3.357   4.010   2.963 -0.5443  0.7524  1.8573
  177SAPS   C3920247   3.159   4.092   2.978 -0.9371  0.1572  1.0230
  177SAPS   H9X20248   3.117   3.990   2.993  0.7151 -0.8530 -0.6285
  177SAPS   H9Y20249   3.090   4.143   2.907  1.1619  1.2256 -0.3648
  177SAPS  C31020250   3.162   4.163   3.116  0.1829  0.0611  0.4207
  177SAPS  H10X20251   3.059   4.176   3.157  0.2052  0.4552  0.3635
  177SAPS  H10Y20252   3.189   4.270   3.104  0.5625 -0.2909 -2.9676
  177SAPS  C31120253   3.241   4.084   3.215  0.3651  0.1257 -0.5304
  177SAPS  H11X20254   3.349   4.083   3.191  0.4630 -2.2412 -0.1749
  177SAPS  H11Y20255   3.211   3.977   3.215 -2.2301  0.7742  0.6345
  177SAPS  C31220256   3.227   4.149   3.350 -0.2641 -0.2086  0.9530
  177SAPS  H12X20257   3.118   4.168   3.360 -0.3147  0.6616 -0.8853
  177SAPS  H12Y20258   3.271   4.251   3.351  0.9069 -0.6577 -0.6400
  177SAPS  C31320259   3.285   4.072   3.466  0.5847  0.2559 -0.6338
  177SAPS  H13X20260   3.395   4.081   3.453  0.7206 -0.9422 -0.4730
  177SAPS  H13Y20261   3.272   3.962   3.472  2.1062  0.0561 -0.5855
  177SAPS  C31420262   3.226   4.138   3.589 -0.2773 -0.3140 -1.0010
  177SAPS  H14X20263   3.140   4.083   3.634  0.3978 -1.1672 -0.7107
  177SAPS  H14Y20264   3.190   4.242   3.574  0.2503 -0.4298 -3.5382
  177SAPS  C31520265   3.321   4.131   3.717 -0.1500 -0.0557  0.3848
  177SAPS  H15X20266   3.405   4.201   3.698  0.7591 -0.5200  2.3272
  177SAPS  H15Y20267   3.362   4.029   3.733  0.4687 -0.0505 -1.0632
  177SAPS  C31620268   3.253   4.166   3.848  0.0514  0.2437 -0.3172
  177SAPS  H16X20269   3.190   4.079   3.879 -0.7091  0.1311 -2.0289
  177SAPS  H16Y20270   3.192   4.257   3.830  0.6963  0.9340  0.8653
  177SAPS  C31720271   3.355   4.195   3.957 -0.1927  0.2939  0.0394
  177SAPS  H17X20272   3.297   4.239   4.042  0.1784  0.7446  0.0644
  177SAPS  H17Y20273   3.420   4.283   3.936 -0.1677  0.3409  0.3111
  177SAPS  C31820274   3.428   4.071   3.997  1.0722  0.0845  0.8267
  177SAPS  H18X20275   3.482   4.027   3.910 -0.2734  1.8211 -0.9875
  177SAPS  H18Y20276   3.359   3.992   4.031 -2.5405  2.0106 -1.4145
  177SAPS  H18Z20277   3.512   4.097   4.065  0.4434 -0.1341  1.6938
  178SAPS     N20278   1.106   6.756   1.935  0.2607  0.2408 -0.4769
  178SAPS   HN120279   1.026   6.692   1.917 -1.8659  2.5162  0.3060
  178SAPS   HN220280   1.075   6.842   1.985 -0.8291  0.2393 -1.1245
  178SAPS   HN320281   1.136   6.800   1.845  0.2918  3.4227  0.9548
  178SAPS   C1220282   1.213   6.688   2.008  0.1368 -0.0363 -0.6554
  178SAPS  H12A20283   1.177   6.618   2.081  1.1952  0.2426  0.1742
  178SAPS   C1320284   1.312   6.603   1.922  0.4670 -1.0043 -0.6761
  178SAPS  O13A20285   1.282   6.578   1.804 -0.6428 -0.0015 -0.4620
  178SAPS  O13B20286   1.414   6.557   1.982 -0.1057 -0.2436 -0.3331
  178SAPS   C1120287   1.290   6.789   2.089  0.0750  0.1420  0.2366
  178SAPS  H11A20288   1.333   6.865   2.020  0.2301  0.0248  0.2035
  178SAPS  H11B20289   1.380   6.743   2.136 -1.1213 -1.9353  0.6348
  178SAPS     P20290   1.277   6.986   2.256 -0.0657 -0.0849  0.4909
  178SAPS   O1320291   1.346   7.065   2.155 -0.1083 -0.8590  0.2777
  178SAPS   O1420292   1.175   7.057   2.335  0.1552  0.0898 -0.0319
  178SAPS   O1220293   1.207   6.858   2.180  0.2051  0.2120  0.7606
  178SAPS   O1120294   1.384   6.926   2.351 -0.1337  0.2650 -0.0274
  178SAPS    C120295   1.389   6.789   2.393 -0.3815  0.5448  0.0643
  178SAPS    HA20296   1.286   6.748   2.392 -0.9708  1.9118 -2.1098
  178SAPS    HB20297   1.449   6.727   2.322  0.4495  2.2913 -0.8066
  178SAPS    C220298   1.462   6.775   2.529  1.1150  0.5663 -0.3562
  178SAPS    HS20299   1.570   6.796   2.513  0.8304  1.6049 -0.9914
  178SAPS   O2120300   1.428   6.638   2.583  0.1538 -0.2448 -0.0125
  178SAPS   C2120301   1.517   6.541   2.586  0.5593  0.0458  0.4353
  178SAPS   O2220302   1.619   6.540   2.519 -0.5057 -0.6850  0.1231
  178SAPS   C2220303   1.481   6.429   2.683 -0.1526  0.3344 -0.9795
  178SAPS   H2R20304   1.426   6.348   2.630  0.3465 -0.7851  0.1592
  178SAPS   H2S20305   1.579   6.386   2.716 -0.7913 -0.6654 -0.3389
  178SAPS    C320306   1.411   6.863   2.649  0.3523  0.3256 -0.1088
  178SAPS    HX20307   1.307   6.852   2.689  0.5902  2.3695  1.2836
  178SAPS    HY20308   1.395   6.964   2.605 -0.0683  0.1778 -0.3039
  178SAPS   O3120309   1.507   6.875   2.758  0.0439 -0.0202 -0.8993
  178SAPS   C3120310   1.614   6.949   2.731 -0.4566 -0.3657 -0.5345
  178SAPS   O3220311   1.619   7.031   2.640  0.1182 -0.0484 -0.5779
  178SAPS   C3220312   1.714   6.932   2.844  0.1366 -0.6875 -0.0470
  178SAPS   H2X20313   1.809   6.974   2.804  0.0536  1.1287  1.5162
  178SAPS   H2Y20314   1.725   6.824   2.867 -2.8172 -0.8564  1.0416
  178SAPS   C2320315   1.408   6.489   2.813  0.0354  1.1900 -0.0955
  178SAPS   H3R20316   1.367   6.395   2.856 -0.1585  1.3027 -0.0337
  178SAPS   H3S20317   1.323   6.552   2.778 -2.3412 -0.6875  1.9007
  178SAPS   C2420318   1.497   6.541   2.923  0.4242  0.1342  0.4448
  178SAPS   H4R20319   1.557   6.623   2.878 -2.2873  1.9245 -0.1455
  178SAPS   H4S20320   1.567   6.458   2.945 -0.2618 -0.3960  0.6572
  178SAPS   C2520321   1.421   6.583   3.045 -0.2056  0.2136  0.7485
  178SAPS   H5R20322   1.325   6.629   3.017  0.5751  0.4511 -1.8510
  178SAPS   C2620323   1.464   6.588   3.174  0.2847 -0.1356 -0.0098
  178SAPS   H6R20324   1.399   6.629   3.252  0.8388 -0.2504  0.5279
  178SAPS   C2720325   1.603   6.529   3.215 -0.0662  0.0379 -0.2705
  178SAPS   H7R20326   1.651   6.486   3.124  0.0595  0.7120 -0.5343
  178SAPS   H7S20327   1.575   6.448   3.284  0.6639 -2.0359 -2.2668
  178SAPS   C2820328   1.700   6.625   3.263  0.1026 -0.7134 -0.0906
  178SAPS   H8R20329   1.753   6.679   3.182  0.1545  2.2987  1.7898
  178SAPS   C2920330   1.719   6.666   3.388 -0.1845 -0.1471 -0.8833
  178SAPS   H9R20331   1.803   6.733   3.412  1.6256 -2.7864  0.7525
  178SAPS  C21020332   1.646   6.621   3.517  1.0134 -0.7160 -0.1991
  178SAPS  H10R20333   1.698   6.536   3.568 -0.3666  0.0831  2.7717
  178SAPS  H10S20334   1.549   6.571   3.497 -0.5847  2.5078 -1.0351
  178SAPS  C21120335   1.633   6.726   3.625  0.0815  0.0469 -0.5830
  178SAPS  H11R20336   1.565   6.809   3.599 -1.7656 -0.9848  0.7930
  178SAPS  C21220337   1.709   6.749   3.733  0.4421  0.0031 -0.1038
  178SAPS  H12R20338   1.680   6.836   3.794  1.2159 -1.0605  1.8681
  178SAPS  C21320339   1.836   6.690   3.781 -0.8745  0.9760 -0.2962
  178SAPS  H13R20340   1.918   6.735   3.721 -0.3144 -2.0738 -2.0395
  178SAPS  H13S20341   1.832   6.581   3.761 -1.0325  1.0941 -0.9214
  178SAPS  C21420342   1.875   6.713   3.922 -0.5211  0.0941 -0.0992
  178SAPS  H14R20343   1.797   6.752   3.989 -0.1610  1.4826 -0.4500
  178SAPS  C21520344   1.983   6.665   3.985 -0.6254 -0.6802 -0.2088
  178SAPS  H15R20345   1.987   6.713   4.084  0.0105 -0.7105 -0.2184
  178SAPS  C21620346   2.096   6.583   3.929  0.2635  0.1189 -0.3259
  178SAPS  H16R20347   2.186   6.623   3.981 -0.3907 -1.7226  2.4428
  178SAPS  H16S20348   2.115   6.609   3.823  2.0437  0.3125 -0.0004
  178SAPS  C21720349   2.095   6.435   3.947  0.3150  0.3720  0.0219
  178SAPS  H17R20350   2.174   6.387   3.885  0.4219 -1.6727  1.6253
  178SAPS  H17S20351   1.995   6.403   3.910  0.2405  1.9360 -1.2252
  178SAPS  C21820352   2.105   6.392   4.094 -0.1935  1.0292 -0.3258
  178SAPS  H18R20353   2.026   6.450   4.146 -0.4535  1.6545 -1.4041
  178SAPS  H18S20354   2.201   6.433   4.133  0.9019 -1.0241 -0.6995
  178SAPS  C21920355   2.097   6.242   4.120  0.4810  0.2776  0.1850
  178SAPS  H19R20356   2.180   6.198   4.061  1.7252  3.0357 -0.2729
  178SAPS  H19S20357   2.003   6.203   4.075  0.3144  2.2172 -1.2751
  178SAPS  C22020358   2.100   6.208   4.269 -0.7972  0.1238 -0.6492
  178SAPS  H20R20359   2.101   6.097   4.273  0.2642  0.1221 -0.5849
  178SAPS  H20S20360   2.007   6.249   4.314 -1.8214 -2.7857  0.0754
  178SAPS  H20T20361   2.185   6.249   4.328 -0.8005  0.5408 -0.9271
  178SAPS   C3320362   1.676   6.993   2.984  0.8121 -0.0971  0.3533
  178SAPS   H3X20363   1.601   6.926   3.032  1.0227 -0.9216 -0.4238
  178SAPS   H3Y20364   1.633   7.095   2.973  0.1881 -0.3108  0.7413
  178SAPS   C3420365   1.796   7.004   3.082 -0.3849  1.0835 -0.0559
  178SAPS   H4X20366   1.879   7.047   3.021 -0.8891  0.4083 -1.2487
  178SAPS   H4Y20367   1.831   6.902   3.108  0.1559  1.6457  1.5047
  178SAPS   C3520368   1.756   7.068   3.213  0.0078  0.2298  0.6914
  178SAPS   H5X20369   1.648   7.055   3.238 -0.0225 -2.9681 -0.6329
  178SAPS   H5Y20370   1.760   7.178   3.197 -2.2803  0.2344 -0.3158
  178SAPS   C3620371   1.839   7.025   3.333 -0.1236 -0.0335 -1.2006
  178SAPS   H6X20372   1.936   7.078   3.320  0.5984 -1.2443 -0.8294
  178SAPS   H6Y20373   1.852   6.916   3.322 -2.0026 -0.3006 -1.0764
  178SAPS   C3720374   1.782   7.063   3.478  0.1454  0.4742  0.2142
  178SAPS   H7X20375   1.709   6.981   3.495  0.0108  0.5853  0.1761
  178SAPS   H7Y20376   1.722   7.156   3.480  1.1325  1.1731  3.4793
  178SAPS   C3820377   1.878   7.060   3.592  0.2753  0.3338 -0.1413
  178SAPS   H8X20378   1.969   7.114   3.557 -0.2416  0.4275 -1.3784
  178SAPS   H8Y20379   1.918   6.957   3.605 -0.5962  0.0111  0.0927
  178SAPS   C3920380   1.828   7.100   3.731  0.0562  0.3414  0.3269
  178SAPS   H9X20381   1.743   7.033   3.755 -1.6741  2.8300  1.6644
  178SAPS   H9Y20382   1.781   7.201   3.725 -1.5118 -0.3623  0.1885
  178SAPS  C31020383   1.928   7.095   3.844  0.7332 -0.3338  0.4516
  178SAPS  H10X20384   2.001   7.179   3.844 -0.3227  0.6506  1.7291
  178SAPS  H10Y20385   1.989   7.003   3.840  1.3535 -0.0733  2.4152
  178SAPS  C31120386   1.861   7.090   3.981 -0.6237  0.9093  0.0380
  178SAPS  H11X20387   1.787   7.007   3.979 -3.6797  3.4617 -1.4450
  178SAPS  H11Y20388   1.811   7.186   4.004 -1.0749 -0.1098  3.8376
  178SAPS  C31220389   1.975   7.069   4.085 -0.5764  0.3671  0.2494
  178SAPS  H12X20390   2.063   7.127   4.050  0.2263 -0.8101  0.2576
  178SAPS  H12Y20391   2.004   6.962   4.093  1.4582  1.0085  2.7366
  178SAPS  C31320392   1.927   7.118   4.220 -0.1710 -0.2737 -0.4538
  178SAPS  H13X20393   1.890   7.024   4.267 -1.2763  0.7365  0.7855
  178SAPS  H13Y20394   1.841   7.187   4.209 -0.0975 -0.1148 -0.0708
  178SAPS  C31420395   2.044   7.163   4.310  0.1657 -0.0460  0.0875
  178SAPS  H14X20396   2.070   7.267   4.282  1.6590 -0.7914 -1.4743
  178SAPS  H14Y20397   2.133   7.101   4.285  0.5495  0.3885  0.3690
  178SAPS  C31520398   2.019   7.164   4.462  0.4648  0.3731 -0.6583
  178SAPS  H15X20399   2.100   7.217   4.516 -0.1169  0.9765 -0.3609
  178SAPS  H15Y20400   2.034   7.058   4.493 -0.0405 -0.1043 -1.9554
  178SAPS  C31620401   1.899   7.239   4.509 -0.1750  0.0065  0.0894
  178SAPS  H16X20402   1.807   7.194   4.465 -1.2883  1.7505  0.5206
  178SAPS  H16Y20403   1.894   7.344   4.471  0.7222 -0.6735 -2.1017
  178SAPS  C31720404   1.888   7.246   4.659 -0.1390  0.2905 -0.0277
  178SAPS  H17X20405   1.965   7.319   4.692  0.7451 -0.5197 -0.2581
  178SAPS  H17Y20406   1.909   7.150   4.710 -2.5810 -0.5956 -0.5519
  178SAPS  C31820407   1.758   7.312   4.700 -0.3892  0.0416  0.3914
  178SAPS  H18X20408   1.741   7.411   4.655  0.6948 -0.5849 -1.4900
  178SAPS  H18Y20409   1.759   7.331   4.810  0.5132  0.8808  0.2492
  178SAPS  H18Z20410   1.673   7.245   4.672 -0.8613  1.4621 -1.8056
  179SAPS     N20411   5.896   2.067   1.966  0.3754  0.2721 -0.2562
  179SAPS   HN120412   5.823   1.995   1.988 -0.4845  1.8276  2.4816
  179SAPS   HN220413   5.964   2.030   1.896  1.2860  2.5519 -0.6405
  179SAPS   HN320414   5.953   2.095   2.049 -0.6630 -0.8047  0.8788
  179SAPS   C1220415   5.819   2.185   1.901 -0.1765  0.5777  0.0969
  179SAPS  H12A20416   5.799   2.263   1.973  0.8384  1.1957 -0.2780
  179SAPS   C1320417   5.899   2.254   1.788  0.6413  0.5512  0.5611
  179SAPS  O13A20418   6.016   2.216   1.755  0.5031  0.0116  0.6183
  179SAPS  O13B20419   5.857   2.368   1.744 -0.1838 -0.2898  0.0499
  179SAPS   C1120420   5.676   2.132   1.862 -0.0521  0.0323 -0.3508
  179SAPS  H11A20421   5.682   2.032   1.813 -0.6429 -1.1972  1.9424
  179SAPS  H11B20422   5.626   2.200   1.789 -2.8721  1.4958  2.6902
  179SAPS     P20423   5.486   2.217   2.027  0.3171  0.2047 -0.0994
  179SAPS   O1320424   5.501   2.353   1.971 -0.2088 -0.3895  0.5201
  179SAPS   O1420425   5.358   2.147   2.004 -0.0077 -0.5828  0.6103
  179SAPS   O1220426   5.600   2.118   1.989  0.4705  0.1783 -0.7246
  179SAPS   O1120427   5.511   2.247   2.180 -0.8776  0.1025 -0.2577
  179SAPS    C120428   5.630   2.196   2.239  0.0850 -0.3249  0.0592
  179SAPS    HA20429   5.724   2.201   2.180 -0.8664 -1.5983 -1.6422
  179SAPS    HB20430   5.647   2.271   2.320 -1.1873 -1.2513  1.2189
  179SAPS    C220431   5.606   2.058   2.307  0.8861  0.9250  0.4415
  179SAPS    HS20432   5.578   1.985   2.227 -0.8763  1.5959  0.3897
  179SAPS   O2120433   5.489   2.069   2.397 -0.5466 -0.1210 -0.6545
  179SAPS   C2120434   5.448   1.965   2.453 -0.1168  0.3705  0.0675
  179SAPS   O2220435   5.478   1.851   2.424 -0.4223  0.3121  0.2565
  179SAPS   C2220436   5.361   1.992   2.577 -0.6141 -0.7010  0.0431
  179SAPS   H2R20437   5.260   2.027   2.549 -2.0912 -1.2294  4.0508
  179SAPS   H2S20438   5.338   1.890   2.615 -1.3696 -1.4501 -2.2775
  179SAPS    C320439   5.740   1.992   2.359  0.0560  0.5771  0.2284
  179SAPS    HX20440   5.810   1.952   2.283  1.3849 -2.2511  2.7349
  179SAPS    HY20441   5.711   1.904   2.420 -2.9976  0.9900 -0.4136
  179SAPS   O3120442   5.802   2.088   2.444 -0.6955 -0.3367 -0.3822
  179SAPS   C3120443   5.814   2.065   2.583  1.0428  0.3494 -0.0124
  179SAPS   O3220444   5.790   1.960   2.636 -0.0613 -0.1214 -0.6420
  179SAPS   C3220445   5.870   2.193   2.646 -0.4060  0.5110  0.5305
  179SAPS   H2X20446   5.811   2.284   2.620  1.9935  1.6567 -1.4364
  179SAPS   H2Y20447   5.968   2.196   2.592 -0.4836 -0.1358  0.3460
  179SAPS   C2320448   5.417   2.096   2.678 -0.5170  0.4268  0.0632
  179SAPS   H3R20449   5.431   2.180   2.608  0.0134  0.6255  0.4006
  179SAPS   H3S20450   5.513   2.067   2.726 -1.6078 -1.6285  1.1616
  179SAPS   C2420451   5.320   2.139   2.791  0.4765  0.3407  0.0810
  179SAPS   H4R20452   5.220   2.139   2.742  0.6891 -0.2204 -0.3570
  179SAPS   H4S20453   5.352   2.243   2.814 -1.6154  1.7394 -2.7515
  179SAPS   C2520454   5.312   2.055   2.911 -0.8244 -0.3993 -0.7508
  179SAPS   H5R20455   5.291   1.949   2.887  0.0229 -0.4172 -1.4755
  179SAPS   C2620456   5.325   2.088   3.039 -0.9281  0.2927 -0.1014
  179SAPS   H6R20457   5.322   2.007   3.113 -1.8000 -1.5716 -2.0925
  179SAPS   C2720458   5.354   2.223   3.100  0.0692  0.3183 -0.6500
  179SAPS   H7R20459   5.374   2.302   3.024  1.3988 -0.7744 -1.4829
  179SAPS   H7S20460   5.447   2.218   3.160  1.4691 -0.2510 -2.7452
  179SAPS   C2820461   5.238   2.296   3.173 -0.0283 -0.0425  0.6325
  179SAPS   H8R20462   5.156   2.332   3.109  2.2738  0.0810 -2.5148
  179SAPS   C2920463   5.219   2.303   3.309 -0.0089 -0.2490 -0.5471
  179SAPS   H9R20464   5.131   2.349   3.356 -1.5774 -2.3295 -1.2649
  179SAPS  C21020465   5.310   2.248   3.410 -0.7752  0.1926 -0.3161
  179SAPS  H10R20466   5.331   2.325   3.488 -1.4742  1.5360 -1.4076
  179SAPS  H10S20467   5.409   2.218   3.370 -0.9003 -1.3226  0.4626
  179SAPS  C21120468   5.267   2.112   3.465  0.1682 -0.0468  0.0059
  179SAPS  H11R20469   5.227   2.047   3.386 -3.3850  0.8088  0.9178
  179SAPS  C21220470   5.288   2.074   3.592  0.5671  0.1770 -0.8941
  179SAPS  H12R20471   5.251   1.973   3.615 -1.2884  1.0540  0.2542
  179SAPS  C21320472   5.354   2.155   3.699  0.4398 -0.8001 -0.3399
  179SAPS  H13R20473   5.449   2.193   3.656 -0.0003 -1.4045 -1.8802
  179SAPS  H13S20474   5.396   2.086   3.775  1.7779  0.0213 -0.2789
  179SAPS  C21420475   5.266   2.269   3.756 -0.3510  0.7598 -0.1272
  179SAPS  H14R20476   5.221   2.339   3.684  0.9729  1.9540  0.1522
  179SAPS  C21520477   5.225   2.274   3.883  0.5446  0.3428  0.0763
  179SAPS  H15R20478   5.144   2.344   3.908  1.3740  1.5176 -0.4339
  179SAPS  C21620479   5.257   2.183   4.001 -0.1839 -0.3553 -0.0848
  179SAPS  H16R20480   5.300   2.232   4.092  0.9857 -0.5693 -0.5113
  179SAPS  H16S20481   5.338   2.111   3.977  1.9993  1.9361 -0.0348
  179SAPS  C21720482   5.144   2.090   4.050 -0.5120 -0.4797  0.1401
  179SAPS  H17R20483   5.169   2.038   4.145 -0.9899 -1.9595 -0.5210
  179SAPS  H17S20484   5.117   2.018   3.970 -0.2621  0.2186 -0.5790
  179SAPS  C21820485   5.015   2.162   4.082 -0.3839 -0.1871  0.0968
  179SAPS  H18R20486   4.976   2.205   3.987  1.5837 -0.1786 -0.7683
  179SAPS  H18S20487   5.033   2.247   4.151  3.8680 -0.7768  0.0021
  179SAPS  C21920488   4.902   2.084   4.152 -0.5539  0.4617 -0.7916
  179SAPS  H19R20489   4.961   2.030   4.229  0.7340  0.6101 -1.6403
  179SAPS  H19S20490   4.859   2.004   4.089  1.5063 -2.1778  0.9354
  179SAPS  C22020491   4.790   2.175   4.217  0.1201 -0.2911  0.1889
  179SAPS  H20R20492   4.784   2.269   4.158 -1.3460  0.5253  1.5430
  179SAPS  H20S20493   4.801   2.199   4.325  1.8789  0.4369 -0.1286
  179SAPS  H20T20494   4.688   2.132   4.206  1.0539 -2.3379 -0.8929
  179SAPS   C3320495   5.902   2.181   2.800 -0.1454 -0.0286  0.7751
  179SAPS   H3X20496   5.974   2.260   2.832  2.3575 -2.0295  0.4665
  179SAPS   H3Y20497   5.955   2.084   2.804  0.2166  0.0102 -1.4838
  179SAPS   C3420498   5.782   2.184   2.887  0.8891  0.5093  0.1109
  179SAPS   H4X20499   5.740   2.081   2.884 -1.6466  1.4985 -1.1262
  179SAPS   H4Y20500   5.704   2.246   2.838  1.0415  0.2701 -0.4404
  179SAPS   C3520501   5.790   2.225   3.032  0.4316  0.3102  0.3431
  179SAPS   H5X20502   5.694   2.213   3.087  1.2266  0.4376  1.7795
  179SAPS   H5Y20503   5.813   2.334   3.038 -0.5553  0.6746 -1.4954
  179SAPS   C3620504   5.899   2.138   3.102  0.0607  0.5783  0.2109
  179SAPS   H6X20505   5.998   2.176   3.067 -0.1998  0.1852 -1.0190
  179SAPS   H6Y20506   5.888   2.030   3.078  0.3536  1.1723 -3.2705
  179SAPS   C3720507   5.909   2.144   3.261 -0.2195 -0.0156 -0.7165
  179SAPS   H7X20508   5.953   2.241   3.293 -0.2355 -0.0849 -0.4844
  179SAPS   H7Y20509   5.967   2.059   3.303 -0.8683  0.1610  0.5926
  179SAPS   C3820510   5.771   2.141   3.330 -0.9062  0.1007 -0.2092
  179SAPS   H8X20511   5.704   2.066   3.284  1.5592 -2.5159  0.2411
  179SAPS   H8Y20512   5.727   2.242   3.310 -1.2461 -0.0209 -0.0936
  179SAPS   C3920513   5.768   2.122   3.482 -0.1010  0.4845 -0.1666
  179SAPS   H9X20514   5.825   2.033   3.516 -0.1793  0.8145  0.8960
  179SAPS   H9Y20515   5.662   2.108   3.511 -0.1667  0.1448 -0.5662
  179SAPS  C31020516   5.822   2.236   3.562 -0.0410  0.5449  0.3260
  179SAPS  H10X20517   5.784   2.338   3.537 -0.4599  0.7645  1.7701
  179SAPS  H10Y20518   5.930   2.249   3.539  0.0250 -1.4283 -0.6809
  179SAPS  C31120519   5.803   2.216   3.713 -0.4943  0.5939 -0.1055
  179SAPS  H11X20520   5.708   2.169   3.745  0.7058 -0.1072  2.6973
  179SAPS  H11Y20521   5.810   2.311   3.769 -1.5587 -0.4253  1.8409
  179SAPS  C31220522   5.910   2.120   3.775 -0.2170 -0.0403  0.0656
  179SAPS  H12X20523   6.008   2.170   3.757  0.3100 -1.6004 -1.8479
  179SAPS  H12Y20524   5.890   2.025   3.722 -1.2230  1.0634 -1.6100
  179SAPS  C31320525   5.885   2.088   3.928 -0.3460 -0.3517  0.2546
  179SAPS  H13X20526   5.963   2.016   3.959  0.6610 -0.3514 -2.0924
  179SAPS  H13Y20527   5.798   2.020   3.946  0.7110 -1.6126  0.7192
  179SAPS  C31420528   5.880   2.209   4.020 -0.1734 -0.4648  0.1850
  179SAPS  H14X20529   5.793   2.264   3.979  0.7776  0.6233 -0.4324
  179SAPS  H14Y20530   5.970   2.272   4.003 -1.2074  0.9664 -0.1469
  179SAPS  C31520531   5.874   2.171   4.172  0.0472 -0.1652  0.3196
  179SAPS  H15X20532   5.967   2.114   4.192  1.2648  1.4068 -0.6716
  179SAPS  H15Y20533   5.788   2.103   4.189  0.7212 -0.8493  1.0764
  179SAPS  C31620534   5.865   2.286   4.268  0.6535 -0.0463  0.3708
  179SAPS  H16X20535   5.797   2.358   4.217  2.1019  0.9169 -0.2511
  179SAPS  H16Y20536   5.965   2.331   4.287  0.3305  0.2728  1.4079
  179SAPS  C31720537   5.801   2.263   4.405  0.5750 -0.3084  0.6145
  179SAPS  H17X20538   5.695   2.230   4.407  0.3944  0.2670  0.6868
  179SAPS  H17Y20539   5.791   2.362   4.455 -1.5683  0.1488 -0.6183
  179SAPS  C31820540   5.893   2.176   4.496 -0.0482 -0.0905 -0.5210
  179SAPS  H18X20541   5.857   2.167   4.601 -2.1616  0.0636 -1.1797
  179SAPS  H18Y20542   5.990   2.226   4.512  0.5059 -1.0752 -0.6727
  179SAPS  H18Z20543   5.905   2.076   4.448  0.5846  0.5334 -1.6999
  180SAPS     N20544   3.566   2.658   1.839  0.2277 -0.1029  0.0169
  180SAPS   HN120545   3.613   2.739   1.794  0.0578  1.0952  1.8957
  180SAPS   HN220546   3.576   2.567   1.790  0.9641 -1.1565  2.0199
  180SAPS   HN320547   3.467   2.688   1.847  0.0104 -1.1365  1.5520
  180SAPS   C1220548   3.609   2.640   1.977  0.1901 -0.1941 -0.2705
  180SAPS  H12A20549   3.553   2.555   2.015 -0.8883  1.0021  0.9191
  180SAPS   C1320550   3.754   2.600   2.013  0.0635  0.4791 -0.3832
  180SAPS  O13A20551   3.849   2.586   1.932  0.0138 -0.2895  0.1289
  180SAPS  O13B20552   3.776   2.558   2.129  0.2015  0.3141 -0.1288
  180SAPS   C1120553   3.592   2.773   2.063  0.4274  0.3168  0.0518
  180SAPS  H11A20554   3.665   2.846   2.024 -1.1050  1.3367 -1.0239
  180SAPS  H11B20555   3.607   2.741   2.168 -0.8294 -0.5667 -0.0118
  180SAPS     P20556   3.413   2.963   2.103 -0.0710 -0.1342 -0.0537
  180SAPS   O1320557   3.377   3.053   1.985 -0.1928 -0.5614  0.5207
  180SAPS   O1420558   3.303   2.939   2.206 -0.8103  0.3248  0.5210
  180SAPS   O1220559   3.461   2.824   2.057  0.5908  0.6855  0.4719
  180SAPS   O1120560   3.545   3.025   2.169  0.1081 -0.1810  0.3245
  180SAPS    C120561   3.523   3.131   2.267 -0.4344 -1.3243  0.1315
  180SAPS    HA20562   3.615   3.193   2.276 -2.5749  2.3968 -1.2179
  180SAPS    HB20563   3.436   3.200   2.259 -0.5051 -1.4677 -0.4109
  180SAPS    C220564   3.520   3.074   2.411  0.3081  0.0246  0.3301
  180SAPS    HS20565   3.420   3.034   2.437 -1.3434  2.8706 -1.1091
  180SAPS   O2120566   3.566   3.188   2.495 -0.0964  0.5863 -0.4183
  180SAPS   C2120567   3.469   3.270   2.527  0.6502  0.1878  0.5813
  180SAPS   O2220568   3.350   3.247   2.502 -0.6949 -0.9792  0.2833
  180SAPS   C2220569   3.535   3.396   2.584  0.0222 -0.6927 -0.2796
  180SAPS   H2R20570   3.605   3.365   2.664 -1.8090  0.2921  1.8105
  180SAPS   H2S20571   3.594   3.446   2.504  0.0072 -1.0547 -0.5172
  180SAPS    C320572   3.627   2.967   2.432 -0.3721  0.1157  0.0638
  180SAPS    HX20573   3.723   3.007   2.394 -0.2565 -1.0594 -0.9417
  180SAPS    HY20574   3.609   2.873   2.375 -0.0056 -0.1313  0.3457
  180SAPS   O3120575   3.647   2.939   2.563  0.2454  0.1910 -0.4657
  180SAPS   C3120576   3.556   2.854   2.615  0.2102  0.3503  0.1521
  180SAPS   O3220577   3.469   2.796   2.554 -0.0353 -0.0014  0.4746
  180SAPS   C3220578   3.574   2.843   2.763  0.2277 -0.2534 -0.1288
  180SAPS   H2X20579   3.656   2.913   2.791  0.0323  0.5958 -1.5741
  180SAPS   H2Y20580   3.619   2.747   2.794 -0.3098 -0.4192  0.1596
  180SAPS   C2320581   3.441   3.499   2.654  0.4515 -0.6951 -0.1885
  180SAPS   H3R20582   3.379   3.437   2.721 -1.5165 -1.5025 -2.5945
  180SAPS   H3S20583   3.360   3.537   2.588 -1.2710  1.3846  2.8534
  180SAPS   C2420584   3.508   3.621   2.720 -0.2076  0.4413 -0.5542
  180SAPS   H4R20585   3.423   3.683   2.754 -0.1397 -0.4688  1.3881
  180SAPS   H4S20586   3.552   3.686   2.641  1.1653  1.7259  1.1813
  180SAPS   C2520587   3.602   3.606   2.839 -0.0238 -0.5239 -0.4811
  180SAPS   H5R20588   3.703   3.582   2.803  0.4941 -0.5505  0.9273
  180SAPS   C2620589   3.568   3.606   2.969  0.4412 -0.5760  0.1797
  180SAPS   H6R20590   3.649   3.598   3.042  2.5830 -0.3202 -2.0500
  180SAPS   C2720591   3.430   3.612   3.016 -0.6973  0.2405  0.1551
  180SAPS   H7R20592   3.413   3.524   3.082 -0.6895  0.3921  0.3600
  180SAPS   H7S20593   3.361   3.597   2.931 -0.3855 -2.7135  0.3260
  180SAPS   C2820594   3.405   3.738   3.088 -0.3082 -0.2101  0.1352
  180SAPS   H8R20595   3.383   3.828   3.027 -1.9748 -0.9635 -0.4544
  180SAPS   C2920596   3.427   3.764   3.217  0.1211  0.8797  0.6863
  180SAPS   H9R20597   3.383   3.859   3.250 -1.9195 -0.0680  0.8196
  180SAPS  C21020598   3.477   3.666   3.324  0.2983 -0.5526  0.1549
  180SAPS  H10R20599   3.553   3.713   3.391  1.0475 -0.7121 -0.5633
  180SAPS  H10S20600   3.537   3.584   3.279 -2.0794 -2.1076 -0.3277
  180SAPS  C21120601   3.369   3.595   3.400  0.0925 -0.5980 -0.4402
  180SAPS  H11R20602   3.292   3.545   3.340  0.2868 -2.6200  0.8729
  180SAPS  C21220603   3.344   3.590   3.537 -0.1685 -0.0592  1.1046
  180SAPS  H12R20604   3.255   3.535   3.569  1.0339 -1.8628  1.4689
  180SAPS  C21320605   3.418   3.668   3.644 -0.3875  0.0921  0.0491
  180SAPS  H13R20606   3.337   3.725   3.695 -1.1290  0.9616 -1.9933
  180SAPS  H13S20607   3.486   3.742   3.596 -0.7357  0.8968  0.7776
  180SAPS  C21420608   3.501   3.582   3.729  0.3404  0.6742  0.2063
  180SAPS  H14R20609   3.605   3.571   3.696  0.6413  2.2625  0.5475
  180SAPS  C21520610   3.479   3.538   3.858 -0.2219 -0.6830  0.0585
  180SAPS  H15R20611   3.567   3.492   3.906  0.5344  0.5850 -0.0763
  180SAPS  C21620612   3.356   3.553   3.944 -0.0580  0.2577 -0.8912
  180SAPS  H16R20613   3.325   3.451   3.978 -0.7553 -0.4290 -3.4052
  180SAPS  H16S20614   3.277   3.596   3.879 -0.3376  0.3313 -0.5118
  180SAPS  C21720615   3.392   3.651   4.056  0.5708  0.0269 -0.1654
  180SAPS  H17R20616   3.390   3.757   4.022 -1.9824 -0.5830 -2.2076
  180SAPS  H17S20617   3.493   3.628   4.096  0.7494  3.0662  1.4186
  180SAPS  C21820618   3.284   3.642   4.162  0.6481 -0.1063 -0.9714
  180SAPS  H18R20619   3.276   3.538   4.200  1.4019 -0.2976 -1.3156
  180SAPS  H18S20620   3.186   3.665   4.117  0.0819  0.9910  0.7398
  180SAPS  C21920621   3.305   3.739   4.284  0.6941  0.4339 -0.2124
  180SAPS  H19R20622   3.284   3.837   4.237  0.2009 -0.0681 -1.0512
  180SAPS  H19S20623   3.411   3.727   4.315  1.7065  0.7445 -3.2277
  180SAPS  C22020624   3.203   3.707   4.400  0.1696  0.1922  0.3567
  180SAPS  H20R20625   3.095   3.712   4.373  0.1888  0.7024  0.3662
  180SAPS  H20S20626   3.232   3.607   4.439  1.9669 -0.3372 -2.1383
  180SAPS  H20T20627   3.215   3.776   4.487 -2.1537  0.4941  0.5103
  180SAPS   C3320628   3.449   2.855   2.846  0.5197 -0.1878 -0.1365
  180SAPS   H3X20629   3.462   2.835   2.955  1.4922  1.3684  0.0599
  180SAPS   H3Y20630   3.372   2.783   2.812  1.2300 -0.1725 -1.9009
  180SAPS   C3420631   3.389   2.997   2.834  0.1249  0.5526 -0.2195
  180SAPS   H4X20632   3.303   3.003   2.905 -1.2388 -1.7302 -1.5288
  180SAPS   H4Y20633   3.358   2.996   2.727 -0.1823 -1.2590 -0.1599
  180SAPS   C3520634   3.485   3.110   2.848 -0.4045 -0.3373 -0.2074
  180SAPS   H5X20635   3.437   3.208   2.830  1.6697  0.5455 -1.1963
  180SAPS   H5Y20636   3.540   3.104   2.752 -0.0454 -2.0177  0.0633
  180SAPS   C3620637   3.561   3.093   2.977  0.5070 -0.2760 -0.8141
  180SAPS   H6X20638   3.654   3.155   2.975  1.1415 -1.1996 -0.5510
  180SAPS   H6Y20639   3.588   2.986   2.989 -1.6113 -0.6856  0.8738
  180SAPS   C3720640   3.485   3.146   3.103 -0.1569  0.2850 -0.5335
  180SAPS   H7X20641   3.380   3.109   3.104  0.1596 -0.6587 -0.9360
  180SAPS   H7Y20642   3.483   3.257   3.098 -2.2731  0.4075  1.2412
  180SAPS   C3820643   3.534   3.096   3.240  0.4111  0.1709 -0.5204
  180SAPS   H8X20644   3.636   3.137   3.253  0.5528 -0.0412 -0.9399
  180SAPS   H8Y20645   3.525   2.986   3.227 -3.1571  0.3686 -0.7624
  180SAPS   C3920646   3.449   3.130   3.362 -0.2507  0.1889 -0.2461
  180SAPS   H9X20647   3.341   3.109   3.346  0.2309  0.0720 -4.4045
  180SAPS   H9Y20648   3.471   3.236   3.386  0.0520 -0.0390  0.4898
  180SAPS  C31020649   3.500   3.050   3.481 -0.3972 -0.9303 -0.3930
  180SAPS  H10X20650   3.607   3.079   3.489 -0.6554 -0.0200 -0.1674
  180SAPS  H10Y20651   3.500   2.943   3.451  0.8848 -1.2534  0.6472
  180SAPS  C31120652   3.439   3.062   3.616  0.5175 -0.6607 -0.5588
  180SAPS  H11X20653   3.387   3.160   3.625  0.5729 -0.5917 -0.9747
  180SAPS  H11Y20654   3.518   3.067   3.694 -0.2590 -0.0471  0.2024
  180SAPS  C31220655   3.350   2.943   3.650 -0.3648 -0.1359 -0.2985
  180SAPS  H12X20656   3.405   2.847   3.642 -1.3814 -0.7001 -0.6933
  180SAPS  H12Y20657   3.266   2.943   3.578 -0.4336 -1.5846 -0.2404
  180SAPS  C31320658   3.285   2.949   3.792 -0.1018 -0.1944  0.0253
  180SAPS  H13X20659   3.221   3.039   3.803  1.3045  1.3460 -3.1477
  180SAPS  H13Y20660   3.369   2.975   3.860  0.0900  0.0227 -0.2949
  180SAPS  C31420661   3.219   2.822   3.836 -0.0344 -0.1069  0.1335
  180SAPS  H14X20662   3.294   2.742   3.821  1.1842  0.9454  0.4456
  180SAPS  H14Y20663   3.145   2.808   3.753  1.5231  1.6975 -1.6656
  180SAPS  C31520664   3.158   2.818   3.979 -0.0415 -0.2908  0.6898
  180SAPS  H15X20665   3.111   2.720   4.000  0.7281 -0.7827  0.1673
  180SAPS  H15Y20666   3.062   2.874   3.978 -1.7271 -2.9698 -1.2456
  180SAPS  C31620667   3.246   2.846   4.098 -0.3641 -0.5234  0.4669
  180SAPS  H16X20668   3.257   2.956   4.099 -3.0720 -0.1718  0.6393
  180SAPS  H16Y20669   3.341   2.793   4.074 -1.9488 -2.0926 -3.3038
  180SAPS  C31720670   3.197   2.791   4.231 -0.1809 -0.7354 -0.3845
  180SAPS  H17X20671   3.290   2.808   4.290 -0.6777 -0.3532  0.3148
  180SAPS  H17Y20672   3.173   2.683   4.226 -1.0853 -0.5570 -0.0690
  180SAPS  C31820673   3.084   2.863   4.297  0.6032 -0.0575 -0.1663
  180SAPS  H18X20674   3.095   2.973   4.300 -0.5743  0.0624  0.7454
  180SAPS  H18Y20675   3.072   2.829   4.402 -0.7024  0.3065 -0.1713
  180SAPS  H18Z20676   2.989   2.839   4.244  0.4470  1.1949 -0.4907
  181POPC     N20677   2.835   2.492   6.583  0.6245 -0.2456  0.1845
  181POPC   C1220678   2.756   2.550   6.473  0.2959 -0.0017 -0.8901
  181POPC  H12A20679   2.688   2.475   6.435 -0.8929  0.1861  0.7842
  181POPC  H12B20680   2.815   2.571   6.385  1.5974  2.2732  0.4264
  181POPC   C1320681   2.922   2.589   6.649 -0.2630  0.3162  0.6429
  181POPC  H13A20682   2.987   2.532   6.713  2.2986  0.0434 -1.9906
  181POPC  H13B20683   2.991   2.633   6.579  1.3726 -2.3437  0.4539
  181POPC  H13C20684   2.874   2.661   6.714  1.1542  0.9645  1.0217
  181POPC   C1420685   2.743   2.432   6.689  0.6693 -0.2769 -0.3026
  181POPC  H14A20686   2.654   2.391   6.645  0.6337 -0.4330 -0.0850
  181POPC  H14B20687   2.788   2.361   6.756 -0.2287 -2.0458 -1.4940
  181POPC  H14C20688   2.708   2.511   6.753  0.0484 -0.3504 -0.5476
  181POPC   C1520689   2.916   2.376   6.533  0.5118  0.1951 -0.1443
  181POPC  H15A20690   2.987   2.406   6.458  0.1407 -0.0694 -0.6020
  181POPC  H15B20691   2.854   2.293   6.502  1.8511 -0.2985 -1.6091
  181POPC  H15C20692   2.970   2.336   6.618 -1.2577 -0.3224  0.7867
  181POPC   C1120693   2.678   2.683   6.500 -0.0622  0.3833  0.1507
  181POPC  H11A20694   2.635   2.715   6.402  1.9643  1.7542 -0.3523
  181POPC  H11B20695   2.755   2.750   6.542 -0.1323 -1.4604  3.5672
  181POPC     P20696   2.445   2.602   6.596 -0.0497 -0.2744 -0.3994
  181POPC   O1320697   2.342   2.703   6.644  0.2496  0.3119  0.6266
  181POPC   O1420698   2.458   2.473   6.666  0.2531 -0.4169  0.1057
  181POPC   O1220699   2.578   2.675   6.602  0.0323 -0.2710 -0.1974
  181POPC   O1120700   2.432   2.576   6.441  0.3938  0.0096  0.3415
  181POPC    C120701   2.332   2.484   6.396  0.3914  0.1376  0.1844
  181POPC    HA20702   2.230   2.528   6.389  0.1971 -0.1839  0.9050
  181POPC    HB20703   2.319   2.393   6.458 -0.3968  0.5466  0.6303
  181POPC    C220704   2.362   2.423   6.258 -1.2239 -0.2763 -0.2523
  181POPC    HS20705   2.278   2.358   6.225 -1.4292 -1.0911  1.7744
  181POPC   O2120706   2.485   2.345   6.268  0.0953  0.2037  0.0730
  181POPC   C2120707   2.475   2.218   6.307 -0.8152 -0.0631 -0.1180
  181POPC   O2220708   2.376   2.162   6.344  0.2280 -0.2235  0.0177
  181POPC   C2220709   2.608   2.148   6.297 -0.4087 -0.3930  0.2884
  181POPC   H2R20710   2.623   2.129   6.406 -0.8525  4.8735  1.5067
  181POPC   H2S20711   2.688   2.223   6.277 -1.9477  1.8755  2.1914
  181POPC    C320712   2.385   2.537   6.154  0.1542  0.2164 -0.0910
  181POPC    HX20713   2.472   2.596   6.190 -1.6948  3.3736 -0.4342
  181POPC    HY20714   2.293   2.599   6.163 -1.1014 -1.7581  1.3742
  181POPC   O3120715   2.401   2.485   6.016 -0.5577 -0.2915  0.3082
  181POPC   C3120716   2.520   2.484   5.964 -0.6381  0.0781 -0.2614
  181POPC   O3220717   2.626   2.492   6.021  0.4369  0.1575  0.3949
  181POPC   C3220718   2.504   2.448   5.815 -0.7412 -0.0473 -0.8933
  181POPC   H2X20719   2.408   2.483   5.773 -0.6655 -0.3416 -1.3173
  181POPC   H2Y20720   2.510   2.337   5.805  0.2488  0.0748 -1.9462
  181POPC   C2320721   2.601   2.035   6.196  0.5557  0.3046 -0.5412
  181POPC   H3R20722   2.497   1.999   6.183 -0.0933  1.7291  0.3288
  181POPC   H3S20723   2.660   1.946   6.228  1.9917  1.0041 -1.1405
  181POPC   C2420724   2.648   2.084   6.060 -0.1611  0.2482 -0.0956
  181POPC   H4R20725   2.750   2.128   6.062  0.1118 -0.4159  1.0998
  181POPC   H4S20726   2.581   2.167   6.026 -1.9203 -1.9960 -2.5093
  181POPC   C2520727   2.634   1.969   5.951 -0.6166 -0.2170  0.1834
  181POPC   H5R20728   2.535   1.920   5.968 -0.3062 -0.6823  0.6817
  181POPC   H5S20729   2.699   1.886   5.985  1.3029  0.4699 -1.6334
  181POPC   C2620730   2.665   2.015   5.812 -0.0208  0.9080 -0.1657
  181POPC   H6R20731   2.771   2.049   5.813  0.4133 -0.3436 -0.9059
  181POPC   H6S20732   2.602   2.099   5.777 -0.3887  0.7741  0.1655
  181POPC   C2720733   2.643   1.912   5.701 -0.3584 -1.0327  0.0451
  181POPC   H7R20734   2.682   1.959   5.608  2.5802 -0.5159  1.4202
  181POPC   H7S20735   2.534   1.892   5.687 -0.6631 -1.2487  2.3432
  181POPC   C2820736   2.730   1.787   5.719  0.3451 -0.4392  0.3335
  181POPC   H8R20737   2.705   1.726   5.630 -0.7641 -0.7486  0.8434
  181POPC   H8S20738   2.701   1.727   5.808  1.8648 -1.1891  0.3542
  181POPC   C2920739   2.877   1.822   5.729  0.3180  1.0797 -0.3821
  181POPC   H9120740   2.904   1.880   5.819  1.5563  0.6330 -0.4391
  181POPC  C21020741   2.977   1.803   5.640  0.5328 -0.1380 -0.3611
  181POPC  H10120742   3.075   1.850   5.659 -0.5643  2.3128 -0.4825
  181POPC  C21120743   2.951   1.744   5.504 -0.2343  0.0364 -0.3208
  181POPC  H11R20744   2.876   1.803   5.447 -1.7518 -1.3339  0.1879
  181POPC  H11S20745   2.897   1.648   5.514  0.0865  0.1304  3.8768
  181POPC  C21220746   3.074   1.744   5.415  0.5855  0.0700  0.0567
  181POPC  H12R20747   3.165   1.698   5.459 -0.0840 -2.3264 -0.8953
  181POPC  H12S20748   3.099   1.852   5.402 -0.9078  0.4584  0.1437
  181POPC  C21320749   3.050   1.668   5.280  0.3913 -0.0021 -0.0554
  181POPC  H13R20750   2.998   1.571   5.301 -0.0821  0.2377 -0.0966
  181POPC  H13S20751   3.145   1.650   5.225  0.3437 -0.3858 -0.0147
  181POPC  C21420752   2.965   1.741   5.173  0.2518  0.3904  0.4926
  181POPC  H14R20753   2.971   1.849   5.147 -1.4967  0.7723  1.5523
  181POPC  H14S20754   2.859   1.737   5.206  0.5656  0.7252  1.5838
  181POPC  C21520755   2.959   1.663   5.036 -0.3502 -0.3004 -0.3944
  181POPC  H15R20756   2.950   1.559   5.075 -0.9252  0.4699  1.6537
  181POPC  H15S20757   3.059   1.670   4.989  0.2941  0.1491  0.9891
  181POPC  C21620758   2.850   1.700   4.942 -0.1582  0.6646 -0.0827
  181POPC  H16R20759   2.860   1.803   4.899  0.1143  0.7818  0.2582
  181POPC  H16S20760   2.753   1.707   4.994  1.0544 -0.5289  2.5202
  181POPC  C21720761   2.826   1.595   4.825 -1.2745  0.1123 -0.1610
  181POPC  H17R20762   2.818   1.494   4.870  3.6874  0.6922  2.7640
  181POPC  H17S20763   2.922   1.584   4.770 -0.4507 -1.6139  1.4989
  181POPC  C21820764   2.710   1.616   4.730  0.0770 -0.5817 -0.0840
  181POPC  H18R20765   2.716   1.559   4.634 -0.8917  0.1885 -0.6124
  181POPC  H18S20766   2.689   1.722   4.704  0.6790 -0.0643  1.4234
  181POPC  H18T20767   2.617   1.595   4.788  0.7664 -2.9244  0.2878
  181POPC   C3320768   2.624   2.481   5.726 -0.3242  0.4110  0.7278
  181POPC   H3X20769   2.713   2.443   5.781 -0.4664 -0.4381  0.3922
  181POPC   H3Y20770   2.638   2.591   5.724  0.1742  0.3455  0.1842
  181POPC   C3420771   2.608   2.425   5.586  0.0079 -0.5835 -0.4449
  181POPC   H4X20772   2.566   2.322   5.590 -0.2108 -0.5162 -0.9091
  181POPC   H4Y20773   2.713   2.413   5.553  0.5125  0.6998  0.5868
  181POPC   C3520774   2.531   2.518   5.497  0.5766 -0.5182  0.6643
  181POPC   H5X20775   2.570   2.622   5.495  0.1309 -0.3548  0.0926
  181POPC   H5Y20776   2.423   2.535   5.520  0.3419  0.8832 -1.1718
  181POPC   C3620777   2.553   2.466   5.349  1.0698  0.1096 -0.2233
  181POPC   H6X20778   2.555   2.355   5.360 -0.0268 -0.0229 -1.1492
  181POPC   H6Y20779   2.651   2.503   5.312  0.6174  1.3238 -0.2691
  181POPC   C3720780   2.433   2.496   5.255  0.0783  0.0129 -0.3240
  181POPC   H7X20781   2.441   2.600   5.218 -0.1994 -0.8016 -2.8424
  181POPC   H7Y20782   2.340   2.483   5.316  0.2550 -0.6654 -0.1862
  181POPC   C3820783   2.424   2.406   5.131  1.4437  0.9514  0.1259
  181POPC   H8X20784   2.441   2.307   5.177 -1.7529  0.0003 -0.4454
  181POPC   H8Y20785   2.512   2.418   5.065  2.1322 -1.4557  0.5203
  181POPC   C3920786   2.299   2.405   5.043 -0.7873 -0.3020 -0.1044
  181POPC   H9X20787   2.259   2.509   5.050 -1.4739 -0.5127 -0.8485
  181POPC   H9Y20788   2.203   2.364   5.080 -2.0292  1.0266 -1.6814
  181POPC  C31020789   2.317   2.347   4.908 -0.0363 -0.1023  0.2569
  181POPC  H10X20790   2.405   2.402   4.869  0.5719 -0.8324  0.5476
  181POPC  H10Y20791   2.239   2.382   4.838  1.0389 -2.7129 -2.4792
  181POPC  C31120792   2.343   2.193   4.903 -0.8378  1.1404  0.4613
  181POPC  H11X20793   2.254   2.150   4.953 -1.6960 -0.8729 -2.4976
  181POPC  H11Y20794   2.437   2.181   4.961  1.3615 -0.8019 -3.0692
  181POPC  C31220795   2.365   2.132   4.763  0.2322 -0.3374 -0.3078
  181POPC  H12X20796   2.311   2.197   4.691  0.8820  2.3713  1.4784
  181POPC  H12Y20797   2.328   2.028   4.752 -0.0270 -0.2504 -0.2662
  181POPC  C31320798   2.513   2.114   4.717 -0.5591 -0.4119  0.6237
  181POPC  H13X20799   2.562   2.044   4.787 -0.5350 -0.9506  0.0779
  181POPC  H13Y20800   2.553   2.217   4.726  1.4017 -1.2807  2.4940
  181POPC  C31420801   2.535   2.069   4.577 -0.0959  0.5505  0.7614
  181POPC  H14X20802   2.474   2.139   4.517 -1.4830 -1.3318 -0.1475
  181POPC  H14Y20803   2.485   1.969   4.575  0.6479  0.1644  0.8364
  181POPC  C31520804   2.678   2.064   4.528  0.2009  0.5877  0.6876
  181POPC  H15X20805   2.671   2.015   4.429  1.0019  0.4868  0.6789
  181POPC  H15Y20806   2.735   2.002   4.600  0.1006 -0.4954 -0.1408
  181POPC  C31620807   2.731   2.210   4.531  0.2081  0.4918  0.2094
  181POPC  H16X20808   2.654   2.286   4.506  1.4489  2.4683  2.0196
  181POPC  H16Y20809   2.820   2.217   4.465  0.6933  1.7125  0.9638
  181POPC  H16Z20810   2.754   2.220   4.639 -0.8840 -1.2158  0.6400
  182POPC     N20811   0.756   2.098   6.767 -0.3507  0.9128 -0.2507
  182POPC   C1220812   0.841   2.101   6.647 -0.0927  0.5693 -0.0274
  182POPC  H12A20813   0.801   2.042   6.566 -2.5975  1.5060  0.4298
  182POPC  H12B20814   0.939   2.063   6.671  0.8081  1.6370 -1.7785
  182POPC   C1320815   0.796   1.982   6.860  0.0368 -0.4153  0.5919
  182POPC  H13A20816   0.897   1.997   6.894 -0.0888  1.7774  0.1091
  182POPC  H13B20817   0.734   1.972   6.948 -1.8633  0.2967 -0.5917
  182POPC  H13C20818   0.793   1.885   6.811  1.3654  0.7173 -1.9462
  182POPC   C1420819   0.766   2.227   6.845 -0.1664  0.1990  0.1494
  182POPC  H14A20820   0.691   2.224   6.923 -1.9424 -0.7397 -1.4958
  182POPC  H14B20821   0.869   2.240   6.873 -0.2023  0.6064  0.0931
  182POPC  H14C20822   0.748   2.315   6.786 -3.2656 -1.3094 -1.4366
  182POPC   C1520823   0.618   2.067   6.731  0.1704 -0.1238 -1.2183
  182POPC  H15A20824   0.588   2.144   6.661  0.1185 -0.0991 -1.1686
  182POPC  H15B20825   0.561   2.054   6.822  0.3159 -0.9083 -1.2368
  182POPC  H15C20826   0.603   1.978   6.672 -2.4981  0.0607 -0.9544
  182POPC   C1120827   0.869   2.236   6.567  0.2572 -0.4630  0.2393
  182POPC  H11A20828   0.930   2.217   6.476  2.6564  1.6402  1.2944
  182POPC  H11B20829   0.926   2.309   6.629 -0.0324  2.4506 -2.6446
  182POPC     P20830   0.660   2.253   6.404 -0.1637  0.1823 -0.0461
  182POPC   O1320831   0.538   2.336   6.394 -0.5292 -0.1593  0.1669
  182POPC   O1420832   0.639   2.107   6.400 -0.1145  0.6277 -0.3305
  182POPC   O1220833   0.740   2.299   6.533 -0.2475  0.1042 -0.0541
  182POPC   O1120834   0.752   2.296   6.280 -0.0349  0.0868  0.3348
  182POPC    C120835   0.772   2.434   6.244  0.8301 -0.6662 -0.7090
  182POPC    HA20836   0.880   2.461   6.236  0.0999  2.5214 -1.1959
  182POPC    HB20837   0.725   2.500   6.320 -0.4402 -0.7563 -1.3975
  182POPC    C220838   0.713   2.484   6.110 -0.1484  0.4806  0.9180
  182POPC    HS20839   0.603   2.487   6.118 -0.1751  0.9187  0.4102
  182POPC   O2120840   0.762   2.411   5.992  0.3304 -0.3680 -0.2029
  182POPC   C2120841   0.711   2.288   5.982  0.2127 -0.5206  0.2618
  182POPC   O2220842   0.604   2.254   6.031  0.2839 -0.2100  0.5811
  182POPC   C2220843   0.815   2.209   5.897  0.7144  0.0493 -0.2741
  182POPC   H2R20844   0.900   2.190   5.965  0.3577  2.1610  0.8537
  182POPC   H2S20845   0.847   2.278   5.817  1.3618 -1.4640 -1.3750
  182POPC    C320846   0.759   2.631   6.091  0.3235 -0.1473  0.0957
  182POPC    HX20847   0.869   2.620   6.087  0.1515 -2.3921  0.0777
  182POPC    HY20848   0.728   2.674   6.188  0.7356  0.4613 -0.0374
  182POPC   O3120849   0.708   2.698   5.972  0.5591 -0.6307  0.7361
  182POPC   C3120850   0.589   2.731   5.985  0.5903 -0.4678  0.3279
  182POPC   O3220851   0.522   2.714   6.085  0.4525 -0.0564 -0.3815
  182POPC   C3220852   0.530   2.795   5.857  0.2821 -0.1251 -0.6132
  182POPC   H2X20853   0.590   2.768   5.768  0.4362 -1.6459 -0.0813
  182POPC   H2Y20854   0.534   2.905   5.871 -1.2130 -0.1430  0.1370
  182POPC   C2320855   0.768   2.078   5.832 -0.1498 -0.2153 -0.3860
  182POPC   H3R20856   0.707   2.014   5.899  0.3639 -1.0123 -0.6627
  182POPC   H3S20857   0.856   2.015   5.805 -1.8822 -3.1313  0.3804
  182POPC   C2420858   0.692   2.094   5.701  0.4839 -0.0757  0.3321
  182POPC   H4R20859   0.689   2.202   5.675 -1.3524 -0.2276 -0.2046
  182POPC   H4S20860   0.594   2.045   5.720  2.3573 -2.7990  4.2339
  182POPC   C2520861   0.755   2.025   5.583 -0.0450 -0.2025 -1.1261
  182POPC   H5R20862   0.758   1.915   5.595 -0.1697  0.0302  1.7750
  182POPC   H5S20863   0.863   2.051   5.590 -0.0810 -0.3490  0.1795
  182POPC   C2620864   0.691   2.072   5.448 -0.3538  0.1169 -0.4951
  182POPC   H6R20865   0.685   2.183   5.450 -1.4661  0.1123 -2.0308
  182POPC   H6S20866   0.586   2.036   5.446 -0.5332  0.6607 -1.3071
  182POPC   C2720867   0.768   2.017   5.329 -0.5262  0.3353  0.0068
  182POPC   H7R20868   0.743   1.909   5.335 -0.6907  0.4053  0.6415
  182POPC   H7S20869   0.878   2.023   5.347 -0.8296 -1.3055  3.0094
  182POPC   C2820870   0.718   2.074   5.199 -0.4073 -0.4791  0.4701
  182POPC   H8R20871   0.757   2.178   5.196 -2.0243  0.1450  0.1653
  182POPC   H8S20872   0.607   2.077   5.194 -0.3900 -0.7265 -0.2501
  182POPC   C2920873   0.768   1.984   5.078  0.1384  0.6231  0.6448
  182POPC   H9120874   0.877   1.979   5.064  0.0533 -0.6567  0.2183
  182POPC  C21020875   0.689   1.899   5.003 -0.0787 -0.3598  1.0335
  182POPC  H10120876   0.728   1.843   4.917  2.3108 -1.1562  2.5328
  182POPC  C21120877   0.536   1.881   5.022 -0.3719  0.1366  1.0260
  182POPC  H11R20878   0.495   1.893   5.124 -1.5915 -1.0005  0.7024
  182POPC  H11S20879   0.507   1.776   5.001 -0.5728  0.3667  0.0995
  182POPC  C21220880   0.471   1.977   4.917 -0.0521  0.3815 -0.0273
  182POPC  H12R20881   0.514   1.947   4.819  0.5134  0.0211  0.3258
  182POPC  H12S20882   0.491   2.085   4.928 -0.6538  0.4737  0.2421
  182POPC  C21320883   0.316   1.964   4.909 -0.4312  0.4766  0.8386
  182POPC  H13R20884   0.264   2.004   4.998 -1.3646 -0.7856  0.8914
  182POPC  H13S20885   0.294   1.856   4.891  1.5485  0.3167 -0.9389
  182POPC  C21420886   0.256   2.029   4.779 -0.6222  0.3528 -0.2639
  182POPC  H14R20887   0.303   1.982   4.689 -3.1453 -1.6812 -0.6333
  182POPC  H14S20888   0.285   2.136   4.769 -1.3420  0.6384  0.6544
  182POPC  C21520889   0.108   1.998   4.763  0.5372  1.0916 -0.7250
  182POPC  H15R20890   0.050   2.040   4.848  0.7515 -0.5733  0.2947
  182POPC  H15S20891   0.107   1.887   4.766  0.7633  0.9163 -3.7666
  182POPC  C21620892   0.061   2.039   4.620  0.2756  0.1185 -0.3825
  182POPC  H16R20893   0.123   1.991   4.541  1.1555 -1.2241  1.0451
  182POPC  H16S20894   0.068   2.148   4.602  2.4684 -0.1950 -1.9225
  182POPC  C21720895  -0.086   1.999   4.592 -0.6183 -0.0944 -0.4650
  182POPC  H17R20896  -0.149   2.036   4.676  0.7747  2.0582 -0.2776
  182POPC  H17S20897  -0.103   1.889   4.593 -1.2858 -0.0167 -1.6503
  182POPC  C21820898  -0.135   2.050   4.461  0.5078 -0.5297  0.0873
  182POPC  H18R20899  -0.117   2.160   4.457 -0.5500 -0.3779 -1.4580
  182POPC  H18S20900  -0.245   2.041   4.445  0.5756  1.3892 -1.9744
  182POPC  H18T20901  -0.075   2.007   4.378  0.1978 -0.8416  0.0218
  182POPC   C3320902   0.386   2.746   5.832  0.5906  0.3209 -0.2027
  182POPC   H3X20903   0.310   2.759   5.912  0.7169 -0.5052  0.0573
  182POPC   H3Y20904   0.394   2.640   5.801  1.9014  0.2925  0.1936
  182POPC   C3420905   0.318   2.821   5.706  0.0846 -0.3561  0.1155
  182POPC   H4X20906   0.309   2.930   5.724 -1.0341  0.5039 -4.2663
  182POPC   H4Y20907   0.223   2.766   5.689  0.1260  0.1315 -1.9849
  182POPC   C3520908   0.398   2.808   5.576  0.2410  0.2512 -0.0217
  182POPC   H5X20909   0.431   2.703   5.562  0.3422  0.2505  0.2107
  182POPC   H5Y20910   0.498   2.856   5.578  0.5407 -0.1362 -2.7147
  182POPC   C3620911   0.303   2.846   5.463 -0.2254  0.3146  0.1736
  182POPC   H6X20912   0.252   2.944   5.479 -0.5676  0.2248 -0.3379
  182POPC   H6Y20913   0.219   2.774   5.465  0.7017 -0.7964  0.0694
  182POPC   C3720914   0.373   2.844   5.322  0.2419  0.3002  0.0482
  182POPC   H7X20915   0.421   2.745   5.309  1.5509  0.9875 -0.6342
  182POPC   H7Y20916   0.455   2.919   5.312  1.8123 -1.3551  0.0941
  182POPC   C3820917   0.276   2.883   5.212  0.1887 -0.1054 -0.4169
  182POPC   H8X20918   0.256   2.992   5.207  3.2824  0.5406 -5.1570
  182POPC   H8Y20919   0.176   2.835   5.218 -1.0764  1.7174 -3.8597
  182POPC   C3920920   0.332   2.847   5.073  0.3314 -0.0041 -0.1212
  182POPC   H9X20921   0.360   2.739   5.068  2.2482  0.5190 -2.1278
  182POPC   H9Y20922   0.425   2.906   5.060  0.3767  1.1760  4.0632
  182POPC  C31020923   0.237   2.894   4.955  0.5953  0.6182 -0.1724
  182POPC  H10X20924   0.234   3.005   4.954 -1.0295  0.6058  0.0700
  182POPC  H10Y20925   0.136   2.850   4.974  1.2011 -0.1045  1.6667
  182POPC  C31120926   0.302   2.849   4.823  0.1132  0.4912 -0.2048
  182POPC  H11X20927   0.302   2.739   4.814  0.4845  0.5625 -1.3582
  182POPC  H11Y20928   0.407   2.886   4.823  0.1970  0.3591 -2.0837
  182POPC  C31220929   0.232   2.918   4.701 -0.1535 -0.3317  0.0591
  182POPC  H12X20930   0.250   3.027   4.709  2.1444 -0.4887 -1.8509
  182POPC  H12Y20931   0.124   2.895   4.708 -0.8124  2.2463 -0.6500
  182POPC  C31320932   0.285   2.870   4.569  0.5705  1.2385  0.5514
  182POPC  H13X20933   0.292   2.760   4.576  0.7221  1.2490  0.5680
  182POPC  H13Y20934   0.388   2.906   4.551  0.5077  0.1377 -2.6273
  182POPC  C31420935   0.197   2.912   4.454  0.8346 -0.0065 -0.0577
  182POPC  H14X20936   0.095   2.887   4.490  0.1753 -0.4122 -2.0713
  182POPC  H14Y20937   0.223   2.858   4.360  0.2415  0.2938 -0.3947
  182POPC  C31520938   0.193   3.062   4.430  0.0249  0.2526 -0.7424
  182POPC  H15X20939   0.279   3.095   4.367  1.8706 -0.6803  1.1604
  182POPC  H15Y20940   0.191   3.113   4.528 -0.1833 -1.5725  0.2297
  182POPC  C31620941   0.064   3.098   4.349 -0.8903  0.4862 -0.2637
  182POPC  H16X20942   0.063   3.034   4.258  2.6436  0.0028 -0.0894
  182POPC  H16Y20943   0.080   3.205   4.327  0.9883  0.2447 -0.2150
  182POPC  H16Z20944  -0.030   3.097   4.408  1.6895  0.3687  4.2852
  183POPC     N20945   2.475   1.138   6.897  0.5478 -0.4382 -0.3317
  183POPC   C1220946   2.477   1.140   6.744  0.2938  0.8051  0.2547
  183POPC  H12A20947   2.578   1.138   6.708  0.7897 -1.2935  1.5669
  183POPC  H12B20948   2.444   1.237   6.711  2.1462  1.7292  0.9812
  183POPC   C1320949   2.339   1.195   6.936  0.2548  0.3080 -0.9710
  183POPC  H13A20950   2.311   1.288   6.890  0.0115  0.1323 -1.1801
  183POPC  H13B20951   2.265   1.118   6.925  0.6191 -0.5607  1.7856
  183POPC  H13C20952   2.347   1.205   7.043  1.8500  1.5946 -1.1784
  183POPC   C1420953   2.509   1.008   6.949  0.6267  0.2694  0.0399
  183POPC  H14A20954   2.538   1.012   7.053 -0.4865  3.2287  0.3543
  183POPC  H14B20955   2.423   0.942   6.945  1.4448 -0.7715 -2.8314
  183POPC  H14C20956   2.585   0.957   6.893  0.2564 -1.6095  1.1568
  183POPC   C1520957   2.578   1.238   6.939 -0.3265  0.2823 -0.4120
  183POPC  H15A20958   2.580   1.265   7.043 -1.1344  0.6796 -0.4916
  183POPC  H15B20959   2.548   1.332   6.893 -0.2147  0.6493  0.2528
  183POPC  H15C20960   2.676   1.228   6.895  0.3238  1.3530  0.7475
  183POPC   C1120961   2.382   1.030   6.674 -1.4276 -0.9765  0.4518
  183POPC  H11A20962   2.370   1.055   6.566  2.4381  0.5241  0.2328
  183POPC  H11B20963   2.282   1.034   6.721 -0.3086 -1.0604  2.9576
  183POPC     P20964   2.564   0.835   6.617  0.4977 -0.1447 -0.0964
  183POPC   O1320965   2.616   0.732   6.708 -0.5537  0.0380  0.2978
  183POPC   O1420966   2.647   0.950   6.588  0.0392 -0.0036  0.1586
  183POPC   O1220967   2.432   0.898   6.682  0.2450  0.1302 -0.6706
  183POPC   O1120968   2.513   0.768   6.485 -0.1244  0.4432 -0.1796
  183POPC    C120969   2.406   0.812   6.403 -0.2710 -0.6694  0.0515
  183POPC    HA20970   2.314   0.834   6.462 -0.3807  2.6546 -1.0929
  183POPC    HB20971   2.377   0.732   6.331  1.0427 -0.8628 -0.2784
  183POPC    C220972   2.444   0.931   6.315 -0.3965  0.2280  0.3177
  183POPC    HS20973   2.485   1.012   6.378  0.2358  0.3857 -0.2822
  183POPC   O2120974   2.322   0.975   6.255  0.3470 -0.3251 -0.2650
  183POPC   C2120975   2.312   1.102   6.228  0.8447 -0.5230  0.3443
  183POPC   O2220976   2.391   1.190   6.258  0.0965  0.4572 -0.1524
  183POPC   C2220977   2.180   1.129   6.151 -0.1371  0.4988  0.3440
  183POPC   H2R20978   2.178   1.239   6.137  1.5290  0.6157  0.7980
  183POPC   H2S20979   2.095   1.102   6.218 -0.0389  1.2371  0.7752
  183POPC    C320980   2.540   0.903   6.199  1.0041 -0.6700  0.4543
  183POPC    HX20981   2.486   0.826   6.139 -1.7431  0.1169  1.7484
  183POPC    HY20982   2.630   0.853   6.243  1.8367 -0.0434 -0.4914
  183POPC   O3120983   2.569   1.020   6.113  0.4026  0.0187  0.0693
  183POPC   C3120984   2.663   1.098   6.172  0.3429  0.2346  0.2588
  183POPC   O3220985   2.721   1.068   6.271  0.0585  0.2571  0.0821
  183POPC   C3220986   2.677   1.228   6.096 -0.0594 -0.1811 -0.5866
  183POPC   H2X20987   2.735   1.302   6.155  1.5919 -0.3215 -1.9595
  183POPC   H2Y20988   2.574   1.264   6.073  0.0815  0.1474 -0.6998
  183POPC   C2320989   2.165   1.046   6.021 -1.0015  0.0246  0.3119
  183POPC   H3R20990   2.057   1.048   5.993 -1.2151  1.2665  1.1379
  183POPC   H3S20991   2.193   0.939   6.028  2.1778  0.6180 -1.5301
  183POPC   C2420992   2.264   1.108   5.913 -0.0685 -0.4696 -0.1564
  183POPC   H4R20993   2.361   1.137   5.959  0.9887 -3.1152 -0.5568
  183POPC   H4S20994   2.219   1.198   5.864 -0.8385 -0.7076  0.0875
  183POPC   C2520995   2.315   1.013   5.812  0.1194  0.4014 -0.6014
  183POPC   H5R20996   2.235   0.948   5.770 -1.6014  1.1641  1.3351
  183POPC   H5S20997   2.379   0.937   5.862 -0.0097 -0.4190 -1.6649
  183POPC   C2620998   2.391   1.082   5.693 -0.1953 -0.1307 -0.5331
  183POPC   H6R20999   2.412   1.004   5.616  2.4620  0.1417 -0.1734
  183POPC   H6S21000   2.489   1.118   5.730  0.2188  0.4696 -2.1341
  183POPC   C2721001   2.311   1.191   5.614  0.4964  0.0771 -0.2061
  183POPC   H7R21002   2.361   1.213   5.517  0.8576  2.0738  0.3758
  183POPC   H7S21003   2.315   1.285   5.673  2.2388 -1.8315  3.0124
  183POPC   C2821004   2.162   1.155   5.596 -0.2408 -0.0397  0.1633
  183POPC   H8R21005   2.106   1.238   5.547  0.3227 -0.8946 -2.0296
  183POPC   H8S21006   2.111   1.153   5.695 -0.2555  1.0451  0.1912
  183POPC   C2921007   2.142   1.031   5.510 -0.1467 -0.3388  0.6111
  183POPC   H9121008   2.136   0.933   5.561  1.1579  0.0549  1.5790
  183POPC  C21021009   2.124   1.033   5.372  0.3251  0.2913  0.4484
  183POPC  H10121010   2.103   0.940   5.317 -0.9723  1.1498 -0.5513
  183POPC  C21121011   2.121   1.148   5.278  0.1589  0.4689 -0.5038
  183POPC  H11R21012   2.222   1.146   5.232  0.5344 -0.6882  0.3132
  183POPC  H11S21013   2.117   1.243   5.335  1.9286  0.7005 -0.6998
  183POPC  C21221014   2.006   1.135   5.179 -0.0213  0.2338 -0.2885
  183POPC  H12R21015   2.020   1.219   5.108  0.0663  0.1669 -0.3512
  183POPC  H12S21016   1.909   1.139   5.233  0.4240  0.3065  0.5164
  183POPC  C21321017   1.996   1.004   5.092 -0.4390 -0.2775  0.0131
  183POPC  H13R21018   1.908   1.024   5.028 -0.8296 -0.0961  0.5999
  183POPC  H13S21019   1.963   0.924   5.161  1.6968  0.0892  1.5839
  183POPC  C21421020   2.125   0.976   5.023  0.3509  0.3084 -0.2031
  183POPC  H14R21021   2.212   1.002   5.087 -0.3206  1.4230  0.2931
  183POPC  H14S21022   2.136   1.058   4.949 -0.6788  1.4010  0.8144
  183POPC  C21521023   2.141   0.838   4.955  0.1619 -0.6330  0.8963
  183POPC  H15R21024   2.141   0.771   5.043 -0.4402 -0.6964  0.8522
  183POPC  H15S21025   2.241   0.834   4.907 -0.0290 -0.6510  0.4892
  183POPC  C21621026   2.030   0.794   4.858  0.4099 -0.3863 -0.1708
  183POPC  H16R21027   1.936   0.799   4.916  1.4810 -0.7359  1.6662
  183POPC  H16S21028   2.054   0.688   4.831  0.5686 -0.3091 -0.3430
  183POPC  C21721029   2.005   0.887   4.734  0.3748  0.1873  0.4269
  183POPC  H17R21030   2.088   0.887   4.661  1.5393  1.2914  1.6903
  183POPC  H17S21031   2.004   0.995   4.760 -0.5868  0.5097 -0.8335
  183POPC  C21821032   1.866   0.859   4.666  0.0864  0.4921 -0.2980
  183POPC  H18R21033   1.852   0.918   4.572  1.6241 -1.6401 -1.9645
  183POPC  H18S21034   1.783   0.887   4.735 -0.3375  0.2714 -0.7124
  183POPC  H18T21035   1.854   0.750   4.652  1.4197  0.4115 -1.0325
  183POPC   C3321036   2.760   1.192   5.966  0.0860 -0.1085  0.7340
  183POPC   H3X21037   2.710   1.105   5.918  0.8450 -0.2043  0.0986
  183POPC   H3Y21038   2.867   1.178   5.993  0.5925 -0.9722 -1.4772
  183POPC   C3421039   2.742   1.312   5.869  0.0758  0.3446  0.4658
  183POPC   H4X21040   2.771   1.405   5.922 -0.7025  0.6185  0.4308
  183POPC   H4Y21041   2.631   1.318   5.857 -0.3000 -0.7578  2.8004
  183POPC   C3521042   2.812   1.300   5.730 -0.0840  0.4303  0.4974
  183POPC   H5X21043   2.782   1.210   5.672  2.2253  0.4236 -0.7802
  183POPC   H5Y21044   2.921   1.308   5.745  0.4682  3.0335 -3.2470
  183POPC   C3621045   2.766   1.425   5.642 -0.2888 -0.1654  0.1658
  183POPC   H6X21046   2.818   1.514   5.682 -0.2214  0.5254 -1.3919
  183POPC   H6Y21047   2.658   1.447   5.659 -0.1666 -0.2744  1.1092
  183POPC   C3721048   2.787   1.400   5.483  0.3596 -0.2346  0.0586
  183POPC   H7X21049   2.745   1.298   5.474 -0.6729  0.2220 -0.4795
  183POPC   H7Y21050   2.892   1.402   5.447  0.4654  1.5585  0.4021
  183POPC   C3821051   2.711   1.494   5.390  0.3225  0.1596  0.3060
  183POPC   H8X21052   2.770   1.559   5.322 -0.8745  2.4211  1.3380
  183POPC   H8Y21053   2.650   1.555   5.460 -0.2998 -2.7099  2.4340
  183POPC   C3921054   2.597   1.428   5.310 -0.3770 -0.2668  0.6180
  183POPC   H9X21055   2.520   1.503   5.283 -0.8554 -1.3410 -1.2459
  183POPC   H9Y21056   2.548   1.358   5.382 -0.6662 -1.9888 -1.1523
  183POPC  C31021057   2.637   1.347   5.177 -0.3984 -0.4424  0.1177
  183POPC  H10X21058   2.724   1.280   5.197  0.0076 -0.4061 -1.3682
  183POPC  H10Y21059   2.660   1.415   5.092  0.6704 -0.0035  0.7344
  183POPC  C31121060   2.523   1.248   5.136  0.8586  0.1637  0.1507
  183POPC  H11X21061   2.436   1.315   5.152  1.1357  0.1849  1.6708
  183POPC  H11Y21062   2.517   1.162   5.206 -0.4043 -0.8115 -1.0983
  183POPC  C31221063   2.518   1.212   4.989  0.0810 -0.6005 -0.0826
  183POPC  H12X21064   2.458   1.119   4.979 -0.7064  0.0481 -1.5802
  183POPC  H12Y21065   2.623   1.193   4.960  0.6303  0.2161  1.2618
  183POPC  C31321066   2.446   1.320   4.902 -0.2573 -0.3409 -0.3588
  183POPC  H13X21067   2.513   1.408   4.915 -0.6472 -0.1126  0.1320
  183POPC  H13Y21068   2.352   1.357   4.948 -0.5253  1.2775 -2.0588
  183POPC  C31421069   2.427   1.286   4.754  0.6378  0.2567  0.3928
  183POPC  H14X21070   2.511   1.225   4.716  1.0505  0.8464  0.3404
  183POPC  H14Y21071   2.430   1.384   4.701 -3.2921  0.4616  0.3081
  183POPC  C31521072   2.301   1.198   4.731 -0.5750  0.1595 -0.2523
  183POPC  H15X21073   2.212   1.264   4.743 -0.9000 -0.3558  0.2492
  183POPC  H15Y21074   2.297   1.117   4.808  2.2438  0.6867  0.5486
  183POPC  C31621075   2.280   1.131   4.588  0.0209 -0.0237  0.0056
  183POPC  H16X21076   2.179   1.090   4.565 -0.4476  0.3993  1.2328
  183POPC  H16Y21077   2.362   1.058   4.571  1.0530  1.1397 -0.1377
  183POPC  H16Z21078   2.303   1.214   4.517  1.1244 -0.6110 -0.3418
  184POPC     N21079   3.297   1.447   6.906  0.7087 -0.4646 -0.6114
  184POPC   C1221080   3.383   1.479   6.783 -0.4736 -0.6810 -0.2354
  184POPC  H12A21081   3.343   1.565   6.732  0.3163 -0.6219 -0.7824
  184POPC  H12B21082   3.368   1.399   6.713 -1.2397  0.3006 -1.2281
  184POPC   C1321083   3.337   1.319   6.968 -0.8666 -0.2710  0.0096
  184POPC  H13A21084   3.444   1.324   6.975 -0.7563 -1.6376 -0.4606
  184POPC  H13B21085   3.286   1.301   7.062 -2.9258  0.2947 -0.9273
  184POPC  H13C21086   3.315   1.238   6.901 -1.0855 -0.9803  0.9201
  184POPC   C1421087   3.318   1.556   7.000 -0.2412  0.5059 -0.7271
  184POPC  H14A21088   3.260   1.534   7.089 -1.3238 -1.1528 -1.7877
  184POPC  H14B21089   3.420   1.556   7.036  1.1759 -0.7185 -4.3372
  184POPC  H14C21090   3.284   1.652   6.962 -2.1951  0.4739  0.7765
  184POPC   C1521091   3.147   1.449   6.863 -0.4318  0.2269 -0.1719
  184POPC  H15A21092   3.137   1.403   6.766  0.0853  0.9402 -0.5713
  184POPC  H15B21093   3.107   1.549   6.854 -1.2218 -0.0628 -0.0151
  184POPC  H15C21094   3.086   1.391   6.930  0.0025  0.5590  0.5183
  184POPC   C1121095   3.536   1.486   6.802  0.3517  0.4465  0.1522
  184POPC  H11A21096   3.565   1.555   6.885 -0.3926 -0.4374  1.1742
  184POPC  H11B21097   3.569   1.546   6.715 -0.7253  1.2118  0.2402
  184POPC     P21098   3.735   1.325   6.747 -0.0718 -0.2026 -0.1102
  184POPC   O1321099   3.766   1.182   6.745 -0.2293  0.0403  0.6356
  184POPC   O1421100   3.841   1.408   6.812 -0.2704 -0.3644  0.6993
  184POPC   O1221101   3.598   1.358   6.812  0.5806 -0.6662  0.0376
  184POPC   O1121102   3.699   1.371   6.592 -0.2835 -0.5650 -0.5772
  184POPC    C121103   3.819   1.407   6.518 -0.4898  0.6978  0.2589
  184POPC    HA21104   3.905   1.446   6.577  0.2537 -1.2908  0.5526
  184POPC    HB21105   3.790   1.475   6.436 -1.4035 -0.5999 -0.5209
  184POPC    C221106   3.872   1.287   6.430  0.5896 -0.6383 -0.0124
  184POPC    HS21107   3.909   1.211   6.501  3.1540 -0.1994 -0.7757
  184POPC   O2121108   3.970   1.339   6.341  0.0503 -0.0465  0.4596
  184POPC   C2121109   4.092   1.355   6.382 -0.6734 -0.7151 -0.6681
  184POPC   O2221110   4.123   1.348   6.500  0.0585 -0.7894 -0.3768
  184POPC   C2221111   4.187   1.384   6.266 -0.0991  0.1829 -0.2117
  184POPC   H2R21112   4.280   1.414   6.318 -0.4982 -0.7400  1.0869
  184POPC   H2S21113   4.142   1.471   6.214 -0.0190  0.6172  0.4371
  184POPC    C321114   3.765   1.217   6.344 -0.7668  0.4047 -0.1030
  184POPC    HX21115   3.702   1.304   6.318 -0.2411  0.7948 -0.0881
  184POPC    HY21116   3.702   1.153   6.410  0.0114  0.8853  1.1340
  184POPC   O3121117   3.833   1.139   6.240  0.0100  0.7370  0.2232
  184POPC   C3121118   3.753   1.105   6.140 -0.8196 -0.2638 -0.0015
  184POPC   O3221119   3.636   1.132   6.124  0.2676 -0.1853 -0.0529
  184POPC   C3221120   3.830   1.008   6.038 -0.0473  0.0984 -1.2122
  184POPC   H2X21121   3.776   0.911   6.042 -1.6379  0.9749 -0.1259
  184POPC   H2Y21122   3.935   0.996   6.072 -0.0560  0.8338 -0.8969
  184POPC   C2321123   4.199   1.255   6.177 -0.2524 -0.3266  0.3380
  184POPC   H3R21124   4.100   1.214   6.147 -0.3727 -0.6071  1.1085
  184POPC   H3S21125   4.236   1.164   6.229 -2.4117 -1.9941 -0.8519
  184POPC   C2421126   4.285   1.304   6.058 -0.2516  0.3395  0.1090
  184POPC   H4R21127   4.382   1.339   6.100  0.2224  0.6632 -1.2016
  184POPC   H4S21128   4.241   1.389   6.000  0.2841 -0.2877 -1.2741
  184POPC   C2521129   4.319   1.187   5.952  0.5475  0.9611  0.0486
  184POPC   H5R21130   4.224   1.161   5.900  0.5555  1.5149 -0.2471
  184POPC   H5S21131   4.363   1.094   5.993  3.1119  0.9778 -2.3249
  184POPC   C2621132   4.418   1.236   5.851 -0.2570  0.0724  0.1311
  184POPC   H6R21133   4.515   1.267   5.894 -0.3178  0.8863 -0.3076
  184POPC   H6S21134   4.374   1.325   5.802  1.4005  0.7983 -0.1239
  184POPC   C2721135   4.437   1.134   5.731  0.0315 -0.2317 -0.7545
  184POPC   H7R21136   4.381   1.041   5.759 -2.5245  0.9096 -1.7535
  184POPC   H7S21137   4.545   1.112   5.738  0.0050  0.0928  2.3833
  184POPC   C2821138   4.394   1.200   5.598  0.1144 -0.6744  0.8402
  184POPC   H8R21139   4.465   1.286   5.594 -0.1934 -0.3751  1.6717
  184POPC   H8S21140   4.291   1.242   5.597  0.0869 -0.3911 -3.4104
  184POPC   C2921141   4.414   1.104   5.485 -0.3854 -0.6449 -0.3775
  184POPC   H9121142   4.466   1.012   5.516  1.8191  0.4566 -0.6305
  184POPC  C21021143   4.374   1.127   5.359 -0.3127 -0.0152  0.3267
  184POPC  H10121144   4.386   1.036   5.299 -0.3364 -0.0512  0.3766
  184POPC  C21121145   4.313   1.248   5.298 -0.0296  0.0617  0.1534
  184POPC  H11R21146   4.280   1.319   5.376  0.5011  0.1246  0.3213
  184POPC  H11S21147   4.218   1.220   5.247  0.3528 -2.0431  0.4999
  184POPC  C21221148   4.409   1.317   5.201 -0.4194  0.5697 -0.7787
  184POPC  H12R21149   4.506   1.342   5.249  0.0752 -0.7776 -1.0295
  184POPC  H12S21150   4.365   1.417   5.182 -0.0943  0.8204 -0.2605
  184POPC  C21321151   4.431   1.255   5.067 -0.1061  0.5161  0.2871
  184POPC  H13R21152   4.496   1.168   5.088 -0.4758  0.0079 -0.6108
  184POPC  H13S21153   4.494   1.322   5.004 -1.2113 -0.8748 -2.4508
  184POPC  C21421154   4.300   1.202   4.991  0.1739 -1.0328 -0.1833
  184POPC  H14R21155   4.233   1.141   5.054 -1.1558  0.3429 -0.2089
  184POPC  H14S21156   4.347   1.138   4.913  0.1800 -2.4876  0.9733
  184POPC  C21521157   4.234   1.325   4.936  0.2438 -0.9833  0.3198
  184POPC  H15R21158   4.309   1.400   4.903 -0.3019  0.0597  1.3506
  184POPC  H15S21159   4.180   1.378   5.018  1.4774  0.5059  0.2267
  184POPC  C21621160   4.136   1.292   4.823  0.0114  0.5740  0.0123
  184POPC  H16R21161   4.098   1.392   4.794  2.8117  0.8136 -3.5420
  184POPC  H16S21162   4.053   1.224   4.852  0.3050 -0.0109 -0.5025
  184POPC  C21721163   4.191   1.243   4.685  0.1609  0.8098 -0.5683
  184POPC  H17R21164   4.101   1.207   4.632 -0.1265  0.8396 -0.1078
  184POPC  H17S21165   4.247   1.148   4.698  0.6757  0.8317 -2.3984
  184POPC  C21821166   4.282   1.345   4.616  0.9872  0.9834 -0.1361
  184POPC  H18R21167   4.222   1.438   4.607  0.3713  0.5322 -0.9005
  184POPC  H18S21168   4.303   1.314   4.511 -1.2401  1.9502 -0.9395
  184POPC  H18T21169   4.387   1.355   4.650  0.6408  1.9826  0.7033
  184POPC   C3321170   3.838   1.072   5.899  0.4012  0.0897  0.3213
  184POPC   H3X21171   3.889   1.169   5.919  0.9341 -0.1874  0.3069
  184POPC   H3Y21172   3.732   1.083   5.865  0.1599 -2.2148  0.1633
  184POPC   C3421173   3.916   0.994   5.794  0.0527 -0.0285  0.0458
  184POPC   H4X21174   3.883   0.889   5.805  1.5718 -0.5064  0.2388
  184POPC   H4Y21175   4.024   1.005   5.818 -0.2687  1.4179  1.0003
  184POPC   C3521176   3.902   1.047   5.645 -0.6656 -0.2246  0.1273
  184POPC   H5X21177   3.935   1.153   5.644 -0.4747 -0.2853 -0.0824
  184POPC   H5Y21178   3.796   1.037   5.614 -0.0599 -1.0782 -1.8241
  184POPC   C3621179   3.994   0.971   5.545  0.1160  0.7937  0.4863
  184POPC   H6X21180   3.966   0.866   5.520 -1.1663  1.0315  0.8719
  184POPC   H6Y21181   4.091   0.962   5.598  0.1796 -3.2129  0.0069
  184POPC   C3721182   4.009   1.035   5.412 -0.2105 -0.4937 -0.3306
  184POPC   H7X21183   4.096   0.984   5.367  0.8853  2.5095 -1.9145
  184POPC   H7Y21184   4.051   1.137   5.426 -0.4888 -0.2566 -1.1363
  184POPC   C3821185   3.885   1.048   5.318  0.4162  0.3067  0.0782
  184POPC   H8X21186   3.817   1.127   5.356  1.0805  0.7686  0.3074
  184POPC   H8Y21187   3.829   0.952   5.306 -0.0651  0.8250 -2.7365
  184POPC   C3921188   3.918   1.088   5.174  0.7294 -0.4701  0.0647
  184POPC   H9X21189   3.982   1.007   5.132 -2.8002 -2.7836 -1.4204
  184POPC   H9Y21190   3.973   1.184   5.177 -0.0243 -0.0232 -0.1267
  184POPC  C31021191   3.803   1.099   5.074 -0.6166  0.6714  0.5865
  184POPC  H10X21192   3.841   1.142   4.979 -1.5433  0.6810  0.2087
  184POPC  H10Y21193   3.722   1.170   5.103 -1.1952  0.4881 -0.5180
  184POPC  C31121194   3.745   0.958   5.041 -0.0256 -0.5403 -0.0504
  184POPC  H11X21195   3.700   0.912   5.131  0.0311  1.6384  1.1694
  184POPC  H11Y21196   3.830   0.901   4.998 -0.0963  0.2798 -1.3193
  184POPC  C31221197   3.643   0.964   4.927 -0.3956 -0.2406 -0.4902
  184POPC  H12X21198   3.615   0.860   4.898 -3.4081  0.1986  0.4497
  184POPC  H12Y21199   3.685   1.000   4.831 -1.1276  0.4080 -0.5779
  184POPC  C31321200   3.515   1.042   4.947 -0.4126  0.2136  0.4284
  184POPC  H13X21201   3.538   1.150   4.958  1.1331 -0.0109 -0.4076
  184POPC  H13Y21202   3.464   0.999   5.036 -0.6461  2.0057  1.1860
  184POPC  C31421203   3.416   1.019   4.831  0.1851 -0.3299 -0.6708
  184POPC  H14X21204   3.320   1.072   4.843 -0.7567 -1.7612 -1.4722
  184POPC  H14Y21205   3.388   0.912   4.838  0.3141 -0.2829  0.6671
  184POPC  C31521206   3.461   1.071   4.686  0.3229 -0.3985 -0.0251
  184POPC  H15X21207   3.548   1.008   4.658 -0.2433  0.1428 -3.4345
  184POPC  H15Y21208   3.486   1.179   4.698  1.7027 -0.7494  0.4601
  184POPC  C31621209   3.351   1.054   4.583 -0.4586 -0.2583 -0.2712
  184POPC  H16X21210   3.317   0.948   4.582 -1.0492 -0.0799  0.6314
  184POPC  H16Y21211   3.380   1.079   4.478  0.8946  2.5926  0.6930
  184POPC  H16Z21212   3.260   1.104   4.622 -0.1888  0.1598 -0.1744
  185POPC     N21213   0.412   4.801   1.912  0.4972  0.4126 -0.3943
  185POPC   C1221214   0.329   4.788   2.048 -0.1750 -0.2285  0.4920
  185POPC  H12A21215   0.405   4.813   2.120 -0.2864  2.3007 -0.1688
  185POPC  H12B21216   0.301   4.686   2.065  1.1730 -0.2669  3.0535
  185POPC   C1321217   0.465   4.941   1.890 -0.0830 -1.0591  0.1121
  185POPC  H13A21218   0.539   4.947   1.812 -2.0375  0.8666 -1.7124
  185POPC  H13B21219   0.388   5.010   1.861  1.0186  0.0401 -0.2880
  185POPC  H13C21220   0.506   4.981   1.982  0.4634 -0.2745 -0.4604
  185POPC   C1421221   0.523   4.705   1.923  0.1709 -0.3214 -0.0550
  185POPC  H14A21222   0.559   4.692   1.821 -1.5113 -1.6414 -0.5287
  185POPC  H14B21223   0.602   4.733   1.992  0.7944 -0.0518 -0.8577
  185POPC  H14C21224   0.483   4.608   1.947 -1.1698  0.4690  0.9980
  185POPC   C1521225   0.327   4.765   1.797 -0.5267 -0.2301  0.0419
  185POPC  H15A21226   0.264   4.848   1.771 -0.2477 -0.4787 -1.5213
  185POPC  H15B21227   0.271   4.673   1.809 -0.7734 -0.5150 -2.6739
  185POPC  H15C21228   0.385   4.745   1.708 -2.5659 -1.4866 -1.0996
  185POPC   C1121229   0.204   4.879   2.040 -0.7632  0.2171 -0.3169
  185POPC  H11A21230   0.137   4.829   1.967  1.1168 -0.9198 -1.3392
  185POPC  H11B21231   0.210   4.985   2.007  0.6602  1.1857  2.6750
  185POPC     P21232   0.221   4.971   2.280 -0.1105  0.1827  0.1018
  185POPC   O1321233   0.202   5.111   2.238 -0.4405 -0.3633 -0.1225
  185POPC   O1421234   0.363   4.929   2.313 -0.2157 -0.2250  0.4396
  185POPC   O1221235   0.158   4.873   2.174  0.2694  0.0083 -0.1333
  185POPC   O1121236   0.142   4.934   2.410  0.1555  0.4172  0.0119
  185POPC    C121237   0.068   4.818   2.444  0.1661 -0.5110  0.6145
  185POPC    HA21238   0.120   4.726   2.411 -0.4961 -0.9889  0.8916
  185POPC    HB21239  -0.031   4.830   2.394  0.9510 -0.0848 -0.8984
  185POPC    C221240   0.047   4.797   2.592 -0.1660 -0.0680  0.3605
  185POPC    HS21241  -0.036   4.865   2.621  1.1390  1.1355  1.4382
  185POPC   O2121242   0.167   4.818   2.673 -0.3778 -0.9365 -0.1109
  185POPC   C2121243   0.179   4.923   2.742  0.8566 -0.4245  0.4267
  185POPC   O2221244   0.092   4.998   2.786 -0.3717  0.7047  0.1788
  185POPC   C2221245   0.326   4.953   2.761  0.0649 -0.0663 -0.0438
  185POPC   H2R21246   0.339   5.060   2.790  0.7249  0.4443 -2.0535
  185POPC   H2S21247   0.378   4.953   2.663 -0.3019 -1.1477 -0.2486
  185POPC    C321248  -0.005   4.651   2.617 -0.4395 -0.0044 -0.4160
  185POPC    HX21249   0.083   4.583   2.612 -1.1574 -1.4345  3.2416
  185POPC    HY21250  -0.092   4.617   2.556 -1.9189 -1.7261  2.4265
  185POPC   O3121251  -0.030   4.645   2.758  0.3847  0.2045 -0.6707
  185POPC   C3121252  -0.152   4.657   2.802  0.4309 -0.1626  0.1425
  185POPC   O3221253  -0.251   4.695   2.733 -0.3337 -0.3976  0.3004
  185POPC   C3221254  -0.159   4.615   2.943  0.0754  0.3481 -0.5240
  185POPC   H2X21255  -0.135   4.705   3.005 -0.1926  0.0687 -0.0113
  185POPC   H2Y21256  -0.083   4.539   2.972 -0.3572  0.5106  1.1623
  185POPC   C2321257   0.401   4.857   2.857  0.0491  0.4195 -0.4489
  185POPC   H3R21258   0.409   4.762   2.800 -0.0733 -0.6870  1.3094
  185POPC   H3S21259   0.341   4.855   2.951 -0.4467 -2.4614 -0.7265
  185POPC   C2421260   0.539   4.906   2.893 -0.3114 -0.2321  0.9605
  185POPC   H4R21261   0.585   4.946   2.800 -2.1124  0.5894  0.3872
  185POPC   H4S21262   0.604   4.823   2.930 -1.7364 -1.0560  1.6749
  185POPC   C2521263   0.545   5.022   3.001  0.0775 -0.1716  0.4705
  185POPC   H5R21264   0.470   5.099   2.973 -1.6089 -1.3249  1.6159
  185POPC   H5S21265   0.646   5.069   2.994  1.9535 -3.8777  0.1076
  185POPC   C2621266   0.513   4.982   3.138  0.0986  0.2572  0.0554
  185POPC   H6R21267   0.612   4.958   3.181  0.9204  0.2335 -1.7633
  185POPC   H6S21268   0.441   4.897   3.141  1.2091 -0.7884 -1.5031
  185POPC   C2721269   0.471   5.085   3.247 -0.5318  0.4890 -0.9492
  185POPC   H7R21270   0.566   5.142   3.256 -0.1288 -0.1861 -0.8869
  185POPC   H7S21271   0.443   5.037   3.343 -0.8842 -0.8468 -1.6924
  185POPC   C2821272   0.370   5.182   3.199  0.8250 -0.3014 -0.2712
  185POPC   H8R21273   0.428   5.237   3.123  0.0629  0.5839 -0.2286
  185POPC   H8S21274   0.357   5.261   3.275  0.0914  1.0505 -1.7465
  185POPC   C2921275   0.244   5.112   3.143 -0.6344  0.1152 -0.4253
  185POPC   H9121276   0.247   5.090   3.036 -0.2833 -2.4303  0.0414
  185POPC  C21021277   0.131   5.090   3.210 -0.7569  0.4177 -1.0774
  185POPC  H10121278   0.045   5.045   3.159 -2.0533 -1.9346  2.7775
  185POPC  C21121279   0.093   5.122   3.352  0.0537 -0.0391  0.5117
  185POPC  H11R21280  -0.014   5.150   3.359  0.1244  0.1704  0.7505
  185POPC  H11S21281   0.151   5.210   3.388  0.1069  0.1673 -0.0609
  185POPC  C21221282   0.117   5.001   3.450  0.0507  0.0033  0.0225
  185POPC  H12R21283   0.225   4.977   3.452  0.4422  1.7151  1.6350
  185POPC  H12S21284   0.067   4.908   3.415  2.2916 -1.9170  1.6281
  185POPC  C21321285   0.060   5.020   3.593  0.3291 -0.1276  0.0602
  185POPC  H13R21286  -0.049   5.001   3.594  0.3380 -0.3119  2.2837
  185POPC  H13S21287   0.077   5.127   3.619  1.1685  0.2778 -1.9884
  185POPC  C21421288   0.140   4.936   3.690 -0.6919 -0.0255 -0.3755
  185POPC  H14R21289   0.248   4.956   3.676 -0.7497  0.7882  0.2573
  185POPC  H14S21290   0.128   4.828   3.667 -0.2280 -0.5788  1.7486
  185POPC  C21521291   0.108   4.970   3.833  0.4432 -0.1306 -0.9920
  185POPC  H15R21292   0.151   4.889   3.896 -0.9627 -1.5686 -1.8247
  185POPC  H15S21293   0.001   4.978   3.862  0.7161  2.1206 -0.4018
  185POPC  C21621294   0.168   5.107   3.880 -0.1625 -0.7468  0.2619
  185POPC  H16R21295   0.107   5.196   3.851  3.6733  2.0520  0.1019
  185POPC  H16S21296   0.271   5.131   3.847 -0.1562 -0.4158  0.5158
  185POPC  C21721297   0.177   5.118   4.037  0.4720  0.1226  0.2030
  185POPC  H17R21298   0.261   5.189   4.051  1.6506 -1.3026  0.6997
  185POPC  H17S21299   0.206   5.024   4.089 -0.6880  0.3173  1.2676
  185POPC  C21821300   0.048   5.178   4.104 -0.9474  0.6450  0.3175
  185POPC  H18R21301  -0.029   5.101   4.128  0.0921 -0.4186  0.3474
  185POPC  H18S21302   0.007   5.263   4.045 -0.2080 -0.3983 -1.7824
  185POPC  H18T21303   0.076   5.213   4.206 -1.7125 -1.0003  1.1376
  185POPC   C3321304  -0.295   4.550   2.974  0.4617  0.2645  0.3584
  185POPC   H3X21305  -0.302   4.458   2.911 -3.8068  0.1326  0.7409
  185POPC   H3Y21306  -0.383   4.613   2.949 -0.5004 -0.9813  0.4865
  185POPC   C3421307  -0.316   4.508   3.118 -0.0792  0.1716  0.8408
  185POPC   H4X21308  -0.305   4.601   3.178  0.2946  1.2971 -0.8928
  185POPC   H4Y21309  -0.235   4.446   3.161 -1.1983  0.0025  2.8283
  185POPC   C3521310  -0.452   4.460   3.154  0.0500 -0.2396  0.7271
  185POPC   H5X21311  -0.470   4.367   3.097 -1.5542  0.3309  0.2496
  185POPC   H5Y21312  -0.526   4.536   3.122  1.2572  0.5563 -0.3100
  185POPC   C3621313  -0.472   4.429   3.307  0.4342  0.7021  0.0849
  185POPC   H6X21314  -0.578   4.398   3.322  0.6931  0.3394  1.2781
  185POPC   H6Y21315  -0.451   4.522   3.365  3.8952  1.5295 -2.1869
  185POPC   C3721316  -0.381   4.321   3.357  0.0602 -0.5411 -0.0364
  185POPC   H7X21317  -0.275   4.353   3.350  0.0389 -0.7916 -4.7608
  185POPC   H7Y21318  -0.397   4.231   3.293 -2.1275 -0.5035  0.3765
  185POPC   C3821319  -0.427   4.272   3.498 -0.4458  0.1370 -0.8983
  185POPC   H8X21320  -0.526   4.223   3.488  0.0478 -0.9231 -0.7125
  185POPC   H8Y21321  -0.424   4.355   3.572  0.5911 -0.2496 -0.4884
  185POPC   C3921322  -0.313   4.173   3.546 -0.4163 -0.0060 -0.9795
  185POPC   H9X21323  -0.220   4.232   3.532  1.4564 -1.9227  2.1856
  185POPC   H9Y21324  -0.311   4.085   3.479 -0.5381  0.2847 -1.3691
  185POPC  C31021325  -0.315   4.151   3.697  0.5403 -0.0466 -0.2621
  185POPC  H10X21326  -0.419   4.124   3.727  0.4101  1.5322  0.8411
  185POPC  H10Y21327  -0.309   4.251   3.744 -3.7763  0.3013  0.0013
  185POPC  C31121328  -0.206   4.038   3.736 -0.3677  0.2091  0.7997
  185POPC  H11X21329  -0.117   4.088   3.694 -0.6752  1.7689  1.8956
  185POPC  H11Y21330  -0.228   3.942   3.684  0.4728  0.7724 -0.6364
  185POPC  C31221331  -0.199   4.011   3.881 -0.3560 -0.1256  0.4728
  185POPC  H12X21332  -0.293   3.954   3.900 -1.6164  0.7574 -2.5569
  185POPC  H12Y21333  -0.205   4.108   3.935 -3.6823  1.1389 -1.8087
  185POPC  C31321334  -0.086   3.916   3.920 -0.9067 -0.2837 -0.1232
  185POPC  H13X21335  -0.063   3.916   4.029  0.4296 -0.4236 -0.3801
  185POPC  H13Y21336   0.009   3.946   3.870 -0.3456  0.2146  1.1806
  185POPC  C31421337  -0.100   3.770   3.883  0.1071 -0.0833 -0.2371
  185POPC  H14X21338  -0.101   3.768   3.772 -0.9424  0.5032 -0.2476
  185POPC  H14Y21339  -0.195   3.731   3.926 -0.1465  0.5974 -0.1804
  185POPC  C31521340   0.018   3.677   3.929  0.2235 -0.2265 -0.6308
  185POPC  H15X21341   0.044   3.698   4.035  0.9641 -0.6540 -0.7254
  185POPC  H15Y21342   0.101   3.714   3.865 -0.8020  2.4468 -0.5523
  185POPC  C31621343  -0.001   3.528   3.902  0.2163 -0.1982  1.0326
  185POPC  H16X21344   0.090   3.476   3.939 -0.5331 -2.2570  0.1435
  185POPC  H16Y21345  -0.012   3.513   3.793  0.6073  1.6691  0.6966
  185POPC  H16Z21346  -0.099   3.498   3.946  0.4681  0.0897  1.8168
  186POPC     N21347   2.532   1.179   2.006  0.2148  0.4626  0.0953
  186POPC   C1221348   2.598   1.095   1.898 -0.6768  0.2127 -0.0699
  186POPC  H12A21349   2.564   1.129   1.801 -2.0849  0.9088  0.6480
  186POPC  H12B21350   2.569   0.991   1.909 -0.4541  0.1193 -0.3374
  186POPC   C1321351   2.602   1.170   2.142  0.5251  0.9623 -0.4176
  186POPC  H13A21352   2.708   1.161   2.123  0.6813 -2.5098  1.3355
  186POPC  H13B21353   2.559   1.240   2.211 -0.1685 -1.5920  1.9080
  186POPC  H13C21354   2.574   1.074   2.181 -0.3991  0.4158 -2.3030
  186POPC   C1421355   2.533   1.321   1.963 -0.1493  0.8729  0.3105
  186POPC  H14A21356   2.499   1.385   2.043  0.7886  2.7867 -0.7404
  186POPC  H14B21357   2.633   1.354   1.941  0.3644 -1.1655 -0.6275
  186POPC  H14C21358   2.480   1.335   1.869  1.6589 -2.0485 -1.2924
  186POPC   C1521359   2.395   1.143   2.018  0.3734  0.0434 -0.1385
  186POPC  H15A21360   2.382   1.038   2.041  1.7510 -0.4965 -1.6296
  186POPC  H15B21361   2.336   1.169   1.931  0.1422  0.2592  0.0840
  186POPC  H15C21362   2.354   1.196   2.102  0.2267  1.5707 -1.1488
  186POPC   C1121363   2.759   1.101   1.887 -0.3240  0.3135 -0.8007
  186POPC  H11A21364   2.797   1.205   1.891  1.6903 -0.3419 -1.2368
  186POPC  H11B21365   2.800   1.066   1.789  0.1663 -2.2115  0.2188
  186POPC     P21366   2.980   1.016   1.999 -0.2685  0.0988  0.0188
  186POPC   O1321367   3.036   1.145   1.963 -0.2397 -0.2725 -0.2556
  186POPC   O1421368   3.006   0.895   1.911 -0.0434 -0.7913 -0.4985
  186POPC   O1221369   2.821   1.033   1.999 -0.0065  0.0449 -0.1053
  186POPC   O1121370   3.016   0.989   2.155  0.0262  0.3031  0.9072
  186POPC    C121371   2.933   0.897   2.224 -0.2763  0.5656 -0.8865
  186POPC    HA21372   2.934   0.803   2.165  1.9533 -0.0275 -0.0201
  186POPC    HB21373   2.828   0.932   2.233 -1.2418 -1.1669 -3.8075
  186POPC    C221374   2.988   0.882   2.369 -0.3680  0.0359 -0.0095
  186POPC    HS21375   2.914   0.832   2.435 -0.9545  1.9796  0.8681
  186POPC   O2121376   3.045   1.004   2.432  0.0504  0.3897  0.3097
  186POPC   C2121377   2.951   1.092   2.450 -0.2391 -0.2900 -0.2524
  186POPC   O2221378   2.829   1.072   2.452  0.0187 -0.2050  0.2561
  186POPC   C2221379   3.031   1.220   2.469  0.3145 -0.2887  0.4621
  186POPC   H2R21380   3.123   1.228   2.407 -0.3496  2.3452 -0.2990
  186POPC   H2S21381   3.058   1.237   2.576  0.4848 -1.8431  0.6876
  186POPC    C321382   3.106   0.784   2.360  0.3593 -0.0666  0.0025
  186POPC    HX21383   3.178   0.813   2.281  1.0077  0.6693  0.8459
  186POPC    HY21384   3.063   0.686   2.331 -2.6582  1.2569 -0.4467
  186POPC   O3121385   3.168   0.766   2.484  0.0334 -0.1770 -0.3397
  186POPC   C3121386   3.277   0.838   2.513 -0.0018 -0.5236 -0.2400
  186POPC   O3221387   3.344   0.906   2.439 -0.5545 -0.2344  0.3015
  186POPC   C3221388   3.325   0.802   2.655  0.2634  0.3671 -0.1455
  186POPC   H2X21389   3.426   0.844   2.674  0.1857 -0.1279  1.4641
  186POPC   H2Y21390   3.332   0.691   2.659 -1.3348  0.2771  1.1089
  186POPC   C2321391   2.944   1.348   2.427 -0.3550 -0.0488  0.2531
  186POPC   H3R21392   2.838   1.351   2.461 -0.1915  0.9817  0.7382
  186POPC   H3S21393   2.936   1.353   2.317  0.0088 -0.3814  0.2079
  186POPC   C2421394   3.002   1.473   2.496 -0.2241  0.0617  0.4789
  186POPC   H4R21395   3.099   1.488   2.443  0.3769 -1.7361  0.9881
  186POPC   H4S21396   3.024   1.454   2.603 -0.4980 -1.2011  0.3243
  186POPC   C2521397   2.923   1.600   2.462 -0.6651  0.6925 -0.6047
  186POPC   H5R21398   2.876   1.584   2.363  0.8069 -0.2647 -1.1956
  186POPC   H5S21399   3.001   1.678   2.446 -1.6891  1.9055  0.1478
  186POPC   C2621400   2.821   1.635   2.569  0.3998  0.2052  0.2491
  186POPC   H6R21401   2.864   1.607   2.667  0.5645  0.3790  0.2254
  186POPC   H6S21402   2.730   1.575   2.547 -0.0212 -0.0934  2.5560
  186POPC   C2721403   2.782   1.785   2.580 -0.2888 -0.4726 -0.1317
  186POPC   H7R21404   2.756   1.832   2.483  0.2254  2.5282  1.0700
  186POPC   H7S21405   2.873   1.845   2.605 -0.1435 -0.6818 -0.1538
  186POPC   C2821406   2.655   1.809   2.665  0.4758  0.1401  0.1359
  186POPC   H8R21407   2.579   1.763   2.599  0.7683  1.2339 -1.0034
  186POPC   H8S21408   2.643   1.919   2.654 -0.5966 -0.1324 -2.0331
  186POPC   C2921409   2.669   1.751   2.799  0.4324  0.2057  0.0381
  186POPC   H9121410   2.661   1.641   2.800  1.9596  0.0783  0.2344
  186POPC  C21021411   2.682   1.812   2.914 -0.9014 -0.3001  0.0653
  186POPC  H10121412   2.734   1.756   2.993 -1.2266  1.4417  1.5987
  186POPC  C21121413   2.675   1.959   2.945 -0.0210 -0.4168  0.6604
  186POPC  H11R21414   2.637   2.015   2.857  1.7379 -0.9898 -0.5225
  186POPC  H11S21415   2.778   1.997   2.965  0.4945 -0.9471 -0.8512
  186POPC  C21221416   2.586   1.998   3.065 -0.5414 -0.1509 -0.2888
  186POPC  H12R21417   2.484   1.953   3.057 -1.2767  1.0520  1.5920
  186POPC  H12S21418   2.575   2.109   3.065  0.9521  0.0123  0.0099
  186POPC  C21321419   2.643   1.959   3.201 -0.2800 -0.0828  0.3153
  186POPC  H13R21420   2.753   1.977   3.193 -0.3996 -0.1481 -4.5403
  186POPC  H13S21421   2.630   1.851   3.221 -1.9695  0.0231 -0.0790
  186POPC  C21421422   2.565   2.036   3.309  0.1770 -0.2875  0.5373
  186POPC  H14R21423   2.466   1.988   3.325 -0.6034  1.6820  2.0446
  186POPC  H14S21424   2.542   2.140   3.276 -1.3408 -0.0497  2.2152
  186POPC  C21521425   2.634   2.059   3.438  0.2072 -0.1564 -0.4060
  186POPC  H15R21426   2.599   2.155   3.480 -1.3206 -0.2419 -1.4236
  186POPC  H15S21427   2.742   2.074   3.417  1.0650 -3.8301  0.6792
  186POPC  C21621428   2.631   1.949   3.546 -0.4203 -0.5190 -0.5056
  186POPC  H16R21429   2.664   1.850   3.506 -2.8984 -1.4856 -0.3152
  186POPC  H16S21430   2.523   1.928   3.563 -0.7695 -0.5550 -2.4823
  186POPC  C21721431   2.699   1.990   3.676  0.1430 -0.2021  0.0335
  186POPC  H17R21432   2.674   2.097   3.693  0.9725  0.0425 -0.2177
  186POPC  H17S21433   2.810   1.981   3.668  0.3568  0.7505  1.3676
  186POPC  C21821434   2.671   1.896   3.790 -1.1422  0.1060  0.0873
  186POPC  H18R21435   2.561   1.895   3.808 -0.8048  0.9923  2.4337
  186POPC  H18S21436   2.709   1.796   3.760 -0.0531  0.4881  0.1440
  186POPC  H18T21437   2.732   1.922   3.879 -2.1733 -0.9594  1.1453
  186POPC   C3321438   3.247   0.868   2.774 -0.1909 -0.0289  0.5169
  186POPC   H3X21439   3.294   0.810   2.856 -0.5380 -1.3512 -0.1840
  186POPC   H3Y21440   3.138   0.850   2.773  0.0107 -1.3967 -0.9509
  186POPC   C3421441   3.277   1.017   2.796 -0.7670  0.1088 -0.3097
  186POPC   H4X21442   3.239   1.082   2.714  0.3876  1.3292  0.0834
  186POPC   H4Y21443   3.387   1.020   2.813 -1.0796  0.0972  2.0279
  186POPC   C3521444   3.224   1.071   2.934  0.6461  0.0344 -0.0131
  186POPC   H5X21445   3.114   1.065   2.942  0.5425  1.3314 -0.3431
  186POPC   H5Y21446   3.241   1.181   2.930  0.1547  0.0744 -2.4295
  186POPC   C3621447   3.288   0.995   3.052 -0.5824 -0.5966 -0.8504
  186POPC   H6X21448   3.398   0.989   3.035 -0.5477  1.4153 -1.6488
  186POPC   H6Y21449   3.243   0.893   3.056  0.3522 -1.0022 -0.1797
  186POPC   C3721450   3.255   1.066   3.186 -0.6243 -0.5931  0.6255
  186POPC   H7X21451   3.146   1.086   3.187 -1.0198 -2.3703 -1.1702
  186POPC   H7Y21452   3.318   1.157   3.197  0.8859 -1.5791  0.4902
  186POPC   C3821453   3.280   0.971   3.306  0.5396 -0.1318 -0.1387
  186POPC   H8X21454   3.384   0.934   3.288 -0.0785 -2.2145  0.2683
  186POPC   H8Y21455   3.203   0.891   3.312 -0.7912  1.1158 -0.1243
  186POPC   C3921456   3.285   1.028   3.460  0.5857  0.6697  0.5436
  186POPC   H9X21457   3.193   1.087   3.475 -0.5353 -1.1300  1.0990
  186POPC   H9Y21458   3.374   1.095   3.467  5.0153 -4.2999 -1.2717
  186POPC  C31021459   3.304   0.914   3.559  0.1425  0.5142  0.6059
  186POPC  H10X21460   3.404   0.867   3.564 -0.0465  0.2153  1.8449
  186POPC  H10Y21461   3.238   0.828   3.535  0.9038  0.2968 -0.7973
  186POPC  C31121462   3.253   0.951   3.698  0.5485  0.0581  0.1202
  186POPC  H11X21463   3.247   0.866   3.769 -1.9920  0.8948  1.0042
  186POPC  H11Y21464   3.153   0.998   3.694  1.4709  2.1691  0.6412
  186POPC  C31221465   3.355   1.041   3.776 -0.4156 -0.0865 -0.3950
  186POPC  H12X21466   3.380   1.122   3.704  0.3619 -0.5336 -0.6406
  186POPC  H12Y21467   3.438   0.971   3.800 -0.9649 -0.4038  0.6353
  186POPC  C31321468   3.292   1.098   3.902  0.1801  0.1175 -0.6523
  186POPC  H13X21469   3.281   1.009   3.968 -1.3182 -1.1630 -2.5061
  186POPC  H13Y21470   3.191   1.139   3.877 -0.7293 -2.1812 -1.0622
  186POPC  C31421471   3.375   1.207   3.971 -0.0092 -1.0912  0.0515
  186POPC  H14X21472   3.311   1.250   4.052 -1.6673  0.8414 -2.1571
  186POPC  H14Y21473   3.396   1.294   3.905 -0.4785 -0.4312  0.7452
  186POPC  C31521474   3.503   1.158   4.036  0.1809  0.2903  0.0213
  186POPC  H15X21475   3.515   1.049   4.019  0.9569  0.4659 -0.6029
  186POPC  H15Y21476   3.499   1.171   4.146 -0.2180 -0.1307  0.0619
  186POPC  C31621477   3.633   1.227   3.977  0.2266 -0.0986 -0.0576
  186POPC  H16X21478   3.645   1.210   3.868  1.0158 -0.0854  0.0204
  186POPC  H16Y21479   3.729   1.189   4.018  1.1044  0.2746 -1.6864
  186POPC  H16Z21480   3.621   1.335   4.000 -0.1257 -0.0134 -0.6380
  187POPC     N21481   6.846   3.973   2.296  0.4734 -0.3875 -0.3321
  187POPC   C1221482   6.826   4.096   2.376 -0.0610  0.1170 -0.6676
  187POPC  H12A21483   6.889   4.079   2.461  0.8563  2.2585 -0.8589
  187POPC  H12B21484   6.722   4.107   2.405 -0.0410  0.1755 -0.6189
  187POPC   C1321485   6.763   3.992   2.170 -1.0698 -0.9233 -0.4085
  187POPC  H13A21486   6.663   4.005   2.207 -0.1324  1.0729  1.7219
  187POPC  H13B21487   6.777   4.079   2.107 -0.2649  0.1600  1.1850
  187POPC  H13C21488   6.751   3.900   2.115 -0.2741 -0.6300 -1.0959
  187POPC   C1421489   6.987   3.943   2.257  0.3178 -0.8364  0.1275
  187POPC  H14A21490   6.999   3.857   2.192 -0.0993 -0.7333 -0.0904
  187POPC  H14B21491   7.045   4.024   2.215  1.1591 -0.9182  1.1078
  187POPC  H14C21492   7.034   3.911   2.348 -1.0446 -2.2496  0.3813
  187POPC   C1521493   6.795   3.862   2.368  0.1541 -0.3606  0.0203
  187POPC  H15A21494   6.850   3.836   2.457  0.6168 -0.3965 -0.2721
  187POPC  H15B21495   6.798   3.770   2.312  1.3314  1.1444 -2.5627
  187POPC  H15C21496   6.692   3.880   2.393 -0.2967 -2.4249 -0.1719
  187POPC   C1121497   6.871   4.238   2.316  0.7875  0.5404  0.6186
  187POPC  H11A21498   6.980   4.233   2.293  0.4279  0.0747 -1.1106
  187POPC  H11B21499   6.869   4.307   2.403 -0.7346  1.7691 -0.3493
  187POPC     P21500   6.662   4.367   2.234  0.4648  0.0128 -0.2893
  187POPC   O1321501   6.558   4.342   2.127  0.2008  0.3536 -0.0874
  187POPC   O1421502   6.700   4.507   2.260 -0.3754  0.1766 -0.3350
  187POPC   O1221503   6.791   4.284   2.205 -0.0310 -0.1861  0.3836
  187POPC   O1121504   6.618   4.297   2.368 -0.3145  0.0974  0.1556
  187POPC    C121505   6.501   4.339   2.433  0.0434 -0.4858 -0.0896
  187POPC    HA21506   6.419   4.284   2.382  0.3939 -0.1712 -1.0146
  187POPC    HB21507   6.488   4.449   2.428  1.9977 -0.1689  0.6377
  187POPC    C221508   6.498   4.305   2.591  0.2866 -0.2801  0.2991
  187POPC    HS21509   6.502   4.197   2.614 -1.1129  0.0726  2.4632
  187POPC   O2121510   6.378   4.366   2.652  0.2531  0.1786 -0.1438
  187POPC   C2121511   6.342   4.319   2.766  0.1271  1.0438 -0.0575
  187POPC   O2221512   6.398   4.233   2.839  0.6461 -0.8934  0.3975
  187POPC   C2221513   6.205   4.373   2.795  0.7974  0.4336 -0.1066
  187POPC   H2R21514   6.135   4.366   2.709  1.4161 -1.2086 -0.5139
  187POPC   H2S21515   6.208   4.479   2.827  0.0524  0.2342  0.6435
  187POPC    C321516   6.630   4.362   2.640  0.2678 -0.1512 -0.1387
  187POPC    HX21517   6.617   4.473   2.642 -0.2300 -0.2147  1.5076
  187POPC    HY21518   6.715   4.347   2.570  1.6618 -0.0738  1.4753
  187POPC   O3121519   6.665   4.320   2.772  0.5962 -0.3459 -0.0257
  187POPC   C3121520   6.760   4.235   2.799 -0.0925 -0.3312 -0.5140
  187POPC   O3221521   6.815   4.167   2.709 -0.3279  0.1380 -0.4928
  187POPC   C3221522   6.788   4.223   2.950  0.3239  0.0512  0.0527
  187POPC   H2X21523   6.692   4.256   2.995  0.0760  0.0591 -0.4717
  187POPC   H2Y21524   6.876   4.287   2.974  1.8101 -1.3483 -1.4351
  187POPC   C2321525   6.123   4.312   2.906 -0.7344 -0.4873  0.0467
  187POPC   H3R21526   6.185   4.277   2.991 -3.1667 -0.8344  1.8144
  187POPC   H3S21527   6.080   4.222   2.857 -2.1296  0.7662 -1.1591
  187POPC   C2421528   6.002   4.393   2.948  0.5925  0.4745 -0.5229
  187POPC   H4R21529   5.935   4.420   2.864  0.0082  1.9242  0.3788
  187POPC   H4S21530   6.032   4.491   2.992  1.9627  1.1377 -2.7576
  187POPC   C2521531   5.919   4.310   3.052 -0.5538 -0.4786  0.2476
  187POPC   H5R21532   5.865   4.231   2.996 -0.9912 -0.2121  0.2907
  187POPC   H5S21533   5.838   4.378   3.086  0.0754 -0.1704  1.1835
  187POPC   C2621534   5.996   4.259   3.179  0.8631 -0.2612  0.6228
  187POPC   H6R21535   6.046   4.348   3.223  0.3644  0.4915 -0.3053
  187POPC   H6S21536   6.065   4.175   3.157  0.3917 -0.5587  0.2790
  187POPC   C2721537   5.897   4.208   3.289 -0.1244 -0.2978  0.6484
  187POPC   H7R21538   5.837   4.127   3.241  1.6833  0.2859 -2.9439
  187POPC   H7S21539   5.833   4.294   3.320  1.0532  1.4314 -1.4240
  187POPC   C2821540   5.966   4.166   3.419 -0.0829  0.6229  0.5434
  187POPC   H8R21541   6.024   4.251   3.460  2.8171 -0.9486 -0.0220
  187POPC   H8S21542   6.035   4.081   3.398 -0.0572  0.3412  1.6874
  187POPC   C2921543   5.864   4.117   3.524  0.1467  0.6973  0.2095
  187POPC   H9121544   5.768   4.082   3.484  1.8359 -1.9358 -1.8392
  187POPC  C21021545   5.897   4.090   3.651  0.2860 -0.0809  0.2958
  187POPC  H10121546   5.808   4.075   3.713  0.0546  2.7009  0.7687
  187POPC  C21121547   6.035   4.109   3.716  0.1485  0.1546 -0.0295
  187POPC  H11R21548   6.114   4.135   3.642 -0.1898  1.3198  0.0093
  187POPC  H11S21549   6.072   4.009   3.750 -0.7082 -0.0650  0.2855
  187POPC  C21221550   6.047   4.220   3.826  0.4674  0.4377  0.2346
  187POPC  H12R21551   5.988   4.310   3.795  1.7128  1.1669 -0.0729
  187POPC  H12S21552   6.149   4.261   3.840 -0.2026  1.6986  1.8111
  187POPC  C21321553   6.002   4.186   3.964 -0.5065  0.2365 -0.1671
  187POPC  H13R21554   5.895   4.159   3.950 -0.3868 -1.0135  1.0556
  187POPC  H13S21555   6.006   4.282   4.019  1.7880 -0.1115  0.3689
  187POPC  C21421556   6.080   4.078   4.038  0.5205 -0.1341 -0.1884
  187POPC  H14R21557   6.184   4.113   4.059  0.0973  2.3258 -1.6918
  187POPC  H14S21558   6.097   3.994   3.968 -0.2788 -1.1224  0.7703
  187POPC  C21521559   6.008   4.025   4.164 -0.3939  0.2646 -0.4058
  187POPC  H15R21560   5.904   3.992   4.145 -0.8120 -0.6638  2.8767
  187POPC  H15S21561   5.997   4.096   4.249  2.9708 -1.8458  2.0297
  187POPC  C21621562   6.101   3.905   4.215  0.3218 -0.1334 -0.0929
  187POPC  H16R21563   6.201   3.948   4.239 -0.0172  0.6168 -0.0049
  187POPC  H16S21564   6.110   3.841   4.125 -0.4466 -0.2371 -0.0942
  187POPC  C21721565   6.040   3.813   4.321  0.3546 -0.1530 -0.6522
  187POPC  H17R21566   6.097   3.719   4.332 -0.0015 -0.0881  3.3764
  187POPC  H17S21567   5.937   3.779   4.297 -0.5101 -0.4093  2.8425
  187POPC  C21821568   6.053   3.880   4.461  0.4023 -0.0660  0.2896
  187POPC  H18R21569   5.982   3.964   4.471 -0.3121 -0.7546  1.1583
  187POPC  H18S21570   6.156   3.920   4.476  0.0840  0.2807  1.6858
  187POPC  H18T21571   6.037   3.810   4.546  2.8167 -0.0331  0.8432
  187POPC   C3321572   6.826   4.087   2.998  0.6448  0.4092  0.3182
  187POPC   H3X21573   6.927   4.065   2.957  0.2666 -0.7480 -0.0495
  187POPC   H3Y21574   6.765   3.999   2.967  1.0124 -0.7491  2.7001
  187POPC   C3421575   6.833   4.077   3.147 -0.2498 -0.2227  0.5204
  187POPC   H4X21576   6.735   4.111   3.188 -0.1633  0.7789 -0.0783
  187POPC   H4Y21577   6.914   4.134   3.199  0.7667 -0.5407 -0.6866
  187POPC   C3521578   6.840   3.929   3.198  0.6865 -0.5490 -0.5010
  187POPC   H5X21579   6.931   3.881   3.154 -0.6869 -3.5908 -0.2302
  187POPC   H5Y21580   6.760   3.860   3.165  0.9358 -2.6137  2.8109
  187POPC   C3621581   6.859   3.934   3.346 -0.2953  0.1708 -0.1630
  187POPC   H6X21582   6.841   3.830   3.382 -1.0727 -0.8313 -3.1984
  187POPC   H6Y21583   6.792   4.007   3.396  1.3366  2.2488 -0.9001
  187POPC   C3721584   6.996   3.973   3.395 -0.1190  0.2496  0.6149
  187POPC   H7X21585   7.026   4.079   3.388  2.0830 -0.4347 -1.6933
  187POPC   H7Y21586   7.077   3.911   3.352 -1.6784 -1.6553  0.2363
  187POPC   C3821587   7.003   3.962   3.551  0.0342  0.3568 -0.3847
  187POPC   H8X21588   6.963   3.866   3.589 -0.6974  0.4417 -0.9316
  187POPC   H8Y21589   6.949   4.048   3.596 -1.2458 -0.8878  0.5233
  187POPC   C3921590   7.140   3.966   3.615  0.1284 -0.0728  0.6234
  187POPC   H9X21591   7.195   4.056   3.578 -2.2647  1.6910  1.1284
  187POPC   H9Y21592   7.192   3.873   3.585 -2.0738 -0.6408 -1.6492
  187POPC  C31021593   7.122   3.975   3.770  0.2702 -0.2178 -0.0057
  187POPC  H10X21594   7.072   3.884   3.808 -0.3168  0.2298  0.3095
  187POPC  H10Y21595   7.044   4.050   3.797  0.3538 -0.5868  1.3778
  187POPC  C31121596   7.246   4.012   3.851  0.7366  0.2534 -0.0976
  187POPC  H11X21597   7.273   4.110   3.805  1.8341  0.9951  2.0069
  187POPC  H11Y21598   7.330   3.940   3.839 -0.7709 -1.5287 -0.2651
  187POPC  C31221599   7.214   4.044   3.993 -0.2637 -0.3757 -0.2330
  187POPC  H12X21600   7.137   4.122   4.009  0.2432  0.5001 -1.8705
  187POPC  H12Y21601   7.310   4.085   4.031 -0.3289  0.1118 -0.5889
  187POPC  C31321602   7.165   3.924   4.084 -1.1303 -0.0520 -0.1271
  187POPC  H13X21603   7.252   3.856   4.073 -2.2809 -1.6512  0.3692
  187POPC  H13Y21604   7.087   3.877   4.020 -0.2677 -0.2601 -1.0460
  187POPC  C31421605   7.135   3.956   4.228  0.3139  0.1732 -0.4328
  187POPC  H14X21606   7.103   3.871   4.293 -1.1627  0.6605 -0.4952
  187POPC  H14Y21607   7.058   4.035   4.241 -1.3763 -1.3412 -0.8428
  187POPC  C31521608   7.249   4.031   4.303  1.6019 -0.0048  0.1044
  187POPC  H15X21609   7.262   4.132   4.260 -0.0251 -0.1942 -0.9471
  187POPC  H15Y21610   7.344   3.977   4.282  2.4049  1.7692 -1.0482
  187POPC  C31621611   7.209   4.033   4.450  0.8523  0.1461 -0.1000
  187POPC  H16X21612   7.115   4.092   4.462  1.6296  1.6324 -1.0097
  187POPC  H16Y21613   7.286   4.077   4.518  1.2729 -0.7340  0.0021
  187POPC  H16Z21614   7.183   3.930   4.483 -0.0667 -0.5389 -2.7511
  188POPC     N21615   2.868   6.013   1.432 -0.2502  1.0472 -0.5260
  188POPC   C1221616   2.844   6.084   1.565 -0.0336  0.3255 -0.1861
  188POPC  H12A21617   2.818   6.015   1.644 -0.1638 -0.8383 -1.2275
  188POPC  H12B21618   2.761   6.152   1.554 -0.1670  0.0230 -1.0771
  188POPC   C1321619   2.766   5.907   1.419 -0.3876 -0.3593  0.3792
  188POPC  H13A21620   2.668   5.951   1.430 -1.2470 -1.8323 -1.0824
  188POPC  H13B21621   2.785   5.858   1.325  3.8644  3.2694 -1.0313
  188POPC  H13C21622   2.773   5.838   1.502 -0.5959 -0.2505  0.4896
  188POPC   C1421623   2.850   6.099   1.316  0.2050 -0.5243  0.4301
  188POPC  H14A21624   2.857   6.051   1.219  0.2047  1.6123 -0.6730
  188POPC  H14B21625   2.757   6.151   1.330  0.3969 -0.7751  3.2449
  188POPC  H14C21626   2.930   6.172   1.320 -1.0495  0.8590  0.9771
  188POPC   C1521627   3.001   5.944   1.422  0.4945  0.5728  0.5726
  188POPC  H15A21628   3.029   5.898   1.516  0.3592 -0.1086  0.2881
  188POPC  H15B21629   3.074   6.022   1.407  0.5290  0.7787  1.7418
  188POPC  H15C21630   3.004   5.860   1.353 -1.8069  1.2544 -0.4504
  188POPC   C1121631   2.963   6.172   1.615 -0.7596  0.0895  0.1804
  188POPC  H11A21632   2.933   6.225   1.708 -0.8365  0.2381  0.0702
  188POPC  H11B21633   2.989   6.247   1.538  0.4111  0.0949  0.5663
  188POPC     P21634   3.107   6.027   1.779 -0.5392  0.4802  0.2673
  188POPC   O1321635   3.254   6.003   1.776  0.2102 -0.1799 -0.3745
  188POPC   O1421636   3.027   5.906   1.798 -0.6118  0.3043  0.4924
  188POPC   O1221637   3.084   6.096   1.639  0.2774  0.2909 -0.0261
  188POPC   O1121638   3.079   6.138   1.890 -0.0101  0.2695  0.2708
  188POPC    C121639   3.149   6.264   1.892  0.5235  0.4134 -0.3901
  188POPC    HA21640   3.115   6.333   1.811 -2.8445 -2.4338 -1.6660
  188POPC    HB21641   3.259   6.259   1.901  0.3621 -0.9677  1.3034
  188POPC    C221642   3.109   6.341   2.026  0.1379 -0.3173  0.1556
  188POPC    HS21643   3.153   6.443   2.030 -0.7368  0.1982 -2.2017
  188POPC   O2121644   3.133   6.267   2.147 -0.1621  0.2201 -0.4168
  188POPC   C2121645   3.261   6.282   2.183  0.3875  1.0858 -0.5411
  188POPC   O2221646   3.344   6.351   2.119  0.8887  0.3433 -0.2123
  188POPC   C2221647   3.286   6.198   2.306 -0.2816  0.3119  0.0081
  188POPC   H2R21648   3.395   6.175   2.309 -0.2519 -0.1355 -2.5155
  188POPC   H2S21649   3.224   6.106   2.301  1.3202 -0.8595  0.6814
  188POPC    C321650   2.956   6.368   2.017  0.8096  0.2638 -0.2960
  188POPC    HX21651   2.913   6.265   2.015 -0.2742  0.7006 -2.1595
  188POPC    HY21652   2.940   6.419   1.920  0.2872 -0.6207 -0.6958
  188POPC   O3121653   2.893   6.453   2.119 -1.3328 -0.0883  0.4189
  188POPC   C3121654   2.856   6.395   2.228  0.6430 -0.2652  0.6361
  188POPC   O3221655   2.844   6.277   2.247 -0.5198 -0.4768  0.4702
  188POPC   C3221656   2.815   6.502   2.333 -0.5604  1.0961 -0.5023
  188POPC   H2X21657   2.736   6.567   2.289 -1.7013 -0.2106 -0.4302
  188POPC   H2Y21658   2.912   6.548   2.362  0.5817 -0.9037 -0.9832
  188POPC   C2321659   3.249   6.279   2.431 -0.4097  0.3072 -0.1203
  188POPC   H3R21660   3.138   6.289   2.429 -0.7184 -2.3539  0.3521
  188POPC   H3S21661   3.288   6.383   2.428 -1.5952  0.8711  1.8752
  188POPC   C2421662   3.285   6.205   2.563 -0.3348 -0.2173  0.4634
  188POPC   H4R21663   3.395   6.208   2.577 -0.1821 -3.1650  0.5747
  188POPC   H4S21664   3.256   6.098   2.550 -1.1043  0.0073  0.3014
  188POPC   C2521665   3.218   6.267   2.686  0.2211  0.4182  0.2100
  188POPC   H5R21666   3.117   6.300   2.652  0.3218  2.1088  1.4125
  188POPC   H5S21667   3.264   6.366   2.708 -1.3251  1.9676 -2.8302
  188POPC   C2621668   3.212   6.187   2.812  0.2221  0.2193  0.4830
  188POPC   H6R21669   3.316   6.157   2.837  1.1462  2.5055 -0.2763
  188POPC   H6S21670   3.151   6.097   2.789 -1.0724  1.0424  0.5992
  188POPC   C2721671   3.146   6.275   2.921 -0.7524 -0.6433  0.1618
  188POPC   H7R21672   3.037   6.280   2.903 -0.2407 -0.9836 -4.3296
  188POPC   H7S21673   3.181   6.380   2.911 -2.5913  0.0437  0.5733
  188POPC   C2821674   3.183   6.226   3.058 -0.1979  0.8765 -0.3878
  188POPC   H8R21675   3.293   6.237   3.060 -0.0704 -0.2902  0.9211
  188POPC   H8S21676   3.172   6.117   3.074 -0.0001  0.9183  0.0507
  188POPC   C2921677   3.119   6.314   3.163 -0.4798  0.3926  0.2684
  188POPC   H9121678   3.114   6.421   3.138  0.7334  0.6883  1.1886
  188POPC  C21021679   3.090   6.268   3.284 -0.1548 -0.8644 -0.7243
  188POPC  H10121680   3.021   6.332   3.341  1.2592  1.2820 -1.2913
  188POPC  C21121681   3.113   6.125   3.332  0.8248  0.5136 -0.0253
  188POPC  H11R21682   3.115   6.051   3.250  0.9132 -1.4434  1.6679
  188POPC  H11S21683   3.031   6.093   3.401  0.9296  2.2408  0.9732
  188POPC  C21221684   3.239   6.114   3.423  0.2042  0.1963 -0.7326
  188POPC  H12R21685   3.334   6.153   3.381  0.2404 -1.3117 -2.1520
  188POPC  H12S21686   3.257   6.005   3.435 -2.5697 -0.6931 -3.2182
  188POPC  C21321687   3.213   6.179   3.563 -0.1241 -0.0833  0.4230
  188POPC  H13R21688   3.122   6.130   3.602 -0.0852  0.9274  1.8675
  188POPC  H13S21689   3.171   6.281   3.559  0.8722  0.3401  0.3828
  188POPC  C21421690   3.339   6.176   3.656  0.5073 -0.4252  0.0271
  188POPC  H14R21691   3.412   6.256   3.631  0.9362  0.4299  3.4356
  188POPC  H14S21692   3.394   6.080   3.661  1.4115  0.1361  1.8752
  188POPC  C21521693   3.282   6.194   3.795 -1.0052  0.7708  0.1479
  188POPC  H15R21694   3.212   6.110   3.816  0.9118 -0.6656  1.0791
  188POPC  H15S21695   3.216   6.283   3.789 -2.4365 -0.3458 -2.5559
  188POPC  C21621696   3.398   6.201   3.895  0.6126  0.3154  0.1705
  188POPC  H16R21697   3.466   6.282   3.862 -0.3798  0.8555 -0.5938
  188POPC  H16S21698   3.454   6.105   3.891  2.5802  1.3986  0.5364
  188POPC  C21721699   3.343   6.242   4.031  0.3145 -0.1561 -0.7481
  188POPC  H17R21700   3.299   6.150   4.073  0.9172  0.2746  0.8774
  188POPC  H17S21701   3.261   6.317   4.030 -0.3159 -0.8308 -0.6088
  188POPC  C21821702   3.444   6.293   4.134  0.3061  0.2698 -0.3488
  188POPC  H18R21703   3.401   6.304   4.236 -1.7399 -1.1120 -0.9857
  188POPC  H18S21704   3.497   6.385   4.102 -1.9740  2.1802  0.9765
  188POPC  H18T21705   3.527   6.219   4.133 -0.7550 -0.9677 -1.7856
  188POPC   C3321706   2.752   6.438   2.466 -0.1551 -0.5057  0.1024
  188POPC   H3X21707   2.674   6.367   2.432  0.0354  0.0126 -1.5064
  188POPC   H3Y21708   2.714   6.510   2.541  0.6262 -2.2403  2.2865
  188POPC   C3421709   2.862   6.365   2.546  0.7164 -0.1993 -0.3717
  188POPC   H4X21710   2.962   6.414   2.542  0.9063 -0.6355 -1.2373
  188POPC   H4Y21711   2.870   6.261   2.510 -0.4302 -0.0449 -1.1473
  188POPC   C3521712   2.817   6.343   2.696  0.3037 -1.0648  1.4275
  188POPC   H5X21713   2.883   6.260   2.729 -0.8675 -1.6771  2.2949
  188POPC   H5Y21714   2.713   6.304   2.693 -0.0390 -0.2034  1.6627
  188POPC   C3621715   2.842   6.465   2.782  0.2821  0.4545 -0.0091
  188POPC   H6X21716   2.770   6.544   2.750 -0.8946 -0.5976 -0.0035
  188POPC   H6Y21717   2.944   6.499   2.753  0.6782 -2.1894 -2.1013
  188POPC   C3721718   2.799   6.432   2.927  0.1946  0.0391  0.5795
  188POPC   H7X21719   2.846   6.333   2.945 -1.6522 -0.8465  0.7526
  188POPC   H7Y21720   2.689   6.426   2.941 -0.6328  0.2009 -4.1318
  188POPC   C3821721   2.837   6.528   3.036 -0.3180  0.0685  0.1236
  188POPC   H8X21722   2.797   6.628   3.010 -0.8017 -0.3447 -0.7950
  188POPC   H8Y21723   2.947   6.546   3.038  0.4142 -3.1117 -2.4851
  188POPC   C3921724   2.772   6.498   3.175  0.4945 -0.3151  0.1267
  188POPC   H9X21725   2.782   6.388   3.187  2.0063 -0.2280 -0.0659
  188POPC   H9Y21726   2.663   6.519   3.172  0.5712  0.2746  1.2130
  188POPC  C31021727   2.835   6.569   3.297 -1.1161  0.7527 -0.4460
  188POPC  H10X21728   2.825   6.679   3.292 -2.0695  0.7771  1.2090
  188POPC  H10Y21729   2.944   6.549   3.302 -1.2387 -0.4325 -1.6921
  188POPC  C31121730   2.769   6.511   3.421 -1.2034 -0.2191 -1.5154
  188POPC  H11X21731   2.774   6.401   3.411 -2.9414 -0.5842  0.7490
  188POPC  H11Y21732   2.662   6.541   3.420 -0.9170  1.5568  2.5473
  188POPC  C31221733   2.830   6.539   3.561  0.5124 -0.1060  0.3398
  188POPC  H12X21734   2.747   6.490   3.617 -0.3784  0.3610 -0.5270
  188POPC  H12Y21735   2.820   6.648   3.576  0.9427  0.2585 -1.6957
  188POPC  C31321736   2.968   6.481   3.585  0.0964  0.3611 -1.1672
  188POPC  H13X21737   3.037   6.544   3.524  0.2357  0.9994 -0.3749
  188POPC  H13Y21738   2.972   6.373   3.560  1.9003 -0.5536  2.3200
  188POPC  C31421739   3.003   6.489   3.736 -0.3355 -0.0174  0.0499
  188POPC  H14X21740   2.996   6.598   3.756  2.2058  0.4349 -1.0589
  188POPC  H14Y21741   3.111   6.464   3.748 -0.4961 -0.1934  1.1747
  188POPC  C31521742   2.908   6.396   3.817 -1.1547  0.3277 -0.7310
  188POPC  H15X21743   2.941   6.296   3.783 -1.7285 -0.0164 -0.2934
  188POPC  H15Y21744   2.798   6.397   3.798 -1.3827 -0.5172  0.4842
  188POPC  C31621745   2.926   6.407   3.964 -0.4377 -0.2958  0.2528
  188POPC  H16X21746   3.023   6.373   4.005  1.1969  0.5180 -2.6787
  188POPC  H16Y21747   2.841   6.367   4.025 -1.9910  4.0546  1.3241
  188POPC  H16Z21748   2.925   6.514   3.995  3.3684 -0.0492  0.0077
  189SAPI   C1221749   1.065   1.723   6.896 -0.4175  0.0598 -0.1236
  189SAPI    H221750   0.995   1.728   6.810 -3.1336 -2.2921  1.7499
  189SAPI    O221751   0.976   1.726   7.009 -0.0835  0.0380 -0.0307
  189SAPI   HO221752   1.032   1.719   7.086 -0.2560 -1.4567 -0.0008
  189SAPI   C1321753   1.140   1.589   6.888 -0.3746 -0.1183 -0.6252
  189SAPI    H321754   1.218   1.583   6.809 -0.3627  0.7857 -0.6883
  189SAPI    O321755   1.056   1.474   6.859  0.5787 -0.3245 -0.4583
  189SAPI   HO321756   1.095   1.390   6.883 -2.2987 -1.1443  2.0017
  189SAPI   C1421757   1.218   1.565   7.021 -0.6005  0.9952 -0.3157
  189SAPI    H421758   1.140   1.539   7.096 -0.1786 -1.5716 -0.6578
  189SAPI    O421759   1.289   1.446   7.035 -0.6582  0.4320 -0.1330
  189SAPI   HO421760   1.325   1.434   7.124  0.3758 -0.0608 -0.5961
  189SAPI   C1521761   1.294   1.685   7.075  0.3025 -0.4435 -0.2480
  189SAPI    H521762   1.397   1.673   7.035 -0.1732 -2.1063 -1.0571
  189SAPI    O521763   1.314   1.691   7.217 -0.1239  0.6881  0.1802
  189SAPI   HO521764   1.228   1.706   7.259 -0.0959 -1.6441  1.2537
  189SAPI   C1621765   1.257   1.829   7.017  0.6213  0.1217 -0.4635
  189SAPI    H621766   1.184   1.873   7.089  0.8504 -0.1361 -0.0732
  189SAPI    O621767   1.369   1.917   7.019 -0.0409 -0.7370  0.7055
  189SAPI   HO621768   1.369   1.963   6.934  1.3833 -0.3372  0.8869
  189SAPI   C1121769   1.172   1.836   6.891  0.1801  0.5605 -0.1082
  189SAPI    H121770   1.230   1.808   6.800 -0.2759 -1.6641  0.2262
  189SAPI     P21771   1.191   2.089   6.787 -0.3314  0.2691 -0.2036
  189SAPI   O1321772   1.337   2.069   6.797 -0.1094 -0.1508  0.0330
  189SAPI   O1421773   1.139   2.220   6.835  0.7461 -0.0776 -0.4788
  189SAPI   O1221774   1.118   1.965   6.871 -0.0031 -0.6071  0.1999
  189SAPI   O1121775   1.140   2.063   6.641  0.3756  0.0869  0.4045
  189SAPI    C121776   1.214   2.127   6.536  0.1118 -0.5991 -0.4498
  189SAPI    HA21777   1.183   2.233   6.526 -2.5648 -1.3683 -1.1631
  189SAPI    HB21778   1.324   2.120   6.545  0.2483  1.5033 -0.0028
  189SAPI    C221779   1.190   2.046   6.409 -0.7617 -0.7787 -0.6499
  189SAPI    HS21780   1.089   2.002   6.421  0.0834 -2.4198  1.0689
  189SAPI   O2121781   1.283   1.943   6.389  0.2750  0.1837  0.1834
  189SAPI   C2121782   1.253   1.830   6.445  1.2411 -0.5830 -0.0012
  189SAPI   O2221783   1.162   1.807   6.525 -0.1505  0.1363  0.0217
  189SAPI   C2221784   1.335   1.714   6.379  0.1960 -0.2508  0.2811
  189SAPI   H2R21785   1.426   1.711   6.443  1.9184 -1.0729 -2.0482
  189SAPI   H2S21786   1.286   1.617   6.401 -2.6674  0.4002 -2.5738
  189SAPI    C321787   1.204   2.130   6.277  0.0360 -0.8423  0.1406
  189SAPI    HX21788   1.299   2.189   6.276 -1.8186  2.3970 -0.8728
  189SAPI    HY21789   1.123   2.206   6.272  0.2216 -0.5835  0.8495
  189SAPI   O3121790   1.203   2.044   6.163  0.3727 -0.2929  0.1360
  189SAPI   C3121791   1.103   1.966   6.133 -0.1771  0.2942 -0.4224
  189SAPI   O3221792   0.997   1.968   6.197 -0.2515 -0.4110 -0.1252
  189SAPI   C3221793   1.132   1.882   5.997  1.6851 -0.2665  0.2014
  189SAPI   H2X21794   1.237   1.846   5.988  1.5273 -0.4869 -1.0889
  189SAPI   H2Y21795   1.127   1.954   5.912  3.7999 -0.6494 -0.2849
  189SAPI   C2321796   1.383   1.723   6.228  0.2782  0.8219  0.1798
  189SAPI   H3R21797   1.410   1.826   6.196 -0.3680  1.2744  1.0322
  189SAPI   H3S21798   1.296   1.700   6.162 -0.4755 -0.7509  1.6515
  189SAPI   C2421799   1.502   1.628   6.199  0.3417  0.2381  0.2455
  189SAPI   H4R21800   1.581   1.648   6.275 -0.4512 -0.2555  1.2126
  189SAPI   H4S21801   1.544   1.658   6.100 -0.4948  1.4320  0.2377
  189SAPI   C2521802   1.454   1.480   6.200  0.5602  0.5651 -0.3593
  189SAPI   H5R21803   1.446   1.438   6.301  1.3299 -1.1546 -0.9616
  189SAPI   C2621804   1.418   1.403   6.095  0.3159  0.2890  0.2473
  189SAPI   H6R21805   1.378   1.302   6.111 -1.0777  0.5978 -1.0768
  189SAPI   C2721806   1.428   1.444   5.950 -0.2863 -0.1095  0.1511
  189SAPI   H7R21807   1.528   1.438   5.901 -1.4749  2.0452 -2.8192
  189SAPI   H7S21808   1.384   1.545   5.934 -0.3817 -0.4064 -1.5524
  189SAPI   C2821809   1.342   1.351   5.869 -0.4292 -0.3784  0.5107
  189SAPI   H8R21810   1.235   1.376   5.869 -0.3213  0.2247  2.2704
  189SAPI   C2921811   1.381   1.239   5.803 -0.4199 -0.3548  0.3956
  189SAPI   H9R21812   1.308   1.180   5.745  0.4402 -1.5966  0.5504
  189SAPI  C21021813   1.524   1.182   5.805 -0.1355  0.2192 -0.0645
  189SAPI  H10R21814   1.531   1.116   5.894  0.6727  1.7883  1.0808
  189SAPI  H10S21815   1.598   1.265   5.811 -1.6810  1.5454  1.6579
  189SAPI  C21121816   1.559   1.110   5.681 -0.2338  0.1342  0.4728
  189SAPI  H11R21817   1.513   1.145   5.588  1.2535 -0.1451 -0.4010
  189SAPI  C21221818   1.626   0.994   5.674  0.0561  0.7634 -0.0023
  189SAPI  H12R21819   1.640   0.957   5.571 -0.4140  1.4633 -0.3194
  189SAPI  C21321820   1.707   0.914   5.778 -0.1034 -0.9842 -0.1998
  189SAPI  H13R21821   1.660   0.814   5.788 -0.9130 -0.5684  0.2805
  189SAPI  H13S21822   1.710   0.965   5.877  0.3415 -2.0161  0.3370
  189SAPI  C21421823   1.852   0.903   5.747  0.2474 -0.3380  0.5193
  189SAPI  H14R21824   1.909   0.994   5.769  1.1557 -0.5125 -0.9760
  189SAPI  C21521825   1.907   0.803   5.672 -0.4079  0.0839 -0.0318
  189SAPI  H15R21826   2.015   0.802   5.649  0.1218 -0.7640  2.2648
  189SAPI  C21621827   1.840   0.680   5.614 -0.1628 -0.2528  0.2647
  189SAPI  H16R21828   1.737   0.672   5.654 -0.1448  0.7528  0.5351
  189SAPI  H16S21829   1.888   0.582   5.634  0.2587 -0.5560 -2.0054
  189SAPI  C21721830   1.819   0.688   5.459 -0.2638  0.7554  0.1055
  189SAPI  H17R21831   1.772   0.787   5.440  0.3437  0.8830 -0.8174
  189SAPI  H17S21832   1.734   0.621   5.434 -0.1841 -0.5952  3.1016
  189SAPI  C21821833   1.948   0.656   5.377 -0.2272 -0.1449 -0.2291
  189SAPI  H18R21834   1.979   0.557   5.417  1.1661 -0.5600 -2.2209
  189SAPI  H18S21835   2.039   0.715   5.402 -0.0764 -0.6941  0.5578
  189SAPI  C21921836   1.918   0.637   5.226 -0.6142 -0.2978  0.1166
  189SAPI  H19R21837   2.010   0.661   5.168  0.1960 -0.1734  1.3966
  189SAPI  H19S21838   1.838   0.704   5.189 -0.4771 -1.1804 -1.9245
  189SAPI  C22021839   1.894   0.491   5.191  0.0558  0.0901  0.2162
  189SAPI  H20R21840   1.817   0.455   5.263  1.1057 -0.8840  0.8882
  189SAPI  H20S21841   1.977   0.422   5.216  1.2699  1.3714 -0.1529
  189SAPI  H20T21842   1.834   0.466   5.101 -1.8450 -0.2454  1.5302
  189SAPI   C3321843   1.045   1.753   5.968 -0.0738 -0.3710  0.2677
  189SAPI   H3X21844   0.940   1.788   5.954 -0.8463 -1.9968  1.6316
  189SAPI   H3Y21845   1.045   1.682   6.053  0.1195 -0.7564 -0.0537
  189SAPI   C3421846   1.098   1.681   5.841  0.7303  1.0811 -0.4664
  189SAPI   H4X21847   1.032   1.595   5.816  1.2871  0.2446  0.8535
  189SAPI   H4Y21848   1.197   1.634   5.856  0.1557 -0.7156 -1.9054
  189SAPI   C3521849   1.092   1.774   5.719  0.2089  0.3667  0.1067
  189SAPI   H5X21850   1.165   1.857   5.732  0.6724  0.0236 -0.2800
  189SAPI   H5Y21851   0.989   1.814   5.728  0.3802  0.6406  0.9301
  189SAPI   C3621852   1.119   1.690   5.591 -0.1614 -0.3998  0.2291
  189SAPI   H6X21853   1.060   1.595   5.589 -0.6303 -0.1094 -0.1958
  189SAPI   H6Y21854   1.226   1.663   5.583 -0.1791 -0.4709  0.2314
  189SAPI   C3721855   1.085   1.767   5.461 -0.3122  0.1967  0.3914
  189SAPI   H7X21856   1.142   1.863   5.460  1.9671 -1.0986 -0.3199
  189SAPI   H7Y21857   0.976   1.789   5.456 -0.2310  0.6244  0.4803
  189SAPI   C3821858   1.118   1.692   5.333  1.1402  0.2800 -1.2838
  189SAPI   H8X21859   1.062   1.597   5.343  1.8058  0.1381  1.9483
  189SAPI   H8Y21860   1.224   1.657   5.332  1.0032 -0.1754 -0.5257
  189SAPI   C3921861   1.069   1.760   5.209 -0.7002  0.3207  0.1982
  189SAPI   H9X21862   1.141   1.834   5.166 -1.6494  0.4685 -1.2276
  189SAPI   H9Y21863   0.974   1.807   5.243 -0.5689  1.1410 -0.5236
  189SAPI  C31021864   1.037   1.647   5.107 -0.0977 -0.2824 -0.3223
  189SAPI  H10X21865   0.969   1.700   5.036 -0.6124  0.7386  0.9096
  189SAPI  H10Y21866   0.990   1.553   5.144 -0.3850  0.0081  0.0651
  189SAPI  C31121867   1.152   1.604   5.013  0.4595 -0.3192 -0.4150
  189SAPI  H11X21868   1.223   1.540   5.069 -1.5524 -2.8685 -0.6351
  189SAPI  H11Y21869   1.202   1.695   4.972 -1.3478  1.0327  0.2789
  189SAPI  C31221870   1.110   1.519   4.893  0.1911  0.5459  0.0048
  189SAPI  H12X21871   1.040   1.570   4.824 -1.0531 -1.6849 -0.4890
  189SAPI  H12Y21872   1.057   1.424   4.917 -1.3061  1.7195  1.5859
  189SAPI  C31321873   1.227   1.472   4.800  0.2261  0.4359  0.0939
  189SAPI  H13X21874   1.303   1.411   4.853  1.9519 -1.1744 -3.8186
  189SAPI  H13Y21875   1.266   1.565   4.754 -0.6658  0.3118 -0.9506
  189SAPI  C31421876   1.160   1.383   4.691  0.9065 -0.5027 -0.4820
  189SAPI  H14X21877   1.074   1.424   4.636  1.2257 -0.3687 -0.8840
  189SAPI  H14Y21878   1.130   1.284   4.733  0.2594  0.0652  0.4191
  189SAPI  C31521879   1.271   1.357   4.582  0.7004 -1.0918  0.7032
  189SAPI  H15X21880   1.354   1.302   4.633  0.2986 -3.3096 -0.8697
  189SAPI  H15Y21881   1.304   1.453   4.538  0.6214 -1.0728  0.6871
  189SAPI  C31621882   1.214   1.269   4.470  0.2407  0.5463  0.6846
  189SAPI  H16X21883   1.166   1.329   4.390 -2.0958 -0.0124  1.5963
  189SAPI  H16Y21884   1.132   1.196   4.489  1.1630 -1.0598 -1.1409
  189SAPI  C31721885   1.326   1.174   4.409  0.2384 -0.3244  0.6618
  189SAPI  H17X21886   1.372   1.112   4.490  0.2441 -2.1213 -0.6616
  189SAPI  H17Y21887   1.405   1.240   4.368  3.0200 -4.8068 -2.0672
  189SAPI  C31821888   1.279   1.081   4.297 -0.0758  0.1372  0.5225
  189SAPI  H18X21889   1.360   1.040   4.232 -0.2021 -0.7845  0.9273
  189SAPI  H18Y21890   1.227   1.134   4.214  0.7557  0.6171  0.2951
  189SAPI  H18Z21891   1.222   0.994   4.335 -0.9024 -0.4484 -1.8489
  190SAPI   C1221892   1.762   1.104   6.864  0.2035 -0.3013  0.1431
  190SAPI    H221893   1.794   1.021   6.798  1.7175  0.8126 -0.5838
  190SAPI    O221894   1.748   1.061   7.002  0.0554  0.8195  0.1198
  190SAPI   HO221895   1.711   0.972   6.997  0.6016  0.6310 -0.8502
  190SAPI   C1321896   1.867   1.210   6.847  0.1952 -0.0247 -0.5579
  190SAPI    H321897   1.874   1.233   6.738 -0.4550  0.7192 -0.4517
  190SAPI    O321898   1.996   1.163   6.884  0.5256  0.2931 -0.4953
  190SAPI   HO321899   1.986   1.126   6.972 -0.1091  1.0635 -0.2285
  190SAPI   C1421900   1.837   1.337   6.914  0.7368  0.3059  0.0138
  190SAPI    H421901   1.823   1.315   7.022 -0.5483  1.2891  0.0755
  190SAPI    O421902   1.938   1.437   6.909 -0.5608  0.2794  0.1707
  190SAPI   HO421903   1.956   1.471   6.821  0.0032  1.2168  0.6217
  190SAPI   C1521904   1.691   1.384   6.903  0.0180 -0.1677  0.2519
  190SAPI    H521905   1.690   1.438   6.806 -1.0122  0.7395  0.7374
  190SAPI    O521906   1.655   1.485   6.997 -0.0273 -0.1787 -0.5261
  190SAPI   HO521907   1.619   1.560   6.949  0.1332  0.7956  0.8013
  190SAPI   C1621908   1.584   1.279   6.896 -0.0053  0.0825  0.2777
  190SAPI    H621909   1.566   1.250   7.002  2.6874  0.0895  0.8087
  190SAPI    O621910   1.464   1.334   6.851 -0.4317  0.2650  0.2489
  190SAPI   HO621911   1.391   1.338   6.914 -0.1975  0.7433  0.4950
  190SAPI   C1121912   1.630   1.160   6.820 -0.0461  0.3877 -0.4731
  190SAPI    H121913   1.644   1.201   6.718 -0.0081  0.5612 -0.3999
  190SAPI     P21914   1.508   0.943   6.725  0.6799 -0.0702 -0.0361
  190SAPI   O1321915   1.368   0.890   6.728 -0.3877 -0.1519  0.6839
  190SAPI   O1421916   1.611   0.842   6.744  0.2113 -0.5725  0.4297
  190SAPI   O1221917   1.525   1.063   6.833  0.6837 -0.7572 -0.1479
  190SAPI   O1121918   1.534   1.021   6.591 -1.0340 -0.6261  0.5002
  190SAPI    C121919   1.428   1.088   6.525  0.6048  0.0099 -0.6393
  190SAPI    HA21920   1.329   1.054   6.560 -0.7114  2.1290 -2.0620
  190SAPI    HB21921   1.431   1.198   6.539  1.4361 -0.0093 -0.6162
  190SAPI    C221922   1.444   1.046   6.378  0.5949  0.2781 -0.1920
  190SAPI    HS21923   1.478   0.941   6.381 -2.7146 -0.8976  2.0121
  190SAPI   O2121924   1.540   1.133   6.318 -0.2398  0.0360  0.2202
  190SAPI   C2121925   1.619   1.103   6.218 -0.0897 -0.2944 -0.8613
  190SAPI   O2221926   1.638   0.988   6.176 -0.1830  0.4872 -0.3527
  190SAPI   C2221927   1.688   1.231   6.180 -0.0295  0.0609  0.1142
  190SAPI   H2R21928   1.631   1.282   6.099  0.4684 -1.8820 -1.5539
  190SAPI   H2S21929   1.695   1.305   6.262  0.5221  0.0764  0.0553
  190SAPI    C321930   1.306   1.062   6.301 -0.0457 -0.0978  0.2853
  190SAPI    HX21931   1.266   1.163   6.324 -0.6956  0.0949 -1.5332
  190SAPI    HY21932   1.237   0.994   6.354  0.3950  0.1338  1.1758
  190SAPI   O3121933   1.310   1.051   6.158 -0.1399  0.0217 -0.0360
  190SAPI   C3121934   1.300   0.928   6.120 -0.5334 -0.0340  0.1166
  190SAPI   O3221935   1.307   0.834   6.200  1.3883 -0.4384  0.0594
  190SAPI   C3221936   1.276   0.919   5.965 -0.3711  0.1091 -0.5127
  190SAPI   H2X21937   1.374   0.949   5.923  2.0252 -2.4211  2.7638
  190SAPI   H2Y21938   1.196   0.993   5.942  0.0666 -0.1263 -3.0361
  190SAPI   C2321939   1.832   1.204   6.124 -0.1400 -0.3532 -1.1038
  190SAPI   H3R21940   1.828   1.100   6.083 -0.3243 -0.5834 -0.5211
  190SAPI   H3S21941   1.900   1.197   6.212 -0.4003  3.5855 -0.4380
  190SAPI   C2421942   1.888   1.316   6.034  0.5086  0.3145 -0.0584
  190SAPI   H4R21943   1.815   1.339   5.953  0.8530 -0.4128 -0.5880
  190SAPI   H4S21944   1.983   1.268   6.002 -1.0245 -1.9716 -1.5080
  190SAPI   C2521945   1.918   1.435   6.114 -0.2206 -0.0362 -0.0844
  190SAPI   H5R21946   1.969   1.411   6.209  0.0591  0.7429 -0.0309
  190SAPI   C2621947   1.891   1.565   6.096  0.6421  0.2361 -0.8320
  190SAPI   H6R21948   1.913   1.647   6.165 -0.3749  1.1355 -1.5272
  190SAPI   C2721949   1.804   1.619   5.987 -0.0408  0.2665  0.1718
  190SAPI   H7R21950   1.737   1.701   6.021 -0.5300 -0.2716  0.5313
  190SAPI   H7S21951   1.735   1.539   5.952  0.4429  0.9597 -2.6120
  190SAPI   C2821952   1.874   1.663   5.861 -0.4187  0.3175  0.0293
  190SAPI   H8R21953   1.963   1.727   5.867  1.1068 -1.3647 -2.4741
  190SAPI   C2921954   1.832   1.642   5.740  0.8924  0.8931 -0.2419
  190SAPI   H9R21955   1.883   1.676   5.649 -3.0961 -1.0522 -3.5499
  190SAPI  C21021956   1.714   1.547   5.704 -0.0301  0.3705  0.1978
  190SAPI  H10R21957   1.615   1.594   5.722 -0.3721 -0.3773  0.3194
  190SAPI  H10S21958   1.714   1.459   5.771 -2.0103  0.7085  0.6908
  190SAPI  C21121959   1.730   1.495   5.567 -0.8276  0.1413  1.0260
  190SAPI  H11R21960   1.827   1.444   5.558  0.9423  3.0623  1.9598
  190SAPI  C21221961   1.652   1.517   5.467 -0.2762 -0.0384  0.1856
  190SAPI  H12R21962   1.678   1.472   5.370 -0.7024 -1.0693  0.5294
  190SAPI  C21321963   1.518   1.590   5.470  0.0052  0.2931  0.6222
  190SAPI  H13R21964   1.468   1.563   5.565  0.6112 -1.1562  0.5612
  190SAPI  H13S21965   1.454   1.541   5.394  0.5837 -2.4557  1.7981
  190SAPI  C21421966   1.531   1.738   5.446 -0.8341 -0.1454  0.2243
  190SAPI  H14R21967   1.554   1.794   5.538  0.9230 -0.4116 -0.0196
  190SAPI  C21521968   1.517   1.795   5.327  0.5028 -0.0862 -0.1036
  190SAPI  H15R21969   1.530   1.903   5.309  3.2498 -0.5491 -1.3541
  190SAPI  C21621970   1.477   1.726   5.194 -0.0766 -0.0318 -0.0447
  190SAPI  H16R21971   1.410   1.795   5.139 -0.0581 -0.0965 -0.1497
  190SAPI  H16S21972   1.416   1.633   5.203  0.5024 -0.3479  0.6973
  190SAPI  C21721973   1.594   1.727   5.097  0.0898  0.2008  0.2258
  190SAPI  H17R21974   1.684   1.676   5.137  0.2337  0.9091  0.8240
  190SAPI  H17S21975   1.633   1.829   5.074  0.5068 -0.2212 -1.0790
  190SAPI  C21821976   1.552   1.665   4.957 -0.3929 -0.7880 -0.7454
  190SAPI  H18R21977   1.496   1.741   4.899 -0.9564 -1.4350 -1.0700
  190SAPI  H18S21978   1.480   1.585   4.986 -0.2861 -0.6239  0.0045
  190SAPI  C21921979   1.667   1.618   4.871  0.2248 -0.5082 -0.1991
  190SAPI  H19R21980   1.718   1.535   4.924 -0.3131 -1.3837 -1.0199
  190SAPI  H19S21981   1.739   1.699   4.846 -0.2807 -0.9446 -3.4710
  190SAPI  C22021982   1.623   1.560   4.737 -0.4600  0.2870  0.4352
  190SAPI  H20R21983   1.572   1.462   4.744  1.0112 -0.5035  0.6563
  190SAPI  H20S21984   1.706   1.556   4.663 -0.8720  2.0252 -0.1908
  190SAPI  H20T21985   1.548   1.624   4.686 -1.4189 -1.8787 -0.9754
  190SAPI   C3321986   1.243   0.773   5.930  0.5833  0.4434 -0.1291
  190SAPI   H3X21987   1.150   0.749   5.985  0.5306 -0.1368 -0.4630
  190SAPI   H3Y21988   1.322   0.702   5.961  1.5557  1.6177  0.1783
  190SAPI   C3421989   1.210   0.747   5.786  0.2290 -0.1792  1.0382
  190SAPI   H4X21990   1.131   0.816   5.749 -0.6294 -1.9161 -0.5300
  190SAPI   H4Y21991   1.160   0.649   5.770 -2.1539  1.1242 -0.1604
  190SAPI   C3521992   1.331   0.774   5.693  0.0964 -0.1554  0.6236
  190SAPI   H5X21993   1.422   0.715   5.718  0.3239  0.0622  0.3263
  190SAPI   H5Y21994   1.365   0.878   5.716  1.2251 -0.8104  2.1380
  190SAPI   C3621995   1.303   0.761   5.541  0.1148  0.0247  0.1820
  190SAPI   H6X21996   1.258   0.859   5.513 -0.6206 -0.7681 -1.5190
  190SAPI   H6Y21997   1.228   0.681   5.525  1.9396 -1.5634 -0.8551
  190SAPI   C3721998   1.434   0.752   5.453 -0.3877  0.3142  0.4974
  190SAPI   H7X21999   1.499   0.686   5.515  1.1405  0.2401 -1.1061
  190SAPI   H7Y22000   1.494   0.843   5.434  1.2225 -0.9587 -0.8670
  190SAPI   C3822001   1.413   0.683   5.314  0.2193  0.3213  0.1765
  190SAPI   H8X22002   1.320   0.729   5.276  0.6140  1.1176  0.1464
  190SAPI   H8Y22003   1.401   0.574   5.327 -0.9475  0.3730 -0.3907
  190SAPI   C3922004   1.528   0.699   5.213 -0.1913  0.3657 -1.0286
  190SAPI   H9X22005   1.624   0.650   5.241 -0.2563  0.5520 -0.4662
  190SAPI   H9Y22006   1.549   0.808   5.202  1.8082 -0.0154 -1.2730
  190SAPI  C31022007   1.490   0.641   5.073 -0.5678 -0.8454  1.0911
  190SAPI  H10X22008   1.473   0.531   5.081 -1.1913 -0.9178 -0.8637
  190SAPI  H10Y22009   1.582   0.644   5.012 -1.2198 -1.1452  0.0650
  190SAPI  C31122010   1.380   0.715   5.008  0.3076 -0.6041 -0.2547
  190SAPI  H11X22011   1.378   0.825   5.024  0.4930 -0.6157 -0.1534
  190SAPI  H11Y22012   1.282   0.694   5.056  0.4203  2.2956  1.5209
  190SAPI  C31222013   1.369   0.690   4.855 -0.4060 -0.0305 -0.0991
  190SAPI  H12X22014   1.274   0.731   4.815 -0.6287  3.0235  3.0258
  190SAPI  H12Y22015   1.389   0.582   4.841  1.5277  0.1023  1.1774
  190SAPI  C31322016   1.466   0.764   4.767 -0.4835  0.5342 -0.0386
  190SAPI  H13X22017   1.570   0.741   4.797 -0.0629  1.2395 -0.9191
  190SAPI  H13Y22018   1.445   0.873   4.769  0.8456  0.8045  0.2139
  190SAPI  C31422019   1.450   0.719   4.620  0.9180 -0.4753  0.3427
  190SAPI  H14X22020   1.350   0.752   4.584  1.4101  0.2013 -0.4598
  190SAPI  H14Y22021   1.455   0.608   4.615  2.1055 -0.4622  0.8986
  190SAPI  C31522022   1.540   0.773   4.513  0.2904  0.4802 -0.7417
  190SAPI  H15X22023   1.639   0.730   4.539  0.4329 -0.3433 -2.5283
  190SAPI  H15Y22024   1.547   0.884   4.510 -2.1042  0.8268  1.7482
  190SAPI  C31622025   1.507   0.708   4.379  0.3055 -0.5332 -0.6366
  190SAPI  H16X22026   1.411   0.736   4.330  0.1749  0.7270  0.2918
  190SAPI  H16Y22027   1.510   0.597   4.384  0.2973 -0.5404 -0.7663
  190SAPI  C31722028   1.614   0.752   4.282 -0.5088  0.2984 -0.2012
  190SAPI  H17X22029   1.605   0.684   4.194 -1.5582 -1.6121  1.3097
  190SAPI  H17Y22030   1.708   0.738   4.339 -1.8370 -3.7008  1.4001
  190SAPI  C31822031   1.602   0.892   4.230 -0.7124 -0.2242 -0.0071
  190SAPI  H18X22032   1.688   0.923   4.168 -0.1339  2.0733  1.8257
  190SAPI  H18Y22033   1.590   0.973   4.305  1.5123  1.1149 -0.9851
  190SAPI  H18Z22034   1.508   0.891   4.172 -0.1244  2.7697 -1.1516
  191SAPI   C1222035   1.055   6.403   2.393 -0.1103  0.2944 -0.4954
  191SAPI    H222036   0.987   6.486   2.423 -0.6567 -0.1799 -0.4268
  191SAPI    O222037   1.180   6.467   2.367  1.1889 -0.2970  0.3959
  191SAPI   HO222038   1.201   6.520   2.444  0.3285  1.8540 -0.7554
  191SAPI   C1322039   1.065   6.290   2.487 -0.5149  0.3061  1.1473
  191SAPI    H322040   0.969   6.234   2.489 -0.3584  0.0198  0.5517
  191SAPI    O322041   1.093   6.339   2.615 -0.5337 -0.5145  0.0012
  191SAPI   HO322042   1.064   6.278   2.684 -0.7486 -0.7112 -0.2649
  191SAPI   C1422043   1.171   6.186   2.433 -0.3949  0.6052  0.1258
  191SAPI    H422044   1.272   6.233   2.443 -0.2712  0.0437  1.7935
  191SAPI    O422045   1.170   6.062   2.508  0.9355  0.2704 -0.1932
  191SAPI   HO422046   1.259   6.041   2.534 -0.0197  0.7255  4.1766
  191SAPI   C1522047   1.161   6.142   2.287  0.1121 -0.2756  0.5103
  191SAPI    H522048   1.080   6.068   2.272  0.9131 -0.8294 -1.3530
  191SAPI    O522049   1.281   6.091   2.229 -0.2166 -0.3644 -0.4224
  191SAPI   HO522050   1.264   6.005   2.190  1.3796 -1.6816  1.6052
  191SAPI   C1622051   1.099   6.256   2.194 -0.2004 -0.1206  0.2653
  191SAPI    H622052   1.180   6.325   2.162  1.4180 -0.9027  2.3933
  191SAPI    O622053   1.048   6.201   2.076 -0.3660  0.7892 -0.5429
  191SAPI   HO622054   1.002   6.268   2.027 -0.9708  0.5399 -0.3283
  191SAPI   C1122055   1.000   6.346   2.267  0.4274  0.1088 -0.2064
  191SAPI    H122056   0.913   6.282   2.290  0.5102 -0.1895 -0.7041
  191SAPI     P22057   0.815   6.514   2.156  0.1282 -0.4996 -0.4674
  191SAPI   O1322058   0.704   6.418   2.184  0.0027  0.7772 -0.0027
  191SAPI   O1422059   0.804   6.582   2.025 -0.1981  0.2092  0.1511
  191SAPI   O1222060   0.970   6.454   2.170  0.2542 -0.3310  0.0219
  191SAPI   O1122061   0.815   6.633   2.256  0.0661 -0.0900 -0.6089
  191SAPI    C122062   0.932   6.717   2.265  0.3985  0.7184 -0.3064
  191SAPI    HA22063   1.023   6.658   2.241 -0.6599 -0.0802 -2.5484
  191SAPI    HB22064   0.921   6.790   2.182 -0.5924 -0.1986 -1.0094
  191SAPI    C222065   0.934   6.789   2.405  0.3305  0.6435  0.3107
  191SAPI    HS22066   1.025   6.853   2.405  0.5123  0.3872 -0.3171
  191SAPI   O2122067   0.934   6.693   2.507  0.5915  0.7828 -0.1808
  191SAPI   C2122068   0.987   6.731   2.624 -0.6659 -1.0120 -0.0566
  191SAPI   O2222069   1.071   6.819   2.628  0.0490  0.0140 -0.2385
  191SAPI   C2222070   0.947   6.646   2.740  0.1713 -0.0081  0.6982
  191SAPI   H2R22071   0.842   6.611   2.731  0.6475 -1.2168 -0.6275
  191SAPI   H2S22072   1.023   6.564   2.734  0.3565  0.2464 -0.9426
  191SAPI    C322073   0.812   6.886   2.420 -0.1904  0.2483  0.0322
  191SAPI    HX22074   0.717   6.831   2.406 -1.0838  2.1451 -1.9002
  191SAPI    HY22075   0.815   6.951   2.330 -1.7651 -1.5273 -1.3731
  191SAPI   O3122076   0.820   6.953   2.549 -0.0656 -0.0265 -0.0901
  191SAPI   C3122077   0.770   7.073   2.546  0.4819  0.1997 -0.4108
  191SAPI   O3222078   0.722   7.128   2.451 -0.2780 -1.0661  0.1017
  191SAPI   C3222079   0.773   7.121   2.689 -0.3231 -0.4226 -0.7453
  191SAPI   H2X22080   0.880   7.104   2.714 -0.2570  0.2660 -0.5507
  191SAPI   H2Y22081   0.695   7.065   2.745  1.6300 -1.2466  1.3138
  191SAPI   C2322082   0.975   6.735   2.867 -0.0002 -0.4363  0.3975
  191SAPI   H3R22083   0.908   6.824   2.858 -0.7980 -1.1356 -0.9246
  191SAPI   H3S22084   1.074   6.782   2.883  0.2600 -0.6898 -0.4021
  191SAPI   C2422085   0.936   6.665   2.996  0.2096 -0.1593 -0.2814
  191SAPI   H4R22086   0.840   6.609   2.987  0.7108 -0.8247 -1.7995
  191SAPI   H4S22087   0.930   6.738   3.080 -1.7474 -0.9338  0.3253
  191SAPI   C2522088   1.043   6.562   3.011 -0.3139 -0.1083 -0.0043
  191SAPI   H5R22089   1.073   6.515   2.917 -0.6276 -3.0178  1.2482
  191SAPI   C2622090   1.093   6.524   3.136  0.4936 -0.3024  0.7919
  191SAPI   H6R22091   1.171   6.447   3.140  1.7668  0.9681  1.3980
  191SAPI   C2722092   1.056   6.569   3.272  0.6784  0.5013  0.5658
  191SAPI   H7R22093   0.951   6.605   3.261  0.6592  0.7959  1.5551
  191SAPI   H7S22094   1.106   6.666   3.292  0.7960  0.9832 -1.8140
  191SAPI   C2822095   1.050   6.456   3.374 -0.6336  0.4775 -0.4608
  191SAPI   H8R22096   0.996   6.365   3.343  0.2671 -0.3597  0.3706
  191SAPI   C2922097   1.140   6.433   3.469 -0.1264  0.5171  0.6016
  191SAPI   H9R22098   1.124   6.355   3.545 -2.3622  3.0029  2.9047
  191SAPI  C21022099   1.253   6.523   3.502  0.2358 -0.4154  0.2439
  191SAPI  H10R22100   1.281   6.595   3.422 -1.1852  0.1289  0.1998
  191SAPI  H10S22101   1.350   6.470   3.510  0.5657  0.2716  0.9077
  191SAPI  C21122102   1.231   6.605   3.621 -0.1659 -0.1161 -0.6099
  191SAPI  H11R22103   1.165   6.691   3.609  0.8968  0.6319 -1.2613
  191SAPI  C21222104   1.278   6.568   3.740 -0.5405 -0.1983 -0.3150
  191SAPI  H12R22105   1.245   6.624   3.829  1.0280  0.1387  0.0923
  191SAPI  C21322106   1.364   6.438   3.776 -0.6607 -0.3423 -0.7214
  191SAPI  H13R22107   1.341   6.357   3.704  0.9370 -1.9996  0.5426
  191SAPI  H13S22108   1.325   6.390   3.869  0.1463 -1.4987 -0.9610
  191SAPI  C21422109   1.512   6.467   3.801  0.0345  0.1935 -0.6332
  191SAPI  H14R22110   1.568   6.491   3.709  0.5973  0.4690 -0.2272
  191SAPI  C21522111   1.574   6.474   3.922 -0.7647  0.0307 -0.0061
  191SAPI  H15R22112   1.682   6.485   3.938 -1.1516  4.1165  1.1550
  191SAPI  C21622113   1.510   6.456   4.058  0.3099 -0.3674 -0.0840
  191SAPI  H16R22114   1.406   6.417   4.050 -0.3100  1.1925 -0.1652
  191SAPI  H16S22115   1.502   6.549   4.120 -1.3835  0.0606 -0.8842
  191SAPI  C21722116   1.590   6.344   4.130  0.3025 -0.2245  0.2898
  191SAPI  H17R22117   1.688   6.392   4.148  0.9635 -1.1234 -0.7940
  191SAPI  H17S22118   1.613   6.256   4.066  0.1742 -1.5670  2.0246
  191SAPI  C21822119   1.526   6.304   4.265 -0.6450  0.2007 -0.6517
  191SAPI  H18R22120   1.419   6.279   4.252 -1.0542  1.7468 -0.4170
  191SAPI  H18S22121   1.526   6.398   4.324  0.4416  0.2352 -0.6806
  191SAPI  C21922122   1.591   6.184   4.339 -0.2573 -0.2347 -0.5670
  191SAPI  H19R22123   1.559   6.181   4.445  1.2208 -0.7689 -0.1000
  191SAPI  H19S22124   1.702   6.190   4.338 -0.3463  2.7706  0.0024
  191SAPI  C22022125   1.549   6.052   4.275  0.1332  0.6507  0.5564
  191SAPI  H20R22126   1.619   6.017   4.196 -1.8240 -2.6137  0.1085
  191SAPI  H20S22127   1.448   6.053   4.228 -0.3420 -1.0533  1.4874
  191SAPI  H20T22128   1.551   5.971   4.351  0.3986  1.0756  1.0039
  191SAPI   C3322129   0.739   7.272   2.693 -0.1834  0.8057 -1.2319
  191SAPI   H3X22130   0.654   7.291   2.624  1.0003 -0.3488 -3.1077
  191SAPI   H3Y22131   0.824   7.329   2.651 -0.1721  0.9890 -0.9641
  191SAPI   C3422132   0.719   7.328   2.838 -0.6895 -0.4048  0.3780
  191SAPI   H4X22133   0.633   7.282   2.891 -0.6101 -0.3178  0.5846
  191SAPI   H4Y22134   0.714   7.439   2.825 -2.9671 -0.4526  0.3307
  191SAPI   C3522135   0.829   7.302   2.933 -0.1014  0.0209  0.1227
  191SAPI   H5X22136   0.922   7.357   2.905 -2.2684  3.5281 -0.8314
  191SAPI   H5Y22137   0.851   7.193   2.938  1.4527  0.2169 -1.5588
  191SAPI   C3622138   0.793   7.349   3.075  0.1567  0.3508 -0.1409
  191SAPI   H6X22139   0.693   7.311   3.105  0.7965 -1.7513 -0.5078
  191SAPI   H6Y22140   0.797   7.460   3.078  1.3325  0.3028  2.0766
  191SAPI   C3722141   0.891   7.303   3.185  0.6872 -0.1110  0.4077
  191SAPI   H7X22142   0.995   7.332   3.157  1.1385 -2.2994 -0.3628
  191SAPI   H7Y22143   0.891   7.192   3.186  0.4903 -0.1502  2.9163
  191SAPI   C3822144   0.851   7.365   3.317  0.5544  0.1946  0.2879
  191SAPI   H8X22145   0.742   7.377   3.332  0.4487  0.6646 -0.8180
  191SAPI   H8Y22146   0.886   7.470   3.325 -1.3507  0.9650 -0.8666
  191SAPI   C3922147   0.910   7.296   3.445  0.6147 -0.7587  0.5323
  191SAPI   H9X22148   1.020   7.291   3.430  0.4885 -2.3108 -0.0490
  191SAPI   H9Y22149   0.875   7.192   3.463  0.4471 -1.4297 -2.8863
  191SAPI  C31022150   0.878   7.384   3.561 -0.0475  0.1385  0.2573
  191SAPI  H10X22151   0.771   7.379   3.590  0.0379 -0.2283  0.5285
  191SAPI  H10Y22152   0.917   7.486   3.544  2.0979 -0.7669 -0.6551
  191SAPI  C31122153   0.955   7.317   3.684  0.2658  0.2541 -0.1390
  191SAPI  H11X22154   0.943   7.372   3.780  0.5491 -1.5261  0.9597
  191SAPI  H11Y22155   1.064   7.321   3.666  0.7072 -0.6362  2.0098
  191SAPI  C31222156   0.905   7.176   3.713 -0.4111  0.6354 -0.4169
  191SAPI  H12X22157   0.965   7.101   3.657 -0.4999 -1.7362  2.4227
  191SAPI  H12Y22158   0.797   7.165   3.686 -0.6539 -3.4214  1.3939
  191SAPI  C31322159   0.929   7.124   3.859  0.0806 -0.4253 -0.1469
  191SAPI  H13X22160   0.883   7.194   3.932  0.0878 -2.4372  1.8965
  191SAPI  H13Y22161   1.039   7.137   3.872  0.0574  0.2418 -0.5420
  191SAPI  C31422162   0.870   6.991   3.901 -0.6355  1.2257 -0.8142
  191SAPI  H14X22163   0.906   6.927   3.818 -1.6543  1.0360 -1.1178
  191SAPI  H14Y22164   0.759   6.986   3.901 -0.5870 -0.8304  0.7472
  191SAPI  C31522165   0.917   6.954   4.046  0.2466 -0.7780 -0.1514
  191SAPI  H15X22166   0.853   6.868   4.074 -0.3460 -0.4356 -0.4381
  191SAPI  H15Y22167   0.886   7.034   4.117 -0.2276 -2.8101  2.0757
  191SAPI  C31622168   1.063   6.916   4.058  0.2265 -0.7657  0.0851
  191SAPI  H16X22169   1.126   7.007   4.051  0.1717 -0.6060  1.5529
  191SAPI  H16Y22170   1.098   6.864   3.965  1.0466  1.2982 -0.8212
  191SAPI  C31722171   1.093   6.830   4.182 -0.0545 -0.2209  0.2142
  191SAPI  H17X22172   1.203   6.818   4.176 -0.0732  0.1761 -1.2396
  191SAPI  H17Y22173   1.051   6.729   4.164 -1.9613  0.3011  1.4034
  191SAPI  C31822174   1.042   6.875   4.320 -0.0972 -0.2625  0.4053
  191SAPI  H18X22175   1.112   6.951   4.361  0.5256  0.0963 -1.2632
  191SAPI  H18Y22176   1.041   6.789   4.390  1.4739 -0.9203 -0.3143
  191SAPI  H18Z22177   0.942   6.920   4.308  0.6702  2.0047  1.9059
  192SAPI   C1222178   0.421   4.376   2.238  0.0302 -0.3083  0.2633
  192SAPI    H222179   0.358   4.284   2.235 -0.4988  0.0535  0.1014
  192SAPI    O222180   0.390   4.426   2.108 -0.6196 -0.0064 -0.2464
  192SAPI   HO222181   0.424   4.368   2.041  1.1176  1.4501 -0.7002
  192SAPI   C1322182   0.376   4.463   2.352 -0.0465  0.8995 -1.0193
  192SAPI    H322183   0.410   4.410   2.444 -2.0438 -0.4573 -1.0052
  192SAPI    O322184   0.230   4.483   2.361 -0.0224 -0.4008 -0.9047
  192SAPI   HO322185   0.196   4.511   2.276 -1.9139 -1.1250 -0.4508
  192SAPI   C1422186   0.442   4.597   2.347  0.1960 -0.3467 -0.5229
  192SAPI    H422187   0.380   4.645   2.268 -2.8803 -0.2410  1.7905
  192SAPI    O422188   0.425   4.671   2.471  0.2372  0.2196 -0.0752
  192SAPI   HO422189   0.399   4.760   2.448 -0.1855 -0.2303 -1.4015
  192SAPI   C1522190   0.586   4.601   2.300 -0.5324 -0.9483 -0.2176
  192SAPI    H522191   0.649   4.614   2.391 -0.3851  2.3130 -0.6413
  192SAPI    O522192   0.610   4.724   2.230  0.0290  0.5337  0.1513
  192SAPI   HO522193   0.591   4.804   2.279 -2.7676  0.0983 -0.0512
  192SAPI   C1622194   0.642   4.480   2.220  0.2540  0.4469  0.4313
  192SAPI    H622195   0.626   4.496   2.111  0.1588 -2.4000 -0.0593
  192SAPI    O622196   0.776   4.465   2.233  0.1602  0.1587 -0.6301
  192SAPI   HO622197   0.775   4.425   2.320 -3.1001  1.7256  0.1987
  192SAPI   C1122198   0.564   4.348   2.254 -0.4005 -0.0821 -1.2001
  192SAPI    H122199   0.598   4.322   2.356 -1.1673 -1.3212 -1.2360
  192SAPI     P22200   0.620   4.088   2.216 -0.0129  0.0360 -0.1597
  192SAPI   O1322201   0.651   3.997   2.102 -0.1937 -0.0247 -0.0987
  192SAPI   O1422202   0.514   4.053   2.317  0.3402  0.5291 -0.3823
  192SAPI   O1222203   0.602   4.244   2.157  0.1901  0.0048  0.9430
  192SAPI   O1122204   0.754   4.123   2.291  0.0405  0.2788  0.2261
  192SAPI    C122205   0.792   4.042   2.404  0.0498  0.2867 -0.5746
  192SAPI    HA22206   0.730   3.951   2.421  0.2178 -0.4075 -3.2536
  192SAPI    HB22207   0.891   3.992   2.393  1.5177  1.5811  4.1845
  192SAPI    C222208   0.822   4.124   2.527  0.2808  0.2402 -0.5851
  192SAPI    HS22209   0.850   4.063   2.615 -1.0018  2.1871  1.2940
  192SAPI   O2122210   0.701   4.193   2.563  0.2646  0.0325  0.2144
  192SAPI   C2122211   0.615   4.116   2.614  0.9760  0.5186  0.3285
  192SAPI   O2222212   0.639   4.001   2.653 -0.4966  0.1489  0.0420
  192SAPI   C2222213   0.470   4.167   2.633  0.2230  0.6834  0.3049
  192SAPI   H2R22214   0.436   4.166   2.527 -0.5279  1.0812  0.5290
  192SAPI   H2S22215   0.426   4.085   2.694 -0.0397  1.2601  0.8972
  192SAPI    C322216   0.947   4.225   2.500 -0.2615  0.0835 -0.4630
  192SAPI    HX22217   0.933   4.262   2.396  1.0011 -0.3408 -0.7958
  192SAPI    HY22218   1.038   4.161   2.498 -0.7198 -0.6266  0.3970
  192SAPI   O3122219   0.954   4.324   2.606 -0.6060  0.3105 -0.1975
  192SAPI   C3122220   0.887   4.439   2.596  0.2094  0.7554 -1.5100
  192SAPI   O3222221   0.813   4.461   2.500  0.2078  0.2745 -0.9906
  192SAPI   C3222222   0.894   4.526   2.717 -0.2040  0.1484 -0.2750
  192SAPI   H2X22223   0.853   4.626   2.689  1.6421  1.3304  0.9688
  192SAPI   H2Y22224   1.004   4.533   2.736 -0.0336  1.3633 -1.5024
  192SAPI   C2322225   0.463   4.305   2.704 -0.1600  0.2010  0.1800
  192SAPI   H3R22226   0.478   4.376   2.620 -0.6671 -0.5053 -0.5291
  192SAPI   H3S22227   0.542   4.313   2.782  1.2750 -1.4292 -1.0130
  192SAPI   C2422228   0.321   4.337   2.754  0.0756  0.8131  0.7744
  192SAPI   H4R22229   0.300   4.264   2.835  0.3233  0.2033  0.2996
  192SAPI   H4S22230   0.256   4.315   2.666  0.7405  0.9795  0.2291
  192SAPI   C2522231   0.284   4.476   2.806 -0.7832  0.3048  0.0173
  192SAPI   H5R22232   0.264   4.556   2.733 -1.2964  1.1481  1.0353
  192SAPI   C2622233   0.283   4.518   2.934  0.4080  0.6329  0.7878
  192SAPI   H6R22234   0.245   4.619   2.959 -1.1724  0.3645 -0.3830
  192SAPI   C2722235   0.315   4.424   3.051 -0.1213 -0.3284  0.5699
  192SAPI   H7R22236   0.410   4.372   3.029  0.6795  1.3236 -0.0831
  192SAPI   H7S22237   0.238   4.344   3.053  0.0526 -0.8542 -3.6218
  192SAPI   C2822238   0.327   4.500   3.180 -0.6143 -0.1279 -0.4742
  192SAPI   H8R22239   0.411   4.568   3.201 -0.6169  0.0352 -0.9907
  192SAPI   C2922240   0.238   4.482   3.285 -0.5196 -0.4082  0.4343
  192SAPI   H9R22241   0.257   4.533   3.380 -0.1204 -2.7336  1.6598
  192SAPI  C21022242   0.110   4.404   3.286  0.3279  0.1645  0.2315
  192SAPI  H10R22243   0.119   4.309   3.342 -0.2654  0.8418  1.5342
  192SAPI  H10S22244   0.075   4.373   3.186 -2.4389  0.7891  0.9319
  192SAPI  C21122245  -0.003   4.480   3.358 -0.7192  0.2981  0.2636
  192SAPI  H11R22246  -0.075   4.534   3.295 -0.7020 -0.7209 -0.6654
  192SAPI  C21222247  -0.032   4.486   3.483  0.3273  0.5313 -0.2867
  192SAPI  H12R22248  -0.111   4.558   3.509  1.2045  1.3208  0.2146
  192SAPI  C21322249   0.045   4.420   3.592  0.4631  0.0725 -1.0541
  192SAPI  H13R22250   0.088   4.324   3.555  2.3164 -0.1124  1.2887
  192SAPI  H13S22251  -0.029   4.386   3.669  0.6239  2.2598  0.1362
  192SAPI  C21422252   0.158   4.506   3.654 -0.2408  0.4223  0.2272
  192SAPI  H14R22253   0.221   4.546   3.573 -1.0102  0.8896 -0.1527
  192SAPI  C21522254   0.200   4.509   3.781  0.1651  0.2172  0.1787
  192SAPI  H15R22255   0.285   4.567   3.819  0.3475 -0.7810  1.3898
  192SAPI  C21622256   0.099   4.466   3.884 -0.2380  0.5428  0.0406
  192SAPI  H16R22257   0.108   4.355   3.887  2.9293  0.7334  1.3985
  192SAPI  H16S22258  -0.010   4.483   3.870 -0.7616 -1.4959  1.1983
  192SAPI  C21722259   0.143   4.505   4.029 -0.0474 -0.1903  0.4425
  192SAPI  H17R22260   0.139   4.616   4.034  0.4948 -0.1558  0.1381
  192SAPI  H17S22261   0.243   4.465   4.054  0.2844  0.5065  0.2684
  192SAPI  C21822262   0.054   4.456   4.146 -0.1505  0.3623 -0.1553
  192SAPI  H18R22263  -0.047   4.493   4.118 -0.1470  0.1487 -0.4496
  192SAPI  H18S22264   0.091   4.510   4.236 -0.1166  2.1640 -1.1959
  192SAPI  C21922265   0.039   4.304   4.175 -0.1666  0.0119  0.8732
  192SAPI  H19R22266   0.135   4.266   4.216  0.4962  0.2086 -0.4235
  192SAPI  H19S22267   0.032   4.250   4.078  0.8740 -2.1914  1.9697
  192SAPI  C22022268  -0.080   4.275   4.268  0.0946 -0.2083  0.2812
  192SAPI  H20R22269  -0.176   4.275   4.214 -0.5451  0.4986  1.3678
  192SAPI  H20S22270  -0.080   4.344   4.356 -1.0912 -0.4255  0.4556
  192SAPI  H20T22271  -0.065   4.169   4.298 -1.8089 -0.0142  2.1386
  192SAPI   C3322272   0.823   4.457   2.834  0.3082  0.1563  0.7130
  192SAPI   H3X22273   0.851   4.349   2.842  0.5646  0.2047  0.4853
  192SAPI   H3Y22274   0.712   4.458   2.832  0.3024 -0.5714  0.4379
  192SAPI   C3422275   0.884   4.505   2.966  0.6883  0.2142 -0.1483
  192SAPI   H4X22276   0.986   4.464   2.972  0.1727 -1.2282 -0.8205
  192SAPI   H4Y22277   0.815   4.466   3.044 -2.2416 -2.5544 -3.7441
  192SAPI   C3522278   0.886   4.654   2.989  0.3240 -0.2406  0.2538
  192SAPI   H5X22279   0.780   4.685   2.983  0.1275 -0.6082  1.4609
  192SAPI   H5Y22280   0.941   4.694   2.901  1.6737  0.2461  1.2627
  192SAPI   C3622281   0.967   4.697   3.110  0.0838  0.8139  0.5545
  192SAPI   H6X22282   0.988   4.806   3.100  2.0920  0.3913 -0.3289
  192SAPI   H6Y22283   1.066   4.647   3.114  0.3027  1.1522 -0.3145
  192SAPI   C3722284   0.910   4.667   3.245  0.0220 -0.5290  0.4461
  192SAPI   H7X22285   0.979   4.706   3.323  2.1167 -1.1446 -1.0133
  192SAPI   H7Y22286   0.892   4.558   3.262 -0.9618 -0.7916 -1.9496
  192SAPI   C3822287   0.770   4.722   3.262 -0.5810  0.7349  0.3694
  192SAPI   H8X22288   0.705   4.676   3.184  1.4196 -0.7269 -0.5383
  192SAPI   H8Y22289   0.785   4.831   3.248  3.7468  0.6358  2.4917
  192SAPI   C3922290   0.710   4.692   3.400  0.1162 -0.9312  0.6849
  192SAPI   H9X22291   0.774   4.742   3.477 -0.6250 -1.7841  1.8921
  192SAPI   H9Y22292   0.715   4.586   3.433 -0.5688 -1.1598  0.0746
  192SAPI  C31022293   0.572   4.747   3.413 -0.7451  0.2624 -0.0589
  192SAPI  H10X22294   0.516   4.692   3.334 -0.0045  1.0150 -1.1474
  192SAPI  H10Y22295   0.566   4.856   3.393  0.8009  0.2353 -0.8474
  192SAPI  C31122296   0.509   4.715   3.555 -0.0061  0.4441 -0.5919
  192SAPI  H11X22297   0.554   4.621   3.592 -1.0616 -0.3663 -1.3149
  192SAPI  H11Y22298   0.401   4.699   3.536  0.0323 -2.0645  0.8525
  192SAPI  C31222299   0.551   4.825   3.653 -0.1718  0.2534 -0.4262
  192SAPI  H12X22300   0.496   4.919   3.631 -0.2850  0.5880  1.1539
  192SAPI  H12Y22301   0.662   4.832   3.654  0.1674 -3.2477  0.8039
  192SAPI  C31322302   0.507   4.805   3.795  0.4440 -0.1715 -1.2629
  192SAPI  H13X22303   0.542   4.714   3.848  2.2443  1.4425  0.4750
  192SAPI  H13Y22304   0.397   4.813   3.810  0.8133  1.0106  1.6206
  192SAPI  C31422305   0.570   4.919   3.885  0.1028 -0.5684  0.3157
  192SAPI  H14X22306   0.548   5.016   3.836 -1.3596 -0.3792  1.2875
  192SAPI  H14Y22307   0.680   4.920   3.874 -0.0529  1.8777 -1.7702
  192SAPI  C31522308   0.509   4.928   4.029  0.9599 -0.0127  0.1744
  192SAPI  H15X22309   0.534   4.835   4.084 -0.5984  0.3228  1.5206
  192SAPI  H15Y22310   0.402   4.927   3.999  0.9425  1.4379  0.1255
  192SAPI  C31622311   0.566   5.053   4.093  0.1583 -0.1496  0.2401
  192SAPI  H16X22312   0.556   5.143   4.029  1.6350 -0.4580 -0.4596
  192SAPI  H16Y22313   0.671   5.020   4.108  0.6322  0.4791 -1.4532
  192SAPI  C31722314   0.488   5.099   4.225 -0.1625  0.7002 -0.2775
  192SAPI  H17X22315   0.495   5.015   4.297 -0.0839  1.7727  0.9963
  192SAPI  H17Y22316   0.380   5.119   4.207 -0.8110 -2.2690 -0.3125
  192SAPI  C31822317   0.556   5.228   4.277  0.5360  0.2293  0.0824
  192SAPI  H18X22318   0.656   5.212   4.323  0.2525 -0.4950  0.4584
  192SAPI  H18Y22319   0.494   5.265   4.362  1.3417  0.2083  0.6857
  192SAPI  H18Z22320   0.564   5.309   4.202  2.3896  0.4717  0.4903
  193SOD    SOD22321   0.207   1.276   8.648  0.3863 -0.2083  0.0026
  194SOD    SOD22322   0.825   1.542   6.943  0.6849 -0.1309 -0.1701
  195SOD    SOD22323   5.971   2.586   1.355 -0.6878 -0.4402 -0.1147
  196SOD    SOD22324   0.900   6.423   0.977  0.5071  0.3577 -0.5464
  197SOD    SOD22325   1.029   0.518   2.027 -0.1343 -0.0079  0.0730
  198SOD    SOD22326   5.763   5.532   0.633 -0.0989 -0.0722  0.6317
  199SOD    SOD22327   2.887   0.049   6.614  0.3488  0.4280 -0.5328
  200SOD    SOD22328   5.162   0.859   7.583 -0.6742 -0.1401 -0.1518
  201SOD    SOD22329   6.788   5.492   2.174  0.2464 -0.1759  0.1759
  202SOD    SOD22330   6.584   4.340   7.044 -0.2212  0.1260 -0.1394
  203SOD    SOD22331   5.853   6.717   7.395  0.4874 -0.3620  0.4560
  204SOD    SOD22332   6.617   2.122   2.107  0.0552 -0.5055 -0.1548
  205SOD    SOD22333   4.598   5.382   7.331  0.1820 -0.5957 -0.2354
  206SOD    SOD22334   5.892   1.329   8.349 -0.3697 -0.3896 -0.1580
  207SOD    SOD22335   5.072   2.597   8.618  0.6589 -0.1315  0.3489
  208SOD    SOD22336   0.687   2.948   0.766 -0.5151  0.4465 -0.3952
  209SOD    SOD22337   2.816   3.918   0.658  0.2192  0.0649  0.5640
  210SOD    SOD22338   1.400   0.669   6.336 -0.1134 -0.1956  0.0477
  211SOD    SOD22339   0.926   3.710   0.114  0.1433 -0.1077 -0.4924
  212SOD    SOD22340   4.276   3.708   2.017 -0.0219  0.2631  0.3897
  213SOD    SOD22341   2.990   3.342   7.810 -0.5002  0.1360  0.3215
  214SOD    SOD22342   4.202   2.457   1.682  0.0628 -0.7931  0.6331
  215SOD    SOD22343   0.772   6.173   6.811  0.4042 -0.4713  0.0096
  216SOD    SOD22344   0.279   5.307   8.740 -0.3346  0.2672  0.0729
  217SOD    SOD22345   5.160   4.282   7.638  0.3750 -0.4749  0.4407
  218SOD    SOD22346   1.797   2.000   0.917  0.0472  0.1110 -0.2056
  219SOD    SOD22347   0.337   3.656   2.507 -0.1057  0.6575  0.1239
  220SOD    SOD22348   1.224   3.090   1.593 -0.2546  0.0508  0.3226
  221SOD    SOD22349   2.738   3.816   8.274 -0.0535  0.5929  0.1722
  222SOD    SOD22350   2.290   3.504   0.431  0.0988 -0.0984  0.1594
  223SOD    SOD22351   5.168   4.925   0.840 -0.4474  0.1873  0.1962
  224SOD    SOD22352   5.772   4.845   0.320 -0.3393  0.0864 -0.6315
  225SOD    SOD22353   4.107   0.307   8.402 -0.2046 -0.0639 -0.4886
  226SOD    SOD22354   6.421   6.393   6.942 -0.2495 -0.1137 -0.2200
  227SOD    SOD22355   2.126   4.292   0.441  0.1787 -0.1451  0.1367
  228SOD    SOD22356   3.448   3.579   0.974 -0.3990  0.3272 -0.1313
  229SOD    SOD22357   1.523   3.363   7.043  0.2951  0.0714 -0.3168
  230CLA    CLA22358   6.244   5.456   0.786  0.2602  0.3551  0.4316
  231CLA    CLA22359   1.995   5.720   7.877 -0.2544 -0.0249  0.1253
  232CLA    CLA22360   3.838   5.823   8.090  0.8011  0.0184 -0.2470
  233CLA    CLA22361   5.876   6.457   8.196  0.0406  0.1746  0.1744
  234CLA    CLA22362   3.930   4.682   0.006  0.1331 -0.0353 -0.5771
  235CLA    CLA22363   3.377   3.852   8.249 -0.2550  0.0256  0.0949
  236CLA    CLA22364   4.917   5.003   7.563  0.3646  0.7846  0.0402
  237CLA    CLA22365   1.392   1.277   0.348 -0.3483  0.1765 -0.1188
  238CLA    CLA22366   0.250   0.257   0.046  0.1893  0.4614  0.3639
  239CLA    CLA22367   0.337   6.783   7.943 -0.3261 -0.4378 -0.1049
  240CLA    CLA22368   0.973   3.194   1.571 -0.1445  0.3701  0.5092
  241CLA    CLA22369   5.650   5.254   0.050  0.3297  0.3188  0.1327
  242CLA    CLA22370   3.451   1.067   8.152 -0.1585  0.5780  0.0973
  243CLA    CLA22371   5.396   1.794   8.771 -0.1143 -0.2100  0.0573
  244CLA    CLA22372   5.665   3.440   7.471 -0.3095 -0.3758  0.5511
  245CLA    CLA22373   6.493   4.610   8.755 -0.0445  0.2608  0.2828
  246CLA    CLA22374   0.346   2.436   0.550 -0.0583  0.7714 -0.5744
  247TIP3   OH222375   0.785   1.344   8.676  0.2412 -0.4533  0.3177
  247TIP3    H122376   0.855   1.301   8.724  0.8649  0.5764  0.3586
  247TIP3    H222377   0.713   1.351   8.739  0.6022 -0.2563  0.7089
  248TIP3   OH222378   2.917   2.894   0.623  0.0021 -0.4738  0.1879
  248TIP3    H122379   3.010   2.890   0.603 -0.0185 -0.4638  0.0873
  248TIP3    H222380   2.895   2.804   0.649 -0.4503 -1.0739 -2.0313
  249TIP3   OH222381   1.963   6.183   1.142 -0.1699  0.1109  0.0685
  249TIP3    H122382   1.969   6.232   1.224  3.7357 -0.2572  0.1554
  249TIP3    H222383   1.969   6.091   1.168 -1.2433 -0.1495 -0.5245
  250TIP3   OH222384   6.244   5.295   1.338 -0.0309 -0.1333 -0.0339
  250TIP3    H122385   6.310   5.347   1.385  0.9001 -0.0685 -1.3526
  250TIP3    H222386   6.211   5.354   1.271 -1.8646  0.0064  0.9364
  251TIP3   OH222387   4.805   4.270   7.191 -0.5395  0.5434  0.6897
  251TIP3    H122388   4.720   4.315   7.195 -0.1013  1.7641 -1.8793
  251TIP3    H222389   4.821   4.256   7.098  3.0035  2.2571  0.8578
  252TIP3   OH222390   2.323   0.815   0.599  0.7236  0.3394  0.0359
  252TIP3    H122391   2.238   0.861   0.602  1.7937  2.4179  0.7204
  252TIP3    H222392   2.318   0.752   0.671 -0.9736 -1.0471 -1.2158
  253TIP3   OH222393   2.563   0.569   8.309 -0.7969  0.0043 -0.2593
  253TIP3    H122394   2.620   0.645   8.315 -1.3784  0.4387 -0.2285
  253TIP3    H222395   2.563   0.532   8.397 -0.1353 -0.3096 -0.3891
  254TIP3   OH222396   0.591   4.605   7.011  0.4124 -0.3087  0.1495
  254TIP3    H122397   0.647   4.575   7.083 -1.4914  0.0920  1.8863
  254TIP3    H222398   0.574   4.527   6.959  0.2217 -1.0467  1.2857
  255TIP3   OH222399   2.492   0.225   1.321  0.0063  0.5755  0.2376
  255TIP3    H122400   2.552   0.269   1.381 -0.4477 -0.5383  1.5743
  255TIP3    H222401   2.455   0.295   1.267  2.8848  1.2322 -1.0546
  256TIP3   OH222402   4.320   6.079   7.760 -0.3541 -0.4351 -0.6050
  256TIP3    H122403   4.359   6.045   7.679  0.9071 -1.1308  0.2676
  256TIP3    H222404   4.249   6.018   7.779 -1.1343  0.1425 -1.5495
  257TIP3   OH222405   5.795   4.465   8.677  0.3759 -0.4099 -0.4324
  257TIP3    H122406   5.777   4.552   8.642 -1.2054 -0.1562  0.8693
  257TIP3    H222407   5.721   4.447   8.736  1.8003 -1.6731  1.0802
  258TIP3   OH222408   4.908   1.780   8.142 -0.1383  0.1208 -0.3307
  258TIP3    H122409   4.974   1.756   8.077 -0.0379  0.5952 -0.4137
  258TIP3    H222410   4.867   1.698   8.166  2.3013 -0.6179  1.7300
  259TIP3   OH222411   1.651   6.681   2.061 -0.0969  0.0850 -0.4197
  259TIP3    H122412   1.568   6.639   2.040 -0.5372  0.1630  1.0646
  259TIP3    H222413   1.717   6.613   2.046 -0.6111 -0.5395  0.0600
  260TIP3   OH222414   4.920   6.733   7.703  0.2083 -0.7609 -0.3213
  260TIP3    H122415   4.996   6.675   7.706  1.5632  0.7606 -2.5541
  260TIP3    H222416   4.943   6.806   7.762 -0.0294 -0.8336 -0.1353
  261TIP3   OH222417   6.370   5.804   7.120 -0.0906 -0.5201  0.0975
  261TIP3    H122418   6.321   5.827   7.198 -0.6876  1.7028 -0.8595
  261TIP3    H222419   6.306   5.761   7.063 -0.2912  0.1212 -0.1608
  262TIP3   OH222420   6.407   3.322   7.477 -0.1383  0.6547  0.7880
  262TIP3    H122421   6.445   3.266   7.545 -1.0721  0.3489  1.0803
  262TIP3    H222422   6.319   3.342   7.510 -0.0261  1.8087  0.4075
  263TIP3   OH222423   1.877   2.584   8.221  0.3289 -0.0739  0.5649
  263TIP3    H122424   1.870   2.488   8.217 -1.0687  0.0088  0.7019
  263TIP3    H222425   1.944   2.605   8.155  0.9966 -1.1615  0.8626
  264TIP3   OH222426   4.405   1.372   8.624  0.6564  0.3469  0.3619
  264TIP3    H122427   4.424   1.340   8.536 -1.6923  0.6389 -0.3135
  264TIP3    H222428   4.418   1.297   8.681  0.2779 -0.3783 -0.4971
  265TIP3   OH222429   6.149   0.809   1.470  0.0003 -0.7070 -0.7789
  265TIP3    H122430   6.124   0.749   1.540 -1.4664 -0.4423 -1.0560
  265TIP3    H222431   6.084   0.795   1.402 -0.2197  1.0134 -0.9564
  266TIP3   OH222432   4.150   2.559   0.075 -0.6796 -0.4727  0.0535
  266TIP3    H122433   4.078   2.565   0.013 -0.3570 -0.5255 -0.3325
  266TIP3    H222434   4.164   2.465   0.088 -1.3202 -0.4654  0.8924
  267TIP3   OH222435   0.350   5.644   6.185  0.0791  0.2372 -0.1636
  267TIP3    H122436   0.385   5.637   6.274  0.0758 -0.0158 -0.1800
  267TIP3    H222437   0.304   5.727   6.183 -1.1318 -0.3917  0.4974
  268TIP3   OH222438   6.052   2.694   0.188  0.3601  0.8396  0.0360
  268TIP3    H122439   6.099   2.618   0.221 -0.2302  1.2207  1.9141
  268TIP3    H222440   6.056   2.686   0.093 -1.1457 -2.4693  0.0917
  269TIP3   OH222441   0.020   4.911   7.310  0.4587  0.0935 -0.4079
  269TIP3    H122442   0.015   4.886   7.402 -0.6249 -0.0248 -0.4820
  269TIP3    H222443   0.034   5.006   7.311  2.2806 -0.1351 -0.1357
  270TIP3   OH222444   3.123   5.817   6.530 -0.0797 -0.4871  0.6643
  270TIP3    H122445   3.100   5.757   6.459 -0.9721 -1.5913  1.8516
  270TIP3    H222446   3.072   5.896   6.512  0.9187 -0.1309 -0.7803
  271TIP3   OH222447   3.540   3.120   7.888 -0.3605 -0.3553  0.2988
  271TIP3    H122448   3.525   3.060   7.961  0.4909  0.6517  1.3349
  271TIP3    H222449   3.561   3.203   7.929 -1.8795  0.7957 -1.0984
  272TIP3   OH222450   2.994   0.760   6.645 -1.4382 -0.6593 -0.1270
  272TIP3    H122451   2.962   0.822   6.580  0.0846  1.1144  0.7397
  272TIP3    H222452   3.055   0.704   6.597  1.1687  1.8398  0.0230
  273TIP3   OH222453   3.313   6.502   7.074 -0.5425 -0.0258 -0.1155
  273TIP3    H122454   3.397   6.540   7.102  0.4191 -1.7366 -0.5227
  273TIP3    H222455   3.257   6.578   7.056  0.9864  1.1697 -0.0495
  274TIP3   OH222456   2.319   6.300   0.709  0.4379 -0.4175  0.4337
  274TIP3    H122457   2.280   6.250   0.781  0.5253  0.3338  1.0126
  274TIP3    H222458   2.338   6.386   0.747  0.5516 -0.0349 -0.4677
  275TIP3   OH222459   5.246   5.754   6.444  0.8475 -0.0048  0.5838
  275TIP3    H122460   5.323   5.779   6.392 -0.0455  1.5588 -0.0817
  275TIP3    H222461   5.241   5.659   6.434  2.9557 -0.2315  1.0676
  276TIP3   OH222462   1.109   0.759   1.222  0.4403  0.1420 -0.0504
  276TIP3    H122463   1.127   0.804   1.305  1.5314 -0.0134 -0.1908
  276TIP3    H222464   1.135   0.822   1.155 -0.8611  0.4411 -0.3051
  277TIP3   OH222465   3.120   3.226   7.193  0.2088 -0.5326  0.4193
  277TIP3    H122466   3.046   3.174   7.226  0.2196 -0.1126  1.1226
  277TIP3    H222467   3.126   3.202   7.100  0.8050 -2.4728  0.9191
  278TIP3   OH222468   1.909   6.545   2.500 -0.1534  0.0679  0.4781
  278TIP3    H122469   1.814   6.537   2.502 -0.1042 -0.4014  1.0431
  278TIP3    H222470   1.928   6.576   2.411 -0.8753  0.7774  0.5548
  279TIP3   OH222471   6.730   2.347   8.519  0.1355 -0.0085  0.0529
  279TIP3    H122472   6.676   2.318   8.445 -1.8490 -1.1138  1.8273
  279TIP3    H222473   6.763   2.266   8.558  1.3881  0.5735  0.2451
  280TIP3   OH222474   3.364   2.434   0.251 -0.1156 -0.0449 -0.1474
  280TIP3    H122475   3.361   2.485   0.170  0.0061  2.8935  1.5256
  280TIP3    H222476   3.273   2.406   0.265 -0.3370  0.3250 -0.7828
  281TIP3   OH222477   5.229   6.823   1.769  0.1093 -0.0097 -0.4243
  281TIP3    H122478   5.215   6.736   1.731  0.0365 -0.0368 -0.3354
  281TIP3    H222479   5.320   6.845   1.748 -0.3214  0.5559 -1.8138
  282TIP3   OH222480   0.775   5.813   0.371 -1.1768 -0.2088  0.5778
  282TIP3    H122481   0.853   5.865   0.354  0.2365 -1.5302  2.4989
  282TIP3    H222482   0.732   5.858   0.444 -2.1454  0.4243 -0.3685
  283TIP3   OH222483   1.840   0.224   2.440  0.1572 -0.0693 -0.5917
  283TIP3    H122484   1.800   0.224   2.353 -0.9187  0.1686 -0.1034
  283TIP3    H222485   1.767   0.208   2.500  0.8069  0.3063  0.3102
  284TIP3   OH222486   6.845   4.987   8.628 -0.2566  0.5769 -0.4043
  284TIP3    H122487   6.818   4.897   8.649  1.8766  0.2236  1.1705
  284TIP3    H222488   6.767   5.027   8.591 -2.2284 -0.9692  1.7707
  285TIP3   OH222489   0.124   2.835   8.288 -0.1313  0.0449 -0.0191
  285TIP3    H122490   0.124   2.862   8.380  2.1567  0.5356 -0.0959
  285TIP3    H222491   0.177   2.901   8.244  0.4277 -1.2369 -1.3354
  286TIP3   OH222492   5.437   2.446   1.547 -0.0083  0.0495  0.3232
  286TIP3    H122493   5.436   2.465   1.641  1.6577  0.7732  0.2348
  286TIP3    H222494   5.501   2.375   1.538 -0.4796 -0.3076 -0.2190
  287TIP3   OH222495   1.567   0.410   0.653  0.2939  0.7277  0.8286
  287TIP3    H122496   1.652   0.448   0.678  0.3703  0.6529  0.6824
  287TIP3    H222497   1.507   0.485   0.654 -0.2046  0.4017  3.3844
  288TIP3   OH222498   1.163   5.974   7.313 -0.6514 -0.7012  0.0644
  288TIP3    H122499   1.117   5.900   7.273  0.4977 -1.6212  0.3798
  288TIP3    H222500   1.094   6.031   7.346 -1.5723 -1.1757 -1.0037
  289TIP3   OH222501   3.582   0.372   6.662 -0.6318 -0.2433 -0.3922
  289TIP3    H122502   3.487   0.384   6.668 -0.4428  1.0919  0.6935
  289TIP3    H222503   3.595   0.278   6.671 -1.9184 -0.6346 -2.0803
  290TIP3   OH222504   6.025   5.682   8.013 -0.5184 -0.1679 -0.2414
  290TIP3    H122505   5.960   5.747   7.986 -1.0122  0.1115  1.4567
  290TIP3    H222506   6.039   5.628   7.936 -1.6595  0.6892 -1.0837
  291TIP3   OH222507   5.310   1.447   7.202 -0.0934 -0.5589 -0.3108
  291TIP3    H122508   5.399   1.413   7.204  0.8327  1.7543  0.1499
  291TIP3    H222509   5.288   1.464   7.293 -0.5875 -0.0478 -0.5170
  292TIP3   OH222510   5.004   3.929   7.013  0.1860  0.1126  0.0649
  292TIP3    H122511   5.078   3.887   7.057  0.7127  0.7741 -0.1781
  292TIP3    H222512   4.931   3.919   7.074  0.8430  0.7948  0.9895
  293TIP3   OH222513   4.534   5.300   7.562  0.2042 -0.5515  0.4443
  293TIP3    H122514   4.589   5.222   7.567  1.9418  0.6630  1.2587
  293TIP3    H222515   4.521   5.326   7.654  1.8737  1.5326  0.1818
  294TIP3   OH222516   1.607   5.949   6.748 -0.3101  0.5629 -0.1581
  294TIP3    H122517   1.524   5.985   6.780  0.5889  2.2089  0.4419
  294TIP3    H222518   1.605   5.963   6.654 -1.3240 -0.7636 -0.3534
  295TIP3   OH222519   1.600   3.655   0.997 -0.4694 -0.1310 -0.3969
  295TIP3    H122520   1.573   3.709   1.071 -1.6356  0.5297 -1.2717
  295TIP3    H222521   1.668   3.597   1.033 -1.1599  0.0184  1.2322
  296TIP3   OH222522   4.354   3.898   6.580  0.1428  0.1190 -0.0636
  296TIP3    H122523   4.263   3.926   6.595  0.4239  1.9335 -1.3660
  296TIP3    H222524   4.390   3.966   6.523  2.0380 -1.0972 -0.3783
  297TIP3   OH222525   2.199   5.151   8.190 -0.2087 -0.3930  0.1990
  297TIP3    H122526   2.170   5.144   8.281 -1.9576 -0.1567 -0.3173
  297TIP3    H222527   2.293   5.168   8.197 -0.6064  1.5343  2.0176
  298TIP3   OH222528   4.578   5.403   8.687  0.5415  0.0535  1.1736
  298TIP3    H122529   4.578   5.358   8.772  1.0374  1.1482  1.7630
  298TIP3    H222530   4.621   5.487   8.704 -1.2250  1.1886  0.3267
  299TIP3   OH222531   2.189   4.490   8.185 -0.0177  0.0481 -0.1812
  299TIP3    H122532   2.104   4.503   8.143  0.5091 -0.6887 -1.5097
  299TIP3    H222533   2.253   4.499   8.115  1.1083  1.5466  0.9682
  300TIP3   OH222534   4.554   3.709   1.373  0.3929  0.0163  0.1144
  300TIP3    H122535   4.489   3.664   1.427  0.3868 -2.4184 -1.7605
  300TIP3    H222536   4.626   3.647   1.367  2.8103  2.4540  1.7326
  301TIP3   OH222537   0.162   2.978   1.345  0.2882 -0.1969 -0.5748
  301TIP3    H122538   0.241   2.968   1.397  0.2147 -0.2495 -0.4740
  301TIP3    H222539   0.126   2.890   1.338 -0.0318 -0.1016 -0.1949
  302TIP3   OH222540   2.777   3.697   1.891 -0.3439  0.3363 -0.0883
  302TIP3    H122541   2.768   3.776   1.838 -2.0297  0.2158 -0.0061
  302TIP3    H222542   2.690   3.681   1.927 -0.2897 -2.0691 -0.8466
  303TIP3   OH222543   3.648   6.165   1.000  0.6188  0.1151  0.0692
  303TIP3    H122544   3.561   6.188   0.967  0.2154 -1.0452  0.2723
  303TIP3    H222545   3.636   6.079   1.041  1.4561  0.7789  1.8020
  304TIP3   OH222546   5.848   0.146   2.442  0.2066  0.4568  0.5559
  304TIP3    H122547   5.885   0.061   2.469  0.1766  0.6506  1.2471
  304TIP3    H222548   5.923   0.206   2.447  0.2561  0.4514 -0.0550
  305TIP3   OH222549   1.334   3.216   6.948  0.4192  0.0655  0.4320
  305TIP3    H122550   1.248   3.208   6.989 -0.5162 -0.2839 -1.4808
  305TIP3    H222551   1.321   3.276   6.875  1.6411 -0.4344 -0.2348
  306TIP3   OH222552   3.194   2.388   8.274  0.4906 -0.2134  0.4252
  306TIP3    H122553   3.249   2.333   8.331  0.4533 -0.8524 -0.1449
  306TIP3    H222554   3.111   2.341   8.269  0.5500 -0.2520 -0.2928
  307TIP3   OH222555   0.796   2.322   8.038  0.1398 -0.0787  0.0829
  307TIP3    H122556   0.863   2.260   8.010  1.8835  2.6091 -2.3301
  307TIP3    H222557   0.730   2.321   7.969 -1.4909 -1.3983  1.5685
  308TIP3   OH222558   4.993   5.189   6.725  0.6921 -0.3765 -0.3027
  308TIP3    H122559   4.932   5.200   6.653  2.0159 -0.4908 -1.4776
  308TIP3    H222560   5.049   5.116   6.699  0.6082 -1.0559  1.2762
  309TIP3   OH222561   5.253   3.346   8.546  0.0769  0.0756  0.0904
  309TIP3    H122562   5.227   3.417   8.604  0.6510  0.2800  0.1064
  309TIP3    H222563   5.343   3.326   8.571 -0.2940 -1.1267  0.5398
  310TIP3   OH222564   0.685   0.922   7.104  0.0331 -0.2963  0.4245
  310TIP3    H122565   0.615   0.976   7.142 -0.9961  0.1174 -1.9079
  310TIP3    H222566   0.761   0.940   7.159 -1.0910  1.0856  1.6268
  311TIP3   OH222567   4.518   5.851   1.315 -0.2270 -0.0019 -0.2837
  311TIP3    H122568   4.519   5.936   1.271 -0.8918  0.0723 -0.1644
  311TIP3    H222569   4.530   5.872   1.408 -2.0221  0.1142 -0.0437
  312TIP3   OH222570   4.406   5.933   1.630 -0.0098  0.0940 -0.7706
  312TIP3    H122571   4.404   6.025   1.655  2.5077  0.4633 -1.6376
  312TIP3    H222572   4.317   5.902   1.645 -0.6167  2.3292  0.7255
  313TIP3   OH222573   6.067   4.168   1.036  1.0166  0.7735 -0.6327
  313TIP3    H122574   5.999   4.234   1.023 -1.2233 -1.3552 -0.6276
  313TIP3    H222575   6.068   4.119   0.954 -0.3330 -1.6375  0.6766
  314TIP3   OH222576   5.474   0.317   1.190 -0.7964  0.0988 -0.3268
  314TIP3    H122577   5.411   0.252   1.222 -0.7891 -0.7204 -1.8584
  314TIP3    H222578   5.499   0.367   1.267 -1.2626 -1.3472  0.8040
  315TIP3   OH222579   2.461   6.358   0.198  0.4164 -0.1780  0.1960
  315TIP3    H122580   2.426   6.376   0.110  2.5779 -0.9129 -0.8842
  315TIP3    H222581   2.413   6.419   0.255 -0.7247  0.6504 -1.5402
  316TIP3   OH222582   2.107   3.191   0.803 -0.0718  0.2499 -0.4214
  316TIP3    H122583   2.175   3.129   0.829 -0.1822  0.6696  0.9343
  316TIP3    H222584   2.032   3.135   0.781 -0.0966 -0.1210  0.5608
  317TIP3   OH222585   0.888   6.690   6.998  0.1927  0.4962 -0.1458
  317TIP3    H122586   0.967   6.673   7.050 -0.4209  0.2129  0.7237
  317TIP3    H222587   0.869   6.783   7.013 -0.2934  0.2897  0.6144
  318TIP3   OH222588   4.792   0.896   7.264  0.4313 -0.0468  0.5527
  318TIP3    H122589   4.702   0.863   7.265  0.5843 -0.4579  1.4219
  318TIP3    H222590   4.838   0.840   7.201 -0.1026  0.6875 -0.5152
  319TIP3   OH222591   6.357   1.182   0.944 -0.6260 -0.4229  0.1392
  319TIP3    H122592   6.355   1.120   0.871 -1.4721 -0.4307  0.1556
  319TIP3    H222593   6.274   1.169   0.989 -1.0074  0.9946 -0.0937
  320TIP3   OH222594   0.254   5.027   0.878  0.2072  0.5452 -0.7521
  320TIP3    H122595   0.206   5.004   0.957 -1.4995  0.1992 -1.8362
  320TIP3    H222596   0.200   4.994   0.807  2.5549 -0.7330 -2.0526
  321TIP3   OH222597   1.982   5.816   8.683  0.3010 -0.1995  0.3928
  321TIP3    H122598   1.934   5.895   8.707 -2.2604 -1.5392  0.0542
  321TIP3    H222599   2.033   5.794   8.762 -0.4902  0.7078  1.1759
  322TIP3   OH222600   5.747   4.318   7.577  0.1624  0.3563  0.8297
  322TIP3    H122601   5.720   4.365   7.656  1.0088  1.2965  0.5865
  322TIP3    H222602   5.800   4.381   7.529  0.5378 -0.5508  0.0188
  323TIP3   OH222603   0.846   4.793   1.815  0.0169  0.7247  0.1411
  323TIP3    H122604   0.902   4.737   1.870  1.2328  1.7902  0.0348
  323TIP3    H222605   0.816   4.861   1.874  1.1327  1.7405 -0.4259
  324TIP3   OH222606   4.595   3.835   7.320 -0.5277 -0.1975  0.1067
  324TIP3    H122607   4.678   3.804   7.356 -2.0634 -0.8080  3.5264
  324TIP3    H222608   4.545   3.863   7.397 -2.7273  2.1560 -1.9940
  325TIP3   OH222609   4.975   3.108   7.617 -0.5537 -0.2612 -0.2530
  325TIP3    H122610   4.913   3.096   7.544 -0.3175  2.1236 -0.9188
  325TIP3    H222611   5.061   3.099   7.577 -0.4416  0.0883 -0.0964
  326TIP3   OH222612   2.598   6.016   8.086 -0.0302  1.0114  0.0524
  326TIP3    H122613   2.556   5.932   8.102  2.1303 -0.0396  0.6002
  326TIP3    H222614   2.571   6.041   7.998 -0.7814 -0.2006 -0.0760
  327TIP3   OH222615   3.933   5.414   8.010  0.0213  0.5185 -0.1462
  327TIP3    H122616   3.985   5.492   7.987  0.8116 -0.2402 -1.0009
  327TIP3    H222617   3.894   5.436   8.094  3.4836  0.2929  1.6734
  328TIP3   OH222618   2.811   0.199   8.746  0.0191  0.1282  0.0435
  328TIP3    H122619   2.715   0.203   8.747  0.0272  0.7385 -0.8703
  328TIP3    H222620   2.838   0.260   8.815 -0.2384  1.1974 -0.7713
  329TIP3   OH222621   0.483   4.395   7.408  0.6918  0.8538 -0.0022
  329TIP3    H122622   0.418   4.464   7.400  0.5496  0.5114 -2.8575
  329TIP3    H222623   0.466   4.336   7.334  3.3747  0.0315 -0.1025
  330TIP3   OH222624   5.933   5.290   1.189 -0.3380  0.5324  0.7044
  330TIP3    H122625   5.954   5.361   1.128  1.8302 -0.2017  0.5032
  330TIP3    H222626   5.971   5.318   1.273 -1.1732  0.4483  1.1249
  331TIP3   OH222627   0.903   0.766   0.688 -0.1687 -0.8006 -0.1667
  331TIP3    H122628   0.826   0.737   0.737 -0.1635 -2.8163 -1.2582
  331TIP3    H222629   0.879   0.853   0.656 -0.9647 -0.3075  1.6292
  332TIP3   OH222630   5.381   6.705   0.600  0.3220  0.0965 -0.3159
  332TIP3    H122631   5.368   6.664   0.515 -1.0953  0.8162 -0.4680
  332TIP3    H222632   5.393   6.798   0.580  3.0256 -0.0844  0.0601
  333TIP3   OH222633   2.773   4.719   0.318 -0.0072  0.6528 -0.0992
  333TIP3    H122634   2.830   4.772   0.374  0.1487  0.4909 -0.1049
  333TIP3    H222635   2.730   4.783   0.261  2.2395  0.5668 -2.0159
  334TIP3   OH222636   5.419   6.267   0.578 -0.0490  0.1132 -0.0228
  334TIP3    H122637   5.373   6.285   0.496  0.5880 -2.5189 -1.0566
  334TIP3    H222638   5.511   6.262   0.552  0.3188  0.6647  1.1419
  335TIP3   OH222639   0.469   5.642   0.226  0.1418  0.0567  0.3833
  335TIP3    H122640   0.454   5.718   0.170  1.1094 -0.3350 -0.4365
  335TIP3    H222641   0.564   5.632   0.229  0.0137 -2.0069 -0.7669
  336TIP3   OH222642   0.051   5.173   7.204 -0.1333  0.0506 -0.7722
  336TIP3    H122643  -0.003   5.250   7.187 -1.9470 -1.4593 -2.3331
  336TIP3    H222644   0.141   5.206   7.202 -0.8842  2.4706  0.8437
  337TIP3   OH222645   1.568   4.227   7.558  0.5436  0.5133 -0.1371
  337TIP3    H122646   1.636   4.167   7.527  0.3735  1.6165 -2.9599
  337TIP3    H222647   1.485   4.184   7.533  0.2808  0.3387  0.9977
  338TIP3   OH222648   2.300   0.455   1.678 -0.3485 -0.0960  0.1714
  338TIP3    H122649   2.262   0.452   1.765  1.3197  2.3789  1.0974
  338TIP3    H222650   2.393   0.435   1.691  0.1801  1.4843 -0.7883
  339TIP3   OH222651   1.909   2.990   1.557 -0.3648 -0.1693 -0.1099
  339TIP3    H122652   1.976   2.990   1.489 -2.2102  0.5795 -2.0595
  339TIP3    H222653   1.936   3.059   1.618  1.2229 -0.7093 -0.1749
  340TIP3   OH222654   0.823   5.450   7.493  0.3532 -0.1782  0.0999
  340TIP3    H122655   0.841   5.359   7.519  0.3196 -1.0975 -2.7716
  340TIP3    H222656   0.736   5.447   7.454  1.2957  0.5032 -2.2407
  341TIP3   OH222657   5.625   6.154   0.347  0.0103 -0.0142  0.5851
  341TIP3    H122658   5.689   6.200   0.402  1.7906 -1.0550 -0.5235
  341TIP3    H222659   5.619   6.207   0.267  1.7308 -1.3736 -0.5096
  342TIP3   OH222660   5.076   1.902   7.889 -0.2190 -0.1140  0.5115
  342TIP3    H122661   5.085   1.997   7.892 -0.3916 -0.1159  1.4038
  342TIP3    H222662   5.156   1.872   7.845 -0.4728  0.4781 -0.3740
  343TIP3   OH222663   4.042   6.795   1.462  0.2472 -0.3730  0.0966
  343TIP3    H122664   4.119   6.770   1.513 -0.2061 -1.3514  0.3247
  343TIP3    H222665   4.067   6.876   1.418  1.2103 -0.3870  0.6040
  344TIP3   OH222666   2.275   6.562   8.265  0.1032 -0.2357  0.4383
  344TIP3    H122667   2.279   6.635   8.203 -3.0188  0.2342  0.6635
  344TIP3    H222668   2.272   6.484   8.210 -1.7904  0.1315 -0.0273
  345TIP3   OH222669   4.719   6.649   1.100 -0.0453 -0.1719 -0.2047
  345TIP3    H122670   4.724   6.630   1.194 -0.4723  0.0757 -0.1306
  345TIP3    H222671   4.628   6.677   1.086  0.8249  3.1309 -0.0555
  346TIP3   OH222672   6.225   0.466   7.942 -0.3484 -0.2101  0.2874
  346TIP3    H122673   6.140   0.434   7.972 -0.5177 -0.3615 -0.3252
  346TIP3    H222674   6.224   0.560   7.962 -0.1290 -0.4456  1.4603
  347TIP3   OH222675   0.531   3.498   7.357 -0.2259  0.2273  0.1063
  347TIP3    H122676   0.545   3.500   7.451 -1.0624 -1.7095  0.3105
  347TIP3    H222677   0.537   3.590   7.330  0.4889  0.7675  1.9519
  348TIP3   OH222678   0.066   1.148   7.441  0.3579 -0.1652  0.7192
  348TIP3    H122679   0.083   1.151   7.347  1.2492  0.4303  0.8942
  348TIP3    H222680   0.001   1.078   7.451 -0.3852  0.3396 -0.4249
  349TIP3   OH222681   1.389   2.338   1.605 -0.1864  0.2993 -0.0725
  349TIP3    H122682   1.372   2.381   1.521  0.9179  0.0142 -0.4558
  349TIP3    H222683   1.406   2.246   1.582 -0.3046  0.1262  0.5092
  350TIP3   OH222684   3.606   4.974   8.212  0.5165  0.4951 -0.0344
  350TIP3    H122685   3.529   4.997   8.160  0.2181 -0.5630 -0.0729
  350TIP3    H222686   3.601   5.032   8.288 -2.2771 -1.7996  1.7447
  351TIP3   OH222687   6.761   4.630   0.181  0.2141  0.5557 -0.1370
  351TIP3    H122688   6.787   4.648   0.091  0.8756  1.0536  0.1443
  351TIP3    H222689   6.668   4.654   0.184  0.3265  1.0670 -0.5486
  352TIP3   OH222690   2.628   2.553   7.377 -0.2152  0.0614  0.4816
  352TIP3    H122691   2.558   2.576   7.438  0.2054  0.0076  0.9892
  352TIP3    H222692   2.662   2.637   7.346  0.4900  0.1203  1.3825
  353TIP3   OH222693   0.844   3.592   7.051 -0.2084  0.6339  0.5244
  353TIP3    H122694   0.779   3.642   7.002  0.1560  1.2477  0.6570
  353TIP3    H222695   0.926   3.608   7.004  0.1659  1.3116  1.3915
  354TIP3   OH222696   4.310   6.529   8.012  0.5039 -0.5368 -0.1890
  354TIP3    H122697   4.246   6.458   8.009  0.6112 -0.5879 -1.6235
  354TIP3    H222698   4.380   6.501   7.955  0.9010  0.3979 -0.1782
  355TIP3   OH222699   3.546   5.799   7.987 -0.0627  0.7658 -0.4080
  355TIP3    H122700   3.635   5.797   8.023  0.3324 -0.4191 -1.3967
  355TIP3    H222701   3.551   5.860   7.913 -0.6918  2.5912  0.9647
  356TIP3   OH222702   3.041   1.534   8.363 -0.4320 -0.5021 -0.0022
  356TIP3    H122703   2.973   1.547   8.429 -1.3691 -0.2924 -0.9933
  356TIP3    H222704   3.110   1.487   8.409 -1.8942 -2.1078  0.6342
  357TIP3   OH222705   2.359   5.447   8.470  0.2777  0.0211  0.1467
  357TIP3    H122706   2.351   5.539   8.496  1.7842 -0.2816  1.8200
  357TIP3    H222707   2.420   5.449   8.396  0.5763  0.3524  0.3935
  358TIP3   OH222708   6.692   6.062   8.750 -0.2345 -0.4555 -0.5843
  358TIP3    H122709   6.699   6.107   8.666 -0.8083  0.8665  0.0340
  358TIP3    H222710   6.782   6.037   8.772 -0.3192 -3.0071 -2.6659
  359TIP3   OH222711   0.664   6.277   0.829 -0.0194  0.1782 -0.2125
  359TIP3    H122712   0.754   6.243   0.831 -0.9169 -2.3971  0.5262
  359TIP3    H222713   0.657   6.321   0.745  1.5130 -0.8840 -0.9506
  360TIP3   OH222714   6.456   4.504   0.340 -0.0607  0.3509 -0.2736
  360TIP3    H122715   6.380   4.482   0.393  0.9948  1.3217  1.7603
  360TIP3    H222716   6.442   4.595   0.314 -0.1303  0.1741 -0.8617
  361TIP3   OH222717   6.339   2.058   7.400 -0.2215  0.4315  0.4916
  361TIP3    H122718   6.315   1.971   7.368 -1.6675  0.6336  0.9378
  361TIP3    H222719   6.272   2.116   7.362 -1.1240  0.8917  2.6502
  362TIP3   OH222720   4.099   5.117   6.877  0.1624 -0.3088 -0.0476
  362TIP3    H122721   4.078   5.152   6.964 -1.6168 -1.0380 -0.1342
  362TIP3    H222722   4.020   5.071   6.851  0.7535 -0.3067 -1.9678
  363TIP3   OH222723   4.200   3.545   1.877  0.1441  0.1588  0.0352
  363TIP3    H122724   4.145   3.582   1.808 -1.3184  0.6684  1.4041
  363TIP3    H222725   4.157   3.463   1.900  0.9000 -0.2484 -0.0063
  364TIP3   OH222726   1.524   5.005   8.400  0.2077 -0.5503  0.0730
  364TIP3    H122727   1.588   4.997   8.329  2.0106  1.1352  1.3936
  364TIP3    H222728   1.542   5.090   8.440 -3.1715  0.1894  0.3212
  365TIP3   OH222729   4.684   0.846   6.715 -1.4203  0.2685 -0.5709
  365TIP3    H122730   4.616   0.779   6.722 -1.5850  0.4747 -0.1517
  365TIP3    H222731   4.653   0.903   6.644 -0.4311 -1.0504 -2.1260
  366TIP3   OH222732   4.308   1.501   0.834 -0.1589 -0.6667 -0.2444
  366TIP3    H122733   4.293   1.414   0.871 -0.7631 -1.9863 -3.2842
  366TIP3    H222734   4.237   1.513   0.771 -0.0171  2.0310 -0.0178
  367TIP3   OH222735   3.689   5.462   7.490 -0.7257 -0.9306  0.2401
  367TIP3    H122736   3.685   5.368   7.476 -0.2939 -0.6659 -1.9188
  367TIP3    H222737   3.627   5.499   7.428  2.6093  0.4273 -2.6765
  368TIP3   OH222738   2.839   5.601   8.536 -0.0250  0.2690 -0.3017
  368TIP3    H122739   2.834   5.641   8.623  1.0586  0.0452 -0.1180
  368TIP3    H222740   2.801   5.666   8.477  0.0463  0.7928  0.2202
  369TIP3   OH222741   1.081   1.179   7.813  0.0624  0.6606  0.6014
  369TIP3    H122742   1.022   1.234   7.864  1.9550  1.9336  1.5369
  369TIP3    H222743   1.057   1.196   7.722 -2.1265 -0.2216  0.9439
  370TIP3   OH222744   4.606   4.654   7.218 -0.5498  0.5832  0.1423
  370TIP3    H122745   4.534   4.677   7.277  0.3664  0.6151  1.2990
  370TIP3    H222746   4.676   4.716   7.240  0.1798 -0.0806 -0.2477
  371TIP3   OH222747   0.953   5.007   1.604 -0.3660  0.0247  0.4076
  371TIP3    H122748   0.997   4.945   1.662 -2.4687 -2.5524 -0.5275
  371TIP3    H222749   0.883   5.044   1.657  0.1518  0.7332  0.6141
  372TIP3   OH222750   2.833   5.178   8.589  0.7250 -0.6820 -0.2645
  372TIP3    H122751   2.898   5.167   8.520  0.6407 -0.0380 -0.4549
  372TIP3    H222752   2.768   5.237   8.551 -0.4181 -1.9726 -0.3739
  373TIP3   OH222753   0.384   6.812   7.390 -0.2810 -0.5104 -0.0248
  373TIP3    H122754   0.458   6.788   7.335 -0.5341  1.2388 -1.2163
  373TIP3    H222755   0.421   6.824   7.477  0.8169  0.0720 -0.5438
  374TIP3   OH222756   1.829   1.748   1.353  0.2373 -1.2179 -0.4266
  374TIP3    H122757   1.860   1.706   1.433  0.2680 -1.4689 -0.5682
  374TIP3    H222758   1.746   1.788   1.378 -0.2679 -2.1659 -0.5130
  375TIP3   OH222759   5.072   5.643   6.779  0.1482  0.4009  0.0477
  375TIP3    H122760   4.999   5.587   6.751  1.0151 -0.7125 -0.0568
  375TIP3    H222761   5.075   5.713   6.714 -0.0920 -0.2004 -0.6233
  376TIP3   OH222762   1.594   0.285   2.240 -0.1291  0.4398 -0.3853
  376TIP3    H122763   1.502   0.263   2.234 -0.4131  1.3418  0.3149
  376TIP3    H222764   1.640   0.207   2.210 -1.1250  0.6128 -2.5389
  377TIP3   OH222765   3.850   6.634   8.061 -0.1986  0.2751  0.0167
  377TIP3    H122766   3.793   6.707   8.034  1.7090  1.8857  0.1260
  377TIP3    H222767   3.871   6.589   7.980 -0.4838  0.5387 -0.2090
  378TIP3   OH222768   5.309   2.909   7.187 -0.2154  0.2482 -0.6243
  378TIP3    H122769   5.337   2.818   7.201  1.1876  0.4949 -1.6581
  378TIP3    H222770   5.372   2.961   7.235  0.4748  0.7727 -2.0594
  379TIP3   OH222771   2.030   0.774   2.303 -0.0491  0.3940 -0.2512
  379TIP3    H122772   2.058   0.695   2.257  0.5054 -0.3752  1.3224
  379TIP3    H222773   1.935   0.765   2.311  0.1020 -0.5669  0.6705
  380TIP3   OH222774   3.139   2.514   7.018 -0.6581  0.5258  0.2142
  380TIP3    H122775   3.109   2.602   6.995 -1.3204 -0.1355 -1.6796
  380TIP3    H222776   3.068   2.456   6.989  0.1123 -0.6997  0.6666
  381TIP3   OH222777   1.100   4.766   6.964  0.2318  0.4196  0.3160
  381TIP3    H122778   1.117   4.677   6.935 -0.2816 -0.2493  1.9321
  381TIP3    H222779   1.184   4.799   6.996  0.0570 -0.1926  1.4552
  382TIP3   OH222780   4.969   0.599   7.312  0.3465  0.1541 -0.3783
  382TIP3    H122781   4.923   0.631   7.235  1.0127 -0.7862 -1.1915
  382TIP3    H222782   4.926   0.516   7.334 -1.2654  1.4365  1.6152
  383TIP3   OH222783   0.922   6.562   1.178  0.5487  0.2835 -0.9176
  383TIP3    H122784   0.993   6.624   1.162  1.1340 -0.4622 -1.2879
  383TIP3    H222785   0.954   6.506   1.249  0.1080  0.2742 -0.7229
  384TIP3   OH222786   3.111   3.176   6.936  0.2587  0.1226  0.3602
  384TIP3    H122787   3.120   3.199   6.844 -0.7385  0.4411  0.3216
  384TIP3    H222788   3.055   3.098   6.936  0.1664  0.1866  0.6992
  385TIP3   OH222789   6.178   0.122   7.188 -0.6093  0.1298 -0.1168
  385TIP3    H122790   6.258   0.165   7.216 -1.1010  1.8442 -1.1865
  385TIP3    H222791   6.205   0.063   7.118 -0.1319 -0.1925  0.3355
  386TIP3   OH222792   3.234   5.593   6.350  0.0160 -0.7090 -0.2504
  386TIP3    H122793   3.146   5.623   6.325 -0.4787 -1.3523  0.6294
  386TIP3    H222794   3.289   5.614   6.275 -0.5348  1.3072 -0.1526
  387TIP3   OH222795   2.698   3.692   0.274 -0.0319 -0.1309  0.2733
  387TIP3    H122796   2.715   3.683   0.180  0.1779  0.4488  0.2525
  387TIP3    H222797   2.603   3.685   0.282 -0.1609  0.9811 -0.1233
  388TIP3   OH222798   4.383   2.653   8.770 -0.6024  0.7935  0.3546
  388TIP3    H122799   4.308   2.616   8.817  0.0052  0.9235  1.4456
  388TIP3    H222800   4.343   2.707   8.701 -1.5018  0.3078  0.4753
  389TIP3   OH222801   3.308   1.046   8.425  1.1166 -0.4314 -0.1340
  389TIP3    H122802   3.356   0.978   8.474  1.1704 -1.4107 -1.4975
  389TIP3    H222803   3.350   1.048   8.339  0.5507  0.7404 -0.3992
  390TIP3   OH222804   1.235   5.535   8.130 -0.2268  0.2698 -0.4803
  390TIP3    H122805   1.200   5.624   8.123 -1.2499 -0.1315 -0.5986
  390TIP3    H222806   1.180   5.492   8.195  0.0578 -0.3755 -0.6529
  391TIP3   OH222807   2.138   1.420   2.291 -0.4588  0.1075  0.4935
  391TIP3    H122808   2.058   1.471   2.307 -1.6562 -1.6668  0.4981
  391TIP3    H222809   2.164   1.389   2.377  1.2229  1.9825  0.7217
  392TIP3   OH222810   6.264   5.569   0.082  0.0961 -0.1609 -0.0678
  392TIP3    H122811   6.224   5.496   0.035  0.2106  1.0728 -2.1998
  392TIP3    H222812   6.274   5.638   0.017 -0.6419  2.0625  2.0014
  393TIP3   OH222813   2.797   4.786   8.195 -0.4603  0.1379  0.1296
  393TIP3    H122814   2.857   4.722   8.234  1.1585  1.1175 -0.6480
  393TIP3    H222815   2.793   4.857   8.258  2.2667  1.7859 -1.3500
  394TIP3   OH222816   5.608   5.078   8.026 -0.1156  0.2299 -0.1277
  394TIP3    H122817   5.531   5.022   8.017 -0.1925  0.3984 -0.4873
  394TIP3    H222818   5.579   5.165   8.002 -0.1535  0.5615  1.0294
  395TIP3   OH222819   3.131   5.325   6.331  0.5241  0.6363  0.3022
  395TIP3    H122820   3.173   5.254   6.379 -1.1964  0.4688  1.6656
  395TIP3    H222821   3.145   5.403   6.384 -0.2406  0.7086  0.4137
  396TIP3   OH222822   3.615   3.490   8.717  0.9394 -0.3727  0.2644
  396TIP3    H122823   3.686   3.552   8.698 -0.6482  1.5541  0.2628
  396TIP3    H222824   3.619   3.426   8.647  0.8665  1.3985 -1.4501
  397TIP3   OH222825   4.363   3.453   7.886  0.5736 -0.3146  0.3424
  397TIP3    H122826   4.455   3.460   7.909  1.0176 -0.6521 -1.2113
  397TIP3    H222827   4.335   3.544   7.874  1.9842 -0.2336 -3.6873
  398TIP3   OH222828   3.027   3.486   7.337  0.0488 -0.1141  0.2385
  398TIP3    H122829   3.000   3.520   7.251  0.7181 -0.8103 -0.2612
  398TIP3    H222830   3.068   3.402   7.317  0.6585 -0.0534  1.1959
  399TIP3   OH222831   3.855   4.460   6.213  0.2035 -0.1645 -0.4918
  399TIP3    H122832   3.774   4.511   6.203 -0.0065 -0.0120  1.6892
  399TIP3    H222833   3.913   4.495   6.145 -1.9451 -1.2174 -3.0601
  400TIP3   OH222834   0.195   0.734   6.958 -0.1444  0.0698 -0.1141
  400TIP3    H122835   0.110   0.713   6.998  1.2607 -1.9403  2.1144
  400TIP3    H222836   0.199   0.679   6.880 -0.7910  0.0053 -0.1140
  401TIP3   OH222837   1.224   1.761   0.441  0.9310  0.3653  0.5161
  401TIP3    H122838   1.156   1.746   0.376 -0.2457  1.4606  1.4330
  401TIP3    H222839   1.181   1.812   0.510  2.8865  1.8169  0.7493
  402TIP3   OH222840   4.319   0.985   8.473 -0.3704 -0.2584 -0.0698
  402TIP3    H122841   4.241   1.041   8.474  0.3422  0.8531 -1.7334
  402TIP3    H222842   4.297   0.915   8.411  0.1800  0.4729 -1.1263
  403TIP3   OH222843   1.205   0.079   8.743 -0.3842  0.2197 -0.0427
  403TIP3    H122844   1.291   0.104   8.709  0.5791 -1.5071  0.9808
  403TIP3    H222845   1.186   0.144   8.810 -0.3747  1.2322 -1.0099
  404TIP3   OH222846   6.342   2.062   8.089 -0.3896 -0.0523 -0.4146
  404TIP3    H122847   6.248   2.067   8.108 -0.5160  1.9256 -1.3776
  404TIP3    H222848   6.354   2.115   8.010  1.7345  0.8978  0.4672
  405TIP3   OH222849   0.451   1.856   7.988  0.2270  0.0638 -0.1555
  405TIP3    H122850   0.446   1.792   8.059  0.2970  1.2268  0.9350
  405TIP3    H222851   0.374   1.911   8.000  0.4541  0.5209 -0.7528
  406TIP3   OH222852   6.479   1.927   0.088 -0.0726 -0.5478  0.0164
  406TIP3    H122853   6.395   1.882   0.082  0.4416 -1.4370 -0.9440
  406TIP3    H222854   6.517   1.918  -0.000  0.3704  1.1480  0.0019
  407TIP3   OH222855   0.200   3.860   1.088 -0.1962 -0.1436  1.1832
  407TIP3    H122856   0.236   3.807   1.160  0.7558 -0.8473  0.2285
  407TIP3    H222857   0.160   3.935   1.131 -0.7904 -1.1953  2.5213
  408TIP3   OH222858   4.850   5.953   0.433  0.2066  0.4782  0.2562
  408TIP3    H122859   4.783   5.901   0.389  0.8675  0.6602 -1.0156
  408TIP3    H222860   4.808   5.983   0.514 -1.0075  0.0321 -0.1856
  409TIP3   OH222861   1.498   2.401   8.589 -0.6538  0.2526 -0.5107
  409TIP3    H122862   1.472   2.309   8.578  1.1718 -0.3095 -0.4481
  409TIP3    H222863   1.446   2.448   8.524 -2.3380 -0.6587  0.1045
  410TIP3   OH222864   6.345   1.070   8.459  0.1356  0.6219  0.0141
  410TIP3    H122865   6.438   1.055   8.475 -0.1844 -1.4335  0.1758
  410TIP3    H222866   6.342   1.140   8.394  1.7817  0.6302 -0.0812
  411TIP3   OH222867   6.509   0.353   8.591 -0.3678 -0.0328  0.1764
  411TIP3    H122868   6.526   0.261   8.574 -0.1442  0.1094 -0.3883
  411TIP3    H222869   6.416   0.365   8.569  0.2846  0.4977 -2.6025
  412TIP3   OH222870   3.877   5.055   8.153 -0.2824 -0.1379 -0.5400
  412TIP3    H122871   3.818   4.984   8.176  0.5858  0.1094  3.0046
  412TIP3    H222872   3.833   5.134   8.185  0.2099  0.5677 -1.5262
  413TIP3   OH222873   5.755   5.079   8.280  0.3363  0.3201 -0.7888
  413TIP3    H122874   5.810   5.157   8.291 -1.1148  1.2556  0.1610
  413TIP3    H222875   5.683   5.109   8.224 -0.6543 -0.0969  0.2353
  414TIP3   OH222876   5.056   0.994   6.527  0.7961 -0.2011  0.2438
  414TIP3    H122877   5.085   1.073   6.481 -0.7920  0.7968  0.8683
  414TIP3    H222878   4.978   0.966   6.479  0.8569 -0.9025  0.5450
  415TIP3   OH222879   6.737   3.912   2.690  0.2114  0.1836  0.0010
  415TIP3    H122880   6.763   4.004   2.684 -1.7599  0.7253 -1.1541
  415TIP3    H222881   6.642   3.914   2.686  0.1730 -2.0234 -2.0838
  416TIP3   OH222882   3.735   2.651   7.846 -0.3447  0.8327 -0.1595
  416TIP3    H122883   3.751   2.626   7.755  0.6981 -1.4246  0.5825
  416TIP3    H222884   3.675   2.585   7.879 -1.1298  1.9295  0.6987
  417TIP3   OH222885   1.772   3.801   0.765  0.1639 -0.0733  0.2132
  417TIP3    H122886   1.696   3.815   0.709  0.4473  0.5421 -0.0290
  417TIP3    H222887   1.739   3.747   0.837 -0.7616  1.0488  0.6633
  418TIP3   OH222888   2.132   4.475   0.616 -0.7788 -0.1420  0.7810
  418TIP3    H122889   2.166   4.546   0.561  0.8045 -1.5423 -0.1564
  418TIP3    H222890   2.164   4.495   0.704  1.7644 -0.8887  0.0983
  419TIP3   OH222891   0.668   5.577   8.709  0.2311  0.1580  0.4272
  419TIP3    H122892   0.680   5.524   8.788  0.0285  0.9121  0.9862
  419TIP3    H222893   0.753   5.577   8.666  0.2628 -0.5067  0.4892
  420TIP3   OH222894   4.083   0.616   6.993  0.0617  0.0155 -0.1992
  420TIP3    H122895   4.032   0.696   7.009 -1.4325 -0.7889 -0.7918
  420TIP3    H222896   4.106   0.621   6.900  0.4895  0.0258 -0.0979
  421TIP3   OH222897   5.081   5.502   7.843 -0.0269  0.2998  0.4699
  421TIP3    H122898   5.094   5.461   7.928 -2.3201  1.2701  1.3796
  421TIP3    H222899   4.987   5.493   7.827  0.0907  1.6232 -1.1755
  422TIP3   OH222900   1.376   3.193   8.761 -0.5948  0.2683  0.2919
  422TIP3    H122901   1.384   3.256   8.832  2.2238 -0.9958  1.2801
  422TIP3    H222902   1.293   3.148   8.777 -0.2771  0.3697  2.5310
  423TIP3   OH222903   6.584   4.807   1.366  0.2059 -0.0408  0.3421
  423TIP3    H122904   6.567   4.820   1.273  1.7081  0.2138  0.0816
  423TIP3    H222905   6.524   4.737   1.392  0.9730 -1.3179 -1.2136
  424TIP3   OH222906   0.195   2.269   0.856  0.3275  0.0697 -0.1284
  424TIP3    H122907   0.116   2.269   0.803  2.1973  1.4767 -3.1776
  424TIP3    H222908   0.261   2.227   0.801  1.7581 -1.0637  2.2983
  425TIP3   OH222909   1.869   0.819   8.502  0.0378 -0.0760  0.1018
  425TIP3    H122910   1.789   0.772   8.527 -1.5907  1.7247 -1.3944
  425TIP3    H222911   1.871   0.894   8.562  1.1073 -0.5479  0.6805
  426TIP3   OH222912   2.434   3.146   7.441 -0.3709  0.1914 -0.5366
  426TIP3    H122913   2.389   3.200   7.376 -0.0891 -0.6030 -1.4282
  426TIP3    H222914   2.493   3.091   7.389 -1.4897 -1.8260  0.2037
  427TIP3   OH222915   0.330   3.848   1.586  0.1601  0.1728 -0.1242
  427TIP3    H122916   0.350   3.880   1.497 -0.0844  0.1236 -0.1962
  427TIP3    H222917   0.416   3.832   1.625  0.2804  0.6469 -0.1894
  428TIP3   OH222918   0.053   0.277   1.481 -0.0922 -0.1477  0.1010
  428TIP3    H122919   0.108   0.260   1.557 -0.2317  0.2134  0.2811
  428TIP3    H222920   0.041   0.190   1.441 -0.9049 -0.5048  1.0948
  429TIP3   OH222921   5.113   2.122   0.692 -0.1352  0.3276  0.1626
  429TIP3    H122922   5.179   2.184   0.658  0.7941 -0.0616  1.1909
  429TIP3    H222923   5.145   2.036   0.663 -1.3129  0.2743 -1.0840
  430TIP3   OH222924   1.483   2.271   7.211 -0.1079 -0.1056 -0.2919
  430TIP3    H122925   1.428   2.293   7.137 -0.8798 -1.0088  0.0003
  430TIP3    H222926   1.424   2.231   7.274  0.8693 -1.0432  0.0502
  431TIP3   OH222927   4.062   2.693   1.424 -0.5424  0.6845  0.2358
  431TIP3    H122928   3.985   2.688   1.367  1.9086  0.0353 -3.3488
  431TIP3    H222929   4.080   2.603   1.448 -1.1828  0.8959  1.5923
  432TIP3   OH222930   5.288   6.473   2.483 -0.2654 -0.2414 -0.2316
  432TIP3    H122931   5.265   6.430   2.401 -2.0152  0.5424 -0.1940
  432TIP3    H222932   5.246   6.559   2.477  2.9002  1.4584 -0.2246
  433TIP3   OH222933   6.427   6.776   7.018  0.1443  0.1712  0.0543
  433TIP3    H122934   6.401   6.778   6.926 -0.6284 -0.4272  0.2472
  433TIP3    H222935   6.477   6.856   7.031 -0.7534  0.8483 -0.5859
  434TIP3   OH222936   5.738   2.735   6.857 -0.3063 -0.2782  0.3660
  434TIP3    H122937   5.724   2.815   6.907  0.6967 -0.1823  0.5109
  434TIP3    H222938   5.715   2.758   6.767 -2.2647 -0.4933  0.7734
  435TIP3   OH222939   1.571   3.873   7.732 -0.4370 -0.0629  0.0252
  435TIP3    H122940   1.493   3.882   7.676 -0.9925 -0.0242  0.7942
  435TIP3    H222941   1.536   3.872   7.821  0.5419  1.1051  0.4380
  436TIP3   OH222942   2.244   2.183   7.420  0.1087  0.2165  0.6671
  436TIP3    H122943   2.196   2.128   7.482 -0.6005 -1.1563 -1.0228
  436TIP3    H222944   2.208   2.271   7.434 -1.3728 -0.3967  0.9356
  437TIP3   OH222945   6.113   4.153   1.888 -0.1561 -0.1167 -0.3195
  437TIP3    H122946   6.061   4.206   1.948  0.6889 -0.0796  0.3996
  437TIP3    H222947   6.070   4.163   1.803 -0.7935  0.6213  0.0839
  438TIP3   OH222948   5.691   5.546   7.989 -0.3627 -0.3456 -0.0352
  438TIP3    H122949   5.689   5.622   8.048 -1.4601 -0.2553 -0.1557
  438TIP3    H222950   5.713   5.583   7.904  1.8793 -0.5617  0.3860
  439TIP3   OH222951   3.868   4.844   0.486  0.1174  0.4745 -0.1873
  439TIP3    H122952   3.950   4.808   0.453 -0.1727 -2.7652  2.1118
  439TIP3    H222953   3.804   4.828   0.417  0.6774 -0.6360 -0.4644
  440TIP3   OH222954   0.831   0.496   8.748 -0.2729  0.1299 -0.3855
  440TIP3    H122955   0.824   0.465   8.838 -0.0917  0.6944 -0.1708
  440TIP3    H222956   0.837   0.591   8.756  0.5158  0.1361 -0.9489
  441TIP3   OH222957   2.733   1.520   8.449  0.3311  0.2231  0.4268
  441TIP3    H122958   2.731   1.607   8.489 -2.1750  0.1579  0.6271
  441TIP3    H222959   2.748   1.460   8.522 -0.8747  0.3328  0.7931
  442TIP3   OH222960   4.232   3.786   7.421 -0.1506 -0.2414  0.3363
  442TIP3    H122961   4.253   3.755   7.333 -0.4921 -0.8994  0.4743
  442TIP3    H222962   4.174   3.860   7.408 -1.0708 -0.9945  0.0046
  443TIP3   OH222963   3.430   4.447   1.915 -0.0121 -0.8374 -0.4701
  443TIP3    H122964   3.348   4.411   1.881  0.0612 -0.5036 -1.0209
  443TIP3    H222965   3.412   4.541   1.925  0.4541 -0.6726 -1.0879
  444TIP3   OH222966   6.157   4.598   8.636  0.0414  0.1172 -0.4137
  444TIP3    H122967   6.252   4.603   8.650  0.0666  0.8655 -0.7886
  444TIP3    H222968   6.147   4.601   8.541 -0.3303 -0.6675 -0.4057
  445TIP3   OH222969   0.539   2.182   0.537  0.0144 -0.2279 -0.2712
  445TIP3    H122970   0.482   2.108   0.560 -0.0013  0.4227  2.1114
  445TIP3    H222971   0.495   2.259   0.573 -0.0232  1.0370 -2.8041
  446TIP3   OH222972   3.673   4.357   0.710 -0.5612 -0.2646 -0.1944
  446TIP3    H122973   3.611   4.414   0.755 -1.1523 -1.0517  0.0011
  446TIP3    H222974   3.742   4.416   0.678 -0.4413  0.3803  1.2033
  447TIP3   OH222975   5.147   6.008   2.325 -0.2258  0.2750 -0.4812
  447TIP3    H122976   5.172   5.987   2.415 -0.9273 -0.3767 -0.4271
  447TIP3    H222977   5.205   5.956   2.270  0.4610  0.9626 -0.4252
  448TIP3   OH222978   6.464   3.531   7.332  0.3788 -0.1288 -0.2511
  448TIP3    H122979   6.448   3.440   7.358 -0.2821  0.0006 -0.1895
  448TIP3    H222980   6.381   3.576   7.349  0.4168  0.2984 -1.1270
  449TIP3   OH222981   5.599   5.666   7.066  0.3802  0.2788 -0.0668
  449TIP3    H122982   5.604   5.595   7.002  0.9146  0.1817  0.0819
  449TIP3    H222983   5.524   5.644   7.121  0.0780  0.2262 -0.4897
  450TIP3   OH222984   2.392   1.643   7.790 -0.6729  0.1459  0.1634
  450TIP3    H122985   2.440   1.639   7.707 -0.2462  1.4265  0.3298
  450TIP3    H222986   2.410   1.559   7.832 -1.6091 -0.9033 -1.4022
  451TIP3   OH222987   5.459   2.899   1.318  0.0802 -0.1987  0.2914
  451TIP3    H122988   5.415   2.923   1.400  0.1996 -0.9824  0.5930
  451TIP3    H222989   5.460   2.804   1.318  0.0902 -0.2082 -0.6286
  452TIP3   OH222990   2.510   6.011   7.028  0.2156 -0.1778  0.7119
  452TIP3    H122991   2.458   6.036   6.951  2.0926  0.4557 -0.4177
  452TIP3    H222992   2.500   5.917   7.035 -3.1786  0.1511  2.1626
  453TIP3   OH222993   3.059   2.717   1.508  0.0924 -0.7856  0.2494
  453TIP3    H122994   2.994   2.652   1.533 -0.3045 -0.1641  0.8949
  453TIP3    H222995   3.129   2.708   1.574 -0.5423  0.2593  1.1021
  454TIP3   OH222996   3.048   4.263   1.156 -0.0474  0.0297 -0.0666
  454TIP3    H122997   3.017   4.173   1.140  0.6256 -0.2079 -0.0569
  454TIP3    H222998   3.009   4.314   1.085 -1.0907 -0.1138  0.3798
  455TIP3   OH222999   5.838   3.725   7.734  0.4644 -0.2989  0.2188
  455TIP3    H123000   5.747   3.732   7.706  0.3488 -1.6471  0.1690
  455TIP3    H223001   5.836   3.737   7.829  0.2392 -0.3013  0.2143
  456TIP3   OH223002   3.426   2.165   8.184  0.6517  1.0609 -0.1932
  456TIP3    H123003   3.394   2.099   8.245  0.3988 -0.0347 -1.4694
  456TIP3    H223004   3.355   2.177   8.121  1.0405  1.8994 -0.4939
  457TIP3   OH223005   1.053   5.197   1.319  0.9672 -0.1988  0.1117
  457TIP3    H123006   1.041   5.220   1.411 -1.9416  0.4182 -0.3276
  457TIP3    H223007   1.140   5.230   1.297  1.0826  1.0557  2.2249
  458TIP3   OH223008   2.956   3.133   8.688 -0.2448 -0.0448 -0.1925
  458TIP3    H123009   3.010   3.196   8.639  0.7981 -0.1711  0.7558
  458TIP3    H223010   3.015   3.059   8.704 -0.9499 -0.5270  0.1939
  459TIP3   OH223011   3.189   3.741   2.177  0.0760  0.0119 -0.0921
  459TIP3    H123012   3.183   3.799   2.253 -1.1197  1.9893 -1.5876
  459TIP3    H223013   3.109   3.689   2.181  1.6332 -2.4322  1.8264
  460TIP3   OH223014   2.399   1.955   6.566 -0.1572  0.2303  0.3403
  460TIP3    H123015   2.367   2.021   6.505 -0.0272  0.6036  0.6655
  460TIP3    H223016   2.328   1.943   6.628 -0.2641 -0.0995  0.1572
  461TIP3   OH223017   4.106   3.832   1.883  0.1052  0.4772  0.0203
  461TIP3    H123018   4.043   3.809   1.815  1.0625  0.2973 -0.8352
  461TIP3    H223019   4.090   3.924   1.901 -0.2118  0.5053 -0.4001
  462TIP3   OH223020   6.492   0.694   2.608 -0.3180 -0.1304  0.2571
  462TIP3    H123021   6.510   0.638   2.532 -4.0475  0.0394 -0.9350
  462TIP3    H223022   6.514   0.640   2.684  2.9819 -0.5074 -0.8161
  463TIP3   OH223023   2.676   1.800   1.744  0.4171  0.2378 -0.4563
  463TIP3    H123024   2.639   1.772   1.827 -0.5064  2.5416 -0.0049
  463TIP3    H223025   2.696   1.719   1.697  0.2245 -1.1002  1.6672
  464TIP3   OH223026   1.545   4.734   8.499 -0.2728 -0.4991 -0.8611
  464TIP3    H123027   1.507   4.664   8.445 -0.7581 -0.1170 -1.0164
  464TIP3    H223028   1.574   4.800   8.436  1.6600 -1.2472 -0.8340
  465TIP3   OH223029   2.868   1.267   7.471  0.2660  0.4845 -0.5042
  465TIP3    H123030   2.943   1.213   7.495 -0.2820  0.3835  1.0749
  465TIP3    H223031   2.834   1.226   7.391  1.0298 -0.3346 -0.4210
  466TIP3   OH223032   6.365   3.795   7.427 -0.3891  0.0132  0.7359
  466TIP3    H123033   6.446   3.786   7.377 -1.4890 -1.4215 -0.9186
  466TIP3    H223034   6.372   3.881   7.469  2.4911 -0.5668  1.6581
  467TIP3   OH223035   2.433   3.952   1.043  0.0511 -0.1289  0.1384
  467TIP3    H123036   2.399   3.956   0.954 -0.0421  0.1725  0.1877
  467TIP3    H223037   2.388   4.022   1.090 -1.8099 -1.8313  1.0856
  468TIP3   OH223038   3.428   5.391   8.479 -0.1633 -0.2773  0.5889
  468TIP3    H123039   3.462   5.457   8.418 -2.0105  0.8201  0.6931
  468TIP3    H223040   3.415   5.438   8.561  1.9108 -1.6453  1.7990
  469TIP3   OH223041   3.278   1.283   7.392 -0.1452 -0.4329  0.6085
  469TIP3    H123042   3.340   1.210   7.395 -0.8470 -1.0085  2.2656
  469TIP3    H223043   3.215   1.257   7.325  1.0458 -0.1089 -0.6732
  470TIP3   OH223044   5.527   2.046   0.148 -0.4681 -0.7149  0.8331
  470TIP3    H123045   5.475   1.970   0.124 -1.3763 -0.0565  0.6392
  470TIP3    H223046   5.584   2.016   0.218 -0.2752 -1.7582  0.2432
  471TIP3   OH223047   3.518   2.707   7.323  0.3956 -0.0043 -0.4988
  471TIP3    H123048   3.465   2.638   7.284 -0.3239  0.8353 -1.0703
  471TIP3    H223049   3.473   2.730   7.404  0.2345  0.2674 -0.6623
  472TIP3   OH223050   5.548   2.565   6.658  0.1697  0.2840 -0.1008
  472TIP3    H123051   5.555   2.626   6.584 -0.6282 -1.0948 -1.3799
  472TIP3    H223052   5.624   2.507   6.649  1.0580  1.2046  1.2497
  473TIP3   OH223053   5.413   0.081   7.794  0.0902  0.7294  0.0093
  473TIP3    H123054   5.410   0.026   7.715  0.4776 -0.8280  1.0356
  473TIP3    H223055   5.341   0.143   7.783 -0.1785  0.2099 -1.3403
  474TIP3   OH223056   4.966   1.073   1.869 -0.4230  0.7812 -0.3011
  474TIP3    H123057   5.002   1.094   1.955 -0.8067  2.4588 -0.5168
  474TIP3    H223058   4.871   1.067   1.883 -0.5478  1.6356 -0.6833
  475TIP3   OH223059   2.190   3.793   8.332  0.0213 -0.1360  0.5654
  475TIP3    H123060   2.191   3.810   8.237  3.4173 -0.2854  0.4563
  475TIP3    H223061   2.156   3.704   8.340 -2.1114  0.5302 -0.2703
  476TIP3   OH223062   4.045   3.940   0.125  0.0026 -0.7058  0.2010
  476TIP3    H123063   4.102   3.960   0.051 -1.8094  1.0166 -0.8325
  476TIP3    H223064   4.016   4.026   0.156 -1.8329 -1.4960  0.8119
  477TIP3   OH223065   1.227   5.686   7.547  0.4846 -0.3928 -0.0424
  477TIP3    H123066   1.194   5.642   7.468  2.2886 -1.2875 -0.3523
  477TIP3    H223067   1.157   5.675   7.612 -0.6117 -0.5212 -1.2072
  478TIP3   OH223068   0.792   2.854   1.891 -0.2009  0.2530 -0.0986
  478TIP3    H123069   0.872   2.891   1.929 -0.8557  1.5222  0.1083
  478TIP3    H223070   0.753   2.804   1.962 -0.5176  1.1605  0.3867
  479TIP3   OH223071   1.956   4.028   7.134  0.4149  0.4706 -0.8798
  479TIP3    H123072   1.963   3.951   7.078 -2.4376 -0.1821 -0.4766
  479TIP3    H223073   1.869   4.063   7.116 -0.4082  0.5664  2.6565
  480TIP3   OH223074   4.119   3.555   7.071  0.0521  0.1111 -0.3426
  480TIP3    H123075   4.089   3.522   6.986  1.3539  0.1329 -0.8456
  480TIP3    H223076   4.091   3.489   7.134 -2.1636  0.7789 -0.5774
  481TIP3   OH223077   1.472   2.737   7.693 -0.3741 -0.6134  0.2550
  481TIP3    H123078   1.560   2.756   7.660 -1.0627 -0.1832 -1.4709
  481TIP3    H223079   1.427   2.698   7.618 -1.8797 -0.1502  0.8860
  482TIP3   OH223080   4.289   0.905   0.496  0.5591  0.2857 -0.2055
  482TIP3    H123081   4.252   0.853   0.568 -1.0302 -0.0706 -1.2420
  482TIP3    H223082   4.214   0.951   0.458  1.7015  2.2288 -0.2639
  483TIP3   OH223083   6.752   4.688   8.244  0.5395 -0.0015  0.1708
  483TIP3    H123084   6.662   4.682   8.214  0.4976 -1.4666  0.5002
  483TIP3    H223085   6.762   4.779   8.273 -1.5052 -0.3324  2.1761
  484TIP3   OH223086   6.219   1.334   2.437 -0.1554  0.3789  0.0263
  484TIP3    H123087   6.265   1.415   2.415  0.4023 -0.5228 -2.3914
  484TIP3    H223088   6.127   1.360   2.445 -0.0035  1.2368 -0.8355
  485TIP3   OH223089   5.743   6.034   8.616 -0.0872 -0.4976  0.6693
  485TIP3    H123090   5.664   5.991   8.650  0.2080 -1.0807  0.6234
  485TIP3    H223091   5.797   5.963   8.583  0.5120 -0.1103  0.7985
  486TIP3   OH223092   5.677   0.972   8.079 -0.9743 -0.1403  0.1229
  486TIP3    H123093   5.755   0.994   8.029  0.5065 -0.1212  2.3210
  486TIP3    H223094   5.685   0.878   8.096 -2.8571 -0.7555 -1.8594
  487TIP3   OH223095   0.674   0.569   7.693 -0.3241  0.8488  0.5408
  487TIP3    H123096   0.637   0.519   7.766  0.0436  1.7313  1.3559
  487TIP3    H223097   0.692   0.656   7.730 -0.0074  1.2785 -0.5707
  488TIP3   OH223098   4.898   5.595   7.598 -0.1432  0.0345  0.3755
  488TIP3    H123099   4.993   5.582   7.593  0.0374  1.2715  0.3590
  488TIP3    H223100   4.871   5.544   7.674  0.5190 -0.4123  0.3191
  489TIP3   OH223101   2.596   3.901   7.259  0.1188  0.3402  0.0211
  489TIP3    H123102   2.610   3.991   7.229  0.9289  0.1156 -0.3044
  489TIP3    H223103   2.648   3.847   7.199  3.4842  0.0252  2.8664
  490TIP3   OH223104   6.015   4.605   0.595  0.1070  0.2174 -0.1912
  490TIP3    H123105   5.935   4.657   0.593  0.6090  1.0572  0.6019
  490TIP3    H223106   5.991   4.525   0.642 -0.4919  0.0395 -0.7886
  491TIP3   OH223107   2.548   5.393   0.894 -0.0969  0.3698 -0.5017
  491TIP3    H123108   2.576   5.445   0.970 -0.0981 -1.4828  0.8475
  491TIP3    H223109   2.630   5.361   0.856 -0.0243  2.1908 -2.0416
  492TIP3   OH223110   4.859   4.431   1.967  0.6498 -0.2415  0.5375
  492TIP3    H123111   4.802   4.428   2.044 -1.0149  0.6605 -0.5769
  492TIP3    H223112   4.825   4.363   1.909 -0.6176  1.5168 -0.9292
  493TIP3   OH223113   1.158   5.273   1.614 -0.5356 -0.1226  0.2809
  493TIP3    H123114   1.125   5.260   1.703 -1.7720 -2.3019 -0.4172
  493TIP3    H223115   1.237   5.219   1.610 -1.0838 -0.9154 -0.2188
  494TIP3   OH223116   2.420   4.357   0.957  0.4478 -0.0712  0.0662
  494TIP3    H123117   2.349   4.419   0.941  0.8193  1.1742  2.6356
  494TIP3    H223118   2.409   4.289   0.890 -3.0845  0.0957  0.2918
  495TIP3   OH223119   3.698   2.069   8.267  0.2512  0.3935  0.3391
  495TIP3    H123120   3.613   2.094   8.229 -0.0141 -2.6308 -1.3073
  495TIP3    H223121   3.685   2.080   8.362 -1.5258  1.1986  0.0551
  496TIP3   OH223122   4.584   6.113   6.946 -0.1238  0.4418 -0.3343
  496TIP3    H123123   4.495   6.145   6.933  0.1743  1.1900 -0.6031
  496TIP3    H223124   4.632   6.188   6.980  0.2052 -0.2030  0.6554
  497TIP3   OH223125   5.335   3.650   1.991  0.1337  0.5183  0.1556
  497TIP3    H123126   5.423   3.683   2.008  0.1606  0.6683 -0.2668
  497TIP3    H223127   5.278   3.704   2.045  0.1593  1.3855 -0.6496
  498TIP3   OH223128   4.475   3.870   7.550 -0.4132 -0.2267 -0.3632
  498TIP3    H123129   4.393   3.822   7.536 -0.3742 -0.1186 -1.0097
  498TIP3    H223130   4.516   3.825   7.623 -2.2697  1.3334  1.7811
  499TIP3   OH223131   2.721   4.181   0.229 -0.5946  0.1877  0.2365
  499TIP3    H123132   2.714   4.277   0.230 -1.2551  0.1628 -0.4529
  499TIP3    H223133   2.635   4.152   0.197 -0.4770 -0.6459  0.6592
  500TIP3   OH223134   4.320   0.155   6.309 -0.7215  0.1053 -0.0833
  500TIP3    H123135   4.366   0.194   6.384 -2.2454  2.1190 -0.1287
  500TIP3    H223136   4.388   0.145   6.242 -0.3274  3.5289 -0.3673
  501TIP3   OH223137   0.973   4.393   1.592  0.3727  0.0488  0.1935
  501TIP3    H123138   1.060   4.422   1.565  0.8244 -1.5517 -0.1657
  501TIP3    H223139   0.988   4.341   1.670 -0.3038 -0.0208  0.2840
  502TIP3   OH223140   0.740   6.819   6.743 -0.5919  0.2485 -0.1974
  502TIP3    H123141   0.702   6.742   6.700  1.7749  0.0010 -2.1138
  502TIP3    H223142   0.833   6.798   6.751  0.2636  3.1096 -1.3685
  503TIP3   OH223143   5.351   6.843   2.202 -0.7883 -0.2057 -0.6945
  503TIP3    H123144   5.265   6.873   2.174 -0.8100  0.6586  0.2518
  503TIP3    H223145   5.342   6.748   2.209 -1.6188 -0.1380 -0.7393
  504TIP3   OH223146   5.946   2.812   8.113  0.0756  0.0496  0.0884
  504TIP3    H123147   5.992   2.735   8.148  0.8710  1.0029  1.2610
  504TIP3    H223148   6.017   2.870   8.084 -0.4986  0.4441 -0.5288
  505TIP3   OH223149   4.459   1.137   1.340 -0.7030  0.2274  0.1698
  505TIP3    H123150   4.428   1.121   1.429 -1.4880  2.3469  0.3303
  505TIP3    H223151   4.511   1.217   1.346  1.7464 -1.1733 -0.8050
  506TIP3   OH223152   1.397   6.617   0.053  1.3037 -0.4953 -0.1498
  506TIP3    H123153   1.307   6.629   0.024  0.6514 -0.8986  1.6011
  506TIP3    H223154   1.390   6.588   0.144  3.2182  0.9577  0.5472
  507TIP3   OH223155   3.865   3.858   8.147  0.1805 -0.3884 -0.1287
  507TIP3    H123156   3.843   3.880   8.237  0.7985  0.9474 -0.2749
  507TIP3    H223157   3.789   3.811   8.114 -0.1415 -0.6853  1.0209
  508TIP3   OH223158   1.609   2.646   8.383  0.3153  0.6534  0.2210
  508TIP3    H123159   1.688   2.700   8.378  1.9471 -1.6557 -2.0892
  508TIP3    H223160   1.642   2.560   8.410 -1.4553 -0.3321 -0.6137
  509TIP3   OH223161   3.817   0.398   7.432 -0.0029 -0.6990 -0.0643
  509TIP3    H123162   3.882   0.334   7.404 -0.8919 -1.4619 -0.4173
  509TIP3    H223163   3.737   0.374   7.384 -0.2337  0.9523 -0.5656
  510TIP3   OH223164   1.560   1.140   0.556 -0.0445 -0.1488  0.7384
  510TIP3    H123165   1.505   1.171   0.628 -0.2789  1.5926 -0.1398
  510TIP3    H223166   1.537   1.196   0.482  0.7250 -1.3955 -0.5073
  511TIP3   OH223167   0.055   2.347   0.440  0.3208 -0.4864 -0.6208
  511TIP3    H123168   0.142   2.383   0.458 -0.2472  1.0662 -0.7820
  511TIP3    H223169  -0.006   2.417   0.466 -0.9064 -1.6608 -0.1896
  512TIP3   OH223170   4.070   1.447   1.314 -0.2008 -0.1554 -0.0535
  512TIP3    H123171   3.988   1.413   1.350 -0.3490 -1.1554 -1.2494
  512TIP3    H223172   4.084   1.396   1.234  1.5589  0.0280  0.0874
  513TIP3   OH223173   3.108   6.059   8.621  0.4910 -0.3573  0.0874
  513TIP3    H123174   3.018   6.034   8.600  0.1392  0.2249  0.8345
  513TIP3    H223175   3.158   6.038   8.543 -0.3244 -0.5449 -0.3960
  514TIP3   OH223176   0.959   2.492   1.268  0.0929  0.8440  0.1380
  514TIP3    H123177   0.935   2.510   1.359 -0.1415  1.1858  0.0107
  514TIP3    H223178   0.881   2.517   1.217 -0.1015 -0.1714 -0.0835
  515TIP3   OH223179   5.629   0.507   7.937  0.4929 -0.0394  0.0414
  515TIP3    H123180   5.633   0.529   8.030 -0.6537 -0.0562  0.1123
  515TIP3    H223181   5.627   0.592   7.892 -1.0431  0.0320  0.1665
  516TIP3   OH223182   3.818   1.720   7.105 -0.3623 -0.1832 -0.6135
  516TIP3    H123183   3.848   1.739   7.194 -3.6420 -1.7567  1.0292
  516TIP3    H223184   3.836   1.627   7.093 -0.2000 -0.0452 -1.4779
  517TIP3   OH223185   4.987   1.908   1.646 -0.3401  0.5180 -0.2220
  517TIP3    H123186   5.016   1.823   1.614 -0.2618  0.5375 -0.2022
  517TIP3    H223187   4.934   1.944   1.575  2.8889  2.2208 -1.9764
  518TIP3   OH223188   6.014   4.062   0.769  0.3902 -0.0270 -0.2590
  518TIP3    H123189   5.919   4.070   0.756  0.5043  0.5219 -0.7775
  518TIP3    H223190   6.036   3.975   0.736  0.1567  0.0627 -0.6514
  519TIP3   OH223191   0.430   5.872   7.414 -0.6447  0.1369 -0.2291
  519TIP3    H123192   0.496   5.847   7.478  1.0748  0.9532 -1.6138
  519TIP3    H223193   0.391   5.952   7.450  0.4254  0.6839 -0.2461
  520TIP3   OH223194   1.085   3.643   6.954 -0.0565 -0.5740 -0.0700
  520TIP3    H123195   1.088   3.549   6.936  0.7515 -0.4286 -0.7845
  520TIP3    H223196   1.176   3.671   6.949 -0.3576  0.3630 -0.5264
  521TIP3   OH223197   5.599   0.283   0.386 -0.3827 -0.7593 -0.4338
  521TIP3    H123198   5.601   0.337   0.465 -0.8751 -2.7518  1.0233
  521TIP3    H223199   5.645   0.335   0.320  2.5574 -0.1490  1.9100
  522TIP3   OH223200   3.334   6.136   8.766  0.4287  0.1016  0.3930
  522TIP3    H123201   3.355   6.187   8.688 -0.6130  2.2105  1.4181
  522TIP3    H223202   3.245   6.104   8.751  0.6527 -0.4720  0.2511
  523TIP3   OH223203   2.949   6.735   6.052  0.3334 -0.2594 -0.5682
  523TIP3    H123204   2.930   6.713   6.143 -1.0987 -1.4362 -1.0925
  523TIP3    H223205   2.986   6.654   6.015 -0.9250 -0.4550 -1.4816
  524TIP3   OH223206   2.354   0.049   8.050  0.3519  0.4656 -0.5372
  524TIP3    H123207   2.260   0.048   8.030  0.3484 -0.5782 -0.5014
  524TIP3    H223208   2.358   0.028   8.144  0.6407  0.1165 -0.6279
  525TIP3   OH223209   5.308   5.429   7.373  0.0314  0.0332  0.4897
  525TIP3    H123210   5.388   5.397   7.331 -0.1961 -1.7849  1.3423
  525TIP3    H223211   5.315   5.398   7.463 -2.3036 -1.5059  0.2259
  526TIP3   OH223212   6.535   3.657   2.480  0.9835  0.0537 -0.4162
  526TIP3    H123213   6.506   3.712   2.408  1.2174  1.2544  0.3599
  526TIP3    H223214   6.492   3.695   2.557 -0.0919 -1.8383 -0.0411
  527TIP3   OH223215   2.194   1.649   8.452  0.4601  0.1919 -0.2739
  527TIP3    H123216   2.171   1.584   8.385 -0.9635  0.8628 -0.4582
  527TIP3    H223217   2.244   1.715   8.404  0.3101  0.1652 -0.4722
  528TIP3   OH223218   2.340   2.697   7.878  0.2267 -0.7473 -0.0853
  528TIP3    H123219   2.281   2.624   7.862 -1.0097  0.6241 -2.4250
  528TIP3    H223220   2.284   2.766   7.913  1.5166 -1.0441  2.8738
  529TIP3   OH223221   6.534   5.839   6.269 -0.0489 -0.3349  0.3104
  529TIP3    H123222   6.609   5.840   6.329  0.5173 -0.0281 -0.3868
  529TIP3    H223223   6.573   5.822   6.183 -0.4342  2.4957 -0.5071
  530TIP3   OH223224   2.024   4.432   1.481  0.4382 -0.2358  0.0707
  530TIP3    H123225   1.993   4.374   1.551  0.1448 -1.9451 -1.3972
  530TIP3    H223226   2.113   4.455   1.507  0.4070 -0.9912  0.9178
  531TIP3   OH223227   0.122   3.137   7.226  0.0545 -0.3793  0.5621
  531TIP3    H123228   0.101   3.045   7.244 -0.3238 -0.2110  1.0146
  531TIP3    H223229   0.068   3.186   7.289 -2.0163  0.2963 -1.5833
  532TIP3   OH223230   6.381   2.229   7.883 -0.2451 -0.3604  0.2447
  532TIP3    H123231   6.360   2.188   7.799 -1.0589  1.4407 -0.4863
  532TIP3    H223232   6.307   2.288   7.900 -0.5306 -1.3114  2.6721
  533TIP3   OH223233   3.685   2.820   8.058 -0.7173  0.1935 -0.4433
  533TIP3    H123234   3.595   2.820   8.091 -1.5323 -1.4972 -2.4673
  533TIP3    H223235   3.678   2.786   7.969  2.1007 -1.4530 -0.1436
  534TIP3   OH223236   5.663   0.425   0.611  0.5183 -0.1665  0.2541
  534TIP3    H123237   5.645   0.475   0.690 -2.5502 -0.7385  0.0295
  534TIP3    H223238   5.733   0.364   0.636 -0.1643 -0.1317  2.4467
  535TIP3   OH223239   0.985   0.481   7.247 -0.3836  0.5645  0.2651
  535TIP3    H123240   1.045   0.476   7.321 -1.4517  1.1661  1.2163
  535TIP3    H223241   0.926   0.553   7.269 -2.1091 -0.6484 -0.0930
  536TIP3   OH223242   1.503   3.749   0.567  0.2048  0.2312  0.2982
  536TIP3    H123243   1.547   3.665   0.552  0.0069  0.3767 -1.2886
  536TIP3    H223244   1.437   3.729   0.634 -0.6564 -1.2113 -0.8998
  537TIP3   OH223245   3.043   0.706   0.723  0.1767 -0.2441  0.0516
  537TIP3    H123246   3.028   0.750   0.807 -0.3114  1.2630 -0.7757
  537TIP3    H223247   3.004   0.619   0.734  0.4028 -0.1961  1.4780
  538TIP3   OH223248   3.328   6.843   1.152 -0.3800  0.1962 -0.3620
  538TIP3    H123249   3.302   6.896   1.227  0.2825 -0.3045  0.2238
  538TIP3    H223250   3.423   6.835   1.158 -0.4560 -1.0582 -0.4299
  539TIP3   OH223251   4.148   5.431   1.350 -0.2725  0.1899  0.7320
  539TIP3    H123252   4.052   5.430   1.352 -0.2800 -0.4985  0.3565
  539TIP3    H223253   4.170   5.522   1.332 -0.8931  0.1718 -0.2268
  540TIP3   OH223254   1.541   6.459   8.670  0.0294 -0.0885 -0.1366
  540TIP3    H123255   1.485   6.502   8.735 -2.1125 -0.7462 -1.4634
  540TIP3    H223256   1.480   6.416   8.610  1.9565 -0.4833 -1.9286
  541TIP3   OH223257   6.332   3.376   0.128  0.1530 -0.5053  0.0763
  541TIP3    H123258   6.294   3.438   0.066 -1.3842 -2.1415 -0.6982
  541TIP3    H223259   6.404   3.336   0.081  1.8085  1.2838  0.9161
  542TIP3   OH223260   5.159   2.864   1.038 -0.2097 -0.2845  0.6851
  542TIP3    H123261   5.191   2.784   0.997 -0.3386 -0.1894  0.4002
  542TIP3    H223262   5.239   2.911   1.064 -0.1363 -0.6953  1.2301
  543TIP3   OH223263   1.250   0.273   7.832  0.5827 -0.1249  0.4095
  543TIP3    H123264   1.206   0.351   7.865  0.2297 -0.4208  0.6386
  543TIP3    H223265   1.287   0.232   7.910 -0.2707 -0.8373  0.4500
  544TIP3   OH223266   4.565   6.506   7.131 -0.0196  0.0664  0.1477
  544TIP3    H123267   4.480   6.469   7.107  0.0004  1.4731 -2.4012
  544TIP3    H223268   4.606   6.439   7.185 -2.4331 -0.9531  0.8459
  545TIP3   OH223269   2.361   0.313   8.260 -0.4143 -0.3439 -0.0759
  545TIP3    H123270   2.449   0.279   8.272  0.0070  0.8890  0.4711
  545TIP3    H223271   2.333   0.279   8.175  1.6477  1.4717 -1.5895
  546TIP3   OH223272   0.298   2.959   0.515 -0.3184 -0.1662 -0.4567
  546TIP3    H123273   0.317   2.871   0.483  0.2055 -0.5902  0.9814
  546TIP3    H223274   0.203   2.960   0.528 -0.2830 -0.6219 -0.1694
  547TIP3   OH223275   5.065   0.963   7.006  0.0781  0.2062 -0.1558
  547TIP3    H123276   5.044   1.057   7.007  0.6560  0.3414  0.2802
  547TIP3    H223277   5.035   0.933   6.921 -0.2141  0.7664 -0.2595
  548TIP3   OH223278   4.692   5.728   7.919 -0.1942 -0.2380 -0.0016
  548TIP3    H123279   4.686   5.800   7.856 -1.4427 -1.6668 -1.6202
  548TIP3    H223280   4.602   5.717   7.951  0.2192 -0.2788  1.1973
  549TIP3   OH223281   6.219   3.554   1.397  0.3954 -0.2122  0.2819
  549TIP3    H123282   6.205   3.645   1.424 -0.0479 -0.3727  0.6100
  549TIP3    H223283   6.251   3.560   1.307  1.4373  0.3152  0.6750
  550TIP3   OH223284   3.292   2.975   1.373  0.3834  0.2001  0.1989
  550TIP3    H123285   3.211   2.932   1.347 -0.9374  1.2029  2.4057
  550TIP3    H223286   3.327   2.919   1.442 -0.0240  1.3089  1.3312
  551TIP3   OH223287   4.145   3.804   8.148 -0.1433 -0.3206 -0.1783
  551TIP3    H123288   4.050   3.816   8.155 -0.2721 -0.1335 -1.9581
  551TIP3    H223289   4.156   3.736   8.082  0.9819  0.3689 -0.7213
  552TIP3   OH223290   2.114   6.046   8.071  0.0787  0.7169  0.4396
  552TIP3    H123291   2.171   6.010   8.002  0.5643  1.2289  0.5598
  552TIP3    H223292   2.129   5.989   8.147 -0.0916  0.4384  0.2634
  553TIP3   OH223293   3.192   3.753   7.146  0.1333 -0.3887  0.0597
  553TIP3    H123294   3.227   3.731   7.232  0.5113 -1.3602 -0.3281
  553TIP3    H223295   3.263   3.732   7.085  0.6102  2.1447 -0.3559
  554TIP3   OH223296   0.086   3.386   8.662 -0.1094 -0.1116  0.0754
  554TIP3    H123297   0.058   3.457   8.604 -1.1343 -1.4659 -1.1614
  554TIP3    H223298   0.007   3.363   8.712  0.9392  1.6248  2.8123
  555TIP3   OH223299   2.069   1.729   8.689  0.1267  0.1335  0.4779
  555TIP3    H123300   2.033   1.643   8.711 -2.2774  0.3410 -2.1031
  555TIP3    H223301   2.136   1.709   8.623  2.6647  0.0213  2.9196
  556TIP3   OH223302   4.465   4.823   1.111 -0.5230 -0.0595 -0.5370
  556TIP3    H123303   4.485   4.766   1.037 -0.0151  1.2131 -1.4181
  556TIP3    H223304   4.393   4.878   1.080 -0.7764  0.0146  0.1679
  557TIP3   OH223305   0.395   2.707   0.441  0.5381  0.3669  0.2038
  557TIP3    H123306   0.307   2.689   0.408 -0.0029  2.1609  0.5669
  557TIP3    H223307   0.408   2.643   0.511 -0.0566 -0.5877 -0.5487
  558TIP3   OH223308   5.180   4.804   8.786  0.2373 -0.0019  0.5106
  558TIP3    H123309   5.204   4.714   8.810  2.4538 -0.2791 -2.2350
  558TIP3    H223310   5.105   4.794   8.727  0.4337 -0.0490  0.2683
  559TIP3   OH223311   1.302   4.893   0.393 -0.2691 -0.1046  0.4842
  559TIP3    H123312   1.225   4.949   0.386 -1.2660 -1.4714  0.0155
  559TIP3    H223313   1.287   4.824   0.328  1.0848 -0.6990  0.7728
  560TIP3   OH223314   2.870   5.757   7.681  0.0884 -0.0398  0.0813
  560TIP3    H123315   2.776   5.753   7.667  0.0256 -2.4736  0.8896
  560TIP3    H223316   2.905   5.788   7.597 -1.2644 -1.4204 -1.0488
  561TIP3   OH223317   2.614   0.422   7.044  0.3696 -0.0813 -0.1939
  561TIP3    H123318   2.591   0.329   7.053  1.2263 -0.2720  0.1195
  561TIP3    H223319   2.607   0.457   7.133  1.3873 -0.1759 -0.0675
  562TIP3   OH223320   2.088   1.339   0.905  0.0893 -0.0919  0.0983
  562TIP3    H123321   2.129   1.254   0.922  1.6609  0.9260  1.6921
  562TIP3    H223322   2.008   1.338   0.957  0.5102 -0.2971  0.7472
  563TIP3   OH223323   2.178   0.553   8.646  0.7357  0.0481 -0.4409
  563TIP3    H123324   2.165   0.647   8.641 -0.2131 -0.1053 -1.2781
  563TIP3    H223325   2.210   0.528   8.560  0.0404 -0.5053 -0.5565
  564TIP3   OH223326   3.712   2.838   7.590  0.1883  0.2804  0.6093
  564TIP3    H123327   3.793   2.890   7.591  0.4974 -0.1100 -0.9619
  564TIP3    H223328   3.646   2.895   7.628  0.4577  2.0019 -1.3167
  565TIP3   OH223329   5.919   2.106   7.521  0.6126 -0.1640  0.0119
  565TIP3    H123330   5.841   2.126   7.573  0.2342 -1.1763 -0.1505
  565TIP3    H223331   5.928   2.011   7.526  0.6319 -0.2796 -1.6746
  566TIP3   OH223332   6.477   6.796   8.447  0.0688 -0.1072 -0.4047
  566TIP3    H123333   6.393   6.829   8.415  0.3400  0.1316 -0.8748
  566TIP3    H223334   6.495   6.847   8.526 -0.5024 -0.5563  0.0259
  567TIP3   OH223335   2.983   1.129   6.948 -0.1075 -0.2752  0.2791
  567TIP3    H123336   2.926   1.177   6.888  2.2922  0.1830 -1.7637
  567TIP3    H223337   2.953   1.039   6.943 -1.3842  0.1273  0.2013
  568TIP3   OH223338   5.577   0.604   8.208  0.2369  0.2643  0.6274
  568TIP3    H123339   5.496   0.654   8.200 -0.3902 -1.0678 -3.7019
  568TIP3    H223340   5.549   0.515   8.232  0.6425  0.2191  0.9629
  569TIP3   OH223341   0.301   0.820   7.284  0.1298  0.4094  0.4358
  569TIP3    H123342   0.349   0.903   7.287  1.9957 -0.6412  1.6767
  569TIP3    H223343   0.296   0.799   7.191 -0.6495  2.0308  0.0795
  570TIP3   OH223344   2.489   1.972   1.280 -0.1123 -0.2687 -0.0987
  570TIP3    H123345   2.546   1.992   1.206 -0.5729  0.2074 -0.3316
  570TIP3    H223346   2.454   1.885   1.259  0.6414 -0.6332  0.1250
  571TIP3   OH223347   2.982   2.317   8.033 -0.0535 -0.0837  0.4533
  571TIP3    H123348   3.030   2.373   7.971 -0.4497 -2.2698 -1.9938
  571TIP3    H223349   2.948   2.378   8.099  0.8194  2.3214 -1.1874
  572TIP3   OH223350   5.492   2.340   7.479 -0.2113 -0.5269  0.0666
  572TIP3    H123351   5.465   2.431   7.466 -0.1689 -0.4386  0.5597
  572TIP3    H223352   5.542   2.318   7.400  1.2667  0.4328  0.6801
  573TIP3   OH223353   3.922   3.233   6.955  0.3107 -0.1068 -0.5322
  573TIP3    H123354   3.977   3.247   6.878 -0.2510  0.8203 -0.7782
  573TIP3    H223355   3.952   3.298   7.018  1.1270 -1.2102  0.2526
  574TIP3   OH223356   5.747   4.856   6.881  0.5928 -0.3738  0.6058
  574TIP3    H123357   5.747   4.946   6.912  0.0996 -0.0875 -0.2086
  574TIP3    H223358   5.813   4.854   6.811  2.2802 -1.1985  2.1337
  575TIP3   OH223359   6.469   0.086   0.963  0.5253 -0.0367 -0.6354
  575TIP3    H123360   6.453  -0.007   0.976  0.8961  0.2393  2.4794
  575TIP3    H223361   6.382   0.127   0.966  0.4582 -0.1593 -0.8768
  576TIP3   OH223362   6.042   1.687   7.819 -0.1119 -0.6794 -0.5482
  576TIP3    H123363   6.047   1.711   7.727  1.3639  0.3345 -0.2444
  576TIP3    H223364   6.133   1.670   7.844 -0.1739  1.1187  1.2033
  577TIP3   OH223365   3.395   4.711   1.915  0.9048 -0.5991 -0.0743
  577TIP3    H123366   3.328   4.777   1.934 -0.9672 -2.2966 -0.5467
  577TIP3    H223367   3.449   4.751   1.846 -0.1227  0.4725 -0.2842
  578TIP3   OH223368   0.013   1.733   6.559 -0.0187 -0.2710 -1.0427
  578TIP3    H123369  -0.051   1.801   6.539 -1.1745 -0.6238  1.1323
  578TIP3    H223370  -0.001   1.665   6.494 -1.6881 -0.2156 -0.7701
  579TIP3   OH223371   3.973   5.856   0.277 -0.1589  0.6465 -0.4816
  579TIP3    H123372   4.054   5.846   0.326 -1.1223  0.0614  1.0759
  579TIP3    H223373   3.948   5.948   0.288 -0.0349  0.6730 -0.4284
  580TIP3   OH223374   3.992   0.591   0.297  0.5323  0.1321  0.1244
  580TIP3    H123375   3.971   0.544   0.216  1.3878 -1.0787  0.5641
  580TIP3    H223376   4.025   0.676   0.267 -0.5189  0.2684 -0.7226
  581TIP3   OH223377   2.247   2.087   8.646  0.0905 -0.6537  0.0184
  581TIP3    H123378   2.333   2.113   8.681 -0.2253 -0.1678  0.4544
  581TIP3    H223379   2.206   2.039   8.717 -1.0892  1.4796  0.8712
  582TIP3   OH223380   3.648   5.322   1.305  0.2698 -0.2326  0.1441
  582TIP3    H123381   3.593   5.336   1.228  0.2623  1.0266  0.3647
  582TIP3    H223382   3.591   5.277   1.368  0.7197 -2.7579 -1.1023
  583TIP3   OH223383   6.268   3.007   1.286 -0.0298  0.2664 -0.2674
  583TIP3    H123384   6.190   3.027   1.338  0.9346  0.6056  1.0937
  583TIP3    H223385   6.341   3.012   1.348  1.0827 -0.1083 -1.4907
  584TIP3   OH223386   1.590   4.336   2.173 -0.0345  0.2760 -0.0661
  584TIP3    H123387   1.498   4.324   2.200 -0.2119  0.1154 -0.7265
  584TIP3    H223388   1.623   4.404   2.231 -0.9768  1.3206 -0.7002
  585TIP3   OH223389   1.796   4.842   7.113 -0.3447  0.3158  1.0061
  585TIP3    H123390   1.883   4.847   7.074 -0.2943 -0.7430  0.9513
  585TIP3    H223391   1.739   4.887   7.051 -0.0036  0.0782  0.5106
  586TIP3   OH223392   5.767   1.717   7.865  0.3400 -0.0161  0.5113
  586TIP3    H123393   5.759   1.794   7.809 -0.4995 -0.8900 -0.6417
  586TIP3    H223394   5.855   1.683   7.847  0.1246 -0.2161 -0.2101
  587TIP3   OH223395   4.907   6.671   0.379 -0.0881 -0.6764  0.2572
  587TIP3    H123396   4.922   6.578   0.396  0.9658 -0.1779  2.3832
  587TIP3    H223397   4.963   6.716   0.441 -1.6957  1.4020  0.3031
  588TIP3   OH223398   2.774   5.872   6.624  0.5339 -0.2689  0.3759
  588TIP3    H123399   2.716   5.878   6.547  1.8036 -0.9350 -0.6696
  588TIP3    H223400   2.853   5.920   6.599  0.4935  0.5804  1.7668
  589TIP3   OH223401   2.718   3.033   2.228  0.0023 -0.1736  0.2966
  589TIP3    H123402   2.796   3.036   2.284  0.4916  0.2785 -0.3845
  589TIP3    H223403   2.666   3.109   2.256 -0.4593 -0.7708  1.1047
  590TIP3   OH223404   6.046   4.307   0.646 -0.0495 -0.3498 -0.6847
  590TIP3    H123405   6.004   4.236   0.694 -1.3869 -0.2145 -1.6096
  590TIP3    H223406   5.998   4.312   0.563  0.3605  1.2873 -0.8554
  591TIP3   OH223407   3.235   2.291   7.797 -0.1965 -0.1135 -0.0632
  591TIP3    H123408   3.201   2.247   7.720  0.4294 -2.5896  0.9947
  591TIP3    H223409   3.304   2.348   7.763 -0.1125 -0.9516 -1.3613
  592TIP3   OH223410   2.865   1.082   0.860 -0.0194 -0.5880 -0.5796
  592TIP3    H123411   2.871   1.048   0.771  0.4665 -0.4273 -0.6156
  592TIP3    H223412   2.783   1.048   0.894 -0.0209 -0.9687 -0.9566
  593TIP3   OH223413   0.704   1.819   8.647  0.1139 -0.0587 -0.4699
  593TIP3    H123414   0.773   1.860   8.698  0.1795  0.2372 -0.7916
  593TIP3    H223415   0.675   1.744   8.700 -0.6896  0.9684  0.6063
  594TIP3   OH223416   4.240   3.250   8.795  0.3534  0.3239 -0.1524
  594TIP3    H123417   4.173   3.282   8.734 -0.8758  2.2072  2.0081
  594TIP3    H223418   4.311   3.219   8.738 -1.4633  0.1852 -2.5228
  595TIP3   OH223419   2.352   1.072   8.660 -0.1086 -0.2989  0.3337
  595TIP3    H123420   2.318   1.143   8.714  0.7432  1.2308 -1.0689
  595TIP3    H223421   2.443   1.095   8.644 -0.1303 -1.0990 -1.1339
  596TIP3   OH223422   6.004   2.013   8.428  0.2286 -0.1015 -0.2311
  596TIP3    H123423   5.912   2.023   8.454  0.0543  0.2672 -0.9681
  596TIP3    H223424   6.053   2.031   8.508 -0.3495 -0.6069  0.2460
  597TIP3   OH223425   0.382   1.339   8.523 -0.6739  0.1166 -0.2453
  597TIP3    H123426   0.449   1.278   8.494 -1.3594 -0.1484 -1.3334
  597TIP3    H223427   0.428   1.423   8.530  0.0118 -0.2833  0.1343
  598TIP3   OH223428   4.560   1.581   0.711 -0.2480  0.7275 -0.1564
  598TIP3    H123429   4.608   1.566   0.793  0.4280 -0.6126 -0.7496
  598TIP3    H223430   4.468   1.563   0.733  0.1171 -1.2627 -0.0059
  599TIP3   OH223431   1.575   0.500   0.346  0.1516  0.0983  0.5447
  599TIP3    H123432   1.482   0.509   0.365 -0.1978 -1.5635 -0.1534
  599TIP3    H223433   1.618   0.564   0.403 -1.3491  0.3250  1.4710
  600TIP3   OH223434   0.599   5.353   6.689 -0.0659 -0.2020  0.4857
  600TIP3    H123435   0.663   5.425   6.691  0.9522 -0.9279 -1.9777
  600TIP3    H223436   0.574   5.346   6.597  0.2122 -3.2621  0.5475
  601TIP3   OH223437   3.774   1.437   8.533 -0.8799  0.1598  0.3063
  601TIP3    H123438   3.855   1.489   8.525 -0.4665 -0.3314  1.1500
  601TIP3    H223439   3.706   1.495   8.499 -0.1424  0.4966 -0.6374
  602TIP3   OH223440   0.601   3.409   8.188 -0.3762  0.0956 -0.3799
  602TIP3    H123441   0.554   3.453   8.118 -1.0082  1.2028  0.7142
  602TIP3    H223442   0.669   3.358   8.143 -0.6508  0.9217 -1.7722
  603TIP3   OH223443   0.826   6.785   7.565  0.3875 -0.0801 -0.2328
  603TIP3    H123444   0.804   6.876   7.584  1.0484  0.4682 -1.9241
  603TIP3    H223445   0.873   6.754   7.643 -1.3341  0.4685  1.0597
  604TIP3   OH223446   6.850   1.103   8.289 -0.4327 -0.3068  0.3359
  604TIP3    H123447   6.898   1.055   8.221 -0.3177  0.8447 -0.4330
  604TIP3    H223448   6.883   1.068   8.372  2.2289  0.8681 -0.1516
  605TIP3   OH223449   4.117   2.087   1.478 -0.5010  0.4906 -0.1353
  605TIP3    H123450   4.052   2.026   1.442 -2.3599  2.0600  0.3683
  605TIP3    H223451   4.154   2.041   1.553 -1.0406 -0.4672 -0.4366
  606TIP3   OH223452   4.156   3.839   0.388  0.3124 -0.0912 -0.3268
  606TIP3    H123453   4.126   3.850   0.298  0.5521  2.0928 -0.2084
  606TIP3    H223454   4.079   3.808   0.436 -0.3253  0.4684 -0.9639
  607TIP3   OH223455   2.516   1.365   7.450  0.0008 -0.1478 -0.1779
  607TIP3    H123456   2.550   1.287   7.493  0.5399  1.3896  2.3764
  607TIP3    H223457   2.461   1.407   7.516 -1.0653  1.1601 -1.8097
  608TIP3   OH223458   1.821   1.151   0.771  0.2631 -0.3357 -0.1344
  608TIP3    H123459   1.905   1.185   0.802  0.3172 -2.3614  2.2991
  608TIP3    H223460   1.756   1.209   0.811  0.4096  1.2926 -2.0979
  609TIP3   OH223461   1.999   6.755   0.516  1.1487  0.0802  0.7091
  609TIP3    H123462   2.067   6.750   0.584  1.7177 -1.6367  0.0753
  609TIP3    H223463   2.020   6.683   0.456  0.6074  1.4746 -1.2536
  610TIP3   OH223464   2.275   2.680   8.402 -0.4509 -0.1366  0.2343
  610TIP3    H123465   2.260   2.720   8.317  0.2130 -1.9320 -0.7744
  610TIP3    H223466   2.230   2.596   8.397  2.2350 -1.6816  0.4437
  611TIP3   OH223467   3.237   1.028   6.777  0.2059 -0.2027  0.5858
  611TIP3    H123468   3.202   0.966   6.840  2.3964 -1.1166  0.9867
  611TIP3    H223469   3.332   1.020   6.785  0.5556  1.2108 -1.3205
  612TIP3   OH223470   2.972   5.829   1.126  0.0848  0.0764  0.0706
  612TIP3    H123471   2.980   5.757   1.064 -0.4336 -0.1810  0.3015
  612TIP3    H223472   2.939   5.789   1.206 -0.8013  0.6667  0.0067
  613TIP3   OH223473   2.014   4.979   1.211  0.3565  0.1135  0.0427
  613TIP3    H123474   1.938   4.924   1.230 -0.4212  1.1480 -0.0009
  613TIP3    H223475   1.998   5.013   1.123  0.9497  0.2146 -0.0286
  614TIP3   OH223476   5.784   5.070   1.238  0.2742 -0.2177  0.0642
  614TIP3    H123477   5.834   4.990   1.221  0.0769 -0.7611  1.7730
  614TIP3    H223478   5.842   5.141   1.213  0.6336 -0.8860 -1.0503
  615TIP3   OH223479   2.785   1.093   6.740 -0.1972 -0.5066 -0.1974
  615TIP3    H123480   2.742   1.047   6.667 -1.3926  0.2923 -0.0190
  615TIP3    H223481   2.778   1.032   6.814 -1.3737 -0.2533 -0.0775
  616TIP3   OH223482   6.380   2.542   2.501 -0.5410  0.2393 -0.0605
  616TIP3    H123483   6.465   2.567   2.465 -1.0694  0.5165 -1.1616
  616TIP3    H223484   6.365   2.605   2.571  0.0280  0.3714 -0.0497
  617TIP3   OH223485   0.690   5.943   0.649  0.1951  0.5693  0.1832
  617TIP3    H123486   0.722   5.917   0.735 -1.8254  0.9342  1.1017
  617TIP3    H223487   0.602   5.977   0.665  0.4485  2.3804 -1.7791
  618TIP3   OH223488   4.080   6.578   8.200  0.5149 -0.1085 -0.3269
  618TIP3    H123489   4.013   6.604   8.137  0.3253  0.4686  0.0985
  618TIP3    H223490   4.158   6.563   8.147  1.1800  3.1717 -0.4956
  619TIP3   OH223491   4.677   2.851   6.515 -0.3285 -0.2087 -0.2531
  619TIP3    H123492   4.727   2.922   6.555 -1.1258  0.7676 -0.9594
  619TIP3    H223493   4.744   2.792   6.480  0.3457  1.0115 -1.0742
  620TIP3   OH223494   0.671   5.105   7.121 -0.1247  0.4320 -0.1815
  620TIP3    H123495   0.579   5.106   7.093 -1.1043  1.1976  2.7811
  620TIP3    H223496   0.700   5.196   7.114  1.2318 -0.0995 -3.2099
  621TIP3   OH223497   0.825   3.110   0.210 -0.5605 -0.0959  0.2035
  621TIP3    H123498   0.916   3.097   0.183 -0.6007  1.7221 -0.9203
  621TIP3    H223499   0.826   3.192   0.260 -1.3538 -0.8441  1.5084
  622TIP3   OH223500   1.473   0.621   1.430 -0.0637  0.2115  0.1969
  622TIP3    H123501   1.408   0.685   1.461  0.5717  1.3571 -0.7325
  622TIP3    H223502   1.548   0.674   1.404  0.5939 -0.9470 -0.3538
  623TIP3   OH223503   4.233   6.653   8.630 -0.1052  0.2611  0.2863
  623TIP3    H123504   4.146   6.631   8.595  0.5646 -2.1159 -0.0554
  623TIP3    H223505   4.294   6.614   8.568  1.1746 -0.3299  1.8730
  624TIP3   OH223506   0.797   4.003   0.538 -0.0030 -0.3524 -0.4659
  624TIP3    H123507   0.816   4.026   0.447  0.1162 -0.2314 -0.4115
  624TIP3    H223508   0.706   4.028   0.550  0.0052 -0.2909 -0.5280
  625TIP3   OH223509   6.849   2.938   0.466  0.6177 -0.7626 -0.3499
  625TIP3    H123510   6.773   2.981   0.425  1.2377  0.2602 -0.4646
  625TIP3    H223511   6.853   2.976   0.554  0.9011 -0.9342 -0.2873
  626TIP3   OH223512   5.030   5.172   0.285 -0.2477 -0.1444  0.0970
  626TIP3    H123513   4.991   5.257   0.263  1.1744  0.3553 -0.6291
  626TIP3    H223514   4.967   5.132   0.346  0.4076  2.7241  2.9586
  627TIP3   OH223515   0.266   2.353   1.330  0.0288  0.2270  0.0037
  627TIP3    H123516   0.314   2.422   1.284 -0.4900 -0.3008 -1.3807
  627TIP3    H223517   0.265   2.280   1.269 -0.4541 -0.6073  0.9804
  628TIP3   OH223518   0.619   0.715   2.580  0.1336 -0.7212  0.6757
  628TIP3    H123519   0.570   0.639   2.549  0.8195 -1.2291  0.7980
  628TIP3    H223520   0.701   0.678   2.614  1.1705  0.2096 -0.6906
  629TIP3   OH223521   3.206   4.635   0.455  0.6928  0.1726  0.0832
  629TIP3    H123522   3.207   4.705   0.520  0.9017  1.0241 -0.8155
  629TIP3    H223523   3.114   4.612   0.445  0.5144  1.0747 -0.4021
  630TIP3   OH223524   0.909   5.924   1.494 -0.2177  0.2988  0.0690
  630TIP3    H123525   0.904   5.828   1.489  0.0053  0.3470 -1.4492
  630TIP3    H223526   0.891   5.944   1.586  0.8049 -1.2695  0.6520
  631TIP3   OH223527   4.558   2.403   1.449 -0.0584 -0.2925 -0.1010
  631TIP3    H123528   4.647   2.371   1.468 -1.0695 -2.1679  1.9578
  631TIP3    H223529   4.561   2.430   1.357  2.7325  0.1016  0.0208
  632TIP3   OH223530   2.065   5.405   8.317 -0.2926 -0.5272 -0.3228
  632TIP3    H123531   2.023   5.464   8.254 -0.2232 -0.4607 -0.3069
  632TIP3    H223532   2.128   5.461   8.363 -2.2489  0.1124  1.7148
  633TIP3   OH223533   6.334   6.795   8.800 -0.0920 -0.7033 -0.0147
  633TIP3    H123534   6.290   6.853   8.861  1.3905 -1.8580  2.3067
  633TIP3    H223535   6.263   6.758   8.746 -1.4021  0.7080  0.6753
  634TIP3   OH223536   6.776   6.205   8.515 -0.2592 -0.3079 -0.0420
  634TIP3    H123537   6.724   6.286   8.514 -0.2424 -0.2295  1.8630
  634TIP3    H223538   6.806   6.195   8.425 -1.8580  0.7631 -0.7440
  635TIP3   OH223539   4.109   4.162   7.904 -0.0532  0.7222  0.1541
  635TIP3    H123540   4.132   4.251   7.931 -0.8594  0.9469  0.1184
  635TIP3    H223541   4.015   4.154   7.922  0.0959 -0.2734  0.5701
  636TIP3   OH223542   2.901   3.014   8.191  0.4105  0.2903  0.2786
  636TIP3    H123543   2.816   3.045   8.160  0.6865  0.9592  0.1881
  636TIP3    H223544   2.922   3.070   8.265  0.7472  0.0835  0.3420
  637TIP3   OH223545   0.067   3.640   1.367  0.3095  0.7712  0.2145
  637TIP3    H123546   0.149   3.619   1.323 -0.0726 -0.5272  0.0905
  637TIP3    H223547  -0.000   3.631   1.300  0.1574  3.2309 -0.0647
  638TIP3   OH223548   5.156   6.334   7.036 -0.4097 -0.4983 -0.0489
  638TIP3    H123549   5.096   6.304   6.968  0.8537 -2.2274 -0.4846
  638TIP3    H223550   5.100   6.349   7.112 -1.5661 -0.7078 -0.8367
  639TIP3   OH223551   4.743   1.303   6.878 -0.0759 -0.1093 -0.5924
  639TIP3    H123552   4.786   1.275   6.797  0.2499  1.4518 -0.9940
  639TIP3    H223553   4.687   1.376   6.852 -1.2288 -0.6422  0.3216
  640TIP3   OH223554   6.497   4.214   1.354  0.0821 -0.4110 -0.0876
  640TIP3    H123555   6.555   4.287   1.375  0.2501 -0.7481  0.6479
  640TIP3    H223556   6.433   4.213   1.426  0.8486 -1.7808  0.6049
  641TIP3   OH223557   1.195   2.994   1.399 -0.3814  0.6653 -0.3696
  641TIP3    H123558   1.230   2.970   1.313 -1.0357 -0.2717 -0.3860
  641TIP3    H223559   1.103   3.013   1.382 -0.2768  1.5109 -0.0423
  642TIP3   OH223560   6.391   0.936   8.056 -0.5131  0.0852  0.3491
  642TIP3    H123561   6.404   0.863   8.117  0.1359 -0.1084 -0.0066
  642TIP3    H223562   6.477   0.979   8.051 -0.3429 -0.3622 -0.9980
  643TIP3   OH223563   4.932   0.416   1.261  0.1097  0.5143  0.3452
  643TIP3    H123564   4.923   0.492   1.318  1.0132 -0.2532  1.5562
  643TIP3    H223565   4.921   0.451   1.172 -0.5203  1.8672  0.9301
  644TIP3   OH223566   0.702   1.834   7.873  0.1882  0.1872 -0.3124
  644TIP3    H123567   0.751   1.814   7.952  0.4857  0.2765 -0.4732
  644TIP3    H223568   0.627   1.886   7.904 -0.4372 -0.9115  0.0692
  645TIP3   OH223569   0.305   0.438   1.551 -0.1379  0.1317 -0.0177
  645TIP3    H123570   0.217   0.471   1.569 -0.2162 -1.2330  2.4816
  645TIP3    H223571   0.364   0.497   1.598 -0.0120 -0.9867  1.2789
  646TIP3   OH223572   2.065   5.794   8.423  0.2572 -0.3592 -0.6691
  646TIP3    H123573   2.032   5.797   8.513  0.1741  0.5808 -0.7127
  646TIP3    H223574   1.999   5.744   8.375 -0.3862  0.2604 -0.4598
  647TIP3   OH223575   3.005   5.415   6.944  0.0155  0.0327 -1.0624
  647TIP3    H123576   2.932   5.474   6.923  2.2465  3.2303 -0.5522
  647TIP3    H223577   3.064   5.421   6.869  2.0654  1.5435  0.5612
  648TIP3   OH223578   2.406   6.109   7.456 -0.0765  0.4905  0.5324
  648TIP3    H123579   2.486   6.087   7.407  0.9716 -1.7056  3.0047
  648TIP3    H223580   2.352   6.030   7.450 -1.1480  1.1842  0.6980
  649TIP3   OH223581   6.473   1.897   7.130  0.3436 -0.5712  0.1911
  649TIP3    H123582   6.488   1.988   7.103  1.3712 -0.6488  0.4402
  649TIP3    H223583   6.479   1.846   7.049 -0.9384 -0.3596 -0.0573
  650TIP3   OH223584   1.266   2.007   1.888 -0.4264  0.5673  0.0900
  650TIP3    H123585   1.241   1.920   1.855 -0.0127  0.0755  1.0447
  650TIP3    H223586   1.330   1.989   1.956 -0.9656  1.5895  0.8869
  651TIP3   OH223587   3.450   3.065   0.450  0.1580 -0.4212 -0.0517
  651TIP3    H123588   3.458   3.014   0.370 -1.2775 -2.4768  1.0298
  651TIP3    H223589   3.538   3.100   0.465  0.2669  0.7910 -2.9267
  652TIP3   OH223590   5.191   2.130   0.978 -0.7130  0.2789  0.7573
  652TIP3    H123591   5.173   2.125   0.884  0.6069  0.7415  0.4619
  652TIP3    H223592   5.243   2.052   0.997  0.9849  1.3484  0.6230
  653TIP3   OH223593   6.800   3.994   0.346 -0.3553  0.5279 -0.2633
  653TIP3    H123594   6.717   4.037   0.323 -0.7535  0.1874  0.5120
  653TIP3    H223595   6.853   4.063   0.384 -0.9661  0.3684  0.9118
  654TIP3   OH223596   0.516   3.122   2.328 -0.1531 -0.1378  0.0009
  654TIP3    H123597   0.565   3.046   2.357  0.5896 -1.8482 -4.7869
  654TIP3    H223598   0.424   3.095   2.332  0.0708 -1.1350 -1.0837
  655TIP3   OH223599   3.902   3.669   1.325 -0.2698  0.1484  0.5731
  655TIP3    H123600   3.827   3.653   1.383  0.2318 -0.5620  1.0582
  655TIP3    H223601   3.944   3.583   1.318 -0.0434  0.3393 -0.4608
  656TIP3   OH223602   6.067   1.892   1.840 -0.5464 -0.0667 -0.3006
  656TIP3    H123603   6.128   1.849   1.900 -0.6177  0.6107  0.2682
  656TIP3    H223604   6.042   1.824   1.777 -0.3598 -0.7379  0.3499
  657TIP3   OH223605   5.478   6.726   0.265  0.0690 -0.5894  0.6009
  657TIP3    H123606   5.555   6.673   0.282  0.3016 -1.3305 -2.2257
  657TIP3    H223607   5.500   6.775   0.185 -1.8286  0.3118  0.5762
  658TIP3   OH223608   0.863   2.963   1.406  0.5566  0.0056 -0.1556
  658TIP3    H123609   0.884   3.033   1.468  1.8184 -0.3842 -0.1170
  658TIP3    H223610   0.851   2.885   1.460  0.8354 -0.1559 -0.3187
  659TIP3   OH223611   4.381   2.985   8.749  0.2618  0.3300  0.4100
  659TIP3    H123612   4.321   2.946   8.813 -0.1493 -1.6667 -1.0894
  659TIP3    H223613   4.462   2.999   8.797 -0.5483  0.4970  1.7795
  660TIP3   OH223614   2.001   4.830   2.157  0.1529  0.3811 -0.0879
  660TIP3    H123615   1.974   4.741   2.177 -0.2019  0.7311  1.0773
  660TIP3    H223616   2.088   4.838   2.196  0.3109  0.4534 -0.4520
  661TIP3   OH223617   4.981   0.765   2.541  0.1339 -0.0673  0.0669
  661TIP3    H123618   4.887   0.748   2.551 -0.4218  2.8851  0.8364
  661TIP3    H223619   4.991   0.783   2.447 -0.0774 -0.3364 -0.0099
  662TIP3   OH223620   5.788   2.390   6.652  0.2370 -0.3905  0.3589
  662TIP3    H123621   5.883   2.402   6.659  0.2528 -0.2161 -0.1580
  662TIP3    H223622   5.773   2.300   6.683  0.2540  0.4630  3.0951
  663TIP3   OH223623   1.666   2.291   7.393  0.0643 -0.1529 -0.4006
  663TIP3    H123624   1.634   2.338   7.470 -0.5296  0.4858 -1.0304
  663TIP3    H223625   1.594   2.295   7.331  0.2053 -1.4498 -0.6688
  664TIP3   OH223626   6.079   1.330   0.350  0.0460  0.1882  0.3037
  664TIP3    H123627   6.148   1.302   0.289 -0.2013  0.3089 -0.0316
  664TIP3    H223628   6.039   1.248   0.380 -1.7955  0.1856 -1.9547
  665TIP3   OH223629   3.071   4.760   7.671 -0.5317 -0.4316 -0.3265
  665TIP3    H123630   3.115   4.797   7.594  0.1160  1.2644  0.7768
  665TIP3    H223631   3.066   4.834   7.733 -1.1846 -1.6842  1.1861
  666TIP3   OH223632   4.300   3.911   8.535 -0.1476 -0.1995 -0.5581
  666TIP3    H123633   4.273   3.980   8.597 -0.9505  0.4128 -1.5516
  666TIP3    H223634   4.294   3.830   8.585 -1.5171  0.2014 -0.0291
  667TIP3   OH223635   4.738   5.078   0.680 -0.1047 -0.0406  0.5559
  667TIP3    H123636   4.763   5.152   0.736  0.2468 -0.6948  1.2899
  667TIP3    H223637   4.653   5.050   0.713 -0.2621  0.0806  0.2458
  668TIP3   OH223638   1.955   4.195   8.696  0.8083  0.4069 -0.1655
  668TIP3    H123639   1.996   4.157   8.619  1.1060  0.5798 -0.0957
  668TIP3    H223640   1.863   4.208   8.671  1.2304  1.9358 -1.0584
  669TIP3   OH223641   6.151   0.836   7.534  0.4233 -0.3206 -0.0870
  669TIP3    H123642   6.139   0.929   7.514 -1.0549 -0.1316  1.4298
  669TIP3    H223643   6.082   0.816   7.596  2.2425 -1.8248  1.5854
  670TIP3   OH223644   2.449   4.269   7.036 -0.6643 -0.4745  0.1542
  670TIP3    H123645   2.477   4.281   6.946 -0.6188  1.5219  0.3688
  670TIP3    H223646   2.353   4.265   7.030 -0.5984 -1.8582 -0.1019
  671TIP3   OH223647   5.567   1.036   7.676  0.3311  0.1829 -0.0312
  671TIP3    H123648   5.530   1.116   7.714  1.1305  0.3875  0.3342
  671TIP3    H223649   5.617   1.066   7.600  1.4583  0.1715  0.6744
  672TIP3   OH223650   0.941   4.303   8.605 -0.4484 -0.7978  0.1216
  672TIP3    H123651   0.846   4.302   8.608 -0.4372 -1.5816  2.7627
  672TIP3    H223652   0.966   4.214   8.581 -0.3415 -0.4845 -1.0042
  673TIP3   OH223653   6.449   3.908   8.627  0.0941  0.1719  0.1428
  673TIP3    H123654   6.410   3.984   8.582 -1.4149  1.1719  2.8957
  673TIP3    H223655   6.386   3.887   8.696  1.7479 -1.9615  1.0916
  674TIP3   OH223656   6.639   6.644   1.740 -0.2627  0.5099 -0.0765
  674TIP3    H123657   6.560   6.636   1.686 -0.5009 -0.8759  0.4429
  674TIP3    H223658   6.689   6.715   1.699 -1.4555  0.9551 -0.8071
  675TIP3   OH223659   2.675   4.194   7.438  0.8448  0.7264 -0.4184
  675TIP3    H123660   2.733   4.193   7.514  0.2260 -0.1303  0.0630
  675TIP3    H223661   2.589   4.219   7.473  0.2761 -0.8428 -0.5994
  676TIP3   OH223662   0.846   4.951   7.326 -0.0124 -0.1797  0.3559
  676TIP3    H123663   0.920   5.009   7.341  0.0376  0.0220 -0.6126
  676TIP3    H223664   0.773   5.009   7.305  0.0286 -0.4452 -0.5818
  677TIP3   OH223665   6.419   5.430   8.176 -0.5142 -0.3268 -0.4445
  677TIP3    H123666   6.355   5.459   8.111  0.7650  2.1388 -0.7418
  677TIP3    H223667   6.373   5.438   8.260 -0.9770  0.3026 -0.7447
  678TIP3   OH223668   5.124   5.092   8.408  0.7567  0.1086  0.2951
  678TIP3    H123669   5.099   5.112   8.498 -0.5894  1.2525 -0.2965
  678TIP3    H223670   5.043   5.101   8.357  1.5960  0.0677 -1.1235
  679TIP3   OH223671   3.122   3.092   0.756  0.2215 -0.1860 -0.2843
  679TIP3    H123672   3.166   3.034   0.818 -2.1235 -1.0344  0.7251
  679TIP3    H223673   3.105   3.036   0.680 -1.9611 -0.9174  0.6544
  680TIP3   OH223674   4.309   1.250   0.958  0.1239  0.4090 -0.1725
  680TIP3    H123675   4.326   1.167   0.912 -0.4202  0.8695 -1.2301
  680TIP3    H223676   4.396   1.285   0.976  0.3588  0.2701 -0.9739
  681TIP3   OH223677   1.513   4.439   8.409  0.5592  0.4423 -0.2145
  681TIP3    H123678   1.596   4.473   8.443 -0.5535  1.6455  1.4426
  681TIP3    H223679   1.514   4.461   8.316  0.7551  3.3898  0.3800
  682TIP3   OH223680   2.245   3.326   7.985  0.0732  0.1729  0.2964
  682TIP3    H123681   2.327   3.355   7.946  1.1009 -1.2082  1.3506
  682TIP3    H223682   2.193   3.293   7.912  0.9876 -0.1685 -0.2044
  683TIP3   OH223683   0.135   1.744   8.687  0.0691 -0.4127  0.0882
  683TIP3    H123684   0.189   1.822   8.698 -0.8062  0.1733  0.3188
  683TIP3    H223685   0.045   1.777   8.690 -0.2955 -1.2401 -1.2410
  684TIP3   OH223686   6.580   4.743   0.811  0.2576 -0.1066  0.5010
  684TIP3    H123687   6.637   4.675   0.775 -0.4604 -0.6998  0.4429
  684TIP3    H223688   6.509   4.694   0.853 -1.5465  0.5942 -1.5512
  685TIP3   OH223689   3.563   4.379   1.657  0.5241  0.1819  0.2167
  685TIP3    H123690   3.501   4.439   1.617 -1.0735 -1.4401  0.1375
  685TIP3    H223691   3.553   4.391   1.751 -0.1810 -0.3131  0.2102
  686TIP3   OH223692   5.171   2.221   1.808 -0.3070  0.0857 -0.4657
  686TIP3    H123693   5.219   2.184   1.734  0.3944 -1.4473  0.6993
  686TIP3    H223694   5.216   2.187   1.885 -0.8502  1.8512  0.6975
  687TIP3   OH223695   1.371   1.765   1.713  0.7819  0.3036 -0.2012
  687TIP3    H123696   1.289   1.763   1.665  1.4657  1.0561 -1.4655
  687TIP3    H223697   1.358   1.704   1.785 -0.6902  0.0107 -0.6769
  688TIP3   OH223698   1.707   2.102   8.743 -0.0778 -0.4878  0.1314
  688TIP3    H123699   1.754   2.019   8.753  1.6095  0.3061 -0.8097
  688TIP3    H223700   1.678   2.103   8.652  0.1280  0.0686  0.0712
  689TIP3   OH223701   0.217   4.386   6.754  0.6571  0.1198  0.3787
  689TIP3    H123702   0.193   4.464   6.803  0.0799  0.4169 -0.3588
  689TIP3    H223703   0.295   4.412   6.703  1.6070 -0.3586  1.5379
  690TIP3   OH223704   5.522   6.504   1.002 -0.4897  0.7097  0.5275
  690TIP3    H123705   5.449   6.453   0.966  2.4809 -2.2338 -2.0153
  690TIP3    H223706   5.557   6.449   1.072  1.6043 -0.0013 -0.9712
  691TIP3   OH223707   0.263   0.457   7.211 -0.4700 -0.4635  0.4773
  691TIP3    H123708   0.306   0.379   7.248 -2.7105 -1.8616  0.3182
  691TIP3    H223709   0.297   0.463   7.122  0.2525 -0.8292  0.7154
  692TIP3   OH223710   6.814   1.791   1.394 -0.5439 -0.3141 -0.0632
  692TIP3    H123711   6.898   1.785   1.440 -0.8859  0.0510  0.6272
  692TIP3    H223712   6.791   1.884   1.398 -0.3641 -0.1908 -1.3849
  693TIP3   OH223713   6.635   1.559   7.362  0.0477 -0.3336  0.2992
  693TIP3    H123714   6.625   1.509   7.281  0.3150  0.2584 -0.1096
  693TIP3    H223715   6.572   1.631   7.353 -0.9232 -1.0256  1.2420
  694TIP3   OH223716   4.917   5.374   0.128  0.1731  0.6810  0.0782
  694TIP3    H123717   4.856   5.444   0.148 -0.4287 -0.0133  0.6994
  694TIP3    H223718   4.969   5.408   0.054 -0.1923  1.7133  0.2827
  695TIP3   OH223719   1.978   2.246   0.078 -0.1862 -0.0801 -0.7660
  695TIP3    H123720   1.884   2.224   0.077 -0.2501  0.1852 -1.4876
  695TIP3    H223721   2.003   2.240   0.170 -0.6533 -1.2273 -0.6881
  696TIP3   OH223722   4.434   2.492   1.212 -0.4588  0.4759  0.3007
  696TIP3    H123723   4.408   2.421   1.152 -0.0352 -0.2428  0.9520
  696TIP3    H223724   4.391   2.569   1.177 -1.2232 -0.1711 -0.2228
  697TIP3   OH223725   0.815   3.123   8.370  0.2101  0.2379 -0.4703
  697TIP3    H123726   0.838   3.032   8.354 -0.7120 -0.0573 -0.1713
  697TIP3    H223727   0.825   3.166   8.285 -0.6776 -0.4379 -0.9325
  698TIP3   OH223728   1.513   2.908   0.952 -0.0310 -0.2689  0.5424
  698TIP3    H123729   1.455   2.928   1.026  1.3428  1.2149  1.2674
  698TIP3    H223730   1.493   2.817   0.931 -1.7651 -0.1684  1.5281
  699TIP3   OH223731   0.349   3.829   7.505  0.0571  0.1531  0.1785
  699TIP3    H123732   0.277   3.878   7.544 -0.0766 -0.8226  1.2302
  699TIP3    H223733   0.353   3.859   7.415 -1.9717 -0.1046 -0.0457
  700TIP3   OH223734   6.230   0.874   0.115  0.1255 -0.2347  0.4616
  700TIP3    H123735   6.257   0.918   0.035 -0.7732 -0.3645  0.0699
  700TIP3    H223736   6.134   0.877   0.113  0.0946  0.1143  1.7332
  701TIP3   OH223737   6.407   1.488   0.283  0.0674  0.1336 -0.0615
  701TIP3    H123738   6.313   1.476   0.283  0.0195  0.4540 -0.8030
  701TIP3    H223739   6.423   1.558   0.219  0.5622  2.0808  2.0683
  702TIP3   OH223740   6.563   1.182   1.658 -0.1869 -0.1268  0.1612
  702TIP3    H123741   6.651   1.178   1.694  0.4046 -1.1893 -1.2835
  702TIP3    H223742   6.575   1.168   1.564 -2.0372 -2.1355  0.1566
  703TIP3   OH223743   4.560   0.840   0.431  0.1156 -0.6545 -0.4041
  703TIP3    H123744   4.591   0.858   0.520  0.5775  0.9601 -0.8446
  703TIP3    H223745   4.465   0.831   0.440  0.2189 -1.1026  0.3231
  704TIP3   OH223746   6.778   6.183   1.067  0.1757  0.4503 -0.4008
  704TIP3    H123747   6.844   6.183   0.997  0.3152 -2.0859 -0.3656
  704TIP3    H223748   6.808   6.114   1.128 -1.0510  1.1589  1.0718
  705TIP3   OH223749   2.934   1.832   1.545 -0.4447  0.5902 -0.6322
  705TIP3    H123750   2.855   1.787   1.575  0.6706 -0.7482  0.4134
  705TIP3    H223751   2.990   1.763   1.509  1.2143  1.1044  0.7883
  706TIP3   OH223752   5.319   6.689   8.474 -0.4217 -0.2028 -0.5635
  706TIP3    H123753   5.258   6.762   8.487  0.1798  0.3794 -0.9497
  706TIP3    H223754   5.391   6.707   8.534 -0.4111 -0.6419 -0.4405
  707TIP3   OH223755   1.577   0.141   8.150  0.0407 -0.2715  0.1489
  707TIP3    H123756   1.573   0.086   8.228  0.3492 -0.8500 -0.2329
  707TIP3    H223757   1.654   0.196   8.163 -0.9773  0.9978  1.1134
  708TIP3   OH223758   5.039   0.629   6.644 -0.3220 -0.2472  0.2484
  708TIP3    H123759   5.005   0.540   6.652  0.2357 -0.6131 -1.1704
  708TIP3    H223760   5.105   0.624   6.575 -2.2059  1.7873 -1.8859
  709TIP3   OH223761   4.938   6.565   8.557  0.4441 -0.2599  0.0658
  709TIP3    H123762   5.021   6.612   8.547  1.0986 -1.6466 -1.5262
  709TIP3    H223763   4.883   6.596   8.485 -0.0730 -0.0695  0.5333
  710TIP3   OH223764   0.513   3.699   0.633 -0.5261  0.4636 -0.5758
  710TIP3    H123765   0.583   3.736   0.687  0.3279 -0.3607 -1.0852
  710TIP3    H223766   0.499   3.611   0.668 -1.5253  0.7164 -0.2965
  711TIP3   OH223767   5.246   1.233   1.202  0.1449  0.2107  0.0495
  711TIP3    H123768   5.181   1.180   1.156  0.6595 -0.1833 -0.2401
  711TIP3    H223769   5.324   1.228   1.147  0.5802  0.2564  0.6505
  712TIP3   OH223770   4.067   2.266   8.678 -0.0685  0.1024 -0.1221
  712TIP3    H123771   4.019   2.346   8.698 -0.5507 -0.0980 -0.4818
  712TIP3    H223772   4.130   2.258   8.750  0.3522  1.0931 -0.3631
  713TIP3   OH223773   5.267   2.583   0.677  0.5992  0.0522  0.2593
  713TIP3    H123774   5.285   2.633   0.598 -0.0982 -0.0878  0.0074
  713TIP3    H223775   5.335   2.516   0.679  2.0543  1.4724  1.0343
  714TIP3   OH223776   1.386   4.809   7.039 -0.1590 -0.3247 -0.3612
  714TIP3    H123777   1.464   4.777   6.993  0.5945 -1.6504  1.7173
  714TIP3    H223778   1.418   4.836   7.125 -1.9961 -1.2288  0.6794
  715TIP3   OH223779   2.070   0.858   8.352 -0.8161  0.0304  0.8659
  715TIP3    H123780   2.000   0.838   8.414 -1.0092  0.9931  0.9701
  715TIP3    H223781   2.056   0.795   8.280 -3.0242  1.4514 -0.0574
  716TIP3   OH223782   5.186   0.668   7.444 -0.4760 -0.5315  0.3987
  716TIP3    H123783   5.103   0.672   7.396 -1.5287 -0.8334  2.1260
  716TIP3    H223784   5.245   0.620   7.385 -0.7884  1.6251 -1.8258
  717TIP3   OH223785   2.562   1.570   0.632  0.3663 -0.2773 -0.2200
  717TIP3    H123786   2.510   1.567   0.711 -2.6044 -3.2212 -2.0231
  717TIP3    H223787   2.608   1.486   0.630  1.4566  0.3046 -0.9873
  718TIP3   OH223788   4.908   3.278   6.843  0.0172  0.2520 -0.1248
  718TIP3    H123789   4.991   3.285   6.891 -0.2601 -1.1209  0.6040
  718TIP3    H223790   4.927   3.317   6.758  0.7901  1.9020  0.7657
  719TIP3   OH223791   4.227   3.018   0.672 -0.0705  0.2269 -0.2551
  719TIP3    H123792   4.264   2.955   0.611  1.1096  0.6793 -0.0417
  719TIP3    H223793   4.298   3.082   0.686  0.9095 -1.4318  3.8815
  720TIP3   OH223794   1.754   4.485   0.070  0.4501  0.4634 -0.4083
  720TIP3    H123795   1.810   4.489  -0.007 -0.5530  0.3989 -1.1684
  720TIP3    H223796   1.709   4.570   0.072  0.4645  0.4633  0.1064
  721TIP3   OH223797   6.745   0.655   8.245  0.3153 -0.5927 -0.1972
  721TIP3    H123798   6.830   0.685   8.213 -0.3897 -0.7431 -2.4144
  721TIP3    H223799   6.702   0.620   8.167 -2.7437  1.6988  0.2705
  722TIP3   OH223800   0.002   3.772   7.105  0.3745 -0.8514  0.7478
  722TIP3    H123801   0.009   3.836   7.176 -2.2818  0.5174 -0.0569
  722TIP3    H223802  -0.073   3.718   7.129  0.6762 -1.6580 -0.0770
  723TIP3   OH223803   0.880   1.744   1.594  0.2043 -0.2934 -0.2001
  723TIP3    H123804   0.876   1.786   1.681  0.0105  1.6764 -1.1077
  723TIP3    H223805   0.809   1.785   1.545 -0.0174 -1.7709 -1.1522
  724TIP3   OH223806   1.106   5.702   0.791  0.2695 -0.0794  0.0774
  724TIP3    H123807   1.158   5.642   0.845 -0.9103 -1.2053  0.0368
  724TIP3    H223808   1.158   5.713   0.711  1.9534  1.4712  1.3164
  725TIP3   OH223809   6.639   4.870   0.013  0.5137  0.3311 -0.3801
  725TIP3    H123810   6.721   4.822   0.010  0.3936  0.0402  0.6247
  725TIP3    H223811   6.575   4.813  -0.030  0.4387 -0.2838  0.5304
  726TIP3   OH223812   3.916   0.187   7.288 -0.0974  0.8447  0.1165
  726TIP3    H123813   3.908   0.115   7.350 -1.4174  2.1126  1.5210
  726TIP3    H223814   3.997   0.170   7.240  0.1491 -0.9871  1.1281
  727TIP3   OH223815   5.635   5.412   1.519 -0.0150  0.1964  1.1224
  727TIP3    H123816   5.557   5.364   1.545  0.0108 -1.1625 -1.0097
  727TIP3    H223817   5.708   5.357   1.548  0.0360 -0.4533 -0.1517
  728TIP3   OH223818   3.543   6.759   7.388 -0.0717  0.0906  0.6937
  728TIP3    H123819   3.576   6.837   7.345  1.0604 -0.4544  0.5475
  728TIP3    H223820   3.536   6.694   7.318 -2.5185  0.4713  0.4909
  729TIP3   OH223821   5.097   3.585   1.505  0.2913 -0.6286  0.5313
  729TIP3    H123822   5.027   3.650   1.513  0.2542 -0.6847  0.6585
  729TIP3    H223823   5.137   3.582   1.591  0.5617 -0.4741  0.4129
  730TIP3   OH223824   1.885   3.912   1.815 -0.0543  0.8077 -0.2243
  730TIP3    H123825   1.914   3.825   1.790 -0.4683  1.0875 -1.8242
  730TIP3    H223826   1.872   3.908   1.910  0.5364 -0.6692 -0.1902
  731TIP3   OH223827   4.825   6.671   8.335  0.1793 -1.0891  0.6374
  731TIP3    H123828   4.734   6.645   8.326  0.6879 -2.8078 -0.0149
  731TIP3    H223829   4.872   6.615   8.274  1.8073 -1.0495  1.7853
  732TIP3   OH223830   3.372   1.804   0.914  0.0798  0.3697  0.0520
  732TIP3    H123831   3.462   1.777   0.927  0.5796  0.0082 -3.3644
  732TIP3    H223832   3.372   1.898   0.935  1.7083  0.7627 -1.4480
  733TIP3   OH223833   5.411   3.854   1.582 -0.1440 -0.6000 -0.3883
  733TIP3    H123834   5.368   3.937   1.604  0.0424 -0.4712 -0.5036
  733TIP3    H223835   5.358   3.816   1.513  0.5820  0.1250 -1.3666
  734TIP3   OH223836   2.960   1.806   8.051  0.8847 -0.7133  0.0771
  734TIP3    H123837   3.002   1.850   8.125 -2.2830  1.3455  0.8517
  734TIP3    H223838   2.880   1.768   8.088  0.3067 -1.5703 -1.9049
  735TIP3   OH223839   4.112   0.272   0.727 -0.1204  0.3377  0.7667
  735TIP3    H123840   4.163   0.264   0.647 -0.2825 -0.9908  0.7713
  735TIP3    H223841   4.026   0.301   0.698  0.2175  1.2087  0.6133
  736TIP3   OH223842   0.809   2.041   0.769  0.2057 -0.3040 -0.3189
  736TIP3    H123843   0.772   1.953   0.774  0.2862 -0.3071  0.1733
  736TIP3    H223844   0.882   2.041   0.830 -0.3125  0.3552  0.3127
  737TIP3   OH223845   5.975   5.909   7.332  0.0522  0.2473 -0.0674
  737TIP3    H123846   5.908   5.943   7.392  0.7183 -0.1707  0.9444
  737TIP3    H223847   5.926   5.876   7.257 -1.0485 -1.8156  1.4832
  738TIP3   OH223848   0.058   5.935   1.229  0.0912 -0.3348  0.6146
  738TIP3    H123849   0.011   5.852   1.224 -0.9530  0.1418  1.9217
  738TIP3    H223850   0.144   5.917   1.191 -0.4589 -1.7490  0.0061
  739TIP3   OH223851   3.403   6.508   1.714 -0.2409  0.1254 -0.3520
  739TIP3    H123852   3.463   6.504   1.789  0.1363  0.1550 -0.6460
  739TIP3    H223853   3.433   6.437   1.657 -1.9766 -1.4304  0.5677
  740TIP3   OH223854   2.885   2.369   0.349 -0.6102 -0.1600 -0.2395
  740TIP3    H123855   2.923   2.302   0.292  0.3832  0.2261 -0.0598
  740TIP3    H223856   2.828   2.421   0.292  0.6935  0.4794 -1.0041
  741TIP3   OH223857   1.621   0.417   7.309  0.2739 -0.2392 -0.3772
  741TIP3    H123858   1.670   0.337   7.290  0.5734 -0.8827  2.5863
  741TIP3    H223859   1.541   0.409   7.257 -0.2917 -3.1341  0.7212
  742TIP3   OH223860   0.433   4.778   6.868  0.0479 -0.1929 -0.1588
  742TIP3    H123861   0.486   4.721   6.924 -0.6195  1.2606  2.0759
  742TIP3    H223862   0.346   4.738   6.870  0.3232 -0.9283 -1.4124
  743TIP3   OH223863   6.253   6.151   1.466 -0.4871 -0.1746 -0.3898
  743TIP3    H123864   6.305   6.114   1.395 -1.0513  0.2502 -1.0285
  743TIP3    H223865   6.168   6.108   1.458 -0.1843 -1.0624  0.8109
  744TIP3   OH223866   4.876   1.679   7.828  0.0825 -0.0856 -0.1279
  744TIP3    H123867   4.933   1.640   7.894  1.3320 -1.0359 -1.6916
  744TIP3    H223868   4.915   1.765   7.811  0.1455 -0.1063 -0.0886
  745TIP3   OH223869   4.838   1.605   8.497 -0.5384  0.2054 -0.2968
  745TIP3    H123870   4.845   1.514   8.470 -0.9266  0.1767 -0.2981
  745TIP3    H223871   4.925   1.642   8.479 -1.1353  0.5290 -2.7949
  746TIP3   OH223872   4.352   5.600   5.989  0.5187 -0.3827  0.1459
  746TIP3    H123873   4.355   5.526   5.929  0.1175  0.8099 -1.4203
  746TIP3    H223874   4.259   5.612   6.008  0.1237  1.8461 -2.5115
  747TIP3   OH223875   3.046   0.131   0.694  0.0874  0.2097 -0.3153
  747TIP3    H123876   3.095   0.055   0.661 -1.8419 -1.4988  0.5103
  747TIP3    H223877   3.003   0.167   0.617  0.5857  0.1291 -0.6352
  748TIP3   OH223878   4.109   4.340   0.368 -0.5354  0.1258 -0.2324
  748TIP3    H123879   4.198   4.372   0.353  0.5921 -2.7101 -0.2552
  748TIP3    H223880   4.109   4.313   0.460 -0.4547 -2.2370 -0.8575
  749TIP3   OH223881   1.537   3.941   1.836 -0.4460 -0.1479  0.2609
  749TIP3    H123882   1.546   4.025   1.881  0.5081 -0.1935  0.1703
  749TIP3    H223883   1.606   3.886   1.873 -0.2513 -0.4899 -0.5841
  750TIP3   OH223884   0.146   5.349   7.524 -0.0259 -0.5066  0.0326
  750TIP3    H123885   0.178   5.272   7.478  0.2841 -2.5275  3.3670
  750TIP3    H223886   0.060   5.323   7.557 -1.8143  2.0872 -2.0860
  751TIP3   OH223887   1.309   5.171   0.049  0.1180  0.2811 -0.6455
  751TIP3    H123888   1.359   5.092   0.030  1.0019  0.3767  1.0926
  751TIP3    H223889   1.257   5.149   0.126  0.2480  1.3459 -0.2355
  752TIP3   OH223890   5.117   5.840   0.476  0.3036  0.0911  1.0154
  752TIP3    H123891   5.068   5.904   0.527 -0.7755 -0.0237  0.1361
  752TIP3    H223892   5.181   5.804   0.539 -1.5269 -0.6731  2.5564
  753TIP3   OH223893   1.153   1.965   0.160 -0.1078  0.2293 -0.0918
  753TIP3    H123894   1.082   1.931   0.214 -2.2610  0.3539 -2.6498
  753TIP3    H223895   1.142   2.060   0.162 -1.3163  0.1741 -2.0399
  754TIP3   OH223896   3.276   0.459   1.061  0.5924 -0.0788  0.2116
  754TIP3    H123897   3.343   0.391   1.065  0.2374 -0.3773  2.7697
  754TIP3    H223898   3.200   0.416   1.021  0.9004 -0.6860  0.2728
  755TIP3   OH223899   0.895   3.827   8.714  0.5454  0.0809 -0.0618
  755TIP3    H123900   0.812   3.856   8.676  0.8829 -0.3036 -1.1121
  755TIP3    H223901   0.955   3.899   8.697  0.4977  0.2539  0.4811
  756TIP3   OH223902   0.547   1.747   0.955 -0.8439  0.3022  0.1699
  756TIP3    H123903   0.511   1.709   1.035  0.7666 -0.3804  0.6131
  756TIP3    H223904   0.597   1.675   0.916 -0.3749  1.0734 -0.6677
  757TIP3   OH223905   0.914   3.602   0.741 -0.2099  0.5814 -0.1261
  757TIP3    H123906   0.961   3.672   0.787 -0.0796  0.0648  0.5457
  757TIP3    H223907   0.951   3.521   0.777  0.0436  0.1574 -1.3083
  758TIP3   OH223908   1.740   6.623   8.136  0.0239 -0.1017  0.3069
  758TIP3    H123909   1.775   6.543   8.176 -1.4663 -1.6609 -1.3191
  758TIP3    H223910   1.733   6.685   8.209  2.3103 -1.0275  1.4010
  759TIP3   OH223911   4.265   0.827   7.234 -0.7825 -0.2745 -0.3508
  759TIP3    H123912   4.295   0.810   7.144 -2.8409  0.5786 -1.2701
  759TIP3    H223913   4.333   0.884   7.271 -1.0130  1.3400 -2.2143
  760TIP3   OH223914   1.979   5.273   1.299 -0.3608  0.0353  0.2849
  760TIP3    H123915   1.968   5.187   1.257  0.9553 -1.4860  2.7871
  760TIP3    H223916   1.896   5.288   1.344 -1.1574  0.8793 -1.3698
  761TIP3   OH223917   4.523   4.456   1.295  0.5335 -0.1703  0.1729
  761TIP3    H123918   4.457   4.466   1.227 -0.0226 -0.0553  0.7191
  761TIP3    H223919   4.509   4.531   1.353  2.7248  1.2474 -0.9927
  762TIP3   OH223920   4.539   2.269   1.862  0.0011  0.1051  0.0650
  762TIP3    H123921   4.507   2.207   1.927  1.0681 -0.5876 -0.0530
  762TIP3    H223922   4.482   2.255   1.786  0.9039 -1.5173 -0.3478
  763TIP3   OH223923   4.965   6.723   1.510  0.4940  0.0473 -0.5465
  763TIP3    H123924   5.041   6.669   1.533 -0.5929 -1.0623  0.5922
  763TIP3    H223925   5.001   6.811   1.501  1.5283  0.1852  3.1208
  764TIP3   OH223926   1.207   1.185   8.088 -0.3213  0.6728  0.1191
  764TIP3    H123927   1.212   1.157   7.997 -0.8141 -0.1893  0.3490
  764TIP3    H223928   1.123   1.232   8.094  0.6099  2.4874 -0.3227
  765TIP3   OH223929   1.567   6.060   8.101  0.3225 -0.1625  0.0407
  765TIP3    H123930   1.631   5.991   8.121  1.9630  1.2822  0.0069
  765TIP3    H223931   1.619   6.131   8.065 -1.3682  0.9997 -0.2284
  766TIP3   OH223932   6.334   6.784   1.361 -0.0656 -0.1582  0.0766
  766TIP3    H123933   6.254   6.761   1.314 -2.1341  1.7130  2.4004
  766TIP3    H223934   6.344   6.878   1.349  1.5552 -0.2675  0.2608
  767TIP3   OH223935   1.358   4.222   0.877 -0.0485 -0.3732  0.2775
  767TIP3    H123936   1.450   4.216   0.902 -0.0374  0.3095  0.4177
  767TIP3    H223937   1.316   4.150   0.924  0.4580 -0.8799 -0.0238
  768TIP3   OH223938   4.853   4.317   1.602  0.1722 -0.0269 -0.1894
  768TIP3    H123939   4.812   4.403   1.598 -1.9462 -1.0014 -1.2036
  768TIP3    H223940   4.812   4.275   1.678 -0.5784 -0.9360 -1.0759
  769TIP3   OH223941   3.700   5.714   0.547  0.0770 -0.0652  0.0845
  769TIP3    H123942   3.614   5.693   0.585 -0.0535  2.3407  1.2955
  769TIP3    H223943   3.680   5.751   0.461  0.0759 -1.1100 -0.3940
  770TIP3   OH223944   1.721   1.006   1.047  0.0611 -0.4194 -0.3516
  770TIP3    H123945   1.806   1.027   1.087 -0.1331  1.1825 -0.7177
  770TIP3    H223946   1.741   0.939   0.981  0.8915 -0.6953  0.1659
  771TIP3   OH223947   3.191   0.036   8.484  0.0538  0.2739 -0.4825
  771TIP3    H123948   3.148   0.019   8.568  1.9205  0.7608  0.6362
  771TIP3    H223949   3.120   0.065   8.427 -1.5934 -1.8108  0.3371
  772TIP3   OH223950   3.323   5.971   6.693  0.7369 -0.3694  0.2119
  772TIP3    H123951   3.261   5.948   6.624  0.1152 -0.1892  0.7097
  772TIP3    H223952   3.391   5.903   6.687  0.8429 -0.1998 -0.7523
  773TIP3   OH223953   5.073   6.834   0.549 -0.8015 -0.0816  0.4196
  773TIP3    H123954   5.018   6.904   0.514  1.1800  1.4784  0.2032
  773TIP3    H223955   5.125   6.878   0.617  0.9184 -1.1941 -0.1384
  774TIP3   OH223956   1.177   4.898   8.728 -0.2732 -0.1886 -0.8126
  774TIP3    H123957   1.266   4.868   8.744 -0.3791 -0.1525 -0.1347
  774TIP3    H223958   1.186   4.993   8.713 -0.2998  0.0046  0.2743
  775TIP3   OH223959   4.292   2.315   0.593  0.6091  0.0407  0.0613
  775TIP3    H123960   4.232   2.342   0.663 -0.4155 -1.5219 -0.1679
  775TIP3    H223961   4.375   2.358   0.614 -0.5527  2.2741  0.3908
  776TIP3   OH223962   2.391   2.840   0.515  0.1372  0.1184 -0.4388
  776TIP3    H123963   2.447   2.884   0.579 -0.0302  0.5089 -0.5554
  776TIP3    H223964   2.325   2.796   0.569  0.5274 -0.3084 -0.3043
  777TIP3   OH223965   4.248   6.726   8.332  0.5191 -0.0975  0.4401
  777TIP3    H123966   4.315   6.661   8.354  1.4661  0.7400  0.0896
  777TIP3    H223967   4.174   6.673   8.301  1.1241 -1.0347  0.5391
  778TIP3   OH223968   2.628   4.687   0.829 -0.5695 -0.3825 -0.9029
  778TIP3    H123969   2.655   4.777   0.813  1.4006 -1.0707 -1.8168
  778TIP3    H223970   2.533   4.691   0.840 -0.4034  1.9265  0.2134
  779TIP3   OH223971   2.531   6.206   8.272 -0.8077  0.0376 -0.0667
  779TIP3    H123972   2.552   6.175   8.361 -0.6700  2.0237  0.6396
  779TIP3    H223973   2.555   6.133   8.215 -0.4501 -1.1120  1.4890
  780TIP3   OH223974   6.252   1.621   7.340  0.0123 -0.4630  0.7356
  780TIP3    H123975   6.193   1.592   7.271 -0.1357  0.3421  0.5148
  780TIP3    H223976   6.251   1.549   7.404 -0.1362 -1.0519  0.0878
  781TIP3   OH223977   3.565   3.474   7.838  0.2824  0.4222 -0.0649
  781TIP3    H123978   3.657   3.492   7.819  0.6685 -0.3199  0.9977
  781TIP3    H223979   3.549   3.515   7.923 -0.9308  2.2263 -1.0935
  782TIP3   OH223980   1.470   5.241   1.085 -0.2591 -0.8216  0.2772
  782TIP3    H123981   1.404   5.246   1.154  0.2839 -0.9911  0.8242
  782TIP3    H223982   1.424   5.265   1.005 -0.8331 -0.3363  0.7456
  783TIP3   OH223983   5.565   0.490   7.594 -0.2073  0.0805  0.3596
  783TIP3    H123984   5.623   0.424   7.631 -1.1285 -1.1414 -0.3166
  783TIP3    H223985   5.501   0.440   7.544 -0.6456  1.5266 -0.5702
  784TIP3   OH223986   0.836   4.551   7.600  0.1913 -0.4331  0.0938
  784TIP3    H123987   0.921   4.531   7.560  0.5710  2.1250 -0.6114
  784TIP3    H223988   0.859   4.582   7.688  0.0551  0.5853 -0.2172
  785TIP3   OH223989   5.358   4.069   7.185 -0.4738  0.0947 -0.2164
  785TIP3    H123990   5.327   4.132   7.120  2.0764  0.6543 -0.9813
  785TIP3    H223991   5.443   4.040   7.152 -0.6043 -2.1267  1.2230
  786TIP3   OH223992   3.079   4.927   1.363 -0.3066 -0.3010  0.0768
  786TIP3    H123993   3.084   4.836   1.392 -2.0238 -0.7358 -0.8727
  786TIP3    H223994   3.143   4.934   1.292 -0.4893 -0.9004 -0.1515
  787TIP3   OH223995   0.515   4.901   6.342  0.2566 -0.4970  0.0864
  787TIP3    H123996   0.536   4.914   6.250 -1.6143 -0.0836 -0.3174
  787TIP3    H223997   0.526   4.806   6.356  1.7666 -0.3892 -0.1948
  788TIP3   OH223998   3.554   0.269   1.327 -0.1498  0.1797  0.7074
  788TIP3    H123999   3.636   0.220   1.338 -0.8804 -1.1114  0.5897
  788TIP3    H224000   3.518   0.277   1.415 -0.9952 -1.2381  0.5062
  789TIP3   OH224001   5.329   0.030   7.213  0.1070 -0.0066  0.3499
  789TIP3    H124002   5.389   0.092   7.256  0.7712  0.3278 -1.0067
  789TIP3    H224003   5.385  -0.019   7.152 -0.7709 -0.6132  0.0100
  790TIP3   OH224004   1.062   5.054   6.152 -0.1424 -0.2421  0.2259
  790TIP3    H124005   1.046   5.100   6.070  1.1722  0.2536  0.2293
  790TIP3    H224006   0.996   5.088   6.212  0.8551  1.7856  0.2663
  791TIP3   OH224007   2.858   1.085   7.927 -0.0185  0.5284  0.2048
  791TIP3    H124008   2.935   1.141   7.941 -0.3739  1.3613 -1.0388
  791TIP3    H224009   2.895   0.999   7.904  0.5481  0.9862 -0.6256
  792TIP3   OH224010   4.900   3.374   5.986 -0.6331  0.2770  0.2207
  792TIP3    H124011   4.965   3.348   5.920  0.7362  3.0969  0.3193
  792TIP3    H224012   4.915   3.314   6.059  2.4530  1.2513  0.5272
  793TIP3   OH224013   5.295   4.979   1.838 -0.0526 -0.5545 -0.3070
  793TIP3    H124014   5.234   4.991   1.766 -0.3365 -0.6339 -0.0817
  793TIP3    H224015   5.240   4.955   1.913  0.0228  1.4483  0.4335
  794TIP3   OH224016   1.056   6.126   0.883  0.4994 -0.2011  0.2547
  794TIP3    H124017   1.140   6.083   0.897  0.3760 -0.6758 -0.4174
  794TIP3    H224018   1.053   6.194   0.950  1.3247 -0.3132  0.4209
  795TIP3   OH224019   6.590   2.364   0.248 -0.7413 -0.5177 -0.1982
  795TIP3    H124020   6.565   2.400   0.163 -1.2843 -1.4125 -0.4319
  795TIP3    H224021   6.515   2.310   0.274 -0.1175 -1.1508  0.3199
  796TIP3   OH224022   2.930   2.961   1.613 -0.6921  0.5414 -0.1995
  796TIP3    H124023   2.942   2.896   1.544 -2.2929  0.2337 -0.2244
  796TIP3    H224024   3.009   3.016   1.608  0.7789 -1.4394 -0.0896
  797TIP3   OH224025   2.336   4.514   8.449  0.3390  0.3092 -0.2744
  797TIP3    H124026   2.277   4.535   8.377  0.1909 -0.1228 -0.2836
  797TIP3    H224027   2.416   4.483   8.407  0.5064  0.7119 -0.2591
  798TIP3   OH224028   0.550   0.405   7.912 -0.1615 -0.3050 -0.0965
  798TIP3    H124029   0.607   0.366   7.978 -0.1346  1.1510  0.7982
  798TIP3    H224030   0.470   0.353   7.915  0.9267 -2.1071 -1.0590
  799TIP3   OH224031   4.746   5.247   1.312  0.0041 -0.3865 -0.9233
  799TIP3    H124032   4.721   5.339   1.300 -1.3908 -0.4818  0.9711
  799TIP3    H224033   4.689   5.199   1.253  1.4919 -0.0302 -2.7693
  800TIP3   OH224034   0.882   3.240   6.311 -0.0263  0.0435 -0.0177
  800TIP3    H124035   0.971   3.207   6.303  0.3186  1.0527 -0.4897
  800TIP3    H224036   0.886   3.329   6.276 -1.7422 -0.7169 -2.3834
  801TIP3   OH224037   0.486   3.393   2.327  0.6007 -0.7109  0.4828
  801TIP3    H124038   0.480   3.310   2.280 -0.8360  1.1715 -3.0634
  801TIP3    H224039   0.399   3.406   2.364 -0.1729  0.4479 -1.5593
  802TIP3   OH224040   6.067   5.532   7.784 -0.4130 -0.2102 -0.2302
  802TIP3    H124041   6.081   5.572   7.698  2.6137 -0.0084  0.2466
  802TIP3    H224042   5.984   5.485   7.775 -0.1949 -0.2467 -3.2657
  803TIP3   OH224043   3.917   2.900   0.381  0.2866  0.9667  0.5258
  803TIP3    H124044   3.985   2.834   0.394 -0.6091  0.2159  1.5892
  803TIP3    H224045   3.892   2.927   0.469  0.3621  2.4656  0.1065
  804TIP3   OH224046   3.996   0.746   6.289  0.4798  0.2366  0.0513
  804TIP3    H124047   3.979   0.727   6.196  0.8839  0.7399 -0.1336
  804TIP3    H224048   3.956   0.674   6.336 -2.0796  1.3017 -0.3509
  805TIP3   OH224049   0.973   6.332   1.361  0.5715  0.2246 -0.1238
  805TIP3    H124050   1.027   6.288   1.426  0.0391 -3.2578 -1.8292
  805TIP3    H224051   0.883   6.315   1.388  0.3499 -0.9221 -1.4689
  806TIP3   OH224052   4.283   3.424   1.349  0.1881 -0.4702 -0.2726
  806TIP3    H124053   4.188   3.430   1.339  0.0763 -2.0240 -0.5164
  806TIP3    H224054   4.316   3.424   1.259  0.5496  1.3585 -0.1649
  807TIP3   OH224055   3.519   6.343   0.656  0.1514  0.2179 -0.2097
  807TIP3    H124056   3.588   6.395   0.697  0.6707 -1.1303  0.7055
  807TIP3    H224057   3.456   6.408   0.624  1.2351  1.4323  0.0184
  808TIP3   OH224058   3.444   5.482   7.003 -0.0584  0.1696 -0.0309
  808TIP3    H124059   3.390   5.561   7.016 -1.3057 -0.3808 -1.5769
  808TIP3    H224060   3.503   5.504   6.931 -0.7056 -0.4236 -0.7621
  809TIP3   OH224061   2.758   2.271   1.202  0.0834  0.8401  0.5134
  809TIP3    H124062   2.678   2.260   1.254  1.8787 -1.3137  3.1012
  809TIP3    H224063   2.819   2.316   1.261  1.6679 -0.1410 -0.3173
  810TIP3   OH224064   2.707   5.428   1.671  0.5179  0.5021 -0.2041
  810TIP3    H124065   2.640   5.417   1.603  0.9850  0.6830 -0.6989
  810TIP3    H224066   2.689   5.359   1.734  0.0715  0.3362 -0.5073
  811TIP3   OH224067   5.937   3.123   8.197  0.6200  1.2054 -0.2459
  811TIP3    H124068   5.921   3.146   8.105  1.4279 -2.8000 -1.6025
  811TIP3    H224069   6.030   3.100   8.200  0.5713  1.1376  1.5724
  812TIP3   OH224070   3.470   1.338   8.394 -0.4547  0.0340  0.4408
  812TIP3    H124071   3.459   1.432   8.380  0.1403 -0.1853 -1.9947
  812TIP3    H224072   3.435   1.297   8.314 -0.1315 -1.7783  1.1689
  813TIP3   OH224073   3.978   4.434   0.903  0.5771  0.2151  0.2299
  813TIP3    H124074   3.972   4.349   0.860  0.6111  0.5615 -0.4780
  813TIP3    H224075   4.024   4.416   0.986  0.1102 -0.5321  0.3356
  814TIP3   OH224076   4.897   4.345   0.732  0.3605 -0.1880  0.6119
  814TIP3    H124077   4.947   4.307   0.804  1.2508 -1.8475 -0.7970
  814TIP3    H224078   4.904   4.280   0.662 -0.2221  1.4935 -1.0757
  815TIP3   OH224079   3.770   3.768   0.300  0.7937 -0.8288  0.0713
  815TIP3    H124080   3.689   3.803   0.337  1.5430  3.2351 -1.5950
  815TIP3    H224081   3.828   3.757   0.376 -0.2611 -0.6374  0.9339
  816TIP3   OH224082   5.451   4.765   1.683 -0.1441  0.3525 -0.1150
  816TIP3    H124083   5.409   4.848   1.664  0.9972  1.1877  0.8906
  816TIP3    H224084   5.390   4.720   1.741 -1.6944 -0.4241 -2.2274
  817TIP3   OH224085   3.181   0.696   0.463  0.1810  0.1666  0.4240
  817TIP3    H124086   3.243   0.699   0.536  0.9812  1.7271 -0.2603
  817TIP3    H224087   3.101   0.660   0.501  1.2347 -1.0963  1.5312
  818TIP3   OH224088   4.290   6.314   1.073 -0.9157 -0.2435 -0.2140
  818TIP3    H124089   4.370   6.286   1.028 -1.7611 -2.3602 -0.5119
  818TIP3    H224090   4.276   6.404   1.043  1.4158  0.2534 -0.0084
  819TIP3   OH224091   3.345   4.533   6.926 -0.1697 -0.8749  0.3109
  819TIP3    H124092   3.410   4.587   6.971 -0.8884  0.4589 -0.1691
  819TIP3    H224093   3.281   4.512   6.994 -1.9171  2.1779 -0.1625
  820TIP3   OH224094   4.292   4.322   7.718  0.4622 -0.2435 -0.3088
  820TIP3    H124095   4.270   4.237   7.680 -1.7049  1.0792 -2.2672
  820TIP3    H224096   4.352   4.362   7.656  0.6116  0.1043  0.0536
  821TIP3   OH224097   2.238   5.559   1.927 -0.4874  0.1090 -0.3211
  821TIP3    H124098   2.186   5.584   2.004  0.1812  1.8522 -0.3874
  821TIP3    H224099   2.325   5.542   1.962 -0.8300 -1.9991 -0.3315
  822TIP3   OH224100   3.526   5.786   6.649  0.0591  0.2656 -0.8757
  822TIP3    H124101   3.586   5.831   6.589  2.0463 -1.6640 -0.4558
  822TIP3    H224102   3.486   5.717   6.595  0.0883  0.0006 -0.5627
  823TIP3   OH224103   4.842   2.211   2.726  0.0857  0.6793 -0.4287
  823TIP3    H124104   4.913   2.234   2.666  1.6937  0.1084  1.1643
  823TIP3    H224105   4.850   2.116   2.738 -1.2409  0.5285 -0.5431
  824TIP3   OH224106   0.389   2.821   8.639 -0.2731 -0.2771 -0.1132
  824TIP3    H124107   0.380   2.726   8.637  0.1275 -0.3572 -2.9601
  824TIP3    H224108   0.305   2.854   8.608  0.4450  0.1002 -1.8223
  825TIP3   OH224109   2.855   4.918   8.441  0.6368 -0.0525 -0.9176
  825TIP3    H124110   2.898   4.966   8.512  0.5841 -0.5696 -0.5307
  825TIP3    H224111   2.911   4.842   8.426 -0.9390 -1.6567  0.7411
  826TIP3   OH224112   4.821   6.069   8.135  0.0596 -0.0825  0.0697
  826TIP3    H124113   4.863   6.098   8.054 -0.9475  0.1189 -0.3940
  826TIP3    H224114   4.892   6.029   8.186  1.0894  1.4090 -0.1174
  827TIP3   OH224115   3.798   0.835   1.242 -0.1270  0.1988 -0.6609
  827TIP3    H124116   3.879   0.825   1.291 -0.0834  0.0661 -0.7607
  827TIP3    H224117   3.751   0.753   1.254 -0.6355  0.5836  0.0985
  828TIP3   OH224118   0.144   3.452   0.812  1.0252 -0.5359 -0.5371
  828TIP3    H124119   0.088   3.529   0.810  0.9029 -0.3780  2.9316
  828TIP3    H224120   0.086   3.379   0.795  0.6898 -0.0752 -1.4539
  829TIP3   OH224121   0.684   5.930   1.198  0.6252 -0.3014  0.0886
  829TIP3    H124122   0.633   5.986   1.139  0.8656  0.5845  0.6952
  829TIP3    H224123   0.765   5.979   1.213  1.0268 -1.0155  0.3050
  830TIP3   OH224124   2.622   6.835   0.238 -0.5257  0.3767  0.4781
  830TIP3    H124125   2.594   6.791   0.318  1.0690 -0.2324  0.7367
  830TIP3    H224126   2.582   6.784   0.167 -1.1944  0.3769  0.8398
  831TIP3   OH224127   0.091   5.637   2.040 -0.3482  0.0423 -0.5315
  831TIP3    H124128   0.125   5.725   2.021  2.4298 -0.5398  1.2315
  831TIP3    H224129   0.157   5.578   2.005 -0.1416 -1.2137  1.8005
  832TIP3   OH224130   2.164   3.025   8.757  0.4063 -0.6411 -0.3243
  832TIP3    H124131   2.111   2.958   8.714 -0.1606 -1.8153  1.9866
  832TIP3    H224132   2.118   3.107   8.741 -1.0032 -1.3597 -0.1159
  833TIP3   OH224133   6.329   3.411   8.246 -0.0702 -0.6866  0.4293
  833TIP3    H124134   6.254   3.464   8.272 -0.1413 -0.1865 -0.7358
  833TIP3    H224135   6.300   3.365   8.167  0.9393 -0.2053 -0.2540
  834TIP3   OH224136   1.701   3.080   7.686  0.2754  0.1158  0.4757
  834TIP3    H124137   1.737   3.004   7.640 -2.1661 -1.0744  0.4226
  834TIP3    H224138   1.701   3.055   7.778 -1.6260 -0.4835  0.3464
  835TIP3   OH224139   2.410   1.750   0.321  0.1595  0.5214 -0.1726
  835TIP3    H124140   2.460   1.822   0.284 -0.1509  0.2068 -1.2231
  835TIP3    H224141   2.333   1.792   0.360  0.5352  0.8605  0.2129
  836TIP3   OH224142   1.542   6.298   1.135  0.1452  0.9457 -0.4043
  836TIP3    H124143   1.617   6.264   1.086  2.0355  1.3646  2.0238
  836TIP3    H224144   1.510   6.224   1.186 -0.6400  0.9774 -0.8226
  837TIP3   OH224145   6.212   2.872   7.961 -0.0217  0.0848  0.5908
  837TIP3    H124146   6.305   2.870   7.935  0.3770  0.3312  1.9119
  837TIP3    H224147   6.169   2.812   7.901  0.8271  0.7091 -0.6843
  838TIP3   OH224148   0.311   4.606   7.992 -0.1584 -0.2774  0.2229
  838TIP3    H124149   0.242   4.546   8.020 -1.7494  0.4781 -1.8631
  838TIP3    H224150   0.273   4.693   8.001  1.2283  0.3040  0.7956
  839TIP3   OH224151   4.991   4.244   6.626  0.1128 -0.3682 -0.1358
  839TIP3    H124152   5.006   4.153   6.648 -0.0921  0.1518  2.5021
  839TIP3    H224153   5.078   4.282   6.615  0.1924 -0.8895 -1.4415
  840TIP3   OH224154   3.535   4.290   2.137  0.1573  0.6845  0.2453
  840TIP3    H124155   3.527   4.357   2.204 -0.5032 -0.3813  1.2670
  840TIP3    H224156   3.483   4.324   2.063  1.7127  2.3225 -0.1647
  841TIP3   OH224157   5.450   5.076   0.474  0.1598  0.1824 -0.5170
  841TIP3    H124158   5.480   5.082   0.383 -1.1725 -0.2220 -1.0000
  841TIP3    H224159   5.396   5.154   0.486  0.4838  0.3345  0.0008
  842TIP3   OH224160   1.607   6.619   1.481 -0.1012 -0.1549  0.2537
  842TIP3    H124161   1.526   6.668   1.469 -1.1291 -1.3592  1.8077
  842TIP3    H224162   1.586   6.554   1.548  1.5801 -1.8404 -0.7553
  843TIP3   OH224163   3.116   3.758   1.587  0.1125 -0.1935 -0.4466
  843TIP3    H124164   3.118   3.738   1.681 -1.0671  0.0227 -0.3542
  843TIP3    H224165   3.064   3.838   1.581  1.5885  0.7610 -1.1541
  844TIP3   OH224166   4.110   2.706   0.402 -0.7331  0.4949  0.5346
  844TIP3    H124167   4.063   2.638   0.353  0.1075  0.6746 -0.5783
  844TIP3    H224168   4.157   2.659   0.471  1.3687 -0.3994 -1.3602
  845TIP3   OH224169   5.037   2.114   6.532  0.3157 -0.1391  0.0111
  845TIP3    H124170   5.030   2.030   6.577  0.4425 -0.6884 -0.9551
  845TIP3    H224171   5.131   2.125   6.516  0.2228 -0.2761 -0.6797
  846TIP3   OH224172   5.923   0.538   6.698 -0.2270  0.0483  0.4708
  846TIP3    H124173   5.897   0.483   6.624  1.2529 -0.1570  0.0712
  846TIP3    H224174   5.862   0.515   6.767 -0.6069 -0.9713 -0.1830
  847TIP3   OH224175   1.900   5.568   8.135  0.0308 -0.2328 -0.5341
  847TIP3    H124176   1.922   5.591   8.045  0.9711  0.3018 -0.1857
  847TIP3    H224177   1.858   5.482   8.129 -1.1997  0.4143 -1.6007
  848TIP3   OH224178   2.295   0.545   8.407  0.1316 -0.4433  0.5173
  848TIP3    H124179   2.317   0.468   8.356 -0.5652  0.4524 -1.2119
  848TIP3    H224180   2.360   0.611   8.381 -1.5710  0.7239 -0.9952
  849TIP3   OH224181   5.323   2.174   7.941 -0.0417 -0.0854  0.1112
  849TIP3    H124182   5.307   2.224   7.861  0.5608  1.4562  0.9229
  849TIP3    H224183   5.405   2.128   7.925 -0.3375 -0.4264 -0.4521
  850TIP3   OH224184   2.361   4.617   7.250  0.0140  0.2055 -0.3856
  850TIP3    H124185   2.276   4.579   7.270  0.5765 -0.9987 -0.2216
  850TIP3    H224186   2.410   4.612   7.331  0.7435 -0.4927 -0.8540
  851TIP3   OH224187   0.741   6.170   2.763 -0.1040  0.0163 -0.0022
  851TIP3    H124188   0.756   6.185   2.670  0.1064  1.2791  0.2189
  851TIP3    H224189   0.827   6.145   2.797 -0.5336 -2.2744 -0.4427
  852TIP3   OH224190   2.512   4.647   2.637  0.0077  0.4842  0.3755
  852TIP3    H124191   2.458   4.691   2.571  2.8776  1.1801 -1.7568
  852TIP3    H224192   2.510   4.705   2.713 -0.5052  1.5605 -0.4331
  853TIP3   OH224193   5.425   2.436   6.959  0.2673  0.1171  0.6615
  853TIP3    H124194   5.376   2.516   6.941  2.2737  1.3993  0.5281
  853TIP3    H224195   5.403   2.378   6.886 -1.3424  0.4519  0.8412
  854TIP3   OH224196   0.353   0.144   1.304 -0.1592  0.5935 -1.0664
  854TIP3    H124197   0.302   0.127   1.225  1.1720 -2.5411 -1.3715
  854TIP3    H224198   0.444   0.138   1.277  0.3621  1.3743  0.3791
  855TIP3   OH224199   0.139   2.383   7.162 -0.5109 -0.2041 -0.8887
  855TIP3    H124200   0.104   2.315   7.219  2.0381 -1.3025 -0.4807
  855TIP3    H224201   0.141   2.343   7.075 -0.2399 -0.1771 -0.8964
  856TIP3   OH224202   0.160   1.291   0.838  0.3319 -0.1154  0.2783
  856TIP3    H124203   0.166   1.306   0.932 -0.7918  1.0894  0.1877
  856TIP3    H224204   0.232   1.342   0.801  1.1352 -1.0541  0.5008
  857TIP3   OH224205   1.576   5.059   1.797 -0.3752 -0.5091  0.8884
  857TIP3    H124206   1.664   5.080   1.827  0.1288 -1.0972 -0.1320
  857TIP3    H224207   1.558   4.972   1.832  1.0361 -2.1288 -2.0499
  858TIP3   OH224208   3.985   5.669   0.073  0.6529 -0.2520 -0.1891
  858TIP3    H124209   3.906   5.616   0.087 -0.9648  1.6791 -1.3348
  858TIP3    H224210   4.006   5.703   0.160  0.4724 -1.1094  0.2021
  859TIP3   OH224211   6.547   3.363   8.362 -0.5826 -0.1698 -0.5619
  859TIP3    H124212   6.458   3.366   8.328  0.1289  1.1092 -2.5162
  859TIP3    H224213   6.594   3.430   8.312  0.7848  1.4068  2.5273
  860TIP3   OH224214   3.587   5.185   1.634 -0.0990 -0.0183 -0.1429
  860TIP3    H124215   3.593   5.218   1.723  1.2078 -0.1555 -0.1526
  860TIP3    H224216   3.555   5.259   1.582 -1.3288 -0.0803  0.4984
  861TIP3   OH224217   1.770   3.575   2.064 -0.4346 -0.2084  0.1497
  861TIP3    H124218   1.734   3.659   2.035  0.5918  0.1096 -0.2736
  861TIP3    H224219   1.864   3.592   2.072 -0.1509 -1.4512 -0.4030
  862TIP3   OH224220   3.694   5.388   2.139  0.0334 -0.0156 -0.3330
  862TIP3    H124221   3.662   5.329   2.070  1.1591 -0.1273 -0.7956
  862TIP3    H224222   3.623   5.392   2.202 -1.2566  0.5152 -1.7587
  863TIP3   OH224223   3.205   5.520   0.704 -0.3869  0.0196  0.4309
  863TIP3    H124224   3.115   5.489   0.690  0.0035 -0.5708 -0.9125
  863TIP3    H224225   3.221   5.581   0.633  0.8921 -1.2958 -0.4664
  864TIP3   OH224226   2.158   0.773   0.175  0.1621  0.3360 -0.1597
  864TIP3    H124227   2.085   0.757   0.115 -1.3584  0.3265  1.6348
  864TIP3    H224228   2.123   0.832   0.241  1.4821 -0.4424  1.3086
  865TIP3   OH224229   0.042   3.810   0.835 -0.2076 -0.1584  0.1373
  865TIP3    H124230   0.003   3.897   0.830  0.0982 -0.0157  0.2618
  865TIP3    H224231   0.117   3.820   0.892 -0.6705 -0.6938  0.8552
  866TIP3   OH224232   0.600   1.671   8.292  0.2717 -0.0469 -0.2574
  866TIP3    H124233   0.609   1.766   8.298  0.4248 -0.1054  0.5981
  866TIP3    H224234   0.517   1.651   8.335  1.1167 -0.4523  1.2658
  867TIP3   OH224235   1.186   5.760   0.542  0.4671 -0.1734 -0.2980
  867TIP3    H124236   1.269   5.777   0.496 -0.5493  1.4921 -1.6251
  867TIP3    H224237   1.118   5.779   0.477 -1.0068  0.6203  1.3933
  868TIP3   OH224238   4.272   5.599   8.483  0.4424 -0.1726  0.4031
  868TIP3    H124239   4.309   5.681   8.515 -0.7161  0.1500  0.9659
  868TIP3    H224240   4.219   5.566   8.555 -0.0728 -0.7940 -0.2395
  869TIP3   OH224241   4.471   2.396   7.580 -0.1718 -0.1249 -1.7185
  869TIP3    H124242   4.495   2.305   7.563 -1.5081 -0.4402 -2.0500
  869TIP3    H224243   4.425   2.423   7.501 -0.6558  0.5240 -1.2202
  870TIP3   OH224244   3.674   0.080   7.220 -0.7421  0.6462 -0.4456
  870TIP3    H124245   3.668   0.046   7.131 -1.5583 -1.5737  0.3938
  870TIP3    H224246   3.768   0.092   7.236 -0.3672 -1.4539 -0.7689
  871TIP3   OH224247   5.896   0.180   1.747 -1.0079  0.8579  0.0911
  871TIP3    H124248   5.857   0.102   1.787  0.3450  0.1071 -0.0274
  871TIP3    H224249   5.851   0.189   1.663 -0.4615 -0.4082 -0.3616
  872TIP3   OH224250   4.790   6.349   0.627 -0.7195  0.2035  0.3899
  872TIP3    H124251   4.714   6.341   0.684 -0.5593  2.6463  1.0871
  872TIP3    H224252   4.827   6.435   0.649  0.8344  0.1275 -1.6182
  873TIP3   OH224253   2.355   4.711   0.654  0.1182 -0.8472  0.2585
  873TIP3    H124254   2.363   4.773   0.581 -0.0790 -0.7979  0.2778
  873TIP3    H224255   2.312   4.760   0.723  1.1256 -0.6321  0.7329
  874TIP3   OH224256   6.424   4.172   1.089 -0.2995  0.0892 -0.0072
  874TIP3    H124257   6.423   4.247   1.031 -1.8370 -0.5911 -0.9349
  874TIP3    H224258   6.449   4.207   1.174 -0.0544  1.4625 -0.6243
  875TIP3   OH224259   5.959   2.472   0.813  0.2299 -0.4921 -0.1384
  875TIP3    H124260   5.985   2.500   0.901 -0.9255  1.2559 -0.2934
  875TIP3    H224261   5.978   2.548   0.758 -1.4599 -0.5941 -0.9203
  876TIP3   OH224262   3.339   2.072   0.957 -0.1584 -0.6282 -0.4291
  876TIP3    H124263   3.302   2.160   0.970 -0.5177 -1.0363  1.6095
  876TIP3    H224264   3.431   2.088   0.937 -0.6804  0.2659 -2.3559
  877TIP3   OH224265   1.083   6.321   1.062  0.6080 -0.3678  0.2114
  877TIP3    H124266   1.150   6.387   1.079 -0.4731  0.6313  0.6865
  877TIP3    H224267   1.054   6.293   1.149 -1.9817  1.7175  0.1167
  878TIP3   OH224268   5.219   2.485   6.567  0.0845 -0.3130  1.1037
  878TIP3    H124269   5.252   2.573   6.587  1.5408 -0.4479 -0.4590
  878TIP3    H224270   5.183   2.492   6.479  3.0438 -1.8773 -0.3875
  879TIP3   OH224271   1.818   5.684   1.104  0.9258  0.1902 -0.3432
  879TIP3    H124272   1.769   5.765   1.114  0.1121 -0.0539 -1.9790
  879TIP3    H224273   1.758   5.615   1.133  1.8920  0.1733  1.8103
  880TIP3   OH224274   2.584   1.598   7.263  0.4278  0.0176 -0.4771
  880TIP3    H124275   2.577   1.506   7.289  0.3876 -0.1588 -1.0889
  880TIP3    H224276   2.678   1.617   7.262  0.3738  0.6358  1.8203
  881TIP3   OH224277   5.634   0.876   0.081 -0.3529  0.1606 -0.0690
  881TIP3    H124278   5.636   0.812   0.011 -0.1117  0.0967 -0.0034
  881TIP3    H224279   5.550   0.862   0.124 -0.5160  0.2205 -0.3624
  882TIP3   OH224280   0.686   1.689   7.402 -0.0972  0.2514  0.3778
  882TIP3    H124281   0.684   1.601   7.439 -1.1363  0.8989  1.9422
  882TIP3    H224282   0.684   1.748   7.478 -2.4952  1.6318 -0.6406
  883TIP3   OH224283   6.201   0.040   8.432 -0.0199  0.2719 -0.0710
  883TIP3    H124284   6.128   0.023   8.372  0.3944  0.3309 -0.5967
  883TIP3    H224285   6.184   0.128   8.465  0.1244  0.5156 -0.6408
  884TIP3   OH224286   5.184   4.542   0.001  0.4745  0.1919  0.4922
  884TIP3    H124287   5.233   4.498   0.071  1.0378  1.1184  0.6977
  884TIP3    H224288   5.098   4.558   0.038  1.1180  1.7243  1.4377
  885TIP3   OH224289   5.827   5.395   6.198 -0.5466  0.1733  0.6608
  885TIP3    H124290   5.773   5.338   6.253  0.0440  0.1351  1.2065
  885TIP3    H224291   5.900   5.421   6.254  0.7516 -0.8615 -0.4969
  886TIP3   OH224292   4.267   4.031   8.258 -0.3922  0.0534  0.4479
  886TIP3    H124293   4.275   4.000   8.349  0.4986  1.2543  0.8049
  886TIP3    H224294   4.227   3.958   8.211  0.2417 -1.0480  1.5638
  887TIP3   OH224295   6.618   0.903   8.593  0.2766  0.0538  0.3185
  887TIP3    H124296   6.707   0.937   8.601 -0.0956  1.1100  0.1440
  887TIP3    H224297   6.584   0.906   8.683  0.0818  0.6048  0.2270
  888TIP3   OH224298   1.771   2.300   6.996  0.0383  1.1306  0.5181
  888TIP3    H124299   1.677   2.295   6.979 -0.0824 -0.0051  1.4006
  888TIP3    H224300   1.810   2.246   6.927 -0.0045  1.0927  0.5233
  889TIP3   OH224301   0.871   0.875   8.642 -0.3481 -0.5638 -0.5756
  889TIP3    H124302   0.900   0.959   8.677  2.2897 -1.0648 -1.3097
  889TIP3    H224303   0.831   0.830   8.717  0.6365  0.3109  0.5146
  890TIP3   OH224304   2.359   5.964   8.780  0.3917 -0.7925  0.0721
  890TIP3    H124305   2.439   5.933   8.823  0.4283 -1.8377 -0.7001
  890TIP3    H224306   2.370   6.059   8.774  1.0754 -0.8049  0.9515
  891TIP3   OH224307   1.607   1.054   8.333  0.1174 -0.1678  0.5358
  891TIP3    H124308   1.553   1.102   8.396 -0.6095 -0.5892  0.2386
  891TIP3    H224309   1.686   1.108   8.324 -0.0033  0.1664  1.3973
  892TIP3   OH224310   4.482   4.036   0.585 -0.2844  0.0010  0.2506
  892TIP3    H124311   4.437   4.091   0.522 -0.9536 -0.7381  0.0606
  892TIP3    H224312   4.460   3.946   0.559  3.1641 -0.5669 -1.2821
  893TIP3   OH224313   5.527   1.210   8.486  0.5962 -0.5771  0.3495
  893TIP3    H124314   5.477   1.279   8.531 -0.0727  0.3695 -1.7194
  893TIP3    H224315   5.517   1.133   8.542 -1.4924  0.1311  1.0510
  894TIP3   OH224316   0.466   6.640   0.893 -0.3950  0.5142  0.4236
  894TIP3    H124317   0.441   6.558   0.935  0.6411  0.6764  1.3797
  894TIP3    H224318   0.398   6.703   0.919 -2.1229 -0.3514 -1.6130
  895TIP3   OH224319   3.855   4.704   6.829 -0.4627  0.1663 -0.8002
  895TIP3    H124320   3.874   4.787   6.872 -2.1197 -0.7258  1.9036
  895TIP3    H224321   3.763   4.713   6.802 -0.4612 -0.5755 -1.0562
  896TIP3   OH224322   6.674   2.328   2.014  0.7112  0.6520 -0.7438
  896TIP3    H124323   6.656   2.311   1.922  0.3084 -1.5688 -0.3200
  896TIP3    H224324   6.766   2.354   2.017  0.6510  1.0174 -1.7875
  897TIP3   OH224325   5.484   4.515   0.937  0.3033 -0.1371  0.0940
  897TIP3    H124326   5.555   4.555   0.887  1.0418  0.4858  1.5537
  897TIP3    H224327   5.466   4.579   1.006 -0.3089 -1.1861  0.9292
  898TIP3   OH224328   3.939   2.998   0.665  0.1844  0.0630  0.0422
  898TIP3    H124329   4.034   3.007   0.660  0.2640  0.0754  1.2003
  898TIP3    H224330   3.913   3.058   0.736 -0.1196 -3.2429  3.0061
  899TIP3   OH224331   1.665   4.453   0.371 -0.0797 -0.3456 -0.2082
  899TIP3    H124332   1.690   4.515   0.302  1.2814  0.3639  0.8570
  899TIP3    H224333   1.569   4.450   0.368 -0.1474  1.3940 -0.6708
  900TIP3   OH224334   2.467   0.552   1.868  0.4365 -0.0027  0.6742
  900TIP3    H124335   2.519   0.473   1.850 -0.8778 -0.8279  0.3563
  900TIP3    H224336   2.381   0.519   1.894  0.1254  1.3233  1.4248
  901TIP3   OH224337   2.303   3.728   7.348 -0.0164 -0.5308  0.2273
  901TIP3    H124338   2.224   3.768   7.384 -0.1976  0.5745 -1.3336
  901TIP3    H224339   2.365   3.799   7.340  0.5523 -1.0658 -0.1943
  902TIP3   OH224340   4.219   6.431   7.273  0.0108 -0.1445 -0.3655
  902TIP3    H124341   4.263   6.418   7.189  2.5133 -1.1600  0.9908
  902TIP3    H224342   4.163   6.355   7.283 -2.1210  1.0933 -2.0620
  903TIP3   OH224343   5.620   4.861   8.346 -0.2942  0.9414  0.0145
  903TIP3    H124344   5.673   4.936   8.318 -0.9300  1.8759  1.1950
  903TIP3    H224345   5.540   4.900   8.380 -0.2866 -0.2196  1.4548
  904TIP3   OH224346   6.562   0.480   2.429  0.1751 -0.0205  0.3831
  904TIP3    H124347   6.499   0.507   2.362 -0.3002  0.4457  1.0065
  904TIP3    H224348   6.645   0.516   2.398  0.1174 -0.5138 -0.3691
  905TIP3   OH224349   5.627   0.920   1.243 -0.1158  0.0160 -0.4482
  905TIP3    H124350   5.583   0.984   1.299  0.8598  0.2953  0.0255
  905TIP3    H224351   5.680   0.972   1.183  0.5098 -0.3323 -0.2091
  906TIP3   OH224352   5.694   5.188   0.980  0.3463 -0.8235  0.4024
  906TIP3    H124353   5.771   5.176   1.036 -0.0344 -1.0865  0.8843
  906TIP3    H224354   5.619   5.171   1.039 -0.1233  0.5542  0.2374
  907TIP3   OH224355   4.744   4.541   7.492 -0.4605 -0.0478 -0.4562
  907TIP3    H124356   4.779   4.579   7.412  1.7185  0.2123  0.5255
  907TIP3    H224357   4.721   4.617   7.546 -0.2572 -0.1849 -0.1747
  908TIP3   OH224358   2.564   6.408   7.330 -0.2970  0.4315  0.0478
  908TIP3    H124359   2.539   6.477   7.269  1.8027  0.1438 -1.2520
  908TIP3    H224360   2.643   6.441   7.373 -0.3829 -0.3671  0.8540
  909TIP3   OH224361   5.858   1.915   0.337 -0.0595 -0.1883 -0.3440
  909TIP3    H124362   5.771   1.894   0.373 -0.0168 -1.0709 -0.7470
  909TIP3    H224363   5.871   1.852   0.267  1.4349 -0.8779  0.5175
  910TIP3   OH224364   5.174   2.810   1.344  0.0988  0.5479  0.1817
  910TIP3    H124365   5.157   2.794   1.437  2.3924  2.9207  1.1303
  910TIP3    H224366   5.257   2.765   1.327 -0.5393 -0.2711 -0.9059
  911TIP3   OH224367   3.863   3.446   7.770 -0.1805  0.3550  0.0427
  911TIP3    H124368   3.936   3.387   7.784 -0.4456 -0.3741 -1.3774
  911TIP3    H224369   3.903   3.527   7.739  0.1495  0.7303  1.4273
  912TIP3   OH224370   0.485   2.684   8.357  1.1053  0.2019  0.4633
  912TIP3    H124371   0.439   2.677   8.273  0.1393  0.5819  0.9541
  912TIP3    H224372   0.512   2.775   8.363 -0.6622  0.6894  1.4961
  913TIP3   OH224373   2.998   1.092   7.642 -0.0566  0.2218  0.0946
  913TIP3    H124374   3.092   1.111   7.638 -0.0006  0.2091  1.0608
  913TIP3    H224375   2.965   1.150   7.711 -0.8189  0.4372 -0.4374
  914TIP3   OH224376   5.581   6.639   0.758 -0.0546 -0.3621 -0.4955
  914TIP3    H124377   5.496   6.652   0.716  0.1859  0.4648 -0.7270
  914TIP3    H224378   5.567   6.564   0.817 -1.6353  1.2244  1.2959
  915TIP3   OH224379   3.231   5.734   7.011  0.2498 -0.4118  0.2022
  915TIP3    H124380   3.183   5.709   6.932  2.2383 -1.0434 -0.8848
  915TIP3    H224381   3.236   5.829   7.007  0.7656 -0.4588 -0.7531
  916TIP3   OH224382   1.704   2.839   0.165  0.5832 -0.2559 -0.1117
  916TIP3    H124383   1.639   2.816   0.232  0.1507 -1.4060 -0.8901
  916TIP3    H224384   1.769   2.770   0.170  1.4744  0.5954  0.2826
  917TIP3   OH224385   6.391   3.776   7.954 -0.3206  0.4188 -0.1155
  917TIP3    H124386   6.368   3.686   7.931 -1.6826  0.3752  1.2381
  917TIP3    H224387   6.333   3.830   7.901  0.9235  0.5561 -1.3886
  918TIP3   OH224388   0.872   0.843   8.361 -0.5075  0.3958  0.0519
  918TIP3    H124389   0.787   0.874   8.328 -1.0165 -1.2977 -0.3008
  918TIP3    H224390   0.868   0.859   8.455 -1.0544  0.7122 -0.0154
  919TIP3   OH224391   2.484   4.616   7.023  0.1652 -0.6360  0.1231
  919TIP3    H124392   2.435   4.593   7.102  1.4365 -3.0754  0.2907
  919TIP3    H224393   2.576   4.606   7.048  0.7173  1.4710 -0.8649
  920TIP3   OH224394   2.857   1.758   2.108 -0.1783  0.0606 -0.2793
  920TIP3    H124395   2.807   1.838   2.121 -1.3585 -0.7480  0.3282
  920TIP3    H224396   2.948   1.785   2.114 -0.5298  1.5173 -1.0602
  921TIP3   OH224397   3.435   2.867   0.708 -0.0356  0.3389 -0.2510
  921TIP3    H124398   3.509   2.907   0.661  0.1713 -0.9594 -1.0668
  921TIP3    H224399   3.470   2.784   0.741 -1.4705 -0.8818 -1.7188
  922TIP3   OH224400   4.979   3.485   0.767  0.1349 -1.0122  0.5785
  922TIP3    H124401   5.001   3.408   0.820  0.0894 -1.8721 -0.6046
  922TIP3    H224402   4.985   3.454   0.677 -2.0262 -0.2272  0.1071
  923TIP3   OH224403   1.987   5.990   0.771 -0.7771 -0.3256  0.7070
  923TIP3    H124404   2.000   6.073   0.816  0.5370 -0.6236  0.9399
  923TIP3    H224405   2.035   6.000   0.689 -0.2955 -0.9539  0.8955
  924TIP3   OH224406   5.942   3.820   8.228 -0.6985  0.2627 -0.6267
  924TIP3    H124407   6.014   3.762   8.248 -0.7538  0.5707  0.5441
  924TIP3    H224408   5.900   3.837   8.313 -0.1000  2.7598 -0.7642
  925TIP3   OH224409   2.483   4.972   1.048 -0.0639 -0.3027 -0.2018
  925TIP3    H124410   2.550   5.038   1.067 -0.7911 -0.0063  1.6134
  925TIP3    H224411   2.402   5.023   1.040 -0.2468 -0.7536 -1.3669
  926TIP3   OH224412   6.002   4.997   7.960 -0.5826 -1.1241 -0.2191
  926TIP3    H124413   5.960   4.935   8.020  0.8023 -2.6611 -0.7588
  926TIP3    H224414   5.931   5.026   7.902 -1.4413 -1.4692  0.6219
  927TIP3   OH224415   5.084   4.070   7.629  0.3456  0.3209  0.1417
  927TIP3    H124416   5.096   4.015   7.551  1.3048 -0.4532  0.8110
  927TIP3    H224417   5.049   4.010   7.695 -1.5571  1.2229  0.0068
  928TIP3   OH224418   2.854   1.309   1.131 -0.1186  0.5281  0.0824
  928TIP3    H124419   2.785   1.296   1.067 -0.8513 -0.0257  0.9656
  928TIP3    H224420   2.811   1.349   1.206  0.2208 -1.0078  1.1561
  929TIP3   OH224421   4.801   3.810   6.170 -0.3622 -0.0245 -0.1490
  929TIP3    H124422   4.888   3.843   6.147 -0.2122  0.7324  1.4062
  929TIP3    H224423   4.773   3.762   6.092  0.3170  1.9402 -1.6795
  930TIP3   OH224424   0.887   1.825   6.593 -0.2826  0.5000  0.1241
  930TIP3    H124425   0.846   1.841   6.508 -0.7684 -0.0493  0.2531
  930TIP3    H224426   0.981   1.826   6.574 -0.3333 -3.3551 -1.1982
  931TIP3   OH224427   0.692   6.390   6.758 -0.2932 -0.1646 -0.6134
  931TIP3    H124428   0.741   6.461   6.715 -1.6963  0.0042 -2.0164
  931TIP3    H224429   0.605   6.425   6.771 -0.5151 -1.0275  0.3451
  932TIP3   OH224430   4.422   0.090   7.381  0.1290 -0.0793  0.0307
  932TIP3    H124431   4.480   0.131   7.446 -0.3079 -0.1371  0.4603
  932TIP3    H224432   4.478   0.025   7.337  0.2809 -0.4383  0.7362
  933TIP3   OH224433   5.752   2.877   0.778  0.0946 -0.2932  0.2965
  933TIP3    H124434   5.688   2.852   0.845 -1.2003  1.4610 -0.2111
  933TIP3    H224435   5.807   2.800   0.768  1.3421 -0.1687  4.4679
  934TIP3   OH224436   2.821   2.004   1.380 -0.7546 -0.1677  0.1283
  934TIP3    H124437   2.877   1.971   1.450  1.3813  0.8234 -1.0151
  934TIP3    H224438   2.820   2.099   1.394 -0.4845  0.0183 -1.0179
  935TIP3   OH224439   5.383   6.289   0.042  0.2847  0.5860  0.0673
  935TIP3    H124440   5.478   6.297   0.056  0.1862  0.4196  0.8975
  935TIP3    H224441   5.347   6.275   0.129 -0.2040 -2.3784 -0.5113
  936TIP3   OH224442   1.784   1.111   6.490 -1.0583  0.3039  0.5589
  936TIP3    H124443   1.797   1.029   6.442 -0.6403  0.5859  0.1929
  936TIP3    H224444   1.700   1.099   6.535 -1.9153  0.3910 -0.9681
  937TIP3   OH224445   1.437   1.526   0.850  0.3417 -0.0021 -0.1390
  937TIP3    H124446   1.422   1.609   0.896 -0.6775 -0.0911 -0.2756
  937TIP3    H224447   1.461   1.553   0.761 -0.9681  0.1637 -0.4653
  938TIP3   OH224448   2.019   3.248   8.648  0.4720 -0.1569 -0.1641
  938TIP3    H124449   1.960   3.321   8.631  1.4685  1.0726  1.3941
  938TIP3    H224450   2.068   3.236   8.567 -0.3100  0.3158 -0.7139
  939TIP3   OH224451   1.928   5.080   0.036 -0.1453 -0.0726 -0.7718
  939TIP3    H124452   1.966   5.155   0.081 -0.0013 -0.4083 -0.3285
  939TIP3    H224453   1.964   5.003   0.081 -0.8782 -0.4006 -0.7231
  940TIP3   OH224454   5.282   0.263   0.472 -0.5397 -0.1586 -0.0286
  940TIP3    H124455   5.301   0.332   0.535 -1.2062  0.3697 -0.3936
  940TIP3    H224456   5.356   0.203   0.479 -1.2283 -0.8564  2.2546
  941TIP3   OH224457   2.463   6.535   0.782  0.6230 -0.6489  0.1178
  941TIP3    H124458   2.540   6.490   0.747  0.4531 -2.3373  1.7159
  941TIP3    H224459   2.490   6.563   0.870  0.1433  0.8880 -0.1917
  942TIP3   OH224460   1.314   6.026   0.933  0.7484  0.3264  0.0989
  942TIP3    H124461   1.344   5.964   0.866  2.1441  0.9896  0.0741
  942TIP3    H224462   1.338   6.112   0.898  0.5226  0.7540  0.9718
  943TIP3   OH224463   0.672   4.108   0.977  0.0470  0.2000  0.0404
  943TIP3    H124464   0.753   4.150   0.948  0.2962 -0.6651 -0.5570
  943TIP3    H224465   0.624   4.178   1.022  1.4425  0.5312  1.0743
  944TIP3   OH224466   0.552   2.997   0.308  0.2353 -0.2768 -0.4726
  944TIP3    H124467   0.479   3.019   0.366  0.6745 -1.1631  0.4637
  944TIP3    H224468   0.526   3.029   0.222 -1.3043 -0.6708 -0.1804
  945TIP3   OH224469   0.304   0.481   7.702 -0.1054  0.1560  0.2320
  945TIP3    H124470   0.223   0.441   7.732 -0.9922  0.9054 -1.0824
  945TIP3    H224471   0.277   0.560   7.656  1.2343 -0.4591 -1.7303
  946TIP3   OH224472   6.683   0.768   0.616  0.2228 -0.5916 -0.1124
  946TIP3    H124473   6.642   0.834   0.560 -0.0650 -0.7382 -0.0726
  946TIP3    H224474   6.645   0.783   0.703  0.7025 -0.3341  0.0596
  947TIP3   OH224475   4.813   1.620   1.209  0.2878  0.5456 -0.1016
  947TIP3    H124476   4.741   1.664   1.254  0.4608  1.0646 -0.3262
  947TIP3    H224477   4.882   1.614   1.275 -0.8178 -2.2852  0.9555
  948TIP3   OH224478   0.723   1.671   6.782  0.5655 -0.0237  0.0583
  948TIP3    H124479   0.771   1.708   6.708 -0.1797  1.5918  0.3316
  948TIP3    H224480   0.632   1.694   6.764  0.4752  1.2753  1.9275
  949TIP3   OH224481   5.123   0.814   8.783 -0.3431 -0.3851  0.2521
  949TIP3    H124482   5.045   0.870   8.783 -0.5218 -0.6258  0.5833
  949TIP3    H224483   5.152   0.812   8.692 -1.3148 -1.0944 -0.0620
  950TIP3   OH224484   4.739   3.448   1.689  0.4724  0.2568  0.2373
  950TIP3    H124485   4.805   3.423   1.754  0.7771  1.1323  0.2734
  950TIP3    H224486   4.666   3.388   1.705  0.6290  0.3202  1.2544
  951TIP3   OH224487   4.388   1.870   1.709 -0.4083  0.3505 -0.4108
  951TIP3    H124488   4.300   1.897   1.734 -0.5206 -0.9514  0.7857
  951TIP3    H224489   4.436   1.867   1.792 -0.0543 -1.7015 -0.6252
  952TIP3   OH224490   1.227   2.426   0.153 -1.3834 -0.3581  0.0817
  952TIP3    H124491   1.253   2.442   0.063  0.1417 -1.9027  0.1899
  952TIP3    H224492   1.201   2.511   0.186  0.8681  0.8168 -0.9529
  953TIP3   OH224493   4.428   6.346   8.267 -0.3138 -0.0856  0.6066
  953TIP3    H124494   4.444   6.348   8.173 -0.1268  0.7166  0.6488
  953TIP3    H224495   4.441   6.254   8.292 -0.4446 -0.3166 -0.1566
  954TIP3   OH224496   3.915   2.887   7.343  0.0813  0.0492  0.2524
  954TIP3    H124497   3.941   2.893   7.251 -1.3805 -1.4099 -0.3056
  954TIP3    H224498   3.891   2.795   7.355 -0.0878  0.2965  1.9988
  955TIP3   OH224499   5.342   4.282   7.496  0.4699 -0.0943  0.2645
  955TIP3    H124500   5.393   4.361   7.479  2.8716 -1.5992  0.0250
  955TIP3    H224501   5.399   4.210   7.471 -1.2917 -1.9741  1.2761
  956TIP3   OH224502   6.702   1.483   0.962 -0.8121 -0.0607 -0.1905
  956TIP3    H124503   6.635   1.446   0.905  1.0614 -1.3661 -1.7098
  956TIP3    H224504   6.769   1.516   0.902  0.6036 -0.1883  1.2442
  957TIP3   OH224505   3.939   2.492   8.708 -0.3625  0.6767 -0.3871
  957TIP3    H124506   3.951   2.566   8.648 -0.6968  1.0344 -0.0285
  957TIP3    H224507   3.847   2.497   8.734 -0.6108 -0.3864 -1.0139
  958TIP3   OH224508   4.568   1.755   1.296 -0.1917  0.6783 -0.5529
  958TIP3    H124509   4.491   1.741   1.351  1.7079 -1.8180  1.7881
  958TIP3    H224510   4.587   1.848   1.305 -0.4365  0.5616  2.5871
  959TIP3   OH224511   6.536   5.162   0.161  0.0969  0.2265  0.1917
  959TIP3    H124512   6.547   5.074   0.124  0.7581  0.1193  0.6189
  959TIP3    H224513   6.600   5.166   0.233  2.4315  2.1461 -1.7855
  960TIP3   OH224514   2.173   5.549   2.396  0.9977 -0.6970  0.0951
  960TIP3    H124515   2.161   5.465   2.441  0.5358 -0.5728  0.2139
  960TIP3    H224516   2.264   5.573   2.413  0.7159 -0.4361  1.3648
  961TIP3   OH224517   4.172   0.378   0.986 -0.5076  0.5126 -0.1996
  961TIP3    H124518   4.266   0.361   0.985 -0.7615 -1.0193 -0.7065
  961TIP3    H224519   4.139   0.344   0.903 -1.5095  1.0932 -0.0685
  962TIP3   OH224520   3.468   3.317   0.998  0.0498  0.3679 -0.4380
  962TIP3    H124521   3.426   3.258   1.061 -1.1478 -1.8337 -3.0549
  962TIP3    H224522   3.561   3.295   1.003 -0.3417 -1.7408 -1.2030
  963TIP3   OH224523   5.601   5.048   0.732  0.1423 -0.2249  0.0507
  963TIP3    H124524   5.655   5.120   0.764 -1.6304  0.8029  0.8679
  963TIP3    H224525   5.576   5.074   0.643 -1.3512  0.7553  0.7045
  964TIP3   OH224526   5.735   4.096   1.548 -0.1388 -0.4944 -0.0260
  964TIP3    H124527   5.752   4.079   1.640 -0.3091  3.2683  0.8546
  964TIP3    H224528   5.811   4.059   1.502  1.2702 -0.1426  1.9169
  965TIP3   OH224529   1.889   2.078   8.069 -0.1385 -0.2600  0.0302
  965TIP3    H124530   1.934   2.055   8.150 -1.9926  1.6338  1.7072
  965TIP3    H224531   1.909   2.171   8.056  1.0629 -0.7639 -2.4026
  966TIP3   OH224532   1.936   0.477   8.802 -0.7021  0.0418 -0.0078
  966TIP3    H124533   2.021   0.491   8.760  0.1240 -0.1306  1.5375
  966TIP3    H224534   1.898   0.564   8.810 -1.2464  0.0000 -1.8100
  967TIP3   OH224535   4.919   2.089   0.015 -0.5434  0.5564  0.2937
  967TIP3    H124536   4.992   2.147   0.037  0.7866 -0.5558 -0.9992
  967TIP3    H224537   4.918   2.088  -0.081 -0.3173 -1.7554  0.2613
  968TIP3   OH224538   1.082   3.167   0.046 -0.3157 -0.6128  0.1471
  968TIP3    H124539   1.040   3.216  -0.025 -0.4235 -1.1609 -0.1778
  968TIP3    H224540   1.039   3.082   0.044  0.2090 -0.8887  0.3795
  969TIP3   OH224541   6.800   2.696   1.059 -0.1221  0.4973  1.0221
  969TIP3    H124542   6.821   2.628   0.995  0.3685 -1.6700  3.3287
  969TIP3    H224543   6.809   2.778   1.011  0.2742 -0.9915 -1.6287
  970TIP3   OH224544   5.012   5.908   8.209  0.7350 -0.3704 -0.1934
  970TIP3    H124545   5.058   5.823   8.206  0.3464 -0.7694  2.7147
  970TIP3    H224546   5.080   5.971   8.231  0.6320 -0.2871 -0.1151
  971TIP3   OH224547   4.368   0.268   7.987  0.6277 -0.0886 -0.2482
  971TIP3    H124548   4.372   0.182   8.028 -0.0640 -0.5253 -1.0595
  971TIP3    H224549   4.283   0.269   7.942  1.2048  0.4865 -1.3624
  972TIP3   OH224550   1.508   3.069   1.305  0.3428 -0.3243  0.8285
  972TIP3    H124551   1.536   2.992   1.354 -0.3124 -0.6662  0.6770
  972TIP3    H224552   1.552   3.142   1.347  0.0116 -0.6452  1.7476
  973TIP3   OH224553   6.572   4.560   1.757  0.0180  0.1221  0.1527
  973TIP3    H124554   6.509   4.629   1.775  0.2706  0.0837  1.2197
  973TIP3    H224555   6.526   4.479   1.779 -0.1660 -0.0390 -0.7801
  974TIP3   OH224556   0.451   4.782   7.241 -0.1383  0.1117 -0.0090
  974TIP3    H124557   0.505   4.751   7.313  1.8709 -0.4685 -1.6878
  974TIP3    H224558   0.434   4.705   7.187 -1.0991  0.6335 -0.4979
  975TIP3   OH224559   5.953   4.616   1.460 -0.5583 -0.1398  0.0234
  975TIP3    H124560   5.954   4.590   1.553 -1.2712  1.2742  0.4559
  975TIP3    H224561   5.946   4.711   1.462 -2.8262 -0.1794 -1.4623
  976TIP3   OH224562   2.632   6.330   0.700  0.1895  0.0492  0.3124
  976TIP3    H124563   2.581   6.249   0.696 -0.8071  0.6063  1.1483
  976TIP3    H224564   2.648   6.352   0.609 -0.7863 -0.3285  0.0276
  977TIP3   OH224565   3.378   3.313   0.429  0.6270  0.0966  0.3054
  977TIP3    H124566   3.378   3.217   0.430  1.2018  0.0921  0.0094
  977TIP3    H224567   3.362   3.338   0.520  1.0266 -0.2745  0.4802
  978TIP3   OH224568   4.519   1.319   6.426 -0.7284  0.3640  0.9484
  978TIP3    H124569   4.514   1.397   6.370 -0.3393 -0.6044 -0.4795
  978TIP3    H224570   4.610   1.291   6.419 -1.2944 -1.3703 -0.2133
  979TIP3   OH224571   1.939   4.186   1.341  0.1861 -0.5470 -0.4437
  979TIP3    H124572   1.941   4.279   1.363 -1.7897 -0.4323 -0.5960
  979TIP3    H224573   1.866   4.151   1.392 -0.4519 -1.5607 -1.9670
  980TIP3   OH224574   1.398   0.437   7.163 -0.1567  0.1285  0.5030
  980TIP3    H124575   1.329   0.498   7.138 -0.0444 -0.5699 -1.7797
  980TIP3    H224576   1.354   0.368   7.212 -0.6976  0.7214  0.8673
  981TIP3   OH224577   5.340   6.536   8.229 -0.2445  0.0728 -0.2721
  981TIP3    H124578   5.343   6.598   8.303 -1.0180 -0.3697  0.1408
  981TIP3    H224579   5.366   6.452   8.267 -1.1506 -0.2652 -0.3843
  982TIP3   OH224580   6.622   5.706   8.412  0.2385 -0.5867 -0.0122
  982TIP3    H124581   6.634   5.622   8.456 -1.3173 -1.7789 -1.6970
  982TIP3    H224582   6.591   5.683   8.324 -3.8254  1.7216  0.5354
  983TIP3   OH224583   5.701   3.030   0.261  0.3599 -0.0981 -0.1629
  983TIP3    H124584   5.675   2.939   0.242 -1.1296 -0.4507  2.8810
  983TIP3    H224585   5.791   3.024   0.292  0.1164 -0.6209  0.4551
  984TIP3   OH224586   4.934   1.055   2.172 -0.7890 -0.1382 -0.7223
  984TIP3    H124587   4.840   1.068   2.172 -0.9195 -0.9608 -1.4424
  984TIP3    H224588   4.946   0.966   2.205 -0.0832  0.7964  1.7906
  985TIP3   OH224589   5.469   5.589   8.388  0.0688  0.3690 -0.0672
  985TIP3    H124590   5.529   5.642   8.336 -1.6400  1.6170 -0.8710
  985TIP3    H224591   5.526   5.536   8.444  1.8951  1.4928 -0.7640
  986TIP3   OH224592   3.314   0.417   8.377  0.3791 -1.1861 -0.7083
  986TIP3    H124593   3.299   0.511   8.364  1.0283 -0.8515  0.7807
  986TIP3    H224594   3.231   0.376   8.351  0.1171 -0.2232 -1.4645
  987TIP3   OH224595   2.853   3.969   8.740 -0.2723 -0.0104 -0.0689
  987TIP3    H124596   2.929   4.001   8.788  0.3714  0.7869 -1.5448
  987TIP3    H224597   2.780   4.024   8.770 -0.3246 -0.8275  1.4057
  988TIP3   OH224598   4.116   6.781   6.345 -0.1168  0.3074  0.6258
  988TIP3    H124599   4.181   6.851   6.349 -0.9732  1.1953 -0.2646
  988TIP3    H224600   4.134   6.727   6.422  1.5559  0.6084  0.4827
  989TIP3   OH224601   4.049   5.382   8.446 -0.4039  0.5281  0.0097
  989TIP3    H124602   4.086   5.423   8.524 -1.5880 -0.8149  1.3362
  989TIP3    H224603   4.121   5.381   8.383  1.6627 -1.2600  2.2076
  990TIP3   OH224604   0.581   0.081   8.098 -0.0357  0.4473 -0.5892
  990TIP3    H124605   0.513   0.042   8.042 -0.8727  0.4126  0.4201
  990TIP3    H224606   0.653   0.018   8.094 -0.2554  0.2271 -1.2755
  991TIP3   OH224607   3.049   6.418   7.611 -0.0972  0.4322  0.1017
  991TIP3    H124608   3.031   6.433   7.704 -0.2115 -0.1256  0.1697
  991TIP3    H224609   3.056   6.506   7.574 -2.9048  0.7511  0.0800
  992TIP3   OH224610   3.302   2.651   1.128  0.3847 -0.3778  0.2601
  992TIP3    H124611   3.332   2.609   1.208 -0.0934 -2.7027 -0.6786
  992TIP3    H224612   3.207   2.655   1.137  0.2412 -1.5004 -0.5180
  993TIP3   OH224613   1.901   1.329   1.759  0.1182  0.1106  0.4865
  993TIP3    H124614   1.848   1.311   1.837 -0.7766  0.1076 -0.1087
  993TIP3    H224615   1.983   1.365   1.794 -0.8278  1.5310  1.3966
  994TIP3   OH224616   5.945   5.677   1.194  0.6929  0.2366  0.7278
  994TIP3    H124617   5.905   5.597   1.230  1.0637 -0.2027  0.1853
  994TIP3    H224618   5.870   5.732   1.171  0.4065 -0.3261  0.2812
  995TIP3   OH224619   5.216   0.812   8.519 -0.1690 -0.8679  0.0224
  995TIP3    H124620   5.280   0.872   8.480 -2.2027  2.2658  1.2361
  995TIP3    H224621   5.157   0.790   8.447  0.9499 -2.0451 -0.5814
  996TIP3   OH224622   5.369   3.410   6.257  0.1093 -0.3360  0.5915
  996TIP3    H124623   5.347   3.327   6.298  1.4886 -0.2854  1.5002
  996TIP3    H224624   5.331   3.476   6.314  2.8583 -0.2241  2.5062
  997TIP3   OH224625   5.186   0.976   0.765 -0.2184  0.1932  0.6645
  997TIP3    H124626   5.129   0.985   0.689 -0.2650 -2.4491  0.2985
  997TIP3    H224627   5.165   1.052   0.820 -2.9365  0.1876 -0.2056
  998TIP3   OH224628   1.853   3.258   0.534  0.0286  0.6625  0.2207
  998TIP3    H124629   1.892   3.182   0.577 -0.8616  1.3589  2.4031
  998TIP3    H224630   1.825   3.314   0.606  0.7007  3.1085 -1.3101
  999TIP3   OH224631   6.524   1.414   7.895 -0.3924  0.4286  0.0330
  999TIP3    H124632   6.561   1.386   7.978 -0.1920 -0.7045 -0.4122
  999TIP3    H224633   6.598   1.449   7.846 -0.4482  0.7858  0.2013
 1000TIP3   OH224634   4.302   4.190   7.139  0.2828 -0.2325  0.0767
 1000TIP3    H124635   4.393   4.210   7.120  0.7028 -1.1780  0.9801
 1000TIP3    H224636   4.281   4.117   7.080 -0.5722  1.3029 -1.6376
 1001TIP3   OH224637   1.250   1.848   2.320 -0.0736  0.0526  0.3157
 1001TIP3    H124638   1.312   1.781   2.347  0.5300 -0.0854 -1.2851
 1001TIP3    H224639   1.301   1.908   2.266 -1.2299  0.1140 -0.7798
 1002TIP3   OH224640   2.892   4.259   8.262 -0.0178  0.6287  0.3853
 1002TIP3    H124641   2.894   4.295   8.350 -1.1454  1.9857 -0.1038
 1002TIP3    H224642   2.835   4.183   8.268 -1.4175  1.6544  0.5345
 1003TIP3   OH224643   3.446   6.478   1.359  0.4151 -0.3629 -0.4135
 1003TIP3    H124644   3.513   6.546   1.351  0.0626 -0.0990 -1.1063
 1003TIP3    H224645   3.459   6.444   1.448  0.9488  0.2290 -0.2510
 1004TIP3   OH224646   2.657   5.371   8.500  0.1899 -0.5989 -0.2460
 1004TIP3    H124647   2.627   5.416   8.421 -1.9146 -2.0939 -0.4078
 1004TIP3    H224648   2.715   5.433   8.543 -0.5754  1.2346 -1.7138
 1005TIP3   OH224649   1.196   6.139   8.540 -0.5973  0.0252 -0.2498
 1005TIP3    H124650   1.251   6.206   8.498  0.5489  1.5351  3.2293
 1005TIP3    H224651   1.106   6.168   8.524 -0.1417  3.3315  2.1899
 1006TIP3   OH224652   6.672   1.053   0.456 -0.1255  0.1386  0.0478
 1006TIP3    H124653   6.620   1.082   0.381 -2.8195 -0.9244  1.3263
 1006TIP3    H224654   6.656   1.120   0.523  1.2147  0.4331  0.0884
 1007TIP3   OH224655   2.268   5.443   1.097 -0.5482  0.4191  0.2806
 1007TIP3    H124656   2.336   5.508   1.077 -1.6441  1.7774  0.8011
 1007TIP3    H224657   2.196   5.494   1.133 -1.2743 -1.1628  1.1766
 1008TIP3   OH224658   5.867   5.479   6.592 -0.2834  0.2897  0.1785
 1008TIP3    H124659   5.895   5.527   6.670  0.4252  0.5613 -0.2387
 1008TIP3    H224660   5.866   5.387   6.619  1.3905  0.2229  0.1080
 1009TIP3   OH224661   4.795   3.064   0.037  0.3449 -0.1104  0.0708
 1009TIP3    H124662   4.873   3.119   0.043  0.0181  0.4791 -1.0152
 1009TIP3    H224663   4.769   3.050   0.129  0.9481  0.7766  0.3888
 1010TIP3   OH224664   2.205   1.815   8.160  0.1363  0.0246 -0.1986
 1010TIP3    H124665   2.169   1.820   8.072  0.5819 -0.2731 -0.3987
 1010TIP3    H224666   2.300   1.812   8.148  0.2408  0.7868  0.3204
 1011TIP3   OH224667   4.395   6.524   8.466 -0.2079  0.3133 -0.4748
 1011TIP3    H124668   4.391   6.451   8.405 -1.0865  0.3869 -0.5161
 1011TIP3    H224669   4.484   6.522   8.501  0.0163 -0.2812 -1.0763
 1012TIP3   OH224670   2.161   5.817   1.182 -0.2702 -0.4679  0.0623
 1012TIP3    H124671   2.143   5.872   1.258  0.6339 -1.5368  1.0893
 1012TIP3    H224672   2.099   5.744   1.189 -0.1431 -0.6045 -0.2000
 1013TIP3   OH224673   3.169   6.440   6.685  0.1510 -0.0847  0.4862
 1013TIP3    H124674   3.175   6.505   6.615  0.8848  0.1716  0.7703
 1013TIP3    H224675   3.149   6.358   6.641  0.3064  0.1326  0.0051
 1014TIP3   OH224676   0.405   3.429   1.694 -0.1403  0.4313  0.6268
 1014TIP3    H124677   0.372   3.340   1.678 -1.2955  1.1341 -1.2352
 1014TIP3    H224678   0.447   3.454   1.613  1.5510  1.0676  1.6540
 1015TIP3   OH224679   2.155   0.870   7.815  0.3332 -0.3607  0.1615
 1015TIP3    H124680   2.078   0.817   7.835  0.0124 -0.8894 -2.1086
 1015TIP3    H224681   2.228   0.807   7.814  0.2480 -0.4572 -0.7877
 1016TIP3   OH224682   0.896   3.220   1.065  0.4589  0.0682  0.1287
 1016TIP3    H124683   0.964   3.153   1.074 -0.3052 -0.7202  0.1919
 1016TIP3    H224684   0.814   3.170   1.066 -0.2646  1.2036  2.4826
 1017TIP3   OH224685   2.002   5.790   6.817 -0.5210  0.3011 -0.3452
 1017TIP3    H124686   2.090   5.758   6.797 -0.6875  0.6791 -1.8060
 1017TIP3    H224687   2.011   5.885   6.818 -0.9027  0.3387 -0.4617
 1018TIP3   OH224688   0.424   5.536   6.872  0.4916 -0.3455  0.4281
 1018TIP3    H124689   0.441   5.613   6.817 -0.5820 -1.0142 -0.8979
 1018TIP3    H224690   0.464   5.464   6.823 -2.4665 -1.3301 -0.7760
 1019TIP3   OH224691   2.971   6.465   7.257 -0.0589  0.4747 -0.3362
 1019TIP3    H124692   2.937   6.552   7.235 -0.6389  0.8904  1.9422
 1019TIP3    H224693   2.893   6.415   7.283  0.3664 -0.4986 -0.8978
 1020TIP3   OH224694   3.545   4.043   0.231 -0.2095 -0.2909 -0.3889
 1020TIP3    H124695   3.512   4.125   0.193  0.6393  0.1758 -0.1544
 1020TIP3    H224696   3.613   4.071   0.292 -0.2260 -1.1526  0.0354
 1021TIP3   OH224697   1.349   4.501   1.727  0.1047  0.5434  0.3446
 1021TIP3    H124698   1.376   4.528   1.815 -1.6863 -0.7308  1.3424
 1021TIP3    H224699   1.391   4.416   1.715  0.3229  0.7016 -0.0354
 1022TIP3   OH224700   5.900   5.305   8.372 -0.0233 -0.0216  0.2090
 1022TIP3    H124701   5.822   5.358   8.361  0.3298  0.6010  0.6344
 1022TIP3    H224702   5.950   5.350   8.440  1.1553  0.1277 -0.7221
 1023TIP3   OH224703   1.726   4.070   8.230 -0.1173 -0.5430 -0.5422
 1023TIP3    H124704   1.791   4.069   8.301 -2.4045  0.6877  1.7126
 1023TIP3    H224705   1.725   3.980   8.198  0.9684 -1.1666  1.0108
 1024TIP3   OH224706   4.644   2.277   7.933  0.0243  0.0104  0.1251
 1024TIP3    H124707   4.552   2.272   7.906  0.2679  1.4603 -1.1583
 1024TIP3    H224708   4.689   2.310   7.855  1.9014 -2.0449  0.2472
 1025TIP3   OH224709   5.558   2.697   0.904 -0.5032 -0.4513 -0.0283
 1025TIP3    H124710   5.607   2.616   0.886  1.1537  0.6012 -0.5133
 1025TIP3    H224711   5.476   2.667   0.944  1.2736 -2.2607  2.6243
 1026TIP3   OH224712   3.394   2.886   8.041 -0.5134  0.1354 -0.3356
 1026TIP3    H124713   3.341   2.849   8.111 -0.6746  1.0123  0.0170
 1026TIP3    H224714   3.391   2.820   7.971  0.9153 -1.4661  1.0201
 1027TIP3   OH224715   6.356   6.456   7.157  0.0306  0.0312  0.3841
 1027TIP3    H124716   6.438   6.476   7.202  0.9662 -0.4754 -1.0516
 1027TIP3    H224717   6.313   6.391   7.213  1.0317 -0.3847  0.6852
 1028TIP3   OH224718   3.829   3.657   7.441  0.5025  0.0586  0.6760
 1028TIP3    H124719   3.751   3.654   7.387  0.8894  2.1208 -0.1153
 1028TIP3    H224720   3.862   3.567   7.442 -0.0626 -0.2443 -1.7313
 1029TIP3   OH224721   1.500   5.469   1.468  0.0951 -0.6979  0.3234
 1029TIP3    H124722   1.453   5.490   1.549 -1.1753 -3.5190  0.4239
 1029TIP3    H224723   1.477   5.540   1.409  0.4295  1.0247  2.1309
 1030TIP3   OH224724   5.588   3.497   6.088 -0.1612 -0.1587 -0.0946
 1030TIP3    H124725   5.500   3.503   6.126  0.2667  0.1150  0.8731
 1030TIP3    H224726   5.600   3.404   6.069 -0.5724 -0.2256 -0.0443
 1031TIP3   OH224727   0.889   1.884   8.467  0.3397  0.3796  0.5503
 1031TIP3    H124728   0.819   1.856   8.525  0.4698  0.8556  0.9445
 1031TIP3    H224729   0.844   1.922   8.391  0.1643 -0.8835  0.0105
 1032TIP3   OH224730   1.591   0.007   0.461 -0.1357  0.8928 -1.0730
 1032TIP3    H124731   1.565  -0.076   0.500 -0.7446  0.8418 -1.5822
 1032TIP3    H224732   1.680  -0.009   0.429 -0.0280  0.6203 -0.6513
 1033TIP3   OH224733   1.369   4.225   1.466  0.6165  0.6030 -0.1652
 1033TIP3    H124734   1.434   4.227   1.536  0.7345 -1.9264 -0.0835
 1033TIP3    H224735   1.300   4.168   1.500  0.4330 -0.2596 -1.8664
 1034TIP3   OH224736   2.238   5.538   0.379 -0.4388 -0.5958 -0.0783
 1034TIP3    H124737   2.323   5.515   0.417  0.4814  1.3870 -0.8046
 1034TIP3    H224738   2.247   5.518   0.286 -0.7520 -0.3846 -0.1562
 1035TIP3   OH224739   1.918   4.820   1.427  0.5922  0.8937 -0.2112
 1035TIP3    H124740   1.940   4.819   1.520  0.1699 -0.4217 -0.1081
 1035TIP3    H224741   1.984   4.877   1.388  1.9102  0.0008  0.6293
 1036TIP3   OH224742   1.568   4.305   7.245 -0.0380 -0.3521  0.3328
 1036TIP3    H124743   1.595   4.391   7.213  0.3020 -1.1104 -1.5275
 1036TIP3    H224744   1.472   4.305   7.236  0.1026 -0.8112 -1.4671
 1037TIP3   OH224745   3.086   1.445   1.063  0.0999 -0.2203 -0.0441
 1037TIP3    H124746   3.134   1.400   0.994  0.0626  0.6662 -0.6589
 1037TIP3    H224747   3.010   1.388   1.079 -0.1233 -0.2243 -1.0391
 1038TIP3   OH224748   1.503   4.869   7.297  0.5940 -0.2308  0.1392
 1038TIP3    H124749   1.439   4.940   7.292  1.0433  0.2885  1.4567
 1038TIP3    H224750   1.583   4.910   7.328  1.6127 -0.8677 -1.5140
 1039TIP3   OH224751   4.714   3.986   1.240 -0.4971 -0.1312  0.4058
 1039TIP3    H124752   4.623   3.960   1.247  0.1551 -3.0162 -0.5566
 1039TIP3    H224753   4.716   4.050   1.169 -1.5703 -1.2738 -0.6881
 1040TIP3   OH224754   2.050   0.899   0.728 -0.0821 -0.5245  0.5701
 1040TIP3    H124755   1.971   0.950   0.713 -0.5570  0.0187  4.1303
 1040TIP3    H224756   2.019   0.809   0.738 -0.0131 -0.5755  0.3408
 1041TIP3   OH224757   4.492   4.162   8.153 -0.0450 -0.5498 -0.4189
 1041TIP3    H124758   4.424   4.110   8.195 -0.4426  0.4714  0.2302
 1041TIP3    H224759   4.493   4.131   8.062 -0.7462 -1.1991 -0.2114
 1042TIP3   OH224760   4.987   3.486   7.881  0.1169 -0.0138 -0.7040
 1042TIP3    H124761   4.939   3.565   7.907 -0.2742 -0.3217 -0.4762
 1042TIP3    H224762   4.967   3.476   7.788  1.0211  0.7421 -0.9930
 1043TIP3   OH224763   3.430   0.376   7.920 -0.3356  0.0708  0.2284
 1043TIP3    H124764   3.366   0.439   7.953 -0.3226 -0.7160  1.8391
 1043TIP3    H224765   3.385   0.292   7.924  0.4267 -0.3392  0.3366
 1044TIP3   OH224766   2.476   3.386   7.851 -0.0064  0.3983 -0.1140
 1044TIP3    H124767   2.466   3.319   7.784  1.0231  1.3289 -1.2475
 1044TIP3    H224768   2.539   3.448   7.814 -0.2672  1.5381  1.2533
 1045TIP3   OH224769   5.753   4.692   8.557  0.5592 -0.0805  0.4669
 1045TIP3    H124770   5.793   4.741   8.485 -0.0678  0.0324  0.1829
 1045TIP3    H224771   5.658   4.704   8.544  0.4167 -0.7456  0.8299
 1046TIP3   OH224772   6.274   1.952   1.611 -0.1031  0.1917  0.1710
 1046TIP3    H124773   6.189   1.915   1.634  0.4362 -1.1853  0.0008
 1046TIP3    H224774   6.330   1.932   1.686  0.0711  1.1667  0.3163
 1047TIP3   OH224775   4.579   6.785   7.239  0.3369 -0.1412 -0.2684
 1047TIP3    H124776   4.602   6.701   7.200 -0.9700  0.0078 -1.4406
 1047TIP3    H224777   4.638   6.848   7.198  1.6405 -0.5064  0.9571
 1048TIP3   OH224778   4.588   6.141   8.695  0.8656 -0.1520  0.4602
 1048TIP3    H124779   4.619   6.230   8.678 -0.2042 -0.0890 -1.3601
 1048TIP3    H224780   4.658   6.085   8.662  1.6365 -0.0219  1.8032
 1049TIP3   OH224781   0.425   5.466   8.652  0.5886  0.1524  0.2786
 1049TIP3    H124782   0.392   5.550   8.619  0.2184 -0.7700 -1.7963
 1049TIP3    H224783   0.518   5.483   8.671  0.2326  1.3348  1.1117
 1050TIP3   OH224784   2.539   0.447   0.599 -0.1845 -0.0229  0.5168
 1050TIP3    H124785   2.510   0.360   0.627 -0.0233 -0.4166 -0.4787
 1050TIP3    H224786   2.458   0.497   0.589 -0.2405  0.1686  1.7519
 1051TIP3   OH224787   1.894   2.221   6.356  0.0445  0.1510 -0.0346
 1051TIP3    H124788   1.854   2.159   6.294 -1.2089  0.6027  0.2915
 1051TIP3    H224789   1.910   2.168   6.435  1.1713 -0.3028 -0.5528
 1052TIP3   OH224790   6.346   6.442   6.518  0.3483 -0.1194 -0.1789
 1052TIP3    H124791   6.368   6.426   6.426  1.2357  0.4100 -0.0719
 1052TIP3    H224792   6.302   6.363   6.546  1.3588 -0.8840 -0.6723
 1053TIP3   OH224793   6.181   5.718   2.053 -0.6712  0.2713  0.2006
 1053TIP3    H124794   6.191   5.628   2.082 -0.1425  0.7180  1.4513
 1053TIP3    H224795   6.267   5.758   2.067 -0.7424  0.8463 -0.8485
 1054TIP3   OH224796   4.235   5.858   7.411  0.5460 -0.0618  0.2896
 1054TIP3    H124797   4.142   5.876   7.425  0.7287 -0.4577  2.2112
 1054TIP3    H224798   4.251   5.776   7.456  2.0970  0.6457  1.1051
 1055TIP3   OH224799   0.047   0.126   8.373  0.0415 -0.1239  0.5112
 1055TIP3    H124800   0.058   0.124   8.468  0.2184  0.0727  0.4945
 1055TIP3    H224801   0.018   0.215   8.354  1.5190  0.3073  0.2136
 1056TIP3   OH224802   5.451   6.536   1.634  0.3080 -0.2944  0.4044
 1056TIP3    H124803   5.495   6.518   1.717 -0.0622 -0.2072  0.6211
 1056TIP3    H224804   5.491   6.618   1.604  0.9765 -0.7174  0.1208
 1057TIP3   OH224805   0.525   1.605   8.724 -0.1502 -0.0478 -0.0442
 1057TIP3    H124806   0.521   1.514   8.754 -0.1675 -0.2211 -0.5490
 1057TIP3    H224807   0.488   1.656   8.796 -2.3119 -0.6606 -0.6410
 1058TIP3   OH224808   6.130   4.766   2.067  0.1719 -0.0328  0.5162
 1058TIP3    H124809   6.060   4.703   2.049  0.1747 -0.0871  0.6890
 1058TIP3    H224810   6.089   4.833   2.122  0.3734 -0.3239  1.0322
 1059TIP3   OH224811   5.512   4.739   0.651  0.4267  0.0609 -0.3951
 1059TIP3    H124812   5.489   4.777   0.736 -1.7893 -2.2294  0.1517
 1059TIP3    H224813   5.435   4.755   0.596  1.9205  1.7332 -2.1607
 1060TIP3   OH224814   0.630   6.019   8.070  0.3844 -0.4058 -0.0311
 1060TIP3    H124815   0.663   6.097   8.115 -0.4735 -0.4043  0.6114
 1060TIP3    H224816   0.685   6.012   7.992  1.0489  0.3348  0.3548
 1061TIP3   OH224817   1.498   1.028   8.083 -0.3406 -0.4677 -0.4677
 1061TIP3    H124818   1.559   1.035   8.157 -0.3022 -1.6393 -0.3837
 1061TIP3    H224819   1.545   1.070   8.010 -0.4123  0.7682  0.1657
 1062TIP3   OH224820   1.866   5.311   8.513 -0.4743 -0.8951  0.2743
 1062TIP3    H124821   1.938   5.340   8.457 -1.4276 -0.8387 -0.9838
 1062TIP3    H224822   1.791   5.305   8.453 -1.5344 -0.8634  1.5604
 1063TIP3   OH224823   5.120   4.192   6.988 -0.1953 -0.0412 -0.2379
 1063TIP3    H124824   5.075   4.109   7.005 -1.4930  0.5507 -0.6624
 1063TIP3    H224825   5.058   4.243   6.937 -0.1791  1.8988  1.5443
 1064TIP3   OH224826   5.319   6.384   0.811  0.2077 -0.5431 -0.2635
 1064TIP3    H124827   5.359   6.377   0.725 -1.1044 -0.5417 -0.8965
 1064TIP3    H224828   5.325   6.296   0.849  0.7376 -0.5545 -0.3679
 1065TIP3   OH224829   4.491   5.810   1.037 -0.0371  0.0658  0.4865
 1065TIP3    H124830   4.508   5.820   1.131  0.2119  1.4427  0.3243
 1065TIP3    H224831   4.399   5.836   1.026 -0.1043 -0.2227  0.3720
 1066TIP3   OH224832   5.316   3.318   0.134 -0.3603 -0.0160  0.2804
 1066TIP3    H124833   5.347   3.239   0.179 -0.4498 -0.0394  0.3012
 1066TIP3    H224834   5.364   3.318   0.051 -0.2977 -0.0472  0.3163
 1067TIP3   OH224835   3.486   1.287   1.248 -0.2061 -0.1443  0.4664
 1067TIP3    H124836   3.520   1.298   1.337  0.0336 -0.5875  0.4332
 1067TIP3    H224837   3.563   1.295   1.192 -0.3206 -0.0952  0.3175
 1068TIP3   OH224838   3.802   6.682   8.351  0.4776 -0.0362 -1.2918
 1068TIP3    H124839   3.816   6.657   8.260  0.3612 -1.8599 -0.8439
 1068TIP3    H224840   3.717   6.727   8.350  0.6527  0.2927 -2.1312
 1069TIP3   OH224841   5.252   4.569   8.061 -0.2156  0.5145  0.1267
 1069TIP3    H124842   5.175   4.513   8.076 -1.2657  1.8286 -0.1772
 1069TIP3    H224843   5.227   4.624   7.987  1.1774  0.7177 -0.2132
 1070TIP3   OH224844   4.103   4.045   6.184 -0.2101 -0.1347  0.3779
 1070TIP3    H124845   4.144   4.036   6.270 -1.0970  2.1515  1.1271
 1070TIP3    H224846   4.172   4.026   6.122  0.3240 -2.3972  1.5417
 1071TIP3   OH224847   0.188   2.068   0.170 -0.7113 -0.0772 -0.1853
 1071TIP3    H124848   0.217   2.155   0.143 -0.7777  0.4161  1.2401
 1071TIP3    H224849   0.096   2.065   0.146 -1.7103  1.6716  2.8665
 1072TIP3   OH224850   2.673   1.015   8.308  0.1739  0.5438  0.5915
 1072TIP3    H124851   2.578   1.021   8.313  0.2202  2.2224  0.1044
 1072TIP3    H224852   2.690   0.948   8.242 -0.6671  0.2740  0.6397
 1073TIP3   OH224853   3.924   3.019   0.976  0.2003 -0.0756  0.4290
 1073TIP3    H124854   4.005   2.988   0.934  0.7250  1.2493  0.4021
 1073TIP3    H224855   3.863   2.946   0.967  1.3095 -1.0185  0.2175
 1074TIP3   OH224856   0.064   6.178   1.403 -0.8078  0.1514 -0.4147
 1074TIP3    H124857   0.159   6.175   1.392 -0.8162 -0.0770 -0.4355
 1074TIP3    H224858   0.031   6.109   1.345 -1.0772  1.0148 -1.3178
 1075TIP3   OH224859   4.960   6.748   0.038  0.3893  0.6954  0.4408
 1075TIP3    H124860   5.035   6.736   0.096  0.0784  0.2714  0.7622
 1075TIP3    H224861   4.981   6.826  -0.014  1.4659  0.0369 -0.1347
 1076TIP3   OH224862   6.606   1.900   2.233 -0.5986  0.2348 -0.5486
 1076TIP3    H124863   6.551   1.843   2.179 -0.5633 -0.9293  0.5883
 1076TIP3    H224864   6.622   1.849   2.312 -1.3758  2.2018  0.9731
 1077TIP3   OH224865   5.607   3.852   0.994 -0.4540  0.1420 -0.1584
 1077TIP3    H124866   5.603   3.899   1.077 -1.5341  0.3313 -0.3005
 1077TIP3    H224867   5.527   3.878   0.948 -1.1951 -1.9317 -0.1708
 1078TIP3   OH224868   1.168   2.223   7.986 -0.4441  0.4693  0.3508
 1078TIP3    H124869   1.242   2.168   7.962  0.8619  0.8491  3.0871
 1078TIP3    H224870   1.195   2.312   7.962  0.4230  0.7095  1.9943
 1079TIP3   OH224871   2.112   2.440   7.413 -0.4590 -0.2830 -0.6996
 1079TIP3    H124872   2.038   2.403   7.365 -0.9443  1.3250 -1.2657
 1079TIP3    H224873   2.104   2.534   7.400  1.8678 -0.0673 -1.0583
 1080TIP3   OH224874   6.073   3.315   8.326 -0.3662 -0.0594 -0.4120
 1080TIP3    H124875   6.010   3.249   8.296 -0.8295 -0.6523  1.6751
 1080TIP3    H224876   6.019   3.392   8.345 -0.1249  0.2127 -0.8285
 1081TIP3   OH224877   6.121   6.093   8.765  0.2140  0.1795  0.4114
 1081TIP3    H124878   6.164   6.025   8.817 -0.8311 -0.9277 -0.1093
 1081TIP3    H224879   6.185   6.116   8.699  0.2837 -0.9786  0.0449
 1082TIP3   OH224880   5.107   6.052   1.926  0.6681  0.2059  0.1929
 1082TIP3    H124881   5.170   6.112   1.887 -0.2629  1.4741  0.5799
 1082TIP3    H224882   5.026   6.103   1.932 -0.7882 -1.7545 -1.4870
 1083TIP3   OH224883   0.421   4.598   1.542  0.1430 -0.4008  0.6139
 1083TIP3    H124884   0.417   4.505   1.521 -0.4595 -0.2879  0.1859
 1083TIP3    H224885   0.511   4.613   1.571  1.0183 -0.5980 -1.7908
 1084TIP3   OH224886   3.499   2.284   0.661 -0.5648  0.1865 -0.1976
 1084TIP3    H124887   3.526   2.277   0.752  0.5112  0.1426 -0.5025
 1084TIP3    H224888   3.546   2.360   0.627 -2.2379  1.2244 -0.3037
 1085TIP3   OH224889   1.144   2.446   6.677  0.4722 -0.3465 -0.1092
 1085TIP3    H124890   1.151   2.378   6.744  0.1677  0.2979  0.5879
 1085TIP3    H224891   1.233   2.457   6.643  0.5562 -0.9477 -0.0866
 1086TIP3   OH224892   5.776   3.263   0.862 -0.0596  0.0197 -0.4644
 1086TIP3    H124893   5.700   3.319   0.879 -0.9848 -0.9184 -1.3747
 1086TIP3    H224894   5.744   3.197   0.801  1.2525 -0.9566 -0.1409
 1087TIP3   OH224895   2.804   3.847   8.051 -0.1069 -0.7553 -0.1943
 1087TIP3    H124896   2.897   3.869   8.062  0.3042 -2.0375 -0.8720
 1087TIP3    H224897   2.786   3.865   7.959 -0.3287 -1.1983 -0.2381
 1088TIP3   OH224898   5.782   1.624   1.874 -0.2237  0.0608 -0.5035
 1088TIP3    H124899   5.756   1.552   1.931 -0.8100  1.3335  0.9153
 1088TIP3    H224900   5.766   1.592   1.785 -2.8897 -0.6721  0.1586
 1089TIP3   OH224901   3.721   0.824   6.588 -0.0214 -0.2222 -0.6598
 1089TIP3    H124902   3.638   0.871   6.595  0.6511  1.3423 -2.1784
 1089TIP3    H224903   3.708   0.743   6.636 -2.0753  0.4468  0.0042
 1090TIP3   OH224904   5.395   5.052   8.381  0.0885 -0.2156  0.3065
 1090TIP3    H124905   5.300   5.057   8.389  0.0401 -1.1841  0.5166
 1090TIP3    H224906   5.428   5.132   8.421 -0.6760  0.6157 -0.6636
 1091TIP3   OH224907   3.017   2.051   7.485  0.3240 -0.1057  0.5038
 1091TIP3    H124908   3.084   2.115   7.508  0.5231 -0.3650  0.6569
 1091TIP3    H224909   2.993   2.073   7.395  2.0810 -1.2274 -0.3106
 1092TIP3   OH224910   6.786   4.416   0.380  0.3996 -0.3670 -0.0482
 1092TIP3    H124911   6.739   4.472   0.317  0.4890  0.5937  0.7060
 1092TIP3    H224912   6.877   4.418   0.350  0.9497  2.1835  1.4633
 1093TIP3   OH224913   3.176   3.969   8.459  0.3440 -0.0537 -0.0759
 1093TIP3    H124914   3.162   3.883   8.499  0.4265  0.5058  1.2245
 1093TIP3    H224915   3.251   3.957   8.401  1.5399 -0.4643  1.4911
 1094TIP3   OH224916   1.600   1.591   7.497  0.2387  0.2014  0.5455
 1094TIP3    H124917   1.521   1.634   7.529  0.0039 -0.4882  0.8939
 1094TIP3    H224918   1.666   1.608   7.564  1.3315  3.5033 -1.1657
 1095TIP3   OH224919   5.138   0.095   6.550  0.6302 -0.4952 -0.6631
 1095TIP3    H124920   5.187   0.013   6.540 -0.2903 -1.2829  0.8496
 1095TIP3    H224921   5.065   0.072   6.608  0.4165  1.4334 -0.1086
 1096TIP3   OH224922   1.061   4.147   7.423 -0.5453 -0.3714 -0.3071
 1096TIP3    H124923   1.097   4.171   7.509  0.1158  1.4191 -1.0393
 1096TIP3    H224924   1.119   4.079   7.391  0.4530  0.3943 -0.1872
 1097TIP3   OH224925   1.371   0.891   8.728  0.0358  0.1032  0.2235
 1097TIP3    H124926   1.364   0.796   8.714  0.1939  0.1610 -0.2610
 1097TIP3    H224927   1.301   0.929   8.676 -1.7979  0.1057  2.5266
 1098TIP3   OH224928   1.938   5.966   1.341 -0.5676  0.0725 -0.8274
 1098TIP3    H124929   1.954   5.891   1.397  2.5953 -0.7775 -2.5894
 1098TIP3    H224930   1.935   6.041   1.401 -1.5946 -1.2070  0.7704
 1099TIP3   OH224931   5.753   6.591   0.174  0.1222 -0.7236 -0.6167
 1099TIP3    H124932   5.791   6.674   0.146  0.9058 -0.6971  0.5106
 1099TIP3    H224933   5.810   6.560   0.244 -0.7428 -1.7129 -0.3253
 1100TIP3   OH224934   3.849   6.752   6.998 -0.3297 -0.1783  0.4948
 1100TIP3    H124935   3.895   6.713   7.072 -0.1097 -0.4658  0.2106
 1100TIP3    H224936   3.823   6.678   6.944  0.3060  0.0715 -0.1757
 1101TIP3   OH224937   1.094   3.892   7.274 -0.3778 -0.2518  0.2889
 1101TIP3    H124938   1.013   3.915   7.228 -0.5502  0.5147  0.9524
 1101TIP3    H224939   1.080   3.803   7.305 -0.1334 -0.9165 -1.3924
 1102TIP3   OH224940   1.128   2.685   1.134 -0.0748 -0.0652  0.3397
 1102TIP3    H124941   1.085   2.657   1.053 -0.0206 -0.6029  0.4940
 1102TIP3    H224942   1.098   2.623   1.200  1.2944 -0.7441  0.3607
 1103TIP3   OH224943   3.061   5.838   7.994  0.1099  0.1747 -0.1435
 1103TIP3    H124944   3.081   5.758   7.946  1.0083 -1.2823  2.4338
 1103TIP3    H224945   3.087   5.908   7.935 -1.1692 -1.3600 -2.7009
 1104TIP3   OH224946   6.799   4.241   7.832 -0.1956 -0.3234  0.0024
 1104TIP3    H124947   6.793   4.225   7.738 -0.5325 -0.4423  0.0408
 1104TIP3    H224948   6.854   4.170   7.864 -0.6884 -0.7152 -0.0036
 1105TIP3   OH224949   1.824   2.660   0.784 -0.2439  0.3981  0.0975
 1105TIP3    H124950   1.822   2.566   0.765 -1.3281  0.4936 -0.3223
 1105TIP3    H224951   1.817   2.702   0.698 -0.3769  0.8606  0.3327
 1106TIP3   OH224952   2.369   3.410   8.541 -0.3582 -0.1970  0.2381
 1106TIP3    H124953   2.319   3.446   8.615 -3.6754  0.4390 -2.0780
 1106TIP3    H224954   2.374   3.316   8.558 -2.4419 -0.2859  0.6007
 1107TIP3   OH224955   1.976   3.824   6.951  0.2701 -0.0752 -0.3623
 1107TIP3    H124956   1.992   3.743   6.999  2.4690 -0.7674 -2.1207
 1107TIP3    H224957   1.905   3.802   6.890 -2.0907  0.6318  1.9196
 1108TIP3   OH224958   2.923   2.950   0.924  0.0038  0.3197  0.2727
 1108TIP3    H124959   2.961   2.862   0.918 -2.7402 -1.0173  0.7354
 1108TIP3    H224960   2.913   2.978   0.833 -0.4276 -0.5063  0.0543
 1109TIP3   OH224961   5.596   3.834   1.783  0.0829 -0.4118  0.0683
 1109TIP3    H124962   5.561   3.903   1.839  0.2614 -1.1106  1.0796
 1109TIP3    H224963   5.554   3.847   1.698  0.2256  1.0107  0.2015
 1110TIP3   OH224964   6.521   4.934   7.938 -0.8663  0.0055 -0.1300
 1110TIP3    H124965   6.493   5.013   7.984 -1.2252  0.1622 -0.6037
 1110TIP3    H224966   6.441   4.896   7.903 -0.5102  0.4600 -1.5008
 1111TIP3   OH224967   5.212   4.957   0.220  0.6121 -0.7557  0.0204
 1111TIP3    H124968   5.162   5.036   0.243 -0.3444 -1.9977  2.5132
 1111TIP3    H224969   5.234   4.970   0.128  0.6144  2.4741  0.3425
 1112TIP3   OH224970   2.296   6.467   6.575  0.5633 -0.2024  0.8966
 1112TIP3    H124971   2.294   6.376   6.605 -1.7888 -1.1737 -1.7680
 1112TIP3    H224972   2.206   6.486   6.549  1.2669  2.4191  0.0303
 1113TIP3   OH224973   6.718   2.632   1.751  0.3290 -0.1316 -0.2930
 1113TIP3    H124974   6.728   2.656   1.843  0.4119  0.4376 -0.4475
 1113TIP3    H224975   6.742   2.711   1.703 -0.0457 -0.3190 -0.7971
 1114TIP3   OH224976   5.787   2.420   7.298  0.6667 -0.1480  0.1623
 1114TIP3    H124977   5.827   2.355   7.240  0.3400  0.0798 -0.3200
 1114TIP3    H224978   5.693   2.413   7.282  0.5189 -0.4829  1.0898
 1115TIP3   OH224979   1.978   6.833   1.875  0.4805  0.0349  0.0846
 1115TIP3    H124980   2.055   6.858   1.824  0.7035  0.6223  0.6771
 1115TIP3    H224981   1.907   6.828   1.812  0.9182 -0.0682 -0.4029
 1116TIP3   OH224982   1.344   6.337   8.468  0.4719 -0.1489  0.5902
 1116TIP3    H124983   1.422   6.301   8.427 -0.9606 -1.3215 -1.3415
 1116TIP3    H224984   1.342   6.429   8.440  0.5309 -0.4379 -0.3975
 1117TIP3   OH224985   3.837   1.098   7.672 -0.1533 -0.6636  0.1629
 1117TIP3    H124986   3.762   1.038   7.679  0.2495 -1.2369 -0.3024
 1117TIP3    H224987   3.798   1.183   7.656 -0.7072 -1.0600 -0.7194
 1118TIP3   OH224988   6.401   1.047   0.709 -0.4537  0.6258 -0.2966
 1118TIP3    H124989   6.352   0.964   0.706  1.0734 -0.6180  3.4854
 1118TIP3    H224990   6.414   1.070   0.617 -1.8922 -2.7721 -1.5132
 1119TIP3   OH224991   3.703   3.036   6.898  0.3341 -0.0074 -0.4362
 1119TIP3    H124992   3.674   2.959   6.947 -0.5117  0.1194 -0.7260
 1119TIP3    H224993   3.771   3.076   6.954 -1.3065  0.7114  1.1514
 1120TIP3   OH224994   2.305   4.861   8.399  0.5760  0.4876  0.2766
 1120TIP3    H124995   2.258   4.816   8.469  0.1168 -0.0322 -0.3389
 1120TIP3    H224996   2.368   4.917   8.443 -0.5760  1.1508  1.1416
 1121TIP3   OH224997   1.714   0.868   7.389 -0.1734 -0.1272  0.2206
 1121TIP3    H124998   1.708   0.946   7.334 -1.9610  1.5744  2.6142
 1121TIP3    H224999   1.752   0.899   7.471  0.2879 -2.0795  0.8042
 1122TIP3   OH225000   0.948   4.718   7.210 -0.3294  0.2824 -0.1720
 1122TIP3    H125001   0.995   4.756   7.136  0.6934 -0.3101  0.1524
 1122TIP3    H225002   0.915   4.793   7.259 -0.2849  0.6921 -0.7579
 1123TIP3   OH225003   3.559   5.398   6.372 -0.0558  0.1233  0.0740
 1123TIP3    H125004   3.589   5.315   6.409 -1.6805  0.4592  2.3234
 1123TIP3    H225005   3.523   5.374   6.286  0.8945 -1.2215  0.0243
 1124TIP3   OH225006   0.365   1.255   0.623 -0.2316  0.0373  0.0544
 1124TIP3    H125007   0.392   1.199   0.551 -0.7677  2.8742 -2.5655
 1124TIP3    H225008   0.293   1.207   0.665  0.8345 -2.1900 -0.5061
 1125TIP3   OH225009   0.553   4.571   8.609  0.2819  0.2612 -0.4602
 1125TIP3    H125010   0.542   4.555   8.515  0.3510 -0.8551 -0.2949
 1125TIP3    H225011   0.505   4.500   8.651  0.1507  0.8175  0.3619
 1126TIP3   OH225012   5.969   5.026   8.670 -0.1594  0.2693  0.1424
 1126TIP3    H125013   5.977   5.090   8.740 -0.0409 -0.3210  0.6709
 1126TIP3    H225014   5.875   5.006   8.667  0.2374 -2.7163  2.8905
 1127TIP3   OH225015   0.255   3.566   7.518  0.3734  0.1024  0.4486
 1127TIP3    H125016   0.233   3.548   7.427  1.6773  2.4276 -0.3849
 1127TIP3    H225017   0.301   3.649   7.516  0.6821  0.0827  3.2234
 1128TIP3   OH225018   4.334   6.599   7.471 -0.6133  0.4053  0.6307
 1128TIP3    H125019   4.396   6.657   7.428  1.7113 -1.1738  1.6343
 1128TIP3    H225020   4.293   6.549   7.400  1.7334 -0.8026  0.0352
 1129TIP3   OH225021   5.743   1.350   8.600  0.6614 -0.5507  0.3557
 1129TIP3    H125022   5.665   1.308   8.562 -1.1851  0.7204  2.4866
 1129TIP3    H225023   5.754   1.307   8.685  1.1488  0.5602  0.8676
 1130TIP3   OH225024   0.586   0.493   6.289 -0.2698  0.0717  0.2111
 1130TIP3    H125025   0.669   0.448   6.276  0.6436  1.1443  2.0030
 1130TIP3    H225026   0.546   0.496   6.202  0.6887 -2.0896 -0.3659
 1131TIP3   OH225027   6.294   5.511   7.932 -0.1329  0.4667  0.4100
 1131TIP3    H125028   6.220   5.535   7.876  1.4063  0.2705 -1.8359
 1131TIP3    H225029   6.304   5.585   7.992 -1.3916  1.0204 -0.0329
 1132TIP3   OH225030   0.355   3.525   1.961 -0.1077  0.3552 -0.6636
 1132TIP3    H125031   0.391   3.611   1.981 -1.8199  1.0719 -0.4779
 1132TIP3    H225032   0.369   3.514   1.867  1.2472  0.2599 -0.4676
 1133TIP3   OH225033   0.235   4.419   0.973  0.1753 -1.0670  0.5227
 1133TIP3    H125034   0.279   4.503   0.984  0.7189 -1.2431 -0.2442
 1133TIP3    H225035   0.158   4.425   1.030  0.5915 -0.3305  1.0217
 1134TIP3   OH225036   5.338   1.647   1.469 -0.8215 -0.2132 -0.1991
 1134TIP3    H125037   5.421   1.690   1.487 -0.8161 -0.0297 -0.6513
 1134TIP3    H225038   5.303   1.626   1.555 -0.5196  0.1167  0.0062
 1135TIP3   OH225039   6.581   5.117   7.512  0.3609  0.0653 -0.7743
 1135TIP3    H125040   6.504   5.100   7.566  0.1665 -1.2753 -1.4504
 1135TIP3    H225041   6.614   5.201   7.544 -1.2684  0.5839 -0.3454
 1136TIP3   OH225042   1.360   2.789   8.309 -0.3870  0.1748  0.2608
 1136TIP3    H125043   1.391   2.859   8.252 -1.2470 -0.9133 -1.6263
 1136TIP3    H225044   1.436   2.763   8.360  0.2537  1.6062  0.0740
 1137TIP3   OH225045   5.654   0.852   6.442 -0.0341  0.0945 -0.3492
 1137TIP3    H125046   5.645   0.934   6.394  0.6815 -0.3908 -1.3528
 1137TIP3    H225047   5.578   0.800   6.418 -0.1197  0.1880 -0.2787
 1138TIP3   OH225048   4.382   2.572   1.569  0.0426 -0.7178  0.0994
 1138TIP3    H125049   4.449   2.507   1.549  0.2630 -0.5689  0.3504
 1138TIP3    H225050   4.413   2.653   1.529 -0.0261 -0.6694  0.1422
 1139TIP3   OH225051   0.816   3.325   7.541  0.0210  0.5110 -0.0088
 1139TIP3    H125052   0.767   3.250   7.507 -0.0490 -0.1522  1.4851
 1139TIP3    H225053   0.752   3.396   7.544 -0.0840  0.4547 -0.8061
 1140TIP3   OH225054   1.265   3.323   1.301 -0.0756  0.1682 -0.2930
 1140TIP3    H125055   1.219   3.313   1.384  0.9346 -0.6439  0.1979
 1140TIP3    H225056   1.358   3.323   1.325  0.2400 -0.2650 -1.4366
 1141TIP3   OH225057   1.858   1.034   0.507  0.2989  0.0613  0.0959
 1141TIP3    H125058   1.830   1.055   0.596 -2.2591  0.2268 -0.6739
 1141TIP3    H225059   1.809   1.094   0.452 -0.6085 -2.1277 -1.6130
 1142TIP3   OH225060   6.104   3.788   1.775  0.4084  0.3814  0.1661
 1142TIP3    H125061   6.022   3.836   1.784  0.6810  0.7819  0.5569
 1142TIP3    H225062   6.099   3.720   1.842  0.7783  0.9648  0.7934
 1143TIP3   OH225063   6.014   4.178   1.319 -0.1159 -0.1356 -0.5842
 1143TIP3    H125064   6.031   4.181   1.225  0.4525 -0.0350 -0.4825
 1143TIP3    H225065   5.985   4.088   1.335  0.9176 -0.4977 -0.6730
 1144TIP3   OH225066   3.315   5.318   7.966  0.1546 -0.2411  0.2088
 1144TIP3    H125067   3.223   5.296   7.978  0.5411 -0.7436  2.9037
 1144TIP3    H225068   3.317   5.414   7.960 -0.4702 -0.1548  1.2290
 1145TIP3   OH225069   5.461   0.757   0.630 -0.6072 -0.0340  0.8376
 1145TIP3    H125070   5.367   0.754   0.647 -0.4540  1.9729  2.4775
 1145TIP3    H225071   5.495   0.818   0.696  1.7043  0.0045 -0.2976
 1146TIP3   OH225072   0.343   2.874   2.137 -0.0557  0.6319  0.4488
 1146TIP3    H125073   0.309   2.903   2.221 -0.9591 -0.9005  0.6548
 1146TIP3    H225074   0.373   2.784   2.153 -2.1492 -0.4556 -1.2896
 1147TIP3   OH225075   2.409   3.102   8.277 -0.5478 -0.0852 -0.1039
 1147TIP3    H125076   2.439   3.080   8.189 -0.3512 -0.4602  0.0553
 1147TIP3    H225077   2.399   3.018   8.321 -1.6870  0.0445 -0.0990
 1148TIP3   OH225078   5.739   4.553   7.117  0.0592 -0.0200  0.1683
 1148TIP3    H125079   5.787   4.473   7.095  0.3857  0.5659 -1.3971
 1148TIP3    H225080   5.686   4.571   7.039  0.5195  1.6719  0.2185
 1149TIP3   OH225081   2.904   2.580   1.887 -0.2795  0.3225 -0.3584
 1149TIP3    H125082   2.950   2.502   1.917 -0.0903  0.2179 -0.8984
 1149TIP3    H225083   2.887   2.631   1.966 -2.0608 -1.1298  0.2749
 1150TIP3   OH225084   6.022   6.290   8.438  1.8504  0.4143 -0.5241
 1150TIP3    H125085   6.064   6.220   8.387  1.6443  0.3456 -0.6013
 1150TIP3    H225086   5.966   6.335   8.375 -0.8592 -1.5947  0.2363
 1151TIP3   OH225087   2.851   5.559   6.788  0.3598  0.0496 -0.3701
 1151TIP3    H125088   2.855   5.584   6.696 -0.4732 -0.0116 -0.4301
 1151TIP3    H225089   2.759   5.570   6.812  0.2179 -1.5753 -0.0247
 1152TIP3   OH225090   6.799   4.254   7.081 -0.6602  0.0953 -0.5088
 1152TIP3    H125091   6.892   4.257   7.060 -0.8655 -1.1770 -1.7088
 1152TIP3    H225092   6.768   4.171   7.045 -2.0333 -0.0368  0.8434
 1153TIP3   OH225093   4.271   5.675   1.938  0.5479  0.4669 -0.1283
 1153TIP3    H125094   4.310   5.588   1.951 -2.9530 -1.0824  1.5077
 1153TIP3    H225095   4.315   5.731   2.002  1.4074 -0.6410  0.2817
 1154TIP3   OH225096   0.041   4.740   0.397 -0.2458  0.8214 -0.2829
 1154TIP3    H125097   0.028   4.684   0.473  2.0321  0.1290 -0.3083
 1154TIP3    H225098   0.017   4.685   0.322 -1.0376  0.9858 -0.1562
 1155TIP3   OH225099   0.757   3.590   8.786 -0.1071 -0.1625  0.2801
 1155TIP3    H125100   0.701   3.514   8.800 -0.7763  0.3757  0.5657
 1155TIP3    H225101   0.701   3.654   8.744  0.1825  0.5167  0.8986
 1156TIP3   OH225102   4.829   2.961   1.589  0.4036 -0.4935  0.5234
 1156TIP3    H125103   4.780   3.033   1.629 -0.4734 -1.5006  1.3349
 1156TIP3    H225104   4.772   2.929   1.519 -0.4357 -2.0751  1.8761
 1157TIP3   OH225105   3.049   4.188   0.182 -0.4928  0.3743 -0.0558
 1157TIP3    H125106   3.031   4.136   0.260 -0.9307  0.2564 -0.2304
 1157TIP3    H225107   3.131   4.154   0.148 -0.1805  0.5738  0.4735
 1158TIP3   OH225108   1.194   2.339   8.684 -0.0497 -0.2139 -0.7216
 1158TIP3    H125109   1.261   2.272   8.695 -1.2249 -0.9996  3.0104
 1158TIP3    H225110   1.116   2.290   8.656  0.0358  0.2325 -1.8095
 1159TIP3   OH225111   0.441   2.610   0.956 -0.6465 -0.6034 -0.7210
 1159TIP3    H125112   0.370   2.664   0.922  0.1248  0.4506 -0.6919
 1159TIP3    H225113   0.440   2.626   1.050  0.3466  0.3025 -0.8551
 1160TIP3   OH225114   1.178   2.646   7.016  0.8939  0.4309  0.2549
 1160TIP3    H125115   1.152   2.665   7.106  2.0023  1.8624  0.3041
 1160TIP3    H225116   1.097   2.619   6.973  0.3252 -0.1304  1.6332
 1161TIP3   OH225117   0.808   1.483   1.619 -0.0039 -0.2672 -0.1886
 1161TIP3    H125118   0.823   1.577   1.610 -0.5376 -0.1655 -0.0663
 1161TIP3    H225119   0.892   1.447   1.648  0.4353  0.0491 -1.0274
 1162TIP3   OH225120   0.933   5.240   0.057 -0.6346  0.1470  0.3350
 1162TIP3    H125121   0.993   5.258  -0.015  1.1773  1.0956  1.9883
 1162TIP3    H225122   0.958   5.153   0.088 -0.9070  0.0479  0.2761
 1163TIP3   OH225123   2.816   5.221   1.914 -0.2213 -0.5516 -0.4595
 1163TIP3    H125124   2.867   5.282   1.968  0.2245 -0.8586 -0.5332
 1163TIP3    H225125   2.725   5.248   1.928 -0.2044 -1.2822  1.2742
 1164TIP3   OH225126   5.335   4.625   1.157 -0.0457 -0.2590  0.6408
 1164TIP3    H125127   5.246   4.600   1.181 -0.5335 -0.7867 -1.4996
 1164TIP3    H225128   5.390   4.560   1.200 -0.5864  0.5179  2.6109
 1165TIP3   OH225129   1.052   3.335   8.563 -0.1751  0.2072  0.3899
 1165TIP3    H125130   0.989   3.403   8.543 -0.6090  0.0982  1.3644
 1165TIP3    H225131   1.120   3.379   8.615 -0.6320 -0.1684  1.3165
 1166TIP3   OH225132   5.536   0.895   0.839 -0.0807 -0.1332 -0.0273
 1166TIP3    H125133   5.628   0.919   0.850 -0.3296  1.7063 -1.6192
 1166TIP3    H225134   5.494   0.923   0.920  0.3401  1.3094 -0.2894
 1167TIP3   OH225135   2.364   1.580   2.668 -0.2669  0.6368 -0.1107
 1167TIP3    H125136   2.322   1.497   2.647  0.1932 -0.1001  1.6900
 1167TIP3    H225137   2.354   1.589   2.763  0.2156  2.3446 -0.1863
 1168TIP3   OH225138   1.757   0.084   6.928  0.4692  0.4458  0.0559
 1168TIP3    H125139   1.812   0.111   6.854  0.0363 -0.8148 -0.7656
 1168TIP3    H225140   1.775  -0.010   6.937 -1.4067  0.0349 -0.1396
 1169TIP3   OH225141   2.076   0.338   1.513 -0.1246 -0.1752  0.4156
 1169TIP3    H125142   2.170   0.354   1.516  0.0201 -0.7141 -0.7307
 1169TIP3    H225143   2.048   0.339   1.605  1.0858 -0.5594  0.8010
 1170TIP3   OH225144   2.503   4.324   7.611 -0.0435  0.0178 -0.2186
 1170TIP3    H125145   2.521   4.409   7.570 -2.3409  0.5658 -0.1957
 1170TIP3    H225146   2.416   4.333   7.648  0.5940 -1.6103  1.8460
 1171TIP3   OH225147   5.463   2.426   8.670 -0.6852  0.8726 -0.0448
 1171TIP3    H125148   5.483   2.518   8.683 -1.8454  1.6531 -2.9949
 1171TIP3    H225149   5.409   2.424   8.591  0.7351 -2.4670 -1.1307
 1172TIP3   OH225150   2.204   0.834   7.444 -0.0765  0.4071  0.3024
 1172TIP3    H125151   2.162   0.853   7.360 -2.1311  2.0806  1.6226
 1172TIP3    H225152   2.149   0.766   7.483  0.3734  0.2550  0.6788
 1173TIP3   OH225153   4.124   1.353   7.878  0.1437  0.6540 -0.1222
 1173TIP3    H125154   4.206   1.344   7.926 -0.0415 -1.2803 -0.0794
 1173TIP3    H225155   4.069   1.282   7.911 -2.0582  2.6316  0.7449
 1174TIP3   OH225156   0.610   6.470   0.253  0.8325 -0.0250 -0.0738
 1174TIP3    H125157   0.633   6.560   0.233 -0.8368  0.3979 -0.2088
 1174TIP3    H225158   0.671   6.445   0.323  0.3557  1.7285  1.0525
 1175TIP3   OH225159   0.275   3.474   0.181 -0.0203  0.6353  0.3218
 1175TIP3    H125160   0.369   3.473   0.195  0.6690 -4.4949 -2.0607
 1175TIP3    H225161   0.264   3.489   0.087 -1.3634 -0.3576  0.2747
 1176TIP3   OH225162   6.391   2.677   6.094  0.6323  0.0009  0.0364
 1176TIP3    H125163   6.483   2.696   6.078  0.5222 -0.3180 -1.0110
 1176TIP3    H225164   6.359   2.753   6.143  0.8934  1.2009 -1.5900
 1177TIP3   OH225165   3.508   0.298   7.465  0.1956  0.2677 -0.1953
 1177TIP3    H125166   3.467   0.283   7.380 -1.2051  1.5042  0.2158
 1177TIP3    H225167   3.509   0.212   7.507 -0.4718 -0.0813 -0.8777
 1178TIP3   OH225168   0.865   5.083   7.794  0.0270  0.3202 -0.1702
 1178TIP3    H125169   0.960   5.075   7.807 -0.0167  0.2400  0.1034
 1178TIP3    H225170   0.831   4.996   7.812 -0.3325  0.8166  1.7864
 1179TIP3   OH225171   0.059   0.965   7.687  0.1927 -0.4635 -0.3288
 1179TIP3    H125172   0.067   1.055   7.719  0.8697  0.0434 -1.8530
 1179TIP3    H225173   0.016   0.974   7.602  0.8844 -1.5116 -0.8072
 1180TIP3   OH225174   6.848   1.603   0.752  0.5800  0.0815 -0.1304
 1180TIP3    H125175   6.929   1.655   0.758  0.5494  0.1540 -0.3439
 1180TIP3    H225176   6.868   1.536   0.687  1.2560 -1.3211  1.4480
 1181TIP3   OH225177   2.696   2.775   0.850  0.0053 -0.5490 -0.3403
 1181TIP3    H125178   2.652   2.803   0.931  1.3699 -0.7279  0.4959
 1181TIP3    H225179   2.758   2.708   0.879  2.4357  1.2608 -1.0787
 1182TIP3   OH225180   1.815   6.524   1.883  0.0573 -0.0815 -0.6958
 1182TIP3    H125181   1.880   6.571   1.831  0.3652 -0.7199 -0.9064
 1182TIP3    H225182   1.860   6.443   1.908  0.2666  0.5943  1.3447
 1183TIP3   OH225183   2.364   4.055   1.464  0.0876 -0.0102  0.2516
 1183TIP3    H125184   2.304   3.981   1.470 -0.8953  0.8562  1.4811
 1183TIP3    H225185   2.323   4.116   1.403  1.4021 -0.8645 -1.6090
 1184TIP3   OH225186   0.264   5.949   0.412 -0.1074  0.4579 -0.4061
 1184TIP3    H125187   0.341   6.000   0.391  1.0518 -0.8417  0.5160
 1184TIP3    H225188   0.241   5.905   0.330  0.5461  0.3450 -0.5334
 1185TIP3   OH225189   0.523   5.244   1.812  0.4503 -0.3648  0.1218
 1185TIP3    H125190   0.480   5.314   1.763  1.0913 -1.1431 -1.6296
 1185TIP3    H225191   0.502   5.263   1.904 -3.1502 -0.4115 -0.5602
 1186TIP3   OH225192   2.922   6.780   8.048 -0.2407  0.0245  0.1059
 1186TIP3    H125193   2.873   6.862   8.045 -1.2121 -0.5591 -0.1960
 1186TIP3    H225194   2.868   6.720   8.100 -0.0067 -0.7198 -0.4831
 1187TIP3   OH225195   3.366   6.213   6.581 -0.1995  0.2066 -0.5294
 1187TIP3    H125196   3.273   6.232   6.571 -0.0000  0.6939 -1.5914
 1187TIP3    H225197   3.369   6.136   6.637 -1.2217  0.4857 -0.0759
 1188TIP3   OH225198   1.754   3.416   1.049  0.2796 -0.2129 -0.1752
 1188TIP3    H125199   1.698   3.349   1.010  0.0653 -0.3513  0.3568
 1188TIP3    H225200   1.793   3.373   1.125  1.6320 -0.3309 -0.8988
 1189TIP3   OH225201   0.288   6.828   1.508  0.5736  0.0215 -0.6790
 1189TIP3    H125202   0.268   6.744   1.466  1.1963 -0.6546  0.3254
 1189TIP3    H225203   0.299   6.889   1.435 -1.4247 -0.3807 -1.3868
 1190TIP3   OH225204   6.457   1.373   0.790 -0.5804 -0.0289 -0.6194
 1190TIP3    H125205   6.377   1.417   0.760 -0.0802  1.5201  0.1811
 1190TIP3    H225206   6.426   1.303   0.847 -1.4188  1.8499  1.4033
 1191TIP3   OH225207   4.701   3.940   1.537 -0.5743  0.0212  0.0530
 1191TIP3    H125208   4.668   3.946   1.447 -1.1227  0.0368  0.2508
 1191TIP3    H225209   4.630   3.976   1.591  0.2606  1.2122  0.3943
 1192TIP3   OH225210   3.582   3.718   1.113 -0.1574  0.0232  0.1870
 1192TIP3    H125211   3.666   3.731   1.069  0.2659  2.0353  1.5017
 1192TIP3    H225212   3.576   3.789   1.176 -1.7640 -1.4809  1.8367
 1193TIP3   OH225213   2.645   3.527   7.700 -1.0410  0.5179  0.0240
 1193TIP3    H125214   2.662   3.466   7.629 -0.9237  0.1722  0.3435
 1193TIP3    H225215   2.635   3.612   7.658 -1.4012  0.2444 -0.4478
 1194TIP3   OH225216   4.001   4.187   8.487 -0.2514 -0.8303  0.5980
 1194TIP3    H125217   3.985   4.212   8.396 -2.7742 -1.8447  0.6762
 1194TIP3    H225218   3.929   4.227   8.536 -0.2542 -2.1923  1.7803
 1195TIP3   OH225219   0.727   3.377   7.211 -0.1694 -0.1393  0.4972
 1195TIP3    H125220   0.665   3.429   7.263 -3.0809 -0.1427 -2.5885
 1195TIP3    H225221   0.767   3.441   7.151  1.5357 -0.4495  1.2493
 1196TIP3   OH225222   5.202   3.541   1.743 -0.1834 -0.2211 -0.0145
 1196TIP3    H125223   5.118   3.501   1.765 -1.6494  1.9573 -1.2769
 1196TIP3    H225224   5.241   3.564   1.828 -1.9195  0.7213  0.5737
 1197TIP3   OH225225   0.716   0.319   8.171 -0.2939 -0.3455  0.1365
 1197TIP3    H125226   0.671   0.235   8.177  0.7898 -0.9859 -0.5517
 1197TIP3    H225227   0.809   0.297   8.165 -0.0585  0.8455 -1.0523
 1198TIP3   OH225228   0.615   2.930   1.126 -0.0811 -0.2943  0.4475
 1198TIP3    H125229   0.574   2.950   1.210 -1.2237 -1.8197  0.3100
 1198TIP3    H225230   0.684   2.868   1.147 -0.2435 -0.5301  0.2978
 1199TIP3   OH225231   6.796   1.576   8.527  0.0890  0.4927  0.0083
 1199TIP3    H125232   6.811   1.666   8.558  0.8972  1.3830 -2.6331
 1199TIP3    H225233   6.875   1.556   8.476 -0.0127 -1.8284  0.6676
 1200TIP3   OH225234   5.535   2.015   7.406 -0.0781 -0.3231  0.0559
 1200TIP3    H125235   5.539   2.053   7.318 -0.9142  0.6840  0.4406
 1200TIP3    H225236   5.449   1.973   7.410 -0.2638  0.1044  0.5801
 1201TIP3   OH225237   1.791   6.428   7.878  0.2503  0.1190 -0.3364
 1201TIP3    H125238   1.881   6.407   7.903  0.0000  0.4381  0.8891
 1201TIP3    H225239   1.780   6.520   7.903 -0.5047  0.0020 -0.2247
 1202TIP3   OH225240   0.690   3.417   0.681  0.5769 -0.0717 -0.5842
 1202TIP3    H125241   0.613   3.440   0.732 -0.5675 -0.3015 -2.1400
 1202TIP3    H225242   0.762   3.464   0.724  0.1270 -1.9795  2.5352
 1203TIP3   OH225243   5.950   0.266   0.565 -0.0979  0.1034 -0.0326
 1203TIP3    H125244   5.941   0.334   0.498  0.4984 -1.2010 -1.4902
 1203TIP3    H225245   5.999   0.308   0.636  1.3888  0.8530 -1.4406
 1204TIP3   OH225246   1.956   5.889   7.356  0.1531  0.2770  0.8120
 1204TIP3    H125247   1.921   5.828   7.421 -1.5811 -1.7798 -1.8383
 1204TIP3    H225248   1.889   5.957   7.350 -0.5594 -0.4690  0.0003
 1205TIP3   OH225249   4.064   1.269   1.085  0.2939  0.4057 -0.0216
 1205TIP3    H125250   4.034   1.178   1.086  0.4060  0.3717  0.5367
 1205TIP3    H225251   4.137   1.269   1.023  0.3984  0.0780  0.0959
 1206TIP3   OH225252   5.501   5.884   7.791 -0.0430  0.4028  0.3363
 1206TIP3    H125253   5.570   5.848   7.735 -2.3258 -1.0949 -1.7176
 1206TIP3    H225254   5.457   5.806   7.826 -0.4456  1.3304  1.9739
 1207TIP3   OH225255   0.582   3.493   7.623 -0.0092  0.0662 -0.0289
 1207TIP3    H125256   0.596   3.430   7.693  3.7650  1.8185  1.0505
 1207TIP3    H225257   0.548   3.571   7.667 -0.0112  0.3569 -0.5307
 1208TIP3   OH225258   1.841   2.051   0.482 -0.5778  0.1933  0.5060
 1208TIP3    H125259   1.817   2.099   0.404 -0.6626 -0.1616  0.3140
 1208TIP3    H225260   1.869   1.965   0.450 -0.5962  0.0535  0.8611
 1209TIP3   OH225261   3.343   1.734   1.343 -0.7590 -0.2834  0.0284
 1209TIP3    H125262   3.383   1.715   1.428  0.0972  1.4245  0.0471
 1209TIP3    H225263   3.322   1.648   1.307  0.2663 -1.1043  1.2965
 1210TIP3   OH225264   2.481   4.297   8.324 -0.4746  0.4139  0.2242
 1210TIP3    H125265   2.536   4.256   8.390 -0.4823 -1.6445 -0.9437
 1210TIP3    H225266   2.539   4.312   8.249 -0.6587  1.8779  0.3442
 1211TIP3   OH225267   2.170   5.288   6.961  0.0286 -0.4779  0.4911
 1211TIP3    H125268   2.100   5.229   6.932  0.6275 -1.5814  1.1936
 1211TIP3    H225269   2.237   5.280   6.893  0.5402 -1.4326  1.0795
 1212TIP3   OH225270   5.635   0.241   8.044 -0.4377  0.4091 -0.2305
 1212TIP3    H125271   5.580   0.283   8.111 -0.2891  0.6371 -0.2519
 1212TIP3    H225272   5.665   0.313   7.989  2.7649  0.8535  1.8064
 1213TIP3   OH225273   6.125   0.382   1.739 -0.3454 -0.2156 -0.7092
 1213TIP3    H125274   6.085   0.327   1.671  1.6728 -2.0498 -0.5327
 1213TIP3    H225275   6.158   0.320   1.804  1.2445  1.2434 -0.0360
 1214TIP3   OH225276   2.002   1.976   7.851  0.0178  0.0732  0.0397
 1214TIP3    H125277   1.962   2.000   7.935  0.9640  1.1054  0.2156
 1214TIP3    H225278   2.061   1.904   7.872 -0.2026 -0.0783  0.1439
 1215TIP3   OH225279   5.095   1.078   7.678  0.3866  0.4216  0.2843
 1215TIP3    H125280   5.062   1.055   7.764 -1.1487 -2.0032 -0.8352
 1215TIP3    H225281   5.020   1.116   7.632  0.6284 -0.1014 -0.5822
 1216TIP3   OH225282   2.975   4.954   6.004 -0.1410  0.5695 -0.4268
 1216TIP3    H125283   3.049   4.974   5.947  1.5393  0.1713  1.5046
 1216TIP3    H225284   3.014   4.939   6.091 -1.9538 -3.5666 -0.0654
 1217TIP3   OH225285   2.028   6.016   7.615 -0.2747  0.0816 -0.0693
 1217TIP3    H125286   1.966   6.060   7.673  0.6751 -0.0964  1.1083
 1217TIP3    H225287   1.988   5.931   7.598 -0.1755 -0.2019  1.0336
 1218TIP3   OH225288   5.163   3.343   7.442 -0.0624 -0.3663 -0.0077
 1218TIP3    H125289   5.115   3.331   7.524 -1.2777  2.1107 -0.2755
 1218TIP3    H225290   5.120   3.284   7.380  0.6141 -1.9669  0.9829
 1219TIP3   OH225291   0.655   1.210   7.298  0.1359  0.6100 -0.2909
 1219TIP3    H125292   0.662   1.242   7.208 -0.7043 -0.6603 -0.8325
 1219TIP3    H225293   0.726   1.147   7.308  0.0720  0.5598 -0.1482
 1220TIP3   OH225294   4.480   3.512   1.169 -0.2996  0.1609  0.0815
 1220TIP3    H125295   4.554   3.473   1.124 -0.6664 -0.4813  0.0178
 1220TIP3    H225296   4.494   3.607   1.163  1.3176  0.0544  1.4363
 1221TIP3   OH225297   4.062   2.933   7.116 -0.1484 -0.4343  0.6666
 1221TIP3    H125298   3.986   2.894   7.073 -0.6921  0.3501  0.9016
 1221TIP3    H225299   4.134   2.920   7.053 -0.9764  0.9223 -0.6127
 1222TIP3   OH225300   5.354   4.637   8.310 -0.2206 -0.0594  0.1620
 1222TIP3    H125301   5.288   4.689   8.355 -0.0848  1.4686 -1.3155
 1222TIP3    H225302   5.311   4.608   8.230  0.5494  0.0141 -0.2902
 1223TIP3   OH225303   6.550   5.428   0.870 -0.1115  0.0304  0.2673
 1223TIP3    H125304   6.459   5.424   0.841 -0.2899  0.9047  0.6565
 1223TIP3    H225305   6.553   5.506   0.926  0.8587 -0.0355  0.3162
 1224TIP3   OH225306   6.671   0.164   1.175 -0.0401 -0.5652  0.2362
 1224TIP3    H125307   6.626   0.122   1.102  0.3111 -0.5099 -0.0208
 1224TIP3    H225308   6.729   0.228   1.133 -0.2945 -0.0921  0.6010
 1225TIP3   OH225309   5.514   0.843   0.385 -0.1777 -0.3658 -0.1724
 1225TIP3    H125310   5.429   0.838   0.342  0.5160 -1.6441 -1.5033
 1225TIP3    H225311   5.497   0.818   0.475 -1.1754 -0.9641 -0.5084
 1226TIP3   OH225312   5.702   2.201   7.666 -0.1909  0.5063  0.2840
 1226TIP3    H125313   5.707   2.237   7.754 -0.6529 -0.4703  0.7306
 1226TIP3    H225314   5.615   2.228   7.634 -0.2722  0.3496  0.3690
 1227TIP3   OH225315   5.217   6.619   1.560  0.4124  0.1987  0.2337
 1227TIP3    H125316   5.309   6.614   1.585  0.6181 -0.8995 -0.6713
 1227TIP3    H225317   5.197   6.533   1.525 -0.4450  0.9785 -1.2915
 1228TIP3   OH225318   1.106   3.751   8.487 -0.9792  0.0831 -0.3131
 1228TIP3    H125319   1.123   3.800   8.567 -0.3576  0.2223 -0.5298
 1228TIP3    H225320   1.026   3.702   8.506 -1.7050  1.2945 -0.1527
 1229TIP3   OH225321   6.212   2.271   7.266 -0.2857  0.0199  0.2359
 1229TIP3    H125322   6.145   2.290   7.199 -0.1490 -0.8377 -0.1704
 1229TIP3    H225323   6.295   2.284   7.221 -0.0916 -4.1165 -1.0367
 1230TIP3   OH225324   0.020   2.088   8.094 -0.1816  0.1391  0.1863
 1230TIP3    H125325  -0.024   2.109   8.176 -1.6741  0.0083 -0.5312
 1230TIP3    H225326  -0.020   2.146   8.029  0.0888 -0.5943 -0.6681
 1231TIP3   OH225327   4.371   5.860   7.031 -0.3956  0.3809  0.2151
 1231TIP3    H125328   4.316   5.784   7.012 -0.0657 -0.0929  1.0749
 1231TIP3    H225329   4.357   5.919   6.958  0.9559 -1.4050 -1.6119
 1232TIP3   OH225330   0.712   4.361   0.089 -0.1643  0.1491  0.5151
 1232TIP3    H125331   0.764   4.396   0.017  0.1316 -1.6185 -0.1746
 1232TIP3    H225332   0.683   4.275   0.059 -0.3309 -0.4940  2.3604
 1233TIP3   OH225333   2.017   5.732   0.413 -0.5857  0.2911 -0.1800
 1233TIP3    H125334   1.961   5.681   0.355 -2.0613 -0.1796  1.5691
 1233TIP3    H225335   2.106   5.713   0.384 -1.2274 -0.9795 -1.4209
 1234TIP3   OH225336   5.291   0.902   6.602 -0.3644  0.5459 -1.2914
 1234TIP3    H125337   5.314   0.965   6.671  0.3283 -0.5175 -0.5238
 1234TIP3    H225338   5.200   0.924   6.580 -0.6313  0.8824  0.0001
 1235TIP3   OH225339   3.811   0.697   0.045 -0.2135 -0.2230 -0.0175
 1235TIP3    H125340   3.800   0.738   0.130 -1.3031  1.0784 -0.7487
 1235TIP3    H225341   3.831   0.605   0.065  0.4160  0.2390  1.6242
 1236TIP3   OH225342   1.768   4.064   7.739  0.6423 -0.7916  0.3810
 1236TIP3    H125343   1.789   4.087   7.648 -0.9514  0.1899  0.2282
 1236TIP3    H225344   1.709   3.990   7.732 -1.3252  0.6822  0.4487
 1237TIP3   OH225345   4.622   0.177   8.166  0.2457  0.1334  0.2647
 1237TIP3    H125346   4.620   0.273   8.174  0.7501  0.1459  0.2639
 1237TIP3    H225347   4.715   0.155   8.165  0.1289 -0.4258  1.0763
 1238TIP3   OH225348   4.086   5.055   7.495  0.1791  0.1570 -0.4641
 1238TIP3    H125349   4.148   5.066   7.567  1.4350  2.0389 -1.7289
 1238TIP3    H225350   4.134   5.002   7.431 -0.4066 -0.3334 -0.5033
 1239TIP3   OH225351   2.840   0.175   0.514  0.0071  0.3782  0.2953
 1239TIP3    H125352   2.801   0.097   0.554 -2.4261  0.9047 -0.8928
 1239TIP3    H225353   2.853   0.151   0.422  0.4391  0.9472  0.2010
 1240TIP3   OH225354   6.743   3.000   8.658  0.5160 -0.6707  0.3018
 1240TIP3    H125355   6.678   2.937   8.688  0.3793 -1.0746 -0.8059
 1240TIP3    H225356   6.692   3.076   8.630  0.6439 -0.2996  1.0339
 1241TIP3   OH225357   1.895   6.413   0.630 -0.7561  0.2936 -0.2897
 1241TIP3    H125358   1.877   6.341   0.691 -0.0130 -2.2377 -2.8347
 1241TIP3    H225359   1.988   6.433   0.642 -0.9176  0.7453  0.2786
 1242TIP3   OH225360   0.728   1.648   0.748  0.1316  0.2107  0.2112
 1242TIP3    H125361   0.665   1.582   0.719 -1.1179  1.1831  0.5800
 1242TIP3    H225362   0.812   1.602   0.751 -0.8995 -1.7639  1.7802
 1243TIP3   OH225363   6.366   4.409   8.042  0.2630 -0.4500 -0.6761
 1243TIP3    H125364   6.398   4.320   8.054  0.9633 -0.0956  0.2459
 1243TIP3    H225365   6.277   4.408   8.078  0.4880 -0.6455 -0.1064
 1244TIP3   OH225366   1.797   3.423   8.621 -0.1673 -0.3124  0.0779
 1244TIP3    H125367   1.740   3.430   8.697 -0.9514 -0.5560 -0.4812
 1244TIP3    H225368   1.781   3.504   8.572 -0.1781 -0.4705 -0.1793
 1245TIP3   OH225369   5.207   2.230   7.082 -0.3190 -0.1036  0.7405
 1245TIP3    H125370   5.215   2.164   7.012  1.9059 -1.4185  2.1064
 1245TIP3    H225371   5.200   2.313   7.036  1.8975 -0.8414 -1.1223
 1246TIP3   OH225372   6.677   1.323   8.122  0.0679 -0.2011 -0.0670
 1246TIP3    H125373   6.765   1.331   8.159  0.5949  1.0678 -1.4936
 1246TIP3    H225374   6.669   1.231   8.098  1.1521 -0.2681 -0.2195
 1247TIP3   OH225375   1.188   6.700   6.564 -0.3993  0.0670 -0.1705
 1247TIP3    H125376   1.234   6.751   6.630  1.7948  1.9258 -2.9123
 1247TIP3    H225377   1.135   6.764   6.516 -0.2887 -0.8126 -1.5389
 1248TIP3   OH225378   2.139   3.172   6.539 -0.1718 -0.3837  0.1601
 1248TIP3    H125379   2.145   3.126   6.622 -0.0065  0.2142  0.4853
 1248TIP3    H225380   2.047   3.195   6.531 -0.0190  0.4345  0.6658
 1249TIP3   OH225381   0.953   3.214   7.743 -0.1993  0.1580 -0.2886
 1249TIP3    H125382   0.914   3.268   7.675 -0.7718  0.3344  0.1725
 1249TIP3    H225383   0.887   3.148   7.762  0.3359 -0.4715 -0.5668
 1250TIP3   OH225384   1.994   1.032   1.577 -0.5839 -0.3713 -0.3405
 1250TIP3    H125385   1.997   0.995   1.666 -1.3269  0.0075 -0.1497
 1250TIP3    H225386   2.081   1.013   1.541 -0.4803 -1.0845  0.2427
 1251TIP3   OH225387   5.456   1.864   1.918  0.1704 -0.0145  0.0162
 1251TIP3    H125388   5.426   1.781   1.956  1.6028 -0.0610  1.1426
 1251TIP3    H225389   5.462   1.924   1.992  1.3595  0.4101 -0.3953
 1252TIP3   OH225390   5.614   1.032   7.342  0.1913  0.4086  0.0290
 1252TIP3    H125391   5.688   0.976   7.366 -0.4907 -0.9099 -0.8419
 1252TIP3    H225392   5.625   1.047   7.248 -1.1385 -0.5845 -0.3050
 1253TIP3   OH225393   0.145   1.925   1.958  0.3314 -0.3879 -0.4838
 1253TIP3    H125394   0.138   1.942   2.052 -0.0560 -1.0915 -0.3846
 1253TIP3    H225395   0.238   1.939   1.938  0.7850 -1.9617  0.3515
 1254TIP3   OH225396   1.104   3.191   0.705  0.6202  0.1749  0.0918
 1254TIP3    H125397   1.179   3.134   0.720  1.2919  1.1093  0.3200
 1254TIP3    H225398   1.138   3.264   0.654 -0.0338  0.8247  0.5637
 1255TIP3   OH225399   4.964   1.403   1.609  0.2113  0.1844  1.1348
 1255TIP3    H125400   4.928   1.391   1.697  0.3790 -1.9205  0.9594
 1255TIP3    H225401   5.002   1.319   1.587 -0.1019  0.5670 -1.0988
 1256TIP3   OH225402   5.624   5.389   7.611  0.2068  0.0866 -0.4747
 1256TIP3    H125403   5.592   5.342   7.534  1.2300  0.6496 -1.2615
 1256TIP3    H225404   5.546   5.432   7.646 -0.8383 -2.3781  0.4640
 1257TIP3   OH225405   0.770   5.053   1.353 -0.1661  0.1365 -0.1951
 1257TIP3    H125406   0.842   5.054   1.415 -0.4050  1.6507  0.1031
 1257TIP3    H225407   0.735   5.143   1.355 -1.3469 -0.2683 -1.1438
 1258TIP3   OH225408   2.688   2.970   1.327 -0.0222 -0.1139  0.7125
 1258TIP3    H125409   2.665   2.979   1.234  0.9122 -1.8079  0.2696
 1258TIP3    H225410   2.777   3.003   1.333 -0.0536 -0.0790  1.0000
 1259TIP3   OH225411   5.880   2.300   8.164 -0.2598  0.1738 -0.2038
 1259TIP3    H125412   5.926   2.297   8.081 -0.6754  0.7119 -0.4633
 1259TIP3    H225413   5.795   2.259   8.146 -1.2431  2.2649 -0.6630
 1260TIP3   OH225414   1.136   6.544   0.584 -1.1737 -0.1170 -0.2685
 1260TIP3    H125415   1.209   6.482   0.580 -1.7136 -0.8005  0.3002
 1260TIP3    H225416   1.177   6.628   0.605 -0.5751 -0.5585  0.3680
 1261TIP3   OH225417   1.464   5.398   2.150 -0.2853  0.6850  0.1068
 1261TIP3    H125418   1.554   5.424   2.173  0.5440 -0.1621 -1.9288
 1261TIP3    H225419   1.426   5.475   2.109  0.0138  0.6335 -0.2799
 1262TIP3   OH225420   1.324   0.233   0.694  0.1004  0.1061 -0.0051
 1262TIP3    H125421   1.313   0.278   0.777  1.6229  0.9831 -0.2329
 1262TIP3    H225422   1.414   0.254   0.667 -0.4417  0.0941 -2.0053
 1263TIP3   OH225423   5.974   3.042   0.807  0.1682 -0.1120  0.3618
 1263TIP3    H125424   5.928   3.123   0.830 -0.5258 -0.7785  1.3981
 1263TIP3    H225425   5.905   2.977   0.799  0.8044 -0.8051  0.4617
 1264TIP3   OH225426   3.590   0.321   7.174  0.0193  0.0866  1.1691
 1264TIP3    H125427   3.609   0.230   7.192 -1.6146 -0.1494  1.9016
 1264TIP3    H225428   3.669   0.355   7.133  0.6201 -1.6710  0.8062
 1265TIP3   OH225429   0.270   0.771   7.688  0.2031 -0.5361 -0.1851
 1265TIP3    H125430   0.193   0.829   7.683  1.0839  0.8779  1.6522
 1265TIP3    H225431   0.251   0.711   7.759  0.4781 -0.7015 -0.2493
 1266TIP3   OH225432   6.711   5.312   6.119  0.2761 -1.0129  0.1853
 1266TIP3    H125433   6.661   5.369   6.178  0.7494 -3.5832  3.3552
 1266TIP3    H225434   6.799   5.310   6.156  0.8733 -2.0436 -1.1844
 1267TIP3   OH225435   5.262   6.741   0.117  0.3886  0.2250 -0.6207
 1267TIP3    H125436   5.321   6.746   0.192  0.0458 -1.7248 -0.1694
 1267TIP3    H225437   5.290   6.664   0.069 -2.3171 -1.4203  0.1662
 1268TIP3   OH225438   5.061   0.589   2.715  0.0887  0.1731  0.0940
 1268TIP3    H125439   5.069   0.525   2.644  1.4489 -0.4577  0.7775
 1268TIP3    H225440   5.077   0.673   2.672  1.3849 -0.2445 -0.2965
 1269TIP3   OH225441   5.394   4.925   0.845  0.0827 -0.7239 -0.1493
 1269TIP3    H125442   5.450   4.981   0.790  0.6375 -1.6047 -0.4988
 1269TIP3    H225443   5.436   4.928   0.931  0.2337 -0.7772 -0.2205
 1270TIP3   OH225444   3.760   3.780   0.717 -0.4310 -0.3775 -0.4145
 1270TIP3    H125445   3.719   3.715   0.774 -1.8882  0.5562 -0.3468
 1270TIP3    H225446   3.689   3.839   0.693  0.2541 -0.3797 -2.7259
 1271TIP3   OH225447   0.518   3.738   7.724  0.1258 -0.3494 -0.4616
 1271TIP3    H125448   0.476   3.781   7.649 -0.4400  2.2973  1.2303
 1271TIP3    H225449   0.609   3.768   7.720 -0.0659  0.3729  0.2376
 1272TIP3   OH225450   3.868   1.926   0.932  0.4505  0.1589 -0.0665
 1272TIP3    H125451   3.908   1.988   0.994  0.7510 -0.8106  0.7237
 1272TIP3    H225452   3.920   1.847   0.940 -1.7220 -1.2412  1.1582
 1273TIP3   OH225453   0.169   4.485   1.900  0.1100  0.2369  0.4416
 1273TIP3    H125454   0.099   4.427   1.869 -1.7751  2.0554  1.0151
 1273TIP3    H225455   0.144   4.508   1.989  0.7878  1.8477  0.2673
 1274TIP3   OH225456   1.182   5.390   7.127 -1.0444  0.1749  0.0020
 1274TIP3    H125457   1.181   5.296   7.145 -0.8094  0.2412  0.3732
 1274TIP3    H225458   1.179   5.396   7.031  0.3864 -0.2464 -0.0973
 1275TIP3   OH225459   4.440   0.368   0.885  0.0332 -0.0659 -0.2129
 1275TIP3    H125460   4.524   0.338   0.849  0.4042 -0.0214  0.6068
 1275TIP3    H225461   4.416   0.443   0.830 -0.2236 -0.9870 -1.4024
 1276TIP3   OH225462   5.954   1.440   7.415  0.0123  0.0682  0.1620
 1276TIP3    H125463   5.982   1.508   7.353 -0.0110  1.0742  1.2162
 1276TIP3    H225464   5.921   1.370   7.360  0.0945  0.8877 -0.9738
 1277TIP3   OH225465   0.026   3.972   1.327  0.0180 -0.4878  0.1893
 1277TIP3    H125466   0.050   3.889   1.369  0.2209 -0.3701  0.3072
 1277TIP3    H225467  -0.069   3.975   1.333 -0.1631 -1.5582 -1.4108
 1278TIP3   OH225468   3.316   0.698   8.318  0.3577  0.3256  0.8589
 1278TIP3    H125469   3.385   0.754   8.355  1.0505  0.8642 -1.1035
 1278TIP3    H225470   3.245   0.703   8.381  1.8094  0.4027  2.5678
 1279TIP3   OH225471   1.843   5.169   1.648  0.1411 -0.1875  0.1504
 1279TIP3    H125472   1.769   5.120   1.612 -1.1320  0.3620  1.8400
 1279TIP3    H225473   1.816   5.261   1.642  1.6122  0.1879 -1.1125
 1280TIP3   OH225474   1.670   6.565   0.158  0.1174 -0.1510 -0.0989
 1280TIP3    H125475   1.576   6.560   0.143 -0.3556  2.1902  1.5338
 1280TIP3    H225476   1.700   6.635   0.100  0.3408  0.9098  1.2444
 1281TIP3   OH225477   0.264   4.642   8.794 -0.0691 -0.0394  0.3526
 1281TIP3    H125478   0.333   4.694   8.753 -0.2040 -0.5420 -0.5404
 1281TIP3    H225479   0.274   4.554   8.757  0.5919 -0.8551  2.3503
 1282TIP3   OH225480   6.151   2.411   7.910  0.3201  0.7185  0.1927
 1282TIP3    H125481   6.111   2.352   7.846 -2.4929  0.3825  2.0877
 1282TIP3    H225482   6.143   2.498   7.870  0.2437  0.3351 -0.6439
 1283TIP3   OH225483   0.331   3.404   6.876  0.1893 -0.4941  0.0770
 1283TIP3    H125484   0.285   3.466   6.933 -0.3653 -1.6784  0.9399
 1283TIP3    H225485   0.383   3.350   6.935  3.3500  1.2319 -0.9000
 1284TIP3   OH225486   1.317   1.446   7.966  0.7185 -0.5783 -0.4973
 1284TIP3    H125487   1.363   1.514   8.016  0.9454  0.0694 -1.5565
 1284TIP3    H225488   1.256   1.407   8.029  0.6911  0.5040  0.1712
 1285TIP3   OH225489   0.933   5.327   6.942 -0.3985 -0.1648  1.0066
 1285TIP3    H125490   0.987   5.401   6.915 -1.4631  0.3400  0.2020
 1285TIP3    H225491   0.870   5.364   7.004  0.6311 -0.8996  2.5608
 1286TIP3   OH225492   5.231   1.538   1.208  0.2420 -0.0674 -0.2688
 1286TIP3    H125493   5.243   1.592   1.286 -3.4383 -0.0587  0.4791
 1286TIP3    H225494   5.232   1.448   1.240  2.9859 -0.3755 -0.9917
 1287TIP3   OH225495   5.573   5.718   1.264  0.4424 -0.0041  0.2760
 1287TIP3    H125496   5.537   5.722   1.353 -1.9151  0.5676 -0.6270
 1287TIP3    H225497   5.615   5.632   1.259  1.1288  0.1760  2.0855
 1288TIP3   OH225498   4.628   5.781   0.277  0.1537  0.5816 -0.1637
 1288TIP3    H125499   4.604   5.835   0.201  0.6043  0.9261 -0.0643
 1288TIP3    H225500   4.547   5.771   0.326  0.2283  1.8422  0.2402
 1289TIP3   OH225501   2.393   0.832   8.455  0.3086 -0.3620 -0.1669
 1289TIP3    H125502   2.454   0.771   8.497  0.8127 -0.3620 -0.8788
 1289TIP3    H225503   2.323   0.845   8.519  0.4801 -1.2528  0.2104
 1290TIP3   OH225504   1.453   3.289   7.272 -0.5047 -0.5647 -0.2298
 1290TIP3    H125505   1.406   3.332   7.344  0.3975  0.1298 -0.0432
 1290TIP3    H225506   1.494   3.213   7.314  0.6628  0.2662  0.1882
 1291TIP3   OH225507   0.228   2.293   7.441 -0.2279  0.3886  0.0815
 1291TIP3    H125508   0.300   2.277   7.502  1.4265  2.0563 -1.2947
 1291TIP3    H225509   0.151   2.301   7.496  0.6623 -1.2590  1.6395
 1292TIP3   OH225510   0.134   2.850   7.171  0.1181 -0.2582 -0.0228
 1292TIP3    H125511   0.119   2.775   7.228  2.4870 -0.2633  0.7256
 1292TIP3    H225512   0.093   2.826   7.088 -1.2613 -1.3028  0.9149
 1293TIP3   OH225513   2.437   6.554   0.388 -0.0868 -0.4051  0.3963
 1293TIP3    H125514   2.389   6.637   0.383  0.9584  0.2888  1.2809
 1293TIP3    H225515   2.528   6.581   0.400  1.1163 -1.5729 -4.2284
 1294TIP3   OH225516   5.730   0.127   0.708  0.1192  0.1818 -0.2067
 1294TIP3    H125517   5.746   0.037   0.679 -0.6072  0.2362 -0.8170
 1294TIP3    H225518   5.800   0.178   0.665 -1.2361  0.3397 -2.4003
 1295TIP3   OH225519   0.571   1.848   1.608 -0.6414 -0.1511  0.5853
 1295TIP3    H125520   0.509   1.850   1.681  0.3769 -1.5689  1.5417
 1295TIP3    H225521   0.629   1.922   1.623 -0.1081 -0.7522  1.5280
 1296TIP3   OH225522   0.004   2.845   6.928  0.6394 -0.4063 -0.0035
 1296TIP3    H125523   0.013   2.859   6.833  1.3015 -1.1741 -0.0658
 1296TIP3    H225524  -0.065   2.780   6.936 -0.2047  0.4859  0.1122
 1297TIP3   OH225525   1.267   5.610   0.269 -0.4902  0.3774  0.6157
 1297TIP3    H125526   1.313   5.536   0.310 -0.2865 -1.3773 -2.5015
 1297TIP3    H225527   1.174   5.592   0.283 -0.4114  0.6481  1.5844
 1298TIP3   OH225528   5.425   0.000   8.692 -0.4752 -1.2342 -0.2561
 1298TIP3    H125529   5.333  -0.004   8.717 -0.5642 -0.1609 -0.3779
 1298TIP3    H225530   5.469   0.042   8.767 -0.4478  0.2768 -1.0910
 1299TIP3   OH225531   1.729   1.057   1.680 -0.0936  0.0412 -0.0563
 1299TIP3    H125532   1.788   1.018   1.616  1.7838  1.6046  0.6034
 1299TIP3    H225533   1.786   1.105   1.740 -1.6744 -1.6889  3.1423
 1300TIP3   OH225534   3.921   0.427   0.082  0.2094 -0.1996 -0.2457
 1300TIP3    H125535   3.920   0.341   0.124  1.5921 -0.2412 -0.2581
 1300TIP3    H225536   3.861   0.417   0.007  0.1251 -1.0626 -0.0830
 1301TIP3   OH225537   6.142   5.149   0.609 -0.1334 -0.1351 -0.2202
 1301TIP3    H125538   6.165   5.159   0.701 -0.1579 -0.5202 -0.1691
 1301TIP3    H225539   6.216   5.187   0.562 -0.1906  0.2015 -0.0424
 1302TIP3   OH225540   4.803   2.577   1.461  0.2331  0.2427  0.7132
 1302TIP3    H125541   4.714   2.596   1.490  0.3891 -0.0599  1.4052
 1302TIP3    H225542   4.792   2.537   1.374 -0.3643 -0.5470  1.1366
 1303TIP3   OH225543   1.788   1.311   2.224 -0.3618  0.0178 -0.2292
 1303TIP3    H125544   1.834   1.369   2.285 -0.0308  0.8298 -1.2144
 1303TIP3    H225545   1.763   1.235   2.277 -0.4902  0.8927  1.0217
 1304TIP3   OH225546   3.388   4.064   6.606  0.2451 -0.2923 -0.1944
 1304TIP3    H125547   3.431   4.144   6.577  0.8515  0.1465  1.7677
 1304TIP3    H225548   3.438   3.994   6.564  1.6549  0.2829  0.4534
 1305TIP3   OH225549   2.450   3.161   8.630  0.2267  1.0244 -0.1661
 1305TIP3    H125550   2.519   3.112   8.674  0.1771  1.3895  0.3384
 1305TIP3    H225551   2.400   3.095   8.582  0.6085  0.6892 -0.1058
 1306TIP3   OH225552   4.081   6.196   8.281  0.1734  0.0508 -0.7223
 1306TIP3    H125553   3.992   6.166   8.263 -0.1241  1.2800 -1.4134
 1306TIP3    H225554   4.071   6.249   8.361  0.5873 -1.1198  0.1377
 1307TIP3   OH225555   6.814   3.155   6.986  0.0445 -0.0636 -0.5057
 1307TIP3    H125556   6.875   3.152   7.059 -0.2704 -1.7098 -0.2917
 1307TIP3    H225557   6.866   3.188   6.913  0.2379  2.1015  0.5288
 1308TIP3   OH225558   2.316   0.020   1.417 -0.2259  0.2420 -0.8399
 1308TIP3    H125559   2.278  -0.025   1.342  1.5969 -0.5424 -1.3435
 1308TIP3    H225560   2.357   0.098   1.380 -1.0593  0.9398 -0.3389
 1309TIP3   OH225561   5.216   0.446   8.185 -0.3070 -0.2747  0.1402
 1309TIP3    H125562   5.197   0.462   8.277 -0.5238 -1.9983  0.4184
 1309TIP3    H225563   5.146   0.492   8.138 -0.8530 -0.3357  0.8772
 1310TIP3   OH225564   2.982   5.699   1.653 -0.0266 -0.2018  0.0244
 1310TIP3    H125565   3.010   5.773   1.707  1.5204  0.2483 -1.2874
 1310TIP3    H225566   2.893   5.681   1.680  0.3518  0.6539  1.9783
 1311TIP3   OH225567   1.646   6.801   8.383  0.5767  0.5314  0.0452
 1311TIP3    H125568   1.739   6.780   8.378  0.0276 -1.9314 -1.4711
 1311TIP3    H225569   1.604   6.719   8.409 -1.1734  1.6869  1.0962
 1312TIP3   OH225570   0.332   0.136   1.930  0.4774  0.5333 -0.1804
 1312TIP3    H125571   0.406   0.180   1.970  2.1528 -1.1807 -1.1998
 1312TIP3    H225572   0.365   0.105   1.845 -1.1569 -0.9121 -0.3653
 1313TIP3   OH225573   4.427   4.114   0.100 -0.3915 -0.2077 -0.2862
 1313TIP3    H125574   4.387   4.104   0.186  2.3832  1.8059  1.4152
 1313TIP3    H225575   4.455   4.025   0.076 -0.2560 -0.6509  1.4179
 1314TIP3   OH225576   1.595   4.450   6.742 -0.1764 -0.4778 -0.0228
 1314TIP3    H125577   1.684   4.479   6.725  0.6028 -1.9421  1.2894
 1314TIP3    H225578   1.540   4.525   6.719  1.3450  0.3481 -1.1457
 1315TIP3   OH225579   1.086   2.125   1.053  0.0565 -0.5716 -0.0140
 1315TIP3    H125580   1.103   2.033   1.074  2.7014  0.0851  1.0993
 1315TIP3    H225581   1.087   2.170   1.138  1.8962  0.8757 -0.7334
 1316TIP3   OH225582   5.824   2.508   0.147  0.9054  0.2339 -0.2757
 1316TIP3    H125583   5.835   2.493   0.053 -0.0319 -0.6921 -0.2504
 1316TIP3    H225584   5.834   2.603   0.157  0.1305  0.4674 -1.4489
 1317TIP3   OH225585   3.090   0.311   0.928  0.4450  0.0652 -0.0448
 1317TIP3    H125586   3.034   0.256   0.873  0.1975  0.8206 -0.5689
 1317TIP3    H225587   3.086   0.270   1.014  0.1838 -0.6745 -0.3994
 1318TIP3   OH225588   1.721   4.213   8.558 -0.1408 -0.5115 -0.2649
 1318TIP3    H125589   1.647   4.160   8.528  0.5197 -1.5676 -0.1067
 1318TIP3    H225590   1.686   4.301   8.567 -2.2027 -1.4679  2.6653
 1319TIP3   OH225591   2.153   1.724   7.877 -0.2637 -0.6196  0.0092
 1319TIP3    H125592   2.240   1.686   7.864  0.2423  0.7280 -0.7443
 1319TIP3    H225593   2.093   1.658   7.843  0.4312 -1.6801  0.7855
 1320TIP3   OH225594   2.286   0.212   6.876  0.1830  0.0871 -0.4275
 1320TIP3    H125595   2.220   0.277   6.855 -0.4170 -0.6621 -0.9420
 1320TIP3    H225596   2.346   0.214   6.802  0.5837  0.5633 -0.0967
 1321TIP3   OH225597   6.306   2.252   0.016 -0.1711  0.3524  0.2200
 1321TIP3    H125598   6.384   2.256  -0.039  0.4072 -0.1852  0.9799
 1321TIP3    H225599   6.339   2.235   0.104 -1.1908 -1.2941  0.3421
 1322TIP3   OH225600   1.419   1.829   1.399  0.3361  0.3165 -0.6031
 1322TIP3    H125601   1.500   1.833   1.450  0.3120  1.0312 -0.6144
 1322TIP3    H225602   1.352   1.807   1.463  1.0734 -4.8395 -1.1933
 1323TIP3   OH225603   2.033   1.920   1.560  0.0400  0.5328 -0.1195
 1323TIP3    H125604   2.019   1.989   1.625  0.3132  0.9631 -0.5040
 1323TIP3    H225605   2.087   1.962   1.493 -0.1887  0.0819 -0.5909
 1324TIP3   OH225606   3.670   3.550   0.182  0.3468  0.2358 -0.3612
 1324TIP3    H125607   3.688   3.634   0.224  1.0603 -0.1864  0.1938
 1324TIP3    H225608   3.624   3.573   0.101 -0.5277  1.0944  0.3503
 1325TIP3   OH225609   5.490   3.189   1.400  0.6130 -0.1408  0.8685
 1325TIP3    H125610   5.497   3.265   1.459 -0.4357  0.6781 -0.0186
 1325TIP3    H225611   5.452   3.120   1.454 -1.9128  1.0818  0.8305
 1326TIP3   OH225612   5.904   4.164   7.795  0.0047 -0.2447 -0.1091
 1326TIP3    H125613   5.955   4.240   7.823 -0.1915  0.4518 -1.5152
 1326TIP3    H225614   5.872   4.188   7.708  4.6622 -4.0135 -3.4080
 1327TIP3   OH225615   2.954   3.130   7.473 -0.3441 -0.1203 -0.0301
 1327TIP3    H125616   3.020   3.157   7.538 -0.3370 -1.0449  0.3698
 1327TIP3    H225617   2.879   3.186   7.491 -0.9479 -1.4307  1.9029
 1328TIP3   OH225618   6.091   6.321   0.578 -0.4667  0.6590  0.6088
 1328TIP3    H125619   6.049   6.404   0.556  0.7454  1.0289 -0.4914
 1328TIP3    H225620   6.145   6.301   0.501  1.6545  0.4418  2.0654
 1329TIP3   OH225621   3.854   5.549   7.131 -0.5138 -0.4389 -0.1637
 1329TIP3    H125622   3.931   5.605   7.143 -2.0692  1.6453  0.7070
 1329TIP3    H225623   3.832   5.518   7.219 -0.9347 -0.6453 -0.3376
 1330TIP3   OH225624   5.951   5.769   1.900 -0.2883  0.0699 -0.2020
 1330TIP3    H125625   5.902   5.852   1.903  0.9284  0.8491 -0.8353
 1330TIP3    H225626   6.036   5.791   1.939  0.0660 -0.8742 -0.4334
 1331TIP3   OH225627   1.240   2.038   8.197  0.0053  0.0870 -0.3800
 1331TIP3    H125628   1.211   2.077   8.279  1.0647 -0.1984  0.1371
 1331TIP3    H225629   1.207   2.097   8.129 -1.1821  0.1394  0.2145
 1332TIP3   OH225630   2.632   2.313   7.512 -0.3076 -0.6338 -0.6830
 1332TIP3    H125631   2.611   2.275   7.426 -2.1259  1.0634 -1.0498
 1332TIP3    H225632   2.634   2.407   7.497 -1.7721 -0.2214  1.3343
 1333TIP3   OH225633   0.691   5.395   7.150 -0.4771  0.2875  0.1350
 1333TIP3    H125634   0.724   5.456   7.083 -2.2815 -1.2878 -2.3954
 1333TIP3    H225635   0.621   5.443   7.194  0.1163  1.0338  0.2889
 1334TIP3   OH225636   5.411   1.415   8.610 -0.0495 -0.0220  0.1154
 1334TIP3    H125637   5.453   1.454   8.687  1.9242  1.7250 -1.7441
 1334TIP3    H225638   5.322   1.449   8.611 -0.0161  0.0837  1.5156
 1335TIP3   OH225639   5.247   4.087   1.561 -0.1620 -0.2603  0.3676
 1335TIP3    H125640   5.157   4.080   1.531 -0.1453 -0.7229  0.4215
 1335TIP3    H225641   5.240   4.113   1.653 -0.2437 -0.5001  0.4288
 1336TIP3   OH225642   5.729   0.258   7.335 -0.4250 -0.3340  0.4779
 1336TIP3    H125643   5.737   0.253   7.430 -2.1189  1.8218  0.8091
 1336TIP3    H225644   5.783   0.333   7.309 -0.3205 -0.6382 -0.2146
 1337TIP3   OH225645   2.291   0.291   7.413  0.5088  0.3745  0.1406
 1337TIP3    H125646   2.302   0.353   7.485  0.2626  1.6821 -0.9284
 1337TIP3    H225647   2.196   0.289   7.398  0.6406  0.8312 -0.7703
 1338TIP3   OH225648   4.213   0.709   1.587 -0.2129  0.2261 -0.1061
 1338TIP3    H125649   4.122   0.687   1.607 -0.1379  0.4042  0.4646
 1338TIP3    H225650   4.210   0.754   1.503 -0.6094 -0.0883 -0.2636
 1339TIP3   OH225651   4.560   1.817   1.928  0.3575 -0.8098  0.4390
 1339TIP3    H125652   4.535   1.856   2.012 -0.0024  0.7646 -0.3621
 1339TIP3    H225653   4.625   1.751   1.951  0.8411  0.1262  1.8842
 1340TIP3   OH225654   0.585   6.611   7.822 -0.0379  0.1542 -0.6671
 1340TIP3    H125655   0.502   6.657   7.812  0.0858  0.2889 -1.1215
 1340TIP3    H225656   0.588   6.550   7.748 -0.5493 -1.1531  0.3569
 1341TIP3   OH225657   5.298   5.672   7.504 -0.1928 -0.1581 -0.4764
 1341TIP3    H125658   5.310   5.596   7.447 -2.3279  0.5700 -2.0173
 1341TIP3    H225659   5.210   5.704   7.484 -0.0287  1.7119  1.3824
 1342TIP3   OH225660   2.926   5.728   7.055 -0.2441 -0.0427 -0.5009
 1342TIP3    H125661   2.986   5.793   7.091 -1.4682  0.9502 -0.2138
 1342TIP3    H225662   2.959   5.644   7.090 -1.7422  0.8809  3.6799
 1343TIP3   OH225663   3.721   6.725   0.970 -0.2634 -0.1850 -1.0315
 1343TIP3    H125664   3.746   6.728   0.878 -0.5767 -2.3219 -1.2326
 1343TIP3    H225665   3.768   6.798   1.010  0.8347  0.0459 -2.6578
 1344TIP3   OH225666   2.284   3.693   7.698 -0.4328  0.3695 -0.1652
 1344TIP3    H125667   2.367   3.738   7.687 -1.7986  3.6395  1.4358
 1344TIP3    H225668   2.231   3.720   7.623 -0.0473 -1.9180 -1.3299
 1345TIP3   OH225669   4.269   5.809   0.218  0.9168  0.0082  0.2993
 1345TIP3    H125670   4.333   5.848   0.158 -1.2280  0.1183 -2.1132
 1345TIP3    H225671   4.274   5.715   0.202  0.1750  0.0561 -0.2647
 1346TIP3   OH225672   3.474   1.504   1.904  0.1302 -0.3855 -0.4951
 1346TIP3    H125673   3.487   1.594   1.874  2.4093 -0.4758  0.0157
 1346TIP3    H225674   3.392   1.506   1.953 -0.2873  1.2224 -1.2149
 1347TIP3   OH225675   3.921   1.108   1.760 -0.1927 -0.1841 -0.3156
 1347TIP3    H125676   3.990   1.149   1.812  0.9430 -0.4412 -1.5722
 1347TIP3    H225677   3.840   1.134   1.803  0.6836 -0.1802  1.4218
 1348TIP3   OH225678   6.132   5.483   8.225 -0.2826  0.0961 -0.3182
 1348TIP3    H125679   6.117   5.572   8.193 -1.4936  0.0849  0.1574
 1348TIP3    H225680   6.069   5.430   8.176 -1.8480  0.0108  1.6625
 1349TIP3   OH225681   1.760   3.526   7.334  0.1261  0.0174  0.2135
 1349TIP3    H125682   1.787   3.571   7.253 -2.7018 -0.2258 -0.9794
 1349TIP3    H225683   1.693   3.465   7.306 -1.8423  0.7744  2.8889
 1350TIP3   OH225684   3.794   3.870   7.000  0.0227 -0.4580  0.2854
 1350TIP3    H125685   3.739   3.875   6.922 -0.1078  1.7612  0.4463
 1350TIP3    H225686   3.858   3.940   6.989  0.2964 -0.3935  1.9374
 1351TIP3   OH225687   5.727   4.612   0.863  0.2642  0.0518  0.2351
 1351TIP3    H125688   5.778   4.553   0.919 -0.1972  0.1132  0.7316
 1351TIP3    H225689   5.764   4.699   0.879  1.2779 -0.1552 -0.8779
 1352TIP3   OH225690   5.662   5.439   1.217 -0.0067  0.2523 -0.4060
 1352TIP3    H125691   5.648   5.348   1.190 -0.0863 -0.3000  1.4072
 1352TIP3    H225692   5.643   5.440   1.311  0.9612  1.9321 -0.1864
 1353TIP3   OH225693   0.794   5.164   0.365  0.3171  0.8956  0.4586
 1353TIP3    H125694   0.816   5.177   0.458 -0.8107 -2.0890  1.2670
 1353TIP3    H225695   0.700   5.184   0.360 -0.8166 -3.2634  1.1771
 1354TIP3   OH225696   4.398   3.662   0.650 -0.5812 -0.7050 -0.0222
 1354TIP3    H125697   4.391   3.656   0.555 -0.4327  1.5192 -0.2378
 1354TIP3    H225698   4.362   3.749   0.670  1.1580 -0.3344  1.7320
 1355TIP3   OH225699   2.785   5.831   7.957 -0.3687 -0.2320 -0.6680
 1355TIP3    H125700   2.746   5.914   7.984 -1.1849 -0.3757 -1.3496
 1355TIP3    H225701   2.874   5.853   7.932  0.2893 -0.0107  1.6029
 1356TIP3   OH225702   4.178   1.590   0.607 -0.2903  0.3825  0.0361
 1356TIP3    H125703   4.217   1.505   0.589  1.4096  1.1329  0.0578
 1356TIP3    H225704   4.194   1.641   0.528  1.4918  1.6477  1.1669
 1357TIP3   OH225705   6.842   1.415   0.495  0.4697  0.0492 -0.2511
 1357TIP3    H125706   6.924   1.456   0.468 -0.0303  0.4315 -1.2426
 1357TIP3    H225707   6.793   1.403   0.413 -0.8830  0.7519  0.4271
 1358TIP3   OH225708   4.609   2.540   0.271  0.4764  0.2394  0.1266
 1358TIP3    H125709   4.664   2.465   0.248  0.6105 -0.1522  1.5943
 1358TIP3    H225710   4.520   2.511   0.251  0.6407  0.2233 -0.6237
 1359TIP3   OH225711   0.061   0.564   7.816 -0.2333  0.0196 -0.2914
 1359TIP3    H125712  -0.009   0.630   7.811 -0.1213  0.1289 -0.4367
 1359TIP3    H225713   0.049   0.512   7.737  0.3938  0.5895 -0.7745
 1360TIP3   OH225714   5.397   4.362   1.192  0.0154 -0.2979 -0.0489
 1360TIP3    H125715   5.424   4.371   1.101 -0.3126 -0.4664 -0.1646
 1360TIP3    H225716   5.476   4.332   1.238  0.3242  0.2988 -0.1764
 1361TIP3   OH225717   3.850   0.794   8.129  0.2769  0.2064 -0.0219
 1361TIP3    H125718   3.767   0.749   8.146  0.0313  0.5648 -0.2602
 1361TIP3    H225719   3.828   0.887   8.136  0.7178  0.2986  0.1735
 1362TIP3   OH225720   6.024   1.419   1.282 -0.6276 -1.1593  0.2302
 1362TIP3    H125721   6.068   1.410   1.367 -2.1946 -2.9975  0.9305
 1362TIP3    H225722   5.984   1.333   1.267 -1.0959 -0.6118 -1.9951
 1363TIP3   OH225723   4.844   6.524   6.412 -0.1868 -0.3488  0.8686
 1363TIP3    H125724   4.886   6.576   6.480 -0.3957  0.0907  0.6643
 1363TIP3    H225725   4.753   6.514   6.442  0.1162 -1.5555  1.4617
 1364TIP3   OH225726   2.598   1.730   1.994  0.0795  0.5464 -0.2063
 1364TIP3    H125727   2.625   1.813   2.033  2.2879  0.1539 -0.7498
 1364TIP3    H225728   2.662   1.666   2.026 -0.9652 -0.7512 -0.6165
 1365TIP3   OH225729   1.298   2.489   8.394 -0.2139  0.1093 -0.2911
 1365TIP3    H125730   1.250   2.440   8.327 -1.6403 -1.9680  2.0371
 1365TIP3    H225731   1.238   2.558   8.421 -1.1141 -1.1532  1.1088
 1366TIP3   OH225732   5.738   3.606   1.867 -0.0244 -0.0900  0.1855
 1366TIP3    H125733   5.765   3.615   1.958 -1.0861 -1.3997  0.6591
 1366TIP3    H225734   5.691   3.687   1.848  0.0437  0.1100  0.8567
 1367TIP3   OH225735   5.857   3.867   1.888  0.2083 -0.2726 -0.4384
 1367TIP3    H125736   5.793   3.868   1.817  0.9770  0.4384 -1.1457
 1367TIP3    H225737   5.845   3.951   1.933 -0.7903 -1.0307  0.7745
 1368TIP3   OH225738   2.801   0.792   0.271  0.0850 -0.1454  0.0419
 1368TIP3    H125739   2.725   0.848   0.253  0.0051 -0.3313 -0.2074
 1368TIP3    H225740   2.772   0.732   0.339  0.3042  0.3906  0.6163
 1369TIP3   OH225741   2.297   0.480   7.631 -0.1688 -0.3370 -0.3860
 1369TIP3    H125742   2.235   0.549   7.604  0.1518 -0.4364 -1.3879
 1369TIP3    H225743   2.380   0.526   7.642  0.0431 -0.5558 -1.0460
 1370TIP3   OH225744   6.597   2.392   7.891  0.5184  0.3355  0.6819
 1370TIP3    H125745   6.599   2.431   7.979  0.3042 -0.2614  0.9587
 1370TIP3    H225746   6.512   2.349   7.885 -0.2556  1.9563 -0.5435
 1371TIP3   OH225747   5.329   0.229   2.336  0.0249  0.2316  0.1875
 1371TIP3    H125748   5.251   0.173   2.336  0.1473  0.0217  1.9388
 1371TIP3    H225749   5.402   0.170   2.351  0.6736  0.3345 -2.0624
 1372TIP3   OH225750   3.521   2.932   8.418  0.2200 -0.2572  0.0854
 1372TIP3    H125751   3.525   2.983   8.499  1.7108 -0.4712  0.1744
 1372TIP3    H225752   3.441   2.961   8.376 -1.7362 -1.6308  2.5893
 1373TIP3   OH225753   1.368   6.806   1.045  0.1385 -0.6714  0.0489
 1373TIP3    H125754   1.357   6.786   1.138  2.0227 -0.4810  0.3490
 1373TIP3    H225755   1.462   6.809   1.032 -0.0522  1.7091 -1.3644
 1374TIP3   OH225756   5.346   5.750   7.246  0.1529 -0.2491  0.4107
 1374TIP3    H125757   5.274   5.768   7.185 -1.6523 -1.0238  2.2049
 1374TIP3    H225758   5.323   5.801   7.324  1.9057 -0.0237  0.8000
 1375TIP3   OH225759   0.039   5.705   7.299 -0.4276 -0.0500 -0.2281
 1375TIP3    H125760   0.031   5.754   7.218 -1.9026  1.4028  0.7340
 1375TIP3    H225761   0.069   5.769   7.363 -0.4030 -0.8895  0.6269
 1376TIP3   OH225762   6.670   4.580   6.729 -0.0029  0.2038  0.0893
 1376TIP3    H125763   6.657   4.625   6.646  0.9630 -0.6280 -0.5288
 1376TIP3    H225764   6.640   4.643   6.795 -3.6747 -0.2406 -0.9675
 1377TIP3   OH225765   4.558   6.275   7.319  0.3532 -0.0572 -0.4380
 1377TIP3    H125766   4.635   6.219   7.332  0.3199  0.4091  2.5894
 1377TIP3    H225767   4.494   6.218   7.276  1.2265 -1.5259  0.1337
 1378TIP3   OH225768   0.678   0.461   8.525  0.3448  0.1780  0.5583
 1378TIP3    H125769   0.744   0.455   8.594  1.0441 -0.0072 -0.1103
 1378TIP3    H225770   0.638   0.374   8.523 -0.8281  0.6558  1.8207
 1379TIP3   OH225771   0.805   5.935   1.769 -0.0451  0.2184  0.1193
 1379TIP3    H125772   0.836   5.982   1.847  2.7504  0.0696 -0.7861
 1379TIP3    H225773   0.845   5.848   1.777 -2.1488 -0.8281 -0.0758
 1380TIP3   OH225774   3.599   5.850   8.284 -0.5857  0.9108 -0.5317
 1380TIP3    H125775   3.675   5.821   8.233  0.4951  2.3937  0.1554
 1380TIP3    H225776   3.558   5.917   8.229 -1.0702  0.5216 -0.6498
 1381TIP3   OH225777   6.636   5.010   7.133  0.5864  0.0734  0.1728
 1381TIP3    H125778   6.719   4.979   7.168 -0.1526  0.4759  2.4748
 1381TIP3    H225779   6.570   4.955   7.177 -0.5004  1.9155  0.9428
 1382TIP3   OH225780   3.278   6.224   7.741  0.5247  0.1864 -0.1629
 1382TIP3    H125781   3.230   6.301   7.711 -0.7499 -0.2869  0.5808
 1382TIP3    H225782   3.369   6.243   7.721  0.1706  1.6557 -0.4762
 1383TIP3   OH225783   6.070   0.962   7.159 -0.3053 -0.1977 -0.3844
 1383TIP3    H125784   5.998   0.913   7.200 -0.8639  1.3675  0.6093
 1383TIP3    H225785   6.077   1.042   7.211  2.1644 -0.2734 -0.4647
 1384TIP3   OH225786   0.400   5.176   6.692 -0.0138  0.1191  0.2509
 1384TIP3    H125787   0.423   5.131   6.611 -1.9473  0.3379 -0.4763
 1384TIP3    H225788   0.475   5.234   6.709  0.0930  0.6776 -1.8440
 1385TIP3   OH225789   0.882   2.473   0.249  0.7392  0.6264  0.9683
 1385TIP3    H125790   0.869   2.557   0.204 -0.4109  0.3037  0.6446
 1385TIP3    H225791   0.793   2.444   0.269  1.0636 -0.9578  0.2587
 1386TIP3   OH225792   5.866   5.191   7.327  0.1838  0.3192 -0.2561
 1386TIP3    H125793   5.943   5.154   7.370  1.2265  1.7277 -0.8604
 1386TIP3    H225794   5.792   5.151   7.373  1.2626 -0.0072  1.2632
 1387TIP3   OH225795   2.576   2.048   7.884  0.3470 -0.3257 -0.3321
 1387TIP3    H125796   2.547   2.076   7.797  0.1579  0.7965  0.0689
 1387TIP3    H225797   2.662   2.089   7.895  0.7602 -1.1780 -0.3275
 1388TIP3   OH225798   0.155   3.885   8.625  0.2866 -0.0307 -0.2369
 1388TIP3    H125799   0.066   3.882   8.591  0.0609 -2.2189  0.3936
 1388TIP3    H225800   0.147   3.930   8.709 -0.6111 -1.9702  0.7643
 1389TIP3   OH225801   5.980   0.042   7.867  0.1339 -0.5056  0.0424
 1389TIP3    H125802   6.011  -0.048   7.871 -1.3230 -1.1572 -1.8257
 1389TIP3    H225803   5.884   0.035   7.862  0.0333  1.0445 -1.2457
 1390TIP3   OH225804   2.843   3.462   8.531 -0.8020 -0.2080 -0.1769
 1390TIP3    H125805   2.831   3.411   8.451 -1.2597 -1.6749  0.7818
 1390TIP3    H225806   2.817   3.403   8.602  1.7344  0.2220  1.2470
 1391TIP3   OH225807   2.085   3.796   0.227 -0.3592 -0.2931 -0.1259
 1391TIP3    H125808   2.081   3.831   0.138 -0.5412  0.1304  0.0446
 1391TIP3    H225809   2.019   3.726   0.229 -2.5696  1.6645  0.5115
 1392TIP3   OH225810   3.788   2.640   7.290  0.2749  0.1483 -0.6235
 1392TIP3    H125811   3.701   2.675   7.305  0.5959  0.9809 -0.6654
 1392TIP3    H225812   3.813   2.603   7.375  0.5762  1.4854 -0.1070
 1393TIP3   OH225813   0.302   0.840   0.366 -0.4083  0.0972 -0.1185
 1393TIP3    H125814   0.297   0.745   0.377 -2.2813  0.2296  0.6287
 1393TIP3    H225815   0.227   0.874   0.415  0.5796  2.0272  0.1826
 1394TIP3   OH225816   2.468   5.440   8.751  0.4088 -0.2273 -0.0373
 1394TIP3    H125817   2.385   5.488   8.746  1.1199  0.9256 -1.3658
 1394TIP3    H225818   2.482   5.408   8.663  0.6245 -1.7910  0.5337
 1395TIP3   OH225819   6.622   5.600   0.625 -0.4830 -0.7345 -0.3419
 1395TIP3    H125820   6.551   5.637   0.573  0.3152 -0.7505 -1.4992
 1395TIP3    H225821   6.612   5.640   0.711 -1.5222 -0.2742 -0.6579
 1396TIP3   OH225822   6.694   3.365   1.257 -0.0748 -0.0473 -0.0013
 1396TIP3    H125823   6.731   3.369   1.345 -1.3670  0.2768  0.5551
 1396TIP3    H225824   6.687   3.457   1.231 -2.5683  0.0919  0.8599
 1397TIP3   OH225825   4.470   6.427   0.280  0.3370 -0.4991 -0.3908
 1397TIP3    H125826   4.525   6.503   0.297 -3.1424  2.0062  0.8165
 1397TIP3    H225827   4.415   6.453   0.206 -1.6711 -1.3308  0.7267
 1398TIP3   OH225828   2.051   4.706   6.959  0.3754 -0.1758  0.2552
 1398TIP3    H125829   2.078   4.711   7.051  0.8523  1.4112  0.0593
 1398TIP3    H225830   2.109   4.767   6.913 -0.4426 -0.2710 -0.9575
 1399TIP3   OH225831   0.238   0.040   0.680 -0.2115 -0.0921 -0.0350
 1399TIP3    H125832   0.208  -0.043   0.644  0.1949 -0.2458 -0.0203
 1399TIP3    H225833   0.333   0.041   0.664 -0.1328  0.1361  0.4301
 1400TIP3   OH225834   1.459   0.265   0.240  0.6631  0.7364  0.5974
 1400TIP3    H125835   1.515   0.230   0.171 -0.5309  2.3029 -1.2530
 1400TIP3    H225836   1.507   0.340   0.275  0.4958  1.0243  0.2163
 1401TIP3   OH225837   2.018   2.313   8.172  0.3471  0.0687  0.0933
 1401TIP3    H125838   2.094   2.262   8.142  0.4051 -0.0923  0.5059
 1401TIP3    H225839   2.056   2.392   8.210  0.4019 -0.6252  1.5383
 1402TIP3   OH225840   5.614   0.948   1.852  0.2726 -0.0221 -0.2236
 1402TIP3    H125841   5.641   0.866   1.893 -1.0384  0.0625  0.8721
 1402TIP3    H225842   5.687   1.008   1.869  0.3704 -0.3998  0.7478
 1403TIP3   OH225843   0.774   6.044   8.406  0.2366 -0.0046 -0.0287
 1403TIP3    H125844   0.833   5.968   8.402 -0.0777 -0.2499 -0.0139
 1403TIP3    H225845   0.767   6.064   8.499  1.6709  1.1068 -0.1233
 1404TIP3   OH225846   5.353   6.284   8.049 -0.0721 -0.5262  0.7253
 1404TIP3    H125847   5.380   6.231   7.974  0.0404 -0.4997  0.7464
 1404TIP3    H225848   5.436   6.314   8.087 -0.1166 -0.8511  1.0817
 1405TIP3   OH225849   3.877   0.249   1.645 -0.0937  0.3968  0.0393
 1405TIP3    H125850   3.968   0.268   1.664  0.3664 -0.9553 -0.6681
 1405TIP3    H225851   3.850   0.187   1.713  0.1944 -0.8912 -0.9729
 1406TIP3   OH225852   3.973   3.366   7.230  0.3210  0.3498 -0.1937
 1406TIP3    H125853   4.000   3.348   7.320 -0.5197 -0.6719 -0.1245
 1406TIP3    H225854   3.940   3.456   7.232  1.9075  0.9615  0.1181
 1407TIP3   OH225855   5.113   2.264   6.790 -0.4325  0.8106  0.3948
 1407TIP3    H125856   5.205   2.244   6.772 -0.9545 -1.9222  0.3541
 1407TIP3    H225857   5.076   2.282   6.704 -0.7443 -2.2334 -0.2248
 1408TIP3   OH225858   1.805   2.156   1.081 -0.3408 -0.7071 -0.2780
 1408TIP3    H125859   1.897   2.179   1.066 -0.5588  0.0747 -0.4777
 1408TIP3    H225860   1.760   2.241   1.082 -1.1545 -1.1242 -0.8798
 1409TIP3   OH225861   5.485   0.123   0.820  0.1654 -0.1442  0.0443
 1409TIP3    H125862   5.568   0.111   0.773 -0.5192 -2.5128 -0.6951
 1409TIP3    H225863   5.486   0.057   0.889 -0.7813  0.3212  0.5316
 1410TIP3   OH225864   5.319   5.904   1.019  0.3518 -0.0465 -0.2787
 1410TIP3    H125865   5.241   5.959   1.014 -0.0485 -0.6068 -0.3036
 1410TIP3    H225866   5.313   5.860   1.103 -0.3470 -1.5147 -1.0542
 1411TIP3   OH225867   4.124   2.632   0.674  0.0031 -0.0008  0.3425
 1411TIP3    H125868   4.029   2.626   0.671 -0.0561  0.9178  0.2331
 1411TIP3    H225869   4.152   2.552   0.719 -0.8468 -0.0513  0.7913
 1412TIP3   OH225870   6.396   0.273   7.261 -0.0812 -0.4795  0.4838
 1412TIP3    H125871   6.463   0.341   7.255  0.4284 -0.9932  0.2486
 1412TIP3    H225872   6.347   0.295   7.340 -0.5552  0.7161 -0.1263
 1413TIP3   OH225873   1.181   6.596   0.985  0.5697  0.3080  0.1404
 1413TIP3    H125874   1.216   6.570   0.899  2.4245 -1.7100  1.3853
 1413TIP3    H225875   1.232   6.674   1.009 -0.9616  1.7765 -1.1244
 1414TIP3   OH225876   5.215   3.675   0.689  0.4556 -0.2800 -0.0886
 1414TIP3    H125877   5.187   3.703   0.601  1.0431 -0.7214 -0.4266
 1414TIP3    H225878   5.251   3.588   0.676 -0.8606 -0.9948  0.8700
 1415TIP3   OH225879   3.828   0.945   8.491 -0.2538 -0.1834 -0.8632
 1415TIP3    H125880   3.770   0.951   8.566 -0.8070 -1.1137 -1.1974
 1415TIP3    H225881   3.784   0.996   8.422 -0.6910 -0.8806 -1.1136
 1416TIP3   OH225882   3.712   6.523   6.872 -0.0783  0.2362  0.0927
 1416TIP3    H125883   3.655   6.561   6.805  0.0978 -0.3338 -0.3899
 1416TIP3    H225884   3.788   6.490   6.823  0.0829 -0.1229  0.5765
 1417TIP3   OH225885   5.318   5.298   1.543 -0.6558 -0.8229 -0.3197
 1417TIP3    H125886   5.276   5.382   1.563 -2.5247 -1.7058 -0.3400
 1417TIP3    H225887   5.314   5.292   1.447 -0.7266 -1.0126 -0.3059
 1418TIP3   OH225888   5.059   2.208   1.203 -0.0632  0.0343 -0.9587
 1418TIP3    H125889   5.103   2.261   1.269 -2.1235  0.6403 -0.0002
 1418TIP3    H225890   5.131   2.170   1.151  1.5175  2.2088 -0.4943
 1419TIP3   OH225891   0.391   5.958   1.396 -0.0592 -0.2006 -1.4253
 1419TIP3    H125892   0.371   5.954   1.302  0.0385 -0.3581 -1.4387
 1419TIP3    H225893   0.452   5.887   1.411 -0.4947 -0.5192 -1.1332
 1420TIP3   OH225894   4.817   5.563   6.686  0.5305 -0.3944  0.1434
 1420TIP3    H125895   4.746   5.504   6.661 -0.4672  0.2809  1.2397
 1420TIP3    H225896   4.822   5.626   6.614  0.2056 -0.6101 -0.0713
 1421TIP3   OH225897   2.206   6.013   1.504  0.2277 -0.1760 -0.6657
 1421TIP3    H125898   2.140   5.943   1.507 -0.2566  0.3039  0.0231
 1421TIP3    H225899   2.159   6.088   1.469  0.9279 -0.3667 -2.0909
 1422TIP3   OH225900   5.436   2.633   1.333 -0.2200  0.0358  0.3468
 1422TIP3    H125901   5.422   2.582   1.253  1.1111  0.1528  0.0135
 1422TIP3    H225902   5.435   2.569   1.403  0.1126 -0.2863  0.0636
 1423TIP3   OH225903   3.806   4.100   7.717  0.3537 -0.3410  0.0715
 1423TIP3    H125904   3.841   4.189   7.714  0.4345 -0.3734  0.0528
 1423TIP3    H225905   3.856   4.053   7.650 -0.6336 -0.0599 -0.8947
 1424TIP3   OH225906   4.068   5.409   0.473  0.0774  0.0714 -0.1930
 1424TIP3    H125907   3.981   5.434   0.441  0.2097  0.0358 -0.5856
 1424TIP3    H225908   4.121   5.488   0.461 -0.2396  0.5545  1.3655
 1425TIP3   OH225909   4.157   4.090   6.470 -0.2563  0.0511 -0.2221
 1425TIP3    H125910   4.072   4.128   6.448  0.5709  2.0347 -0.2014
 1425TIP3    H225911   4.221   4.154   6.437  1.1496  0.2456  2.6323
 1426TIP3   OH225912   4.052   2.944   2.110  0.5726 -0.0974  0.5691
 1426TIP3    H125913   4.047   2.888   2.187 -2.0262 -2.3072 -1.0367
 1426TIP3    H225914   3.986   3.012   2.126 -0.7604 -1.1913 -0.0963
 1427TIP3   OH225915   4.267   6.034   6.848  0.4100  0.3400  0.5823
 1427TIP3    H125916   4.206   6.102   6.876  0.7719  1.1253 -0.4563
 1427TIP3    H225917   4.254   6.028   6.753  1.5592  0.1619  0.4216
 1428TIP3   OH225918   3.854   3.733   7.708 -0.4253 -0.6142 -0.1326
 1428TIP3    H125919   3.944   3.762   7.725 -0.5878 -0.7871  1.0570
 1428TIP3    H225920   3.849   3.727   7.612 -0.1314  2.4818 -0.4304
 1429TIP3   OH225921   6.659   0.072   7.383 -0.1689 -0.0557 -0.1764
 1429TIP3    H125922   6.728   0.137   7.373  1.5446 -1.9016 -1.0686
 1429TIP3    H225923   6.703  -0.012   7.374 -2.1554 -1.4256  1.5590
 1430TIP3   OH225924   2.917   0.140   8.435  0.0999  0.5589  0.5762
 1430TIP3    H125925   2.886   0.205   8.497 -1.4767  0.4764 -0.0857
 1430TIP3    H225926   2.856   0.066   8.444 -0.0368  0.4574 -0.8832
 1431TIP3   OH225927   1.513   4.410   8.135 -0.0602  0.0702  0.1421
 1431TIP3    H125928   1.461   4.334   8.108 -0.5077  0.1859  0.6424
 1431TIP3    H225929   1.498   4.475   8.067  1.0447 -0.5900 -0.7611
 1432TIP3   OH225930   2.030   4.768   0.042 -0.4376  0.0322 -0.1691
 1432TIP3    H125931   2.093   4.759   0.114  0.4607  0.8058 -0.8375
 1432TIP3    H225932   2.083   4.755  -0.037 -1.2670 -0.0567 -0.7138
 1433TIP3   OH225933   0.858   3.987   7.172 -0.1426 -0.0014  0.6434
 1433TIP3    H125934   0.870   4.082   7.177 -0.0240 -0.0006  0.3557
 1433TIP3    H225935   0.764   3.975   7.160 -0.0890  0.1045  0.0872
 1434TIP3   OH225936   2.375   1.671   6.499  0.1842  0.2114 -0.4815
 1434TIP3    H125937   2.417   1.749   6.535  0.6689  0.5587 -1.7562
 1434TIP3    H225938   2.441   1.602   6.506  0.5264  0.4465 -1.3127
 1435TIP3   OH225939   4.877   0.035   6.895  0.2322 -0.3164 -0.2956
 1435TIP3    H125940   4.831   0.047   6.812 -0.8582 -0.0870  0.3229
 1435TIP3    H225941   4.962   0.077   6.882  0.1594 -0.4779 -1.3606
 1436TIP3   OH225942   1.744   4.053   0.453  0.0650 -0.1826  0.3513
 1436TIP3    H125943   1.677   4.077   0.389  1.9322  0.4102 -1.4735
 1436TIP3    H225944   1.746   3.957   0.451  0.2295 -0.1666 -0.6418
 1437TIP3   OH225945   4.056   4.669   1.622  0.0642 -0.5144 -0.0576
 1437TIP3    H125946   4.052   4.697   1.530  0.9605 -1.4670 -0.4067
 1437TIP3    H225947   3.968   4.636   1.640 -0.4785  0.8331 -0.1814
 1438TIP3   OH225948   1.681   1.599   0.356  0.3844 -0.4729  0.4034
 1438TIP3    H125949   1.613   1.562   0.299  0.9489 -0.8379 -0.0480
 1438TIP3    H225950   1.663   1.693   0.356 -1.3513 -0.7556  1.9409
 1439TIP3   OH225951   4.789   0.277   8.663 -0.0985 -0.2619 -0.0050
 1439TIP3    H125952   4.883   0.276   8.682 -0.5668 -0.2245  2.7349
 1439TIP3    H225953   4.767   0.186   8.645  0.4341 -0.2665 -0.7029
 1440TIP3   OH225954   5.629   3.083   7.295 -0.2878  0.0003 -0.5938
 1440TIP3    H125955   5.691   3.129   7.352  1.1227 -0.9142 -1.3213
 1440TIP3    H225956   5.595   3.151   7.237 -2.4962  1.1546  1.8588
 1441TIP3   OH225957   3.093   6.401   0.176  0.4500  0.1900  0.0082
 1441TIP3    H125958   3.127   6.491   0.176  1.0856 -0.0427 -0.8319
 1441TIP3    H225959   3.140   6.357   0.105  1.9416 -1.5164  1.9490
 1442TIP3   OH225960   4.036   4.907   1.793 -0.0017 -0.8123  0.2362
 1442TIP3    H125961   4.048   4.837   1.730  0.2136  0.4458 -1.1892
 1442TIP3    H225962   4.071   4.985   1.749 -2.7889  0.7691  0.5787
 1443TIP3   OH225963   2.987   0.852   7.876  0.7182 -0.0477  0.3013
 1443TIP3    H125964   2.925   0.784   7.849  1.3874  0.0967 -1.7614
 1443TIP3    H225965   3.065   0.836   7.823  1.2989  1.6608  0.5758
 1444TIP3   OH225966   6.056   1.770   8.279 -0.1934  0.5643  0.2391
 1444TIP3    H125967   5.975   1.756   8.230  0.6687 -0.6317 -0.9316
 1444TIP3    H225968   6.041   1.850   8.329 -2.2850  0.0841  0.4710
 1445TIP3   OH225969   3.895   0.035   8.643  0.3178  0.4353 -0.0850
 1445TIP3    H125970   3.959   0.091   8.688 -0.5686 -1.0728  3.3642
 1445TIP3    H225971   3.810   0.064   8.676 -0.5751  0.2834 -2.1155
 1446TIP3   OH225972   4.922   0.952   8.185 -0.1428  0.0005 -0.3040
 1446TIP3    H125973   4.946   0.989   8.100 -0.9341 -1.7278 -1.3424
 1446TIP3    H225974   4.828   0.937   8.178  0.1098 -2.0521  0.0597
 1447TIP3   OH225975   3.491   0.982   6.502  0.0217 -0.1339 -0.4677
 1447TIP3    H125976   3.480   1.053   6.566 -0.0803 -0.6754  0.1188
 1447TIP3    H225977   3.460   1.020   6.420  2.9232  1.6067 -0.9147
 1448TIP3   OH225978   3.115   1.703   6.523  0.0406  0.2988 -0.0581
 1448TIP3    H125979   3.209   1.715   6.536  0.4297 -1.5133 -0.8640
 1448TIP3    H225980   3.104   1.609   6.509 -1.6529  0.6835 -1.8032
 1449TIP3   OH225981   1.575   0.619   0.057 -0.3517 -0.3408  0.2364
 1449TIP3    H125982   1.503   0.651   0.002  0.9890  1.5691 -0.5267
 1449TIP3    H225983   1.533   0.587   0.137 -2.1624 -0.9704 -0.9122
 1450TIP3   OH225984   6.277   5.408   1.815  0.3787  0.1262 -0.0894
 1450TIP3    H125985   6.342   5.408   1.885  0.8212 -0.8247 -0.4782
 1450TIP3    H225986   6.299   5.331   1.763 -0.9856 -0.1302 -0.3099
 1451TIP3   OH225987   3.044   1.446   0.201 -0.2180 -0.6588 -0.0553
 1451TIP3    H125988   2.982   1.380   0.169 -2.6323  0.2430  2.4099
 1451TIP3    H225989   3.055   1.426   0.294 -0.2528  1.8160  0.5463
 1452TIP3   OH225990   2.123   5.132   1.540  0.5878 -0.0752  0.3854
 1452TIP3    H125991   2.033   5.153   1.565  0.2516 -1.6079  0.5907
 1452TIP3    H225992   2.150   5.204   1.483 -0.1762  1.2389  1.6369
 1453TIP3   OH225993   0.793   1.360   6.804  0.2435  0.3903 -0.1674
 1453TIP3    H125994   0.866   1.334   6.748  0.2421 -1.0486  0.4556
 1453TIP3    H225995   0.717   1.358   6.746  0.5955  1.4191 -0.6986
 1454TIP3   OH225996   1.771   5.963   8.327 -0.3515  0.0616  0.2067
 1454TIP3    H125997   1.807   5.932   8.244 -1.0351 -1.5606  0.4829
 1454TIP3    H225998   1.766   5.885   8.381 -3.2681  0.3742  0.5442
 1455TIP3   OH225999   0.032   1.552   1.311  0.1931 -0.0648 -0.1975
 1455TIP3    H126000   0.001   1.642   1.314 -1.3792 -0.5608 -0.4779
 1455TIP3    H226001   0.075   1.538   1.395  1.6809  1.3353 -0.6755
 1456TIP3   OH226002   1.436   5.893   7.460  0.1378 -0.1321 -0.0475
 1456TIP3    H126003   1.434   5.865   7.552 -1.0469  3.4293  1.1613
 1456TIP3    H226004   1.352   5.862   7.424  0.1474 -0.6434  0.3550
 1457TIP3   OH226005   3.025   3.449   1.762  0.2682 -0.2128  0.0866
 1457TIP3    H126006   2.949   3.482   1.713  0.5725 -0.4194 -0.5277
 1457TIP3    H226007   3.099   3.497   1.726  0.5031 -0.4094  0.3063
 1458TIP3   OH226008   6.105   6.055   8.008  0.1282  0.1109  0.2354
 1458TIP3    H126009   6.162   6.047   7.931 -1.2526 -1.9776 -0.6539
 1458TIP3    H226010   6.035   6.114   7.980 -0.4368 -0.7411 -0.1845
 1459TIP3   OH226011   1.531   1.647   6.787  0.2175 -0.1107  0.0544
 1459TIP3    H126012   1.501   1.731   6.753 -4.1162 -0.2195  2.7622
 1459TIP3    H226013   1.506   1.583   6.721 -0.8811  0.3500  0.0058
 1460TIP3   OH226014   5.459   4.908   7.425 -0.1426 -0.7758 -0.2392
 1460TIP3    H126015   5.449   4.952   7.510  1.1288 -2.6549  0.9510
 1460TIP3    H226016   5.371   4.879   7.403 -0.2884 -1.4692  1.1496
 1461TIP3   OH226017   1.692   2.104   1.334 -0.1454 -0.0377  0.3499
 1461TIP3    H126018   1.688   2.181   1.390  0.4181 -1.8775  3.1307
 1461TIP3    H226019   1.721   2.137   1.249  0.2747  2.7525  1.4745
 1462TIP3   OH226020   1.942   4.524   8.098 -0.8017 -0.3348 -0.7202
 1462TIP3    H126021   1.974   4.527   8.008  0.4556 -0.7387 -0.3065
 1462TIP3    H226022   1.858   4.478   8.092 -1.2464  0.5591 -1.8014
 1463TIP3   OH226023   3.619   4.551   8.384  0.1284 -0.2237 -0.0389
 1463TIP3    H126024   3.605   4.459   8.364 -0.9657 -0.0436 -0.1739
 1463TIP3    H226025   3.531   4.588   8.388  0.5306  0.7034  0.5632
 1464TIP3   OH226026   0.914   3.566   0.301  0.7902  0.4633  0.0905
 1464TIP3    H126027   0.901   3.615   0.382 -0.4402  1.7035 -0.8185
 1464TIP3    H226028   0.995   3.517   0.315  0.4140  0.3464  2.2046
 1465TIP3   OH226029   6.315   2.731   1.065 -0.1953  0.2835  0.4498
 1465TIP3    H126030   6.252   2.792   1.027  0.4156 -0.2339 -1.5430
 1465TIP3    H226031   6.387   2.787   1.094  0.3106  0.5803 -1.2586
 1466TIP3   OH226032   5.820   0.727   8.105  0.3318 -0.0190 -0.1001
 1466TIP3    H126033   5.891   0.717   8.169  0.0262  0.4314  0.3162
 1466TIP3    H226034   5.752   0.667   8.136  0.2995 -0.0195 -0.1719
 1467TIP3   OH226035   5.378   0.705   2.559  0.1280 -0.4187  0.0991
 1467TIP3    H126036   5.326   0.625   2.562  0.3431 -0.7128 -2.3750
 1467TIP3    H226037   5.339   0.761   2.626 -1.5947 -1.6711  0.2084
 1468TIP3   OH226038   3.685   0.650   0.987 -0.6581  0.3884 -0.0929
 1468TIP3    H126039   3.604   0.699   0.973  0.1270  1.2633 -1.8333
 1468TIP3    H226040   3.657   0.558   0.994 -1.7781  0.6610 -0.7934
 1469TIP3   OH226041   6.709   3.770   8.701  0.0795 -0.2970  0.7261
 1469TIP3    H126042   6.615   3.782   8.708  0.0147  0.4288 -0.7882
 1469TIP3    H226043   6.734   3.824   8.625  1.6533 -0.7333  0.8927
 1470TIP3   OH226044   3.611   5.896   7.143 -0.1129 -0.3373 -0.0271
 1470TIP3    H126045   3.617   5.851   7.059  0.5156  1.1234 -0.8225
 1470TIP3    H226046   3.535   5.953   7.135  0.5399  0.5675 -0.0264
 1471TIP3   OH226047   2.223   4.928   2.027 -0.2156 -0.4106  0.2682
 1471TIP3    H126048   2.217   4.906   2.120 -1.0922 -2.4537 -0.2086
 1471TIP3    H226049   2.133   4.921   1.995 -0.2510  2.1869 -0.3936
 1472TIP3   OH226050   2.038   1.191   7.166 -0.3029 -0.4568  0.7629
 1472TIP3    H126051   2.016   1.282   7.189 -0.1153  0.0144 -0.7835
 1472TIP3    H226052   2.128   1.180   7.197  0.5758  0.7374 -1.1524
 1473TIP3   OH226053   0.484   0.825   6.906 -0.2569 -0.1662 -0.1936
 1473TIP3    H126054   0.497   0.910   6.948  0.9461 -0.7914  0.7653
 1473TIP3    H226055   0.405   0.790   6.947 -0.2733  0.1237  0.0285
 1474TIP3   OH226056   2.582   4.772   7.970  0.5062 -0.2081 -0.4421
 1474TIP3    H126057   2.661   4.792   8.020 -0.3244  2.0460  0.0750
 1474TIP3    H226058   2.510   4.797   8.028 -0.5546 -0.5177 -1.5897
 1475TIP3   OH226059   1.404   3.726   2.207 -0.2048 -0.2272  0.4357
 1475TIP3    H126060   1.343   3.654   2.229 -2.0836  1.8706  2.7522
 1475TIP3    H226061   1.348   3.794   2.171  0.9974  1.2305  1.2282
 1476TIP3   OH226062   6.778   6.680   7.339  0.6784  0.5039  0.1620
 1476TIP3    H126063   6.842   6.614   7.366 -0.1324 -0.2606  0.2705
 1476TIP3    H226064   6.797   6.695   7.246  0.5497 -0.2720  0.0035
 1477TIP3   OH226065   3.382   5.772   0.922  0.4940  0.4162 -0.3884
 1477TIP3    H126066   3.351   5.863   0.915  0.6318  0.4495 -0.5578
 1477TIP3    H226067   3.338   5.739   1.001 -0.7967  0.1291 -1.1929
 1478TIP3   OH226068   5.972   5.971   1.019  0.5818  0.6094  0.0993
 1478TIP3    H126069   6.064   5.981   1.044  0.6745  1.2849 -0.4916
 1478TIP3    H226070   5.924   5.977   1.102  0.9117  2.4630  0.1820
 1479TIP3   OH226071   0.879   1.420   7.129  0.5292 -0.3079  0.0822
 1479TIP3    H126072   0.880   1.447   7.221  0.6753 -1.6443  0.4867
 1479TIP3    H226073   0.886   1.325   7.132 -0.6637 -0.4648 -1.2685
 1480TIP3   OH226074   0.922   1.697   2.810  0.6739  0.1020 -0.2152
 1480TIP3    H126075   0.827   1.699   2.813  0.6066 -0.0957 -1.7781
 1480TIP3    H226076   0.947   1.776   2.761  1.3097  0.0349 -0.0161
 1481TIP3   OH226077   2.769   4.930   0.738 -0.9561 -0.0701 -0.1492
 1481TIP3    H126078   2.693   4.968   0.782 -0.6421  0.3211  0.0679
 1481TIP3    H226079   2.843   4.959   0.790 -0.7628 -1.8567  0.6544
 1482TIP3   OH226080   0.066   6.081   0.823  0.0173 -0.9868 -0.3727
 1482TIP3    H126081   0.054   5.986   0.815 -1.9151 -0.8167  0.1234
 1482TIP3    H226082   0.058   6.114   0.733 -0.4772 -1.1792 -0.4005
 1483TIP3   OH226083   5.583   3.517   0.298 -0.3256  0.1317 -0.2386
 1483TIP3    H126084   5.621   3.505   0.385 -1.2885  0.1545  0.1970
 1483TIP3    H226085   5.627   3.595   0.264 -1.1630  1.1484  0.9318
 1484TIP3   OH226086   2.771   5.179   7.114  0.2492  0.3856  0.3202
 1484TIP3    H126087   2.689   5.157   7.069  0.8511  1.4123 -1.3658
 1484TIP3    H226088   2.747   5.248   7.176 -0.4519 -0.5221  1.0980
 1485TIP3   OH226089   0.766   3.345   0.393  0.1456 -0.1521  0.1980
 1485TIP3    H126090   0.735   3.359   0.482 -0.0082 -2.5251  0.5859
 1485TIP3    H226091   0.805   3.429   0.368 -1.2337  1.0804  1.8744
 1486TIP3   OH226092   4.592   3.242   7.797  0.5471 -0.7649  0.6000
 1486TIP3    H126093   4.683   3.227   7.823  1.3218  3.0911  0.5978
 1486TIP3    H226094   4.591   3.330   7.760 -2.9063 -1.3201 -1.0579
 1487TIP3   OH226095   0.630   3.003   7.570  0.1441  0.2258 -0.1143
 1487TIP3    H126096   0.702   2.967   7.621  0.7035 -0.5814 -1.4472
 1487TIP3    H226097   0.649   2.979   7.479 -1.4820  0.5332 -0.5720
 1488TIP3   OH226098   0.973   1.130   8.789  0.2408 -0.3311 -0.0065
 1488TIP3    H126099   0.935   1.102   8.872  0.2489 -0.9193 -0.1912
 1488TIP3    H226100   1.050   1.181   8.814  0.0281 -0.1809  0.3487
 1489TIP3   OH226101   5.773   3.709   2.452 -0.0588 -0.0473  0.0416
 1489TIP3    H126102   5.856   3.662   2.448  0.9639  1.4044  2.2383
 1489TIP3    H226103   5.708   3.641   2.472  0.5754 -1.1475 -1.3742
 1490TIP3   OH226104   4.839   6.376   8.018 -0.0016  0.1230  0.2270
 1490TIP3    H126105   4.788   6.330   7.951  1.2599 -0.3968 -0.4164
 1490TIP3    H226106   4.929   6.373   7.985  0.2732  2.1861  0.6649
 1491TIP3   OH226107   0.450   3.324   8.789  0.2404  0.9864  0.4708
 1491TIP3    H126108   0.459   3.229   8.781 -0.0672  1.0269 -0.4663
 1491TIP3    H226109   0.451   3.340   8.883 -0.1998  0.0028  0.6560
 1492TIP3   OH226110   0.166   1.268   7.667  0.1284 -0.2730  0.3217
 1492TIP3    H126111   0.259   1.279   7.647  0.4888 -1.7898  0.9826
 1492TIP3    H226112   0.130   1.225   7.589 -0.0091  0.2393  0.0997
 1493TIP3   OH226113   2.673   4.176   8.535 -0.1068 -0.1977  0.4138
 1493TIP3    H126114   2.637   4.212   8.616  0.0345 -1.9664  1.3192
 1493TIP3    H226115   2.768   4.179   8.548 -0.0724 -0.1274  0.1451
 1494TIP3   OH226116   3.488   5.352   2.328  0.2606 -0.4375 -0.0525
 1494TIP3    H126117   3.410   5.308   2.362  0.0003  0.2220  0.2209
 1494TIP3    H226118   3.525   5.398   2.403 -0.7246  1.6288 -0.7697
 1495TIP3   OH226119   5.789   0.953   1.539  0.0208 -0.5049  0.4106
 1495TIP3    H126120   5.714   1.012   1.549  0.2183 -0.1802 -0.0012
 1495TIP3    H226121   5.817   0.935   1.629  2.3173  3.0637  0.6414
 1496TIP3   OH226122   3.650   1.381   7.310 -0.1495 -0.5293 -0.0316
 1496TIP3    H126123   3.711   1.454   7.307 -2.5695  1.6259 -0.3209
 1496TIP3    H226124   3.647   1.348   7.220  0.4182 -0.5316 -0.0532
 1497TIP3   OH226125   2.214   0.139   0.494 -0.4603  0.6864 -0.0488
 1497TIP3    H126126   2.263   0.059   0.474 -0.1440  0.7534  0.4396
 1497TIP3    H226127   2.247   0.203   0.431 -0.5193  0.5069 -0.2648
 1498TIP3   OH226128   6.664   3.098   1.242  0.2984  0.1776 -0.0542
 1498TIP3    H126129   6.656   3.192   1.225  1.1026  0.2370 -0.1888
 1498TIP3    H226130   6.748   3.074   1.202  0.2665 -0.5272  0.2809
 1499TIP3   OH226131   5.565   3.987   7.024  0.4475  0.2865 -0.2595
 1499TIP3    H126132   5.540   4.000   6.933 -2.9628 -0.3924  0.4125
 1499TIP3    H226133   5.570   3.892   7.035 -1.5380  0.2230  0.6751
 1500TIP3   OH226134   0.574   0.992   8.521 -0.1827 -0.4402 -0.3119
 1500TIP3    H126135   0.578   0.918   8.460  0.5665 -1.7989  1.2897
 1500TIP3    H226136   0.628   1.060   8.481  0.4185 -1.3618 -1.0983
 1501TIP3   OH226137   5.017   1.087   8.396  0.1120  0.5167 -0.0128
 1501TIP3    H126138   4.969   1.167   8.379  0.4468  0.4813 -1.1776
 1501TIP3    H226139   4.992   1.027   8.325  1.0788  0.1516 -0.0702
 1502TIP3   OH226140   0.018   0.623   1.032  0.2315  0.1137  0.1575
 1502TIP3    H126141  -0.026   0.704   1.054 -1.7457 -0.8337 -0.1044
 1502TIP3    H226142  -0.017   0.599   0.946  3.4305  0.7659 -1.4638
 1503TIP3   OH226143   3.655   1.971   7.443 -0.5250 -0.2540  0.1565
 1503TIP3    H126144   3.621   1.884   7.465 -1.3490 -0.4186 -1.6149
 1503TIP3    H226145   3.745   1.955   7.413 -0.5054 -0.4253  0.3033
 1504TIP3   OH226146   0.069   0.059   8.084  0.3395 -0.5004  0.6182
 1504TIP3    H126147   0.147   0.003   8.084  1.3613  0.8202  2.3540
 1504TIP3    H226148   0.034   0.051   8.172 -1.8778 -1.4948 -0.2841
 1505TIP3   OH226149   4.106   6.161   1.453  0.4609 -0.1850 -0.1086
 1505TIP3    H126150   4.031   6.101   1.458 -1.0310  1.5200 -0.7755
 1505TIP3    H226151   4.171   6.113   1.401 -0.4531 -1.4360 -0.1653
 1506TIP3   OH226152   0.806   1.689   8.097  0.1397  0.2295 -0.6794
 1506TIP3    H126153   0.727   1.680   8.151  0.6495  0.7199  0.1709
 1506TIP3    H226154   0.875   1.711   8.160  0.7329  0.8985 -1.5523
 1507TIP3   OH226155   2.657   3.397   8.129 -0.0729 -0.3677  0.1771
 1507TIP3    H126156   2.564   3.416   8.142  0.2437  0.3751  1.5501
 1507TIP3    H226157   2.685   3.358   8.212  0.8865 -0.3995 -0.1513
 1508TIP3   OH226158   4.293   1.830   8.211 -0.2330 -0.3901 -0.3361
 1508TIP3    H126159   4.272   1.923   8.216 -0.2514 -0.3316 -1.3257
 1508TIP3    H226160   4.277   1.797   8.299 -0.3927  0.5063 -0.0198
 1509TIP3   OH226161   3.374   5.058   8.075 -0.2455  0.7421  0.8113
 1509TIP3    H126162   3.292   5.011   8.093 -0.1851  0.9726  1.7617
 1509TIP3    H226163   3.345   5.141   8.036 -0.4461  0.6354  0.7318
 1510TIP3   OH226164   3.561   1.599   8.698 -0.2480 -0.5741 -0.1192
 1510TIP3    H126165   3.646   1.562   8.724 -0.1019  0.5656  1.1658
 1510TIP3    H226166   3.513   1.608   8.780 -0.3541  1.8075 -0.3707
 1511TIP3   OH226167   6.830   4.394   0.784  0.0842 -0.2027  0.0860
 1511TIP3    H126168   6.800   4.411   0.873  0.6863 -0.7385  0.4020
 1511TIP3    H226169   6.882   4.314   0.791  0.3603 -0.1031 -0.7008
 1512TIP3   OH226170   4.700   5.518   0.255  0.7001  0.2875 -0.1815
 1512TIP3    H126171   4.669   5.608   0.266  2.0591  0.5813  1.7066
 1512TIP3    H226172   4.620   5.465   0.256  0.0286  1.1713  2.6697
 1513TIP3   OH226173   4.903   4.767   0.482  0.4273 -0.5665 -0.3477
 1513TIP3    H126174   4.885   4.861   0.488 -0.3150 -0.6212 -1.5134
 1513TIP3    H226175   4.937   4.744   0.569  1.6095  0.9833 -0.3542
 1514TIP3   OH226176   5.013   0.519   0.670 -0.1470  0.0275 -0.1545
 1514TIP3    H126177   5.076   0.590   0.660  0.8251 -0.7136  0.5600
 1514TIP3    H226178   5.066   0.440   0.675 -1.1642 -0.6660 -0.0264
 1515TIP3   OH226179   3.257   3.665   7.419  0.6978  0.0732  0.2723
 1515TIP3    H126180   3.174   3.625   7.396  1.5036 -0.7479 -1.4121
 1515TIP3    H226181   3.274   3.638   7.509 -1.5459  1.5348  1.2267
 1516TIP3   OH226182   6.225   6.267   2.318  0.4106 -0.5740  0.3605
 1516TIP3    H126183   6.201   6.215   2.241 -0.5039 -0.9979  0.9290
 1516TIP3    H226184   6.143   6.282   2.364  1.0994 -1.3935  1.9234
 1517TIP3   OH226185   5.988   3.606   8.531  0.2479 -0.3342  0.0614
 1517TIP3    H126186   6.002   3.701   8.536 -1.5647  0.1007 -1.9653
 1517TIP3    H226187   6.076   3.569   8.540  1.0913  1.5701  0.1208
 1518TIP3   OH226188   0.640   2.369   0.335 -0.5429 -0.4089 -0.4785
 1518TIP3    H126189   0.579   2.356   0.408  0.2355  2.9920  1.0204
 1518TIP3    H226190   0.591   2.422   0.272  0.1214  0.4179 -0.3195
 1519TIP3   OH226191   6.189   6.795   0.578 -0.0810 -0.5708  0.0604
 1519TIP3    H126192   6.173   6.889   0.565 -1.7216 -0.6590  1.1590
 1519TIP3    H226193   6.273   6.792   0.624  0.6959  0.2495 -1.2281
 1520TIP3   OH226194   2.833   1.270   6.468 -0.9381 -0.0665 -0.1035
 1520TIP3    H126195   2.807   1.232   6.384  0.3613  0.5640 -0.8221
 1520TIP3    H226196   2.876   1.198   6.515  1.9210  0.4690 -1.6353
 1521TIP3   OH226197   4.693   0.513   0.007 -0.0395 -0.0317 -0.1936
 1521TIP3    H126198   4.750   0.458  -0.047 -0.4038  0.5381 -1.1627
 1521TIP3    H226199   4.730   0.504   0.095  0.6860 -0.8014 -0.5549
 1522TIP3   OH226200   0.211   5.147   6.893 -0.2158  0.0963 -0.0318
 1522TIP3    H126201   0.268   5.164   6.818  1.2573 -1.8734  0.5719
 1522TIP3    H226202   0.198   5.232   6.933  3.9060  0.4855  0.8938
 1523TIP3   OH226203   4.300   0.032   1.195 -0.8712 -0.4149 -0.0671
 1523TIP3    H126204   4.227   0.082   1.230 -0.2642  0.7355 -0.4052
 1523TIP3    H226205   4.307   0.061   1.104  2.1545  2.1697  0.8248
 1524TIP3   OH226206   0.531   3.755   7.244 -0.0932 -0.5985 -0.1613
 1524TIP3    H126207   0.623   3.774   7.259 -0.5761  1.1828  0.9172
 1524TIP3    H226208   0.503   3.818   7.178 -0.7451 -0.4511  0.2392
 1525TIP3   OH226209   2.936   1.507   1.688 -0.0980 -0.2289  0.1807
 1525TIP3    H126210   2.955   1.486   1.779  0.8662  1.8260  0.5268
 1525TIP3    H226211   3.019   1.539   1.653 -0.8338  0.5240 -0.9461
 1526TIP3   OH226212   4.874   4.751   7.749  0.1888 -0.3028 -0.1366
 1526TIP3    H126213   4.890   4.820   7.685 -2.3642 -0.5399 -1.1334
 1526TIP3    H226214   4.780   4.733   7.742  0.4394 -2.5818  1.4223
 1527TIP3   OH226215   2.035   0.227   0.707  0.2670 -0.2005  0.1958
 1527TIP3    H126216   1.963   0.248   0.648  0.5741  0.3589  0.0056
 1527TIP3    H226217   2.102   0.188   0.651  0.3990 -0.0458  0.2450
 1528TIP3   OH226218   6.623   5.308   7.929  0.2190 -0.0217  0.3107
 1528TIP3    H126219   6.700   5.363   7.947  0.7972 -0.5825 -0.3770
 1528TIP3    H226220   6.578   5.352   7.856  1.2733 -0.9808 -0.9772
 1529TIP3   OH226221   3.984   6.508   7.831  0.0827 -0.5109 -0.0471
 1529TIP3    H126222   3.931   6.428   7.828 -0.5424 -0.2126  1.7101
 1529TIP3    H226223   4.071   6.478   7.857  0.8650 -1.0003 -2.9284
 1530TIP3   OH226224   5.488   4.135   6.432 -0.6877 -0.1232 -0.2543
 1530TIP3    H126225   5.513   4.228   6.428  0.6968 -0.4331  0.6880
 1530TIP3    H226226   5.562   4.088   6.395 -0.7888 -0.9285  0.5253
 1531TIP3   OH226227   5.517   0.825   2.339 -0.5322  0.5919  0.3781
 1531TIP3    H126228   5.595   0.856   2.386  1.4528 -2.2049 -0.7592
 1531TIP3    H226229   5.465   0.780   2.406  0.6138 -0.4742  0.6049
 1532TIP3   OH226230   3.852   4.163   7.190  0.3363 -0.2968 -0.2097
 1532TIP3    H126231   3.899   4.109   7.126  0.8874 -0.5212  0.3795
 1532TIP3    H226232   3.910   4.167   7.266  0.1196  0.7884 -0.0883
 1533TIP3   OH226233   0.733   2.071   1.703  0.3046  0.1795 -0.2571
 1533TIP3    H126234   0.727   2.166   1.714  1.6597  0.4113 -1.1775
 1533TIP3    H226235   0.823   2.050   1.729  0.5388 -0.5923 -1.5790
 1534TIP3   OH226236   1.237   3.997   7.080  0.1217  0.8432  0.9420
 1534TIP3    H126237   1.204   3.976   7.168 -2.6645  1.8436  0.2112
 1534TIP3    H226238   1.298   3.925   7.060 -1.6115 -1.1707  2.4287
 1535TIP3   OH226239   5.462   6.096   8.652 -0.3616 -0.0126  0.6866
 1535TIP3    H126240   5.390   6.118   8.593 -0.2504 -0.4619  0.3729
 1535TIP3    H226241   5.477   6.176   8.703  0.1554  0.6930 -0.5292
 1536TIP3   OH226242   1.187   4.399   6.317  0.5410 -0.4753  0.0707
 1536TIP3    H126243   1.097   4.379   6.343  1.5090 -3.0287  1.8533
 1536TIP3    H226244   1.207   4.482   6.360 -0.7715 -0.1392  0.0749
 1537TIP3   OH226245   4.386   0.510   1.421  0.1122 -0.4155  0.4842
 1537TIP3    H126246   4.428   0.500   1.335  0.6701  2.1528  0.3864
 1537TIP3    H226247   4.302   0.553   1.401  0.0102 -0.2924  1.1761
 1538TIP3   OH226248   1.008   3.070   7.447  0.1247  0.2702 -0.5945
 1538TIP3    H126249   1.028   3.163   7.460 -1.6384  0.4278  1.7435
 1538TIP3    H226250   0.929   3.070   7.393  0.9324  0.0343 -1.8105
 1539TIP3   OH226251   3.750   3.262   8.025  0.2191 -0.2837 -0.2427
 1539TIP3    H126252   3.749   3.290   7.934 -0.4605  0.8508  0.0989
 1539TIP3    H226253   3.830   3.301   8.061 -1.6464  3.0583  0.7259
 1540TIP3   OH226254   6.788   4.009   8.219  1.0448 -0.3375  0.0966
 1540TIP3    H126255   6.755   3.969   8.139  0.1811  0.8742 -0.1710
 1540TIP3    H226256   6.875   4.042   8.196  0.0445  1.7582 -0.9757
 1541TIP3   OH226257   3.187   3.242   8.575  0.5180  0.1095  0.5574
 1541TIP3    H126258   3.222   3.293   8.648 -0.1556 -0.4987  1.3265
 1541TIP3    H226259   3.243   3.265   8.501 -0.8034  3.3776  0.3842
 1542TIP3   OH226260   1.374   6.613   8.495  0.2441 -0.1407 -0.3194
 1542TIP3    H126261   1.328   6.678   8.441 -0.6048 -0.4915 -0.0385
 1542TIP3    H226262   1.357   6.641   8.585 -0.7027 -1.1296 -0.1800
 1543TIP3   OH226263   1.523   0.238   7.025  0.3403  0.0625  0.5457
 1543TIP3    H126264   1.577   0.262   6.949 -0.6187  0.3489 -0.0569
 1543TIP3    H226265   1.480   0.319   7.050  0.8399  0.0322  1.5825
 1544TIP3   OH226266   5.360   5.298   0.188 -0.1049  0.4348 -0.0517
 1544TIP3    H126267   5.293   5.262   0.131  1.0111 -0.6409 -0.7343
 1544TIP3    H226268   5.443   5.275   0.146  0.7156  3.0515 -0.0438
 1545TIP3   OH226269   5.646   3.229   7.037 -0.1432  0.0051 -0.3553
 1545TIP3    H126270   5.613   3.311   7.074  1.6815  0.1429  1.1841
 1545TIP3    H226271   5.737   3.225   7.068  0.0584 -2.1988 -1.0882
 1546TIP3   OH226272   2.112   4.033   1.756 -0.0302  0.1000 -0.8760
 1546TIP3    H126273   2.033   3.985   1.779  0.3105 -0.9977 -1.8923
 1546TIP3    H226274   2.135   4.001   1.669  1.6150  0.2655 -0.5401
 1547TIP3   OH226275   0.478   1.893   6.428 -0.0857  0.0032 -0.2830
 1547TIP3    H126276   0.410   1.920   6.366  0.2730 -0.3542 -0.8399
 1547TIP3    H226277   0.542   1.964   6.425 -0.3425  0.2540  0.1059
 1548TIP3   OH226278   1.002   1.208   8.532  0.3010  0.1701  0.0957
 1548TIP3    H126279   1.079   1.158   8.504  0.4762  0.0776  0.7324
 1548TIP3    H226280   0.997   1.194   8.626  1.5394  2.9745  0.6783
 1549TIP3   OH226281   5.272   3.040   7.600 -0.3140 -0.1750 -0.2095
 1549TIP3    H126282   5.320   3.043   7.683  1.3712 -0.9492 -1.1004
 1549TIP3    H226283   5.321   3.099   7.542 -1.5722  0.4963 -0.6290
 1550TIP3   OH226284   3.207   6.624   8.797 -0.6446  0.2026  0.4776
 1550TIP3    H126285   3.125   6.643   8.752 -1.0238 -0.6308  0.8019
 1550TIP3    H226286   3.267   6.599   8.726 -0.9109  0.0044  0.3211
 1551TIP3   OH226287   3.271   1.197   0.603 -0.0972 -0.1529  0.0743
 1551TIP3    H126288   3.314   1.280   0.578 -1.2630  0.2298 -0.7508
 1551TIP3    H226289   3.287   1.139   0.528 -0.5351 -0.1880  0.0057
 1552TIP3   OH226290   3.096   1.864   0.519 -0.4001 -0.5157 -0.1743
 1552TIP3    H126291   3.114   1.918   0.596  0.4710 -0.0855 -0.6692
 1552TIP3    H226292   3.014   1.818   0.541 -0.3558 -0.1360  0.8573
 1553TIP3   OH226293   3.166   1.477   8.666  0.0503  0.0930  0.6551
 1553TIP3    H126294   3.172   1.439   8.754 -0.0166 -0.3290  0.4777
 1553TIP3    H226295   3.182   1.404   8.607  0.7896  0.5148  0.3247
 1554TIP3   OH226296   3.032   2.964   7.798  0.2140 -0.6209 -0.2350
 1554TIP3    H126297   2.959   3.027   7.799  1.5173  0.9576  0.0206
 1554TIP3    H226298   3.036   2.932   7.888  0.4226  0.0081 -0.0165
 1555TIP3   OH226299   2.175   0.071   1.704 -0.0125  0.7569  0.2451
 1555TIP3    H126300   2.208   0.034   1.622  0.7223  0.3236  0.7194
 1555TIP3    H226301   2.250   0.119   1.741  0.6599 -1.5312  2.1051
 1556TIP3   OH226302   2.862   0.670   1.934 -0.0450 -0.2505 -0.5998
 1556TIP3    H126303   2.897   0.591   1.893 -1.7157 -1.8429  0.8579
 1556TIP3    H226304   2.938   0.724   1.952  1.3294 -2.1716 -0.3452
 1557TIP3   OH226305   4.736   5.053   8.066  0.1455  0.2975 -0.2445
 1557TIP3    H126306   4.717   5.088   8.153 -5.9605 -0.5917 -0.7922
 1557TIP3    H226307   4.746   4.959   8.079  2.0207  0.4248 -0.3801
 1558TIP3   OH226308   4.857   6.246   1.024 -0.2690 -0.2845 -0.2991
 1558TIP3    H126309   4.848   6.341   1.021  0.2572 -0.1288  1.6556
 1558TIP3    H226310   4.830   6.216   0.937 -1.3276  1.5631 -0.6507
 1559TIP3   OH226311   0.670   1.407   7.518 -0.0689  0.7302 -0.6995
 1559TIP3    H126312   0.764   1.426   7.508 -0.1873  0.8555 -1.6851
 1559TIP3    H226313   0.651   1.343   7.449 -0.4230 -0.3667  0.3907
 1560TIP3   OH226314   5.863   5.703   0.517 -0.3306  0.0390  0.3284
 1560TIP3    H126315   5.919   5.671   0.447 -0.1633 -0.2170  0.5772
 1560TIP3    H226316   5.822   5.781   0.481  0.0458  0.1250  0.0786
 1561TIP3   OH226317   6.122   1.830   0.792  0.4795  0.7757 -0.2460
 1561TIP3    H126318   6.160   1.877   0.866  0.9706  2.3068 -1.4321
 1561TIP3    H226319   6.188   1.838   0.722  0.5385 -1.5945 -0.5537
 1562TIP3   OH226320   1.223   6.303   7.141 -0.0029 -0.7604 -0.7267
 1562TIP3    H126321   1.250   6.266   7.057 -0.4005 -0.6124 -0.9234
 1562TIP3    H226322   1.131   6.276   7.151 -0.2643  0.0843 -0.8243
 1563TIP3   OH226323   0.854   0.502   1.880 -0.7057  0.4131 -0.4979
 1563TIP3    H126324   0.865   0.578   1.823 -0.9745  0.5544 -0.3676
 1563TIP3    H226325   0.797   0.443   1.831 -1.5663  0.8693 -0.0722
 1564TIP3   OH226326   1.962   5.151   6.889 -0.3351  0.2834 -0.2462
 1564TIP3    H126327   1.871   5.135   6.914  0.7973 -3.0060  2.3894
 1564TIP3    H226328   1.968   5.122   6.798 -2.2276  2.4115 -1.1519
 1565TIP3   OH226329   4.574   0.924   8.638 -0.6676  0.1709  0.3299
 1565TIP3    H126330   4.526   0.850   8.602 -2.2462  0.3972  1.8189
 1565TIP3    H226331   4.652   0.886   8.677 -0.2530 -0.3738 -0.9627
 1566TIP3   OH226332   5.511   3.486   0.615  0.4117 -0.6195  0.1924
 1566TIP3    H126333   5.537   3.526   0.698  0.4078 -0.6511  0.2088
 1566TIP3    H226334   5.593   3.455   0.577  0.4734 -0.1712 -0.0445
 1567TIP3   OH226335   3.643   1.137   1.539 -0.0122 -0.1139  0.5108
 1567TIP3    H126336   3.566   1.080   1.540  1.1009 -1.7959 -1.1566
 1567TIP3    H226337   3.717   1.077   1.529  1.2790  1.5849 -0.7585
 1568TIP3   OH226338   0.055   2.465   0.140  0.1686  0.2828 -0.0090
 1568TIP3    H126339  -0.038   2.468   0.117  0.4125 -0.6701 -1.2453
 1568TIP3    H226340   0.059   2.403   0.213 -0.2604  0.9625  0.5996
 1569TIP3   OH226341   2.077   5.752   1.481  0.7452 -0.4475 -0.2573
 1569TIP3    H126342   2.116   5.683   1.535 -0.3782 -1.2574 -0.4312
 1569TIP3    H226343   2.031   5.704   1.412  0.9824  0.5312 -1.1129
 1570TIP3   OH226344   4.609   0.601   8.071  0.0505 -0.1904 -0.0928
 1570TIP3    H126345   4.563   0.668   8.121  0.1678  0.5096 -0.9097
 1570TIP3    H226346   4.678   0.648   8.025  1.0791 -1.1065  0.4776
 1571TIP3   OH226347   1.941   6.219   7.346  0.5121 -0.0319  0.2831
 1571TIP3    H126348   2.016   6.273   7.372  1.7281 -1.0334 -0.9957
 1571TIP3    H226349   1.902   6.191   7.429  0.6405  1.6887  0.9731
 1572TIP3   OH226350   4.131   6.736   7.088 -0.0973 -0.4900  0.1960
 1572TIP3    H126351   4.078   6.682   7.146 -2.2750  0.9081 -0.3718
 1572TIP3    H226352   4.131   6.822   7.128  0.4859 -0.0970 -0.6104
 1573TIP3   OH226353   0.113   2.016   2.220  0.0980  0.6327 -0.4915
 1573TIP3    H126354   0.131   1.959   2.295  0.6606 -1.1742 -1.9384
 1573TIP3    H226355   0.044   2.075   2.251 -1.3011 -1.5310  0.7517
 1574TIP3   OH226356   5.550   1.320   7.260  0.5985 -0.3171  0.2140
 1574TIP3    H126357   5.635   1.331   7.216  0.7542 -1.3205  0.2455
 1574TIP3    H226358   5.558   1.238   7.308  0.3417  0.6270  1.9586
 1575TIP3   OH226359   0.131   6.582   1.384 -0.2699  0.4034 -0.4716
 1575TIP3    H126360   0.092   6.609   1.301 -0.4324 -1.6632 -1.1286
 1575TIP3    H226361   0.180   6.503   1.363 -0.5905 -0.3745  1.4644
 1576TIP3   OH226362   5.636   5.364   0.736 -0.3862 -0.4910  0.0094
 1576TIP3    H126363   5.677   5.323   0.812 -2.1621 -0.5095  1.0282
 1576TIP3    H226364   5.553   5.399   0.770 -0.0847  1.7464 -1.3818
 1577TIP3   OH226365   3.376   2.203   7.172 -0.4540  0.4045  0.1396
 1577TIP3    H126366   3.393   2.119   7.128 -2.1356  0.0041  0.1748
 1577TIP3    H226367   3.436   2.203   7.247 -0.6136 -0.9086  0.2990
 1578TIP3   OH226368   6.559   0.222   7.593 -0.5908  0.2760  0.0419
 1578TIP3    H126369   6.569   0.165   7.517 -0.3711 -0.9170  0.9524
 1578TIP3    H226370   6.515   0.300   7.558 -0.9785 -0.4728 -1.2002
 1579TIP3   OH226371   6.766   2.683   7.871 -0.0124  0.2097  0.0810
 1579TIP3    H126372   6.692   2.633   7.905  0.5026 -0.4167  0.3015
 1579TIP3    H226373   6.736   2.715   7.786 -0.0500 -1.2070 -0.4700
 1580TIP3   OH226374   2.172   6.623   1.983  0.0589 -0.5065  0.0338
 1580TIP3    H126375   2.134   6.676   1.913  1.5294  0.7470  0.1210
 1580TIP3    H226376   2.102   6.613   2.046 -0.1558  1.8190  0.2524
 1581TIP3   OH226377   3.390   5.169   1.898 -0.6040 -0.2093  0.2977
 1581TIP3    H126378   3.350   5.083   1.915 -1.9588  0.0089 -1.5021
 1581TIP3    H226379   3.336   5.230   1.949 -2.1840 -0.0176 -1.4768
 1582TIP3   OH226380   2.536   0.895   7.237 -0.1835  0.1149  0.2272
 1582TIP3    H126381   2.455   0.857   7.203 -0.1523 -1.2419  1.5486
 1582TIP3    H226382   2.543   0.860   7.326  0.1156  2.8968  1.3950
 1583TIP3   OH226383   6.797   2.172   7.273 -0.4968  0.3978  0.2246
 1583TIP3    H126384   6.790   2.080   7.296  0.8379  0.0253 -0.7605
 1583TIP3    H226385   6.805   2.173   7.178  3.6685  1.1388  0.3683
 1584TIP3   OH226386   3.666   2.191   7.698  0.2332  0.2565 -0.4985
 1584TIP3    H126387   3.628   2.106   7.721  2.6793 -0.9496 -0.5625
 1584TIP3    H226388   3.714   2.219   7.776 -0.0790  1.3109 -0.6688
 1585TIP3   OH226389   5.752   3.000   7.647  0.2761 -0.6491 -0.0562
 1585TIP3    H126390   5.798   2.995   7.563 -0.4398 -2.3160 -0.3988
 1585TIP3    H226391   5.716   2.912   7.659 -0.2942 -0.2105  1.6293
 1586TIP3   OH226392   6.111   4.443   0.860  0.1373 -0.3345 -0.3669
 1586TIP3    H126393   6.119   4.367   0.802  1.0569 -0.1999 -0.4171
 1586TIP3    H226394   6.020   4.440   0.890 -0.1005 -0.9101 -1.1191
 1587TIP3   OH226395   2.934   4.118   8.527  0.5523 -0.4143 -0.4386
 1587TIP3    H126396   2.932   4.056   8.600 -0.5254 -1.8394 -1.6339
 1587TIP3    H226397   3.014   4.095   8.479  0.7732 -0.0713 -0.2490
 1588TIP3   OH226398   2.803   2.743   7.997  0.2494  0.3173  0.4071
 1588TIP3    H126399   2.757   2.712   8.075  1.3384 -0.6984  0.6833
 1588TIP3    H226400   2.782   2.678   7.929  2.5717 -1.1702  0.9962
 1589TIP3   OH226401   1.082   0.059   6.460 -0.0847 -0.4719 -0.2188
 1589TIP3    H126402   1.129   0.115   6.397  2.2091 -1.8526  0.1466
 1589TIP3    H226403   1.031   0.121   6.513  2.2092  1.3197  0.0545
 1590TIP3   OH226404   2.898   3.418   0.225  0.3293  0.1976  0.5855
 1590TIP3    H126405   2.990   3.442   0.214  0.3614  0.3919  1.2654
 1590TIP3    H226406   2.865   3.411   0.135  0.9578  0.3096  0.3385
 1591TIP3   OH226407   2.603   0.614   8.794 -0.2806 -0.3516  0.1118
 1591TIP3    H126408   2.662   0.685   8.766 -0.4171 -1.0823 -2.2675
 1591TIP3    H226409   2.522   0.658   8.818  0.5870  0.5115  1.6146
 1592TIP3   OH226410   2.574   3.502   8.728 -0.5469 -0.1264 -0.3980
 1592TIP3    H126411   2.630   3.434   8.763 -2.3794 -0.9714  1.0747
 1592TIP3    H226412   2.534   3.463   8.650 -2.1257 -1.0726  0.8301
 1593TIP3   OH226413   6.378   2.388   0.895  0.0117 -0.0229 -0.2553
 1593TIP3    H126414   6.373   2.398   0.800  1.9358 -1.5519 -0.5644
 1593TIP3    H226415   6.417   2.302   0.909 -2.0496 -0.7004  1.9810
 1594TIP3   OH226416   6.714   5.085   1.590  0.1259  0.0599 -0.2052
 1594TIP3    H126417   6.780   5.152   1.577 -0.2248  0.2435 -1.1175
 1594TIP3    H226418   6.764   5.006   1.612  0.6152  0.3000 -0.4431
 1595TIP3   OH226419   6.262   4.607   6.245 -0.1133  0.4217  0.3410
 1595TIP3    H126420   6.306   4.624   6.328  0.8747  0.9671 -0.2757
 1595TIP3    H226421   6.189   4.670   6.243 -0.2497  0.2843  0.8632
 1596TIP3   OH226422   4.783   1.414   6.458  0.0729 -0.1148  0.7980
 1596TIP3    H126423   4.806   1.464   6.537  1.9313 -0.3035  0.3981
 1596TIP3    H226424   4.806   1.472   6.385 -0.1585 -0.5632  0.3631
 1597TIP3   OH226425   0.711   2.622   7.288 -0.2722  0.2700  0.5651
 1597TIP3    H126426   0.663   2.704   7.296 -0.4782  0.1501  0.5622
 1597TIP3    H226427   0.706   2.583   7.375 -0.4938  0.0838  0.4696
 1598TIP3   OH226428   4.624   2.516   6.946 -0.2395 -0.3423  0.3294
 1598TIP3    H126429   4.609   2.575   6.872 -1.4389  0.1535  0.9517
 1598TIP3    H226430   4.560   2.446   6.935 -0.2437 -0.4102  0.7551
 1599TIP3   OH226431   2.792   6.514   6.492  0.3012  0.3948  0.2330
 1599TIP3    H126432   2.835   6.430   6.481 -0.1455  0.2779 -0.7224
 1599TIP3    H226433   2.835   6.571   6.428 -0.3696  0.5006 -0.1347
 1600TIP3   OH226434   2.594   6.222   1.195 -0.1112 -0.1888  0.3080
 1600TIP3    H126435   2.526   6.275   1.155  0.1897  0.5357  0.7313
 1600TIP3    H226436   2.591   6.138   1.148 -0.8585  0.0603 -0.0951
 1601TIP3   OH226437   5.137   4.879   2.217  0.4548  0.5169 -0.4651
 1601TIP3    H126438   5.165   4.963   2.254 -1.0714  0.3693  1.1521
 1601TIP3    H226439   5.064   4.902   2.159  1.8748  0.5768 -2.3069
 1602TIP3   OH226440   0.246   3.417   1.069  0.3710 -0.2015  0.8888
 1602TIP3    H126441   0.192   3.438   0.993  1.0424 -0.2097  0.3969
 1602TIP3    H226442   0.302   3.345   1.039  0.4175 -0.4165  1.4909
 1603TIP3   OH226443   6.366   2.128   0.780  0.1361 -0.2406  0.3890
 1603TIP3    H126444   6.373   2.180   0.700 -0.6969 -1.6093 -0.6299
 1603TIP3    H226445   6.378   2.038   0.750 -1.7560 -0.9333  1.5313
 1604TIP3   OH226446   1.751   6.587   0.952 -0.1655 -0.3757  0.2082
 1604TIP3    H126447   1.687   6.516   0.946 -1.8682  1.2134 -2.1776
 1604TIP3    H226448   1.763   6.617   0.862  1.7003  1.3559  0.9425
 1605TIP3   OH226449   1.533   1.426   2.235 -0.7469 -0.0670  0.0827
 1605TIP3    H126450   1.609   1.369   2.232  0.6008  1.6251  0.0216
 1605TIP3    H226451   1.485   1.399   2.313  1.9679  1.1574  2.3793
 1606TIP3   OH226452   3.767   2.730   0.212  0.0495 -0.3716 -0.2168
 1606TIP3    H126453   3.697   2.715   0.276 -2.1144  3.1387 -1.4714
 1606TIP3    H226454   3.838   2.768   0.263 -0.4939 -0.3178  0.5149
 1607TIP3   OH226455   1.155   3.566   0.011  0.4623  0.8752 -0.0097
 1607TIP3    H126456   1.178   3.568   0.104  1.5737 -0.2622 -0.2298
 1607TIP3    H226457   1.239   3.557  -0.034 -0.2476 -1.6467 -0.9537
 1608TIP3   OH226458   1.919   4.354   6.679  0.1717  0.2545 -0.6404
 1608TIP3    H126459   1.951   4.407   6.606 -1.1621  0.6300 -0.9684
 1608TIP3    H226460   1.977   4.277   6.680  0.9420  0.8106 -1.3368
 1609TIP3   OH226461   2.013   0.523   1.285  0.7029 -0.5540 -0.1981
 1609TIP3    H126462   2.009   0.441   1.334  1.6685  0.3126  1.4326
 1609TIP3    H226463   2.106   0.546   1.284  0.5290  0.1611 -1.2545
 1610TIP3   OH226464   4.781   2.429   1.878 -0.2169 -0.3380  0.5005
 1610TIP3    H126465   4.833   2.369   1.824 -0.1799  1.2440 -1.3307
 1610TIP3    H226466   4.690   2.406   1.858 -0.2032  0.1739 -0.2140
 1611TIP3   OH226467   6.284   5.476   6.902 -0.0376 -0.0076  0.3243
 1611TIP3    H126468   6.240   5.559   6.882  0.3625 -0.0154 -0.6315
 1611TIP3    H226469   6.305   5.439   6.816 -0.5186 -1.2715  0.7337
 1612TIP3   OH226470   4.148   2.363   8.427 -0.1583  0.3715  0.4209
 1612TIP3    H126471   4.209   2.303   8.384  0.4613  1.3299 -0.0758
 1612TIP3    H226472   4.125   2.319   8.509 -1.1789 -1.4052 -0.7378
 1613TIP3   OH226473   3.645   1.344   2.037 -0.0113  0.6690 -0.4367
 1613TIP3    H126474   3.714   1.404   2.067 -0.3091  0.5925  0.4283
 1613TIP3    H226475   3.578   1.400   2.000 -0.5715  0.9374  0.9392
 1614TIP3   OH226476   6.246   4.043   1.434 -0.0516  1.0177 -0.2724
 1614TIP3    H126477   6.196   4.114   1.396  0.7799  1.2500 -0.9521
 1614TIP3    H226478   6.300   4.084   1.502  0.8004  1.1387 -1.0039
 1615TIP3   OH226479   5.412   0.886   7.044 -0.0624  0.2623  0.0302
 1615TIP3    H126480   5.349   0.941   7.090  0.6868  1.5990 -0.4576
 1615TIP3    H226481   5.458   0.838   7.112 -0.3004  0.7250  0.5174
 1616TIP3   OH226482   6.473   5.535   0.271 -0.0459 -0.4576  0.0731
 1616TIP3    H126483   6.395   5.517   0.218 -1.2102 -0.0079  1.5576
 1616TIP3    H226484   6.438   5.572   0.353  1.7893  0.7541  0.3660
 1617TIP3   OH226485   5.212   0.122   0.747  0.4611 -0.2003  0.0317
 1617TIP3    H126486   5.300   0.125   0.787  0.4289 -2.1386  0.3698
 1617TIP3    H226487   5.156   0.088   0.817 -0.0895 -1.2156 -0.8765
 1618TIP3   OH226488   4.625   5.772   1.619  0.1561 -0.1068 -0.3651
 1618TIP3    H126489   4.545   5.824   1.626 -0.2082 -0.4313 -1.8282
 1618TIP3    H226490   4.596   5.682   1.632  0.4563 -0.1458  0.0785
 1619TIP3   OH226491   0.565   2.952   1.672  0.0326 -0.0985 -0.0343
 1619TIP3    H126492   0.537   2.882   1.732  0.4806  0.7847  1.2418
 1619TIP3    H226493   0.657   2.933   1.655 -0.3224 -0.8601 -1.1972
 1620TIP3   OH226494   2.600   5.762   7.622  0.8611 -0.0343 -0.1058
 1620TIP3    H126495   2.550   5.770   7.702  0.3632  0.3643 -0.4484
 1620TIP3    H226496   2.571   5.680   7.582  2.1366 -0.9612  0.8082
 1621TIP3   OH226497   2.767   6.832   1.169 -0.2767  0.5639  0.1672
 1621TIP3    H126498   2.843   6.889   1.180 -0.1531  0.4945 -0.3041
 1621TIP3    H226499   2.801   6.744   1.185 -0.4249  0.5981  0.6990
 1622TIP3   OH226500   5.620   5.781   7.345 -0.3687 -0.0159  0.0301
 1622TIP3    H126501   5.692   5.755   7.287 -0.5498  0.6635 -0.5124
 1622TIP3    H226502   5.543   5.781   7.288 -0.8352 -0.8603  0.6325
 1623TIP3   OH226503   0.405   2.318   6.177 -0.1104  0.0357 -0.4366
 1623TIP3    H126504   0.442   2.324   6.264 -0.8607 -1.4125  0.0096
 1623TIP3    H226505   0.479   2.300   6.120  0.1085 -1.1960  0.2115
 1624TIP3   OH226506   2.348   0.858   1.922 -0.4681 -0.1704  0.3833
 1624TIP3    H126507   2.396   0.776   1.919 -0.5389 -0.3453  2.4496
 1624TIP3    H226508   2.260   0.833   1.950 -0.7718  0.5099  0.0611
 1625TIP3   OH226509   2.343   5.152   1.944  0.5013  0.1577 -0.0876
 1625TIP3    H126510   2.302   5.067   1.958 -0.5394  0.3774 -1.6099
 1625TIP3    H226511   2.314   5.206   2.018 -1.0879 -0.0272 -0.5423
 1626TIP3   OH226512   0.601   3.901   1.199  0.0180  0.4616  0.2178
 1626TIP3    H126513   0.609   3.974   1.137  0.3824  0.2739  0.0379
 1626TIP3    H226514   0.672   3.841   1.174 -1.5984 -1.0308 -1.0734
 1627TIP3   OH226515   6.636   2.670   6.604  0.5174 -0.0565  0.1194
 1627TIP3    H126516   6.612   2.702   6.517  0.1849 -1.3229 -0.2707
 1627TIP3    H226517   6.710   2.725   6.630  0.9121  0.0458 -1.1532
 1628TIP3   OH226518   3.626   0.673   8.638  0.3261  0.0262  0.5510
 1628TIP3    H126519   3.611   0.581   8.659  2.3520 -0.3543  0.4824
 1628TIP3    H226520   3.709   0.695   8.680 -0.2782  1.9509  0.8864
 1629TIP3   OH226521   1.199   3.154   0.283 -0.4245  0.6882 -0.0112
 1629TIP3    H126522   1.227   3.241   0.309 -0.5167  0.8435 -0.4200
 1629TIP3    H226523   1.161   3.166   0.196  0.9153  0.0133 -0.7307
 1630TIP3   OH226524   1.934   4.565   8.693  0.9632 -0.8487 -0.0492
 1630TIP3    H126525   1.943   4.642   8.750 -0.2104 -0.0197 -0.9357
 1630TIP3    H226526   1.990   4.584   8.618 -0.4059 -0.1679 -0.9405
 1631TIP3   OH226527   0.648   0.425   7.366 -0.1685  0.2973 -0.8735
 1631TIP3    H126528   0.680   0.448   7.453  1.6349  1.0887 -1.6956
 1631TIP3    H226529   0.579   0.489   7.348 -1.4898 -0.6911  0.4557
 1632TIP3   OH226530   5.204   4.962   7.801 -0.1522 -0.0175 -0.3113
 1632TIP3    H126531   5.191   4.881   7.850 -0.5930 -1.0754 -2.0904
 1632TIP3    H226532   5.124   5.012   7.816  0.8315  0.9806  2.2513
 1633TIP3   OH226533   2.101   1.122   8.385 -0.2839 -0.1923 -0.5257
 1633TIP3    H126534   2.062   1.130   8.472  0.7835 -1.7085  0.1260
 1633TIP3    H226535   2.101   1.028   8.367  1.9369 -0.1389 -1.0268
 1634TIP3   OH226536   0.695   4.089   0.011 -1.0611  0.3881 -0.3747
 1634TIP3    H126537   0.609   4.053   0.034  0.2988 -2.5994  0.5755
 1634TIP3    H226538   0.716   4.047  -0.073  0.0557 -0.1191  0.1366
 1635TIP3   OH226539   6.504   4.632   8.113 -0.3643  0.4914  0.2431
 1635TIP3    H126540   6.441   4.702   8.100 -0.6721  0.1180 -0.3054
 1635TIP3    H226541   6.479   4.564   8.050 -0.3332 -0.2925  1.0458
 1636TIP3   OH226542   6.817   4.340   6.057 -0.7406  0.0671 -0.0143
 1636TIP3    H126543   6.727   4.322   6.085  0.6613 -1.5983  4.3192
 1636TIP3    H226544   6.856   4.253   6.046  0.7094  0.7385 -0.4205
 1637TIP3   OH226545   2.119   3.689   1.219  0.0800 -0.5249 -0.4811
 1637TIP3    H126546   2.117   3.784   1.218 -1.4790 -0.5267 -0.2790
 1637TIP3    H226547   2.140   3.666   1.310 -0.4608 -0.3622 -0.3105
 1638TIP3   OH226548   1.848   0.933   2.113 -0.0583 -0.3985  0.2311
 1638TIP3    H126549   1.927   0.969   2.152  1.0002 -2.6290  0.2797
 1638TIP3    H226550   1.802   0.892   2.187 -2.5774  2.8158  0.7084
 1639TIP3   OH226551   4.750   0.507   1.029 -0.2791 -0.5109 -0.4790
 1639TIP3    H126552   4.698   0.558   0.967 -0.5993 -0.7085 -0.3775
 1639TIP3    H226553   4.840   0.516   0.999 -0.3526 -0.0218 -0.5575
 1640TIP3   OH226554   6.821   1.746   0.187 -0.2479  0.9870 -0.1423
 1640TIP3    H126555   6.764   1.718   0.259  0.5484  1.3309  0.6400
 1640TIP3    H226556   6.896   1.787   0.230  1.3696 -0.8486 -1.0706
 1641TIP3   OH226557   2.001   1.445   0.003  0.3763  0.3864  1.1207
 1641TIP3    H126558   2.067   1.376   0.016  0.8265  0.9190  1.8069
 1641TIP3    H226559   1.936   1.429   0.071  0.8303  1.0203  1.7198
 1642TIP3   OH226560   4.256   5.198   6.516 -0.3495  0.0599 -0.1607
 1642TIP3    H126561   4.215   5.124   6.471 -1.8037  0.9278 -0.3332
 1642TIP3    H226562   4.337   5.214   6.468 -0.3802 -0.9319 -0.5757
 1643TIP3   OH226563   2.932   2.596   8.386  0.3320 -0.2760 -0.4103
 1643TIP3    H126564   2.927   2.511   8.430 -1.8042 -0.1172 -0.2647
 1643TIP3    H226565   2.852   2.601   8.334  0.5880  1.5098 -0.6950
 1644TIP3   OH226566   2.220   6.182   7.740  0.2957  0.0813  0.1286
 1644TIP3    H126567   2.168   6.138   7.672  0.4523  1.0735 -0.6666
 1644TIP3    H226568   2.199   6.135   7.820 -0.9297 -0.2948 -0.3754
 1645TIP3   OH226569   3.367   6.601   0.580 -0.0066  0.0816  0.1686
 1645TIP3    H126570   3.309   6.677   0.581  0.6745  0.6114  0.2085
 1645TIP3    H226571   3.441   6.628   0.526 -0.5230 -1.1515 -1.2360
 1646TIP3   OH226572   1.317   0.374   8.523 -0.6615  0.1739  0.6108
 1646TIP3    H126573   1.297   0.334   8.438  0.1093  1.5125 -0.2360
 1646TIP3    H226574   1.232   0.385   8.565 -1.3527  1.8305 -1.0898
 1647TIP3   OH226575   2.987   2.108   0.307 -0.2207 -0.1870  0.0915
 1647TIP3    H126576   2.956   2.017   0.309  0.9396 -0.6197 -0.5003
 1647TIP3    H226577   3.053   2.113   0.376  1.8595 -0.6554 -1.7602
 1648TIP3   OH226578   0.090   5.130   1.246 -0.1104  0.6511 -0.5688
 1648TIP3    H126579   0.061   5.151   1.334  1.7236 -0.8789  0.4859
 1648TIP3    H226580   0.011   5.104   1.199 -0.9501  0.2130  1.0340
 1649TIP3   OH226581   5.156   2.760   7.786 -0.1385 -0.5885 -0.1951
 1649TIP3    H126582   5.143   2.695   7.854  0.4315  0.3449  0.8382
 1649TIP3    H226583   5.070   2.773   7.747 -0.8758  0.2098  1.6056
 1650TIP3   OH226584   1.793   3.628   7.833 -0.8670 -0.3364  0.5537
 1650TIP3    H126585   1.699   3.641   7.824 -0.5462  2.0912  0.1661
 1650TIP3    H226586   1.831   3.671   7.757  0.6488  0.4502  1.6981
 1651TIP3   OH226587   5.078   0.598   0.221 -0.1889  0.3221 -0.9507
 1651TIP3    H126588   5.127   0.516   0.208 -0.4046 -0.3023  1.6932
 1651TIP3    H226589   4.987   0.570   0.231 -0.3793  0.9856 -0.8278
 1652TIP3   OH226590   3.165   4.531   7.390  0.3015 -0.1625 -0.4079
 1652TIP3    H126591   3.109   4.561   7.462 -0.6757  1.4717 -1.7964
 1652TIP3    H226592   3.252   4.522   7.430 -0.1055  1.1549  0.8714
 1653TIP3   OH226593   6.290   4.442   0.558  0.1448 -0.5418 -0.1298
 1653TIP3    H126594   6.258   4.352   0.550  0.4125 -0.7306  0.8439
 1653TIP3    H226595   6.211   4.493   0.578 -0.4567 -0.1356 -3.0865
 1654TIP3   OH226596   2.229   6.712   0.691 -0.4084 -0.1852  0.2864
 1654TIP3    H126597   2.222   6.671   0.605 -2.4532  0.3728  0.1343
 1654TIP3    H226598   2.289   6.655   0.740  1.6218  0.0334 -1.7628
 1655TIP3   OH226599   6.328   2.524   8.578 -0.0170  0.1593 -0.3115
 1655TIP3    H126600   6.303   2.616   8.588 -1.2560 -0.0585 -1.1822
 1655TIP3    H226601   6.246   2.478   8.561  0.5491 -1.1673  0.3981
 1656TIP3   OH226602   3.329   2.903   6.740  0.0101  0.1730 -0.3319
 1656TIP3    H126603   3.276   2.954   6.801  1.2113  0.2035  0.7363
 1656TIP3    H226604   3.366   2.833   6.793  0.4063 -0.3075 -1.2182
 1657TIP3   OH226605   1.375   0.588   7.554 -0.3851 -0.5811  0.0481
 1657TIP3    H126606   1.320   0.639   7.613 -2.4035 -0.5889 -1.7163
 1657TIP3    H226607   1.463   0.591   7.594 -1.4194  0.2683  2.4344
 1658TIP3   OH226608   0.331   5.201   7.251  0.4624  0.0927 -0.0263
 1658TIP3    H126609   0.353   5.176   7.161 -1.0264 -2.7746  0.2958
 1658TIP3    H226610   0.410   5.183   7.301  0.6479 -0.3239 -0.4609
 1659TIP3   OH226611   6.472   2.935   7.964 -0.0239  0.5597 -0.2019
 1659TIP3    H126612   6.495   2.978   8.047  1.3530 -1.5502  0.5689
 1659TIP3    H226613   6.521   2.983   7.898  1.3729  0.3254  0.6228
 1660TIP3   OH226614   6.009   2.171   0.745 -0.7897 -0.1329 -0.2865
 1660TIP3    H126615   6.013   2.263   0.770 -2.0132 -0.2531  0.4515
 1660TIP3    H226616   6.066   2.127   0.808  0.8167  0.2329 -1.4232
 1661TIP3   OH226617   2.958   4.608   1.949  0.3322 -0.0922 -0.2685
 1661TIP3    H126618   2.970   4.523   1.908 -0.9582  0.5120 -2.0391
 1661TIP3    H226619   2.916   4.588   2.034  3.0446 -1.3623  0.8892
 1662TIP3   OH226620   4.458   4.803   7.371 -0.3570  0.1774 -0.2703
 1662TIP3    H126621   4.428   4.746   7.442  2.4949 -1.5938 -0.3516
 1662TIP3    H226622   4.549   4.823   7.394  0.3503  0.3236 -2.9518
 1663TIP3   OH226623   6.131   5.394   6.509  0.4385  0.7743 -0.6414
 1663TIP3    H126624   6.053   5.449   6.517 -0.4774 -0.6165  0.5901
 1663TIP3    H226625   6.111   5.336   6.435 -0.0518 -0.0795  0.1403
 1664TIP3   OH226626   5.391   2.318   6.715 -0.1349  0.1891  0.0568
 1664TIP3    H126627   5.483   2.334   6.695  0.2854 -1.3841  0.5892
 1664TIP3    H226628   5.343   2.376   6.655  1.1717  0.4189 -0.8094
 1665TIP3   OH226629   0.560   0.239   5.995 -0.1767  1.1214  0.2963
 1665TIP3    H126630   0.525   0.161   6.039 -1.8028  1.5282 -0.2211
 1665TIP3    H226631   0.510   0.312   6.033 -0.0786  1.6996 -0.6593
 1666TIP3   OH226632   5.531   3.398   1.710 -0.3159  0.1678  0.0075
 1666TIP3    H126633   5.439   3.424   1.720  0.0257  1.1130  0.7822
 1666TIP3    H226634   5.559   3.442   1.629 -0.1132  1.1660  0.6083
 1667TIP3   OH226635   2.130   6.459   1.104 -0.3219 -0.4406  0.5010
 1667TIP3    H126636   2.217   6.420   1.097 -1.1131 -1.9303 -2.5613
 1667TIP3    H226637   2.092   6.417   1.181  0.8853 -1.4458  0.5889
 1668TIP3   OH226638   0.653   3.862   0.801  0.4006  0.1306 -0.1434
 1668TIP3    H126639   0.697   3.916   0.736  0.6651  0.9094  0.6610
 1668TIP3    H226640   0.671   3.905   0.884 -0.1871 -0.6732  0.4178
 1669TIP3   OH226641   3.849   5.184   1.175 -0.3955 -0.2960  0.1140
 1669TIP3    H126642   3.800   5.250   1.224 -0.3973  0.7449 -1.2246
 1669TIP3    H226643   3.881   5.124   1.242 -3.3050 -0.9350  1.0820
 1670TIP3   OH226644   0.410   1.944   1.071 -0.2388 -0.2285 -0.0508
 1670TIP3    H126645   0.327   1.905   1.046 -0.3685  0.4362 -0.6989
 1670TIP3    H226646   0.476   1.886   1.033 -0.3139 -2.0430  2.3669
 1671TIP3   OH226647   2.672   2.613   7.781 -0.1486 -0.5179 -0.5179
 1671TIP3    H126648   2.721   2.606   7.699  0.0545 -3.4855 -0.2489
 1671TIP3    H226649   2.594   2.559   7.767 -0.7173 -0.0813  0.8219
 1672TIP3   OH226650   0.472   6.096   0.315 -0.0383 -0.4756  0.5305
 1672TIP3    H126651   0.407   6.166   0.317 -0.1507 -0.5690  3.1649
 1672TIP3    H226652   0.549   6.136   0.274 -0.7399  0.5820  0.2074
 1673TIP3   OH226653   5.184   5.181   0.008 -0.3563 -0.7300 -0.0117
 1673TIP3    H126654   5.110   5.221   0.053 -0.4605 -1.6217  0.6270
 1673TIP3    H226655   5.157   5.177  -0.084 -0.2298  0.9025 -0.1616
 1674TIP3   OH226656   4.613   6.230   6.048  0.2371 -0.3863  0.2630
 1674TIP3    H126657   4.539   6.252   6.105  0.5349 -0.4225  0.6721
 1674TIP3    H226658   4.617   6.302   5.985 -0.5655 -0.7272 -0.1903
 1675TIP3   OH226659   2.444   5.038   1.434  0.1488  0.0786 -0.4259
 1675TIP3    H126660   2.395   5.103   1.384  0.9818  0.8927 -0.2068
 1675TIP3    H226661   2.430   5.063   1.525 -1.1121 -1.2199 -0.2231
 1676TIP3   OH226662   3.593   2.727   0.415  0.1897 -0.0478  0.6070
 1676TIP3    H126663   3.631   2.789   0.478  0.0787 -0.2094  0.8362
 1676TIP3    H226664   3.515   2.771   0.383  0.7951  0.4763 -0.1997
 1677TIP3   OH226665   5.672   5.616   6.162 -0.1850 -0.3263 -0.2508
 1677TIP3    H126666   5.725   5.538   6.142  0.4911 -0.0519  0.3944
 1677TIP3    H226667   5.690   5.632   6.255  0.6578  1.3190 -0.6648
 1678TIP3   OH226668   1.417   6.740   1.640 -0.0407  0.2485  0.5684
 1678TIP3    H126669   1.368   6.703   1.714 -1.0025 -0.5752 -0.4601
 1678TIP3    H226670   1.485   6.793   1.682 -0.1782 -0.6862  2.0619
 1679TIP3   OH226671   2.723   4.448   8.731 -0.4055 -0.1927 -0.8522
 1679TIP3    H126672   2.790   4.436   8.664 -1.2274  1.1446 -1.9584
 1679TIP3    H226673   2.772   4.473   8.809  0.4907 -0.7578 -1.2108
 1680TIP3   OH226674   5.342   1.332   0.197 -0.3866  0.0439  0.0869
 1680TIP3    H126675   5.367   1.277   0.123  0.2223  1.0270 -0.4479
 1680TIP3    H226676   5.258   1.296   0.226  0.2050 -1.4551  0.0496
 1681TIP3   OH226677   3.572   3.522   0.798 -0.3180  0.1350 -0.0879
 1681TIP3    H126678   3.542   3.523   0.707 -1.2891 -2.4762  0.1004
 1681TIP3    H226679   3.626   3.443   0.805  0.4591  0.7574  1.4097
 1682TIP3   OH226680   5.295   5.741   2.454  0.2130  0.6566 -0.2537
 1682TIP3    H126681   5.305   5.686   2.376  0.9694 -0.6345  0.7063
 1682TIP3    H226682   5.242   5.687   2.514  1.7348  0.5568  1.0580
 1683TIP3   OH226683   4.118   0.650   6.741  0.2437  0.0299  0.2176
 1683TIP3    H126684   4.200   0.653   6.692 -0.4560 -1.1068 -1.1024
 1683TIP3    H226685   4.067   0.724   6.706  0.9765  1.2620  1.6371
 1684TIP3   OH226686   2.051   2.687   7.321 -0.1252 -0.7220  0.0257
 1684TIP3    H126687   2.113   2.752   7.355 -1.0989 -0.2492  0.9716
 1684TIP3    H226688   2.010   2.730   7.246  0.4127 -0.8941 -0.3731
 1685TIP3   OH226689   4.026   1.932   1.245  0.1126  0.4749  0.2883
 1685TIP3    H126690   4.109   1.885   1.240  0.3625  0.3954  3.4725
 1685TIP3    H226691   3.963   1.867   1.276 -1.0050  0.7613 -1.2339
 1686TIP3   OH226692   1.486   3.574   7.755  0.0226  0.0119  0.2738
 1686TIP3    H126693   1.471   3.505   7.691 -0.2539  1.3284 -1.1407
 1686TIP3    H226694   1.406   3.577   7.807 -0.0428 -0.5900  0.2134
 1687TIP3   OH226695   3.640   6.818   1.516 -0.0016  0.0474  0.9295
 1687TIP3    H126696   3.689   6.778   1.587 -0.9814 -2.3635  0.3313
 1687TIP3    H226697   3.549   6.818   1.546 -0.1644  0.8571  0.4695
 1688TIP3   OH226698   3.058   4.817   2.089 -0.7766 -0.4890 -0.4100
 1688TIP3    H126699   3.055   4.797   2.183 -3.6389  0.0123 -0.2907
 1688TIP3    H226700   3.051   4.732   2.046 -2.0211 -0.5739 -0.0825
 1689TIP3   OH226701   2.611   6.438   8.144 -0.0382 -0.2603 -0.1579
 1689TIP3    H126702   2.565   6.414   8.064  0.3278  0.6210 -0.6519
 1689TIP3    H226703   2.613   6.358   8.196  0.1573 -0.9806 -1.2403
 1690TIP3   OH226704   4.574   2.393   6.547  0.4681 -0.1444  0.2132
 1690TIP3    H126705   4.636   2.322   6.561  1.2600  0.8077  1.8095
 1690TIP3    H226706   4.501   2.353   6.499  1.8122 -1.5301 -0.7562
 1691TIP3   OH226707   3.289   6.682   6.696 -0.3697  0.1712  0.0557
 1691TIP3    H126708   3.215   6.724   6.652 -0.5298  2.5594  2.3569
 1691TIP3    H226709   3.249   6.621   6.759 -0.2671 -0.3669 -0.3911
 1692TIP3   OH226710   5.431   1.288   7.761  0.0491  0.5869 -0.9949
 1692TIP3    H126711   5.348   1.298   7.807  0.2855  0.7398 -0.5982
 1692TIP3    H226712   5.485   1.361   7.792  1.0655 -0.6780  0.3583
 1693TIP3   OH226713   6.648   5.441   1.330 -0.0322  0.1889  0.2726
 1693TIP3    H126714   6.742   5.447   1.348 -0.4659  2.6822  2.0529
 1693TIP3    H226715   6.643   5.380   1.256  3.3161  2.6374 -2.3097
 1694TIP3   OH226716   3.878   6.712   6.264  0.3575 -0.0871 -0.4304
 1694TIP3    H126717   3.850   6.687   6.352 -0.4485 -0.3104 -0.7366
 1694TIP3    H226718   3.969   6.741   6.275  0.2689 -0.1095  0.4682
 1695TIP3   OH226719   1.158   6.719   7.094  0.3841  0.2153 -0.1728
 1695TIP3    H126720   1.129   6.709   7.185 -0.9631 -0.9225 -0.7127
 1695TIP3    H226721   1.200   6.806   7.093 -0.4418  0.6734  1.3017
 1696TIP3   OH226722   6.764   0.616   2.298 -0.1123 -0.0563 -0.4282
 1696TIP3    H126723   6.739   0.690   2.242 -0.6644 -0.6681 -1.0033
 1696TIP3    H226724   6.821   0.563   2.243  0.0523 -0.2131 -0.1086
 1697TIP3   OH226725   4.872   6.226   1.298 -0.2978 -0.1639  0.0684
 1697TIP3    H126726   4.872   6.223   1.203 -0.6512  2.9673 -0.1534
 1697TIP3    H226727   4.789   6.186   1.324 -1.9620  2.1820 -1.2596
 1698TIP3   OH226728   6.479   3.467   8.683 -0.5004 -0.1282  0.8208
 1698TIP3    H126729   6.499   3.442   8.592 -0.6990 -0.0488  0.7548
 1698TIP3    H226730   6.562   3.457   8.729 -0.5356 -0.7296  0.7581
 1699TIP3   OH226731   6.210   2.515   6.242 -0.4820 -0.1681  0.2521
 1699TIP3    H126732   6.235   2.428   6.210  0.7002 -0.2409  1.2920
 1699TIP3    H226733   6.278   2.573   6.207 -1.0153  0.2801 -0.0603
 1700TIP3   OH226734   3.766   6.751   0.097  0.4353  0.0497  0.5107
 1700TIP3    H126735   3.733   6.700   0.022  1.7480 -0.6550  0.3773
 1700TIP3    H226736   3.737   6.703   0.174 -0.8809  0.7517  0.4760
 1701TIP3   OH226737   1.781   5.993   0.922 -0.8248  0.0400  0.0822
 1701TIP3    H126738   1.760   5.960   1.009 -0.8452  0.8792  0.4036
 1701TIP3    H226739   1.872   5.966   0.908 -1.2471 -1.2903 -0.2180
 1702TIP3   OH226740   3.184   1.938   1.153  0.4519  0.2175  0.0065
 1702TIP3    H126741   3.236   1.959   1.076  1.0159  1.7671  0.7747
 1702TIP3    H226742   3.239   1.877   1.203 -0.3445 -1.6307 -1.2537
 1703TIP3   OH226743   4.230   3.243   0.977  0.9224  0.4318  0.4045
 1703TIP3    H126744   4.263   3.164   1.019  1.4519 -0.3392 -1.3646
 1703TIP3    H226745   4.304   3.276   0.926  0.4715  1.6312  0.4964
 1704TIP3   OH226746   0.706   6.341   1.479 -0.1362 -0.9221 -0.3126
 1704TIP3    H126747   0.636   6.361   1.417 -0.8395 -1.0687  0.4243
 1704TIP3    H226748   0.664   6.291   1.549  0.6201 -0.6766  0.3404
 1705TIP3   OH226749   4.358   4.007   6.088  0.9647  0.2087  0.0357
 1705TIP3    H126750   4.428   3.954   6.050  1.7213  0.2796  1.2730
 1705TIP3    H226751   4.404   4.075   6.139  0.0484 -0.4957  1.9058
 1706TIP3   OH226752   4.316   1.890   7.600 -0.0208 -0.2612 -0.0977
 1706TIP3    H126753   4.406   1.889   7.633 -0.6062 -2.9486  1.8225
 1706TIP3    H226754   4.293   1.982   7.595  2.5660  0.4765  0.1274
 1707TIP3   OH226755   1.588   0.622   0.925 -0.0568 -0.3480 -0.6909
 1707TIP3    H126756   1.537   0.613   0.845 -1.1179  0.8275 -0.1694
 1707TIP3    H226757   1.635   0.539   0.932  0.6414 -0.2205 -2.8978
 1708TIP3   OH226758   2.356   4.378   0.394  0.1985 -0.5117 -0.1753
 1708TIP3    H126759   2.412   4.415   0.462  0.9019  0.1258 -1.0587
 1708TIP3    H226760   2.380   4.428   0.315 -2.7508  0.9501 -0.2891
 1709TIP3   OH226761   1.379   1.288   7.442 -0.0093 -0.2883 -0.0751
 1709TIP3    H126762   1.423   1.367   7.409 -2.4158  0.5562 -1.4793
 1709TIP3    H226763   1.381   1.299   7.537 -0.8029  1.8339 -0.2420
 1710TIP3   OH226764   0.787   6.010   7.848 -0.0965  0.2943 -0.0123
 1710TIP3    H126765   0.868   6.062   7.855 -0.1806  0.2927  1.1376
 1710TIP3    H226766   0.814   5.929   7.805  0.7562 -0.1780  1.3569
 1711TIP3   OH226767   2.466   1.245   8.132  0.4839 -0.2619  0.2327
 1711TIP3    H126768   2.431   1.242   8.221 -0.9140  0.4770 -0.2550
 1711TIP3    H226769   2.530   1.316   8.133 -1.4084  1.5472  0.0708
 1712TIP3   OH226770   5.269   3.873   2.153  0.1073 -0.9940 -0.5241
 1712TIP3    H126771   5.221   3.854   2.234 -1.0467 -0.5263 -1.0763
 1712TIP3    H226772   5.254   3.966   2.137 -0.7727 -1.3502 -1.9527
 1713TIP3   OH226773   6.687   2.103   0.931 -0.7464 -0.0211 -0.1274
 1713TIP3    H126774   6.610   2.115   0.987  0.1010 -0.6055  1.2114
 1713TIP3    H226775   6.707   2.010   0.936 -0.1091  0.0759 -0.6705
 1714TIP3   OH226776   2.200   2.123   8.123 -0.3267  0.5263 -0.3062
 1714TIP3    H126777   2.233   2.139   8.211 -0.6296 -0.6827  0.0347
 1714TIP3    H226778   2.246   2.045   8.093  0.3903  1.3901 -1.5608
 1715TIP3   OH226779   2.553   3.152   7.068  0.3109 -0.5041  0.0654
 1715TIP3    H126780   2.638   3.160   7.110  1.0813 -3.8656 -0.5519
 1715TIP3    H226781   2.508   3.083   7.116 -1.8334  0.6742 -0.0942
 1716TIP3   OH226782   5.864   1.935   0.725  0.5242  0.3988 -0.0414
 1716TIP3    H126783   5.954   1.904   0.735  0.1131 -0.3120  1.7151
 1716TIP3    H226784   5.872   2.031   0.728  1.2577  0.3716 -0.5320
 1717TIP3   OH226785   6.222   3.700   8.316 -0.1238  0.3317  0.3171
 1717TIP3    H126786   6.316   3.694   8.299  0.1501 -0.4451  1.9081
 1717TIP3    H226787   6.213   3.778   8.371 -0.0703 -0.8337  2.0475
 1718TIP3   OH226788   2.528   0.436   7.308 -0.0287  0.1840  0.1163
 1718TIP3    H126789   2.565   0.443   7.396  0.5844  1.7381 -0.2213
 1718TIP3    H226790   2.455   0.375   7.317 -0.9452  1.4727  2.0419
 1719TIP3   OH226791   5.595   4.098   0.061 -0.0555 -0.3143 -0.0827
 1719TIP3    H126792   5.519   4.143   0.024 -1.1259 -1.0253  1.2224
 1719TIP3    H226793   5.578   4.094   0.155  2.9739  2.2011  0.7734
 1720TIP3   OH226794   3.189   6.463   1.417 -0.3951  0.1669  0.1489
 1720TIP3    H126795   3.140   6.460   1.335 -0.9366 -0.2326  0.4781
 1720TIP3    H226796   3.277   6.491   1.392 -0.5386 -0.0111 -0.5727
 1721TIP3   OH226797   2.867   2.024   6.392 -0.1619  0.0463 -0.2817
 1721TIP3    H126798   2.824   1.945   6.424 -1.2255  0.6435 -0.1803
 1721TIP3    H226799   2.944   2.034   6.449 -0.0854 -0.8318 -0.2151
 1722TIP3   OH226800   0.510   5.827   8.405 -0.0068  0.0975 -0.0607
 1722TIP3    H126801   0.553   5.756   8.357  0.4379 -1.0323  1.9152
 1722TIP3    H226802   0.579   5.865   8.458 -1.0138 -0.5750  1.8212
 1723TIP3   OH226803   3.897   2.087   0.012  0.3354  0.2758 -0.0010
 1723TIP3    H126804   3.925   2.162  -0.041  0.8872  1.8597  2.4008
 1723TIP3    H226805   3.978   2.050   0.047  0.1228 -1.8509 -1.5089
 1724TIP3   OH226806   4.438   4.858   0.319  0.0039  0.4519  0.0246
 1724TIP3    H126807   4.465   4.785   0.263  1.3392 -0.1370  1.3641
 1724TIP3    H226808   4.390   4.917   0.260  0.1070 -0.8160 -1.3979
 1725TIP3   OH226809   5.934   5.444   0.756  0.0847 -0.4324  0.3533
 1725TIP3    H126810   6.028   5.444   0.777  0.6627  1.8063 -1.7881
 1725TIP3    H226811   5.891   5.459   0.840  1.6009 -1.6371  1.4095
 1726TIP3   OH226812   4.362   5.810   2.154 -0.1737  0.3878 -0.7466
 1726TIP3    H126813   4.446   5.798   2.199 -0.4175 -1.5754 -0.7215
 1726TIP3    H226814   4.298   5.814   2.225 -0.1263  1.9860 -0.7608
 1727TIP3   OH226815   4.148   0.925   6.818 -0.4031 -0.0274  0.1197
 1727TIP3    H126816   4.136   1.020   6.822 -0.2199 -0.0252  0.6489
 1727TIP3    H226817   4.087   0.891   6.884  0.8417 -0.1546  1.2426
 1728TIP3   OH226818   4.118   1.495   0.128 -0.1356 -0.6102 -0.3870
 1728TIP3    H126819   4.140   1.545   0.206  0.0160  1.7311 -1.8483
 1728TIP3    H226820   4.097   1.407   0.161 -1.2753  0.5923  2.4001
 1729TIP3   OH226821   1.382   2.427   6.520  0.0648  0.4842  0.1538
 1729TIP3    H126822   1.360   2.495   6.457 -2.5703 -0.6635 -0.2840
 1729TIP3    H226823   1.420   2.357   6.467  1.2179  0.9114  0.3828
 1730TIP3   OH226824   2.636   0.710   1.745 -0.4034  0.1525  0.4363
 1730TIP3    H126825   2.679   0.751   1.820  1.5598 -2.1272  0.6786
 1730TIP3    H226826   2.566   0.657   1.783 -0.5722  0.4019  0.4746
 1731TIP3   OH226827   5.986   2.034   1.551  0.1135 -0.1043 -0.2241
 1731TIP3    H126828   5.988   2.093   1.627 -1.3724  0.7779 -0.8328
 1731TIP3    H226829   5.990   1.946   1.589 -2.4969  0.2352  1.0598
 1732TIP3   OH226830   0.935   1.062   2.494  0.8212 -0.1160 -0.4070
 1732TIP3    H126831   0.897   1.122   2.557 -0.8579 -0.0878 -1.3798
 1732TIP3    H226832   0.980   1.118   2.431  1.3297 -0.0527  0.0097
 1733TIP3   OH226833   0.954   1.536   0.630  0.3562 -0.2681 -0.0752
 1733TIP3    H126834   1.012   1.588   0.686  0.8459 -0.0123 -0.8151
 1733TIP3    H226835   1.011   1.499   0.564 -0.0824 -1.3070  0.1119
 1734TIP3   OH226836   2.020   6.712   1.461  0.0489 -0.3085  0.4736
 1734TIP3    H126837   2.102   6.727   1.415  0.3050  0.2332  1.0952
 1734TIP3    H226838   1.953   6.718   1.393  0.3889  0.8670  0.2213
 1735TIP3   OH226839   2.681   4.422   0.883  0.4114  0.0411  0.0346
 1735TIP3    H126840   2.684   4.513   0.854  1.2868  0.3428  0.9927
 1735TIP3    H226841   2.591   4.408   0.912 -0.8523 -0.5872 -3.5926
 1736TIP3   OH226842   5.587   6.023   8.152  0.0664 -0.2119 -0.1811
 1736TIP3    H126843   5.567   6.081   8.079 -1.5139 -0.1621  0.2576
 1736TIP3    H226844   5.645   6.075   8.208 -1.6108  1.1505  0.3951
 1737TIP3   OH226845   4.152   2.005   7.239 -0.5534  0.3963 -0.4169
 1737TIP3    H126846   4.203   2.071   7.192  0.3823  0.2994  0.4237
 1737TIP3    H226847   4.110   2.053   7.310  1.8940 -0.1885  1.5717
 1738TIP3   OH226848   6.538   2.402   1.491 -0.2729 -0.0743  0.0037
 1738TIP3    H126849   6.476   2.335   1.464 -0.3834 -0.0692  0.2480
 1738TIP3    H226850   6.543   2.462   1.416  0.3806 -0.7459 -0.5082
 1739TIP3   OH226851   3.185   0.191   0.340 -0.2588  0.0616  0.0117
 1739TIP3    H126852   3.168   0.167   0.249  5.3073 -0.1378 -1.3767
 1739TIP3    H226853   3.198   0.286   0.337  2.4620 -0.2350 -0.1494
 1740TIP3   OH226854   5.292   1.976   1.725 -0.2397  0.2518 -0.0071
 1740TIP3    H126855   5.204   1.974   1.762 -0.8490 -0.6530 -1.4410
 1740TIP3    H226856   5.347   1.937   1.794 -1.1451 -0.2826  0.4410
 1741TIP3   OH226857   2.166   3.449   1.072  0.4900  0.1473 -0.5551
 1741TIP3    H126858   2.157   3.363   1.112  2.2459 -0.0782 -0.5346
 1741TIP3    H226859   2.140   3.511   1.140 -0.7109 -0.3490 -0.5441
 1742TIP3   OH226860   6.742   2.056   0.152 -0.6816  0.2996  0.9084
 1742TIP3    H126861   6.676   1.988   0.150 -0.6098  0.1916  1.8188
 1742TIP3    H226862   6.701   2.131   0.108 -1.6395  0.4319  2.0011
 1743TIP3   OH226863   3.290   1.642   7.704 -0.2603  0.2463  0.4337
 1743TIP3    H126864   3.244   1.715   7.744 -1.0692  0.2205 -0.4271
 1743TIP3    H226865   3.342   1.682   7.634 -0.1494  0.0823  0.4205
 1744TIP3   OH226866   1.331   3.971   8.577  0.1441  0.7413 -0.6464
 1744TIP3    H126867   1.352   3.939   8.489 -0.7619  1.2429 -1.0556
 1744TIP3    H226868   1.411   3.955   8.628  0.6588  0.3964 -1.5425
 1745TIP3   OH226869   0.513   6.364   7.499 -0.1771 -0.5266 -0.3822
 1745TIP3    H126870   0.536   6.457   7.503 -0.2035 -0.4561 -1.5355
 1745TIP3    H226871   0.434   6.356   7.552 -0.0556  0.0740 -0.1065
 1746TIP3   OH226872   3.062   4.065   7.179  0.4476 -0.4517 -0.4226
 1746TIP3    H126873   3.006   4.057   7.256 -0.3210  1.3021 -0.7555
 1746TIP3    H226874   3.151   4.057   7.213  0.0943 -0.5478  0.5214
 1747TIP3   OH226875   0.941   5.713   1.870 -0.3108 -0.2787 -0.1239
 1747TIP3    H126876   1.029   5.676   1.878 -0.1846 -0.2505 -1.2199
 1747TIP3    H226877   0.883   5.637   1.863 -0.0474 -0.3478 -2.4268
 1748TIP3   OH226878   0.550   3.392   1.093  0.1916  0.1849  0.7143
 1748TIP3    H126879   0.477   3.336   1.119 -0.0400  0.7976  1.4308
 1748TIP3    H226880   0.613   3.333   1.053  0.2772 -0.7086  2.1081
 1749TIP3   OH226881   3.598   1.839   1.254 -0.3874  0.0859  0.1456
 1749TIP3    H126882   3.515   1.801   1.282 -0.7389  0.7158 -0.0212
 1749TIP3    H226883   3.586   1.856   1.161 -0.7490  1.8841  0.4919
 1750TIP3   OH226884   4.911   2.367   6.601  0.6845 -0.2998 -0.1930
 1750TIP3    H126885   4.900   2.420   6.521 -0.4931 -0.5119 -0.1983
 1750TIP3    H226886   4.891   2.277   6.573 -3.1411 -0.0006  0.9249
 1751TIP3   OH226887   2.568   0.852   0.465 -0.0748  0.3221 -0.0558
 1751TIP3    H126888   2.596   0.761   0.459 -0.3793  0.1812  0.5709
 1751TIP3    H226889   2.483   0.849   0.507 -1.4194  0.7065 -2.5571
 1752TIP3   OH226890   2.891   6.212   7.904  0.2915  0.2911 -0.5457
 1752TIP3    H126891   2.847   6.181   7.825 -0.9172  0.0337  0.1860
 1752TIP3    H226892   2.965   6.153   7.915 -0.1267 -0.3232 -0.9321
 1753TIP3   OH226893   0.222   3.336   8.088  0.2763  0.5406  0.2167
 1753TIP3    H126894   0.130   3.347   8.111  0.4028 -0.4583  1.2721
 1753TIP3    H226895   0.257   3.276   8.154  1.3837 -0.0751 -0.8771
 1754TIP3   OH226896   1.613   5.011   2.517  0.2371 -0.7814 -0.6817
 1754TIP3    H126897   1.704   4.992   2.536 -0.1812 -1.9717  0.2526
 1754TIP3    H226898   1.567   4.929   2.535 -1.2946  0.3484  0.8748
 1755TIP3   OH226899   5.145   1.215   0.887 -0.2431 -0.1866 -0.0243
 1755TIP3    H126900   5.080   1.282   0.869 -1.3860 -0.9040  1.3034
 1755TIP3    H226901   5.228   1.263   0.894 -0.9198  0.9758  0.2042
 1756TIP3   OH226902   0.982   2.208   1.858 -0.2253  0.0857  0.0058
 1756TIP3    H126903   1.033   2.214   1.939 -0.0185  0.2599 -0.1360
 1756TIP3    H226904   1.029   2.265   1.796  0.1706 -0.8060 -0.5326
 1757TIP3   OH226905   4.585   5.263   7.897 -0.0766 -0.1578  0.0554
 1757TIP3    H126906   4.615   5.175   7.918 -2.5956 -1.3856 -0.9765
 1757TIP3    H226907   4.567   5.303   7.983  2.1443 -0.1834  0.5756
 1758TIP3   OH226908   5.776   2.709   1.362 -0.1348 -0.1275 -0.2363
 1758TIP3    H126909   5.772   2.781   1.425  1.0822 -1.0206  0.9263
 1758TIP3    H226910   5.696   2.660   1.376 -0.6454  0.5966 -0.5569
 1759TIP3   OH226911   4.527   1.013   6.562 -0.1858  0.2924  0.1882
 1759TIP3    H126912   4.474   1.080   6.606  0.2956  0.2298  0.8712
 1759TIP3    H226913   4.512   1.029   6.469  1.0650  2.3053  0.2735
 1760TIP3   OH226914   5.923   6.239   7.941 -0.3898  0.0247  0.8352
 1760TIP3    H126915   5.911   6.314   8.000 -1.7847  0.0732  0.5273
 1760TIP3    H226916   5.835   6.222   7.906  0.0520 -1.2643  0.2979
 1761TIP3   OH226917   6.853   5.673   1.181  0.3170  0.1023  0.0269
 1761TIP3    H126918   6.868   5.580   1.197  0.7569  0.1210 -0.2690
 1761TIP3    H226919   6.909   5.695   1.107  0.8760  0.7998  0.6362
 1762TIP3   OH226920   1.898   1.448   8.508 -0.3866 -1.1347  0.5456
 1762TIP3    H126921   1.950   1.499   8.446 -0.0797 -2.1412 -0.0509
 1762TIP3    H226922   1.948   1.450   8.589 -0.6669 -0.0132  0.7037
 1763TIP3   OH226923   2.847   4.999   7.407 -0.5994 -0.4938 -0.3587
 1763TIP3    H126924   2.932   4.984   7.366 -0.7395 -0.5489 -0.6328
 1763TIP3    H226925   2.784   4.973   7.340 -0.8365  0.1141 -0.3737
 1764TIP3   OH226926   6.353   5.444   7.661 -0.2040 -0.0900 -0.3585
 1764TIP3    H126927   6.357   5.463   7.755  0.6791 -0.6228 -0.2855
 1764TIP3    H226928   6.441   5.417   7.638 -0.4050  0.0752 -1.3612
 1765TIP3   OH226929   5.607   1.781   8.421 -0.0210 -0.0838 -0.2031
 1765TIP3    H126930   5.680   1.780   8.482 -1.4374  0.1362  1.5637
 1765TIP3    H226931   5.629   1.851   8.359  0.0876  1.8444  1.8781
 1766TIP3   OH226932   4.953   3.876   1.206  0.9269  0.5847 -0.3462
 1766TIP3    H126933   4.870   3.920   1.227  1.2539 -0.1571  3.2428
 1766TIP3    H226934   4.933   3.823   1.129 -2.0704  0.2150  0.5452
 1767TIP3   OH226935   1.307   1.167   1.045  0.2222  0.2118  0.4886
 1767TIP3    H126936   1.382   1.168   1.105  0.5181 -0.9352  0.1681
 1767TIP3    H226937   1.288   1.074   1.032  0.7811  0.3720 -1.9464
 1768TIP3   OH226938   6.180   3.785   1.493  0.4273  0.0795  0.1488
 1768TIP3    H126939   6.230   3.851   1.446 -1.4008  0.7411 -0.9729
 1768TIP3    H226940   6.144   3.832   1.569 -0.3720  0.2628 -0.3223
 1769TIP3   OH226941   2.162   1.693   7.046 -0.6572 -0.5767  0.4526
 1769TIP3    H126942   2.163   1.696   6.950 -0.6871 -1.9906  0.3856
 1769TIP3    H226943   2.255   1.699   7.070 -0.6213 -0.5944  0.3221
 1770TIP3   OH226944   1.247   4.471   0.832  0.2993  0.3247 -0.5094
 1770TIP3    H126945   1.319   4.495   0.773  0.6177 -0.5258 -0.4849
 1770TIP3    H226946   1.286   4.408   0.893 -0.3149  0.3197 -0.1155
 1771TIP3   OH226947   5.455   5.806   6.285  0.2173 -0.5922 -0.9548
 1771TIP3    H126948   5.526   5.860   6.319  0.9462 -1.6157 -0.7734
 1771TIP3    H226949   5.499   5.741   6.231 -0.7003 -0.5572 -1.7711
 1772TIP3   OH226950   2.001   2.870   8.620  0.3187  0.1861  0.6479
 1772TIP3    H126951   1.921   2.891   8.669 -0.3662  0.2729 -0.4707
 1772TIP3    H226952   1.998   2.775   8.611  0.6362  0.1312  1.0696
 1773TIP3   OH226953   4.675   3.480   0.987 -0.0302 -0.9261 -0.0597
 1773TIP3    H126954   4.746   3.543   1.002 -0.1528 -0.7199 -0.3253
 1773TIP3    H226955   4.718   3.404   0.948  0.3778 -1.7008  1.8373
 1774TIP3   OH226956   6.600   6.105   6.448 -0.0504  0.1454  0.3219
 1774TIP3    H126957   6.622   6.014   6.430 -0.2640 -0.1097  1.3206
 1774TIP3    H226958   6.680   6.153   6.428  0.7807 -0.5279  1.9272
 1775TIP3   OH226959   0.565   1.328   7.985 -0.4774 -0.3640 -0.2727
 1775TIP3    H126960   0.589   1.236   7.998 -2.0798 -0.6019  1.3469
 1775TIP3    H226961   0.622   1.376   8.045  1.1214 -0.1330 -1.8921
 1776TIP3   OH226962   2.611   2.981   0.013  0.0636 -0.4759 -0.3653
 1776TIP3    H126963   2.616   3.055   0.074  0.1582 -0.5366 -0.3003
 1776TIP3    H226964   2.522   2.947   0.024 -0.5495  0.6359 -1.5720
 1777TIP3   OH226965   5.320   2.975   7.866  0.1994  0.0704  0.4648
 1777TIP3    H126966   5.390   2.917   7.896  1.9774  0.1651 -2.9610
 1777TIP3    H226967   5.253   2.916   7.833  0.7736 -0.0711 -0.4801
 1778TIP3   OH226968   2.417   5.903   1.833 -0.7232  0.7308 -0.4316
 1778TIP3    H126969   2.324   5.895   1.851 -0.9516  0.0194 -1.8097
 1778TIP3    H226970   2.457   5.829   1.880 -0.6854  1.6468  1.0470
 1779TIP3   OH226971   6.505   1.720   1.133 -0.8080  0.3206 -0.1313
 1779TIP3    H126972   6.463   1.634   1.137  0.1328 -0.1501 -0.1109
 1779TIP3    H226973   6.595   1.701   1.105  0.1711  1.0223  2.2862
 1780TIP3   OH226974   2.507   2.946   0.740  0.4923 -0.0787  0.2813
 1780TIP3    H126975   2.565   2.877   0.774 -0.9285 -2.3303 -1.6033
 1780TIP3    H226976   2.560   3.025   0.746  1.8105 -0.9922  3.6499
 1781TIP3   OH226977   3.198   2.293   6.395  0.2578 -0.2517 -0.4658
 1781TIP3    H126978   3.241   2.207   6.388  1.2030  0.2044 -0.3043
 1781TIP3    H226979   3.254   2.352   6.346  1.1252  0.8270  1.7274
 1782TIP3   OH226980   5.025   0.500   0.993 -0.1936  0.0733 -0.0907
 1782TIP3    H126981   5.071   0.437   0.937 -1.1881 -1.0949  0.3504
 1782TIP3    H226982   5.092   0.564   1.017  0.4138  0.2710 -2.0770
 1783TIP3   OH226983   4.933   0.079   8.442  0.7948 -0.4954  0.5217
 1783TIP3    H126984   4.869   0.014   8.411  0.0906 -0.7733  2.3949
 1783TIP3    H226985   4.887   0.163   8.436  1.0318 -0.4006 -0.1028
 1784TIP3   OH226986   5.643   3.660   0.795  0.0357 -0.1573  0.2501
 1784TIP3    H126987   5.729   3.619   0.799  0.7106  1.2693  2.8537
 1784TIP3    H226988   5.642   3.720   0.870 -3.2354 -0.1155  0.3063
 1785TIP3   OH226989   3.745   6.418   0.860  0.2741  0.0806 -0.3459
 1785TIP3    H126990   3.737   6.486   0.927 -0.0054  0.2692 -0.5674
 1785TIP3    H226991   3.837   6.395   0.860  0.6071  1.3508 -1.1425
 1786TIP3   OH226992   0.470   0.655   1.695  0.3736 -0.0836 -0.7273
 1786TIP3    H126993   0.472   0.687   1.785  1.1824 -0.4619 -0.6001
 1786TIP3    H226994   0.475   0.735   1.642  2.4108  0.0591 -0.4112
 1787TIP3   OH226995   6.363   4.245   1.595  0.6987  0.2157  0.0402
 1787TIP3    H126996   6.384   4.254   1.688  2.2060  0.4921 -0.3002
 1787TIP3    H226997   6.321   4.327   1.572 -2.0629 -0.8057  1.0152
 1788TIP3   OH226998   4.990   6.182   8.475 -0.5070 -0.1132 -0.1461
 1788TIP3    H126999   4.944   6.243   8.417  0.6573 -0.1515 -1.1519
 1788TIP3    H227000   5.066   6.154   8.424  0.6614 -0.0014  1.4687
 1789TIP3   OH227001   2.841   2.604   1.629 -0.2414  0.8471 -0.0059
 1789TIP3    H127002   2.870   2.601   1.720 -1.8410  0.1234  0.5181
 1789TIP3    H227003   2.786   2.527   1.619 -1.0518  1.5518 -1.2353
 1790TIP3   OH227004   2.735   5.376   7.848 -0.4301 -0.0399 -0.0519
 1790TIP3    H127005   2.697   5.411   7.767 -0.3237 -0.8520 -0.4650
 1790TIP3    H227006   2.808   5.435   7.867  0.0141 -0.2668 -0.9747
 1791TIP3   OH227007   2.006   1.947   1.212 -0.7313  0.1417 -0.0967
 1791TIP3    H127008   2.037   2.022   1.262  1.4210 -0.1055 -0.9132
 1791TIP3    H227009   1.929   1.916   1.258  1.1091 -0.0812  3.1025
 1792TIP3   OH227010   1.900   5.538   0.889 -0.6610 -0.3619  0.2246
 1792TIP3    H127011   1.910   5.598   0.814 -0.0533 -1.5759 -0.6898
 1792TIP3    H227012   1.884   5.596   0.963 -1.0307  0.8939 -0.7967
 1793TIP3   OH227013   4.011   2.052   8.481  0.1740 -0.3226  0.1580
 1793TIP3    H127014   4.012   2.142   8.513 -1.0022 -0.4035  0.4875
 1793TIP3    H227015   4.032   1.999   8.558 -0.8665 -0.4129  0.3992
 1794TIP3   OH227016   3.953   2.384   6.814  0.2984  1.2755 -0.2302
 1794TIP3    H127017   3.960   2.292   6.842 -0.0208  0.8113 -1.5780
 1794TIP3    H227018   3.859   2.399   6.806  0.3643  1.5562 -0.4978
 1795TIP3   OH227019   0.811   2.159   8.288 -0.4086  0.3047  0.5268
 1795TIP3    H127020   0.833   2.217   8.216  1.1848  0.6927  1.2780
 1795TIP3    H227021   0.727   2.190   8.320 -0.7875  0.5687 -0.7051
 1796TIP3   OH227022   4.835   2.885   8.102  0.0308  0.0744  0.1274
 1796TIP3    H127023   4.771   2.829   8.058  1.0219 -0.5255 -0.5869
 1796TIP3    H227024   4.801   2.973   8.091 -0.9185 -0.2760  0.1809
 1797TIP3   OH227025   2.192   3.341   0.279  0.0023  0.3627 -0.5168
 1797TIP3    H127026   2.098   3.324   0.271  0.0635 -0.3671  0.1054
 1797TIP3    H227027   2.232   3.256   0.262  0.4199  0.1489  1.3370
 1798TIP3   OH227028   1.533   1.448   7.244 -0.1574 -0.2676  0.5461
 1798TIP3    H127029   1.501   1.528   7.286 -0.1441 -0.9395  1.8860
 1798TIP3    H227030   1.556   1.475   7.155 -1.3874  0.9328  0.5626
 1799TIP3   OH227031   2.518   2.714   0.261 -0.1793  0.0598  0.1813
 1799TIP3    H127032   2.494   2.770   0.335 -1.2985 -0.2175  0.0537
 1799TIP3    H227033   2.454   2.735   0.193  0.6409  0.0855 -0.6057
 1800TIP3   OH227034   1.240   3.938   0.722  0.1791  0.0894 -0.4600
 1800TIP3    H127035   1.170   3.989   0.764  1.0323 -0.0266  1.1728
 1800TIP3    H227036   1.306   4.004   0.699 -0.9257  0.3759 -3.1347
 1801TIP3   OH227037   4.697   1.146   0.239 -0.0615  0.2409  0.4453
 1801TIP3    H127038   4.714   1.066   0.189  0.1198  0.4458  0.1787
 1801TIP3    H227039   4.780   1.164   0.284  0.9837  2.0474 -1.9798
 1802TIP3   OH227040   1.053   0.045   6.829 -0.2739  0.1498 -0.5905
 1802TIP3    H127041   0.979   0.032   6.889  0.7430  0.5460  0.8050
 1802TIP3    H227042   1.021   0.109   6.766 -1.7743 -1.1739 -1.2415
 1803TIP3   OH227043   3.358   0.814   1.851 -0.1079 -0.6171  0.0219
 1803TIP3    H127044   3.421   0.772   1.910  1.4127 -0.8954 -1.6943
 1803TIP3    H227045   3.386   0.906   1.848 -1.0002 -0.3127  0.7335
 1804TIP3   OH227046   3.339   5.347   7.644  0.5620 -0.1392 -0.4349
 1804TIP3    H127047   3.329   5.291   7.721 -0.7771  0.8320  0.1569
 1804TIP3    H227048   3.421   5.394   7.659  0.5011 -0.2314  0.2403
 1805TIP3   OH227049   4.981   5.158   8.631 -0.0533 -0.1270  0.4886
 1805TIP3    H127050   4.952   5.249   8.628 -0.5457 -0.3073 -0.5045
 1805TIP3    H227051   4.909   5.111   8.672 -0.4996 -0.3170 -0.4898
 1806TIP3   OH227052   2.242   5.560   1.645 -0.2262  0.0533  0.0467
 1806TIP3    H127053   2.256   5.576   1.738  0.5446 -0.1477 -0.0258
 1806TIP3    H227054   2.170   5.497   1.642 -1.6825  1.6334  0.4123
 1807TIP3   OH227055   5.169   1.212   8.581  0.0119 -0.0259  0.1435
 1807TIP3    H127056   5.078   1.234   8.565  0.5198  1.6231 -0.7521
 1807TIP3    H227057   5.192   1.151   8.511 -0.1117  0.4354 -0.3031
 1808TIP3   OH227058   1.272   1.486   2.165  0.5730 -0.1353  0.1300
 1808TIP3    H127059   1.240   1.481   2.255  0.7319  2.0279  0.3492
 1808TIP3    H227060   1.367   1.480   2.173  0.6188  0.5979  0.1660
 1809TIP3   OH227061   2.672   4.859   7.249 -0.0386  0.1060  0.1640
 1809TIP3    H127062   2.620   4.838   7.327 -1.7927  0.1312 -0.9559
 1809TIP3    H227063   2.613   4.910   7.194  1.8213  1.8508 -0.3228
 1810TIP3   OH227064   4.830   5.334   6.931 -0.2889  0.8290 -0.0204
 1810TIP3    H127065   4.774   5.329   6.853  0.6377  2.6253 -0.8805
 1810TIP3    H227066   4.886   5.257   6.925 -1.6284 -0.1728  0.0307
 1811TIP3   OH227067   5.420   1.102   2.563 -0.2387 -0.1116 -0.4694
 1811TIP3    H127068   5.486   1.043   2.527  0.3412 -0.5313  1.1986
 1811TIP3    H227069   5.406   1.167   2.494  0.7731 -0.8972 -1.4520
 1812TIP3   OH227070   4.908   5.760   0.057  0.0397 -0.0267  0.0203
 1812TIP3    H127071   4.929   5.727   0.144 -0.6176 -0.1240  0.1530
 1812TIP3    H227072   4.948   5.847   0.054  0.5377 -0.2491  0.2115
 1813TIP3   OH227073   0.566   5.046   2.191  0.5327 -0.1390 -0.4737
 1813TIP3    H127074   0.511   5.102   2.137 -1.0016 -1.2898 -0.1744
 1813TIP3    H227075   0.510   5.022   2.266  2.0870  0.1827  0.8584
 1814TIP3   OH227076   5.026   2.384   8.591  0.1149  0.3708  0.4043
 1814TIP3    H127077   4.990   2.308   8.638 -0.5259  0.2680 -0.2382
 1814TIP3    H227078   5.081   2.346   8.523  1.5373  0.5292  1.4314
 1815TIP3   OH227079   4.005   3.990   1.597 -0.1828 -0.4287 -0.3726
 1815TIP3    H127080   4.019   4.038   1.679 -1.7540  0.7932 -0.7700
 1815TIP3    H227081   4.093   3.966   1.568  0.5087  0.4771  0.8807
 1816TIP3   OH227082   3.635   0.041   6.949 -0.4429 -0.1394 -1.0570
 1816TIP3    H127083   3.706  -0.022   6.959  1.1701  1.4070 -2.1704
 1816TIP3    H227084   3.649   0.081   6.864 -1.6082  1.4833 -0.5459
 1817TIP3   OH227085   4.118   6.262   0.500 -0.5812  0.3269 -0.5498
 1817TIP3    H127086   4.165   6.305   0.428  3.8819 -2.5908  0.2016
 1817TIP3    H227087   4.115   6.170   0.475  0.2674 -0.6223  2.4479
 1818TIP3   OH227088   6.077   6.691   1.173  0.0805  0.2275  0.4612
 1818TIP3    H127089   6.003   6.667   1.117 -0.0607  0.6400  0.4621
 1818TIP3    H227090   6.047   6.675   1.262 -0.5479  1.7561  0.5528
 1819TIP3   OH227091   1.617   5.975   7.844 -0.3530  0.1752  0.2453
 1819TIP3    H127092   1.693   5.972   7.902 -0.9152  2.1029  1.1471
 1819TIP3    H227093   1.555   6.032   7.889 -0.5222  2.4189 -2.5451
 1820TIP3   OH227094   2.597   1.032   1.229  0.2987 -0.0547 -0.1071
 1820TIP3    H127095   2.576   0.988   1.311  0.9227 -1.4265 -0.6450
 1820TIP3    H227096   2.692   1.033   1.226  0.3855 -2.6294 -2.0587
 1821TIP3   OH227097   1.887   6.834   6.449  0.4092 -0.6049 -0.0285
 1821TIP3    H127098   1.892   6.872   6.537 -2.4668  0.7441 -0.3293
 1821TIP3    H227099   1.974   6.849   6.411  0.5186  2.5446  1.1752
 1822TIP3   OH227100   3.829   3.291   8.354  0.7306  0.4200 -0.1276
 1822TIP3    H127101   3.769   3.301   8.427 -0.3776  2.4172 -1.2187
 1822TIP3    H227102   3.810   3.204   8.319 -0.4674  0.4208  0.4645
 1823TIP3   OH227103   4.706   3.156   7.463  0.2733  0.2177 -0.2997
 1823TIP3    H127104   4.615   3.170   7.438 -0.4124  0.4268  2.0597
 1823TIP3    H227105   4.757   3.208   7.401 -1.2480  0.5594 -1.3065
 1824TIP3   OH227106   1.184   3.669   0.538  0.5110  0.6840 -0.5660
 1824TIP3    H127107   1.100   3.706   0.566  0.3354  0.4683 -0.8031
 1824TIP3    H227108   1.240   3.746   0.524  0.2412  0.8496 -0.7618
 1825TIP3   OH227109   4.469   1.504   2.237  0.0037  0.0710 -0.2727
 1825TIP3    H127110   4.485   1.528   2.145 -1.3084 -1.1425 -0.8580
 1825TIP3    H227111   4.527   1.430   2.253  0.2947  0.3371 -0.0942
 1826TIP3   OH227112   5.171   4.650   7.015  0.4417  0.2474  0.5581
 1826TIP3    H127113   5.133   4.565   6.994 -1.0978  0.5297  2.0213
 1826TIP3    H227114   5.176   4.695   6.931  0.1897 -0.8472 -0.0642
 1827TIP3   OH227115   0.989   6.381   0.754 -0.4105  0.0779 -0.2515
 1827TIP3    H127116   1.025   6.440   0.688  0.8758  0.4450  0.7594
 1827TIP3    H227117   1.039   6.300   0.744 -0.6179 -0.0717 -0.0981
 1828TIP3   OH227118   0.993   2.152   7.651  0.3253 -0.1133 -0.6162
 1828TIP3    H127119   1.087   2.136   7.652  0.5919  1.2640 -1.0113
 1828TIP3    H227120   0.983   2.230   7.596 -0.8796  0.6344  0.6009
 1829TIP3   OH227121   3.497   1.644   8.410  0.2383 -0.0266 -0.4822
 1829TIP3    H127122   3.578   1.678   8.371  1.1990  1.2523  2.3975
 1829TIP3    H227123   3.508   1.657   8.504 -1.6151 -3.6096  0.3997
 1830TIP3   OH227124   3.081   0.458   8.785 -0.2706  0.2712 -0.2085
 1830TIP3    H127125   3.169   0.480   8.756 -0.4677  0.5074 -0.6356
 1830TIP3    H227126   3.042   0.542   8.810 -0.3501  0.1594  0.0465
 1831TIP3   OH227127   6.742   4.535   7.008  0.1612 -0.4889 -0.0225
 1831TIP3    H127128   6.799   4.528   7.084  1.8671 -1.4673 -1.3171
 1831TIP3    H227129   6.789   4.593   6.947 -1.7147  1.2652  0.0754
 1832TIP3   OH227130   3.475   5.316   1.084 -0.3427  0.6003 -0.0217
 1832TIP3    H127131   3.468   5.221   1.080  2.0608  0.2892  0.9366
 1832TIP3    H227132   3.422   5.348   1.012  0.2454 -1.5723 -1.5167
 1833TIP3   OH227133   4.049   3.082   1.211  0.2422 -0.0668  0.3499
 1833TIP3    H127134   4.144   3.068   1.204  0.1878 -0.3003  0.0786
 1833TIP3    H227135   4.018   3.080   1.121 -0.0530 -0.1991  0.4570
 1834TIP3   OH227136   1.101   1.738   7.856  0.0486 -0.0440 -0.4956
 1834TIP3    H127137   1.155   1.735   7.935 -2.3208  0.6547  1.2910
 1834TIP3    H227138   1.084   1.831   7.842  1.5921 -0.0230 -2.7835
 1835TIP3   OH227139   6.483   2.340   7.412  0.4130  0.0818  0.6386
 1835TIP3    H127140   6.397   2.297   7.411  1.1858 -1.6554  2.4041
 1835TIP3    H227141   6.513   2.337   7.321 -1.6296  1.3374 -0.1555
 1836TIP3   OH227142   6.257   3.218   8.533  0.1637 -0.5482  0.0634
 1836TIP3    H127143   6.263   3.132   8.491  1.4685 -0.4742  0.0541
 1836TIP3    H227144   6.227   3.277   8.464 -0.1050 -0.8814 -0.1058
 1837TIP3   OH227145   5.327   2.043   6.897  0.0917 -0.0256  0.4300
 1837TIP3    H127146   5.416   2.008   6.887  0.6706  1.4262  0.3274
 1837TIP3    H227147   5.304   2.074   6.810 -1.2320 -1.9128  0.0312
 1838TIP3   OH227148   1.197   3.801   8.126 -0.1495 -0.1045  0.0839
 1838TIP3    H127149   1.217   3.718   8.169  0.5183 -0.7272 -1.3550
 1838TIP3    H227150   1.116   3.831   8.166  0.0034 -1.0746  1.1504
 1839TIP3   OH227151   3.497   3.166   6.502  0.1668 -0.1498  0.0361
 1839TIP3    H127152   3.580   3.171   6.456  0.5507  0.6697  0.7824
 1839TIP3    H227153   3.458   3.083   6.474  1.8183 -1.1645  0.6265
 1840TIP3   OH227154   2.058   3.587   1.511 -0.4931  0.4966 -0.1675
 1840TIP3    H127155   1.971   3.575   1.474 -0.3511  0.2322 -0.4225
 1840TIP3    H227156   2.108   3.512   1.479 -0.6515 -0.3344  1.4185
 1841TIP3   OH227157   5.591   1.552   0.047 -0.3872  0.2460  0.6217
 1841TIP3    H127158   5.559   1.521   0.131 -0.8157  3.8114  1.9515
 1841TIP3    H227159   5.521   1.608   0.013  1.2937  2.0259 -0.1539
 1842TIP3   OH227160   3.348   0.959   7.844  0.2264 -0.3499 -0.8748
 1842TIP3    H127161   3.321   1.043   7.805  1.6086 -0.2092 -1.6042
 1842TIP3    H227162   3.400   0.984   7.920 -0.2829 -0.5768 -0.4511
 1843TIP3   OH227163   1.099   0.616   0.585 -0.1743 -0.1026  0.4258
 1843TIP3    H127164   1.043   0.689   0.611 -0.5546 -0.4963  0.7250
 1843TIP3    H227165   1.062   0.540   0.629  0.5489 -0.3855  0.5625
 1844TIP3   OH227166   0.771   0.217   1.277 -0.5337  0.0280 -0.1182
 1844TIP3    H127167   0.740   0.137   1.235 -1.0718  0.2791 -0.2077
 1844TIP3    H227168   0.703   0.239   1.340  0.5340 -0.6708  1.3442
 1845TIP3   OH227169   1.538   6.118   0.323  0.5266  0.1667  0.2233
 1845TIP3    H127170   1.575   6.037   0.357 -0.6917 -0.4802  0.0296
 1845TIP3    H227171   1.583   6.132   0.240 -0.5238 -1.2960 -0.6292
 1846TIP3   OH227172   1.747   5.976   7.008  0.2444 -0.4531 -0.4261
 1846TIP3    H127173   1.769   5.883   7.019 -1.3691 -0.8541 -0.3449
 1846TIP3    H227174   1.713   5.982   6.919 -0.9131 -0.2250  0.0161
 1847TIP3   OH227175   0.321   4.029   1.365  0.1015  0.0871  0.2608
 1847TIP3    H127176   0.355   4.021   1.277  0.1735  2.3049  0.0159
 1847TIP3    H227177   0.226   4.031   1.354  0.1223  2.3490 -0.0760
 1848TIP3   OH227178   4.310   2.600   6.804  0.2482 -0.5093  0.3804
 1848TIP3    H127179   4.275   2.643   6.883 -1.4364  0.3013 -0.7439
 1848TIP3    H227180   4.368   2.532   6.838 -1.7349 -1.3224  2.3939
 1849TIP3   OH227181   4.674   1.772   0.563  0.4452  0.3197 -0.3090
 1849TIP3    H127182   4.643   1.712   0.630  1.0168 -1.1163 -1.2844
 1849TIP3    H227183   4.728   1.718   0.505  0.8005  1.7274 -1.3537
 1850TIP3   OH227184   0.692   5.177   8.183 -0.0232 -0.0263 -0.2161
 1850TIP3    H127185   0.655   5.093   8.158 -2.0560  0.4214  1.1032
 1850TIP3    H227186   0.625   5.242   8.160  0.7844  1.0594  0.3475
 1851TIP3   OH227187   3.383   6.509   7.591  0.0001  0.1150  0.0348
 1851TIP3    H127188   3.359   6.545   7.506  2.1144  1.1845 -0.1729
 1851TIP3    H227189   3.419   6.423   7.571 -1.0058 -0.3172  0.0460
 1852TIP3   OH227190   0.797   2.590   7.819  0.1448 -0.0288 -0.0456
 1852TIP3    H127191   0.857   2.587   7.745 -1.0254 -1.2630 -0.9932
 1852TIP3    H227192   0.853   2.607   7.895  1.5325 -0.0420 -1.0358
 1853TIP3   OH227193   2.775   3.239   7.266  0.3334  0.1948 -0.2904
 1853TIP3    H127194   2.780   3.295   7.189  1.1677  0.3978 -0.1017
 1853TIP3    H227195   2.865   3.210   7.281  0.1110 -0.2020  0.3401
 1854TIP3   OH227196   6.230   1.269   1.412 -0.4797  0.7712  0.0938
 1854TIP3    H127197   6.287   1.192   1.414 -0.4395  0.8103  0.8719
 1854TIP3    H227198   6.176   1.261   1.490 -0.1851  1.7475  0.4208
 1855TIP3   OH227199   6.235   3.559   8.724 -0.3481 -0.3403 -0.0539
 1855TIP3    H127200   6.318   3.511   8.720 -0.4717 -0.5297 -3.9524
 1855TIP3    H227201   6.259   3.643   8.765  1.4814 -0.9095  0.1560
 1856TIP3   OH227202   5.457   1.663   7.378  0.2881  0.1353  0.2490
 1856TIP3    H127203   5.443   1.640   7.470 -0.4999 -1.3317 -0.2116
 1856TIP3    H227204   5.532   1.609   7.351  1.1116  1.2440  0.2559
 1857TIP3   OH227205   2.932   6.389   0.868  0.3717  0.4693  0.3320
 1857TIP3    H127206   2.854   6.445   0.869  0.1940  0.3201 -1.5370
 1857TIP3    H227207   2.916   6.324   0.936 -0.2919  1.5279  1.2245
 1858TIP3   OH227208   6.047   2.675   8.538  0.0225  0.0824  0.5164
 1858TIP3    H127209   5.993   2.699   8.462 -2.1031  0.7527  2.1377
 1858TIP3    H227210   6.017   2.587   8.561 -0.0737  0.2815  1.1692
 1859TIP3   OH227211   4.081   2.368   1.482  0.2246 -0.5717  0.1743
 1859TIP3    H127212   3.997   2.385   1.439  1.0302  0.9422 -0.8973
 1859TIP3    H227213   4.102   2.278   1.460  1.2521  0.4779 -3.9469
 1860TIP3   OH227214   1.838   0.184   1.189 -0.3861  0.6982 -0.2807
 1860TIP3    H127215   1.840   0.207   1.282  2.0398 -1.2304  0.2404
 1860TIP3    H227216   1.775   0.112   1.184  0.4769 -0.1180  0.1732
 1861TIP3   OH227217   1.914   4.290   7.839  0.5695 -0.1606  0.0448
 1861TIP3    H127218   1.866   4.224   7.789 -0.3697  0.1105  0.5683
 1861TIP3    H227219   2.006   4.265   7.829  0.3056 -0.8896 -0.6929
 1862TIP3   OH227220   6.378   1.023   1.758  0.7405  0.1769  1.1163
 1862TIP3    H127221   6.422   1.017   1.843  2.4179 -1.8317  0.1911
 1862TIP3    H227222   6.437   1.073   1.703  0.2951  0.3278  0.7678
 1863TIP3   OH227223   4.120   3.509   8.346  0.1006  0.0755  0.0866
 1863TIP3    H127224   4.192   3.530   8.286 -0.5278  1.0653 -0.3298
 1863TIP3    H227225   4.041   3.524   8.295 -0.4479  1.0443  1.1799
 1864TIP3   OH227226   3.589   1.598   0.765 -0.0512  0.4327 -0.3262
 1864TIP3    H127227   3.592   1.649   0.684  0.6955  0.8240 -0.0541
 1864TIP3    H227228   3.609   1.661   0.834 -1.1726  0.2050  0.2245
 1865TIP3   OH227229   0.942   2.519   0.893 -0.2278  0.4002 -0.0479
 1865TIP3    H127230   0.877   2.467   0.941 -1.4560  0.1449 -1.8740
 1865TIP3    H227231   0.992   2.454   0.843  0.8345  0.6822  0.6139
 1866TIP3   OH227232   0.372   4.611   7.715 -0.0881 -0.5187 -0.1895
 1866TIP3    H127233   0.444   4.665   7.681  1.8431 -1.2304  2.4134
 1866TIP3    H227234   0.351   4.650   7.800 -1.5674 -1.4193 -0.1063
 1867TIP3   OH227235   6.583   6.331   8.799  0.4156  0.2365  0.1971
 1867TIP3    H127236   6.670   6.344   8.838  1.8707  0.4221 -2.8289
 1867TIP3    H227237   6.582   6.239   8.775 -0.4693  0.1169  0.6694
 1868TIP3   OH227238   1.730   0.805   2.300 -0.1212  0.1347  0.2826
 1868TIP3    H127239   1.649   0.845   2.332 -1.4382 -1.9083 -0.2467
 1868TIP3    H227240   1.704   0.716   2.277  2.0129 -0.1691 -1.1940
 1869TIP3   OH227241   2.733   2.568   0.261  0.2281  0.2235 -0.2067
 1869TIP3    H127242   2.786   2.620   0.321 -0.5817  0.4173  0.3591
 1869TIP3    H227243   2.648   2.611   0.261 -0.0903 -0.3925 -0.6886
 1870TIP3   OH227244   0.572   6.138   8.717 -0.3052 -0.0894 -0.0360
 1870TIP3    H127245   0.579   6.043   8.712  0.9859 -0.0105 -0.1213
 1870TIP3    H227246   0.623   6.162   8.795  1.3057  0.6772 -1.2680
 1871TIP3   OH227247   4.468   2.260   0.119 -0.4833 -0.4013  0.0091
 1871TIP3    H127248   4.541   2.224   0.169 -1.4626 -2.1782  0.2567
 1871TIP3    H227249   4.503   2.338   0.076  1.0405 -0.2136  1.5289
 1872TIP3   OH227250   6.511   4.770   1.099  0.2115 -0.7368  0.5274
 1872TIP3    H127251   6.549   4.803   1.018  0.4516 -1.0691  0.5011
 1872TIP3    H227252   6.418   4.789   1.091 -0.1900 -2.8791 -0.9059
 1873TIP3   OH227253   6.470   0.412   6.583  0.5782 -0.4649 -0.1262
 1873TIP3    H127254   6.403   0.433   6.518  0.4909  0.8027  0.3480
 1873TIP3    H227255   6.426   0.354   6.645  0.5155 -1.2673 -0.9028
 1874TIP3   OH227256   1.659   5.239   0.046 -0.4128  0.3853 -0.0393
 1874TIP3    H127257   1.673   5.321  -0.002 -1.1689  0.8870  0.5829
 1874TIP3    H227258   1.747   5.202   0.055 -0.0267  1.2467 -0.1218
 1875TIP3   OH227259   5.773   5.119   6.972 -0.3504  1.0179 -0.5013
 1875TIP3    H127260   5.724   5.161   7.043 -1.3622  0.0007 -0.5825
 1875TIP3    H227261   5.864   5.121   7.001 -0.8596 -0.3396  1.3456
 1876TIP3   OH227262   5.485   6.793   1.616  0.4300 -0.2531  0.0723
 1876TIP3    H127263   5.550   6.826   1.679  2.5307 -0.3299 -1.9267
 1876TIP3    H227264   5.469   6.867   1.558 -0.8639 -0.4266  0.1915
 1877TIP3   OH227265   5.764   5.604   7.716 -0.5278  0.2222 -0.2613
 1877TIP3    H127266   5.731   5.514   7.720 -0.1469  0.1321  2.1422
 1877TIP3    H227267   5.689   5.655   7.683 -1.9308 -0.5009  1.6278
 1878TIP3   OH227268   2.916   2.985   0.209  0.1181  0.8641 -0.9418
 1878TIP3    H127269   2.978   3.050   0.176 -1.0519  2.7076  0.3032
 1878TIP3    H227270   2.831   3.013   0.177 -0.3120 -0.7257 -1.3059
 1879TIP3   OH227271   6.744   6.170   6.829 -0.0967  0.6904  0.1194
 1879TIP3    H127272   6.798   6.170   6.749 -0.9470  0.2680 -0.4730
 1879TIP3    H227273   6.656   6.193   6.798 -0.7686 -0.9565  0.6917
 1880TIP3   OH227274   2.360   3.720   0.101  0.7792 -0.9771 -0.0538
 1880TIP3    H127275   2.391   3.770   0.026  0.1588  0.7851  0.8027
 1880TIP3    H227276   2.288   3.772   0.136  2.0084 -0.9276  2.6649
 1881TIP3   OH227277   4.676   2.205   8.195 -0.0108  0.0573  0.3524
 1881TIP3    H127278   4.680   2.110   8.183 -1.7717  0.0821 -0.7087
 1881TIP3    H227279   4.666   2.240   8.106 -1.4139  1.0849  0.8814
 1882TIP3   OH227280   0.919   2.582   7.113 -0.3043  0.0315  0.9308
 1882TIP3    H127281   0.831   2.582   7.151 -1.4318 -1.8964 -1.4815
 1882TIP3    H227282   0.906   2.601   7.021  1.8484 -0.1418  0.5359
 1883TIP3   OH227283   1.836   1.200   8.366 -0.3620  0.3923  0.3926
 1883TIP3    H127284   1.843   1.264   8.436  1.3211 -0.3359  0.9356
 1883TIP3    H227285   1.926   1.175   8.347 -0.6159  1.4993 -2.9549
 1884TIP3   OH227286   1.830   0.960   7.628  0.1568 -0.0338  0.0318
 1884TIP3    H127287   1.779   0.897   7.679 -3.6387  0.7430 -2.4322
 1884TIP3    H227288   1.804   1.045   7.663 -0.6356  0.3882 -1.4996
 1885TIP3   OH227289   0.396   4.186   1.072  0.4620 -0.2575  0.8149
 1885TIP3    H127290   0.346   4.267   1.064 -0.4978 -0.6971  2.0161
 1885TIP3    H227291   0.380   4.139   0.991  1.6499  1.0587 -0.2333
 1886TIP3   OH227292   6.821   2.100   0.397  0.0592 -0.3276 -0.3610
 1886TIP3    H127293   6.851   2.191   0.394 -0.6801 -0.0641 -0.0086
 1886TIP3    H227294   6.790   2.082   0.308 -0.3217 -0.0430 -0.2906
 1887TIP3   OH227295   2.950   3.465   0.525  0.0391  0.5381  0.1518
 1887TIP3    H127296   2.974   3.411   0.450  2.0082  1.1581  0.2805
 1887TIP3    H227297   3.030   3.469   0.578 -0.6641  1.8869  1.1703
 1888TIP3   OH227298   0.017   3.773   7.866 -0.3614 -0.6092  0.0776
 1888TIP3    H127299   0.013   3.698   7.806 -0.9460 -0.7986  0.3495
 1888TIP3    H227300   0.065   3.740   7.942  0.0162 -0.4920 -0.1091
 1889TIP3   OH227301   3.235   6.368   7.295  0.2278  0.2901 -0.1863
 1889TIP3    H127302   3.273   6.414   7.220  0.5555  1.4474  0.6576
 1889TIP3    H227303   3.145   6.402   7.301 -0.2276 -0.7509 -0.8033
 1890TIP3   OH227304   0.656   4.713   1.618 -0.5681  0.1131 -0.4396
 1890TIP3    H127305   0.721   4.735   1.685 -1.1515 -1.7290  0.8011
 1890TIP3    H227306   0.701   4.729   1.535  0.7851  0.7540  0.3846
 1891TIP3   OH227307   2.384   4.577   8.702  0.5167 -0.7410  0.2011
 1891TIP3    H127308   2.437   4.650   8.672  0.5657 -0.8933 -0.0844
 1891TIP3    H227309   2.360   4.530   8.622  0.9743 -1.3752  0.4271
 1892TIP3   OH227310   0.794   3.807   7.610  0.0554  0.5941  0.3963
 1892TIP3    H127311   0.806   3.902   7.603  1.0472  0.3904 -1.1980
 1892TIP3    H227312   0.786   3.777   7.519  4.1383 -1.3326  0.4578
 1893TIP3   OH227313   4.830   2.570   8.176 -0.5300 -0.5055 -0.5000
 1893TIP3    H127314   4.842   2.591   8.083 -0.3161  2.9299  0.1715
 1893TIP3    H227315   4.753   2.621   8.202  0.9505  0.7257  1.7413
 1894TIP3   OH227316   1.341   5.508   7.815  0.4690  0.3436 -0.2134
 1894TIP3    H127317   1.300   5.547   7.893 -3.3468 -1.3879 -1.1071
 1894TIP3    H227318   1.323   5.570   7.745 -0.8094 -0.4410 -0.6182
 1895TIP3   OH227319   4.400   4.385   0.078 -0.8782  0.5106  0.2798
 1895TIP3    H127320   4.404   4.290   0.087 -1.6577  0.6227  2.3105
 1895TIP3    H227321   4.318   4.401   0.031 -0.3969  0.1849 -0.7082
 1896TIP3   OH227322   6.327   5.439   2.578  0.3711  0.7106  0.4529
 1896TIP3    H127323   6.390   5.425   2.508  1.5691 -2.6001  1.9930
 1896TIP3    H227324   6.379   5.474   2.650 -0.3354  1.5560  0.5757
 1897TIP3   OH227325   1.974   1.509   7.177  0.3974  0.3443 -0.3044
 1897TIP3    H127326   1.934   1.496   7.092 -0.0473  2.0178 -0.3701
 1897TIP3    H227327   2.052   1.562   7.160 -0.8959  2.6292  0.5378
 1898TIP3   OH227328   6.061   4.393   7.803  0.5546  0.2025  0.0675
 1898TIP3    H127329   6.086   4.446   7.879  0.1301  1.4074 -0.6163
 1898TIP3    H227330   6.107   4.432   7.730 -0.1204 -0.0973 -0.5282
 1899TIP3   OH227331   3.912   1.618   0.005 -0.2574 -0.2427  0.8099
 1899TIP3    H127332   4.002   1.588   0.021 -0.4178 -1.5702 -0.5392
 1899TIP3    H227333   3.914   1.651  -0.085 -0.8518  0.8852  1.1935
 1900TIP3   OH227334   1.821   6.332   1.352  0.1257  0.2198  0.2237
 1900TIP3    H127335   1.802   6.400   1.287 -0.2096 -0.5704 -0.5228
 1900TIP3    H227336   1.736   6.309   1.389  0.2683  0.3825  0.6550
 1901TIP3   OH227337   4.845   0.700   0.785  0.0082  0.1440 -0.0897
 1901TIP3    H127338   4.898   0.629   0.748 -2.5711 -1.7141 -0.5012
 1901TIP3    H227339   4.895   0.730   0.861  0.8825 -2.7012  0.5967
 1902TIP3   OH227340   6.560   6.241   7.057  0.1322  0.7088  0.4624
 1902TIP3    H127341   6.604   6.246   7.142 -0.5545 -0.7166  0.9158
 1902TIP3    H227342   6.617   6.184   7.005  1.1646  2.4837 -0.4626
 1903TIP3   OH227343   0.131   4.275   8.444  0.3841 -0.6846 -0.1146
 1903TIP3    H127344   0.085   4.305   8.523  0.5856 -1.2257  0.2165
 1903TIP3    H227345   0.165   4.355   8.404  0.3323 -0.4096  0.3796
 1904TIP3   OH227346   0.188   1.843   0.317 -0.1745  0.0532 -0.4739
 1904TIP3    H127347   0.197   1.927   0.273  2.8672  0.0076 -0.1162
 1904TIP3    H227348   0.232   1.855   0.401  1.1967 -2.1263 -0.8046
 1905TIP3   OH227349   6.078   0.367   8.673  0.1803 -0.9918  0.4791
 1905TIP3    H127350   6.152   0.327   8.627  2.2625 -0.7038  3.3090
 1905TIP3    H227351   6.105   0.458   8.688 -1.4755 -0.4192  0.1641
 1906TIP3   OH227352   2.519   3.658   6.437 -0.3828 -0.5671 -0.3051
 1906TIP3    H127353   2.532   3.631   6.528 -2.0832 -0.7763 -0.1069
 1906TIP3    H227354   2.511   3.754   6.441  1.1220 -0.4092 -0.4571
 1907TIP3   OH227355   4.824   2.419   0.944  0.5662 -0.1514  0.1009
 1907TIP3    H127356   4.760   2.490   0.944  1.1969  0.4334 -0.0606
 1907TIP3    H227357   4.836   2.397   0.852  2.0926  1.1583 -0.0660
 1908TIP3   OH227358   0.447   0.019   1.726 -0.0282  0.4171  0.1969
 1908TIP3    H127359   0.423   0.011   1.633 -0.1426  1.0098  0.1704
 1908TIP3    H227360   0.541   0.039   1.724  0.0781 -0.0632  0.2315
 1909TIP3   OH227361   1.494   6.630   7.954  0.0784  0.0931 -0.5635
 1909TIP3    H127362   1.570   6.666   8.000  0.0054  0.4641 -0.7250
 1909TIP3    H227363   1.451   6.574   8.019  1.0537 -0.9424 -0.7823
 1910TIP3   OH227364   1.350   1.743   0.986  0.2259  0.7252 -0.2997
 1910TIP3    H127365   1.414   1.714   1.050 -0.4902  0.2173  0.2035
 1910TIP3    H227366   1.271   1.760   1.037 -0.7296 -0.8479 -1.1529
 1911TIP3   OH227367   6.624   3.437   7.598  0.1264 -0.3795  0.2829
 1911TIP3    H127368   6.538   3.412   7.566  0.4286  0.9196 -1.7369
 1911TIP3    H227369   6.618   3.431   7.694 -1.5412 -2.2630  0.1052
 1912TIP3   OH227370   5.808   0.920   0.793 -0.0815 -0.3909  0.1595
 1912TIP3    H127371   5.870   0.848   0.784  1.2537  0.6625  0.6860
 1912TIP3    H227372   5.797   0.953   0.704  0.5785 -0.2043  0.1470
 1913TIP3   OH227373   6.335   2.077   7.661 -0.0800  0.6238 -0.1248
 1913TIP3    H127374   6.342   2.087   7.566  0.4884 -0.0908 -0.1679
 1913TIP3    H227375   6.376   1.992   7.679 -1.4755  0.0634  0.5937
 1914TIP3   OH227376   6.118   0.957   1.877 -0.6347  0.1337  0.0291
 1914TIP3    H127377   6.157   0.985   1.959 -0.8663  2.0986 -0.4934
 1914TIP3    H227378   6.192   0.923   1.826 -0.6391 -2.1068  1.3702
 1915TIP3   OH227379   4.513   5.769   0.746  0.0138  0.3190  0.5356
 1915TIP3    H127380   4.529   5.862   0.761 -0.4455  0.3268  1.0319
 1915TIP3    H227381   4.458   5.742   0.820 -0.4878 -0.1714 -0.0061
 1916TIP3   OH227382   1.038   5.492   0.384  0.2126  0.2600  0.2258
 1916TIP3    H127383   1.074   5.459   0.466  0.0581  1.3070  0.7272
 1916TIP3    H227384   0.964   5.546   0.410 -0.3233 -0.0220 -0.6575
 1917TIP3   OH227385   6.002   4.524   1.709  0.9780  0.3382  0.7667
 1917TIP3    H127386   5.966   4.609   1.736  0.4335  0.2281  0.4063
 1917TIP3    H227387   6.027   4.481   1.790  0.7602  0.6245  0.9869
 1918TIP3   OH227388   1.728   3.001   8.692 -0.4288  0.7063 -0.3233
 1918TIP3    H127389   1.683   2.959   8.766 -0.3665 -0.4448 -0.9204
 1918TIP3    H227390   1.658   3.038   8.639 -0.4140  3.5806  1.4076
 1919TIP3   OH227391   1.231   3.409   0.624  0.3834 -0.3677 -0.5019
 1919TIP3    H127392   1.242   3.503   0.610 -1.2515 -0.2591 -1.2843
 1919TIP3    H227393   1.296   3.368   0.568 -1.9369  0.2290 -3.9206
 1920TIP3   OH227394   5.888   3.544   0.815  0.1722  0.5938  0.0224
 1920TIP3    H127395   5.939   3.495   0.752  0.2903 -0.6162  1.0135
 1920TIP3    H227396   5.897   3.494   0.897 -1.1489  1.3085  0.6339
 1921TIP3   OH227397   4.724   4.534   1.566  0.3664  0.4210  0.7097
 1921TIP3    H127398   4.688   4.614   1.605 -0.3542 -0.0116  0.9498
 1921TIP3    H227399   4.700   4.540   1.473 -0.4510  0.0746  0.8916
 1922TIP3   OH227400   0.751   0.050   0.841  0.0172 -0.2201  0.3936
 1922TIP3    H127401   0.831   0.073   0.887  0.7732 -0.1120 -0.9267
 1922TIP3    H227402   0.693   0.125   0.854  0.7910  0.4850 -0.0830
 1923TIP3   OH227403   3.794   1.374   7.674  0.3329  0.3107 -0.5583
 1923TIP3    H127404   3.833   1.452   7.713  2.4244  0.2590 -2.3533
 1923TIP3    H227405   3.763   1.402   7.588 -2.5462  0.0030  0.2640
 1924TIP3   OH227406   6.444   5.436   2.012 -0.1320  0.1880  0.1247
 1924TIP3    H127407   6.396   5.431   2.094  0.4955  0.6597  0.5325
 1924TIP3    H227408   6.503   5.511   2.022  1.1667 -0.7554 -0.0762
 1925TIP3   OH227409   6.381   1.141   0.436 -0.2596 -0.1961 -1.3081
 1925TIP3    H127410   6.381   1.050   0.405  0.5324  0.0749 -2.1302
 1925TIP3    H227411   6.399   1.193   0.358 -0.8039  0.6842 -0.8597
 1926TIP3   OH227412   3.386   5.245   1.455  0.0318 -0.3551 -0.4741
 1926TIP3    H127413   3.292   5.236   1.438  0.5002 -1.3619 -3.1153
 1926TIP3    H227414   3.405   5.177   1.520 -1.2063  0.5985  0.9431
 1927TIP3   OH227415   6.193   0.612   8.660  0.2342 -0.1402 -0.1601
 1927TIP3    H127416   6.258   0.624   8.591  1.3299  2.1609  1.1543
 1927TIP3    H227417   6.144   0.695   8.661  0.2086 -0.1310  1.7427
 1928TIP3   OH227418   3.313   3.458   7.144 -0.3449  0.5294 -0.1313
 1928TIP3    H127419   3.281   3.498   7.063 -2.2684  0.9844  0.7920
 1928TIP3    H227420   3.265   3.375   7.150 -1.0757  1.0178  1.0687
 1929TIP3   OH227421   3.840   5.675   8.493 -0.2079  0.6469 -0.2365
 1929TIP3    H127422   3.851   5.698   8.585  0.1849 -0.8896  0.1264
 1929TIP3    H227423   3.897   5.736   8.446  0.8929  0.3547  0.6774
 1930TIP3   OH227424   6.694   1.602   0.024 -0.2553  0.3849  0.5898
 1930TIP3    H127425   6.721   1.636  -0.062 -0.4023  1.0094  0.7818
 1930TIP3    H227426   6.740   1.657   0.087 -0.5763  0.2869  0.9129
 1931TIP3   OH227427   5.238   3.975   8.783 -0.0482 -0.0891  0.0125
 1931TIP3    H127428   5.274   3.889   8.807  1.4912  0.3034 -0.7372
 1931TIP3    H227429   5.221   3.969   8.689 -0.5099  0.2415  0.0693
 1932TIP3   OH227430   6.520   4.230   8.395  0.0277  0.4993  0.0868
 1932TIP3    H127431   6.571   4.248   8.316  0.6173  0.4377  0.4528
 1932TIP3    H227432   6.481   4.144   8.379  0.5870  0.2454  0.0930
 1933TIP3   OH227433   2.760   4.667   7.058 -0.2438  0.2075  0.1415
 1933TIP3    H127434   2.831   4.602   7.065 -0.3682  0.1088  0.4829
 1933TIP3    H227435   2.760   4.712   7.142 -0.4306  0.3729  0.0542
 1934TIP3   OH227436   5.381   2.307   0.937  0.4865 -0.8752 -0.1111
 1934TIP3    H127437   5.403   2.355   1.017 -0.5995 -0.2687 -0.1607
 1934TIP3    H227438   5.299   2.263   0.958 -1.0296  1.0771 -1.5719
 1935TIP3   OH227439   6.426   6.576   0.098  0.5885 -0.5681  0.2181
 1935TIP3    H127440   6.435   6.510   0.029  1.7371  0.4387 -0.6390
 1935TIP3    H227441   6.397   6.655   0.053 -2.5889 -0.8673  1.4734
 1936TIP3   OH227442   3.927   5.244   7.377  0.3426  0.4478  0.1541
 1936TIP3    H127443   3.851   5.194   7.406  0.9231 -0.8000 -0.4202
 1936TIP3    H227444   4.001   5.207   7.426  0.9219  0.1153 -0.9423
 1937TIP3   OH227445   3.430   4.252   8.745 -0.5800 -0.3538  0.2235
 1937TIP3    H127446   3.493   4.324   8.752 -1.7006  0.7674 -0.6416
 1937TIP3    H227447   3.459   4.202   8.668  0.0695 -0.7044  0.6883
 1938TIP3   OH227448   6.175   4.820   0.399 -0.2424  0.0221  0.1163
 1938TIP3    H127449   6.114   4.747   0.390  1.5943 -1.4931 -0.8504
 1938TIP3    H227450   6.248   4.785   0.449  0.9241  1.0226 -0.8002
 1939TIP3   OH227451   0.530   4.096   0.601  0.5295 -0.4033  0.2134
 1939TIP3    H127452   0.481   4.026   0.559 -0.4207  1.4203 -1.8806
 1939TIP3    H227453   0.463   4.150   0.644  1.1205 -0.0655  0.7314
 1940TIP3   OH227454   6.813   1.897   0.583 -0.0703 -0.1651  0.2148
 1940TIP3    H127455   6.773   1.820   0.542  0.1447  1.0322 -2.4873
 1940TIP3    H227456   6.811   1.964   0.514  1.4208  1.6920  1.8627
 1941TIP3   OH227457   2.967   6.484   7.866  0.3520  0.3928  0.0181
 1941TIP3    H127458   3.048   6.477   7.917  0.2298 -0.7903  0.0755
 1941TIP3    H227459   2.918   6.404   7.887 -1.8674  2.0557  1.7181
 1942TIP3   OH227460   0.139   4.820   7.091 -0.3153 -0.5169  0.3641
 1942TIP3    H127461   0.071   4.835   7.157 -2.8279  1.2069 -2.3364
 1942TIP3    H227462   0.210   4.879   7.115 -0.6163 -0.8613  2.1770
 1943TIP3   OH227463   2.288   2.117   0.920 -0.0344 -0.2786 -0.2587
 1943TIP3    H127464   2.335   2.183   0.870 -1.9048  1.9257  0.6762
 1943TIP3    H227465   2.259   2.054   0.855  0.4143  0.7254 -1.4697
 1944TIP3   OH227466   5.247   5.324   6.739 -0.5577  0.0441 -0.0685
 1944TIP3    H127467   5.161   5.295   6.769 -1.4410  1.7528 -0.8198
 1944TIP3    H227468   5.293   5.349   6.820 -0.4627 -1.5436  0.4012
 1945TIP3   OH227469   4.635   0.118   7.884 -0.3282 -0.0411 -0.8412
 1945TIP3    H127470   4.616   0.120   7.977  1.4083 -0.3915 -0.4536
 1945TIP3    H227471   4.578   0.049   7.849  0.2787 -1.1400  0.2670
 1946TIP3   OH227472   0.773   0.121   2.091 -0.1115  0.0015 -0.3193
 1946TIP3    H127473   0.693   0.172   2.083  0.1594  0.4626 -0.1641
 1946TIP3    H227474   0.744   0.031   2.102 -0.5911  0.0424 -1.1880
 1947TIP3   OH227475   5.753   3.311   8.305 -0.7437  0.2003 -0.7415
 1947TIP3    H127476   5.718   3.350   8.225 -0.2110 -1.6665 -1.9443
 1947TIP3    H227477   5.801   3.233   8.275 -0.8302 -0.7585  1.4287
 1948TIP3   OH227478   1.609   3.444   0.076  0.3116 -0.0664  0.0057
 1948TIP3    H127479   1.577   3.473   0.161  0.6251  0.8139 -0.1601
 1948TIP3    H227480   1.681   3.384   0.096  1.5421  1.4496  0.3997
 1949TIP3   OH227481   3.009   3.236   8.298 -0.1034 -0.2155  0.1381
 1949TIP3    H127482   3.056   3.224   8.380 -1.0888  1.2964  0.9741
 1949TIP3    H227483   3.073   3.217   8.230  1.4756  0.9451  1.2343
 1950TIP3   OH227484   3.837   6.772   0.732  0.2956 -0.0302  0.4544
 1950TIP3    H127485   3.863   6.849   0.681 -0.9568  0.4551  0.5308
 1950TIP3    H227486   3.910   6.710   0.721  2.1161  1.7545  1.7216
 1951TIP3   OH227487   2.551   5.388   0.418  0.8566 -0.1777  0.4161
 1951TIP3    H127488   2.580   5.298   0.433  2.7887  0.3811  0.2331
 1951TIP3    H227489   2.631   5.439   0.415  0.0799  1.0916 -2.7597
 1952TIP3   OH227490   0.653   2.036   7.151  0.3090 -0.0213 -0.2439
 1952TIP3    H127491   0.601   1.967   7.191  0.8095  0.0701  0.5668
 1952TIP3    H227492   0.590   2.086   7.098 -0.1676 -0.7027 -0.3221
 1953TIP3   OH227493   4.482   4.164   7.478  0.1278  0.7501  0.3256
 1953TIP3    H127494   4.569   4.171   7.518  1.1218  0.7193 -1.7030
 1953TIP3    H227495   4.459   4.072   7.488  0.9335  0.4721 -0.2964
 1954TIP3   OH227496   5.574   1.722   2.208  0.4387  0.0237 -0.2444
 1954TIP3    H127497   5.542   1.765   2.288  0.6265  1.5729 -0.9643
 1954TIP3    H227498   5.575   1.629   2.230  0.1462  0.3783  1.4423
 1955TIP3   OH227499   1.343   3.211   8.325 -0.3086 -0.6678  0.1928
 1955TIP3    H127500   1.320   3.135   8.272 -0.0139 -1.1953  0.8065
 1955TIP3    H227501   1.273   3.275   8.307 -1.9087 -1.9597  1.4558
 1956TIP3   OH227502   6.305   4.139   0.811 -0.0361 -0.0548  0.5671
 1956TIP3    H127503   6.387   4.187   0.804 -0.3205  0.2703 -0.8474
 1956TIP3    H227504   6.262   4.175   0.888  0.9664  0.0324  1.1042
 1957TIP3   OH227505   0.207   2.857   0.136  0.2159  0.2414  0.1097
 1957TIP3    H127506   0.219   2.845   0.230 -1.2220 -0.3019  0.2428
 1957TIP3    H227507   0.135   2.921   0.129 -2.2923 -2.4407 -0.5430
 1958TIP3   OH227508   0.208   3.147   0.284 -0.4897  0.2208  0.5446
 1958TIP3    H127509   0.162   3.086   0.342 -2.5513 -1.2817 -2.4090
 1958TIP3    H227510   0.145   3.165   0.214  1.5339  2.6018 -0.8122
 1959TIP3   OH227511   6.601   0.891   8.331 -0.0199 -0.8272  0.4151
 1959TIP3    H127512   6.609   0.897   8.426 -0.8642  0.8433  0.4212
 1959TIP3    H227513   6.660   0.820   8.306  1.6668 -0.0328  1.9854
 1960TIP3   OH227514   4.720   5.579   7.391  0.5209  0.3023  0.1034
 1960TIP3    H127515   4.673   5.648   7.437  1.9857  0.8613  0.8326
 1960TIP3    H227516   4.810   5.587   7.422  1.3340 -0.0366 -2.0215
 1961TIP3   OH227517   2.411   3.317   1.283 -0.2263  0.7533  0.0411
 1961TIP3    H127518   2.455   3.379   1.226  0.2132  0.2893 -0.1308
 1961TIP3    H227519   2.481   3.263   1.320 -0.6077  0.2463  0.0480
 1962TIP3   OH227520   2.939   4.945   0.984 -0.6349  0.7080 -0.5349
 1962TIP3    H127521   2.989   4.960   0.904  0.9910  2.7357  0.7465
 1962TIP3    H227522   2.976   4.865   1.021  0.5779  1.3209 -0.4039
 1963TIP3   OH227523   5.549   4.881   1.110  0.5004  0.1637  0.1640
 1963TIP3    H127524   5.526   4.855   1.199  1.5485  1.3813  0.8263
 1963TIP3    H227525   5.641   4.860   1.101  0.9534  1.9506  0.1463
 1964TIP3   OH227526   2.548   4.931   7.738 -0.0224 -0.1090 -0.2378
 1964TIP3    H127527   2.541   5.015   7.782 -2.1777 -0.0128 -0.6623
 1964TIP3    H227528   2.572   4.869   7.808  0.6527  0.6893  0.2485
 1965TIP3   OH227529   1.768   6.489   6.802 -0.3692 -0.2301  0.4955
 1965TIP3    H127530   1.729   6.468   6.717 -0.6846  2.7510 -0.2162
 1965TIP3    H227531   1.693   6.488   6.863 -0.4406 -0.6801  0.4037
 1966TIP3   OH227532   6.816   4.183   8.705  0.3100  0.1850  0.4922
 1966TIP3    H127533   6.723   4.207   8.709  0.1032 -0.6489  0.8069
 1966TIP3    H227534   6.823   4.103   8.757  1.2360  0.3191  0.5925
 1967TIP3   OH227535   4.888   3.717   2.292  0.2279  0.3448  0.2507
 1967TIP3    H127536   4.907   3.636   2.243  2.1995  0.7040  0.3632
 1967TIP3    H227537   4.801   3.743   2.261 -1.1164 -2.5265  1.1995
 1968TIP3   OH227538   6.637   3.063   0.404  0.2053  0.5325  0.0106
 1968TIP3    H127539   6.576   3.127   0.440  1.6746  1.7082  0.5255
 1968TIP3    H227540   6.586   2.983   0.395 -1.6068  1.6808 -0.3449
 1969TIP3   OH227541   1.499   0.407   2.539 -0.3033  0.5689  0.1984
 1969TIP3    H127542   1.570   0.459   2.577 -0.1823  0.6806 -0.1750
 1969TIP3    H227543   1.512   0.319   2.573 -0.7352  0.8544  1.1510
 1970TIP3   OH227544   4.414   0.658   7.606  0.1076  0.2648 -0.7734
 1970TIP3    H127545   4.403   0.571   7.644  1.0103  0.3402 -0.3196
 1970TIP3    H227546   4.483   0.648   7.541  0.7850  0.8084 -0.1430
 1971TIP3   OH227547   4.147   5.085   8.087  0.2233  0.7087  0.4350
 1971TIP3    H127548   4.059   5.055   8.109  0.3933 -0.7916 -0.7575
 1971TIP3    H227549   4.198   5.067   8.166 -0.3194  0.6267  0.7749
 1972TIP3   OH227550   2.438   3.506   0.626  0.1444 -0.0851 -0.1601
 1972TIP3    H127551   2.419   3.532   0.716 -0.0281 -3.5254  0.9532
 1972TIP3    H227552   2.532   3.490   0.624  0.0920 -0.3762 -0.4965
 1973TIP3   OH227553   5.891   5.330   7.629  0.0049  0.8373 -0.2761
 1973TIP3    H127554   5.801   5.337   7.598 -1.3651  0.8013  3.2868
 1973TIP3    H227555   5.889   5.257   7.691  2.1308  1.7711  0.9955
 1974TIP3   OH227556   0.116   2.011   1.235  0.3141  0.3880  0.6004
 1974TIP3    H127557   0.047   2.072   1.208  0.1836  0.1507  0.3852
 1974TIP3    H227558   0.197   2.055   1.210  0.2001  0.2243 -0.1019
 1975TIP3   OH227559   1.033   4.667   0.072  0.2210 -0.1964 -0.2236
 1975TIP3    H127560   0.957   4.632   0.025  0.2352  0.3324 -0.6426
 1975TIP3    H227561   1.046   4.754   0.035  0.6661 -0.0518  0.2715
 1976TIP3   OH227562   4.787   2.998   2.297  0.7232 -0.4634  0.0537
 1976TIP3    H127563   4.724   3.066   2.318 -1.8397 -2.7537  0.3480
 1976TIP3    H227564   4.755   2.920   2.344  1.8986 -2.5966 -2.4246
 1977TIP3   OH227565   3.191   1.440   6.555  0.2900  0.0853 -0.0094
 1977TIP3    H127566   3.266   1.445   6.495 -0.3711  0.1246 -0.8474
 1977TIP3    H227567   3.155   1.353   6.541  0.5126 -0.1400  0.8061
 1978TIP3   OH227568   2.144   4.034   7.741 -0.6662  0.5198  0.2060
 1978TIP3    H127569   2.164   3.977   7.667 -0.9470  0.2154  0.3585
 1978TIP3    H227570   2.229   4.065   7.772 -0.0638 -2.8854  2.5508
 1979TIP3   OH227571   5.071   0.400   7.546 -0.2167 -0.4408 -0.0922
 1979TIP3    H127572   4.996   0.379   7.490  1.3600  0.4447 -2.7270
 1979TIP3    H227573   5.081   0.494   7.538  0.2409 -0.3260  1.5485
 1980TIP3   OH227574   3.462   1.400   6.470 -0.0698  0.3064  0.5066
 1980TIP3    H127575   3.550   1.388   6.505  0.5272  1.1440 -0.6124
 1980TIP3    H227576   3.451   1.330   6.405 -0.7648 -0.6042  1.5706
 1981TIP3   OH227577   2.604   4.247   0.560  0.4502  1.0568 -0.2977
 1981TIP3    H127578   2.605   4.342   0.545 -3.1620  1.4149  0.5543
 1981TIP3    H227579   2.562   4.211   0.481 -1.6415  0.7396  0.8700
 1982TIP3   OH227580   2.854   5.194   6.051 -0.2950  0.0849  0.2139
 1982TIP3    H127581   2.873   5.101   6.042 -0.5996  0.0423  0.0182
 1982TIP3    H227582   2.921   5.238   5.998 -0.0485 -0.0126  0.4417
 1983TIP3   OH227583   5.972   0.742   7.730 -0.2642 -0.2064  0.3604
 1983TIP3    H127584   6.061   0.747   7.766  0.1819 -0.0392 -0.7254
 1983TIP3    H227585   5.936   0.661   7.766  0.4853 -0.4911  0.4910
 1984TIP3   OH227586   5.686   4.742   1.809 -0.0577 -0.8426  0.2234
 1984TIP3    H127587   5.626   4.736   1.735  0.4938 -0.8918 -0.2271
 1984TIP3    H227588   5.646   4.806   1.868 -0.2145 -0.3605 -0.3942
 1985TIP3   OH227589   2.236   0.010   8.788 -0.0478 -0.1956  0.4833
 1985TIP3    H127590   2.176  -0.051   8.830 -0.5505 -0.1876 -0.2068
 1985TIP3    H227591   2.231   0.089   8.842  0.3629 -0.6497  1.1942
 1986TIP3   OH227592   6.351   0.674   8.153  0.0777 -0.2378 -0.4553
 1986TIP3    H127593   6.355   0.678   8.249 -0.4861  2.1769 -0.4903
 1986TIP3    H227594   6.422   0.614   8.129  1.4279  0.5327  1.3877
 1987TIP3   OH227595   1.970   1.861   0.964 -0.4313 -0.0972 -0.1847
 1987TIP3    H127596   2.010   1.888   1.046 -0.7794  1.6467 -0.5403
 1987TIP3    H227597   2.044   1.842   0.906 -0.1829 -0.8968  0.3803
 1988TIP3   OH227598   6.452   5.232   8.549 -0.2386  0.2424 -0.4815
 1988TIP3    H127599   6.411   5.189   8.624  1.0583 -1.4729 -0.6994
 1988TIP3    H227600   6.449   5.167   8.479 -1.1143  1.6841 -1.8666
 1989TIP3   OH227601   5.803   5.853   1.617  0.3867 -0.0678 -0.2387
 1989TIP3    H127602   5.753   5.830   1.696 -0.6393 -0.4018 -0.9608
 1989TIP3    H227603   5.736   5.880   1.554  1.3338  2.6213 -0.2406
 1990TIP3   OH227604   2.471   2.492   6.938  0.1182 -0.0915  0.0579
 1990TIP3    H127605   2.481   2.487   6.843 -2.2005 -3.8002 -0.2246
 1990TIP3    H227606   2.521   2.417   6.971 -0.3221  0.2618  1.5976
 1991TIP3   OH227607   6.778   6.114   8.047 -0.0020 -0.8441  0.0357
 1991TIP3    H127608   6.827   6.115   7.965  0.8118 -1.2095  0.5016
 1991TIP3    H227609   6.706   6.177   8.034 -0.9707 -2.2030 -1.5972
 1992TIP3   OH227610   6.108   0.415   7.037 -0.6450 -0.1307 -0.4247
 1992TIP3    H127611   6.053   0.442   7.111  0.4537 -0.3999  0.5365
 1992TIP3    H227612   6.132   0.324   7.056  0.9655  0.2907 -0.2360
 1993TIP3   OH227613   1.056   0.554   6.839  0.5720 -0.1475 -0.3080
 1993TIP3    H127614   1.122   0.615   6.872  0.1109  0.2093 -0.0372
 1993TIP3    H227615   0.987   0.611   6.805 -1.1764 -0.4549  2.4692
 1994TIP3   OH227616   6.553   6.131   7.804  0.0628 -0.0626  0.8172
 1994TIP3    H127617   6.555   6.201   7.739  2.1891 -0.7668  0.0080
 1994TIP3    H227618   6.587   6.172   7.884  0.7374  0.0144  0.5072
 1995TIP3   OH227619   5.488   0.990   8.673  0.2216 -0.2956 -0.0144
 1995TIP3    H127620   5.511   0.918   8.614  1.3518 -0.8623  1.0780
 1995TIP3    H227621   5.557   0.989   8.740 -0.0510  1.4388  0.3407
 1996TIP3   OH227622   1.276   4.943   7.969  0.4440  0.1732 -0.3561
 1996TIP3    H127623   1.296   4.922   8.060 -1.0057  0.0088 -0.0507
 1996TIP3    H227624   1.236   4.864   7.934 -1.0547  0.9486 -0.4714
 1997TIP3   OH227625   3.257   2.990   7.138  0.3438  0.2795  0.3399
 1997TIP3    H127626   3.345   2.954   7.130  0.1013 -0.3056  0.2804
 1997TIP3    H227627   3.271   3.084   7.151  0.9506  0.3257 -0.5527
 1998TIP3   OH227628   1.139   1.792   1.516 -0.0114  0.4401 -0.4363
 1998TIP3    H127629   1.052   1.791   1.555  0.1730 -0.2954 -0.0381
 1998TIP3    H227630   1.134   1.729   1.445  0.4351 -0.2493  0.1310
 1999TIP3   OH227631   0.413   5.224   2.072 -0.0593 -0.6925  0.0319
 1999TIP3    H127632   0.324   5.191   2.082 -0.3610  0.3451  1.0422
 1999TIP3    H227633   0.404   5.319   2.083  0.9305 -0.3788 -1.5758
 2000TIP3   OH227634   0.113   1.080   1.783 -0.4371  0.3248  0.5899
 2000TIP3    H127635   0.162   1.071   1.865 -1.3688  0.0040  1.1290
 2000TIP3    H227636   0.034   1.029   1.797 -1.5062  1.8247  0.2050
 2001TIP3   OH227637   2.518   6.645   7.194  0.0764  0.3776  0.2005
 2001TIP3    H127638   2.464   6.653   7.115 -1.3930 -0.1414  1.0993
 2001TIP3    H227639   2.524   6.734   7.228 -0.3080  0.4332  0.1364
 2002TIP3   OH227640   5.877   2.092   7.930  0.2436  0.1215 -0.2298
 2002TIP3    H127641   5.944   2.123   7.868  0.3109 -0.7330 -0.6022
 2002TIP3    H227642   5.915   2.013   7.968  0.0396  0.4365  0.6329
 2003TIP3   OH227643   2.013   6.586   8.370 -0.1523  0.6306 -0.4926
 2003TIP3    H127644   1.996   6.537   8.450 -1.2880 -0.4764 -1.3620
 2003TIP3    H227645   2.078   6.652   8.395 -0.3944  0.2440  1.2919
 2004TIP3   OH227646   6.261   0.108   7.448 -0.0770 -0.1408 -0.3757
 2004TIP3    H127647   6.293   0.020   7.433  0.3041 -0.2640  1.0113
 2004TIP3    H227648   6.198   0.123   7.378  1.0401 -0.8903 -1.5904
 2005TIP3   OH227649   0.726   4.099   0.276 -0.0800 -1.0239 -0.1213
 2005TIP3    H127650   0.632   4.116   0.274  0.3425  1.7458 -0.5880
 2005TIP3    H227651   0.749   4.075   0.186  0.1074  1.6915 -0.8790
 2006TIP3   OH227652   3.379   3.738   0.818 -0.1113 -0.1422 -0.3375
 2006TIP3    H127653   3.333   3.808   0.865  1.9301  0.5375  0.7405
 2006TIP3    H227654   3.429   3.783   0.750 -0.0632 -0.7480 -0.7183
 2007TIP3   OH227655   2.556   6.179   1.446 -0.6295  0.1282 -0.2905
 2007TIP3    H127656   2.558   6.205   1.354 -0.8981  0.9285 -0.0739
 2007TIP3    H227657   2.470   6.207   1.477 -0.0968  0.9500  0.5114
 2008TIP3   OH227658   4.283   3.028   1.997 -0.4571 -0.0042 -0.2110
 2008TIP3    H127659   4.209   2.974   2.025 -1.6950  1.3471 -0.7427
 2008TIP3    H227660   4.329   3.048   2.078 -1.2355 -0.0707  0.2613
 2009TIP3   OH227661   5.880   0.462   7.750  0.3896  0.4441  0.1150
 2009TIP3    H127662   5.866   0.382   7.699  1.5286 -0.1847  0.7496
 2009TIP3    H227663   5.813   0.460   7.818  1.0274 -0.5187  0.7454
 2010TIP3   OH227664   5.099   5.243   7.639  0.7246 -0.3562 -0.0201
 2010TIP3    H127665   5.055   5.266   7.721 -0.1136 -0.1401 -0.5179
 2010TIP3    H227666   5.039   5.182   7.596  0.8359  0.0550 -0.7801
 2011TIP3   OH227667   1.777   2.809   0.564  0.0103 -0.3201 -0.3862
 2011TIP3    H127668   1.836   2.779   0.495  0.6582 -0.8917  0.4055
 2011TIP3    H227669   1.694   2.764   0.545 -0.0179  0.0341 -1.1585
 2012TIP3   OH227670   5.168   0.067   2.013  0.5788 -0.6316  0.6488
 2012TIP3    H127671   5.110  -0.001   2.047 -0.0288  0.3367  1.6038
 2012TIP3    H227672   5.207   0.028   1.935 -1.1985 -1.3806  0.0810
 2013TIP3   OH227673   3.917   2.564   8.086  0.1359  0.0534  0.0381
 2013TIP3    H127674   3.835   2.580   8.040  0.1467  2.1063  0.6563
 2013TIP3    H227675   3.891   2.537   8.174  0.1245  0.5369  0.1828
 2014TIP3   OH227676   4.521   6.132   1.224  0.1666  0.7315 -0.2342
 2014TIP3    H127677   4.572   6.189   1.281  1.1144 -0.5096  0.1952
 2014TIP3    H227678   4.524   6.175   1.138  1.0354  1.2082  0.0241
 2015TIP3   OH227679   1.149   0.486   1.205 -0.2888  0.0674 -0.5682
 2015TIP3    H127680   1.171   0.577   1.185  0.9415 -0.1486 -0.2808
 2015TIP3    H227681   1.233   0.445   1.225 -1.0861 -0.4885  1.9474
 2016TIP3   OH227682   2.205   3.130   2.292 -0.0810 -0.2909 -0.1233
 2016TIP3    H127683   2.174   3.218   2.274 -0.4590 -0.8694 -2.5783
 2016TIP3    H227684   2.298   3.132   2.268  0.4379 -0.0883  1.7255
 2017TIP3   OH227685   5.001   6.216   1.540  0.2423  0.3422  0.1165
 2017TIP3    H127686   4.953   6.198   1.459  2.5049  3.0924 -2.0755
 2017TIP3    H227687   4.935   6.253   1.599 -1.4467 -1.6230 -0.4317
 2018TIP3   OH227688   0.744   5.552   0.370  0.0954 -0.2337  0.1551
 2018TIP3    H127689   0.747   5.647   0.361 -0.1604 -0.2433 -0.0568
 2018TIP3    H227690   0.752   5.536   0.464 -0.5530  0.0316  0.2606
 2019TIP3   OH227691   0.942   6.022   1.244 -0.3030  0.3652 -0.2865
 2019TIP3    H127692   1.035   6.044   1.249 -0.4199  0.8756 -0.2533
 2019TIP3    H227693   0.914   6.017   1.335 -0.4937  1.0701 -0.2947
 2020TIP3   OH227694   4.620   2.177   8.444  0.2367 -0.1724  0.3186
 2020TIP3    H127695   4.637   2.258   8.492  1.1640 -0.5901  0.7201
 2020TIP3    H227696   4.638   2.199   8.352  2.4743 -0.4035  0.6349
 2021TIP3   OH227697   6.616   5.329   1.744 -0.2509  0.2573  0.8659
 2021TIP3    H127698   6.570   5.385   1.680 -0.2356 -2.0067 -1.3003
 2021TIP3    H227699   6.555   5.257   1.759  1.5822 -1.6478 -0.3125
 2022TIP3   OH227700   2.457   0.852   2.222  0.1867  0.0710 -0.7820
 2022TIP3    H127701   2.440   0.760   2.240 -1.0979  0.4220 -0.0582
 2022TIP3    H227702   2.512   0.852   2.143  0.7981 -1.3131 -0.3755
 2023TIP3   OH227703   0.935   4.307   6.470 -0.8103  0.1931  0.0628
 2023TIP3    H127704   0.885   4.348   6.541 -1.8166 -3.1300  1.5017
 2023TIP3    H227705   0.869   4.267   6.414  0.0353  1.9274 -2.2793
 2024TIP3   OH227706   3.364   1.941   7.635 -0.4348 -0.5726 -0.3131
 2024TIP3    H127707   3.416   1.884   7.578 -0.0597 -0.9062  0.3529
 2024TIP3    H227708   3.429   1.984   7.691 -0.8240 -0.4463  0.0400
 2025TIP3   OH227709   0.495   0.995   0.510  0.0121 -0.1902  0.5759
 2025TIP3    H127710   0.509   0.968   0.601  0.2052 -0.3435  0.5036
 2025TIP3    H227711   0.441   0.925   0.473 -1.6852  0.8079  1.0733
 2026TIP3   OH227712   0.442   2.475   8.594 -0.3495 -0.0705 -0.0112
 2026TIP3    H127713   0.536   2.477   8.578 -0.5104 -1.7000 -1.4910
 2026TIP3    H227714   0.404   2.528   8.523 -0.6141 -0.4505 -0.1568
 2027TIP3   OH227715   0.989   0.732   7.568 -0.5067 -0.5297 -0.0263
 2027TIP3    H127716   0.978   0.689   7.483  0.2743 -1.3583  0.2742
 2027TIP3    H227717   0.923   0.801   7.569 -0.2956 -0.2730 -1.4501
 2028TIP3   OH227718   1.912   3.042   0.687  0.2071 -0.1559 -0.1313
 2028TIP3    H127719   1.885   2.956   0.654 -0.6781 -0.1973  0.6521
 2028TIP3    H227720   1.841   3.068   0.746  0.2650  1.3064 -0.6760
 2029TIP3   OH227721   1.456   0.394   8.158 -0.0425 -0.0933 -0.0644
 2029TIP3    H127722   1.492   0.311   8.127 -0.1441  0.3145 -1.3572
 2029TIP3    H227723   1.363   0.376   8.172 -0.8859  0.5925 -3.7873
 2030TIP3   OH227724   6.281   4.328   6.781  0.1517  0.1111 -0.4016
 2030TIP3    H127725   6.250   4.399   6.726 -1.5277 -0.7248 -0.6180
 2030TIP3    H227726   6.376   4.336   6.780  0.0162  3.4288  1.0540
 2031TIP3   OH227727   1.269   0.388   6.843  0.6192  0.2777  0.2908
 2031TIP3    H127728   1.323   0.436   6.905 -0.8223  0.6070  1.3617
 2031TIP3    H227729   1.196   0.446   6.824  0.0056 -0.6067 -0.1601
 2032TIP3   OH227730   5.756   0.128   8.578  0.1568 -0.1559 -0.3538
 2032TIP3    H127731   5.755   0.032   8.575 -0.0742 -0.1779  0.3302
 2032TIP3    H227732   5.796   0.149   8.662 -0.5869  0.3352 -0.1111
 2033TIP3   OH227733   3.332   1.389   1.691  0.0411 -0.2855 -0.0117
 2033TIP3    H127734   3.364   1.414   1.778  0.8446  0.0811 -0.4006
 2033TIP3    H227735   3.263   1.325   1.709  1.7895 -2.0600  0.8445
 2034TIP3   OH227736   0.394   3.183   0.897 -0.0044 -0.0273  0.4334
 2034TIP3    H127737   0.327   3.131   0.942  1.3301 -0.3778  2.1248
 2034TIP3    H227738   0.351   3.213   0.817 -2.3289  0.0939  1.6195
 2035TIP3   OH227739   1.475   4.495   1.341  0.3323  0.6274  0.4874
 2035TIP3    H127740   1.562   4.499   1.380  0.6399 -0.9467  0.0693
 2035TIP3    H227741   1.474   4.564   1.276  1.7148 -0.0616 -0.3091
 2036TIP3   OH227742   4.296   5.388   8.313 -0.0687 -0.1869 -0.4800
 2036TIP3    H127743   4.381   5.349   8.336  0.3035  1.3419  0.9520
 2036TIP3    H227744   4.310   5.483   8.325 -2.0125  0.0800 -0.0823
 2037TIP3   OH227745   5.109   1.265   7.389  0.5029  0.4694  0.4390
 2037TIP3    H127746   5.188   1.276   7.441  0.7904  0.5906 -0.0180
 2037TIP3    H227747   5.060   1.346   7.404 -0.3472 -0.3075  2.0663
 2038TIP3   OH227748   0.350   4.616   0.713  0.3689  1.1190  0.5029
 2038TIP3    H127749   0.373   4.667   0.635 -2.5099  1.0336 -0.5046
 2038TIP3    H227750   0.319   4.681   0.776 -0.2358  0.9192  0.4161
 2039TIP3   OH227751   6.090   0.745   8.186  0.0391 -0.1809  0.2781
 2039TIP3    H127752   6.101   0.804   8.111  1.6161  1.1905  1.5053
 2039TIP3    H227753   6.177   0.705   8.198 -0.6887 -1.8575  0.2359
 2040TIP3   OH227754   4.985   0.796   2.239 -0.3898 -0.3274  0.0531
 2040TIP3    H127755   4.918   0.736   2.206 -0.5186 -0.5243  0.6659
 2040TIP3    H227756   5.063   0.741   2.249 -1.5113 -1.4758  4.4966
 2041TIP3   OH227757   4.463   2.688   1.895  0.0810  0.2482  0.3949
 2041TIP3    H127758   4.383   2.648   1.862 -1.0435  1.0986  1.9699
 2041TIP3    H227759   4.505   2.619   1.946 -0.6874  0.3616  1.2055
 2042TIP3   OH227760   1.994   0.042   2.156 -0.3497 -0.2282 -0.3289
 2042TIP3    H127761   2.059   0.113   2.152 -1.8439  1.2246  0.1183
 2042TIP3    H227762   1.981   0.017   2.065  1.2247 -0.9522 -0.3959
 2043TIP3   OH227763   2.576   2.806   1.091  0.0611  0.5937  0.6398
 2043TIP3    H127764   2.505   2.856   1.131 -0.0246  0.5762  0.5115
 2043TIP3    H227765   2.583   2.727   1.145 -2.2567 -1.0488 -1.2172
 2044TIP3   OH227766   1.509   5.537   7.510 -0.0813 -0.0771 -0.2331
 2044TIP3    H127767   1.547   5.602   7.569 -0.5049 -0.2282  0.2156
 2044TIP3    H227768   1.415   5.539   7.529 -0.1378 -0.5972 -0.4363
 2045TIP3   OH227769   6.089   1.187   8.408 -0.4693 -0.6316  0.2576
 2045TIP3    H127770   6.125   1.172   8.320 -2.2211  0.1707 -0.6751
 2045TIP3    H227771   6.165   1.201   8.464  0.6866  0.6920 -1.5268
 2046TIP3   OH227772   1.153   0.309   0.443  0.9260 -0.7478 -0.4508
 2046TIP3    H127773   1.190   0.397   0.440 -1.3319  0.2713 -2.2651
 2046TIP3    H227774   1.190   0.269   0.522  3.2647  1.2118 -0.4367
 2047TIP3   OH227775   4.061   3.895   6.700  0.3010  0.4279  0.0704
 2047TIP3    H127776   4.083   3.808   6.666  0.5323  1.0873 -1.5426
 2047TIP3    H227777   4.011   3.937   6.630  1.6536  2.2088  0.0869
 2048TIP3   OH227778   2.883   0.246   7.532 -0.3137  0.0029 -0.2658
 2048TIP3    H127779   2.938   0.181   7.576  0.0407  2.1905  2.8729
 2048TIP3    H227780   2.946   0.307   7.493 -0.5750  0.5810  0.2210
 2049TIP3   OH227781   6.621   6.304   1.246 -0.1935 -0.1289  0.7613
 2049TIP3    H127782   6.543   6.336   1.202  0.4316  0.8146  0.3269
 2049TIP3    H227783   6.688   6.299   1.178  0.2337 -0.5833  1.1988
 2050TIP3   OH227784   5.248   6.143   1.482 -0.0472  0.1037 -0.4425
 2050TIP3    H127785   5.305   6.175   1.552 -1.4018 -0.4402  0.9503
 2050TIP3    H227786   5.162   6.132   1.523 -1.4239  1.6829 -2.6490
 2051TIP3   OH227787   0.006   0.350   0.438  0.6009  0.4335  0.6124
 2051TIP3    H127788  -0.073   0.402   0.456 -0.2552 -0.5516 -0.1778
 2051TIP3    H227789   0.021   0.360   0.344  0.9509 -0.0295  0.6156
 2052TIP3   OH227790   1.502   5.457   0.895  0.3268 -0.1293  0.3676
 2052TIP3    H127791   1.534   5.537   0.855 -0.4261  0.1876  0.3812
 2052TIP3    H227792   1.430   5.429   0.839 -0.1972 -0.1347  1.0242
 2053TIP3   OH227793   1.406   5.377   0.405 -0.0015 -0.9344 -0.4717
 2053TIP3    H127794   1.371   5.314   0.342 -0.2004 -2.9783  1.5363
 2053TIP3    H227795   1.494   5.346   0.425 -0.4129 -1.1608  1.2069
 2054TIP3   OH227796   4.473   0.409   7.737 -0.0198 -0.5284 -0.8779
 2054TIP3    H127797   4.541   0.474   7.751  1.5169 -1.7375 -2.2879
 2054TIP3    H227798   4.465   0.364   7.821  0.2738  0.2198 -0.4421
 2055TIP3   OH227799   0.098   0.967   8.092 -0.4017 -0.4325  0.3382
 2055TIP3    H127800   0.165   0.917   8.139 -0.1099 -0.3307  0.0344
 2055TIP3    H227801   0.147   1.022   8.030 -0.8017 -1.1321 -0.6382
 2056TIP3   OH227802   3.813   3.070   2.187 -0.1740 -0.0599 -0.0034
 2056TIP3    H127803   3.717   3.063   2.185 -0.1576 -0.2204 -0.1775
 2056TIP3    H227804   3.833   3.135   2.120 -0.0839 -0.8376 -0.7512
 2057TIP3   OH227805   1.577   2.283   0.512 -0.0980  0.3886  0.7005
 2057TIP3    H127806   1.553   2.191   0.515 -0.2723  0.4618  2.9796
 2057TIP3    H227807   1.504   2.326   0.469 -0.2206 -0.4609  0.0376
 2058TIP3   OH227808   6.319   0.730   8.452 -0.4310 -0.0748 -0.8421
 2058TIP3    H127809   6.372   0.808   8.441 -1.6008  0.8947  0.0745
 2058TIP3    H227810   6.379   0.657   8.434  0.8797  0.9948 -0.9514
 2059TIP3   OH227811   4.042   1.300   0.612 -0.3096  0.2142 -0.2714
 2059TIP3    H127812   4.058   1.262   0.698 -1.5626  1.9947  0.8067
 2059TIP3    H227813   4.130   1.315   0.576  0.2754  0.7368  1.2989
 2060TIP3   OH227814   6.166   0.670   1.749  0.3942 -0.2892 -0.2833
 2060TIP3    H127815   6.104   0.670   1.822  0.8174 -1.7130  0.0901
 2060TIP3    H227816   6.185   0.578   1.733  2.5780  0.1198 -0.2719
 2061TIP3   OH227817   2.315   6.235   8.771  0.4131  0.0472  0.6505
 2061TIP3    H127818   2.321   6.325   8.738  2.1434 -1.1482 -2.6838
 2061TIP3    H227819   2.223   6.225   8.795 -0.6401  1.7438 -2.1307
 2062TIP3   OH227820   1.429   6.846   7.807 -0.0941  0.0188  0.0883
 2062TIP3    H127821   1.428   6.759   7.846 -0.7787  0.7188  1.7393
 2062TIP3    H227822   1.387   6.834   7.721  0.1077 -1.3150  0.1482
 2063TIP3   OH227823   5.336   3.379   6.972  0.1285 -0.0856 -0.1902
 2063TIP3    H127824   5.375   3.369   7.058 -0.2044 -1.0455 -0.1423
 2063TIP3    H227825   5.246   3.347   6.982  0.3051 -0.8941 -1.0597
 2064TIP3   OH227826   3.517   0.842   1.473  0.3358  0.6052 -0.3113
 2064TIP3    H127827   3.590   0.820   1.532  0.4320  2.0342  0.1411
 2064TIP3    H227828   3.463   0.763   1.473  0.3775  0.5092  1.6320
 2065TIP3   OH227829   4.580   4.287   0.798 -0.4583 -0.1643 -0.7210
 2065TIP3    H127830   4.583   4.196   0.830 -1.2294 -0.8439 -2.4291
 2065TIP3    H227831   4.666   4.300   0.757  0.1150  0.3266  0.5950
 2066TIP3   OH227832   6.708   2.676   0.239  0.1989  0.2093  0.3761
 2066TIP3    H127833   6.664   2.751   0.280  1.8730  0.2112  2.3274
 2066TIP3    H227834   6.727   2.705   0.150 -0.0649  1.7212  0.7900
 2067TIP3   OH227835   5.051   5.803   7.408  0.3410 -0.5298  0.2074
 2067TIP3    H127836   4.975   5.810   7.466  0.4281  0.6943  0.1951
 2067TIP3    H227837   5.015   5.816   7.320  0.7573  1.7921  0.3198
 2068TIP3   OH227838   6.197   2.436   6.908  0.4707 -0.3021  0.2687
 2068TIP3    H127839   6.185   2.457   7.001 -0.9585  0.0583  0.0247
 2068TIP3    H227840   6.119   2.471   6.865  1.5373  0.3504 -1.2152
 2069TIP3   OH227841   1.793   5.646   8.780  0.0465 -0.1022 -0.1462
 2069TIP3    H127842   1.842   5.700   8.718 -0.4137 -1.1328 -1.4581
 2069TIP3    H227843   1.701   5.665   8.762 -0.0905  0.5938  1.1698
 2070TIP3   OH227844   6.532   2.714   1.490  0.3166  0.2077 -0.0206
 2070TIP3    H127845   6.536   2.642   1.552 -2.1932 -0.9504 -1.0610
 2070TIP3    H227846   6.562   2.676   1.407  0.3318  0.7748 -0.2845
 2071TIP3   OH227847   0.979   5.248   0.907  0.3336 -0.0762  0.0668
 2071TIP3    H127848   0.949   5.160   0.883  1.1875 -0.5294  0.6420
 2071TIP3    H227849   1.073   5.246   0.891  0.3775  0.6896  0.2313
 2072TIP3   OH227850   5.431   1.796   0.277  0.0598 -0.5103  0.1616
 2072TIP3    H127851   5.393   1.799   0.189  0.5774 -0.3692 -0.0628
 2072TIP3    H227852   5.426   1.704   0.302 -0.7886 -0.4321  0.3022
 2073TIP3   OH227853   5.337   2.316   2.408 -0.0850  0.1936 -0.3180
 2073TIP3    H127854   5.388   2.249   2.363 -0.4578 -0.0576 -0.3768
 2073TIP3    H227855   5.397   2.355   2.471 -0.0292 -0.6125  0.1417
 2074TIP3   OH227856   5.887   6.121   0.626  0.8645  0.1526  0.4345
 2074TIP3    H127857   5.890   6.065   0.548  1.9690 -0.9822  1.2585
 2074TIP3    H227858   5.963   6.178   0.618  1.0104 -0.0034  0.7097
 2075TIP3   OH227859   2.828   2.256   7.730 -0.3898 -0.0068 -0.8917
 2075TIP3    H127860   2.768   2.260   7.656 -1.3108 -0.3665 -0.1729
 2075TIP3    H227861   2.781   2.297   7.802  0.2233 -0.2882 -0.3190
 2076TIP3   OH227862   1.472   1.724   2.413  0.6555 -0.1281  0.2050
 2076TIP3    H127863   1.506   1.791   2.473  0.1959 -0.3983  0.7849
 2076TIP3    H227864   1.534   1.651   2.422  1.4077  0.3670 -0.7628
 2077TIP3   OH227865   1.594   3.898   2.343 -0.1712  0.2686 -0.3180
 2077TIP3    H127866   1.539   3.828   2.308  1.7596 -2.4125  1.6150
 2077TIP3    H227867   1.532   3.967   2.367 -2.1154 -0.4467 -2.8367
 2078TIP3   OH227868   4.785   5.278   7.415  0.3207 -0.0450 -0.1080
 2078TIP3    H127869   4.864   5.319   7.383  0.8206 -2.4589 -2.3071
 2078TIP3    H227870   4.815   5.195   7.453 -1.1609 -1.8414 -2.5487
 2079TIP3   OH227871   5.723   1.862   0.025 -0.2446 -0.1927  0.0825
 2079TIP3    H127872   5.637   1.828   0.050 -0.8854  0.7959 -0.7543
 2079TIP3    H227873   5.716   1.882  -0.068  0.5842  0.8358  0.2201
 2080TIP3   OH227874   5.660   5.017   1.486 -0.2391  0.5871 -0.0410
 2080TIP3    H127875   5.585   4.957   1.478  2.1951 -2.9005  0.6767
 2080TIP3    H227876   5.665   5.061   1.402 -1.1959 -1.6211 -1.3620
 2081TIP3   OH227877   6.294   4.143   8.579 -0.1232  0.4104  0.3249
 2081TIP3    H127878   6.219   4.167   8.633  0.2448  1.7776  0.2763
 2081TIP3    H227879   6.370   4.157   8.635  0.1167 -1.0479  0.4023
 2082TIP3   OH227880   3.257   2.944   0.966  0.6333 -0.1316  0.0258
 2082TIP3    H127881   3.339   2.925   0.920 -0.5890 -0.8202 -1.9760
 2082TIP3    H227882   3.201   2.869   0.947 -1.2153  1.3216 -0.4829
 2083TIP3   OH227883   0.282   3.313   2.134  0.0282 -0.1105 -0.8300
 2083TIP3    H127884   0.302   3.399   2.097 -0.3768 -0.4742 -1.9166
 2083TIP3    H227885   0.209   3.330   2.194  1.5194  0.7005  0.8544
 2084TIP3   OH227886   3.608   6.195   8.284  0.5489 -0.3614 -0.0741
 2084TIP3    H127887   3.566   6.154   8.360 -2.3848 -0.0393 -1.3866
 2084TIP3    H227888   3.642   6.278   8.317 -0.4850 -0.3128  0.9465
 2085TIP3   OH227889   5.687   3.222   8.547 -0.3041 -0.0191 -0.0540
 2085TIP3    H127890   5.769   3.176   8.565 -0.8046 -0.6027  0.8385
 2085TIP3    H227891   5.706   3.277   8.471  1.3260  0.9584  1.0060
 2086TIP3   OH227892   2.391   3.322   1.670  0.2333  0.1612 -0.2558
 2086TIP3    H127893   2.336   3.359   1.601 -0.1606 -1.3566 -0.7878
 2086TIP3    H227894   2.474   3.302   1.627  0.5224  0.6146  0.0826
 2087TIP3   OH227895   2.145   2.571   8.131 -0.0192  0.1722  0.7437
 2087TIP3    H127896   2.122   2.572   8.039  1.9620  1.8794  0.1871
 2087TIP3    H227897   2.143   2.663   8.158 -1.0778 -0.3175  2.5941
 2088TIP3   OH227898   2.227   2.751   1.394  0.2873  0.2667  0.0942
 2088TIP3    H127899   2.229   2.836   1.439  2.3405 -0.7355  2.0978
 2088TIP3    H227900   2.232   2.773   1.301 -2.3550  2.3919  0.3462
 2089TIP3   OH227901   1.767   5.509   7.802 -0.1196  0.2901 -0.3700
 2089TIP3    H127902   1.856   5.543   7.794  0.1557 -0.6551 -1.8532
 2089TIP3    H227903   1.712   5.586   7.813  0.9339  0.8399  1.4021
 2090TIP3   OH227904   3.584   1.140   7.091 -0.0068 -0.0752 -0.6823
 2090TIP3    H127905   3.668   1.174   7.061  0.6822 -0.3644  0.8189
 2090TIP3    H227906   3.606   1.081   7.163 -1.5147  0.1648  0.0245
 2091TIP3   OH227907   5.757   6.655   1.618 -0.1024  0.4520  0.1725
 2091TIP3    H127908   5.803   6.579   1.654  1.2647  0.8063 -0.7431
 2091TIP3    H227909   5.804   6.731   1.654  0.2810  0.8173 -1.0180
 2092TIP3   OH227910   1.048   3.025   8.568  0.1611 -0.5552 -0.4715
 2092TIP3    H127911   1.143   3.040   8.573  0.0383 -0.0429  1.0978
 2092TIP3    H227912   1.012   3.112   8.553 -0.0586 -0.7510 -1.0627
 2093TIP3   OH227913   6.803   4.685   1.808 -0.0975  0.1183 -0.2361
 2093TIP3    H127914   6.863   4.621   1.769 -1.6968 -0.8452 -1.2649
 2093TIP3    H227915   6.718   4.640   1.808 -0.7820  1.3408  1.3916
 2094TIP3   OH227916   0.173   4.332   8.801 -0.0707  0.0864  0.3708
 2094TIP3    H127917   0.115   4.263   8.769  0.5634 -0.2657 -0.0506
 2094TIP3    H227918   0.127   4.369   8.876 -0.3144 -0.9720  0.7666
 2095TIP3   OH227919   5.291   2.182   7.330  0.0265  0.6799  0.2068
 2095TIP3    H127920   5.311   2.188   7.236  1.6418 -0.5144  0.4322
 2095TIP3    H227921   5.366   2.223   7.373 -0.2331  0.3230  1.0071
 2096TIP3   OH227922   4.918   4.844   0.097  0.8325 -0.1161  0.0225
 2096TIP3    H127923   5.010   4.863   0.115  1.0317 -1.9916  1.2363
 2096TIP3    H227924   4.897   4.770   0.153 -1.3411  0.0371 -0.4922
 2097TIP3   OH227925   3.942   6.636   7.247 -0.3450  0.0599 -0.4339
 2097TIP3    H127926   3.949   6.551   7.289  0.8722 -0.0205 -0.7543
 2097TIP3    H227927   3.909   6.694   7.315 -1.9092 -0.8018 -0.4273
 2098TIP3   OH227928   5.575   3.467   1.435  0.4183  0.0957  0.1077
 2098TIP3    H127929   5.521   3.524   1.380  1.3166  1.8799  0.9809
 2098TIP3    H227930   5.596   3.393   1.378 -2.0152 -0.1352 -0.5874
 2099TIP3   OH227931   0.602   6.418   0.612  0.0986 -0.4326  0.4883
 2099TIP3    H127932   0.507   6.422   0.617 -0.0437 -2.1842 -0.2544
 2099TIP3    H227933   0.625   6.485   0.547 -0.6008  0.1364  0.8194
 2100TIP3   OH227934   1.522   3.819   8.749 -0.1999  0.1547  0.4277
 2100TIP3    H127935   1.596   3.842   8.693 -2.4602  2.5530 -1.8554
 2100TIP3    H227936   1.523   3.723   8.751  2.4024  0.0877 -0.2031
 2101TIP3   OH227937   4.262   1.607   1.086 -0.5441 -0.1902 -0.2635
 2101TIP3    H127938   4.294   1.556   1.013  0.5765  1.2992 -0.8623
 2101TIP3    H227939   4.167   1.611   1.073 -0.3421  0.1842 -1.7280
 2102TIP3   OH227940   1.025   5.956   0.407 -0.2298  0.3562 -0.1336
 2102TIP3    H127941   1.035   6.026   0.472 -2.1890  2.2558 -1.7199
 2102TIP3    H227942   1.083   5.982   0.335 -0.9211  0.3404 -0.7075
 2103TIP3   OH227943   1.277   2.995   7.452 -0.1478 -0.4290  0.1189
 2103TIP3    H127944   1.302   2.987   7.544 -0.4745  1.6114  0.4361
 2103TIP3    H227945   1.183   3.014   7.454 -0.5930 -2.2618 -0.7739
 2104TIP3   OH227946   6.435   0.590   0.117  0.4490  1.0685  0.8842
 2104TIP3    H127947   6.385   0.584   0.198  0.4443  0.4731  0.8437
 2104TIP3    H227948   6.369   0.602   0.049  0.2329 -0.8909  0.6918
 2105TIP3   OH227949   0.997   6.039   6.807  1.3979 -0.6006 -0.0669
 2105TIP3    H127950   0.945   5.962   6.827  0.2745 -0.1011 -0.9323
 2105TIP3    H227951   1.038   6.019   6.723  1.4640 -0.4327 -0.0748
 2106TIP3   OH227952   0.270   6.777   0.363  0.3096 -0.7641  0.3020
 2106TIP3    H127953   0.313   6.749   0.282  2.9173 -0.6155  1.5239
 2106TIP3    H227954   0.286   6.871   0.367 -1.3626 -0.4420  0.1710
 2107TIP3   OH227955   5.789   5.519   0.981 -0.0528  0.2347 -0.0794
 2107TIP3    H127956   5.748   5.494   1.064 -0.0050  0.6609  0.0762
 2107TIP3    H227957   5.719   5.563   0.933 -0.0624  0.0438 -0.2403
 2108TIP3   OH227958   3.312   1.395   7.793  0.2501  0.3438 -0.2927
 2108TIP3    H127959   3.390   1.391   7.849 -0.2689 -0.0482  0.4136
 2108TIP3    H227960   3.321   1.479   7.747  1.2542  0.1511 -0.4809
 2109TIP3   OH227961   5.421   2.789   7.642 -0.1695  0.0841 -0.7373
 2109TIP3    H127962   5.435   2.763   7.551 -1.9073  0.1700 -1.0666
 2109TIP3    H227963   5.340   2.839   7.640 -0.8505 -0.8643  1.0227
 2110TIP3   OH227964   3.235   1.581   0.753  0.3964  0.5149  0.1306
 2110TIP3    H127965   3.240   1.666   0.796 -0.7153 -0.0408  1.3931
 2110TIP3    H227966   3.288   1.523   0.807 -0.1099  0.0544  0.1385
 2111TIP3   OH227967   2.952   4.987   0.277  0.0110  0.3341  0.2824
 2111TIP3    H127968   3.000   4.910   0.249 -0.4844  0.6947 -1.7061
 2111TIP3    H227969   3.016   5.059   0.272  0.1442  0.2732  0.9547
 2112TIP3   OH227970   5.089   1.631   2.083  0.0930 -0.7533 -0.3511
 2112TIP3    H127971   5.001   1.632   2.045  0.6582 -0.5225 -1.7066
 2112TIP3    H227972   5.091   1.707   2.141 -0.8393 -1.2004  0.2842
 2113TIP3   OH227973   0.025   4.920   1.730  0.3680  0.3570 -0.4098
 2113TIP3    H127974   0.087   4.899   1.660  0.4504 -0.2521 -0.1613
 2113TIP3    H227975   0.005   4.835   1.770  1.2852  0.8335  1.1023
 2114TIP3   OH227976   5.123   6.077   1.035 -0.3087  0.1437  0.7197
 2114TIP3    H127977   5.178   6.155   1.037 -0.3243  0.1633  2.4399
 2114TIP3    H227978   5.037   6.107   1.065 -0.3811 -0.4702  1.1494
 2115TIP3   OH227979   3.232   3.765   0.004 -0.4367 -0.7331 -0.2909
 2115TIP3    H127980   3.322   3.760   0.037 -0.0022  4.5366  0.1829
 2115TIP3    H227981   3.242   3.768  -0.091 -0.0297  0.3851 -0.2194
 2116TIP3   OH227982   0.351   5.960   8.211  0.1327 -0.0791  0.1877
 2116TIP3    H127983   0.408   5.941   8.286 -0.9738  1.1194  1.3794
 2116TIP3    H227984   0.402   5.930   8.135  1.2359 -1.4613  1.3922
 2117TIP3   OH227985   0.182   6.294   8.568 -0.1572 -0.2868  0.3522
 2117TIP3    H127986   0.159   6.302   8.475  0.0632  0.6770  0.3628
 2117TIP3    H227987   0.112   6.242   8.607  0.8667 -2.6486 -0.7516
 2118TIP3   OH227988   3.800   0.887   1.904  0.1444  0.2619  0.1663
 2118TIP3    H127989   3.791   0.982   1.909 -0.1723  0.3037 -0.9236
 2118TIP3    H227990   3.882   0.873   1.856  1.0062 -0.0418  1.6802
 2119TIP3   OH227991   6.442   1.264   8.287 -0.2241 -0.7852  0.2802
 2119TIP3    H127992   6.466   1.347   8.329 -1.0446  1.1299 -2.6747
 2119TIP3    H227993   6.508   1.252   8.219 -1.0687 -1.6173 -0.4248
 2120TIP3   OH227994   2.314   0.025   7.757 -0.0748  0.4109 -0.3831
 2120TIP3    H127995   2.357   0.022   7.842  0.2446  0.5699 -0.5367
 2120TIP3    H227996   2.292  -0.066   7.738 -1.4712  0.5203  0.5275
 2121TIP3   OH227997   2.558   5.314   1.919 -0.5191 -0.1612 -0.1524
 2121TIP3    H127998   2.476   5.265   1.922  0.3798 -1.9457  5.0426
 2121TIP3    H227999   2.540   5.396   1.966  0.5388 -0.4737  0.8635
 2122TIP3   OH228000   5.036   3.131   0.575  0.3476 -0.2960 -0.6305
 2122TIP3    H128001   5.072   3.216   0.550 -0.5657 -0.1047 -1.3550
 2122TIP3    H228002   4.972   3.111   0.507 -1.3733 -0.3267  0.9094
 2123TIP3   OH228003   5.478   4.681   8.578 -0.2375 -0.0696  0.5917
 2123TIP3    H128004   5.435   4.680   8.493 -1.1488 -0.6295  1.0439
 2123TIP3    H228005   5.456   4.596   8.617  0.4058  0.0613  1.2716
 2124TIP3   OH228006   5.258   5.188   0.891  0.0049 -0.2748 -0.3824
 2124TIP3    H128007   5.322   5.160   0.956 -0.0151 -2.0105 -1.0625
 2124TIP3    H228008   5.303   5.258   0.843  0.2842  0.5238  0.9998
 2125TIP3   OH228009   3.856   1.094   1.293  0.4315 -0.0760  0.4124
 2125TIP3    H128010   3.921   1.074   1.360 -0.3539  1.0930  1.5658
 2125TIP3    H228011   3.807   1.013   1.281  0.3529 -0.1979  1.5151
 2126TIP3   OH228012   5.395   0.492   7.317  0.0043 -0.0620 -0.2865
 2126TIP3    H128013   5.327   0.469   7.254  0.5883 -0.7539 -0.6778
 2126TIP3    H228014   5.433   0.573   7.283  0.9546 -0.9230 -1.3732
 2127TIP3   OH228015   5.954   2.853   2.118  0.0749  0.7575  0.2548
 2127TIP3    H128016   6.037   2.901   2.112  0.4137  0.1690  0.1219
 2127TIP3    H228017   5.971   2.784   2.183 -1.5738  3.0952  3.4485
 2128TIP3   OH228018   1.201   6.011   1.912  0.2381  0.0646  0.4459
 2128TIP3    H128019   1.188   5.937   1.972 -1.0869  0.2597  0.4347
 2128TIP3    H228020   1.158   6.084   1.956 -2.6479 -0.2243 -1.5838
 2129TIP3   OH228021   5.707   4.998   8.690  0.6880  0.0461  0.4611
 2129TIP3    H128022   5.713   5.083   8.732 -0.5361  1.6920 -2.4078
 2129TIP3    H228023   5.615   4.973   8.700  1.2594 -1.5907  2.2785
 2130TIP3   OH228024   0.035   6.126   0.249 -0.5576 -0.2042  0.5231
 2130TIP3    H128025  -0.002   6.212   0.268 -0.5876  0.6825 -2.9696
 2130TIP3    H228026  -0.035   6.065   0.272 -1.2396  0.8254  1.2901
 2131TIP3   OH228027   3.812   3.267   1.524 -1.2625  0.3601 -0.1278
 2131TIP3    H128028   3.725   3.252   1.486 -1.4400 -0.2982  0.5129
 2131TIP3    H228029   3.813   3.212   1.602 -0.1589  0.1366 -0.2917
 2132TIP3   OH228030   5.961   2.991   7.451  0.3867  1.0073  0.6103
 2132TIP3    H128031   5.969   2.998   7.356 -2.5178  3.1303  0.3804
 2132TIP3    H228032   5.989   3.077   7.483 -0.8893  1.1546  1.4058
 2133TIP3   OH228033   5.706   1.166   8.274 -0.1080  0.4154  0.1102
 2133TIP3    H128034   5.668   1.112   8.205 -0.1274 -1.3616  1.4605
 2133TIP3    H228035   5.642   1.164   8.345 -0.2723  2.5419  0.0749
 2134TIP3   OH228036   6.376   5.787   1.818 -0.3559  0.5905 -0.5636
 2134TIP3    H128037   6.281   5.800   1.818 -0.4306  0.1188 -1.2360
 2134TIP3    H228038   6.403   5.804   1.908 -1.1665  0.1186 -0.2258
 2135TIP3   OH228039   4.676   3.784   7.075  0.1406 -0.0867  0.5582
 2135TIP3    H128040   4.646   3.797   7.165  0.9871  1.2231  0.6779
 2135TIP3    H228041   4.627   3.849   7.024  0.9634  0.3915  0.3681
 2136TIP3   OH228042   0.589   4.923   8.133 -0.3881 -0.0112  0.5623
 2136TIP3    H128043   0.535   4.964   8.065 -1.4913 -2.7540 -0.3472
 2136TIP3    H228044   0.656   4.874   8.084  0.0555 -0.3945  1.5312
 2137TIP3   OH228045   2.676   4.141   7.135  0.8572 -0.2119 -0.3933
 2137TIP3    H128046   2.762   4.163   7.100  0.9169 -0.9556 -0.7367
 2137TIP3    H228047   2.621   4.215   7.113  1.4937  0.4367  0.1509
 2138TIP3   OH228048   6.090   4.984   2.225 -0.0443 -0.1032  0.7234
 2138TIP3    H128049   6.182   4.971   2.250  0.7381  3.0530 -0.0776
 2138TIP3    H228050   6.062   5.060   2.276 -1.4377  0.4462 -0.7792
 2139TIP3   OH228051   0.325   6.540   6.158  0.0062 -0.2280 -0.3992
 2139TIP3    H128052   0.347   6.578   6.073  1.1375  0.3064  0.1160
 2139TIP3    H228053   0.314   6.447   6.140  0.5029 -0.1612 -1.0851
 2140TIP3   OH228054   0.689   2.905   2.376 -0.2950 -0.0075  0.1588
 2140TIP3    H128055   0.758   2.918   2.441 -0.9725 -0.4259  0.9907
 2140TIP3    H228056   0.721   2.833   2.322  0.1316  0.1140  0.2459
 2141TIP3   OH228057   4.241   6.009   1.226 -0.1945 -0.3546 -0.1931
 2141TIP3    H128058   4.236   5.983   1.134  0.3065  2.7376 -1.2169
 2141TIP3    H228059   4.309   6.076   1.228  0.7190 -1.2320  2.7280
 2142TIP3   OH228060   5.438   5.066   7.664 -0.1832  0.5288  0.3129
 2142TIP3    H128061   5.355   5.045   7.707  0.5466 -1.2136  0.9786
 2142TIP3    H228062   5.496   4.994   7.689  0.7572  0.2864 -2.2683
 2143TIP3   OH228063   6.628   1.584   6.825  0.2192  0.2613  0.0054
 2143TIP3    H128064   6.657   1.496   6.801 -2.3286 -0.5351 -0.5005
 2143TIP3    H228065   6.565   1.608   6.757  1.9126  3.1771 -0.7351
 2144TIP3   OH228066   0.615   4.277   8.506 -0.2055  0.3108  0.6833
 2144TIP3    H128067   0.664   4.322   8.438 -0.9399  1.6075  0.9861
 2144TIP3    H228068   0.546   4.230   8.459 -0.4438  0.8500  0.4862
 2145TIP3   OH228069   3.567   1.392   1.544  0.2657 -0.9086  0.1663
 2145TIP3    H128070   3.597   1.303   1.564  0.1487 -0.6408  1.6076
 2145TIP3    H228071   3.475   1.392   1.569 -0.5097 -1.1451 -2.3934
 2146TIP3   OH228072   1.149   0.493   7.926 -0.3043  0.6652  0.2311
 2146TIP3    H128073   1.095   0.519   7.852  2.1347 -0.5515 -2.1544
 2146TIP3    H228074   1.226   0.549   7.920 -0.3312  1.0027  2.3212
 2147TIP3   OH228075   2.518   1.209   1.646  0.1693 -0.5549  0.1984
 2147TIP3    H128076   2.605   1.233   1.615 -0.0641 -1.0416 -0.8882
 2147TIP3    H228077   2.459   1.243   1.579 -0.5754  0.7677  1.4918
 2148TIP3   OH228078   2.020   3.619   7.131 -0.0624 -0.5903 -0.1357
 2148TIP3    H128079   2.053   3.568   7.057 -0.0644  1.2009 -1.4422
 2148TIP3    H228080   2.060   3.579   7.208  0.9260 -1.7487 -1.2097
 2149TIP3   OH228081   5.355   4.976   8.115 -0.7424 -0.0011 -0.7265
 2149TIP3    H128082   5.261   4.972   8.132 -0.8001  2.2331 -0.2779
 2149TIP3    H228083   5.394   4.991   8.201 -0.1372  0.7253 -1.1197
 2150TIP3   OH228084   1.237   6.181   0.011 -0.2308  0.5456  0.1878
 2150TIP3    H128085   1.230   6.172  -0.084 -0.7720 -0.3733  0.2985
 2150TIP3    H228086   1.187   6.261   0.031 -0.7141  0.3533 -0.2316
 2151TIP3   OH228087   5.257   4.257   0.637 -0.0430 -0.0933  0.6657
 2151TIP3    H128088   5.167   4.249   0.606  0.0555  0.9391  0.0721
 2151TIP3    H228089   5.261   4.344   0.677  0.8322  0.1033  0.1708
 2152TIP3   OH228090   2.890   0.398   1.863 -0.0129 -0.0579 -0.4010
 2152TIP3    H128091   2.929   0.370   1.780 -0.4072 -0.4107 -0.4683
 2152TIP3    H228092   2.812   0.343   1.873 -0.8560  1.0687 -0.5783
 2153TIP3   OH228093   2.808   6.670   7.253 -0.2192  0.0747  0.8984
 2153TIP3    H128094   2.730   6.648   7.202  0.5308 -1.4714  0.3764
 2153TIP3    H228095   2.778   6.737   7.315 -2.4736 -1.8803  2.0609
 2154TIP3   OH228096   1.333   3.012   0.694 -0.4295 -0.3122 -0.0207
 2154TIP3    H128097   1.278   2.935   0.676 -1.4556  0.5127 -0.5520
 2154TIP3    H228098   1.402   2.980   0.752 -0.2374 -1.8584 -1.0481
 2155TIP3   OH228099   3.172   0.370   0.667  0.1791 -0.1000 -0.1782
 2155TIP3    H128100   3.246   0.314   0.641  0.2356 -0.9859  1.7289
 2155TIP3    H228101   3.142   0.333   0.750 -0.0897  2.4413  0.9500
 2156TIP3   OH228102   3.539   5.538   7.725 -0.4004 -0.0839 -0.3308
 2156TIP3    H128103   3.511   5.616   7.678 -0.5225  0.7742  1.1222
 2156TIP3    H228104   3.610   5.502   7.671  0.3530  1.5906 -0.5204
 2157TIP3   OH228105   1.680   4.201   0.871  0.4727  0.4781  0.1241
 2157TIP3    H128106   1.721   4.245   0.946  1.8735 -1.4341  0.5521
 2157TIP3    H228107   1.745   4.208   0.801 -0.9005  2.4192 -1.0630
 2158TIP3   OH228108   4.211   2.562   1.881 -0.2106 -0.5960  0.3659
 2158TIP3    H128109   4.198   2.522   1.967  0.1137 -1.0400  0.2159
 2158TIP3    H228110   4.147   2.633   1.877 -0.4260 -0.7591  0.8565
 2159TIP3   OH228111   4.016   6.416   8.435 -0.4727 -0.0732  0.7237
 2159TIP3    H128112   4.043   6.489   8.490 -1.0710  0.7682 -0.0731
 2159TIP3    H228113   3.990   6.456   8.352 -0.8205 -1.1863  0.2703
 2160TIP3   OH228114   1.569   5.622   0.669  0.2100 -0.3075 -0.3129
 2160TIP3    H128115   1.642   5.668   0.627 -0.7455  1.6272  0.0086
 2160TIP3    H228116   1.551   5.548   0.612  0.4429  0.9365 -2.0757
 2161TIP3   OH228117   2.398   5.649   7.358  1.0540 -0.5712  0.9956
 2161TIP3    H128118   2.348   5.723   7.393 -0.7509  0.0953 -2.5140
 2161TIP3    H228119   2.427   5.601   7.435 -1.6817  1.2394  3.3687
 2162TIP3   OH228120   3.611   4.593   6.210 -0.9311  0.1513 -0.7535
 2162TIP3    H128121   3.550   4.665   6.192 -2.3646 -0.3741  1.6295
 2162TIP3    H228122   3.555   4.521   6.239  0.6023 -1.4527 -1.5932
 2163TIP3   OH228123   3.117   6.522   0.458  0.1783 -0.4742  0.1364
 2163TIP3    H128124   3.144   6.434   0.432  0.4587  0.4202 -2.9932
 2163TIP3    H228125   3.196   6.560   0.498  0.4575 -1.1638  0.2585
 2164TIP3   OH228126   3.968   2.978   7.694  0.5233 -0.0702 -0.5708
 2164TIP3    H128127   4.028   3.052   7.690  0.8159 -0.3432 -1.6335
 2164TIP3    H228128   3.982   2.941   7.781  0.3809  1.0983 -0.0311
 2165TIP3   OH228129   1.521   4.591   7.929 -0.4156  0.0477 -0.4997
 2165TIP3    H128130   1.529   4.686   7.936  0.0497  0.1463 -1.9050
 2165TIP3    H228131   1.593   4.566   7.870  0.1656 -1.3127  0.7344
 2166TIP3   OH228132   0.751   2.941   0.490 -0.3574  0.2830 -0.2394
 2166TIP3    H128133   0.738   3.032   0.516  0.5416  0.4782 -0.4405
 2166TIP3    H228134   0.687   2.927   0.420 -1.9388  0.1164  1.1691
 2167TIP3   OH228135   1.094   6.215   0.512  0.1077 -0.1315 -0.0278
 2167TIP3    H128136   1.122   6.214   0.420  0.3340  0.8305  0.0234
 2167TIP3    H228137   0.999   6.207   0.508  0.1669 -0.7655 -0.3134
 2168TIP3   OH228138   5.387   4.259   8.699  0.7406  0.2118  0.0665
 2168TIP3    H128139   5.414   4.250   8.607  2.7070  1.6413  0.4424
 2168TIP3    H228140   5.295   4.232   8.699 -0.2708  2.9165 -2.9145
 2169TIP3   OH228141   6.564   5.728   0.874 -0.4560  0.2141 -0.0283
 2169TIP3    H128142   6.564   5.710   0.968  1.3463 -0.1089 -0.0526
 2169TIP3    H228143   6.478   5.767   0.857 -0.1824  1.9348  2.0792
 2170TIP3   OH228144   0.520   1.364   2.581  0.2620 -0.0626 -0.6325
 2170TIP3    H128145   0.466   1.395   2.508 -0.8534  1.1440  0.6376
 2170TIP3    H228146   0.499   1.271   2.588 -0.7515  0.1331 -0.9093
 2171TIP3   OH228147   5.522   0.254   6.383  0.4294  0.4345 -0.0494
 2171TIP3    H128148   5.508   0.183   6.446 -0.7815 -0.0504 -0.8498
 2171TIP3    H228149   5.434   0.285   6.362  0.6315 -0.6803 -2.9293
 2172TIP3   OH228150   6.829   5.907   8.455  0.2764 -0.0703  0.0403
 2172TIP3    H128151   6.812   5.975   8.390  1.7976  0.2362 -0.0763
 2172TIP3    H228152   6.757   5.844   8.444  0.8557 -0.3946 -2.4507
 2173TIP3   OH228153   4.950   3.572   7.595 -0.1659 -0.2482 -0.6470
 2173TIP3    H128154   5.040   3.587   7.626 -0.2107  1.0290 -1.0871
 2173TIP3    H228155   4.954   3.591   7.501 -1.0344  0.4679 -0.5505
 2174TIP3   OH228156   6.254   5.772   8.710  0.4923 -0.4931  0.1200
 2174TIP3    H128157   6.213   5.761   8.625 -1.6093 -0.5385  1.0862
 2174TIP3    H228158   6.337   5.817   8.691  0.4701 -1.2388 -1.9871
 2175TIP3   OH228159   6.657   5.912   7.680 -0.9430  0.3263  0.0957
 2175TIP3    H128160   6.594   5.840   7.686 -2.1361  1.3345 -0.0670
 2175TIP3    H228161   6.610   5.989   7.712  0.5682  0.9063  1.0631
 2176TIP3   OH228162   1.502   4.109   0.296  0.2148 -0.1217 -0.0403
 2176TIP3    H128163   1.501   4.197   0.336 -1.0154 -0.1364  0.0051
 2176TIP3    H228164   1.496   4.126   0.202 -0.1090 -0.1550 -0.0265
 2177TIP3   OH228165   5.629   2.397   7.893 -0.3577  0.4861  0.2081
 2177TIP3    H128166   5.692   2.467   7.875 -0.9300  1.3793  1.4872
 2177TIP3    H228167   5.546   2.429   7.859 -0.3861 -0.1290 -0.3229
 2178TIP3   OH228168   6.739   5.464   7.238 -0.3151 -0.0542  0.2075
 2178TIP3    H128169   6.679   5.494   7.307  0.5801  1.2827  0.4312
 2178TIP3    H228170   6.818   5.515   7.251  0.2595 -0.5528 -1.1760
 2179TIP3   OH228171   2.781   1.507   2.086 -0.6613  0.0772 -0.7765
 2179TIP3    H128172   2.726   1.476   2.158  0.4634  0.9802  0.5366
 2179TIP3    H228173   2.820   1.587   2.120 -1.1199  1.2665 -2.9271
 2180TIP3   OH228174   5.739   0.700   0.282  0.3742  0.7658 -0.0025
 2180TIP3    H128175   5.755   0.767   0.215  1.2852 -0.1147 -0.7017
 2180TIP3    H228176   5.658   0.728   0.325  0.7927  2.3713 -0.1914
 2181TIP3   OH228177   1.692   6.313   7.151 -0.3313  0.5536 -0.0207
 2181TIP3    H128178   1.620   6.367   7.183 -1.2337 -0.8302  0.3554
 2181TIP3    H228179   1.771   6.352   7.190 -1.2740 -0.4639  3.2267
 2182TIP3   OH228180   4.579   0.297   6.883 -0.1095  0.2444  0.4148
 2182TIP3    H128181   4.552   0.382   6.849  0.1604 -0.0832 -0.6662
 2182TIP3    H228182   4.550   0.297   6.974 -1.2136  1.0019  0.0804
 2183TIP3   OH228183   3.273   3.189   8.123  0.2383  0.1421  0.5700
 2183TIP3    H128184   3.292   3.096   8.111  0.1293  0.1246  0.5324
 2183TIP3    H228185   3.354   3.226   8.159  0.3560  0.0754  0.3742
 2184TIP3   OH228186   2.430   5.517   2.408  0.0396  0.4545  0.0575
 2184TIP3    H128187   2.498   5.557   2.354 -2.2752 -0.0709 -3.5905
 2184TIP3    H228188   2.454   5.424   2.411  0.2189  0.4972 -0.0131
 2185TIP3   OH228189   5.055   3.851   7.793  0.5517  0.4924 -0.7380
 2185TIP3    H128190   5.043   3.810   7.879 -1.0173  0.8613 -0.7552
 2185TIP3    H228191   5.094   3.782   7.739 -1.7982 -0.9877 -0.6932
 2186TIP3   OH228192   0.946   4.617   7.857  0.0187  0.4199 -0.2963
 2186TIP3    H128193   1.027   4.660   7.831  0.4517 -0.4413 -0.4137
 2186TIP3    H228194   0.955   4.601   7.951 -0.1317  0.5697 -0.2562
 2187TIP3   OH228195   3.739   1.977   7.090  0.3972  0.8460  0.3768
 2187TIP3    H128196   3.647   1.984   7.115  0.1427  3.5893 -1.0304
 2187TIP3    H228197   3.753   1.883   7.077 -2.4916  0.4452 -0.3959
 2188TIP3   OH228198   5.118   6.413   1.395 -0.0748  0.5366  0.4035
 2188TIP3    H128199   5.116   6.384   1.304 -1.6949 -0.5216  0.7418
 2188TIP3    H228200   5.100   6.334   1.446 -0.4915  1.3644  1.5866
 2189TIP3   OH228201   6.322   5.682   7.510  0.4308  0.2460 -0.1629
 2189TIP3    H128202   6.301   5.723   7.593  2.3793 -0.3886  0.6925
 2189TIP3    H228203   6.303   5.589   7.523  0.6393  0.1571 -0.4678
 2190TIP3   OH228204   3.431   1.141   0.143 -0.5507  0.0982  0.1858
 2190TIP3    H128205   3.426   1.168   0.051 -1.5113  1.6590  0.6627
 2190TIP3    H228206   3.363   1.193   0.187  0.2900 -0.1759  1.8861
 2191TIP3   OH228207   4.327   3.315   0.418 -0.4627  0.3889 -0.2674
 2191TIP3    H128208   4.356   3.379   0.353  0.8822  2.7357  2.4309
 2191TIP3    H228209   4.345   3.230   0.377  1.6593  1.7393 -2.4163
 2192TIP3   OH228210   3.686   1.526   0.262 -0.2826  0.2570  0.4420
 2192TIP3    H128211   3.705   1.469   0.188  1.0367  0.8912  0.2530
 2192TIP3    H228212   3.677   1.613   0.223 -0.7158  0.4156  0.8956
 2193TIP3   OH228213   0.440   0.025   7.640 -0.1801 -0.9643 -0.0832
 2193TIP3    H128214   0.416  -0.017   7.722  0.9114 -2.0538 -0.2960
 2193TIP3    H228215   0.487   0.104   7.667 -0.5948 -0.8555  0.3330
 2194TIP3   OH228216   0.668   2.561   7.550 -0.2480 -0.2347  0.2693
 2194TIP3    H128217   0.730   2.593   7.615  0.3721  0.3903 -0.6120
 2194TIP3    H228218   0.694   2.470   7.535  1.1312  0.3169 -0.8466
 2195TIP3   OH228219   3.607   3.210   1.309  0.1768  0.3660 -0.1769
 2195TIP3    H128220   3.547   3.209   1.235  1.2709  1.7529 -1.1496
 2195TIP3    H228221   3.667   3.137   1.292 -0.2837 -0.0464 -0.0338
 2196TIP3   OH228222   0.789   5.494   1.918  0.7490  0.7856  0.0651
 2196TIP3    H128223   0.795   5.410   1.964 -1.0335 -1.1049 -2.8073
 2196TIP3    H228224   0.708   5.533   1.949  1.7738  1.7243  1.6952
 2197TIP3   OH228225   6.665   1.212   1.398 -0.3151 -0.5486 -0.2160
 2197TIP3    H128226   6.735   1.152   1.421 -1.2322 -2.3404 -1.7767
 2197TIP3    H228227   6.664   1.211   1.302 -1.3230  0.8229 -0.2457
 2198TIP3   OH228228   5.187   0.903   1.545  0.0824 -0.2193  0.0878
 2198TIP3    H128229   5.277   0.877   1.527  0.3107 -3.0815  3.9926
 2198TIP3    H228230   5.140   0.820   1.552 -2.2707  1.0882  0.8296
 2199TIP3   OH228231   3.649   1.032   8.735  0.5945 -0.2365 -0.5732
 2199TIP3    H128232   3.573   1.078   8.700  0.1076 -1.8619 -1.7319
 2199TIP3    H228233   3.698   1.100   8.782 -2.2988  0.5863  1.5477
 2200TIP3   OH228234   4.644   2.815   0.597 -0.3733 -0.0792 -0.0144
 2200TIP3    H128235   4.550   2.829   0.597 -0.5056 -0.8771 -1.3008
 2200TIP3    H228236   4.666   2.806   0.690 -0.9809  3.5378  0.6163
 2201TIP3   OH228237   6.770   0.803   7.878  0.5279 -0.3155  0.2983
 2201TIP3    H128238   6.793   0.869   7.812  1.0656 -0.3500  0.4439
 2201TIP3    H228239   6.821   0.829   7.955 -0.8422  0.2997  1.0278
 2202TIP3   OH228240   2.924   1.944   1.124  0.0559 -0.1850  0.0570
 2202TIP3    H128241   3.019   1.959   1.124 -0.1763  1.4644  0.2456
 2202TIP3    H228242   2.906   1.903   1.208  0.6570 -1.0711 -0.2245
 2203TIP3   OH228243   0.132   2.936   8.554 -0.5724 -0.0636  0.0992
 2203TIP3    H128244   0.169   2.995   8.620 -2.6432  0.7279  0.6379
 2203TIP3    H228245   0.037   2.949   8.561 -0.9666 -1.7480 -1.4048
 2204TIP3   OH228246   0.946   1.496   1.132 -0.2308  0.5679  0.3568
 2204TIP3    H128247   0.906   1.410   1.121  0.1749  0.2805  1.0594
 2204TIP3    H228248   1.036   1.485   1.102  0.3761  0.2326  2.1878
 2205TIP3   OH228249   5.297   3.588   6.433  0.3230  0.1459 -0.2790
 2205TIP3    H128250   5.205   3.581   6.455  0.5634  1.0378  1.0836
 2205TIP3    H228251   5.337   3.634   6.507  2.4334 -2.9444  0.7093
 2206TIP3   OH228252   6.223   1.009   8.682 -0.0394  0.0280 -0.4022
 2206TIP3    H128253   6.272   1.038   8.605 -2.1140  0.8756 -1.4836
 2206TIP3    H228254   6.131   1.013   8.655 -1.0791  2.7345  2.7780
 2207TIP3   OH228255   0.516   0.699   8.589 -0.1094 -0.1511  0.3239
 2207TIP3    H128256   0.575   0.629   8.559 -0.3698  0.0996 -0.7945
 2207TIP3    H228257   0.574   0.764   8.628  0.3048 -0.2034 -0.1910
 2208TIP3   OH228258   4.420   2.802   7.127 -0.2997  0.0822  0.2375
 2208TIP3    H128259   4.431   2.864   7.055 -1.1401 -0.0368  0.0006
 2208TIP3    H228260   4.333   2.765   7.114 -0.9345  0.8726  1.9360
 2209TIP3   OH228261   0.872   0.678   0.363  0.0165  0.3591  0.3140
 2209TIP3    H128262   0.961   0.702   0.388 -0.4706  3.4976 -0.5895
 2209TIP3    H228263   0.825   0.675   0.446  0.7234 -0.3395  0.7071
 2210TIP3   OH228264   0.113   6.654   7.769  0.0006 -0.0350  0.3441
 2210TIP3    H128265   0.162   6.692   7.842 -1.7905 -0.3899  1.7899
 2210TIP3    H228266   0.175   6.593   7.728  1.3894  0.9655  0.8695
 2211TIP3   OH228267   4.942   2.424   0.446 -0.3835  0.3667 -0.2555
 2211TIP3    H128268   5.004   2.407   0.375  3.0213 -2.0703  2.9462
 2211TIP3    H228269   4.968   2.509   0.481  1.3114 -0.6369  1.0625
 2212TIP3   OH228270   3.027   6.149   7.501  0.7034 -0.3481  0.5711
 2212TIP3    H128271   3.054   6.238   7.522  1.9545 -0.2790 -1.1348
 2212TIP3    H228272   2.992   6.114   7.584 -1.9254  2.4115  0.7910
 2213TIP3   OH228273   4.552   3.629   1.740  0.2665 -0.6227  0.3031
 2213TIP3    H128274   4.518   3.671   1.661  1.0770 -1.0920 -0.3095
 2213TIP3    H228275   4.624   3.575   1.709  1.9113  0.7070  1.6265
 2214TIP3   OH228276   2.465   2.538   8.099 -0.0530  0.2924  0.1211
 2214TIP3    H128277   2.421   2.601   8.042 -0.3213  0.5966  0.6533
 2214TIP3    H228278   2.394   2.490   8.141  0.1182  0.6035  0.7810
 2215TIP3   OH228279   1.885   1.359   1.077 -0.2431  0.1473 -0.2384
 2215TIP3    H128280   1.792   1.338   1.067  0.1810 -1.1315 -2.0764
 2215TIP3    H228281   1.887   1.453   1.089 -1.7329  0.3406 -1.2083
 2216TIP3   OH228282   2.982   6.523   1.585 -0.6305 -0.2505 -0.3529
 2216TIP3    H128283   3.058   6.505   1.530 -0.6665 -1.3200 -0.0713
 2216TIP3    H228284   3.018   6.558   1.666 -0.2941 -2.2065  0.3938
 2217TIP3   OH228285   5.293   3.429   0.396  0.2611  0.3545 -0.2908
 2217TIP3    H128286   5.357   3.414   0.326 -0.3117  1.4041 -1.0682
 2217TIP3    H228287   5.347   3.443   0.474  0.8972 -1.4069 -0.3630
 2218TIP3   OH228288   6.484   3.846   0.537 -0.2739 -0.0634 -0.0966
 2218TIP3    H128289   6.549   3.904   0.575 -1.2638  0.4719  0.8579
 2218TIP3    H228290   6.419   3.904   0.497 -0.2097 -0.5789 -0.9916
 2219TIP3   OH228291   4.246   4.896   6.871  0.1913  0.0532  0.7619
 2219TIP3    H128292   4.298   4.911   6.792  1.0174 -0.8054  1.1284
 2219TIP3    H228293   4.178   4.963   6.867 -0.4252 -0.5960 -1.2181
 2220TIP3   OH228294   5.880   0.523   8.452  0.1833 -0.3628  0.1655
 2220TIP3    H128295   5.913   0.442   8.492 -1.6608 -1.7844 -0.9948
 2220TIP3    H228296   5.918   0.524   8.365 -0.2439 -0.2955 -0.0225
 2221TIP3   OH228297   1.840   3.028   0.290  0.7789 -0.3250 -0.3608
 2221TIP3    H128298   1.927   2.992   0.307 -1.0440 -4.0646  2.3263
 2221TIP3    H228299   1.811   2.985   0.210  0.2082 -1.8150  0.5973
 2222TIP3   OH228300   0.734   2.247   0.909  0.5632  0.1070 -0.7343
 2222TIP3    H128301   0.753   2.184   0.839  1.8674  1.6834 -1.8835
 2222TIP3    H228302   0.650   2.286   0.884  0.4932 -0.1077 -0.8357
 2223TIP3   OH228303   6.539   4.726   2.235  0.0824 -0.0002  0.6329
 2223TIP3    H128304   6.563   4.754   2.323 -2.2858 -1.7064  1.9408
 2223TIP3    H228305   6.570   4.636   2.229  0.5330  0.2085 -0.4460
 2224TIP3   OH228306   6.436   3.813   2.269 -0.1258  0.7926  0.4242
 2224TIP3    H128307   6.449   3.897   2.225  1.0043 -0.3394 -1.5641
 2224TIP3    H228308   6.377   3.765   2.212  2.2839 -1.1544 -0.6155
 2225TIP3   OH228309   4.525   6.722   7.781  0.3873 -0.5389  0.2603
 2225TIP3    H128310   4.537   6.709   7.687  1.5636  3.0189 -0.2246
 2225TIP3    H228311   4.603   6.685   7.821  0.4059 -1.0717 -0.2515
 2226TIP3   OH228312   1.476   1.521   0.189 -0.0153 -0.0126 -0.5421
 2226TIP3    H128313   1.406   1.583   0.171  0.2226 -0.0489 -1.6723
 2226TIP3    H228314   1.432   1.449   0.235 -0.1438  1.3051  1.5233
 2227TIP3   OH228315   3.798   0.565   1.313 -0.7665 -0.0249  0.0649
 2227TIP3    H128316   3.712   0.548   1.273 -0.5443  0.0832 -0.4712
 2227TIP3    H228317   3.859   0.513   1.260 -0.2994  1.1306 -0.5516
 2228TIP3   OH228318   1.485   5.643   1.266  0.3689 -0.9148 -0.0757
 2228TIP3    H128319   1.539   5.575   1.226  2.5901  0.8526 -0.2486
 2228TIP3    H228320   1.463   5.703   1.195 -0.9818 -1.0295  0.2086
 2229TIP3   OH228321   2.067   5.072   7.362 -0.1062  0.2023 -0.6041
 2229TIP3    H128322   2.047   5.021   7.283  0.7810 -0.9846 -0.0927
 2229TIP3    H228323   2.006   5.145   7.359 -1.9594 -1.2886 -0.9860
 2230TIP3   OH228324   6.682   5.539   8.202  0.4027  0.7102 -0.5531
 2230TIP3    H128325   6.594   5.504   8.190  1.5248 -2.6715 -0.0654
 2230TIP3    H228326   6.718   5.541   8.113 -0.2092  2.3745 -0.7883
 2231TIP3   OH228327   4.787   3.681   8.317 -0.3196  0.4110  0.1429
 2231TIP3    H128328   4.811   3.612   8.256 -0.4252  0.1364  0.4117
 2231TIP3    H228329   4.838   3.662   8.396  0.3293  1.1461 -0.0882
 2232TIP3   OH228330   4.362   5.221   0.472 -0.1892 -0.1645  0.3824
 2232TIP3    H128331   4.299   5.166   0.425 -1.0176  1.3085 -0.3209
 2232TIP3    H228332   4.330   5.310   0.459  2.6200  0.7851 -0.9282
 2233TIP3   OH228333   6.755   1.860   8.641  0.0601  0.2496 -0.1707
 2233TIP3    H128334   6.782   1.951   8.632  0.8389 -0.0154 -0.6782
 2233TIP3    H228335   6.715   1.839   8.556 -1.1439  0.4390  0.3374
 2234TIP3   OH228336   5.980   6.225   1.827  0.2782  0.1392  0.3947
 2234TIP3    H128337   6.019   6.296   1.776  1.2592 -0.0597  0.8419
 2234TIP3    H228338   6.002   6.146   1.778 -0.2382  0.0882  0.2450
 2235TIP3   OH228339   0.534   5.447   7.424 -0.1206  0.3010 -0.6997
 2235TIP3    H128340   0.468   5.497   7.376 -1.9751 -0.2530  1.1064
 2235TIP3    H228341   0.524   5.476   7.515  2.5623  0.5966 -0.4254
 2236TIP3   OH228342   2.829   1.766   6.464 -0.2276 -0.4786  0.6373
 2236TIP3    H128343   2.924   1.777   6.456 -0.3406  1.2465  1.1433
 2236TIP3    H228344   2.814   1.672   6.453  1.6051 -0.8736  1.1935
 2237TIP3   OH228345   2.147   6.522   6.825  0.1647  0.1904 -0.2638
 2237TIP3    H128346   2.185   6.437   6.845  2.6428  1.8386  2.8829
 2237TIP3    H228347   2.218   6.572   6.784 -0.3939  1.5481  0.3607
 2238TIP3   OH228348   2.735   6.575   0.906  0.0126 -0.1754  0.5260
 2238TIP3    H128349   2.665   6.598   0.967  1.3540  2.0172  1.3351
 2238TIP3    H228350   2.774   6.659   0.881  2.0191 -1.2929 -0.3123
 2239TIP3   OH228351   1.110   0.678   8.530  0.3836  0.0851 -0.5113
 2239TIP3    H128352   1.090   0.640   8.444  2.8827 -0.7639 -0.7861
 2239TIP3    H228353   1.024   0.702   8.565 -0.9829 -2.1736 -2.0216
 2240TIP3   OH228354   0.791   6.483   8.647 -0.7800  0.1104  0.1368
 2240TIP3    H128355   0.706   6.507   8.609 -0.6012 -0.7025 -0.7972
 2240TIP3    H228356   0.844   6.563   8.638 -1.7473  0.9708  1.6925
 2241TIP3   OH228357   1.991   3.101   7.037  0.1229  0.3815 -0.0500
 2241TIP3    H128358   1.959   3.170   7.095  1.7616  0.8955  0.3128
 2241TIP3    H228359   1.947   3.118   6.953 -1.7832  0.0093  0.8344
 2242TIP3   OH228360   2.060   0.478   0.484  0.3233 -0.0213 -0.0121
 2242TIP3    H128361   2.031   0.447   0.398 -1.7166  0.4146  0.4639
 2242TIP3    H228362   2.152   0.503   0.471  0.7600 -2.1463 -1.4569
 2243TIP3   OH228363   3.772   0.077   1.852 -0.4564 -0.0938  0.3077
 2243TIP3    H128364   3.747  -0.013   1.835 -1.1785  0.0519  0.5679
 2243TIP3    H228365   3.691   0.120   1.881 -0.0868  0.5913  0.3575
 2244TIP3   OH228366   0.082   1.401   8.196 -0.5377 -0.6926 -0.3294
 2244TIP3    H128367   0.105   1.463   8.265 -1.8235  0.1391 -0.6044
 2244TIP3    H228368   0.157   1.343   8.189  0.7255  0.8481 -0.0619
 2245TIP3   OH228369   2.387   1.732   1.247  0.7905  0.1306 -0.3838
 2245TIP3    H128370   2.321   1.775   1.193 -0.3274 -1.1889 -0.1157
 2245TIP3    H228371   2.345   1.652   1.279  2.6046 -0.9315 -0.4522
 2246TIP3   OH228372   6.498   3.034   1.459  0.1024  0.1671  0.1576
 2246TIP3    H128373   6.547   3.042   1.377 -0.8099 -0.0614 -0.4204
 2246TIP3    H228374   6.497   3.123   1.494  0.9826  0.1665  0.2172
 2247TIP3   OH228375   3.656   6.337   6.246 -0.2986 -0.2949  0.9287
 2247TIP3    H128376   3.594   6.395   6.202  0.9201  1.1853  1.1228
 2247TIP3    H228377   3.614   6.318   6.330 -0.4620  0.7555  1.0941
 2248TIP3   OH228378   0.591   3.974   7.085 -0.1816 -0.6318 -0.0849
 2248TIP3    H128379   0.540   4.053   7.065  0.4965 -0.4216 -1.0379
 2248TIP3    H228380   0.617   3.940   7.000  1.5508 -0.5574  0.3856
 2249TIP3   OH228381   2.398   6.630   1.552 -0.0582  0.5022  0.4529
 2249TIP3    H128382   2.410   6.641   1.646  0.2639 -1.6213  0.6981
 2249TIP3    H228383   2.361   6.714   1.523 -2.0570  0.5356  2.7708
 2250TIP3   OH228384   6.491   0.703   7.843 -0.2722  0.5492 -0.3609
 2250TIP3    H128385   6.522   0.648   7.771  0.1426 -1.2373  1.1071
 2250TIP3    H228386   6.562   0.766   7.858  0.8249 -0.7540  0.1505
 2251TIP3   OH228387   2.064   1.182   2.130  0.0770  0.2228  0.4996
 2251TIP3    H128388   2.117   1.107   2.159  0.2403  0.3787  0.6034
 2251TIP3    H228389   2.078   1.249   2.197 -0.5013  0.1565  0.6988
 2252TIP3   OH228390   2.167   2.456   0.878  0.2240  0.1211  0.7354
 2252TIP3    H128391   2.207   2.405   0.949 -0.5876  0.7940  1.7158
 2252TIP3    H228392   2.130   2.533   0.923  1.2509  1.4859 -0.6462
 2253TIP3   OH228393   4.620   2.034   1.348  0.2484  0.0817 -0.3866
 2253TIP3    H128394   4.663   2.072   1.272  1.0212  0.0135  0.0054
 2253TIP3    H228395   4.540   2.086   1.360 -0.1596 -0.2354 -1.5435
 2254TIP3   OH228396   2.793   0.693   7.140 -0.0471  0.4816  0.1899
 2254TIP3    H128397   2.882   0.703   7.172  0.1147  1.1236 -0.4503
 2254TIP3    H228398   2.739   0.694   7.220  0.4696  0.5866  0.5433
 2255TIP3   OH228399   6.593   3.986   0.996  0.0369 -0.0140  0.5508
 2255TIP3    H128400   6.522   4.041   1.029  0.2275  0.3993  0.2826
 2255TIP3    H228401   6.552   3.929   0.931  0.3724  1.9594 -1.5121
 2256TIP3   OH228402   2.468   6.493   1.978  0.4384 -0.1135 -0.3241
 2256TIP3    H128403   2.437   6.564   1.921  0.2747 -0.7851 -1.0959
 2256TIP3    H228404   2.518   6.537   2.046 -0.0897  0.7879 -0.4955
 2257TIP3   OH228405   2.743   4.823   2.776 -0.4342 -0.1438  0.1524
 2257TIP3    H128406   2.734   4.856   2.687  1.0544  0.9987  0.3815
 2257TIP3    H228407   2.678   4.873   2.827  0.0168  0.5968  0.0236
 2258TIP3   OH228408   6.587   3.635   2.072  0.1165  0.7111  0.1212
 2258TIP3    H128409   6.560   3.692   2.000  0.8189 -0.0911 -0.8048
 2258TIP3    H228410   6.587   3.692   2.149  0.0883  1.7742 -0.6491
 2259TIP3   OH228411   2.219   2.058   1.357  0.0198  0.5225 -0.0784
 2259TIP3    H128412   2.244   2.149   1.375  2.2079 -0.0548  0.0854
 2259TIP3    H228413   2.302   2.011   1.351 -0.9811 -1.1755 -1.8530
 2260TIP3   OH228414   2.568   4.206   8.790 -0.5605 -0.0285 -0.0578
 2260TIP3    H128415   2.611   4.291   8.798  0.2346 -0.3775 -0.4640
 2260TIP3    H228416   2.483   4.225   8.750 -0.7607  0.6655  0.6855
 2261TIP3   OH228417   5.711   2.430   6.976  0.1781 -0.7829  0.0579
 2261TIP3    H128418   5.747   2.437   6.887 -0.7412 -0.7515 -0.3155
 2261TIP3    H228419   5.620   2.405   6.964  0.2514 -1.5965  1.0253
 2262TIP3   OH228420   5.276   5.509   0.335 -0.6630 -0.8186 -0.1067
 2262TIP3    H128421   5.215   5.559   0.279  0.7496  2.1758  0.7885
 2262TIP3    H228422   5.335   5.466   0.274 -1.2856 -0.5268 -0.9405
 2263TIP3   OH228423   1.139   1.281   7.331  0.5191 -0.4505  0.0435
 2263TIP3    H128424   1.164   1.229   7.255 -0.0288  0.6400 -0.9072
 2263TIP3    H228425   1.221   1.299   7.376  1.3930  1.7883 -2.1986
 2264TIP3   OH228426   0.531   5.454   0.784 -0.1197  0.3545 -0.0622
 2264TIP3    H128427   0.568   5.407   0.858  0.7684  0.5949 -0.3451
 2264TIP3    H228428   0.474   5.390   0.742  0.5088 -0.2508 -0.0193
 2265TIP3   OH228429   2.356   1.163   1.126 -0.3448 -0.2871  0.2605
 2265TIP3    H128430   2.444   1.126   1.138 -0.3118  0.0431  1.1050
 2265TIP3    H228431   2.310   1.098   1.073  0.7076 -0.0039 -1.0761
 2266TIP3   OH228432   0.662   3.671   1.668 -0.2535 -0.1566  0.1047
 2266TIP3    H128433   0.591   3.632   1.615 -0.2668 -1.1926  0.8517
 2266TIP3    H228434   0.633   3.760   1.685 -1.7616 -0.7707  1.0064
 2267TIP3   OH228435   6.211   0.467   1.403  0.5216  0.3587  0.3646
 2267TIP3    H128436   6.289   0.480   1.350 -1.0834 -0.7339 -2.4408
 2267TIP3    H228437   6.144   0.436   1.342 -1.4352 -1.2188  3.0658
 2268TIP3   OH228438   5.264   2.062   1.470 -0.0738 -0.5154 -0.4121
 2268TIP3    H128439   5.262   2.034   1.561 -0.8417  1.8912  0.3758
 2268TIP3    H228440   5.194   2.011   1.428 -2.5239  1.1798  1.3236
 2269TIP3   OH228441   6.311   5.172   1.688  0.1979 -0.2704  0.3279
 2269TIP3    H128442   6.316   5.084   1.726 -2.3762 -0.4095  0.4933
 2269TIP3    H228443   6.349   5.162   1.600  1.9044 -1.0148  1.1086
 2270TIP3   OH228444   3.235   0.943   7.164  0.0350 -0.0823  0.3801
 2270TIP3    H128445   3.292   0.868   7.179 -1.4973 -0.9501  2.5223
 2270TIP3    H228446   3.191   0.924   7.082  0.3761 -1.0686  0.4130
 2271TIP3   OH228447   5.484   0.124   8.460  0.9609  0.4677  0.2202
 2271TIP3    H128448   5.421   0.090   8.523  0.3364  0.3351 -0.4726
 2271TIP3    H228449   5.565   0.134   8.511  0.6396 -0.2381  0.8872
 2272TIP3   OH228450   4.307   3.304   6.179  0.2474  0.0242 -0.7580
 2272TIP3    H128451   4.225   3.333   6.140 -0.2927 -0.9667 -0.3747
 2272TIP3    H228452   4.314   3.212   6.157 -0.8849 -1.0519  2.7155
 2273TIP3   OH228453   5.954   5.015   0.297  0.4787  0.0105 -0.3386
 2273TIP3    H128454   5.991   5.063   0.223  0.3142 -0.4123 -0.6996
 2273TIP3    H228455   6.028   5.002   0.356  1.2500 -1.8807 -1.6041
 2274TIP3   OH228456   3.041   5.499   6.130 -0.0894  0.1015 -0.5081
 2274TIP3    H128457   3.073   5.417   6.167  0.3877 -0.1761 -1.4894
 2274TIP3    H228458   3.073   5.498   6.039 -1.3892  0.6565 -0.9899
 2275TIP3   OH228459   1.423   4.328   8.644 -0.1964  0.0997 -0.4889
 2275TIP3    H128460   1.338   4.296   8.616  0.5571 -1.4135 -1.1712
 2275TIP3    H228461   1.447   4.394   8.580 -0.8786  0.5765 -0.2551
 2276TIP3   OH228462   6.580   1.216   2.451  0.3769  0.3605 -0.1852
 2276TIP3    H128463   6.501   1.240   2.402 -0.9098 -0.3837  1.4391
 2276TIP3    H228464   6.597   1.125   2.426 -0.3376 -0.0516  0.7726
 2277TIP3   OH228465   0.762   4.506   7.227  0.1593  0.0454 -0.0822
 2277TIP3    H128466   0.717   4.521   7.310  0.4209  0.0534  0.0594
 2277TIP3    H228467   0.832   4.572   7.226 -0.5828  0.8503 -0.8540
 2278TIP3   OH228468   1.289   0.742   6.520 -0.2710 -0.5440  0.1122
 2278TIP3    H128469   1.328   0.789   6.594  1.0269  0.8260 -1.3492
 2278TIP3    H228470   1.195   0.758   6.529 -0.1442 -0.3839  1.4238
 2279TIP3   OH228471   1.355   3.774   7.537 -0.4527 -0.5581 -0.4710
 2279TIP3    H128472   1.348   3.740   7.448 -1.1562 -1.4737 -0.0823
 2279TIP3    H228473   1.408   3.709   7.583 -1.4546 -0.9352  0.1758
 2280TIP3   OH228474   4.462   1.861   7.993 -0.2441  0.3450 -0.0652
 2280TIP3    H128475   4.407   1.825   8.063 -1.0011  1.5072 -0.0381
 2280TIP3    H228476   4.552   1.854   8.027 -0.6160  1.1239  1.1619
 2281TIP3   OH228477   1.758   3.925   0.102 -0.3282  0.1326  0.4088
 2281TIP3    H128478   1.824   3.993   0.113 -1.3569  1.0235  1.2926
 2281TIP3    H228479   1.676   3.972   0.088 -1.0889 -0.9080  1.1613
 2282TIP3   OH228480   6.129   4.641   8.252 -0.0025 -0.1504 -1.0875
 2282TIP3    H128481   6.058   4.705   8.253 -0.3528 -0.5036  0.5285
 2282TIP3    H228482   6.097   4.568   8.306  2.6080  0.9684  2.4206
 2283TIP3   OH228483   4.093   3.959   7.717 -0.9051  0.2552  0.0602
 2283TIP3    H128484   4.096   4.022   7.789  0.9701  0.3313 -0.0390
 2283TIP3    H228485   4.110   4.011   7.638 -1.3566 -0.0727 -0.2607
 2284TIP3   OH228486   1.815   2.410   0.443  0.9312 -0.0713 -0.3163
 2284TIP3    H128487   1.751   2.453   0.386  1.1935  0.6555 -0.0690
 2284TIP3    H228488   1.762   2.360   0.505  0.6372 -0.6770 -1.0309
 2285TIP3   OH228489   6.013   1.908   6.786 -0.1239 -0.8613 -0.2301
 2285TIP3    H128490   6.087   1.852   6.811  0.7584  0.9328  1.5007
 2285TIP3    H228491   6.046   1.997   6.797 -2.5478  0.0090  0.7183
 2286TIP3   OH228492   3.108   0.940   0.986  0.2255  0.0684  0.1840
 2286TIP3    H128493   3.183   0.918   0.930  0.0173 -0.9113  0.2625
 2286TIP3    H228494   3.050   0.991   0.930 -0.2890 -1.4433 -0.7368
 2287TIP3   OH228495   2.042   5.292   1.922 -0.1538  0.2032  0.3280
 2287TIP3    H128496   1.980   5.362   1.940  0.3781  0.4858  1.1543
 2287TIP3    H228497   2.124   5.337   1.900  0.0511 -0.1492  0.3503
 2288TIP3   OH228498   5.375   2.105   8.382 -0.4607 -0.4446  0.0448
 2288TIP3    H128499   5.416   2.150   8.456  1.1080 -1.7419  0.0247
 2288TIP3    H228500   5.357   2.017   8.415 -0.2817 -0.8628 -0.9299
 2289TIP3   OH228501   4.759   0.581   8.337  0.1058 -0.1308  0.0690
 2289TIP3    H128502   4.706   0.580   8.257  2.4486  0.4436 -1.5862
 2289TIP3    H228503   4.707   0.633   8.399 -1.9810 -0.9817 -0.8685
 2290TIP3   OH228504   5.043   0.949   7.409 -0.1517 -0.1960  0.7288
 2290TIP3    H128505   4.981   0.904   7.352 -0.4512  0.1602  0.7710
 2290TIP3    H228506   5.034   1.041   7.386 -0.6214  0.0057  1.6789
 2291TIP3   OH228507   4.948   3.611   7.315 -0.4480  0.1565 -0.6341
 2291TIP3    H128508   4.920   3.602   7.224 -0.6124 -0.7256 -0.5103
 2291TIP3    H228509   5.032   3.657   7.310 -0.5960  0.3671 -1.2118
 2292TIP3   OH228510   6.139   3.895   1.110  0.1917  0.1796 -0.1195
 2292TIP3    H128511   6.132   3.990   1.115 -0.0009  0.1692 -0.2100
 2292TIP3    H228512   6.049   3.864   1.100 -0.0264 -0.1597  2.2547
 2293TIP3   OH228513   4.063   0.498   7.549  0.6702 -0.6855 -0.5463
 2293TIP3    H128514   3.973   0.474   7.527 -0.1000  0.7554  0.8281
 2293TIP3    H228515   4.091   0.430   7.610 -0.3559  0.0683  0.8311
 2294TIP3   OH228516   1.824   0.220   1.460  0.0020  0.1403 -0.1432
 2294TIP3    H128517   1.915   0.240   1.479  0.3007 -1.7766  0.5862
 2294TIP3    H228518   1.774   0.287   1.508  0.9912  1.0557 -0.3561
 2295TIP3   OH228519   0.358   0.478   6.671  0.2688 -0.1023  0.3563
 2295TIP3    H128520   0.268   0.474   6.703  0.1809  1.4088  0.3382
 2295TIP3    H228521   0.408   0.425   6.735 -0.6593 -1.2867  0.1413
 2296TIP3   OH228522   2.906   6.141   7.249  0.0741 -0.4564 -0.3143
 2296TIP3    H128523   2.815   6.166   7.269 -0.3609 -2.9611  1.4021
 2296TIP3    H228524   2.952   6.151   7.332  0.7139 -1.6805 -0.5032
 2297TIP3   OH228525   3.485   4.160   8.497 -0.2275 -0.5071  0.0546
 2297TIP3    H128526   3.542   4.188   8.425 -1.0826  0.8253 -0.1392
 2297TIP3    H228527   3.502   4.067   8.505  3.0410  0.0280  0.9438
 2298TIP3   OH228528   5.033   2.347   7.257 -0.3805 -0.1254  0.2975
 2298TIP3    H128529   5.105   2.343   7.320 -0.7034  0.5049  0.7179
 2298TIP3    H228530   5.043   2.267   7.205  0.0371 -0.5368  0.9837
 2299TIP3   OH228531   2.154   0.064   8.247  0.7043 -0.6092  0.3938
 2299TIP3    H128532   2.067   0.098   8.229  2.0179  1.6722 -2.4728
 2299TIP3    H228533   2.164   0.068   8.342 -1.6496  0.7419  0.6317
 2300TIP3   OH228534   4.049   4.334   6.983 -0.0707 -0.1992 -0.3236
 2300TIP3    H128535   4.054   4.386   7.063 -0.3441 -0.5097 -0.1053
 2300TIP3    H228536   4.027   4.397   6.915  1.2255  0.2638 -0.3526
 2301TIP3   OH228537   2.009   4.718   8.275 -0.0008 -0.4201  0.4015
 2301TIP3    H128538   2.060   4.777   8.220 -2.0261  1.0870  0.0057
 2301TIP3    H228539   1.986   4.644   8.218 -0.4513  0.1905 -0.2252
 2302TIP3   OH228540   4.342   0.511   8.114  0.7422 -0.0264 -0.1718
 2302TIP3    H128541   4.428   0.532   8.076  1.6882  0.0041  1.8417
 2302TIP3    H228542   4.301   0.453   8.050  1.8576  0.7193 -1.6249
 2303TIP3   OH228543   6.392   5.430   6.638 -0.4258  0.1315 -0.0617
 2303TIP3    H128544   6.480   5.399   6.616  0.0942  1.6860 -0.3352
 2303TIP3    H228545   6.338   5.405   6.563  0.0586  0.2164 -0.4459
 2304TIP3   OH228546   2.734   2.413   0.579 -0.2581 -0.4824  0.2099
 2304TIP3    H128547   2.675   2.480   0.545  0.0880 -0.8198 -1.1147
 2304TIP3    H228548   2.770   2.370   0.501  2.3589  0.2381  0.9017
 2305TIP3   OH228549   0.417   5.766   5.941 -0.0127  0.4975  0.1067
 2305TIP3    H128550   0.413   5.714   6.021  0.7191 -0.3898 -0.4055
 2305TIP3    H228551   0.463   5.846   5.966  2.0739 -0.6497  0.1620
 2306TIP3   OH228552   4.969   2.048   0.307 -0.3099 -0.4289  0.3708
 2306TIP3    H128553   4.940   2.077   0.221  0.2783 -1.6040 -0.2463
 2306TIP3    H228554   4.888   2.025   0.353 -0.5824 -0.4138 -0.0970
 2307TIP3   OH228555   1.903   6.473   6.287 -0.2426 -0.1280 -0.5498
 2307TIP3    H128556   1.866   6.386   6.300 -1.8813  0.6996  0.5521
 2307TIP3    H228557   1.950   6.492   6.369  1.7917 -0.7090 -1.5071
 2308TIP3   OH228558   2.857   6.585   1.252  0.2179  0.8791  0.1619
 2308TIP3    H128559   2.794   6.530   1.207 -0.1801  0.8570  0.7280
 2308TIP3    H228560   2.930   6.526   1.274 -0.2928  0.5246  0.9384
 2309TIP3   OH228561   1.928   2.109   0.758  0.1317  0.3819 -0.2042
 2309TIP3    H128562   2.016   2.073   0.750  0.3187  0.6976  0.4142
 2309TIP3    H228563   1.891   2.102   0.669  0.5387 -0.3489 -0.3223
 2310TIP3   OH228564   5.262   0.418   0.741  0.5038  0.3047  0.2520
 2310TIP3    H128565   5.245   0.325   0.729 -0.9390  0.5699 -0.0800
 2310TIP3    H228566   5.313   0.424   0.821 -0.6357 -0.6891  1.0971
 2311TIP3   OH228567   1.411   2.148   8.596  0.4631 -0.5389 -0.1282
 2311TIP3    H128568   1.448   2.098   8.523  1.2606 -0.0307 -0.0860
 2311TIP3    H228569   1.435   2.098   8.674 -0.8551 -1.3693 -0.2273
 2312TIP3   OH228570   2.818   5.492   0.399 -0.5203 -0.1585 -0.0454
 2312TIP3    H128571   2.899   5.444   0.379  0.0818  0.6986  0.2607
 2312TIP3    H228572   2.802   5.473   0.492 -0.6363 -0.2757 -0.0895
 2313TIP3   OH228573   3.660   5.890   0.335 -0.2188  0.1016  0.1689
 2313TIP3    H128574   3.684   5.971   0.379  1.4482 -0.1222 -0.2533
 2313TIP3    H228575   3.693   5.900   0.246 -0.0140 -1.0112  0.0929
 2314TIP3   OH228576   4.511   0.765   8.247  0.1090 -0.0937 -0.5004
 2314TIP3    H128577   4.515   0.860   8.256 -0.2747 -0.2378  1.8452
 2314TIP3    H228578   4.426   0.741   8.285  0.8276 -1.4708  0.3267
 2315TIP3   OH228579   1.527   0.653   8.017 -0.7320  0.1386 -0.1847
 2315TIP3    H128580   1.573   0.704   8.084  2.0353  0.0774 -1.8974
 2315TIP3    H228581   1.503   0.571   8.062  1.2102  0.0208  0.7172
 2316TIP3   OH228582   3.012   0.301   1.646 -0.0969  0.4169  0.4425
 2316TIP3    H128583   2.972   0.308   1.560 -0.9378  0.2370  0.8084
 2316TIP3    H228584   3.097   0.344   1.637  0.1578 -0.2849 -0.6799
 2317TIP3   OH228585   1.874   5.835   2.131 -0.1398  0.2362 -0.0018
 2317TIP3    H128586   1.873   5.897   2.058  0.2475 -0.4203 -0.5786
 2317TIP3    H228587   1.784   5.806   2.140 -0.1750  0.2607 -0.2701
 2318TIP3   OH228588   5.433   0.480   0.175 -0.1693  0.1410 -0.8309
 2318TIP3    H128589   5.442   0.545   0.245  0.1680 -0.3744 -0.3892
 2318TIP3    H228590   5.520   0.474   0.137 -0.3992  0.5754 -1.4522
 2319TIP3   OH228591   4.432   6.671   1.094 -0.3764 -0.0014  0.3656
 2319TIP3    H128592   4.392   6.744   1.142 -0.8972  0.3782 -0.6250
 2319TIP3    H228593   4.359   6.627   1.051  0.0590 -0.4665  0.0959
 2320TIP3   OH228594   4.768   2.904   2.043  0.5804  0.2254 -0.2479
 2320TIP3    H128595   4.778   2.932   2.134  1.7555  1.0455 -0.6039
 2320TIP3    H228596   4.838   2.839   2.031  0.5455  0.2562 -0.6186
 2321TIP3   OH228597   4.447   4.957   6.675 -0.2314  0.0658 -0.3630
 2321TIP3    H128598   4.540   4.945   6.654 -0.4319  0.3755 -1.4908
 2321TIP3    H228599   4.401   4.934   6.594 -1.1424 -0.0635  0.1773
 2322TIP3   OH228600   1.905   5.570   0.199 -0.6413 -0.6600 -0.3663
 2322TIP3    H128601   1.849   5.613   0.134  0.3000 -0.6909 -1.2206
 2322TIP3    H228602   1.931   5.488   0.158  0.3077 -0.4869 -0.1149
 2323TIP3   OH228603   3.326   1.787   7.282  0.1149  0.2271  0.1591
 2323TIP3    H128604   3.248   1.805   7.335  0.1828  1.2892 -0.0809
 2323TIP3    H228605   3.363   1.707   7.320 -1.5185 -0.7547 -0.2078
 2324TIP3   OH228606   6.536   2.765   8.663 -0.0567 -0.1000  0.5442
 2324TIP3    H128607   6.451   2.763   8.620 -0.1568 -1.4586  0.7664
 2324TIP3    H228608   6.597   2.727   8.600 -0.1588 -1.8518  1.4175
 2325TIP3   OH228609   5.152   0.094   6.876 -0.4850 -0.1327 -0.1471
 2325TIP3    H128610   5.181   0.149   6.803  0.0622  0.9227  0.8355
 2325TIP3    H228611   5.223   0.031   6.889 -0.2485  0.1533 -0.0515
 2326TIP3   OH228612   4.957   4.770   1.520  0.0564 -0.1481 -0.6387
 2326TIP3    H128613   4.911   4.824   1.584  2.4530  1.2342  0.0312
 2326TIP3    H228614   4.933   4.680   1.543 -0.2394  0.3863  1.3616
 2327TIP3   OH228615   6.756   1.847   8.357 -0.0669 -0.7006  0.0528
 2327TIP3    H128616   6.772   1.779   8.292  0.1087 -0.1229 -0.5232
 2327TIP3    H228617   6.668   1.879   8.338  0.3007  0.0427 -0.4521
 2328TIP3   OH228618   5.850   4.548   7.387  0.4700  0.3256 -0.7971
 2328TIP3    H128619   5.822   4.519   7.300  0.5421  0.8653 -1.0048
 2328TIP3    H228620   5.789   4.618   7.410  1.2606  1.1014 -0.9933
 2329TIP3   OH228621   3.566   5.472   6.776  0.0690 -0.2352 -0.0672
 2329TIP3    H128622   3.601   5.383   6.790  0.0134 -0.2358  0.0711
 2329TIP3    H228623   3.503   5.462   6.706 -0.3304 -0.4060  0.3101
 2330TIP3   OH228624   0.998   6.760   7.324  0.2876  0.4383 -0.3470
 2330TIP3    H128625   0.931   6.824   7.349  0.6423  1.5724 -2.1190
 2330TIP3    H228626   1.080   6.809   7.327  0.7578 -0.3369 -0.3202
 2331TIP3   OH228627   3.409   6.244   8.041 -0.3104 -0.6322 -0.0520
 2331TIP3    H128628   3.438   6.285   7.959  0.5169  0.4064  0.7293
 2331TIP3    H228629   3.484   6.191   8.068 -0.0184  0.1772  0.7620
 2332TIP3   OH228630   0.698   0.442   1.035 -0.0208  0.6249  0.5930
 2332TIP3    H128631   0.634   0.503   1.073  1.0984  0.3759  3.1206
 2332TIP3    H228632   0.783   0.472   1.070  0.7426 -1.4322  0.6409
 2333TIP3   OH228633   4.801   5.999   8.566  0.1594 -0.1122 -0.2073
 2333TIP3    H128634   4.849   5.999   8.648  0.9962 -0.7829 -0.6710
 2333TIP3    H228635   4.844   6.066   8.513 -0.1147  0.0372 -0.2403
 2334TIP3   OH228636   0.294   3.655   2.288  0.1281  0.1521  0.3613
 2334TIP3    H128637   0.209   3.623   2.259  1.1271 -0.9271 -1.5200
 2334TIP3    H228638   0.321   3.718   2.221  0.5687  0.9599  1.2625
 2335TIP3   OH228639   3.300   5.244   6.700  0.0262 -0.1751  0.1594
 2335TIP3    H128640   3.260   5.331   6.690  0.6653  0.1452  0.3440
 2335TIP3    H228641   3.301   5.208   6.612 -1.6126 -0.6253  0.2780
 2336TIP3   OH228642   3.446   6.819   2.028  0.3351 -0.0891 -0.1656
 2336TIP3    H128643   3.538   6.792   2.036  0.7136  0.9922 -0.7084
 2336TIP3    H228644   3.450   6.905   1.986 -0.8124  0.8889  1.6011
 2337TIP3   OH228645   3.067   1.239   7.919  0.1376 -0.3243  0.0548
 2337TIP3    H128646   3.064   1.292   7.999 -1.3308  1.9538 -1.3891
 2337TIP3    H228647   3.140   1.275   7.869  0.3071 -0.9622 -0.1737
 2338TIP3   OH228648   3.572   0.868   0.772 -0.4656  1.1310  0.0292
 2338TIP3    H128649   3.563   0.960   0.746  0.0363  1.2131  0.1226
 2338TIP3    H228650   3.580   0.870   0.867 -3.1935  0.7576  0.3344
 2339TIP3   OH228651   3.819   0.079   1.122 -0.0886 -0.3166 -0.0686
 2339TIP3    H128652   3.850   0.139   1.054  0.6068  0.8062  1.2068
 2339TIP3    H228653   3.817   0.132   1.202 -2.6411 -1.1093  0.4649
 2340TIP3   OH228654   1.937   0.189   8.661 -0.2511 -0.0341 -0.1311
 2340TIP3    H128655   1.907   0.274   8.693  0.0995 -0.8617  2.6503
 2340TIP3    H228656   2.027   0.181   8.693  0.3210 -0.8050 -1.7960
 2341TIP3   OH228657   4.964   5.135   1.983 -0.4503  0.1293 -0.0718
 2341TIP3    H128658   5.010   5.058   1.949  0.2049  1.3232 -2.0366
 2341TIP3    H228659   5.007   5.155   2.065  0.1192 -0.9083 -0.0975
 2342TIP3   OH228660   4.955   2.287   8.126 -0.4425  0.3811 -0.2048
 2342TIP3    H128661   4.938   2.381   8.126 -0.9913  0.2957  0.6581
 2342TIP3    H228662   4.889   2.251   8.185  0.1552 -0.4763 -0.0384
 2343TIP3   OH228663   5.924   0.963   7.897  0.2088 -0.6781 -0.1560
 2343TIP3    H128664   5.995   1.027   7.899 -0.3723 -0.0354  1.0160
 2343TIP3    H228665   5.940   0.911   7.818  1.1230  0.4145 -0.7121
 2344TIP3   OH228666   4.766   0.178   6.667  0.5812 -0.5353  0.1444
 2344TIP3    H128667   4.704   0.151   6.599 -0.0907  1.4756 -0.0985
 2344TIP3    H228668   4.711   0.221   6.733  1.6716  1.2386 -0.0446
 2345TIP3   OH228669   2.185   4.175   8.149  0.2010 -0.3357  0.0975
 2345TIP3    H128670   2.204   4.159   8.057 -2.8454  0.3178 -0.7413
 2345TIP3    H228671   2.208   4.267   8.162 -1.7056  0.3176 -0.7784
 2346TIP3   OH228672   1.364   2.253   0.327  0.0690 -0.4708 -0.3630
 2346TIP3    H128673   1.312   2.302   0.264 -1.3939  1.0341  1.8322
 2346TIP3    H228674   1.301   2.200   0.375  1.0212 -1.0586  0.2789
 2347TIP3   OH228675   2.044   0.893   7.204 -0.5640  0.8081  0.5984
 2347TIP3    H128676   2.000   0.975   7.227  0.3717  1.5817 -0.2757
 2347TIP3    H228677   2.023   0.880   7.112  0.3901  0.7912  0.3725
 2348TIP3   OH228678   1.359   5.081   6.892 -0.0017  0.0680 -0.3895
 2348TIP3    H128679   1.407   5.145   6.838 -1.7793  0.4253 -1.6422
 2348TIP3    H228680   1.425   5.016   6.915  1.2381  0.8555 -1.4957
 2349TIP3   OH228681   0.484   5.346   8.212  0.3960 -0.1809  0.4239
 2349TIP3    H128682   0.524   5.398   8.281 -1.1316 -0.3690  1.5098
 2349TIP3    H228683   0.393   5.378   8.208  0.6060  0.3312 -1.9935
 2350TIP3   OH228684   4.908   2.759   6.379 -0.3188  0.0610  0.2887
 2350TIP3    H128685   4.971   2.786   6.446 -1.8386  0.6203  1.5572
 2350TIP3    H228686   4.916   2.826   6.311  0.7398 -0.1199  0.2121
 2351TIP3   OH228687   6.668   0.096   0.609 -0.2102  0.8427  0.0711
 2351TIP3    H128688   6.744   0.109   0.666  0.8867 -0.7365 -0.9746
 2351TIP3    H228689   6.705   0.082   0.522 -1.4840 -2.4600 -0.0830
 2352TIP3   OH228690   0.714   5.856   6.493 -0.3320  0.1091  0.6975
 2352TIP3    H128691   0.792   5.877   6.441 -0.2959  1.0739  1.1059
 2352TIP3    H228692   0.642   5.894   6.443 -0.5342 -0.6885  0.3753
 2353TIP3   OH228693   1.674   0.331   1.041 -0.4131  0.4067 -0.2413
 2353TIP3    H128694   1.703   0.364   0.955 -0.2839  0.7302 -0.0787
 2353TIP3    H228695   1.744   0.272   1.069 -0.1386  0.8046 -0.0712
 2354TIP3   OH228696   5.807   2.544   8.660 -0.2743 -0.2013  0.5353
 2354TIP3    H128697   5.720   2.579   8.680 -0.9285 -0.8369 -1.0485
 2354TIP3    H228698   5.792   2.476   8.595  1.3651 -0.7632  0.6834
 2355TIP3   OH228699   0.304   4.875   7.470 -0.8140  0.4380 -0.1603
 2355TIP3    H128700   0.351   4.884   7.387 -0.3008 -1.0116 -0.0548
 2355TIP3    H228701   0.331   4.951   7.522  3.8087 -1.6497  1.0143
 2356TIP3   OH228702   4.914   2.311   0.692  0.3930 -0.3188  0.6992
 2356TIP3    H128703   4.973   2.235   0.694 -2.9764 -3.3100 -1.0810
 2356TIP3    H228704   4.929   2.351   0.606  0.6746 -0.3178  0.7495
 2357TIP3   OH228705   5.022   1.124   1.569 -0.1600  0.1588  0.6558
 2357TIP3    H128706   5.087   1.060   1.538  0.4565  1.4513 -0.8456
 2357TIP3    H228707   5.018   1.110   1.663  0.9918 -1.1471  0.5430
 2358TIP3   OH228708   0.479   5.080   7.944 -0.2306 -0.4595 -0.1368
 2358TIP3    H128709   0.393   5.113   7.970 -1.3468 -2.3748 -1.1472
 2358TIP3    H228710   0.512   5.143   7.881 -1.0164  0.1513  0.0520
 2359TIP3   OH228711   6.696   3.930   7.743 -0.1489  0.1797  0.1263
 2359TIP3    H128712   6.745   3.940   7.825 -1.0425 -0.0206  0.6957
 2359TIP3    H228713   6.683   3.835   7.735 -0.1943  0.2117 -0.1724
 2360TIP3   OH228714   6.007   3.399   1.388 -0.1712 -0.1555 -0.1118
 2360TIP3    H128715   5.967   3.468   1.441  0.4986  0.9984 -1.0589
 2360TIP3    H228716   6.096   3.430   1.371  0.0885 -1.1729 -0.7127
 2361TIP3   OH228717   0.219   1.294   1.459  0.3159  0.5845 -0.2125
 2361TIP3    H128718   0.274   1.237   1.514  0.6596  0.1805 -0.9635
 2361TIP3    H228719   0.280   1.330   1.394  0.3202  2.6174  0.8422
 2362TIP3   OH228720   1.099   3.840   0.193 -0.1716 -0.1981 -0.1364
 2362TIP3    H128721   1.147   3.867   0.115 -0.0831  3.4122  0.9923
 2362TIP3    H228722   1.146   3.880   0.266 -0.6652 -2.8336  1.8004
 2363TIP3   OH228723   6.814   0.899   1.118 -0.5073  0.2441 -0.4814
 2363TIP3    H128724   6.905   0.925   1.131  0.8465 -2.4632 -3.1308
 2363TIP3    H228725   6.789   0.942   1.036 -1.8602  1.3111  0.4366
 2364TIP3   OH228726   4.087   4.689   0.385 -0.0324  0.3303  0.5399
 2364TIP3    H128727   4.165   4.706   0.438  0.0927 -0.1060  0.5024
 2364TIP3    H228728   4.094   4.596   0.361 -0.6687  0.2351  0.7087
 2365TIP3   OH228729   2.739   4.884   8.747  0.0765  0.3642 -0.5895
 2365TIP3    H128730   2.743   4.798   8.706 -0.5196 -0.2894  0.6786
 2365TIP3    H228731   2.821   4.927   8.721  1.1984 -1.2354  0.1625
 2366TIP3   OH228732   4.938   1.646   1.496  0.6783  0.4763  0.1889
 2366TIP3    H128733   4.990   1.570   1.521 -0.0077  0.3973  1.5271
 2366TIP3    H228734   4.849   1.623   1.524  0.3854  1.5807  0.1903
 2367TIP3   OH228735   5.371   2.262   0.243  0.2372  0.0340 -0.1249
 2367TIP3    H128736   5.428   2.339   0.249 -1.9188  1.6555  0.8556
 2367TIP3    H228737   5.426   2.195   0.203  2.2346  2.0491 -0.9797
 2368TIP3   OH228738   2.797   1.290   1.556  0.3515 -0.2470  0.4222
 2368TIP3    H128739   2.775   1.343   1.479  1.6355 -0.7901 -0.3408
 2368TIP3    H228740   2.839   1.352   1.616 -1.2223  0.3261  1.0172
 2369TIP3   OH228741   2.694   0.701   7.420  0.1353  0.7925  0.6296
 2369TIP3    H128742   2.671   0.612   7.446 -1.6312  1.0764  0.2294
 2369TIP3    H228743   2.766   0.726   7.477 -0.9469 -0.0369  2.4350
 2370TIP3   OH228744   3.614   6.803   6.229 -0.2359 -0.0855  0.0378
 2370TIP3    H128745   3.703   6.775   6.204 -0.3582 -0.4822  0.0398
 2370TIP3    H228746   3.620   6.819   6.323  0.1110  0.9663 -0.1519
 2371TIP3   OH228747   2.160   2.142   0.542  0.5359 -0.2502 -0.2361
 2371TIP3    H128748   2.166   2.056   0.501 -0.2627 -0.2955 -0.2648
 2371TIP3    H228749   2.086   2.184   0.499 -0.7058 -0.5105  1.5225
 2372TIP3   OH228750   4.977   4.102   1.495  0.0660  0.6792  0.1584
 2372TIP3    H128751   4.934   4.188   1.496  1.0409  1.2380 -1.5353
 2372TIP3    H228752   4.908   4.041   1.470 -0.5758  0.9801  1.1186
 2373TIP3   OH228753   1.483   4.166   8.334  0.1360 -0.6347 -0.2835
 2373TIP3    H128754   1.561   4.151   8.281 -0.3348 -0.0611 -1.1462
 2373TIP3    H228755   1.494   4.255   8.368 -1.7562  0.9045 -3.2911
 2374TIP3   OH228756   4.710   2.705   7.113  0.4511  0.0614  0.0029
 2374TIP3    H128757   4.660   2.643   7.060  0.7974 -2.2821  2.2134
 2374TIP3    H228758   4.800   2.696   7.083  0.2645  0.9063 -0.8856
 2375TIP3   OH228759   1.727   2.803   7.673  0.3580 -0.2084 -0.2283
 2375TIP3    H128760   1.784   2.822   7.599 -1.0119 -0.8958 -1.5083
 2375TIP3    H228761   1.763   2.722   7.710  0.6904 -0.2027 -0.5265
 2376TIP3   OH228762   4.394   1.817   0.247  0.4900 -0.2137 -1.0070
 2376TIP3    H128763   4.388   1.883   0.178  0.0897 -0.1430 -0.9061
 2376TIP3    H228764   4.383   1.866   0.329  1.3884 -0.2374 -0.8680
 2377TIP3   OH228765   0.987   0.341   2.177  0.2235  0.3704  0.4192
 2377TIP3    H128766   0.913   0.281   2.182  1.9825 -2.3012 -2.0393
 2377TIP3    H228767   1.044   0.316   2.249  0.2380  0.1709  0.3377
 2378TIP3   OH228768   0.052   1.049   1.453 -0.3209  0.3784  0.1306
 2378TIP3    H128769   0.103   1.112   1.402  1.0198 -0.1757  0.7288
 2378TIP3    H228770   0.088   1.055   1.541  0.7994 -2.1035 -0.0598
 2379TIP3   OH228771   6.712   3.352   0.001 -0.5893 -0.3105  0.3202
 2379TIP3    H128772   6.750   3.376   0.085  2.6936 -1.8801 -0.5621
 2379TIP3    H228773   6.658   3.275   0.020 -1.3693  0.4332  1.2145
 2380TIP3   OH228774   6.093   2.811   6.998  0.1133 -0.0388  0.2455
 2380TIP3    H128775   6.112   2.862   6.919 -0.9541 -0.4879 -0.3337
 2380TIP3    H228776   6.059   2.876   7.060 -0.4903  0.0983 -0.2116
 2381TIP3   OH228777   1.090   0.123   8.447  0.0230  0.1214  0.0298
 2381TIP3    H128778   1.066   0.158   8.533 -0.0693 -1.2275  0.5694
 2381TIP3    H228779   1.181   0.095   8.457 -0.2372 -0.7717 -0.0701
 2382TIP3   OH228780   6.279   4.047   0.539 -0.7348 -0.5361  0.0592
 2382TIP3    H128781   6.266   4.089   0.624 -0.1398  0.4092 -0.2995
 2382TIP3    H228782   6.219   4.093   0.480 -0.7520 -0.8204 -0.1467
 2383TIP3   OH228783   4.588   0.155   0.510 -0.1119 -0.2295 -0.5795
 2383TIP3    H128784   4.646   0.212   0.560 -1.3404 -0.5400  1.2720
 2383TIP3    H228785   4.621   0.067   0.525 -1.6876 -0.5339  1.4873
 2384TIP3   OH228786   1.333   2.063   0.928  0.0013  0.5377  0.1790
 2384TIP3    H128787   1.252   2.114   0.931 -0.9389 -0.8773 -0.0691
 2384TIP3    H228788   1.363   2.060   1.019 -0.9450 -0.0132  0.4795
 2385TIP3   OH228789   0.711   0.074   1.722  0.0764 -0.0521 -0.2642
 2385TIP3    H128790   0.793   0.029   1.741  0.0694  0.3361  0.7128
 2385TIP3    H228791   0.737   0.156   1.680  0.1008 -0.7512 -1.7085
 2386TIP3   OH228792   2.721   2.273   1.483 -0.3257 -0.2374 -0.2929
 2386TIP3    H128793   2.658   2.327   1.531 -0.4937 -0.0527 -0.7135
 2386TIP3    H228794   2.750   2.207   1.546 -0.5979 -0.0441  0.0365
 2387TIP3   OH228795   1.247   0.888   1.004 -0.5687 -0.2068 -0.1466
 2387TIP3    H128796   1.227   0.891   0.910 -1.5439  2.3982  0.0528
 2387TIP3    H228797   1.342   0.878   1.009 -0.4536  0.1375 -1.4214
 2388TIP3   OH228798   5.051   1.436   1.892 -0.8035  0.6589  0.0585
 2388TIP3    H128799   4.956   1.431   1.883 -0.8869  1.3286  0.4632
 2388TIP3    H228800   5.066   1.432   1.986 -0.4869  1.2455  0.0378
 2389TIP3   OH228801   2.853   2.560   0.971  0.4149 -0.3279  0.1091
 2389TIP3    H128802   2.862   2.465   0.964 -0.4470 -0.3185 -1.4871
 2389TIP3    H228803   2.918   2.585   1.037  0.4708 -2.0385  0.7511
 2390TIP3   OH228804   5.299   1.136   0.007 -0.7230  0.1579 -0.1101
 2390TIP3    H128805   5.237   1.173  -0.055 -0.4190  1.0292  0.0930
 2390TIP3    H228806   5.349   1.072  -0.043 -0.4545  0.8792 -0.7730
 2391TIP3   OH228807   0.880   1.560   0.136 -0.0972 -0.0048 -0.1849
 2391TIP3    H128808   0.972   1.585   0.146  0.4833 -1.2887 -1.7597
 2391TIP3    H228809   0.871   1.482   0.191 -0.5764  0.7417  0.8348
 2392TIP3   OH228810   0.696   5.567   6.439 -0.1021 -0.5106  0.0282
 2392TIP3    H128811   0.721   5.629   6.508  2.5995 -0.6547 -0.6910
 2392TIP3    H228812   0.742   5.486   6.462  0.2278 -0.7844 -1.4995
 2393TIP3   OH228813   6.812   3.583   8.488  0.0036  0.6204  0.0714
 2393TIP3    H128814   6.825   3.666   8.443  1.2228  1.5871  2.0326
 2393TIP3    H228815   6.755   3.605   8.562 -2.1019 -0.9461 -0.9719
 2394TIP3   OH228816   3.985   4.494   6.767 -0.0852  0.1716 -0.0925
 2394TIP3    H128817   3.956   4.473   6.678  1.7471 -0.1632 -0.6482
 2394TIP3    H228818   3.943   4.577   6.787 -1.0415 -0.0708 -1.0127
 2395TIP3   OH228819   4.340   3.601   1.538  1.0610 -0.0216  0.4146
 2395TIP3    H128820   4.320   3.545   1.613 -1.0609 -0.1833 -0.1945
 2395TIP3    H228821   4.310   3.551   1.462 -0.3504  1.6490 -0.1969
 2396TIP3   OH228822   3.847   5.470   2.389 -0.1597  0.1337 -0.1188
 2396TIP3    H128823   3.797   5.479   2.308  0.4655 -0.0406 -0.5356
 2396TIP3    H228824   3.938   5.468   2.360  0.0605 -0.1457  0.5739
 2397TIP3   OH228825   6.379   6.756   8.154  0.4206 -0.0654  0.1837
 2397TIP3    H128826   6.443   6.806   8.102  0.9982 -0.1974  0.7547
 2397TIP3    H228827   6.402   6.775   8.245 -0.3660 -0.1128  0.4023
 2398TIP3   OH228828   0.592   1.416   1.804 -0.1993  0.1395 -0.0399
 2398TIP3    H128829   0.599   1.474   1.880  1.9521 -1.1223  0.8213
 2398TIP3    H228830   0.648   1.456   1.737  1.3431 -0.8766  0.5786
 2399TIP3   OH228831   0.852   6.615   7.770 -0.5821 -0.4665 -0.2904
 2399TIP3    H128832   0.764   6.621   7.807 -0.6613  0.5578 -0.6012
 2399TIP3    H228833   0.907   6.659   7.834 -0.2274 -1.4266  0.0791
 2400TIP3   OH228834   1.577   3.629   1.287 -0.0646 -0.0970  0.6039
 2400TIP3    H128835   1.534   3.713   1.302  0.1022  0.4743 -1.8073
 2400TIP3    H228836   1.670   3.650   1.280 -0.2494  0.0612 -2.8419
 2401TIP3   OH228837   5.050   2.761   1.594  0.0637 -0.2261  0.1046
 2401TIP3    H128838   5.036   2.671   1.622 -2.3983 -0.4691 -1.5387
 2401TIP3    H228839   4.962   2.799   1.592  0.9721  2.0147  0.0833
 2402TIP3   OH228840   0.774   4.838   7.874  0.2188  0.3983  0.2335
 2402TIP3    H128841   0.801   4.747   7.868  0.0363  0.4279 -1.6360
 2402TIP3    H228842   0.697   4.843   7.817  1.4566  2.1359 -1.4122
 2403TIP3   OH228843   6.617   5.639   2.080  0.1347 -0.1364 -0.0992
 2403TIP3    H128844   6.687   5.687   2.037  0.6575 -1.8012 -1.2072
 2403TIP3    H228845   6.545   5.701   2.086  0.9897  0.9590 -0.8993
 2404TIP3   OH228846   2.709   1.884   7.128  0.2394  0.0661 -0.1425
 2404TIP3    H128847   2.802   1.872   7.110  0.0174  1.3059 -2.4676
 2404TIP3    H228848   2.672   1.918   7.047 -2.2007 -0.0135  0.8222
 2405TIP3   OH228849   4.150   3.629   7.630  0.1515  0.4123  0.4451
 2405TIP3    H128850   4.206   3.635   7.707  0.7662 -0.3136  0.0728
 2405TIP3    H228851   4.180   3.699   7.572  2.3254 -1.4013 -0.7647
 2406TIP3   OH228852   5.145   3.881   8.521 -0.3331 -0.3126 -0.2689
 2406TIP3    H128853   5.057   3.918   8.532 -0.0545  0.6178 -0.9875
 2406TIP3    H228854   5.176   3.918   8.438  0.7162 -0.6805 -0.0573
 2407TIP3   OH228855   0.842   5.747   7.311  0.0442  0.2113  0.2556
 2407TIP3    H128856   0.756   5.733   7.271  0.8516 -1.6888 -0.8894
 2407TIP3    H228857   0.869   5.661   7.342  0.9713  1.0253  1.8660
 2408TIP3   OH228858   2.880   6.280   8.753 -0.9288  0.1508 -0.0470
 2408TIP3    H128859   2.857   6.194   8.717 -1.9468  0.3770  0.0322
 2408TIP3    H228860   2.851   6.277   8.844  0.0349  0.2063  0.2751
 2409TIP3   OH228861   4.057   6.582   0.780 -0.4216  0.2819  0.5056
 2409TIP3    H128862   4.079   6.599   0.689 -1.2469  1.0660  0.4381
 2409TIP3    H228863   4.035   6.489   0.783 -0.4879  0.2746 -0.1152
 2410TIP3   OH228864   3.644   0.913   7.229  0.1650 -0.3063 -0.0392
 2410TIP3    H128865   3.566   0.891   7.177  0.1995  0.1165 -0.2767
 2410TIP3    H228866   3.653   0.840   7.290 -1.2549  0.2996  0.9612
 2411TIP3   OH228867   4.814   6.313   0.104 -0.6854  0.0917 -0.1197
 2411TIP3    H128868   4.747   6.363   0.058  1.5533  3.6244  0.0869
 2411TIP3    H228869   4.894   6.330   0.055  1.2022  1.2850  3.0991
 2412TIP3   OH228870   2.928   4.399   7.098 -0.4137 -0.1257  0.0782
 2412TIP3    H128871   2.884   4.364   7.175 -1.0230 -0.7503 -0.5462
 2412TIP3    H228872   2.863   4.393   7.028  0.0473  0.6600 -0.4345
 2413TIP3   OH228873   3.176   6.813   8.029  0.5835 -0.0697  0.2629
 2413TIP3    H128874   3.188   6.720   8.008  0.5068 -0.3070  1.2626
 2413TIP3    H228875   3.091   6.817   8.072  0.8560  0.3778  0.7616
 2414TIP3   OH228876   0.890   6.685   1.790  0.0205 -0.3250  0.3273
 2414TIP3    H128877   0.836   6.641   1.856  1.3597  0.1227  1.8039
 2414TIP3    H228878   0.845   6.670   1.707 -1.0442 -2.0376  1.1599
 2415TIP3   OH228879   4.353   0.692   8.706 -0.8860 -0.4879  0.3571
 2415TIP3    H128880   4.354   0.785   8.728  0.0330 -0.4177  0.0400
 2415TIP3    H228881   4.261   0.673   8.687 -1.0529  0.3966  0.2497
 2416TIP3   OH228882   0.628   3.625   6.569  0.6171 -0.4904  0.0992
 2416TIP3    H128883   0.681   3.561   6.617  1.3151  0.9953  1.3718
 2416TIP3    H228884   0.692   3.679   6.523  0.0939 -0.0113 -0.0768
 2417TIP3   OH228885   4.561   1.894   7.726  0.7900  0.0543 -0.4596
 2417TIP3    H128886   4.596   1.812   7.690 -2.0615 -1.7453  0.5267
 2417TIP3    H228887   4.524   1.869   7.811 -1.6369  1.9916 -0.8358
 2418TIP3   OH228888   4.104   3.353   7.853  0.4619  0.0446  0.3360
 2418TIP3    H128889   4.082   3.281   7.913 -1.3607  1.1426  1.0840
 2418TIP3    H228890   4.194   3.377   7.876  0.9929 -1.7446  0.2822
 2419TIP3   OH228891   2.957   3.872   8.321 -0.0581  0.3701  0.1305
 2419TIP3    H128892   3.026   3.908   8.376 -0.3218  0.9731  0.0695
 2419TIP3    H228893   2.999   3.860   8.235 -0.2347  1.4842 -0.1236
 2420TIP3   OH228894   2.209   2.520   0.305 -0.1436 -0.6071  0.5450
 2420TIP3    H128895   2.222   2.613   0.327 -0.5975  0.0241 -1.5998
 2420TIP3    H228896   2.235   2.513   0.213 -1.5830 -2.2592  0.2081
 2421TIP3   OH228897   1.203   3.957   2.187  0.3841 -0.0550  0.3079
 2421TIP3    H128898   1.214   3.991   2.099 -0.3933 -0.2617  0.1258
 2421TIP3    H228899   1.121   3.909   2.184 -0.5703  1.3882  1.5860
 2422TIP3   OH228900   0.718   3.749   8.273  0.3964 -0.2749 -0.1710
 2422TIP3    H128901   0.724   3.826   8.216 -0.3795  0.0768  0.2113
 2422TIP3    H228902   0.624   3.734   8.283  0.5421 -1.5787 -0.6352
 2423TIP3   OH228903   5.359   2.929   0.082  0.1013 -0.1200  0.4567
 2423TIP3    H128904   5.386   3.000   0.140 -0.5232 -0.2032  0.8603
 2423TIP3    H228905   5.421   2.931   0.010 -0.8181  1.8400 -0.3464
 2424TIP3   OH228906   3.170   4.383   0.797  0.0394 -0.1416  0.4280
 2424TIP3    H128907   3.177   4.477   0.814  1.0193 -0.2272  0.5658
 2424TIP3    H228908   3.079   4.362   0.817 -0.8443  1.2041 -1.8505
 2425TIP3   OH228909   5.363   3.386   2.079  0.6880 -0.2223 -0.1414
 2425TIP3    H128910   5.328   3.464   2.036  0.3705 -0.7123 -0.7700
 2425TIP3    H228911   5.421   3.421   2.148  0.2183  0.5680 -0.1397
 2426TIP3   OH228912   4.898   3.161   8.197  0.4923 -0.3913 -0.9517
 2426TIP3    H128913   4.923   3.113   8.276 -0.8296 -1.0088 -0.8917
 2426TIP3    H228914   4.978   3.160   8.143  1.0456 -1.0182 -0.1491
 2427TIP3   OH228915   4.891   2.722   7.681 -0.1364  0.0481 -0.0711
 2427TIP3    H128916   4.827   2.793   7.686  0.5989  0.6580  1.3291
 2427TIP3    H228917   4.867   2.664   7.754  1.6892  1.0155  1.3712
 2428TIP3   OH228918   6.292   5.319   0.261 -0.1947  0.5112  0.1691
 2428TIP3    H128919   6.358   5.255   0.236  0.6568  1.6189 -0.5384
 2428TIP3    H228920   6.320   5.349   0.348  0.0587  0.7310  0.0157
 2429TIP3   OH228921   6.353   3.066   7.335  0.0591  0.5974  0.3241
 2429TIP3    H128922   6.355   2.993   7.397 -0.1919  0.3165  0.0088
 2429TIP3    H228923   6.297   3.132   7.376  1.2663  1.1351  1.1726
 2430TIP3   OH228924   2.235   3.701   0.522 -0.4535 -0.0130  0.9171
 2430TIP3    H128925   2.146   3.712   0.556 -0.3862  1.0612  0.7680
 2430TIP3    H228926   2.247   3.774   0.462 -0.0715 -1.0994 -0.3865
 2431TIP3   OH228927   6.518   2.797   0.455  0.2624 -0.9092  0.5293
 2431TIP3    H128928   6.562   2.735   0.513 -2.8976 -1.5802  2.4871
 2431TIP3    H228929   6.473   2.743   0.390 -0.2013 -0.5055  0.5011
 2432TIP3   OH228930   3.171   3.428   0.329 -0.1014 -0.2660  0.5931
 2432TIP3    H128931   3.204   3.516   0.312 -0.9196  0.2314  1.5063
 2432TIP3    H228932   3.249   3.376   0.349  0.4012  0.1991 -0.0948
 2433TIP3   OH228933   3.114   5.361   7.507  0.0553 -0.4136  0.9685
 2433TIP3    H128934   3.106   5.333   7.416  0.0375  1.5831  0.3087
 2433TIP3    H228935   3.203   5.338   7.532  0.6036  0.4637 -0.1026
 2434TIP3   OH228936   5.661   4.129   0.370 -0.3239 -0.2004 -0.2174
 2434TIP3    H128937   5.660   4.221   0.344 -0.0718 -1.0275 -3.6648
 2434TIP3    H228938   5.587   4.121   0.430  0.2165  2.3803  0.9405
 2435TIP3   OH228939   1.052   2.373   0.470  0.1131  0.0111  0.1935
 2435TIP3    H128940   1.015   2.423   0.397  1.9992 -0.0152 -0.8641
 2435TIP3    H228941   0.998   2.295   0.476  0.6442 -0.6158 -2.0811
 2436TIP3   OH228942   2.454   1.541   1.683  0.2043  0.1665 -0.1268
 2436TIP3    H128943   2.379   1.576   1.635  0.4356 -1.1322 -1.5550
 2436TIP3    H228944   2.530   1.562   1.627  0.3796 -2.2007 -0.9098
 2437TIP3   OH228945   4.074   5.199   2.116  0.3614 -0.2687 -0.4287
 2437TIP3    H128946   4.124   5.280   2.109  0.8509 -0.4006  1.1614
 2437TIP3    H228947   4.130   5.140   2.167 -1.0395 -0.7239  0.6491
 2438TIP3   OH228948   5.710   6.323   7.300  0.0734 -0.8116 -0.4597
 2438TIP3    H128949   5.765   6.373   7.360  0.7483  0.4614 -2.0830
 2438TIP3    H228950   5.646   6.279   7.357  0.9528 -0.0121  1.2071
 2439TIP3   OH228951   0.971   2.828   6.193  0.8405 -0.0945 -0.5158
 2439TIP3    H128952   1.020   2.820   6.275  1.8222  0.4079 -1.0261
 2439TIP3    H228953   0.907   2.897   6.210  1.1687  0.1438 -0.2271
 2440TIP3   OH228954   3.451   1.390   8.079 -0.8411  0.0905  0.1710
 2440TIP3    H128955   3.448   1.296   8.094 -0.0409  0.1417  0.7364
 2440TIP3    H228956   3.543   1.408   8.061 -0.3663  1.1628  3.0893
 2441TIP3   OH228957   2.148   4.385   0.034  0.1582 -0.0668  0.5196
 2441TIP3    H128958   2.224   4.407  -0.019  0.0901  0.5999  0.6967
 2441TIP3    H228959   2.084   4.351  -0.030 -0.4269  1.9787 -0.0681
 2442TIP3   OH228960   2.931   4.006   1.048 -0.3552 -0.2589  1.3732
 2442TIP3    H128961   2.923   3.911   1.045 -0.8423 -0.2167 -1.7928
 2442TIP3    H228962   2.865   4.038   0.986  1.4273  1.9747  0.4743
 2443TIP3   OH228963   5.925   5.387   8.057  0.4181 -0.1256  0.0004
 2443TIP3    H128964   5.877   5.451   8.005 -0.1422 -1.0910 -0.7077
 2443TIP3    H228965   5.875   5.382   8.139  0.8969  0.8724  0.3744
 2444TIP3   OH228966   5.883   5.645   6.794  0.0442  0.3594 -0.5235
 2444TIP3    H128967   5.910   5.606   6.877  0.0020  0.8051 -0.2947
 2444TIP3    H228968   5.927   5.729   6.791 -0.8076  0.8214 -0.4380
 2445TIP3   OH228969   2.677   1.664   1.501  0.1332  0.1936  0.2956
 2445TIP3    H128970   2.641   1.752   1.492  1.1304  0.6870  1.0014
 2445TIP3    H228971   2.697   1.638   1.411  0.3287  0.9135  0.1194
 2446TIP3   OH228972   6.711   6.367   1.780 -0.0559 -0.0882 -0.1837
 2446TIP3    H128973   6.689   6.460   1.779  2.3306  0.5786  0.9920
 2446TIP3    H228974   6.772   6.356   1.708  0.3199 -0.5318  0.1941
 2447TIP3   OH228975   2.625   1.766   7.947 -0.3358 -0.0309 -0.7156
 2447TIP3    H128976   2.538   1.731   7.930 -0.3543 -0.0777 -0.5179
 2447TIP3    H228977   2.617   1.859   7.929  0.2022 -0.3945 -3.2292
 2448TIP3   OH228978   6.058   3.001   0.120 -0.5324  0.4877  0.0072
 2448TIP3    H128979   6.003   3.015   0.043 -0.3478  0.5534 -0.1136
 2448TIP3    H228980   6.014   2.930   0.168 -1.8083  1.8774  0.9571
 2449TIP3   OH228981   2.353   2.895   1.781 -0.3256  0.3127  0.4055
 2449TIP3    H128982   2.447   2.877   1.784 -0.3374  0.2022  0.0843
 2449TIP3    H228983   2.341   2.967   1.844 -0.2252 -0.5459  1.4481
 2450TIP3   OH228984   6.156   5.927   0.455 -0.3836  0.3755 -0.4227
 2450TIP3    H128985   6.085   5.981   0.420 -0.2412  0.7873 -0.0817
 2450TIP3    H228986   6.206   5.901   0.377  0.8922  2.6290 -0.4769
 2451TIP3   OH228987   1.171   2.331   1.208  0.5388 -0.4114  0.4831
 2451TIP3    H128988   1.097   2.389   1.226 -1.1830 -2.4018  0.2909
 2451TIP3    H228989   1.242   2.366   1.260 -0.4914  1.6402  0.6317
 2452TIP3   OH228990   6.615   5.706   0.101  0.2954 -0.5071 -0.1334
 2452TIP3    H128991   6.580   5.668   0.020 -1.3148 -1.1965  0.8400
 2452TIP3    H228992   6.568   5.661   0.171  0.4480  1.2555  1.1634
 2453TIP3   OH228993   1.538   0.309   7.763  0.7223 -0.2175  0.0988
 2453TIP3    H128994   1.555   0.215   7.766  1.3503 -0.1108  0.0479
 2453TIP3    H228995   1.448   0.318   7.795 -0.1079 -1.0274 -1.8325
 2454TIP3   OH228996   1.335   6.778   0.353 -0.0991 -0.1423  0.2801
 2454TIP3    H128997   1.352   6.689   0.320  1.0280 -0.9164  2.7338
 2454TIP3    H228998   1.418   6.824   0.341 -0.6152  0.5557 -0.7722
 2455TIP3   OH228999   4.659   4.999   1.105 -0.4323 -0.4662  0.3251
 2455TIP3    H129000   4.632   5.068   1.044  0.9710 -1.5833 -1.7009
 2455TIP3    H229001   4.588   4.935   1.101 -1.1881  0.2807  1.3089
 2456TIP3   OH229002   1.346   5.258   7.719 -0.0962  0.0170 -0.3058
 2456TIP3    H129003   1.385   5.339   7.751  2.1656 -0.2410 -2.1353
 2456TIP3    H229004   1.294   5.285   7.643 -0.2646 -0.1257 -0.2423
 2457TIP3   OH229005   4.635   3.177   1.716 -0.2381  0.0146  0.1462
 2457TIP3    H129006   4.620   3.092   1.757  0.9840 -0.5162 -0.4842
 2457TIP3    H229007   4.554   3.196   1.669 -0.6494 -0.6156  0.5869
 2458TIP3   OH229008   4.575   3.839   8.566  0.3197  0.1058 -0.2013
 2458TIP3    H129009   4.589   3.912   8.506  0.5064 -1.5703 -2.3291
 2458TIP3    H229010   4.503   3.789   8.527  2.2541 -2.5631 -0.6579
 2459TIP3   OH229011   0.081   3.424   6.396 -0.6080  0.5602 -0.5652
 2459TIP3    H129012   0.032   3.462   6.323 -1.0294 -0.6840 -0.9441
 2459TIP3    H229013   0.096   3.498   6.456 -1.3632  1.3268 -1.3027
 2460TIP3   OH229014   3.119   0.423   7.449 -0.0406  0.1697  0.1046
 2460TIP3    H129015   3.156   0.357   7.389  0.3220  1.2476 -0.8905
 2460TIP3    H229016   3.193   0.480   7.470 -0.2718  0.0601  1.2470
 2461TIP3   OH229017   2.198   4.888   7.545  0.2577 -0.1253 -0.2007
 2461TIP3    H129018   2.149   4.963   7.510 -0.3466 -0.3619  0.1158
 2461TIP3    H229019   2.154   4.812   7.507  0.5444 -0.3332 -0.1134
 2462TIP3   OH229020   0.600   6.463   8.151  0.3742  0.2932 -0.1891
 2462TIP3    H129021   0.556   6.406   8.214 -0.0594 -0.6614 -1.3274
 2462TIP3    H229022   0.666   6.407   8.110 -0.6144  0.3128 -1.9234
 2463TIP3   OH229023   2.768   3.312   0.007 -0.0536 -0.5928 -0.4039
 2463TIP3    H129024   2.710   3.270   0.070  0.4448 -0.6852 -0.0036
 2463TIP3    H229025   2.840   3.251  -0.005 -0.2936 -0.7169 -1.3093
 2464TIP3   OH229026   2.856   1.982   8.450  0.0251 -0.2132  0.4892
 2464TIP3    H129027   2.879   2.048   8.515 -1.5731  0.9667 -0.0934
 2464TIP3    H229028   2.844   1.901   8.501  2.0150 -0.1119  1.2028
 2465TIP3   OH229029   2.583   1.509   6.778  0.9762  0.5284 -0.0469
 2465TIP3    H129030   2.490   1.526   6.761  0.8247 -1.5376 -1.7154
 2465TIP3    H229031   2.623   1.596   6.781 -0.5872  1.4071 -1.9894
 2466TIP3   OH229032   1.798   1.382   7.351 -0.1442  0.4648  0.1315
 2466TIP3    H129033   1.849   1.445   7.300 -0.0204  0.6130  0.4380
 2466TIP3    H229034   1.707   1.399   7.325 -0.0085 -0.0502 -0.6899
 2467TIP3   OH229035   0.187   4.617   6.923  0.2405 -0.0925  0.1208
 2467TIP3    H129036   0.227   4.570   6.995 -0.5219 -0.2572  0.4486
 2467TIP3    H229037   0.146   4.694   6.963 -0.3251 -0.2687 -0.0990
 2468TIP3   OH229038   3.697   2.836   8.756 -0.0642 -0.2059 -0.0455
 2468TIP3    H129039   3.754   2.795   8.691 -1.2325 -1.0738 -0.5430
 2468TIP3    H229040   3.709   2.783   8.835  0.7673  0.3837  0.2376
 2469TIP3   OH229041   6.784   6.030   7.452 -0.0330  0.6046  0.0190
 2469TIP3    H129042   6.852   5.963   7.459  0.4009  1.2002  1.8808
 2469TIP3    H229043   6.717   6.002   7.514 -0.1424  1.5616  0.3436
 2470TIP3   OH229044   6.688   2.609   8.499  0.8125 -0.3715  0.1230
 2470TIP3    H129045   6.735   2.528   8.520 -0.8356 -1.5729 -0.5867
 2470TIP3    H229046   6.625   2.583   8.431 -1.3040  0.9746  1.4420
 2471TIP3   OH229047   1.835   3.745   7.529 -0.5466 -0.6852  0.0468
 2471TIP3    H129048   1.774   3.698   7.472  0.5987 -1.0188 -0.9566
 2471TIP3    H229049   1.902   3.680   7.551  0.1003 -0.0167  0.1082
 2472TIP3   OH229050   1.396   1.265   0.741 -0.0609 -0.6406  0.7323
 2472TIP3    H129051   1.408   1.357   0.763 -0.6938 -0.6067  0.9539
 2472TIP3    H229052   1.303   1.249   0.756 -0.2737 -0.9221 -0.7486
 2473TIP3   OH229053   0.749   1.661   1.192  0.1111  0.6432  0.2175
 2473TIP3    H129054   0.815   1.595   1.175 -0.4597  0.6007 -2.2178
 2473TIP3    H229055   0.694   1.623   1.260  2.3418  0.5695  2.0921
 2474TIP3   OH229056   5.352   0.854   7.725 -0.3649 -0.0453 -0.3125
 2474TIP3    H129057   5.417   0.885   7.663 -0.5686 -1.3721 -1.2185
 2474TIP3    H229058   5.389   0.875   7.811 -1.3358  4.4710 -0.7026
 2475TIP3   OH229059   5.582   4.174   1.331  0.7156 -0.8620 -0.4605
 2475TIP3    H129060   5.629   4.159   1.413 -2.7726  0.7965  2.1068
 2475TIP3    H229061   5.545   4.089   1.308  0.9934 -1.1636  0.1919
 2476TIP3   OH229062   1.735   4.871   8.285  0.4812 -0.2268  0.2293
 2476TIP3    H129063   1.818   4.871   8.332  2.3003  0.8383 -2.7178
 2476TIP3    H229064   1.714   4.778   8.273  0.9683 -0.5031  1.4125
 2477TIP3   OH229065   5.354   5.317   7.621  0.4430  0.2378  0.3718
 2477TIP3    H129066   5.392   5.230   7.615 -2.9896 -1.2992 -2.4447
 2477TIP3    H229067   5.264   5.302   7.652 -0.7289  2.5383 -1.6111
 2478TIP3   OH229068   6.598   6.780   7.640  0.0432  0.2086  0.0705
 2478TIP3    H129069   6.627   6.771   7.550  1.4060  0.2513  0.4869
 2478TIP3    H229070   6.629   6.866   7.667 -0.8391  0.4328  0.4234
 2479TIP3   OH229071   0.335   6.547   7.614  0.0786 -0.0003 -0.4704
 2479TIP3    H129072   0.249   6.542   7.574 -0.8180 -0.2395  1.3837
 2479TIP3    H229073   0.383   6.610   7.560 -1.4445  0.5597 -1.2238
 2480TIP3   OH229074   6.839   4.161   1.609  0.5578  0.1442  0.1449
 2480TIP3    H129075   6.777   4.184   1.678  1.2152  1.8476  0.2111
 2480TIP3    H229076   6.921   4.202   1.635  2.4063 -3.6927  1.1146
 2481TIP3   OH229077   0.851   4.534   0.365 -0.0395 -0.7186  0.0540
 2481TIP3    H129078   0.815   4.456   0.407 -0.0602 -0.1140  1.1920
 2481TIP3    H229079   0.942   4.513   0.347  0.1972 -0.6878  1.1888
 2482TIP3   OH229080   5.464   5.144   1.103  0.1087 -0.1976 -0.3874
 2482TIP3    H129081   5.398   5.147   1.173 -0.4985  0.3206 -0.9682
 2482TIP3    H229082   5.493   5.052   1.103  0.9476  0.0194  1.2688
 2483TIP3   OH229083   0.262   1.983   7.415 -0.2603  0.3459 -0.0019
 2483TIP3    H129084   0.279   2.015   7.503 -2.5368 -0.4644  0.8011
 2483TIP3    H229085   0.185   2.031   7.387  0.9628  1.2837 -1.9901
 2484TIP3   OH229086   2.244   3.893   0.724  0.1559 -0.0261  0.0821
 2484TIP3    H129087   2.160   3.851   0.704  0.5267 -1.1612  0.8177
 2484TIP3    H229088   2.300   3.868   0.650  0.3667 -0.8245  0.5023
 2485TIP3   OH229089   4.670   0.279   0.257  0.1373  0.4462  0.0839
 2485TIP3    H129090   4.630   0.245   0.337  0.7330 -0.2833  0.0811
 2485TIP3    H229091   4.729   0.209   0.228 -0.6928  0.3298 -1.4476
 2486TIP3   OH229092   3.119   6.841   7.697 -0.0608  0.4469 -0.5262
 2486TIP3    H129093   3.204   6.812   7.731  0.4434  1.3872 -0.9254
 2486TIP3    H229094   3.093   6.773   7.635  1.1529  0.8726 -1.5550
 2487TIP3   OH229095   1.629   0.911   0.317 -0.1616  0.5785  0.0646
 2487TIP3    H129096   1.615   0.953   0.402  0.4686  1.0066 -0.0325
 2487TIP3    H229097   1.545   0.917   0.273 -0.0523  1.8726  0.0009
 2488TIP3   OH229098   2.397   1.131   0.327 -0.1662  0.0319 -0.3624
 2488TIP3    H129099   2.337   1.058   0.312  0.5073 -0.4899 -0.5493
 2488TIP3    H229100   2.341   1.209   0.326 -1.3003 -0.6375  2.3492
 2489TIP3   OH229101   4.527   4.137   7.812  0.8230 -0.1855 -0.2807
 2489TIP3    H129102   4.578   4.216   7.797 -0.2929  0.3513 -1.4228
 2489TIP3    H229103   4.591   4.066   7.808  1.7340  0.6037  0.1095
 2490TIP3   OH229104   1.391   0.221   0.993 -0.1514 -0.4907  0.4397
 2490TIP3    H129105   1.377   0.128   0.974  0.1834 -0.3809 -0.3780
 2490TIP3    H229106   1.484   0.227   1.015 -0.5316 -0.6279  2.2943
 2491TIP3   OH229107   1.883   0.147   8.243 -0.4664  0.0142  0.0914
 2491TIP3    H129108   1.837   0.172   8.323  0.2979 -0.5795  0.7370
 2491TIP3    H229109   1.859   0.214   8.179 -0.8964  0.6343  0.8889
 2492TIP3   OH229110   3.526   5.559   8.276 -0.0129  0.3709 -0.1469
 2492TIP3    H129111   3.528   5.653   8.291 -1.8051  0.3424  0.5141
 2492TIP3    H229112   3.616   5.536   8.255  0.5503  2.1482  0.1682
 2493TIP3   OH229113   5.977   3.118   8.631  0.3351 -0.2315  0.2570
 2493TIP3    H129114   6.060   3.155   8.601  0.4409 -0.7366 -0.0715
 2493TIP3    H229115   5.945   3.182   8.696  0.1816  0.7933 -0.7911
 2494TIP3   OH229116   5.649   6.353   0.070 -0.2009  0.0787  0.0451
 2494TIP3    H129117   5.678   6.444   0.079 -3.5948  1.3358 -0.2645
 2494TIP3    H229118   5.684   6.324  -0.014 -1.4294  2.1313 -1.2317
 2495TIP3   OH229119   0.218   2.096   8.402 -0.0534  0.9472  0.3920
 2495TIP3    H129120   0.297   2.052   8.432 -0.2446 -0.2284 -0.7445
 2495TIP3    H229121   0.216   2.081   8.307 -0.9437  2.0883  0.1996
 2496TIP3   OH229122   4.928   4.935   0.841  0.6323 -0.5702  0.0484
 2496TIP3    H129123   4.879   4.926   0.759 -0.8056  1.5484  0.5695
 2496TIP3    H229124   4.879   4.883   0.904  0.5154 -0.5168  0.0028
 2497TIP3   OH229125   4.501   5.343   0.751  0.2058  0.0730  0.1788
 2497TIP3    H129126   4.425   5.334   0.693  0.5474 -0.0154 -0.2635
 2497TIP3    H229127   4.556   5.408   0.707  2.2204 -2.5583 -1.5558
 2498TIP3   OH229128   5.919   1.598   0.808  0.5676  0.0984  0.2091
 2498TIP3    H129129   5.900   1.602   0.714  1.4080 -0.4574  0.0091
 2498TIP3    H229130   6.013   1.617   0.814  0.5435  0.0004  0.9248
 2499TIP3   OH229131   0.463   5.102   0.672 -0.4596  0.3532 -0.6443
 2499TIP3    H129132   0.407   5.070   0.742 -0.0325  0.8573 -0.0606
 2499TIP3    H229133   0.403   5.147   0.612 -0.9293 -0.7107 -0.9988
 2500TIP3   OH229134   0.701   4.453   8.314  0.1562  0.1295 -0.6292
 2500TIP3    H129135   0.675   4.485   8.228 -0.0289  0.6737 -0.3775
 2500TIP3    H229136   0.753   4.524   8.351  0.5262 -0.2404 -0.4259
 2501TIP3   OH229137   3.619   0.113   8.709 -0.0083  0.6660 -0.1693
 2501TIP3    H129138   3.577   0.053   8.647  2.2000  0.3758 -1.4905
 2501TIP3    H229139   3.568   0.105   8.789  0.1896 -3.0419 -0.2678
 2502TIP3   OH229140   2.080   1.284   1.248 -0.0676 -0.3185 -0.4728
 2502TIP3    H129141   2.013   1.318   1.189  1.0625  0.5235 -1.3146
 2502TIP3    H229142   2.112   1.205   1.204  0.3240 -0.0487 -0.6784
 2503TIP3   OH229143   5.464   0.025   8.110 -0.1282 -0.8877  0.0156
 2503TIP3    H129144   5.531   0.091   8.094 -2.5351  1.7499  0.0148
 2503TIP3    H229145   5.454   0.022   8.205  1.8478 -3.4092  0.2415
 2504TIP3   OH229146   4.773   3.193   7.070  0.0091  0.5737  0.3260
 2504TIP3    H129147   4.811   3.206   6.983  0.0422 -0.4979  0.1662
 2504TIP3    H229148   4.755   3.099   7.074  1.8491  0.2261  2.2035
 2505TIP3   OH229149   4.633   3.165   1.186  0.2566  0.5121 -0.2605
 2505TIP3    H129150   4.552   3.214   1.202 -0.0404 -0.1947  0.4981
 2505TIP3    H229151   4.676   3.213   1.116 -0.2785  1.5459  0.0866
 2506TIP3   OH229152   6.782   0.540   0.797  0.4031 -0.0263  0.3134
 2506TIP3    H129153   6.867   0.508   0.766  0.1291 -0.0525 -0.4358
 2506TIP3    H229154   6.767   0.620   0.748 -1.4023 -1.6007 -1.9321
 2507TIP3   OH229155   5.232   5.583   0.603  0.2051  0.5134  0.1398
 2507TIP3    H129156   5.263   5.567   0.513  0.4941 -0.9343  0.4775
 2507TIP3    H229157   5.296   5.645   0.639 -0.0437  1.2955 -0.7133
 2508TIP3   OH229158   1.615   2.993   0.455  0.1305  0.0032 -0.4091
 2508TIP3    H129159   1.663   2.934   0.513 -0.7881  0.6914  1.1108
 2508TIP3    H229160   1.681   3.026   0.394  1.3309 -0.0048  0.8550
 2509TIP3   OH229161   0.186   4.297   0.297  0.4674  0.0757  0.1052
 2509TIP3    H129162   0.172   4.203   0.312  1.8604 -0.2273 -0.4145
 2509TIP3    H229163   0.260   4.320   0.353  0.4915  0.7496 -0.1930
 2510TIP3   OH229164   4.063   1.200   6.750  0.1407 -0.9317 -0.0483
 2510TIP3    H129165   4.068   1.219   6.657 -2.2861  0.0694 -0.0667
 2510TIP3    H229166   3.997   1.261   6.783  1.1320 -1.0549  2.3946
 2511TIP3   OH229167   0.269   6.124   7.443  0.2875  0.3137  0.0905
 2511TIP3    H129168   0.297   6.174   7.520 -0.5621 -0.6590  1.0774
 2511TIP3    H229169   0.203   6.064   7.477 -1.1314  0.7910 -1.6635
 2512TIP3   OH229170   5.349   5.627   1.084 -0.5899  0.2693 -0.0385
 2512TIP3    H129171   5.359   5.560   1.152  1.1537 -0.1178 -0.6240
 2512TIP3    H229172   5.418   5.691   1.102 -1.2225  1.0720 -0.4270
 2513TIP3   OH229173   0.298   3.647   1.241  0.6867  0.2862 -0.3242
 2513TIP3    H129174   0.378   3.680   1.201  1.8022 -0.8787  0.8632
 2513TIP3    H229175   0.272   3.573   1.187  0.0629  1.0153 -1.0444
 2514TIP3   OH229176   1.070   4.762   8.510 -0.4073  0.2106  0.3744
 2514TIP3    H129177   1.109   4.792   8.592 -0.1628 -1.0404  0.7253
 2514TIP3    H229178   1.115   4.680   8.490 -1.3151 -0.1232 -0.3737
 2515TIP3   OH229179   1.130   4.067   1.106  0.2263 -0.0001 -0.2106
 2515TIP3    H129180   1.066   4.056   1.176  1.2797  0.0809  0.7814
 2515TIP3    H229181   1.186   4.139   1.136 -0.3242  1.1908 -1.9027
 2516TIP3   OH229182   5.728   2.705   7.616  0.1171 -0.5538 -0.5665
 2516TIP3    H129183   5.639   2.696   7.581 -0.5320 -0.6357  0.9922
 2516TIP3    H229184   5.785   2.691   7.541 -1.1761 -1.1891 -1.4766
 2517TIP3   OH229185   5.236   2.058   7.563  0.2352 -0.0967  0.2386
 2517TIP3    H129186   5.172   2.130   7.561 -1.2527 -1.3873 -0.0291
 2517TIP3    H229187   5.269   2.053   7.473  0.0080 -0.0320  0.1493
 2518TIP3   OH229188   4.138   4.767   8.147 -0.4521  0.0053 -0.1266
 2518TIP3    H129189   4.160   4.813   8.066 -0.2361  0.0404 -0.0492
 2518TIP3    H229190   4.107   4.836   8.206 -1.3650 -0.1276 -0.4391
 2519TIP3   OH229191   5.812   3.722   8.010 -0.3099  0.4919  0.2055
 2519TIP3    H129192   5.838   3.770   8.089 -0.1195 -0.6838  0.8803
 2519TIP3    H229193   5.833   3.631   8.029 -0.6143  0.1313 -1.0686
 2520TIP3   OH229194   6.605   4.845   0.494 -0.5887 -0.5533  0.1268
 2520TIP3    H129195   6.551   4.777   0.454 -4.1942  1.7380  0.6964
 2520TIP3    H229196   6.564   4.861   0.579  0.0783  2.3700 -0.0196
 2521TIP3   OH229197   1.471   5.611   1.902 -0.2059  0.1432 -0.6178
 2521TIP3    H129198   1.404   5.625   1.970 -1.3070 -0.4769 -1.5303
 2521TIP3    H229199   1.479   5.516   1.895  2.6590  0.1385  1.2023
 2522TIP3   OH229200   3.231   1.555   8.108 -0.2983 -0.2043  0.2856
 2522TIP3    H129201   3.301   1.490   8.097  0.0988  0.0551  1.1558
 2522TIP3    H229202   3.150   1.504   8.108 -0.1528 -0.4823 -0.9991
 2523TIP3   OH229203   1.912   1.785   0.419 -0.0163  0.2763 -0.0444
 2523TIP3    H129204   1.874   1.741   0.343  0.3364 -0.4812  0.2071
 2523TIP3    H229205   1.887   1.731   0.494 -0.5109  1.1126  0.4097
 2524TIP3   OH229206   1.477   3.250   0.523 -0.6568 -0.7114  0.0559
 2524TIP3    H129207   1.557   3.229   0.476  0.8749 -0.1967  2.3017
 2524TIP3    H229208   1.441   3.165   0.549  0.6388 -0.9081  1.3186
 2525TIP3   OH229209   3.484   4.169   7.475 -0.1015 -0.2439  0.3169
 2525TIP3    H129210   3.394   4.138   7.464  0.6624 -2.0859 -1.3715
 2525TIP3    H229211   3.505   4.211   7.392  0.8334 -0.4620  0.4393
 2526TIP3   OH229212   6.511   1.932   8.265 -0.3092  0.4214  0.0861
 2526TIP3    H129213   6.449   1.863   8.290 -0.8056 -0.4229 -3.0222
 2526TIP3    H229214   6.462   1.984   8.201  0.0688  3.7394  2.3028
 2527TIP3   OH229215   4.473   3.971   1.350 -0.3889 -0.2007 -0.2272
 2527TIP3    H129216   4.439   4.002   1.433 -0.1294 -1.2603  0.2980
 2527TIP3    H229217   4.517   3.888   1.371  0.2307 -0.1779 -1.3097
 2528TIP3   OH229218   3.069   5.210   1.740 -0.1494  0.0153 -0.5620
 2528TIP3    H129219   3.113   5.252   1.815  1.8758  0.6055 -2.0011
 2528TIP3    H229220   2.992   5.167   1.779  0.4790  0.8096  1.7500
 2529TIP3   OH229221   3.710   5.138   0.409 -0.1718  0.3176  0.3330
 2529TIP3    H129222   3.789   5.168   0.363 -1.1809  1.8258 -0.4720
 2529TIP3    H229223   3.670   5.076   0.348  0.4478 -0.5814  0.8140
 2530TIP3   OH229224   4.935   6.779   6.579 -0.1648 -0.1519  0.0672
 2530TIP3    H129225   4.849   6.777   6.621 -0.7200 -0.8804 -1.0341
 2530TIP3    H229226   4.915   6.789   6.486  0.7571 -3.4331 -0.6018
 2531TIP3   OH229227   5.555   0.700   7.209 -0.1629  0.6568  0.0104
 2531TIP3    H129228   5.629   0.661   7.162  0.1523  0.8794  0.3171
 2531TIP3    H229229   5.586   0.709   7.299 -1.1352 -0.7564  0.5195
 2532TIP3   OH229230   1.455   5.768   0.152  0.2474 -0.0184 -0.2667
 2532TIP3    H129231   1.512   5.715   0.097 -0.6029  0.0795 -1.2721
 2532TIP3    H229232   1.392   5.706   0.189  1.0571 -0.1507  0.9623
 2533TIP3   OH229233   2.234   5.962   8.309 -0.0265 -0.2630  0.4390
 2533TIP3    H129234   2.174   5.891   8.333 -1.6030  0.0687 -2.2164
 2533TIP3    H229235   2.201   6.038   8.356  1.1311 -0.9674  2.5733
 2534TIP3   OH229236   3.637   1.608   7.815 -0.4240 -0.3885  0.3262
 2534TIP3    H129237   3.688   1.527   7.813  0.3015  0.0732 -0.2649
 2534TIP3    H229238   3.634   1.631   7.908 -1.9071 -1.8585  0.6883
 2535TIP3   OH229239   5.719   2.886   1.567  0.3038 -0.3276  0.0948
 2535TIP3    H129240   5.785   2.917   1.628 -1.4535 -0.1941  2.0565
 2535TIP3    H229241   5.646   2.858   1.623 -1.3739 -0.2830 -1.9511
 2536TIP3   OH229242   4.657   3.174   8.359  0.2426 -0.5704 -0.5527
 2536TIP3    H129243   4.730   3.153   8.300  0.8992 -0.1282  0.0778
 2536TIP3    H229244   4.691   3.244   8.415 -0.1524 -1.3706  0.7383
 2537TIP3   OH229245   2.753   0.686   0.937 -0.7280 -0.0113  0.3406
 2537TIP3    H129246   2.740   0.660   0.846 -1.1565 -0.4080  0.5150
 2537TIP3    H229247   2.848   0.684   0.949 -0.6839 -0.1731 -0.0342
 2538TIP3   OH229248   1.400   0.979   0.215  0.0175  0.5898  0.0460
 2538TIP3    H129249   1.380   0.965   0.123  0.4095  0.6770 -0.0551
 2538TIP3    H229250   1.363   1.065   0.235  0.7901  1.0205 -0.2975
 2539TIP3   OH229251   2.479   2.477   8.572 -0.3365  0.0421  0.3040
 2539TIP3    H129252   2.399   2.515   8.608 -0.2281  0.1418  0.4421
 2539TIP3    H229253   2.453   2.438   8.489 -0.6295 -0.3430  0.5718
 2540TIP3   OH229254   5.618   5.871   0.396  0.4687  0.0123  0.2078
 2540TIP3    H129255   5.633   5.966   0.396 -1.2881  0.3146  0.3349
 2540TIP3    H229256   5.528   5.861   0.366  1.4218 -1.7814 -2.4602
 2541TIP3   OH229257   4.151   0.977   6.328  0.0223  0.5593  0.2923
 2541TIP3    H129258   4.188   0.930   6.402  0.9564 -1.2226 -1.2296
 2541TIP3    H229259   4.081   0.921   6.296  0.6261  0.5266 -1.0678
 2542TIP3   OH229260   0.295   5.995   1.124 -0.0373 -0.2890 -0.2247
 2542TIP3    H129261   0.305   6.086   1.096  1.6856 -0.1611  0.6313
 2542TIP3    H229262   0.320   5.943   1.048 -1.4458 -0.0759 -0.8532
 2543TIP3   OH229263   2.442   2.394   7.781  0.2072  0.6230  0.1058
 2543TIP3    H129264   2.519   2.365   7.831  0.2988  2.8837  1.4069
 2543TIP3    H229265   2.374   2.331   7.803  1.6778 -1.6284 -1.3140
 2544TIP3   OH229266   6.408   3.822   2.655  0.0725  0.1127  0.4194
 2544TIP3    H129267   6.426   3.873   2.734  2.2888  1.5366 -0.8960
 2544TIP3    H229268   6.325   3.855   2.623 -0.7319 -0.3049  1.9715
 2545TIP3   OH229269   5.799   2.996   1.855  0.0576  0.1527 -0.4015
 2545TIP3    H129270   5.880   2.955   1.886  1.1430 -0.4838 -3.5861
 2545TIP3    H229271   5.829   3.071   1.804 -1.2613 -0.3663 -2.0357
 2546TIP3   OH229272   4.491   0.035   6.839 -0.2617  0.1882 -0.9163
 2546TIP3    H129273   4.519   0.114   6.885 -0.0935 -1.2049  1.5861
 2546TIP3    H229274   4.554  -0.032   6.865 -1.0928 -1.0589 -1.9499
 2547TIP3   OH229275   1.563   4.156   0.035  0.3007 -0.1044  0.4661
 2547TIP3    H129276   1.608   4.227   0.081 -1.0891 -0.3937  2.4281
 2547TIP3    H229277   1.520   4.199  -0.039  2.0521  0.4974 -0.2606
 2548TIP3   OH229278   1.905   4.721   7.339 -0.5688  0.4821  0.0634
 2548TIP3    H129279   1.872   4.780   7.271 -0.0717 -0.3316 -0.9312
 2548TIP3    H229280   1.853   4.641   7.328  1.3260 -0.6649 -1.2567
 2549TIP3   OH229281   0.404   1.698   8.483 -0.3015 -0.3709 -0.1617
 2549TIP3    H129282   0.435   1.786   8.502  1.6565 -0.6630 -1.5946
 2549TIP3    H229283   0.417   1.650   8.564  2.8874 -0.3569 -0.5135
 2550TIP3   OH229284   3.265   5.708   8.228  0.9069 -0.3931 -0.1961
 2550TIP3    H129285   3.294   5.724   8.138  0.3350 -0.6253 -0.4270
 2550TIP3    H229286   3.298   5.620   8.249  0.2864 -0.6979 -0.4940
 2551TIP3   OH229287   6.447   2.149   2.260  0.1058 -0.8298  0.0395
 2551TIP3    H129288   6.400   2.221   2.302 -0.5809 -0.4608 -1.2864
 2551TIP3    H229289   6.384   2.078   2.256  0.9242 -1.6946  1.7485
 2552TIP3   OH229290   3.099   3.949   0.392 -0.2430  0.1944  0.0853
 2552TIP3    H129291   3.046   3.891   0.447 -0.2418  1.6532  1.7316
 2552TIP3    H229292   3.097   3.909   0.305 -5.0092  0.6224 -0.3135
 2553TIP3   OH229293   6.348   4.957   2.276  0.1280 -0.1924  0.0716
 2553TIP3    H129294   6.416   5.023   2.287 -0.8565  1.7110 -3.7007
 2553TIP3    H229295   6.396   4.874   2.267  1.9969  1.0132 -1.9023
 2554TIP3   OH229296   2.719   6.802   6.310 -0.0779  0.1597  0.1482
 2554TIP3    H129297   2.685   6.782   6.223  2.1048  1.3735 -1.0465
 2554TIP3    H229298   2.807   6.765   6.312  0.5085  1.4993  1.2430
 2555TIP3   OH229299   5.762   3.923   8.746  0.2302 -0.1030  0.6310
 2555TIP3    H129300   5.720   3.999   8.785 -2.2476 -0.0376 -1.7966
 2555TIP3    H229301   5.734   3.849   8.800  0.6095  0.4264  1.5636
 2556TIP3   OH229302   0.123   4.839   1.075 -0.1079  0.2713 -0.2606
 2556TIP3    H129303   0.060   4.894   1.028 -1.1668  0.8093  1.6640
 2556TIP3    H229304   0.079   4.818   1.158  1.4725 -1.0137  0.3078
 2557TIP3   OH229305   0.745   1.027   1.149  0.2160 -0.3241 -0.3005
 2557TIP3    H129306   0.663   0.977   1.159 -0.6556  0.9235 -0.9264
 2557TIP3    H229307   0.810   0.961   1.125 -1.1036 -1.0820 -2.0439
 2558TIP3   OH229308   1.556   6.490   1.734 -0.2218 -0.0098  0.6401
 2558TIP3    H129309   1.630   6.531   1.777 -0.7650  2.4925 -0.6118
 2558TIP3    H229310   1.479   6.535   1.769 -0.9127 -0.4849 -0.2135
 2559TIP3   OH229311   1.071   2.128   8.401 -0.1524 -0.0700 -0.3301
 2559TIP3    H129312   1.046   2.151   8.491  1.0737 -0.2511  0.0809
 2559TIP3    H229313   0.998   2.158   8.347  0.2020  2.4335  0.4449
 2560TIP3   OH229314   5.796   6.836   1.919  0.0099 -0.9817 -0.2267
 2560TIP3    H129315   5.745   6.804   1.993 -0.5724 -1.2625 -0.7441
 2560TIP3    H229316   5.887   6.817   1.943 -0.1978 -1.4039  0.2517
 2561TIP3   OH229317   3.211   2.069   2.384  0.7093  0.0912  0.3651
 2561TIP3    H129318   3.127   2.112   2.400  1.2123  0.9115  0.8846
 2561TIP3    H229319   3.246   2.113   2.307  0.2688 -0.8651 -0.3959
 2562TIP3   OH229320   3.425   5.569   6.532 -0.0448 -0.3049 -0.3228
 2562TIP3    H129321   3.354   5.578   6.469 -2.6317 -1.8068  2.1247
 2562TIP3    H229322   3.494   5.521   6.485 -0.1038  2.0084 -3.0599
 2563TIP3   OH229323   2.153   3.174   7.778 -0.6153  0.0751  0.0986
 2563TIP3    H129324   2.086   3.233   7.745 -0.4047  2.2333  3.0992
 2563TIP3    H229325   2.226   3.183   7.717 -1.5039  0.9826 -0.8681
 2564TIP3   OH229326   0.799   2.201   2.064  0.3623  0.5472 -0.4905
 2564TIP3    H129327   0.868   2.227   2.125  0.9406  0.4175 -1.0771
 2564TIP3    H229328   0.842   2.197   1.979 -0.1248 -0.5852 -0.6992
 2565TIP3   OH229329   1.039   5.439   8.282 -0.3946  0.1681 -0.4625
 2565TIP3    H129330   0.991   5.359   8.305  0.8506 -0.3146  0.5330
 2565TIP3    H229331   1.091   5.459   8.359  2.4279 -0.3618 -2.1072
 2566TIP3   OH229332   2.562   5.993   1.049 -0.1254  0.0311  0.0941
 2566TIP3    H129333   2.559   5.933   1.124  1.1483  0.0882  0.2016
 2566TIP3    H229334   2.470   6.006   1.026 -0.4687 -1.1810  0.6926
 2567TIP3   OH229335   5.519   3.580   8.655 -0.2452 -0.0829  0.0388
 2567TIP3    H129336   5.601   3.566   8.607 -0.1261 -0.7075  0.4128
 2567TIP3    H229337   5.453   3.593   8.587 -0.1955 -1.5977 -0.3325
 2568TIP3   OH229338   5.446   5.763   0.622 -0.2113  0.0925 -0.6019
 2568TIP3    H129339   5.507   5.753   0.548  0.3058  0.9647 -0.3104
 2568TIP3    H229340   5.410   5.851   0.612  0.4797  0.5408  0.6222
 2569TIP3   OH229341   6.307   1.092   2.319 -0.0262 -0.3027  0.1106
 2569TIP3    H129342   6.298   1.023   2.384  1.5470  0.6663  1.4089
 2569TIP3    H229343   6.247   1.161   2.349 -0.8667 -0.6853 -0.6489
 2570TIP3   OH229344   3.420   2.879   0.217 -0.0647  0.9779  0.1412
 2570TIP3    H129345   3.412   2.943   0.146  0.1737 -0.3831 -1.1623
 2570TIP3    H229346   3.339   2.828   0.214 -0.0916  0.9548  0.9117
 2571TIP3   OH229347   2.609   1.508   8.189  0.1335 -0.1249  0.1585
 2571TIP3    H129348   2.649   1.511   8.276 -0.9216 -0.8374  0.6899
 2571TIP3    H229349   2.683   1.515   8.128  0.9927 -0.7220  1.0993
 2572TIP3   OH229350   2.053   6.442   1.395 -0.3586 -0.3528  0.4385
 2572TIP3    H129351   1.978   6.384   1.404 -0.4248 -0.0334  2.1960
 2572TIP3    H229352   2.024   6.525   1.432  0.2677  0.3350 -0.5598
 2573TIP3   OH229353   2.808   3.672   6.485 -0.1575  0.0196  0.9029
 2573TIP3    H129354   2.815   3.577   6.496 -0.0704 -0.1353 -0.3231
 2573TIP3    H229355   2.728   3.684   6.435 -0.0140  0.5685  0.8073
 2574TIP3   OH229356   4.775   1.367   1.810  0.1279  0.2893  0.4908
 2574TIP3    H129357   4.701   1.328   1.765 -0.5496  0.2417  1.6027
 2574TIP3    H229358   4.789   1.312   1.887  0.6469  0.8921  0.8469
 2575TIP3   OH229359   0.702   5.650   8.282  0.1156 -0.1626  0.0402
 2575TIP3    H129360   0.760   5.645   8.357  1.1324  0.1738 -0.6965
 2575TIP3    H229361   0.754   5.616   8.209 -0.7689 -0.2769 -0.5600
 2576TIP3   OH229362   3.094   5.232   0.280 -0.2026 -0.1284 -0.2079
 2576TIP3    H129363   3.167   5.287   0.308 -0.9682  1.3041 -0.9296
 2576TIP3    H229364   3.092   5.241   0.185 -0.4018 -1.3661 -0.3412
 2577TIP3   OH229365   0.363   3.947   8.140  0.4662  0.3902 -0.3339
 2577TIP3    H129366   0.381   4.013   8.207 -1.4217 -0.1174  0.7532
 2577TIP3    H229367   0.368   3.864   8.187 -1.9781  0.0774 -0.4850
 2578TIP3   OH229368   4.912   4.852   7.138 -0.4172  0.7032 -0.2522
 2578TIP3    H129369   4.862   4.880   7.061 -0.4146  0.2523 -0.4232
 2578TIP3    H229370   5.002   4.844   7.106 -0.8897 -2.7696 -1.1496
 2579TIP3   OH229371   3.036   1.720   0.245  0.7026 -0.1452  0.5571
 2579TIP3    H129372   3.028   1.627   0.228  2.5901 -0.3914  0.7628
 2579TIP3    H229373   3.055   1.726   0.339 -1.8045  0.6521  1.0865
 2580TIP3   OH229374   0.934   2.511   1.563 -0.6414 -0.2526  0.2920
 2580TIP3    H129375   0.857   2.461   1.587 -0.1800 -0.7655  0.7316
 2580TIP3    H229376   1.008   2.455   1.587 -0.1300  0.2034 -0.1705
 2581TIP3   OH229377   6.256   2.083   6.948  0.0475  0.3713 -0.0909
 2581TIP3    H129378   6.204   2.148   6.901  0.5015  0.5988 -0.2863
 2581TIP3    H229379   6.347   2.108   6.930  0.2247 -0.3039 -0.1522
 2582TIP3   OH229380   3.607   6.715   1.768  0.1287  0.3927 -0.0529
 2582TIP3    H129381   3.656   6.636   1.744 -0.7428  0.0882 -0.9440
 2582TIP3    H229382   3.543   6.684   1.832 -2.2296 -0.3582 -2.5664
 2583TIP3   OH229383   1.402   1.716   7.696 -0.3951 -0.2825 -0.5466
 2583TIP3    H129384   1.458   1.712   7.774  1.8903 -2.1719 -2.1349
 2583TIP3    H229385   1.322   1.671   7.721 -1.1153  1.9991  1.6299
 2584TIP3   OH229386   6.676   2.934   7.126  0.1786 -0.6823  0.2879
 2584TIP3    H129387   6.646   3.025   7.126 -0.1169 -0.7713 -0.6577
 2584TIP3    H229388   6.754   2.934   7.071 -0.0778 -1.0799 -0.0824
 2585TIP3   OH229389   1.965   3.515   7.534  0.0486  0.0030  0.1074
 2585TIP3    H129390   1.898   3.515   7.466  0.4723 -1.8117 -0.3541
 2585TIP3    H229391   1.962   3.427   7.571  2.3730 -0.2524 -0.1656
 2586TIP3   OH229392   6.651   1.217   7.710 -0.4532 -0.3161 -1.1500
 2586TIP3    H129393   6.726   1.275   7.695 -0.9501  0.9417  0.8091
 2586TIP3    H229394   6.584   1.274   7.747 -1.4092 -1.9091 -0.2889
 2587TIP3   OH229395   0.344   1.545   0.909 -0.0448 -0.1335  0.5077
 2587TIP3    H129396   0.317   1.603   0.838 -0.2247 -0.7511  0.0671
 2587TIP3    H229397   0.324   1.594   0.989 -0.1905  0.4092  0.1418
 2588TIP3   OH229398   5.646   4.299   1.039  0.1150  0.2629 -0.8719
 2588TIP3    H129399   5.602   4.214   1.029  1.5767 -0.3055 -3.1970
 2588TIP3    H229400   5.663   4.306   1.133 -1.3486 -1.3079 -0.4306
 2589TIP3   OH229401   6.286   3.686   2.094  0.1137  0.2546  0.2497
 2589TIP3    H129402   6.241   3.766   2.068  0.5848  0.1283 -1.0783
 2589TIP3    H229403   6.229   3.616   2.062  0.0222  0.0690  0.8210
 2590TIP3   OH229404   6.617   2.613   0.614 -0.1653  0.8900  0.3320
 2590TIP3    H129405   6.598   2.630   0.707  0.0833  3.2601  0.0134
 2590TIP3    H229406   6.592   2.522   0.601 -0.9008  0.7043  2.5570
 2591TIP3   OH229407   5.377   2.540   1.799  0.6395  0.1106 -0.0689
 2591TIP3    H129408   5.428   2.482   1.854  1.0286  1.8121  1.4723
 2591TIP3    H229409   5.292   2.545   1.842  1.0161  1.6228  0.5674
 2592TIP3   OH229410   6.536   4.223   7.411 -0.2411  0.1342 -0.1387
 2592TIP3    H129411   6.624   4.241   7.445 -1.3050  1.4774  2.1084
 2592TIP3    H229412   6.510   4.304   7.367 -0.3115 -0.3230 -0.9622
 2593TIP3   OH229413   6.441   0.195   1.307 -0.2026 -0.2555  0.0890
 2593TIP3    H129414   6.519   0.158   1.266  0.4479 -0.2638  1.2772
 2593TIP3    H229415   6.431   0.281   1.268  1.1597  0.2593  0.8372
 2594TIP3   OH229416   2.060   1.032   8.033 -0.3155 -1.2604 -0.1559
 2594TIP3    H129417   2.082   0.990   7.949 -0.8274 -0.6610 -0.5970
 2594TIP3    H229418   2.145   1.064   8.066 -0.4015  1.0310 -1.8472
 2595TIP3   OH229419   1.065   1.715   0.848 -0.1809 -0.1748 -0.1376
 2595TIP3    H129420   1.148   1.742   0.809  0.5284 -1.5318  0.3720
 2595TIP3    H229421   1.062   1.760   0.932  0.2806 -0.4962  0.0553
 2596TIP3   OH229422   5.776   2.076   1.378  0.0902  0.1694 -0.6821
 2596TIP3    H129423   5.801   2.048   1.290  1.0512  1.9011 -0.9916
 2596TIP3    H229424   5.856   2.069   1.430 -0.0239  0.9146 -0.4026
 2597TIP3   OH229425   4.987   6.496   1.086 -0.1820  0.2344  0.5122
 2597TIP3    H129426   4.928   6.546   1.143  0.4969 -0.2466  1.6619
 2597TIP3    H229427   5.033   6.563   1.036 -1.5751  0.6239 -0.3091
 2598TIP3   OH229428   3.166   3.061   1.707 -0.5360  0.1811 -0.0126
 2598TIP3    H129429   3.156   2.992   1.773  0.4254 -0.5611 -0.6007
 2598TIP3    H229430   3.261   3.074   1.702 -0.6503  0.7714 -0.6907
 2599TIP3   OH229431   4.322   5.537   6.998 -0.2450 -0.0846 -0.0606
 2599TIP3    H129432   4.311   5.458   6.945 -1.9335 -0.3881  0.6825
 2599TIP3    H229433   4.237   5.581   6.993  0.4451  1.3416  0.1208
 2600TIP3   OH229434   2.391   4.903   7.209  0.0393  0.7607 -0.0112
 2600TIP3    H129435   2.409   4.809   7.213  2.8672  1.0651 -2.1288
 2600TIP3    H229436   2.370   4.919   7.117 -0.8859  2.1724  0.4154
 2601TIP3   OH229437   1.342   3.366   2.455 -0.1419  0.4783  0.6385
 2601TIP3    H129438   1.298   3.450   2.441 -2.2772 -0.5659  0.7357
 2601TIP3    H229439   1.373   3.340   2.369  0.3262  1.2263  0.5666
 2602TIP3   OH229440   0.368   1.409   2.372  0.3972  0.1631  0.3222
 2602TIP3    H129441   0.305   1.481   2.370  0.4851  0.2206 -0.3039
 2602TIP3    H229442   0.381   1.385   2.281 -0.7298 -1.6124  0.5750
 2603TIP3   OH229443   5.413   3.875   0.740  0.2026 -0.2217  0.5538
 2603TIP3    H129444   5.482   3.810   0.728  1.8043  1.7039 -1.5300
 2603TIP3    H229445   5.332   3.828   0.722  1.3788 -1.4722 -1.9323
 2604TIP3   OH229446   0.741   4.102   6.406 -0.1938  0.0342  0.6006
 2604TIP3    H129447   0.684   4.068   6.337  0.6887 -0.5477  0.1390
 2604TIP3    H229448   0.682   4.120   6.479 -0.9804 -0.4646  0.1065
 2605TIP3   OH229449   0.222   3.794   6.743  0.7049 -0.5148  0.6459
 2605TIP3    H129450   0.152   3.733   6.719 -1.2173  1.6901  0.3271
 2605TIP3    H229451   0.280   3.796   6.667 -1.0187  0.4910 -0.6984
 2606TIP3   OH229452   4.956   5.445   1.138 -0.1403  0.6003 -0.2430
 2606TIP3    H129453   4.876   5.422   1.089 -0.2197  0.8728 -0.2447
 2606TIP3    H229454   4.961   5.380   1.208  1.2781 -1.3108 -2.0128
 2607TIP3   OH229455   0.571   6.158   2.025 -0.3900  0.2277 -0.1109
 2607TIP3    H129456   0.641   6.096   2.047 -1.3799 -1.3274 -1.0844
 2607TIP3    H229457   0.512   6.153   2.101  0.1131  0.9040  0.3370
 2608TIP3   OH229458   2.970   2.214   0.992 -0.1604  0.2818 -0.0604
 2608TIP3    H129459   2.888   2.249   1.026 -1.2280 -1.0897 -1.1052
 2608TIP3    H229460   2.998   2.151   1.058 -0.2289  0.3678  0.0512
 2609TIP3   OH229461   4.438   1.001   6.309  0.0067  0.3870 -1.2672
 2609TIP3    H129462   4.421   0.937   6.239 -2.0773 -1.6047  0.8526
 2609TIP3    H229463   4.351   1.018   6.346  0.8995  2.3147  0.0669
 2610TIP3   OH229464   2.853   2.082   8.076 -0.1996 -0.2728  0.2747
 2610TIP3    H129465   2.897   2.016   8.023 -1.1451 -0.3009 -0.4956
 2610TIP3    H229466   2.892   2.165   8.048  0.1045 -0.3885  0.3513
 2611TIP3   OH229467   0.392   3.158   7.499  0.1997 -0.1868 -0.0464
 2611TIP3    H129468   0.392   3.074   7.454  0.8258 -0.7608  0.9903
 2611TIP3    H229469   0.477   3.162   7.543 -0.5846  0.1094  1.5081
 2612TIP3   OH229470   0.825   0.698   7.277  0.3597  0.3209  0.7694
 2612TIP3    H129471   0.744   0.686   7.328  0.5705 -0.6978  0.8898
 2612TIP3    H229472   0.795   0.711   7.187  0.0431  0.2017  0.8557
 2613TIP3   OH229473   5.946   1.730   7.283 -0.1046 -0.6665 -0.5351
 2613TIP3    H129474   5.926   1.799   7.220  0.9782 -0.7138 -0.9597
 2613TIP3    H229475   6.005   1.670   7.235  1.9796  0.0808  0.9398
 2614TIP3   OH229476   5.280   5.419   1.288 -0.3878  0.1693  0.6384
 2614TIP3    H129477   5.208   5.476   1.315 -0.8050  0.1721 -0.4144
 2614TIP3    H229478   5.237   5.347   1.241  0.3722  1.4894 -2.3561
 2615TIP3   OH229479   2.919   4.389   8.562  0.2826 -0.0697  0.0478
 2615TIP3    H129480   3.005   4.428   8.576  0.5625  0.1150 -1.8943
 2615TIP3    H229481   2.935   4.294   8.565  0.6272 -0.0388 -0.6000
 2616TIP3   OH229482   0.419   4.391   8.761  0.3127 -0.4051  0.7346
 2616TIP3    H129483   0.325   4.375   8.773  0.4415 -1.4604  0.4117
 2616TIP3    H229484   0.461   4.312   8.792  1.1399  0.2142  1.2386
 2617TIP3   OH229485   2.689   5.455   7.310  0.0105 -0.1944  0.5314
 2617TIP3    H129486   2.698   5.428   7.402 -1.2984 -3.7707 -0.2198
 2617TIP3    H229487   2.618   5.519   7.311 -1.7431 -2.0093  1.8630
 2618TIP3   OH229488   4.312   1.399   7.687  0.5301  0.1078  0.0204
 2618TIP3    H129489   4.323   1.494   7.683  2.6505 -0.0030  1.5921
 2618TIP3    H229490   4.227   1.387   7.729 -0.2164  1.2460 -1.0495
 2619TIP3   OH229491   2.043   2.696   0.937  0.0500  0.7060 -0.1099
 2619TIP3    H129492   2.006   2.688   1.024  0.7580 -0.3039  0.1219
 2619TIP3    H229493   1.969   2.684   0.878  0.0453 -2.0018  0.3280
 2620TIP3   OH229494   5.338   5.616   2.212 -0.4912 -0.5995 -0.4453
 2620TIP3    H129495   5.433   5.618   2.200 -0.4672  0.5939 -0.1750
 2620TIP3    H229496   5.315   5.523   2.208  0.8843 -1.0450  0.9880
 2621TIP3   OH229497   5.775   2.939   7.951 -0.0367 -0.0982 -0.1371
 2621TIP3    H129498   5.807   3.010   7.895 -0.7133  1.0769  0.9085
 2621TIP3    H229499   5.852   2.912   8.001  0.1033  0.3241 -0.1157
 2622TIP3   OH229500   5.171   5.044   0.624  0.2783 -0.2823 -0.1800
 2622TIP3    H129501   5.213   5.128   0.609  0.4273 -0.0229  1.5189
 2622TIP3    H229502   5.151   5.011   0.536  2.4455  0.3780 -0.9818
 2623TIP3   OH229503   3.765   5.002   7.087  0.3499 -0.1834 -0.0182
 2623TIP3    H129504   3.745   5.078   7.142 -1.3810  0.2819 -1.2087
 2623TIP3    H229505   3.739   4.926   7.140  1.3299  0.0756  0.8593
 2624TIP3   OH229506   1.145   0.292   1.546  0.0735  0.0662 -0.3689
 2624TIP3    H129507   1.137   0.383   1.516 -1.2624 -0.1623 -0.7732
 2624TIP3    H229508   1.129   0.240   1.468 -2.4884 -0.5361  0.4788
 2625TIP3   OH229509   6.582   3.234   8.022 -0.4830  0.1967 -0.0597
 2625TIP3    H129510   6.501   3.282   8.002 -1.6619 -1.4282  0.5811
 2625TIP3    H229511   6.650   3.282   7.976 -2.1307  0.3245 -2.5887
 2626TIP3   OH229512   2.695   2.165   0.760  0.1106  0.2339 -0.5578
 2626TIP3    H129513   2.709   2.237   0.699 -1.0160  0.6205 -0.3935
 2626TIP3    H229514   2.605   2.178   0.791  0.3582 -0.4716  0.4916
 2627TIP3   OH229515   0.775   5.470   0.634  0.0766  0.1113  0.4813
 2627TIP3    H129516   0.730   5.507   0.710 -0.3795  0.7578 -0.0857
 2627TIP3    H229517   0.754   5.377   0.636 -0.4618  0.2380  0.7947
 2628TIP3   OH229518   5.773   4.143   6.532 -0.8690  0.0405 -0.1802
 2628TIP3    H129519   5.780   4.091   6.453  0.8035 -0.5851  0.3336
 2628TIP3    H229520   5.775   4.080   6.604  2.1283  0.7591  0.4933
 2629TIP3   OH229521   0.083   2.541   0.874  0.1152 -0.4355 -0.1297
 2629TIP3    H129522   0.146   2.475   0.846  0.5491  0.0435 -0.2950
 2629TIP3    H229523   0.083   2.606   0.804  0.0290 -0.0297  0.2421
 2630TIP3   OH229524   1.530   3.149   8.546  0.9428  0.4430  0.0559
 2630TIP3    H129525   1.477   3.168   8.469  1.1679  0.7313 -0.0322
 2630TIP3    H229526   1.477   3.178   8.620  1.2516  1.3814 -0.0709
 2631TIP3   OH229527   2.547   2.259   0.345 -0.4211 -0.0096  0.0557
 2631TIP3    H129528   2.489   2.283   0.417  0.2544  0.8662  0.3211
 2631TIP3    H229529   2.593   2.181   0.376  0.1426  0.5789  0.7425
 2632TIP3   OH229530   5.546   6.415   7.630  0.1395  0.0283 -0.0981
 2632TIP3    H129531   5.528   6.468   7.708  0.2609  0.4764 -0.3741
 2632TIP3    H229532   5.461   6.407   7.587 -0.3112 -1.7066  0.9819
 2633TIP3   OH229533   0.745   0.159   7.716 -0.2097 -0.4827  0.6785
 2633TIP3    H129534   0.660   0.191   7.687 -0.1436 -0.8016  0.1267
 2633TIP3    H229535   0.753   0.190   7.806 -1.5139 -1.6196  1.2080
 2634TIP3   OH229536   0.700   3.245   8.569 -0.1557 -0.4119  0.4453
 2634TIP3    H129537   0.731   3.198   8.491 -0.1200  0.5776 -0.1586
 2634TIP3    H229538   0.696   3.178   8.637 -1.8204 -1.7075 -0.8154
 2635TIP3   OH229539   4.508   6.668   8.150 -0.6478 -0.6807 -0.1433
 2635TIP3    H129540   4.418   6.652   8.120 -0.4162 -1.1670 -0.6036
 2635TIP3    H229541   4.561   6.658   8.071 -0.0047 -2.0517  0.4209
 2636TIP3   OH229542   1.008   4.141   0.434  0.0216 -0.9502  0.0244
 2636TIP3    H129543   0.969   4.100   0.511  1.5592 -0.3714  1.1704
 2636TIP3    H229544   1.091   4.096   0.422  0.7388  0.3281 -0.0294
 2637TIP3   OH229545   1.221   4.525   1.498  0.6967  0.2412  0.3580
 2637TIP3    H129546   1.260   4.517   1.585  1.1893 -1.3474  0.0074
 2637TIP3    H229547   1.282   4.481   1.440 -0.1223  0.4195 -0.6631
 2638TIP3   OH229548   0.669   5.315   0.969  0.5220 -0.3036 -0.1436
 2638TIP3    H129549   0.621   5.237   0.998  2.0413 -1.2960 -0.1490
 2638TIP3    H229550   0.726   5.337   1.042 -0.6011  1.4845  0.2580
 2639TIP3   OH229551   1.529   3.063   7.403 -0.0090  0.2197 -0.0128
 2639TIP3    H129552   1.560   3.024   7.484 -0.6479 -0.6968 -0.1918
 2639TIP3    H229553   1.435   3.045   7.402 -0.3233  1.7412 -0.1263
 2640TIP3   OH229554   5.350   2.985   1.556 -0.1293 -0.1654 -0.5931
 2640TIP3    H129555   5.258   3.012   1.559 -0.7148 -2.1112 -0.0894
 2640TIP3    H229556   5.358   2.919   1.624  1.8686  0.5462 -0.0792
 2641TIP3   OH229557   3.226   6.705   1.699  0.5908 -0.2313  0.5346
 2641TIP3    H129558   3.283   6.629   1.703  2.5296  1.1611  1.3572
 2641TIP3    H229559   3.205   6.724   1.791 -0.1494  0.0169  0.3193
 2642TIP3   OH229560   6.810   1.710   1.749  0.1832 -0.0088  0.3585
 2642TIP3    H129561   6.882   1.761   1.785  0.5047 -0.4747  0.3836
 2642TIP3    H229562   6.851   1.653   1.684 -0.1778 -0.2094  0.3018
 2643TIP3   OH229563   4.086   5.650   7.235 -0.6051  0.0444 -0.1094
 2643TIP3    H129564   4.078   5.580   7.301 -0.7210  0.0389 -0.1281
 2643TIP3    H229565   4.145   5.714   7.275 -1.0088  0.2453  0.1787
 2644TIP3   OH229566   1.431   1.610   1.201  0.0777 -0.0637  0.2342
 2644TIP3    H129567   1.445   1.674   1.270  1.0236  0.1055 -0.0943
 2644TIP3    H229568   1.497   1.543   1.217 -0.4108 -0.5784  0.1292
 2645TIP3   OH229569   5.735   0.561   1.308  0.8711 -0.0974  0.2242
 2645TIP3    H129570   5.683   0.562   1.388 -0.8453  1.1766 -0.8348
 2645TIP3    H229571   5.794   0.635   1.316 -0.7810  1.3840 -0.5262
 2646TIP3   OH229572   4.767   5.621   0.571  0.6692 -0.1665 -0.3930
 2646TIP3    H129573   4.838   5.629   0.633  0.9022  2.0124 -0.8416
 2646TIP3    H229574   4.708   5.693   0.593 -0.1226 -0.4180 -1.5839
 2647TIP3   OH229575   1.289   6.761   7.579 -0.5195  0.0799 -0.7318
 2647TIP3    H129576   1.274   6.668   7.564 -1.0289  0.4380 -2.6835
 2647TIP3    H229577   1.339   6.791   7.502  0.3388  1.2689  0.2335
 2648TIP3   OH229578   3.437   1.657   0.157 -0.1334  0.8241 -0.5559
 2648TIP3    H129579   3.379   1.725   0.123 -1.4897  0.5163  0.9660
 2648TIP3    H229580   3.433   1.668   0.252 -0.4269 -1.3572 -0.2602
 2649TIP3   OH229581   1.746   3.225   7.972  0.0936 -0.1099 -0.5348
 2649TIP3    H129582   1.682   3.257   8.036  1.2173  0.3550  0.3773
 2649TIP3    H229583   1.817   3.289   7.975 -0.3922  0.6619 -3.2413
 2650TIP3   OH229584   3.028   5.156   8.370 -0.5341  0.4166 -0.4228
 2650TIP3    H129585   3.118   5.186   8.355  0.0089 -1.2932 -0.8217
 2650TIP3    H229586   2.974   5.232   8.348  0.7734  1.2353 -0.9722
 2651TIP3   OH229587   2.378   4.475   1.219 -0.1253 -0.2940  0.6609
 2651TIP3    H129588   2.370   4.401   1.159 -1.5682  0.7336 -0.4865
 2651TIP3    H229589   2.288   4.507   1.230  0.5079  1.5724  0.7303
 2652TIP3   OH229590   0.509   3.556   2.633 -0.1393 -0.1632 -0.2547
 2652TIP3    H129591   0.553   3.471   2.641  0.1432  0.0742  0.8544
 2652TIP3    H229592   0.575   3.620   2.660 -1.5838  0.0914  3.1083
 2653TIP3   OH229593   3.970   3.402   1.340 -0.4347 -0.2824 -0.5739
 2653TIP3    H129594   3.909   3.340   1.381 -0.0479 -1.5034 -1.7783
 2653TIP3    H229595   3.966   3.382   1.247 -1.4147  2.5293 -1.2515
 2654TIP3   OH229596   6.155   5.266   7.571 -0.6071  0.4689 -0.1111
 2654TIP3    H129597   6.067   5.302   7.584 -0.2248  1.2085  0.4899
 2654TIP3    H229598   6.214   5.337   7.595  0.1628 -0.1529 -0.1245
 2655TIP3   OH229599   5.265   2.806   1.759 -0.6023  0.5707 -0.1824
 2655TIP3    H129600   5.209   2.772   1.690 -1.1695 -0.8506  0.9121
 2655TIP3    H229601   5.220   2.780   1.840  1.3235 -0.1048  0.7245
 2656TIP3   OH229602   4.396   3.706   0.364  0.3872 -0.4727 -0.1163
 2656TIP3    H129603   4.367   3.620   0.334  0.6324 -0.5230 -0.2126
 2656TIP3    H229604   4.316   3.757   0.374 -0.0059 -1.4039  2.1606
 2657TIP3   OH229605   0.526   0.300   7.634 -0.3309  0.1659  0.0074
 2657TIP3    H129606   0.510   0.352   7.555 -0.7804  1.0656  0.6676
 2657TIP3    H229607   0.481   0.348   7.703  2.1849  0.8185  1.3140
 2658TIP3   OH229608   5.067   0.732   8.308  0.0545 -0.1447 -0.1522
 2658TIP3    H129609   5.003   0.675   8.351 -1.4528  2.4518  1.3036
 2658TIP3    H229610   5.014   0.787   8.249  0.4652  3.1642  2.2479
 2659TIP3   OH229611   1.969   2.391   1.963 -0.1402  0.0074 -0.2983
 2659TIP3    H129612   1.933   2.471   1.924 -1.2598 -0.2440  0.1750
 2659TIP3    H229613   2.063   2.400   1.954 -0.2774  1.1317 -0.7522
 2660TIP3   OH229614   0.233   2.618   1.635  0.7091 -0.2478  0.3751
 2660TIP3    H129615   0.154   2.589   1.589  2.1004 -2.3585 -0.8170
 2660TIP3    H229616   0.203   2.632   1.725 -1.4380  1.0945 -0.4611
 2661TIP3   OH229617   3.431   2.628   0.025 -0.0583  0.1674 -0.4153
 2661TIP3    H129618   3.455   2.712   0.063 -0.0101 -0.0426  0.0273
 2661TIP3    H229619   3.412   2.647  -0.067  0.9126  0.4907 -0.5615
 2662TIP3   OH229620   3.393   6.668   0.180 -1.0389  0.2036 -0.2096
 2662TIP3    H129621   3.306   6.650   0.143 -2.8252  4.3454  1.3149
 2662TIP3    H229622   3.414   6.756   0.148  1.9492 -0.1079  0.6845
 2663TIP3   OH229623   5.390   1.591   7.615 -0.3259 -0.3688 -0.4304
 2663TIP3    H129624   5.458   1.563   7.675  0.4129 -1.1145 -1.5713
 2663TIP3    H229625   5.356   1.510   7.577 -1.3559  0.0365 -0.4225
 2664TIP3   OH229626   4.666   6.008   0.941  0.5605 -0.4416  0.4121
 2664TIP3    H129627   4.604   5.939   0.966  0.1226 -0.1776  0.0432
 2664TIP3    H229628   4.752   5.969   0.960  0.2696  0.0086  3.0912
 2665TIP3   OH229629   4.312   4.821   1.375 -0.5406 -0.0637 -0.0427
 2665TIP3    H129630   4.222   4.790   1.379 -1.1945  1.4550 -1.6815
 2665TIP3    H229631   4.338   4.809   1.284  0.1280  1.5354 -0.0964
 2666TIP3   OH229632   4.662   4.983   1.375 -0.5598  0.3854  0.9508
 2666TIP3    H129633   4.746   4.951   1.408  0.1675  1.4667  0.2184
 2666TIP3    H229634   4.663   4.963   1.281 -0.8126  1.0346  0.8012
 2667TIP3   OH229635   1.641   2.910   7.166 -1.3338 -0.0614 -0.4290
 2667TIP3    H129636   1.575   2.855   7.126 -0.6004 -0.7310 -0.7498
 2667TIP3    H229637   1.593   2.962   7.231 -1.8861 -1.9063  0.7388
 2668TIP3   OH229638   4.286   1.690   7.412 -0.3497  0.2991 -0.2709
 2668TIP3    H129639   4.378   1.664   7.405 -0.6360 -0.7684 -0.2507
 2668TIP3    H229640   4.279   1.730   7.499  0.0484  0.1726 -0.1791
 2669TIP3   OH229641   6.205   2.179   1.928  0.0368  0.4563  0.0119
 2669TIP3    H129642   6.145   2.164   1.854 -0.4281  1.2749  0.2034
 2669TIP3    H229643   6.149   2.217   1.996  1.0517  2.9732 -0.4404
 2670TIP3   OH229644   0.697   3.740   2.673  0.1352  0.3487 -0.3093
 2670TIP3    H129645   0.662   3.829   2.662  1.0064  0.6057 -1.2078
 2670TIP3    H229646   0.788   3.746   2.642  0.7254 -0.4908  1.1403
 2671TIP3   OH229647   6.154   5.144   2.000  0.6898 -0.0191  0.4076
 2671TIP3    H129648   6.097   5.213   1.967  1.3704  0.0485 -0.6687
 2671TIP3    H229649   6.097   5.089   2.053 -0.4679 -0.1743 -0.9474
 2672TIP3   OH229650   1.100   2.343   0.749  0.3609 -0.1225  0.0615
 2672TIP3    H129651   1.112   2.359   0.655  0.9426 -1.2866 -0.0769
 2672TIP3    H229652   1.080   2.250   0.755 -0.4555  0.1035  1.0392
 2673TIP3   OH229653   1.460   6.268   1.580 -0.1768  0.0434  0.3113
 2673TIP3    H129654   1.550   6.237   1.575 -0.2787 -0.2420  0.2258
 2673TIP3    H229655   1.467   6.358   1.612  0.2279  0.4605 -0.8969
 2674TIP3   OH229656   6.161   3.454   6.910 -0.0277 -0.4207  0.4502
 2674TIP3    H129657   6.187   3.454   6.817  1.2736 -2.4710  0.7292
 2674TIP3    H229658   6.208   3.528   6.948 -0.3305  0.2563 -0.4683
 2675TIP3   OH229659   3.194   3.587   8.335  0.5975  0.2863  0.4485
 2675TIP3    H129660   3.242   3.668   8.318  1.0843  0.1956  1.3043
 2675TIP3    H229661   3.145   3.570   8.255 -1.4084  2.7098  1.0461
 2676TIP3   OH229662   6.080   2.332   7.502  0.4441 -0.5932  0.3021
 2676TIP3    H129663   6.135   2.326   7.424 -0.2947  1.3692 -0.4301
 2676TIP3    H229664   6.005   2.275   7.484  0.1456  0.0487 -0.5792
 2677TIP3   OH229665   1.216   4.197   8.423 -0.1288  0.6682  0.0968
 2677TIP3    H129666   1.210   4.112   8.466 -0.5714  1.0927  0.9100
 2677TIP3    H229667   1.302   4.198   8.381 -0.7665 -0.8238 -1.3495
 2678TIP3   OH229668   1.193   5.103   7.131 -0.2619 -0.5010  0.4389
 2678TIP3    H129669   1.222   5.086   7.042  0.0678  0.1724  0.4105
 2678TIP3    H229670   1.097   5.104   7.126 -0.3561  4.1823 -0.8960
 2679TIP3   OH229671   2.306   0.804   7.140  0.1538 -0.0035  0.7749
 2679TIP3    H129672   2.298   0.785   7.046 -0.2293  1.6685  0.4334
 2679TIP3    H229673   2.218   0.832   7.166  0.1336 -0.9421  1.7764
 2680TIP3   OH229674   1.551   3.226   1.013  0.1056 -0.3073  0.3889
 2680TIP3    H129675   1.509   3.298   0.964 -0.1635  0.3174  1.5052
 2680TIP3    H229676   1.478   3.177   1.051  0.3043 -0.9620 -0.0619
 2681TIP3   OH229677   2.175   5.903   7.058  0.1187  0.1567 -0.6321
 2681TIP3    H129678   2.261   5.894   7.016  0.0162 -1.4861 -0.5726
 2681TIP3    H229679   2.147   5.812   7.073 -1.7661  0.6674 -0.9188
 2682TIP3   OH229680   3.709   5.559   0.102 -0.3332  0.2637 -0.2766
 2682TIP3    H129681   3.690   5.527   0.014 -1.9610  0.2194  0.0515
 2682TIP3    H229682   3.698   5.654   0.096 -0.0741  0.2981 -0.2068
 2683TIP3   OH229683   5.440   2.871   8.092 -0.2400 -0.3860 -0.1438
 2683TIP3    H129684   5.501   2.922   8.145  1.5367 -0.3964 -2.0291
 2683TIP3    H229685   5.403   2.807   8.153  0.0612  0.9399  1.5113
 2684TIP3   OH229686   3.908   4.136   6.418 -0.2216  0.1115 -0.0194
 2684TIP3    H129687   3.871   4.126   6.330 -0.0843 -0.3097 -0.0318
 2684TIP3    H229688   3.871   4.064   6.468  1.2569 -0.8580 -0.2657
 2685TIP3   OH229689   5.342   1.826   8.449  0.6217 -0.0235 -0.3272
 2685TIP3    H129690   5.428   1.797   8.421  0.7539 -0.4803  0.5061
 2685TIP3    H229691   5.352   1.843   8.543 -0.1930 -0.0944 -0.2157
 2686TIP3   OH229692   1.813   1.832   8.727  0.2607 -0.9874 -0.4375
 2686TIP3    H129693   1.893   1.802   8.685 -1.2675 -0.5408 -3.9853
 2686TIP3    H229694   1.743   1.781   8.685 -1.8490  2.9688 -2.2328
 2687TIP3   OH229695   3.098   2.458   0.489 -0.2218 -0.0173 -0.6769
 2687TIP3    H129696   3.122   2.366   0.493 -0.9511 -0.2633 -1.5306
 2687TIP3    H229697   3.005   2.458   0.467 -0.6401  0.9146  0.9220
 2688TIP3   OH229698   2.431   2.124   7.644 -0.1590 -0.8337 -0.4659
 2688TIP3    H129699   2.354   2.134   7.589  0.5494 -1.8235 -1.6943
 2688TIP3    H229700   2.501   2.169   7.596  0.4429 -1.5802 -0.3062
 2689TIP3   OH229701   5.464   0.356   8.239  0.3567 -0.2772  0.3014
 2689TIP3    H129702   5.453   0.316   8.326 -1.0004 -0.2652  0.1434
 2689TIP3    H229703   5.377   0.383   8.213  0.6941 -0.5382 -1.2116
 2690TIP3   OH229704   4.296   2.763   1.281  0.0233 -0.4693  0.4877
 2690TIP3    H129705   4.371   2.749   1.338 -0.0891 -1.0233  0.5047
 2690TIP3    H229706   4.220   2.761   1.339  0.0831  1.9090  0.7582
 2691TIP3   OH229707   4.049   0.920   7.672 -0.2207  0.0037  0.1136
 2691TIP3    H129708   4.021   0.842   7.718  0.3989  0.4192  1.2451
 2691TIP3    H229709   3.969   0.969   7.656 -0.3851  0.1965  1.4316
 2692TIP3   OH229710   0.575   0.926   8.243  0.0784 -0.2822  0.6477
 2692TIP3    H129711   0.563   0.833   8.224 -1.2915 -0.2291  1.1915
 2692TIP3    H229712   0.596   0.966   8.158 -0.9954 -0.8222  0.1200
 2693TIP3   OH229713   5.185   3.694   7.218 -0.6367  0.0003  0.0811
 2693TIP3    H129714   5.235   3.627   7.263  0.4885 -0.5213 -1.8106
 2693TIP3    H229715   5.208   3.683   7.125 -1.4399  2.1366 -0.4434
 2694TIP3   OH229716   4.425   1.351   7.445 -0.3080  0.0849 -0.1163
 2694TIP3    H129717   4.363   1.381   7.511 -2.4036 -0.8228 -1.5724
 2694TIP3    H229718   4.442   1.428   7.391 -0.9735  0.1118 -0.2966
 2695TIP3   OH229719   4.482   4.651   0.098  0.5261  0.4894 -0.2640
 2695TIP3    H129720   4.433   4.569   0.108  1.0061  0.1144 -0.8771
 2695TIP3    H229721   4.522   4.644   0.011  1.9057  0.6402  0.3285
 2696TIP3   OH229722   6.420   5.786   7.753 -0.1026 -0.3293 -0.4486
 2696TIP3    H129723   6.433   5.700   7.792 -1.5675 -0.5534 -0.4282
 2696TIP3    H229724   6.387   5.841   7.824 -1.0732 -0.2733 -0.9287
 2697TIP3   OH229725   4.903   1.771   0.267 -0.4197 -0.4046  0.6790
 2697TIP3    H129726   4.907   1.751   0.174  1.3940 -0.5432  0.7607
 2697TIP3    H229727   4.921   1.865   0.273 -0.4687 -0.4082  0.9041
 2698TIP3   OH229728   2.144   1.945   6.680  0.5283  0.2799 -0.3987
 2698TIP3    H129729   2.174   1.976   6.765 -2.0736  1.2837  0.2132
 2698TIP3    H229730   2.078   2.008   6.652  0.7030 -0.4798 -2.8169
 2699TIP3   OH229731   5.328   5.890   2.161  0.0095 -0.5626  0.7666
 2699TIP3    H129732   5.325   5.941   2.080 -0.8699 -0.4818  0.8428
 2699TIP3    H229733   5.334   5.799   2.131  2.5686 -0.4264  0.6271
 2700TIP3   OH229734   3.227   0.445   0.316  0.0707  0.4040  0.2573
 2700TIP3    H129735   3.133   0.451   0.330  0.1781  0.4760  0.9824
 2700TIP3    H229736   3.264   0.515   0.371  0.6052 -0.1568  0.6221
 2701TIP3   OH229737   6.086   0.632   0.523  0.6063 -0.0459 -0.6930
 2701TIP3    H129738   6.110   0.592   0.607  0.1887  0.2411 -0.4340
 2701TIP3    H229739   6.017   0.575   0.488 -1.1940  1.3137  0.4592
 2702TIP3   OH229740   5.727   0.387   6.550  0.4600 -0.7099 -0.1919
 2702TIP3    H129741   5.764   0.304   6.581  1.9355 -0.4554 -1.1425
 2702TIP3    H229742   5.673   0.362   6.475  0.2835 -0.8868 -0.0064
 2703TIP3   OH229743   2.020   5.177   2.263  1.0015  0.4245 -0.2757
 2703TIP3    H129744   2.024   5.240   2.335  0.4096 -0.3941  0.5032
 2703TIP3    H229745   2.110   5.170   2.232  1.3612  0.4001  0.7374
 2704TIP3   OH229746   5.988   4.821   1.754  0.1827  0.3326 -0.4948
 2704TIP3    H129747   5.968   4.885   1.686  0.1183  1.1708  0.3030
 2704TIP3    H229748   5.951   4.858   1.834 -0.0683 -0.8184 -0.0603
 2705TIP3   OH229749   2.064   1.047   7.539 -0.5389 -0.0581  0.3946
 2705TIP3    H129750   2.121   0.973   7.516 -1.9564 -0.4037 -2.4481
 2705TIP3    H229751   1.988   1.006   7.580 -0.1022  0.1412  1.4456
 2706TIP3   OH229752   3.766   1.655   8.333 -0.0926  0.5739 -0.3109
 2706TIP3    H129753   3.815   1.737   8.336  0.7199  0.0583  1.0891
 2706TIP3    H229754   3.808   1.605   8.264  0.0544  0.9316 -0.4855
 2707TIP3   OH229755   0.449   3.840   6.570  0.3591 -0.1859 -0.4722
 2707TIP3    H129756   0.404   3.852   6.487 -0.4893 -1.7511 -0.2729
 2707TIP3    H229757   0.490   3.754   6.564 -1.9754 -1.6087  1.6403
 2708TIP3   OH229758   2.903   1.870   0.040 -0.2292  0.0972  0.4129
 2708TIP3    H129759   2.847   1.913   0.104 -0.7159 -2.4113  1.8218
 2708TIP3    H229760   2.969   1.824   0.093 -0.5727 -1.9680 -0.8349
 2709TIP3   OH229761   5.689   2.628   8.376  0.1273  0.1358 -0.7425
 2709TIP3    H129762   5.671   2.612   8.284  2.0949 -0.0573 -1.1258
 2709TIP3    H229763   5.745   2.706   8.377 -0.1316  0.3318  0.3165
 2710TIP3   OH229764   6.066   0.608   7.413  0.8490  0.0385 -0.4627
 2710TIP3    H129765   6.092   0.546   7.481 -0.8177  1.6221  1.7552
 2710TIP3    H229766   6.114   0.688   7.433 -0.8050  1.0089 -0.1175
 2711TIP3   OH229767   5.310   1.820   7.762  0.0547  0.0743  0.1680
 2711TIP3    H129768   5.310   1.884   7.691  1.2631  0.8142  0.7973
 2711TIP3    H229769   5.335   1.738   7.720 -3.0345 -0.4227 -0.9440
 2712TIP3   OH229770   5.061   6.615   6.195  0.0213  0.3152 -0.8061
 2712TIP3    H129771   5.001   6.658   6.256 -1.3356  0.5680 -2.2592
 2712TIP3    H229772   5.007   6.548   6.152  0.9760  0.0539 -1.6234
 2713TIP3   OH229773   2.207   3.639   6.812 -0.3324  0.1118 -0.0047
 2713TIP3    H129774   2.251   3.572   6.760  0.0667  0.0757  0.3712
 2713TIP3    H229775   2.240   3.625   6.901 -0.4014  0.6777  0.1122
 2714TIP3   OH229776   4.683   1.607   7.992 -0.2566 -0.0867 -0.1894
 2714TIP3    H129777   4.646   1.528   7.952 -2.0415  1.0656 -0.9425
 2714TIP3    H229778   4.751   1.636   7.931  2.2990 -2.3583  1.3206
 2715TIP3   OH229779   5.378   0.310   7.932 -0.5750  0.3757  0.0046
 2715TIP3    H129780   5.456   0.361   7.955 -0.4112 -0.7568  2.1838
 2715TIP3    H229781   5.409   0.220   7.926 -1.4390  0.1143 -0.8119
 2716TIP3   OH229782   5.761   0.154   1.488  0.0898  0.0517 -0.3990
 2716TIP3    H129783   5.718   0.125   1.408 -0.5140  0.1438 -0.1116
 2716TIP3    H229784   5.845   0.108   1.488 -0.5436 -1.1570 -0.3150
 2717TIP3   OH229785   1.402   2.566   6.878 -0.8937 -0.0592 -0.1500
 2717TIP3    H129786   1.326   2.587   6.933 -0.8273 -1.7629  0.6622
 2717TIP3    H229787   1.385   2.612   6.796 -2.7171 -0.2041  0.0878
 2718TIP3   OH229788   1.368   5.947   1.677  0.1712  0.8478  0.0175
 2718TIP3    H129789   1.346   5.959   1.769 -0.2595  0.9955 -0.1022
 2718TIP3    H229790   1.347   6.031   1.636  0.6572  0.8852 -0.1593
 2719TIP3   OH229791   4.542   1.850   2.245  0.4334  0.5436  0.1098
 2719TIP3    H129792   4.635   1.862   2.263  0.3756  1.5296 -0.1873
 2719TIP3    H229793   4.527   1.756   2.256  1.9832 -0.0657 -2.1428
 2720TIP3   OH229794   2.680   1.378   8.670  0.0880  0.8337 -0.1520
 2720TIP3    H129795   2.628   1.313   8.622  1.4279 -0.5083  0.1246
 2720TIP3    H229796   2.621   1.409   8.740 -0.5068 -0.2898 -0.1217
 2721TIP3   OH229797   4.174   3.577   1.050 -0.4572 -0.0831 -0.1691
 2721TIP3    H129798   4.190   3.668   1.076 -0.3472 -0.8639  2.8427
 2721TIP3    H229799   4.261   3.539   1.041 -0.4710  0.2867 -2.4652
 2722TIP3   OH229800   2.952   4.609   8.314  0.1203  0.0298  1.1681
 2722TIP3    H129801   3.007   4.646   8.383  0.8387 -0.0976  0.6717
 2722TIP3    H229802   3.008   4.544   8.272  0.3858  1.4662 -0.8185
 2723TIP3   OH229803   0.598   4.051   6.697  0.1577  0.3730  0.2291
 2723TIP3    H129804   0.547   3.983   6.655 -0.1790  1.1441 -0.6338
 2723TIP3    H229805   0.542   4.083   6.768 -0.0643  0.4017  0.0401
 2724TIP3   OH229806   2.029   3.950   1.173  0.4216  0.4206  0.0573
 2724TIP3    H129807   1.936   3.962   1.190  0.5671  2.3118 -0.3310
 2724TIP3    H229808   2.054   4.023   1.117  1.8843 -0.7344 -0.8929
 2725TIP3   OH229809   3.730   4.229   0.377  0.2040 -0.4066  0.0745
 2725TIP3    H129810   3.796   4.273   0.323  1.0177 -2.1428 -0.4029
 2725TIP3    H229811   3.689   4.300   0.427  0.9237  0.9753 -1.2215
 2726TIP3   OH229812   5.938   1.050   8.673 -0.0907 -0.3591  0.2279
 2726TIP3    H129813   5.918   1.013   8.587 -1.9174 -0.7000  0.7580
 2726TIP3    H229814   5.910   1.142   8.667  0.8553 -0.0646  0.1216
 2727TIP3   OH229815   6.704   6.839   1.989  0.0787 -0.2370  0.6292
 2727TIP3    H129816   6.639   6.869   1.925  0.1871 -1.2846 -0.0075
 2727TIP3    H229817   6.780   6.894   1.973 -0.6574  1.0615  1.4440
 2728TIP3   OH229818   1.219   0.124   7.028  0.3020 -0.4082 -0.2905
 2728TIP3    H129819   1.160   0.143   6.955  0.1263 -0.7607 -0.2424
 2728TIP3    H229820   1.307   0.132   6.991  0.2109 -1.0523 -0.6664
 2729TIP3   OH229821   4.259   2.187   7.600  0.1380  0.3185 -0.1325
 2729TIP3    H129822   4.351   2.171   7.581 -0.0613  0.7942 -1.6174
 2729TIP3    H229823   4.259   2.233   7.684  1.2271  0.0066  0.0480
 2730TIP3   OH229824   1.101   1.530   8.638 -0.0078  0.0234  0.6660
 2730TIP3    H129825   1.061   1.523   8.725 -0.6858 -2.0832  0.2624
 2730TIP3    H229826   1.027   1.536   8.578  0.3828 -0.3043  0.1406
 2731TIP3   OH229827   2.549   6.750   6.499 -0.1216  0.4015 -0.3270
 2731TIP3    H129828   2.609   6.726   6.428  1.4031 -1.2926  1.4034
 2731TIP3    H229829   2.590   6.825   6.541  0.7921 -0.6742  0.7742
 2732TIP3   OH229830   5.744   6.348   0.533 -0.2953  0.3095  0.0851
 2732TIP3    H129831   5.820   6.396   0.499 -0.2133  0.2397  0.1697
 2732TIP3    H229832   5.781   6.283   0.593 -0.2436 -1.1693 -1.4932
 2733TIP3   OH229833   1.724   2.063   2.038 -0.4103  0.6747  0.4531
 2733TIP3    H129834   1.805   2.065   1.987 -0.8977 -1.9529 -0.5949
 2733TIP3    H229835   1.745   2.110   2.119  2.2111 -0.0896  0.2988
 2734TIP3   OH229836   5.360   3.697   8.135  0.3495 -0.1320 -0.4008
 2734TIP3    H129837   5.440   3.739   8.168  0.2339 -0.4054  0.2453
 2734TIP3    H229838   5.361   3.715   8.041  0.8801  0.3521 -0.3114
 2735TIP3   OH229839   4.487   3.530   0.001  0.2030  0.4460  0.0681
 2735TIP3    H129840   4.496   3.480   0.081 -1.7152  1.3960  0.9469
 2735TIP3    H229841   4.545   3.486  -0.062  1.7224 -0.3417  1.9162
 2736TIP3   OH229842   0.914   6.854   1.487  0.4544 -0.3044 -0.1625
 2736TIP3    H129843   0.877   6.935   1.522  0.4377  0.6616 -2.2811
 2736TIP3    H229844   0.838   6.797   1.476 -0.1662  0.7942 -2.1704
 2737TIP3   OH229845   4.445   2.531   8.432  0.2355 -0.5404 -0.8900
 2737TIP3    H129846   4.403   2.468   8.373 -0.4743 -1.2467  0.3181
 2737TIP3    H229847   4.375   2.558   8.491  1.0227 -0.1831 -0.1105
 2738TIP3   OH229848   3.338   1.780   0.424  0.2596  0.2973  0.5608
 2738TIP3    H129849   3.384   1.843   0.479  0.2818  0.2184  0.6325
 2738TIP3    H229850   3.246   1.807   0.428  0.2514  0.2473  0.6953
 2739TIP3   OH229851   3.986   3.888   8.456  0.1806 -0.0196  0.0542
 2739TIP3    H129852   4.063   3.839   8.429 -1.2127 -0.8194 -2.8255
 2739TIP3    H229853   4.018   3.978   8.468  1.5764 -0.3438 -0.9739
 2740TIP3   OH229854   4.979   4.764   1.208  0.2879 -0.1258  0.0139
 2740TIP3    H129855   4.982   4.820   1.286  1.3508  0.0291 -0.1327
 2740TIP3    H229856   5.010   4.679   1.239 -1.3293 -0.6743  0.2379
 2741TIP3   OH229857   1.781   4.618   1.325 -0.7968 -0.0543 -0.4015
 2741TIP3    H129858   1.775   4.553   1.395 -0.0521  1.5920  1.2778
 2741TIP3    H229859   1.835   4.688   1.362 -1.4372  1.4582 -2.1929
 2742TIP3   OH229860   3.054   6.185   0.717  0.0190 -0.4124 -0.3313
 2742TIP3    H129861   2.989   6.234   0.767 -1.2164 -1.4656 -0.8343
 2742TIP3    H229862   3.090   6.122   0.780  0.3152 -0.0529 -0.1379
 2743TIP3   OH229863   4.629   2.588   7.341  0.2879  0.0103 -0.2356
 2743TIP3    H129864   4.679   2.630   7.271  0.3171 -1.8167 -1.3607
 2743TIP3    H229865   4.538   2.597   7.315  0.2981 -0.6659 -0.5120
 2744TIP3   OH229866   2.811   3.956   1.773 -0.3892 -0.6259  0.4646
 2744TIP3    H129867   2.856   4.024   1.722 -1.3088 -1.1444 -1.1138
 2744TIP3    H229868   2.857   3.954   1.857  0.5520  0.9589  0.0232
 2745TIP3   OH229869   5.548   2.009   7.919  0.1643  0.3921 -0.0174
 2745TIP3    H129870   5.577   1.918   7.916  0.2198  0.4105 -0.0287
 2745TIP3    H229871   5.626   2.059   7.944 -0.3700  0.2108  2.1565
 2746TIP3   OH229872   0.935   2.945   6.436 -0.1080 -0.5598 -0.1366
 2746TIP3    H129873   0.876   3.020   6.442 -1.2979 -1.3942 -0.8886
 2746TIP3    H229874   1.018   2.977   6.469 -0.4633  1.2215 -0.8495
 2747TIP3   OH229875   5.954   4.889   1.143  0.5392 -0.7373  0.2251
 2747TIP3    H129876   6.037   4.926   1.110  0.1928  1.5315  1.7028
 2747TIP3    H229877   5.907   4.863   1.064  1.3386  0.9451 -0.8596
 2748TIP3   OH229878   6.812   0.674   8.667 -0.2225  0.0438 -0.6084
 2748TIP3    H129879   6.740   0.623   8.703 -1.0860  0.3096 -1.8722
 2748TIP3    H229880   6.873   0.609   8.631 -0.2254 -0.1584 -0.2420
 2749TIP3   OH229881   6.522   3.538   0.559 -0.3795 -0.7859  0.0374
 2749TIP3    H129882   6.487   3.506   0.476  1.3583 -2.3734 -0.1292
 2749TIP3    H229883   6.509   3.633   0.555 -2.6939 -1.0749 -0.8728
 2750TIP3   OH229884   0.811   1.273   0.685 -0.0876  0.4926  0.3773
 2750TIP3    H129885   0.768   1.242   0.764  0.7674 -0.7435  0.3836
 2750TIP3    H229886   0.837   1.363   0.705 -2.0596  1.0421  0.5860
 2751TIP3   OH229887   4.249   1.668   7.758  0.0469  0.0622  0.2524
 2751TIP3    H129888   4.261   1.754   7.718 -1.1555 -0.0195 -0.3512
 2751TIP3    H229889   4.205   1.685   7.841  1.7271  0.1654  1.1511
 2752TIP3   OH229890   5.352   0.752   8.197  0.0461  0.9420 -0.2335
 2752TIP3    H129891   5.372   0.800   8.117 -1.6837  1.8351 -0.1621
 2752TIP3    H229892   5.260   0.729   8.189 -0.1905  1.1320  1.5509
 2753TIP3   OH229893   5.871   2.826   8.709 -0.3181  1.0100  0.2311
 2753TIP3    H129894   5.907   2.830   8.621  0.6370  1.4064  0.6244
 2753TIP3    H229895   5.856   2.733   8.725  0.5010  0.8432  0.0421
 2754TIP3   OH229896   2.012   1.505   7.781  0.0855 -0.3461  0.1694
 2754TIP3    H129897   2.031   1.413   7.800  0.2344 -0.1150  1.1978
 2754TIP3    H229898   2.035   1.515   7.689 -0.1272 -1.3887 -0.0138
 2755TIP3   OH229899   1.614   1.890   1.026 -0.1291 -0.0539 -0.2123
 2755TIP3    H129900   1.565   1.846   0.958  0.3333  0.7129 -1.0655
 2755TIP3    H229901   1.548   1.942   1.074 -0.5424 -1.0360  0.3098
 2756TIP3   OH229902   3.474   4.920   1.448  0.3382  0.5877  0.2014
 2756TIP3    H129903   3.552   4.895   1.498 -1.0276 -0.6975  1.8062
 2756TIP3    H229904   3.410   4.944   1.515 -0.6332  1.7431 -1.0892
 2757TIP3   OH229905   4.297   1.850   1.233 -0.0101 -0.3721 -0.2482
 2757TIP3    H129906   4.309   1.819   1.323  2.9772  0.6884 -0.1658
 2757TIP3    H229907   4.326   1.777   1.178 -1.7348 -0.9802 -0.4338
 2758TIP3   OH229908   6.203   4.202   7.449  0.4596  0.6053 -0.4167
 2758TIP3    H129909   6.190   4.277   7.506 -0.4525  0.5381 -0.5177
 2758TIP3    H229910   6.264   4.145   7.497  0.2301  0.8611  0.1847
 2759TIP3   OH229911   6.485   0.667   6.378 -0.0905  0.5509 -0.9519
 2759TIP3    H129912   6.390   0.673   6.370 -0.1606  0.3393 -0.2804
 2759TIP3    H229913   6.502   0.576   6.401  0.3381  0.3854 -1.8436
 2760TIP3   OH229914   3.557   1.066   2.152  0.5210 -0.4657  0.3505
 2760TIP3    H129915   3.468   1.079   2.184 -0.1457 -1.8768 -0.8059
 2760TIP3    H229916   3.587   1.153   2.128 -0.7635 -0.0397  0.2257
 2761TIP3   OH229917   2.650   0.959   1.620  0.0401 -0.2608  0.2273
 2761TIP3    H129918   2.641   0.873   1.662  0.8222 -0.5861 -0.2454
 2761TIP3    H229919   2.560   0.984   1.598 -0.1388 -1.3985 -0.4594
 2762TIP3   OH229920   5.078   1.599   7.986 -0.0309 -1.0762 -0.9763
 2762TIP3    H129921   5.168   1.622   8.009 -0.1498 -1.2166 -0.3297
 2762TIP3    H229922   5.058   1.523   8.041 -0.7593 -0.6419 -0.6150
 2763TIP3   OH229923   5.769   0.197   7.033 -0.0406 -0.2284  0.1391
 2763TIP3    H129924   5.784   0.167   7.122  1.4335 -2.0992 -0.6779
 2763TIP3    H229925   5.697   0.142   7.000  0.9924 -1.2055 -0.5519
 2764TIP3   OH229926   2.481   5.753   7.892 -0.3166 -0.4685  0.1571
 2764TIP3    H129927   2.568   5.743   7.931  0.2439 -0.8461 -1.1452
 2764TIP3    H229928   2.424   5.704   7.951  0.7298 -2.2451 -0.2251
 2765TIP3   OH229929   5.493   4.516   2.158  0.2171  0.0214 -0.4863
 2765TIP3    H129930   5.452   4.599   2.179 -0.6121 -0.5749  0.3222
 2765TIP3    H229931   5.577   4.518   2.205  0.9220  1.0371 -1.7478
 2766TIP3   OH229932   4.030   0.720   7.361 -0.5611 -0.8100  0.0088
 2766TIP3    H129933   4.108   0.736   7.307 -0.7458  2.1763  0.4758
 2766TIP3    H229934   4.064   0.676   7.439  0.5505 -0.2627 -0.1466
 2767TIP3   OH229935   0.772   3.432   6.691  0.0997 -0.8054  0.3032
 2767TIP3    H129936   0.689   3.391   6.668 -1.2667  1.0924  1.5565
 2767TIP3    H229937   0.784   3.412   6.784 -0.7438  1.7019  1.0205
 2768TIP3   OH229938   6.284   2.712   8.224 -0.3176 -0.4585  0.1379
 2768TIP3    H129939   6.212   2.652   8.207 -0.9414  0.4498 -0.5104
 2768TIP3    H229940   6.324   2.679   8.304 -1.5618 -0.8655  0.6106
 2769TIP3   OH229941   3.219   5.614   7.695  0.2083 -0.3987 -0.4787
 2769TIP3    H129942   3.299   5.667   7.698  0.4607 -0.8112  0.5413
 2769TIP3    H229943   3.247   5.531   7.658  0.4548 -0.8470  0.6684
 2770TIP3   OH229944   0.603   1.231   1.291  0.0816 -0.1029  0.3217
 2770TIP3    H129945   0.531   1.177   1.325  0.3677 -0.0688  0.9978
 2770TIP3    H229946   0.649   1.173   1.230 -0.4037 -0.1850  0.0298
 2771TIP3   OH229947   1.007   1.866   0.604  0.4910 -0.3524  0.6092
 2771TIP3    H129948   0.989   1.955   0.636  1.5963  0.1183 -0.0287
 2771TIP3    H229949   1.001   1.811   0.682  3.6118  0.8284  1.8767
 2772TIP3   OH229950   5.653   6.537   8.390 -0.1675 -0.4545  0.1516
 2772TIP3    H129951   5.610   6.451   8.396  0.4951 -0.9543 -1.5402
 2772TIP3    H229952   5.733   6.520   8.339 -0.1251  1.2014 -0.3888
 2773TIP3   OH229953   3.055   5.401   1.308 -0.2193  0.4292  0.2389
 2773TIP3    H129954   3.046   5.305   1.310  2.3753  0.1000 -0.4444
 2773TIP3    H229955   3.090   5.423   1.394 -3.4857  1.2295  1.5276
 2774TIP3   OH229956   4.003   1.688   0.997  0.5969  0.4417  0.6422
 2774TIP3    H129957   3.932   1.649   1.048  0.8989  0.2415  0.9145
 2774TIP3    H229958   3.986   1.659   0.907  1.7600 -1.8101  1.0635
 2775TIP3   OH229959   0.156   4.881   0.642 -0.0510  0.2337 -0.5003
 2775TIP3    H129960   0.176   4.952   0.582  0.3391  0.7738  0.2491
 2775TIP3    H229961   0.124   4.810   0.586  1.7672  0.1511 -1.5197
 2776TIP3   OH229962   4.826   5.066   0.431  0.2623 -0.1156 -0.2153
 2776TIP3    H129963   4.768   5.131   0.390 -0.2361 -1.8554 -2.5191
 2776TIP3    H229964   4.799   5.063   0.522 -2.7023 -0.1704 -0.9996
 2777TIP3   OH229965   5.596   0.410   2.320  0.3408 -0.1970  0.0532
 2777TIP3    H129966   5.652   0.459   2.380 -1.9360  0.1137  2.1074
 2777TIP3    H229967   5.566   0.335   2.371 -0.6170 -0.6797 -1.1645
 2778TIP3   OH229968   0.707   5.921   6.750  0.3808  0.7420 -0.2780
 2778TIP3    H129969   0.617   5.890   6.747  1.1260 -1.5538 -0.6275
 2778TIP3    H229970   0.736   5.920   6.659  1.3370 -0.4807  0.0117
 2779TIP3   OH229971   4.037   2.468   0.328  0.5690  0.0846  0.2005
 2779TIP3    H129972   4.073   2.418   0.254  2.8126 -0.4531  1.5633
 2779TIP3    H229973   3.948   2.435   0.337 -0.1330  0.8464 -2.8006
 2780TIP3   OH229974   2.164   2.846   8.185 -0.1859 -0.0746 -0.4183
 2780TIP3    H129975   2.124   2.885   8.264  0.6700 -1.1614  0.5800
 2780TIP3    H229976   2.199   2.921   8.137 -0.0545  0.5506  0.6238
 2781TIP3   OH229977   4.042   5.264   7.101 -0.1865 -0.1691  0.1656
 2781TIP3    H129978   3.988   5.246   7.178 -3.1350 -0.8063 -1.8842
 2781TIP3    H229979   4.025   5.356   7.081 -0.2916 -0.2893 -0.3116
 2782TIP3   OH229980   3.809   0.259   0.629 -0.1578  1.1828 -0.3699
 2782TIP3    H129981   3.883   0.255   0.569  1.3789 -0.9268  1.5018
 2782TIP3    H229982   3.741   0.206   0.586  1.2403 -1.0777  0.0575
 2783TIP3   OH229983   5.992   0.903   8.445  0.6331 -0.2141  0.8800
 2783TIP3    H129984   6.042   0.981   8.421  0.7950 -0.8610 -0.9998
 2783TIP3    H229985   6.033   0.831   8.397  0.6590 -1.5561  2.7648
 2784TIP3   OH229986   0.487   0.859   0.747  0.2686 -0.1125  0.6385
 2784TIP3    H129987   0.558   0.811   0.790  0.4911  0.2472  0.6788
 2784TIP3    H229988   0.459   0.923   0.813 -0.7456 -0.8822  0.9764
 2785TIP3   OH229989   5.723   2.194   0.043 -0.9683  0.1222 -0.3445
 2785TIP3    H129990   5.706   2.265   0.105 -1.1296  0.1178 -0.3834
 2785TIP3    H229991   5.669   2.122   0.075  1.4205 -1.0031  1.4879
 2786TIP3   OH229992   0.803   3.710   7.331 -0.4228  0.0901 -0.0913
 2786TIP3    H129993   0.832   3.626   7.297  1.6922  0.8557 -0.3552
 2786TIP3    H229994   0.831   3.774   7.266  0.2963  1.2273  1.2614
 2787TIP3   OH229995   3.768   2.382   0.219 -0.3528  0.5097 -0.2090
 2787TIP3    H129996   3.699   2.397   0.285 -1.7414 -2.5815 -0.7878
 2787TIP3    H229997   3.724   2.396   0.135  0.8373  2.3252 -0.5655
 2788TIP3   OH229998   3.230   6.803   0.424  0.7167  0.1158  0.0181
 2788TIP3    H129999   3.266   6.770   0.341  2.1560 -0.4750  0.8279
 2788TIP3    H230000   3.236   6.898   0.417 -0.7708  0.1460 -1.2101
 2789TIP3   OH230001   6.155   5.999   1.700 -0.0976  0.5507 -0.2235
 2789TIP3    H130002   6.243   6.025   1.728 -0.3360  0.0620  1.0627
 2789TIP3    H230003   6.153   6.016   1.606  1.7329 -0.4301 -0.4826
 2790TIP3   OH230004   6.581   5.181   8.280 -0.0874  0.4242 -0.2508
 2790TIP3    H130005   6.562   5.266   8.241  0.2226  0.3209 -0.6302
 2790TIP3    H230006   6.500   5.131   8.270  0.1222  0.2452 -1.1833
 2791TIP3   OH230007   5.120   6.634   2.334  0.0336  0.1358  0.2572
 2791TIP3    H130008   5.044   6.576   2.340 -0.9052  1.2503 -0.3849
 2791TIP3    H230009   5.166   6.607   2.255  0.9004 -1.1845  1.1652
 2792TIP3   OH230010   5.590   4.837   7.718 -0.5286 -0.2041 -0.0246
 2792TIP3    H130011   5.667   4.811   7.668 -0.3491  1.8902 -0.9359
 2792TIP3    H230012   5.609   4.809   7.808 -0.1769 -2.6242 -0.7713
 2793TIP3   OH230013   1.463   6.497   8.195 -0.2272 -0.2941  0.3935
 2793TIP3    H130014   1.450   6.408   8.161  1.2742 -0.3603 -0.0888
 2793TIP3    H230015   1.554   6.497   8.226 -0.6228  0.6925  1.5854
 2794TIP3   OH230016   5.427   0.533   1.685 -0.2768  0.4376  0.6623
 2794TIP3    H130017   5.414   0.510   1.593 -1.8038  0.9976  0.7079
 2794TIP3    H230018   5.492   0.470   1.716 -0.4534 -0.3837 -0.5576
 2795TIP3   OH230019   3.550   0.523   1.182  0.0547  0.0083  0.4098
 2795TIP3    H130020   3.514   0.468   1.251  0.2125 -1.0025 -0.2785
 2795TIP3    H230021   3.485   0.591   1.168  0.0898  0.3115  1.6427
 2796TIP3   OH230022   1.631   1.497   8.232 -0.0452 -0.0391 -0.1690
 2796TIP3    H130023   1.548   1.476   8.190  0.0484  1.4503 -1.1528
 2796TIP3    H230024   1.697   1.449   8.181 -0.0954  0.4734 -0.7223
 2797TIP3   OH230025   1.761   3.481   0.746  0.1917 -0.0815  0.1234
 2797TIP3    H130026   1.702   3.500   0.819 -0.0067 -0.5636  0.0911
 2797TIP3    H230027   1.848   3.473   0.786 -0.0056 -0.9653  0.4026
 2798TIP3   OH230028   5.868   2.847   8.373 -0.5015  0.3633  0.1153
 2798TIP3    H130029   5.845   2.938   8.393 -0.1296  0.5599 -0.3271
 2798TIP3    H230030   5.879   2.846   8.278 -1.1248 -0.2915  0.0415
 2799TIP3   OH230031   4.769   3.548   1.327 -0.2741  0.3849 -0.4006
 2799TIP3    H130032   4.841   3.609   1.342 -0.5091  0.7107 -0.5709
 2799TIP3    H230033   4.798   3.495   1.253  0.5007 -0.6181  0.5916
 2800TIP3   OH230034   0.735   6.636   1.566  0.1096  0.0072  0.2880
 2800TIP3    H130035   0.758   6.543   1.557 -1.4187 -0.2770 -1.3415
 2800TIP3    H230036   0.640   6.638   1.555  0.2963  1.9306 -1.7274
 2801TIP3   OH230037   5.896   3.599   8.787  0.0939 -0.4750 -0.4362
 2801TIP3    H130038   5.946   3.642   8.718 -1.5418  3.1565  0.3440
 2801TIP3    H230039   5.811   3.643   8.785 -0.0263 -0.0469  3.8446
 2802TIP3   OH230040   1.299   4.274   1.209  0.4362 -0.1328  0.0172
 2802TIP3    H130041   1.320   4.279   1.302 -0.1623  1.5520  0.1004
 2802TIP3    H230042   1.366   4.329   1.166 -1.2030  1.8698 -0.1407
 2803TIP3   OH230043   3.003   1.350   8.157 -0.0466 -0.3536  0.4764
 2803TIP3    H130044   3.027   1.421   8.216  2.6717  0.7123 -1.7194
 2803TIP3    H230045   2.926   1.383   8.110  2.1643  2.1737 -1.7882
 2804TIP3   OH230046   2.473   2.236   1.320 -0.1142  0.2033  0.5620
 2804TIP3    H130047   2.483   2.141   1.322 -0.7615  0.1366  2.1931
 2804TIP3    H230048   2.486   2.263   1.411  3.2567  2.0666 -0.2957
 2805TIP3   OH230049   5.817   2.384   8.416  0.3135  0.7287  0.4190
 2805TIP3    H130050   5.839   2.366   8.325  1.9300  0.8661  0.7592
 2805TIP3    H230051   5.746   2.448   8.412  0.5070  0.8806 -0.7381
 2806TIP3   OH230052   3.651   0.417   8.745 -0.3197  0.0038  0.5172
 2806TIP3    H130053   3.620   0.338   8.700 -1.0304  0.7447 -0.3031
 2806TIP3    H230054   3.584   0.435   8.811 -0.4255  0.2376  0.3444
 2807TIP3   OH230055   5.445   2.114   0.558  0.6369  0.1949 -0.2020
 2807TIP3    H130056   5.407   2.202   0.565 -0.4540 -0.2523 -0.3604
 2807TIP3    H230057   5.460   2.086   0.648  1.6114  0.7866 -0.1589
 2808TIP3   OH230058   4.833   3.159   7.843 -0.2030 -0.1149 -0.1722
 2808TIP3    H130059   4.870   3.127   7.761 -0.3795 -1.3930  0.2375
 2808TIP3    H230060   4.909   3.180   7.897 -0.0447 -1.9393  0.3594
 2809TIP3   OH230061   1.865   3.402   8.249  0.2203  0.2705  0.1690
 2809TIP3    H130062   1.875   3.405   8.154 -2.2083 -0.5313 -0.1911
 2809TIP3    H230063   1.923   3.332   8.277  1.8963  1.3103 -0.5114
 2810TIP3   OH230064   1.209   0.865   0.725 -0.3432 -0.1825 -0.1904
 2810TIP3    H130065   1.144   0.807   0.685 -1.4360 -0.0637  1.3154
 2810TIP3    H230066   1.211   0.942   0.668  0.6308 -1.3804 -1.8398
 2811TIP3   OH230067   6.048   5.121   1.437  0.7205 -0.1366 -0.9669
 2811TIP3    H130068   6.035   5.160   1.524 -0.3521 -0.9381 -0.7531
 2811TIP3    H230069   6.111   5.180   1.394 -0.7515  1.7885 -0.6335
 2812TIP3   OH230070   4.634   5.812   8.473 -0.3007  0.5566 -0.1733
 2812TIP3    H130071   4.698   5.883   8.463  1.9143 -1.3148 -0.0166
 2812TIP3    H230072   4.670   5.739   8.424 -1.9161 -0.8564  0.6210
 2813TIP3   OH230073   5.738   0.744   1.962 -0.2862  0.0328  0.2767
 2813TIP3    H130074   5.823   0.702   1.948  0.4036  0.4139  2.7973
 2813TIP3    H230075   5.692   0.686   2.022 -0.9218  0.9294  0.6705
 2814TIP3   OH230076   2.063   2.303   6.602  0.0513 -0.4447  0.2173
 2814TIP3    H130077   2.015   2.337   6.526 -2.0035 -1.6819  0.8781
 2814TIP3    H230078   2.007   2.233   6.636  1.6226 -0.9050  2.0127
 2815TIP3   OH230079   3.880   5.071   1.975 -0.1106  1.0721  0.1462
 2815TIP3    H130080   3.921   5.052   1.891 -0.4928 -0.8573  0.3499
 2815TIP3    H230081   3.938   5.134   2.017  1.2624  0.3781 -0.6448
 2816TIP3   OH230082   3.398   1.965   8.648 -0.2406  0.3382 -0.9327
 2816TIP3    H130083   3.476   2.008   8.684  0.5283 -1.9480  0.3045
 2816TIP3    H230084   3.363   1.913   8.720 -1.9575 -0.0122 -1.9528
 2817TIP3   OH230085   6.581   4.832   2.488 -0.4971 -0.4893  0.2241
 2817TIP3    H130086   6.576   4.791   2.575 -1.8685 -0.0674  0.3746
 2817TIP3    H230087   6.555   4.923   2.504  0.7752  0.0012 -0.3927
 2818TIP3   OH230088   0.566   0.229   0.907  0.3597  0.4350 -0.2460
 2818TIP3    H130089   0.606   0.291   0.969  0.1466  0.6900 -0.3632
 2818TIP3    H230090   0.508   0.283   0.853  0.1553  0.1274 -0.3339
 2819TIP3   OH230091   4.344   2.853   0.462 -0.6837 -0.5352 -0.5899
 2819TIP3    H130092   4.263   2.817   0.428 -1.3701  0.1463  0.2867
 2819TIP3    H230093   4.401   2.863   0.385 -1.9809  0.4306 -1.4656
 2820TIP3   OH230094   4.135   6.319   7.993 -0.0381  0.1146 -0.2295
 2820TIP3    H130095   4.154   6.279   8.079 -1.9951 -0.5618 -0.0731
 2820TIP3    H230096   4.088   6.251   7.945 -1.6331  1.4988 -0.7210
 2821TIP3   OH230097   1.016   3.816   1.563  0.1883 -0.1930 -0.2462
 2821TIP3    H130098   0.953   3.748   1.588 -0.5912  0.6985  0.2851
 2821TIP3    H230099   0.963   3.892   1.539  1.0211 -0.0051 -1.6293
 2822TIP3   OH230100   1.862   5.150   0.966  0.5567 -0.3165  0.3276
 2822TIP3    H130101   1.910   5.229   0.992  0.2283  0.4946 -1.3399
 2822TIP3    H230102   1.858   5.156   0.870 -1.8058 -0.9807  0.3277
 2823TIP3   OH230103   5.481   4.510   7.460 -0.0952 -0.2697  0.1295
 2823TIP3    H130104   5.511   4.508   7.550 -0.7352  0.8646  0.3984
 2823TIP3    H230105   5.516   4.592   7.425 -0.9349 -0.0537 -0.2423
 2824TIP3   OH230106   3.133   1.164   6.512  0.3857 -0.6526  0.2462
 2824TIP3    H130107   3.081   1.100   6.464  0.1830 -0.4838  0.2420
 2824TIP3    H230108   3.168   1.115   6.586  0.7492 -0.9296 -0.1049
 2825TIP3   OH230109   3.824   6.607   0.333 -0.1752  0.5165  0.9569
 2825TIP3    H130110   3.826   6.511   0.333  0.0419  0.4993 -0.5689
 2825TIP3    H230111   3.897   6.632   0.389 -0.0761 -0.2042  1.1636
 2826TIP3   OH230112   5.895   4.381   1.017  0.2230  0.3331  0.2667
 2826TIP3    H130113   5.898   4.454   1.080  1.3125  1.1239 -0.6595
 2826TIP3    H230114   5.805   4.349   1.022 -0.4196  2.0416  0.3673
 2827TIP3   OH230115   0.010   2.310   1.362  0.2452  0.5808 -0.0586
 2827TIP3    H130116  -0.002   2.334   1.270 -0.1634 -1.2949 -0.5368
 2827TIP3    H230117   0.099   2.340   1.383  0.6123  0.3898 -1.2794
 2828TIP3   OH230118   1.406   1.537   0.576 -0.3654 -0.3418  0.1820
 2828TIP3    H130119   1.365   1.622   0.563  1.0685  0.1873 -1.2291
 2828TIP3    H230120   1.394   1.491   0.493 -1.6331 -1.7806  1.1118
 2829TIP3   OH230121   1.778   5.401   7.452 -0.0937 -0.3160  0.5326
 2829TIP3    H130122   1.751   5.462   7.383  0.0947 -1.3105 -0.4396
 2829TIP3    H230123   1.697   5.382   7.499 -0.0345  1.2410  1.3299
 2830TIP3   OH230124   4.666   6.413   8.663  0.1485  0.3817 -0.1946
 2830TIP3    H130125   4.684   6.419   8.569  1.0277 -1.0208 -0.1417
 2830TIP3    H230126   4.695   6.497   8.698  0.6960  0.5633 -1.0438
 2831TIP3   OH230127   1.482   2.720   1.641 -0.5149 -0.4193  0.0659
 2831TIP3    H130128   1.571   2.738   1.673 -0.2559  0.1915 -0.9091
 2831TIP3    H230129   1.465   2.629   1.664  0.3232 -0.5016  0.3866
 2832TIP3   OH230130   3.844   2.496   8.377  0.0632  0.2852  0.0622
 2832TIP3    H130131   3.750   2.510   8.372 -0.0681  0.2463  1.7212
 2832TIP3    H230132   3.854   2.418   8.432  1.0537 -0.1840 -0.7333
 2833TIP3   OH230133   1.671   4.947   0.903  0.4278  0.0556 -0.0440
 2833TIP3    H130134   1.735   4.930   0.835  0.9026  2.4981 -0.3093
 2833TIP3    H230135   1.712   5.014   0.959 -0.8985 -0.1469  1.2407
 2834TIP3   OH230136   5.179   0.164   8.181  1.3504 -0.1424 -0.1774
 2834TIP3    H130137   5.198   0.258   8.183  0.2314  0.1262 -1.1060
 2834TIP3    H230138   5.186   0.137   8.272  0.2290  1.1590  0.3319
 2835TIP3   OH230139   3.172   4.741   0.756  0.0228  0.4509  0.4699
 2835TIP3    H130140   3.087   4.702   0.734  0.2887 -0.1086  0.4170
 2835TIP3    H230141   3.160   4.834   0.741  0.0831  0.1640 -1.7998
 2836TIP3   OH230142   1.144   5.600   7.304 -0.3545 -0.2056 -0.4244
 2836TIP3    H130143   1.175   5.537   7.238 -0.4717  0.3541 -1.0207
 2836TIP3    H230144   1.126   5.680   7.255 -0.2268  0.2949  0.3291
 2837TIP3   OH230145   6.320   6.735   1.029  0.8453  0.0752 -0.3468
 2837TIP3    H130146   6.295   6.672   0.961  1.0614  1.7842 -2.0907
 2837TIP3    H230147   6.245   6.737   1.089 -0.1160 -0.1767 -1.5118
 2838TIP3   OH230148   4.691   6.008   7.387  0.0321  0.2659  0.0430
 2838TIP3    H130149   4.604   5.974   7.365  0.3319  0.4692 -1.5930
 2838TIP3    H230150   4.743   5.931   7.410 -0.9816  0.2864  2.6774
 2839TIP3   OH230151   0.705   5.613   6.708 -0.2734  0.3778  0.0352
 2839TIP3    H130152   0.772   5.679   6.723 -0.2973  0.4464 -0.1557
 2839TIP3    H230153   0.622   5.661   6.714 -0.3789  0.0746  1.5131
 2840TIP3   OH230154   5.681   2.065   0.960 -0.5075  0.0544  0.3505
 2840TIP3    H130155   5.677   1.969   0.960 -0.0517  0.0108 -1.0791
 2840TIP3    H230156   5.625   2.091   0.887  0.0599  0.8388  0.1819
 2841TIP3   OH230157   6.125   4.026   7.243 -0.4649  0.2783  0.0401
 2841TIP3    H130158   6.154   4.079   7.317  0.6635  0.8891 -0.8012
 2841TIP3    H230159   6.107   3.940   7.281  0.0713  0.5814  1.0359
 2842TIP3   OH230160   3.750   4.047   1.033 -0.4219  0.1497 -0.5279
 2842TIP3    H130161   3.779   3.962   1.068  1.2509  0.2565 -1.5271
 2842TIP3    H230162   3.711   4.091   1.108  0.1163 -0.8953  0.4026
 2843TIP3   OH230163   3.160   0.836   7.676  0.6426 -0.2956 -0.2978
 2843TIP3    H130164   3.226   0.875   7.735  0.5925 -0.6367 -0.0150
 2843TIP3    H230165   3.152   0.900   7.605  0.0234  0.5816  0.5277
 2844TIP3   OH230166   6.298   6.283   8.659  0.1574 -0.0906 -0.1073
 2844TIP3    H130167   6.300   6.281   8.564 -0.0692  0.4945 -0.1302
 2844TIP3    H230168   6.383   6.318   8.685 -0.1752  0.7773 -0.1429
 2845TIP3   OH230169   4.928   5.122   1.154 -0.1639 -0.4406  0.4785
 2845TIP3    H130170   4.846   5.167   1.178 -0.1984 -0.0603 -0.3126
 2845TIP3    H230171   4.901   5.051   1.096  0.1550  0.4691 -0.8308
 2846TIP3   OH230172   5.857   1.907   7.084  0.4766 -0.4830  0.2531
 2846TIP3    H130173   5.823   1.859   7.008 -0.5331 -0.4205  0.6495
 2846TIP3    H230174   5.950   1.917   7.066  0.0213  0.8773 -1.7372
 2847TIP3   OH230175   4.292   5.599   7.525 -0.8708  0.3360 -0.1108
 2847TIP3    H130176   4.332   5.529   7.576 -0.4508 -0.9654 -2.0800
 2847TIP3    H230177   4.224   5.554   7.473 -2.6175  1.9181  0.6985
 2848TIP3   OH230178   1.048   2.171   7.290 -0.0882  0.0672 -0.0265
 2848TIP3    H130179   1.048   2.227   7.212  1.1413  2.3827  1.5518
 2848TIP3    H230180   1.132   2.125   7.286 -0.1631 -0.0571 -0.2144
 2849TIP3   OH230181   4.618   6.182   0.275 -0.7375  0.2816  0.2684
 2849TIP3    H130182   4.560   6.230   0.335  0.6538  0.7912  1.2519
 2849TIP3    H230183   4.679   6.249   0.243 -1.0301 -0.1218 -1.2314
 2850TIP3   OH230184   0.299   5.006   8.236 -0.1966  0.4265  0.2258
 2850TIP3    H130185   0.236   4.964   8.294 -1.4071  1.9200  0.0444
 2850TIP3    H230186   0.367   4.940   8.223 -0.8128 -0.5853  1.8665
 2851TIP3   OH230187   4.942   3.596   8.505  0.1754  0.0382 -0.2659
 2851TIP3    H130188   4.972   3.561   8.589 -1.1194 -1.1294 -0.2652
 2851TIP3    H230189   5.023   3.611   8.456  0.8924 -0.4458  0.7197
 2852TIP3   OH230190   1.942   5.721   0.700 -0.0212  0.1295 -0.4884
 2852TIP3    H130191   1.987   5.731   0.616 -1.4660 -0.3857 -1.3828
 2852TIP3    H230192   1.941   5.809   0.738 -0.2190  0.5816 -1.5007
 2853TIP3   OH230193   1.648   5.963   0.690 -0.7584 -0.3124 -0.1460
 2853TIP3    H130194   1.704   5.969   0.767 -1.5898  3.6351  0.3616
 2853TIP3    H230195   1.567   5.922   0.722 -0.6682  0.2205  0.7793
 2854TIP3   OH230196   2.898   4.901   7.932 -0.1408 -0.4409 -0.2054
 2854TIP3    H130197   2.818   4.946   7.905 -0.6220 -0.9641  0.3275
 2854TIP3    H230198   2.875   4.859   8.015  1.3859  1.4128  1.2692
 2855TIP3   OH230199   3.916   2.305   0.555  0.4851 -0.0356 -0.0935
 2855TIP3    H130200   3.927   2.226   0.608  3.3907 -0.4371 -1.1147
 2855TIP3    H230201   3.931   2.276   0.465  0.0348  1.4284 -0.6649
 2856TIP3   OH230202   1.187   6.008   1.373 -0.0596 -0.0291  0.3661
 2856TIP3    H130203   1.168   6.029   1.464  0.1591  1.1111  0.1684
 2856TIP3    H230204   1.187   5.912   1.369 -0.3704 -0.0833  1.4906
 2857TIP3   OH230205   0.402   3.941   7.856 -0.3369 -0.0374 -0.3375
 2857TIP3    H130206   0.399   3.905   7.945 -0.1082  0.6983 -0.0231
 2857TIP3    H230207   0.429   3.867   7.801  1.2942 -0.0873  0.4612
 2858TIP3   OH230208   1.699   6.679   6.336 -0.0297  0.6280 -0.5419
 2858TIP3    H130209   1.759   6.737   6.383  1.0452  0.6705 -1.9226
 2858TIP3    H230210   1.750   6.599   6.320 -1.2349 -0.4350  0.6394
 2859TIP3   OH230211   1.227   0.473   2.141 -0.1689 -0.1309 -0.4306
 2859TIP3    H130212   1.301   0.496   2.198  0.1044  0.0916 -0.8631
 2859TIP3    H230213   1.237   0.379   2.126  0.9595  0.1604 -1.7513
 2860TIP3   OH230214   3.008   4.013   1.543  0.9200  0.3410  0.3940
 2860TIP3    H130215   3.052   4.063   1.474  1.3941  0.9260  1.1052
 2860TIP3    H230216   2.942   3.962   1.497  0.7110  1.2957 -0.4156
 2861TIP3   OH230217   3.998   0.861   7.033  0.0219 -0.2541  0.1719
 2861TIP3    H130218   3.989   0.877   7.127 -1.4358 -1.9041  0.3721
 2861TIP3    H230219   3.912   0.883   6.997  0.4533 -0.0075 -0.7381
 2862TIP3   OH230220   0.387   1.844   2.067 -0.5966  0.3170 -0.3482
 2862TIP3    H130221   0.467   1.872   2.022 -0.3835 -0.5038 -0.4939
 2862TIP3    H230222   0.392   1.886   2.153  0.4747 -0.4825  0.0034
 2863TIP3   OH230223   4.827   0.042   7.415 -0.0988  0.1612  0.3405
 2863TIP3    H130224   4.919   0.019   7.422 -0.4431 -1.2211  0.4878
 2863TIP3    H230225   4.823   0.099   7.338  0.8463  0.0833  0.2239
 2864TIP3   OH230226   4.557   5.735   7.560 -0.0797  0.6236  0.2647
 2864TIP3    H130227   4.475   5.728   7.511 -0.2672 -1.2541  0.7856
 2864TIP3    H230228   4.572   5.647   7.595  3.4910  0.1010 -1.9757
 2865TIP3   OH230229   5.087   6.798   7.499  0.0620  0.4790  0.6275
 2865TIP3    H130230   5.126   6.869   7.549 -0.3472  0.3914  1.0765
 2865TIP3    H230231   5.129   6.719   7.532  0.4294  0.4989  0.2128
 2866TIP3   OH230232   4.628   3.710   7.748 -0.1776 -0.2818 -0.0634
 2866TIP3    H130233   4.608   3.658   7.826  1.3035 -0.1077  0.4578
 2866TIP3    H230234   4.656   3.645   7.683 -1.6719 -0.4571 -0.5856
 2867TIP3   OH230235   0.116   1.722   7.474  0.3279  0.3885 -0.0158
 2867TIP3    H130236   0.117   1.638   7.427 -1.2296 -2.6383  4.7160
 2867TIP3    H230237   0.187   1.715   7.537 -0.7836  1.9884  1.4828
 2868TIP3   OH230238   5.578   3.233   7.702 -0.4315 -0.3462  0.1634
 2868TIP3    H130239   5.580   3.139   7.685 -0.4571 -0.4331  0.6391
 2868TIP3    H230240   5.594   3.273   7.616  2.1003 -0.7984  0.3396
 2869TIP3   OH230241   0.008   4.713   8.738  0.5999 -0.1744 -0.2201
 2869TIP3    H130242  -0.025   4.659   8.666 -1.3669  1.9366 -1.0165
 2869TIP3    H230243   0.102   4.693   8.742  0.3580 -1.9374 -1.9436
 2870TIP3   OH230244   5.138   5.656   8.252  0.6525 -0.4768  0.0178
 2870TIP3    H130245   5.219   5.616   8.282  0.0705 -2.8093 -1.3305
 2870TIP3    H230246   5.088   5.585   8.213 -1.8275  0.9945  0.2750
 2871TIP3   OH230247   4.827   3.108   6.592  0.3830 -0.2719  0.4070
 2871TIP3    H130248   4.871   3.192   6.593 -1.3298  0.6733  0.0190
 2871TIP3    H230249   4.865   3.060   6.665  2.7670  0.0608 -0.5385
 2872TIP3   OH230250   4.153   5.381   0.733  0.2687 -0.1174  0.2437
 2872TIP3    H130251   4.112   5.317   0.675  0.6851 -0.8252  0.7024
 2872TIP3    H230252   4.087   5.449   0.746 -0.3752 -0.7214  0.1600
 2873TIP3   OH230253   1.594   2.661   8.108 -0.5394  0.3028 -0.8287
 2873TIP3    H130254   1.627   2.751   8.102 -1.2272  0.5000 -1.7269
 2873TIP3    H230255   1.589   2.644   8.203  1.2708  0.5623 -0.6444
 2874TIP3   OH230256   0.647   0.851   6.657 -0.5097  0.4861 -0.0072
 2874TIP3    H130257   0.602   0.803   6.587 -0.1255  0.3918 -0.1907
 2874TIP3    H230258   0.592   0.837   6.734 -0.8308  0.4250 -0.2434
 2875TIP3   OH230259   1.168   3.578   8.277  0.0991  0.3953 -0.2657
 2875TIP3    H130260   1.168   3.484   8.294  2.2401  0.1615 -1.3394
 2875TIP3    H230261   1.109   3.614   8.344  0.7577 -1.4904  1.4335
 2876TIP3   OH230262   3.820   4.515   1.630 -0.0837  0.2698  0.4008
 2876TIP3    H130263   3.750   4.486   1.688  1.0936 -1.0550  1.2367
 2876TIP3    H230264   3.891   4.452   1.645  1.1947  1.4094 -0.5832
 2877TIP3   OH230265   1.371   6.180   7.335  0.6756  0.3655 -0.1012
 2877TIP3    H130266   1.319   6.100   7.327 -2.2833  1.5908  3.7835
 2877TIP3    H230267   1.335   6.238   7.268 -0.9311  0.1114  0.4828
 2878TIP3   OH230268   3.473   5.556   8.698  0.0316 -0.4635  0.4227
 2878TIP3    H130269   3.469   5.637   8.646 -0.9647 -0.6848  0.1282
 2878TIP3    H230270   3.547   5.508   8.661 -0.9639 -0.8550 -1.1850
 2879TIP3   OH230271   6.665   6.578   1.361  0.5056 -0.1095  1.2397
 2879TIP3    H130272   6.594   6.595   1.423 -0.4537  0.6551 -0.0331
 2879TIP3    H230273   6.643   6.493   1.323  0.3748  0.0415  0.9793
 2880TIP3   OH230274   2.064   6.771   6.647  0.8300  0.1374  0.1322
 2880TIP3    H130275   2.158   6.774   6.667  0.6293 -0.1796  1.1248
 2880TIP3    H230276   2.023   6.826   6.713  0.0281 -1.9909  1.4863
 2881TIP3   OH230277   5.630   6.027   6.409 -0.0258 -0.0464 -0.0252
 2881TIP3    H130278   5.665   5.998   6.324  0.6287 -0.2619  0.3127
 2881TIP3    H230279   5.565   6.094   6.386 -1.2468 -1.4352 -0.7896
 2882TIP3   OH230280   1.203   0.783   6.908  0.6043 -0.2204  0.1851
 2882TIP3    H130281   1.258   0.818   6.838 -0.4577  0.2793 -0.4333
 2882TIP3    H230282   1.147   0.857   6.934  0.6242 -0.5446  1.2115
 2883TIP3   OH230283   5.488   1.139   0.644  0.2928  0.5829  0.1762
 2883TIP3    H130284   5.425   1.085   0.692  1.1158  0.3903  1.0725
 2883TIP3    H230285   5.467   1.229   0.671  0.2417  0.5404  0.2784
 2884TIP3   OH230286   3.712   1.606   1.435  0.1287  0.6223 -0.0860
 2884TIP3    H130287   3.689   1.679   1.377 -1.0165 -0.0639 -0.5300
 2884TIP3    H230288   3.629   1.576   1.470  0.1402 -2.3244 -2.1801
 2885TIP3   OH230289   5.282   1.085   7.202 -0.1970 -0.5485 -0.2535
 2885TIP3    H130290   5.330   1.138   7.139 -0.8028  0.4939  0.1272
 2885TIP3    H230291   5.226   1.148   7.249  0.5362 -1.2057  1.6010
 2886TIP3   OH230292   3.116   4.954   8.161  0.4343 -0.2104 -0.0597
 2886TIP3    H130293   3.041   4.903   8.132 -0.0548 -0.2392  1.1757
 2886TIP3    H230294   3.082   5.043   8.169  0.9197  0.0548 -0.8801
 2887TIP3   OH230295   4.617   2.648   6.703  0.2144 -0.3306 -0.1476
 2887TIP3    H130296   4.641   2.726   6.653 -0.1673 -0.2624 -0.2244
 2887TIP3    H230297   4.610   2.579   6.637 -2.2661  0.1711 -0.5148
 2888TIP3   OH230298   2.055   4.568   7.515  0.4082  0.3090  0.1552
 2888TIP3    H130299   2.006   4.626   7.457 -0.5703  0.0640  0.7164
 2888TIP3    H230300   1.989   4.508   7.551  0.8140  1.0263  2.2212
 2889TIP3   OH230301   5.062   3.145   1.287 -0.5388 -0.5644  0.0579
 2889TIP3    H130302   5.019   3.210   1.343  3.6701  1.9297  0.8468
 2889TIP3    H230303   5.088   3.075   1.347 -1.1192 -0.7539  0.0901
 2890TIP3   OH230304   1.401   0.680   0.684 -0.7331  0.2060 -0.2700
 2890TIP3    H130305   1.360   0.635   0.610 -0.5969  1.1206 -0.9162
 2890TIP3    H230306   1.343   0.754   0.703 -1.1365 -0.4067  1.0040
 2891TIP3   OH230307   3.773   0.734   0.634  0.0204 -0.2574 -0.2573
 2891TIP3    H130308   3.747   0.644   0.655  0.0848 -0.1917  0.1229
 2891TIP3    H230309   3.706   0.788   0.677  0.0529 -0.1207 -0.3786
 2892TIP3   OH230310   0.335   6.173   7.169  0.3135 -0.0039  0.2105
 2892TIP3    H130311   0.324   6.160   7.263 -0.4776  1.2368  0.2994
 2892TIP3    H230312   0.430   6.185   7.158  0.5165 -1.0134  0.7136
 2893TIP3   OH230313   3.149   3.199   7.653  0.4991 -0.2260 -0.1162
 2893TIP3    H130314   3.238   3.227   7.632 -0.1781  3.3694  1.0780
 2893TIP3    H230315   3.159   3.134   7.722  2.1976  0.2519  0.1217
 2894TIP3   OH230316   4.938   1.522   7.163  0.3406 -0.2552  0.3729
 2894TIP3    H130317   4.947   1.614   7.136  0.3545 -0.4207 -0.1973
 2894TIP3    H230318   4.844   1.504   7.152 -0.0041  0.2000  2.1833
 2895TIP3   OH230319   5.830   5.854   7.937 -0.1470 -0.1510  0.0979
 2895TIP3    H130320   5.813   5.941   7.975 -0.9020 -0.1574 -0.2022
 2895TIP3    H230321   5.855   5.872   7.846 -0.0094 -0.2333  0.1189
 2896TIP3   OH230322   3.002   6.851   8.677  0.2803 -0.1406 -0.1289
 2896TIP3    H130323   2.982   6.794   8.752  1.6503  0.4620  0.7230
 2896TIP3    H230324   2.950   6.930   8.693 -0.8298 -0.7226 -0.7787
 2897TIP3   OH230325   3.856   3.639   7.154  0.5135 -0.0599  0.2442
 2897TIP3    H130326   3.951   3.636   7.138  1.1548  0.2392  3.3646
 2897TIP3    H230327   3.832   3.729   7.134  1.2279  0.2872  0.8698
 2898TIP3   OH230328   5.690   6.679   8.644 -0.3734 -1.3196 -0.1769
 2898TIP3    H130329   5.681   6.620   8.569 -0.9306 -1.9643  0.3817
 2898TIP3    H230330   5.625   6.648   8.707 -1.0053  0.1820 -0.0446
 2899TIP3   OH230331   6.444   1.221   6.972  0.8810 -0.2833 -0.1723
 2899TIP3    H130332   6.530   1.246   7.008  0.6062  0.8284 -0.2844
 2899TIP3    H230333   6.454   1.229   6.878  0.8642 -0.8546 -0.2249
 2900TIP3   OH230334   4.179   0.277   7.677  0.1585 -0.5244  0.1326
 2900TIP3    H130335   4.176   0.191   7.720  0.1569  0.0799  1.3966
 2900TIP3    H230336   4.271   0.304   7.685 -0.4216  1.0607  2.8940
 2901TIP3   OH230337   2.205   5.203   8.491  0.0024  0.2196  0.4787
 2901TIP3    H130338   2.162   5.284   8.463 -0.4796 -0.1275  0.2122
 2901TIP3    H230339   2.292   5.231   8.520  0.0959  0.7424 -0.2787
 2902TIP3   OH230340   2.288   1.672   1.893  0.0095 -0.1969  0.1978
 2902TIP3    H130341   2.354   1.635   1.834  1.2067  1.9290  0.1202
 2902TIP3    H230342   2.309   1.636   1.979 -0.0612 -1.1751 -0.1785
 2903TIP3   OH230343   2.334   5.229   0.940 -0.6116  0.2306  0.1654
 2903TIP3    H130344   2.306   5.301   0.996  1.4263  2.1195 -1.0905
 2903TIP3    H230345   2.415   5.260   0.899 -1.4418 -1.4412 -3.0570
 2904TIP3   OH230346   4.775   3.363   8.507  0.3495  0.1941 -0.1457
 2904TIP3    H130347   4.785   3.453   8.538 -2.5215 -0.2346  2.4507
 2904TIP3    H230348   4.857   3.321   8.533  0.0583  1.1030  2.6352
 2905TIP3   OH230349   2.940   5.644   1.386 -0.1624 -0.2000  0.1445
 2905TIP3    H130350   2.912   5.554   1.371  2.3853 -0.8699 -0.9680
 2905TIP3    H230351   2.946   5.652   1.481  0.7958 -1.6190  0.2199
 2906TIP3   OH230352   5.701   1.488   1.629 -0.1973 -0.1751  0.3125
 2906TIP3    H130353   5.619   1.504   1.675  1.0179  1.0278  2.2018
 2906TIP3    H230354   5.684   1.411   1.575 -2.7061  0.3864  0.2093
 2907TIP3   OH230355   1.659   6.495   8.423 -0.4065 -0.4195 -0.2646
 2907TIP3    H130356   1.675   6.401   8.429 -1.1752 -0.5041  0.9594
 2907TIP3    H230357   1.617   6.517   8.507  0.0171  1.0629 -0.4112
 2908TIP3   OH230358   2.149   2.780   6.405  0.3412  0.0664 -0.3953
 2908TIP3    H130359   2.215   2.819   6.347  0.8539 -1.1821 -0.6838
 2908TIP3    H230360   2.190   2.781   6.492  0.2447  0.4120 -0.3533
 2909TIP3   OH230361   1.325   5.284   1.334  0.3848  0.1044  0.4400
 2909TIP3    H130362   1.383   5.355   1.363  1.7248 -0.7696  0.0249
 2909TIP3    H230363   1.356   5.207   1.382  0.0573 -0.5417 -0.3586
 2910TIP3   OH230364   0.449   1.034   7.374 -0.0975  0.3385 -0.0359
 2910TIP3    H130365   0.388   1.089   7.423 -0.9038 -0.4074 -0.1652
 2910TIP3    H230366   0.509   1.095   7.332 -0.3494  1.0597  0.6272
 2911TIP3   OH230367   4.223   0.257   0.217 -0.6087  0.2320  0.1275
 2911TIP3    H130368   4.281   0.323   0.179 -1.6769  0.6777 -0.7912
 2911TIP3    H230369   4.197   0.202   0.143 -2.2937  0.7823  0.2614
 2912TIP3   OH230370   5.319   5.892   0.022 -0.4939 -0.5913 -0.3788
 2912TIP3    H130371   5.238   5.916  -0.024  0.2074 -0.3874 -1.5354
 2912TIP3    H230372   5.388   5.941  -0.023  0.2934 -0.8516  0.5217
 2913TIP3   OH230373   5.263   2.006   8.138  0.0341  0.2401  0.5984
 2913TIP3    H130374   5.329   2.035   8.202 -0.3063  1.4818  0.4222
 2913TIP3    H230375   5.275   2.064   8.063  0.4865 -1.2586 -0.5407
 2914TIP3   OH230376   0.441   1.036   7.094 -0.0614 -0.4593  0.4289
 2914TIP3    H130377   0.362   1.083   7.119  1.2898  0.3262  3.7348
 2914TIP3    H230378   0.498   1.102   7.056 -0.0839 -0.5209  0.2865
 2915TIP3   OH230379   4.734   1.005   1.943  0.1641  0.5407 -0.0961
 2915TIP3    H130380   4.761   0.913   1.944 -3.2505 -0.6448  1.3151
 2915TIP3    H230381   4.660   1.007   1.881 -0.5103  2.0691  0.7030
 2916TIP3   OH230382   4.327   5.294   8.045 -0.4220 -0.4485 -0.5019
 2916TIP3    H130383   4.323   5.336   8.131  0.2186  0.1080 -0.7341
 2916TIP3    H230384   4.252   5.235   8.044  1.5810 -3.3592  1.9244
 2917TIP3   OH230385   4.994   2.643   0.648 -0.2258 -0.9694 -0.1142
 2917TIP3    H130386   5.089   2.633   0.659 -0.2404 -1.9074 -0.7338
 2917TIP3    H230387   4.962   2.664   0.736  0.6198 -0.0411 -0.0058
 2918TIP3   OH230388   1.275   2.178   7.633 -0.1460  0.3408  0.6379
 2918TIP3    H130389   1.311   2.099   7.594  0.2194  1.7587 -2.1849
 2918TIP3    H230390   1.347   2.215   7.684  0.5356  0.1487 -0.1577
 2919TIP3   OH230391   2.400   3.809   7.962 -0.1105  0.5819 -0.3117
 2919TIP3    H130392   2.416   3.731   7.909  2.2604 -0.6098  1.9674
 2919TIP3    H230393   2.429   3.881   7.907  2.1442 -0.5959 -0.7696
 2920TIP3   OH230394   4.836   3.437   8.111  0.2278 -0.0608  0.3601
 2920TIP3    H130395   4.899   3.425   8.040 -0.1056  0.4185 -0.0196
 2920TIP3    H230396   4.854   3.364   8.171  0.1286 -0.8219 -0.4994
 2921TIP3   OH230397   2.663   3.339   1.576  0.8958 -0.4232 -0.7517
 2921TIP3    H130398   2.741   3.371   1.530  1.1421 -0.1902 -0.1838
 2921TIP3    H230399   2.678   3.364   1.668 -0.5157  0.9356 -0.8507
 2922TIP3   OH230400   3.504   3.559   0.531  0.7127  0.0383 -0.1248
 2922TIP3    H130401   3.500   3.642   0.483  1.6173  0.0388 -0.2240
 2922TIP3    H230402   3.518   3.493   0.463 -2.9209 -0.6517 -0.4306
 2923TIP3   OH230403   1.423   6.232   2.044 -0.2989  0.3456  0.4094
 2923TIP3    H130404   1.447   6.308   2.098 -1.0490  0.5803  0.4161
 2923TIP3    H230405   1.381   6.171   2.106 -0.0529  0.0872  0.3264
 2924TIP3   OH230406   0.852   1.020   0.578  0.0098  0.0365  0.1511
 2924TIP3    H130407   0.819   1.103   0.612 -1.3900 -0.1339 -0.7208
 2924TIP3    H230408   0.855   1.031   0.483  0.4852 -0.6851  0.0639
 2925TIP3   OH230409   6.675   0.727   0.224  0.2975 -0.1926 -0.2309
 2925TIP3    H130410   6.697   0.753   0.314 -0.7234  0.1374 -0.0686
 2925TIP3    H230411   6.628   0.644   0.234  1.5774 -0.9939 -0.5906
 2926TIP3   OH230412   2.224   0.058   7.243  0.8286 -0.4022  0.3042
 2926TIP3    H130413   2.268   0.108   7.312  1.4905 -2.6518  1.6490
 2926TIP3    H230414   2.181  -0.014   7.290 -0.8772 -0.5793 -1.4170
 2927TIP3   OH230415   5.727   2.124   8.434 -0.7668  0.1852 -0.8827
 2927TIP3    H130416   5.766   2.211   8.436 -0.0976 -0.1052  1.0311
 2927TIP3    H230417   5.653   2.129   8.496  0.2990 -1.0002  0.5641
 2928TIP3   OH230418   2.814   0.391   8.289  0.3865 -0.3070  0.1859
 2928TIP3    H130419   2.792   0.472   8.243  1.6643 -0.1602 -0.1871
 2928TIP3    H230420   2.821   0.417   8.381  0.8652  0.0315  0.0589
 2929TIP3   OH230421   4.210   5.292   0.014  0.6214  0.3427  0.0161
 2929TIP3    H130422   4.174   5.240  -0.058 -0.7406  1.0572  0.1529
 2929TIP3    H230423   4.172   5.254   0.093  0.7589  0.6427  0.2303
 2930TIP3   OH230424   3.496   3.818   0.392 -0.2884  0.4528 -0.5397
 2930TIP3    H130425   3.489   3.885   0.325  1.9899  2.0807  0.6991
 2930TIP3    H230426   3.478   3.864   0.474  0.4088 -0.6368  0.2583
 2931TIP3   OH230427   3.746   6.563   1.511  0.0814  0.2813 -0.5778
 2931TIP3    H130428   3.802   6.485   1.506  0.2808  0.3624  0.2695
 2931TIP3    H230429   3.749   6.600   1.423  2.3297  0.9339 -0.2943
 2932TIP3   OH230430   5.698   4.723   2.093  0.2107 -0.2649  0.2715
 2932TIP3    H130431   5.729   4.681   2.173 -0.8010 -1.3263  0.1396
 2932TIP3    H230432   5.653   4.802   2.122  1.9032  0.6495  0.5464
 2933TIP3   OH230433   1.496   2.305   7.735  0.2460 -0.4920  0.2865
 2933TIP3    H130434   1.505   2.378   7.673  0.3735 -0.3020  0.5256
 2933TIP3    H230435   1.459   2.346   7.814  0.4544 -0.6597  0.4719
 2934TIP3   OH230436   0.121   1.457   7.370  0.1615 -0.2760 -0.2153
 2934TIP3    H130437   0.216   1.444   7.367  0.1727 -0.0888 -1.1214
 2934TIP3    H230438   0.084   1.369   7.365  0.2882 -0.3262 -0.2768
 2935TIP3   OH230439   3.724   6.263   6.953  0.3195  0.0131 -0.2365
 2935TIP3    H130440   3.718   6.356   6.930 -0.7483  0.0893  0.2828
 2935TIP3    H230441   3.787   6.260   7.025 -0.9793  0.6087  0.9863
 2936TIP3   OH230442   5.378   2.755   0.464 -0.2265  0.1816  0.1767
 2936TIP3    H130443   5.378   2.842   0.503  0.2163  0.1658  0.2177
 2936TIP3    H230444   5.458   2.714   0.497 -0.8121 -0.5080  0.7529
 2937TIP3   OH230445   5.204   6.280   0.362 -0.1958 -0.1796  0.0093
 2937TIP3    H130446   5.129   6.337   0.351  0.1262 -0.0315 -1.6122
 2937TIP3    H230447   5.172   6.193   0.337 -0.3381 -0.4992  1.2325
 2938TIP3   OH230448   0.194   5.391   6.983 -0.4371  0.0167 -0.1886
 2938TIP3    H130449   0.284   5.423   6.978 -0.4519  0.1060  0.0738
 2938TIP3    H230450   0.145   5.445   6.921 -0.1639 -0.5568 -0.9232
 2939TIP3   OH230451   0.269   3.028   2.364  0.2839  0.0320 -0.0739
 2939TIP3    H130452   0.248   2.991   2.449  0.9215  0.6870  0.3758
 2939TIP3    H230453   0.184   3.046   2.324 -0.0167 -0.2683  0.4228
 2940TIP3   OH230454   5.049   5.132   7.316  0.0673  0.2715  0.0854
 2940TIP3    H130455   5.071   5.213   7.361  0.3312  1.2443 -1.6721
 2940TIP3    H230456   5.000   5.081   7.379 -0.6169  2.0564  1.0569
 2941TIP3   OH230457   6.841   5.459   1.640  0.2262  0.0281  0.5455
 2941TIP3    H130458   6.821   5.551   1.660 -0.7604 -0.0697  0.0723
 2941TIP3    H230459   6.763   5.411   1.667  1.5629 -0.9985  2.8862
 2942TIP3   OH230460   5.462   4.238   8.441  0.4105  0.6575 -0.0909
 2942TIP3    H130461   5.531   4.213   8.379  1.1931  1.8196  0.2784
 2942TIP3    H230462   5.386   4.257   8.386  0.2045 -1.1067 -0.4684
 2943TIP3   OH230463   4.224   5.246   1.127 -0.1892  0.0492  0.1029
 2943TIP3    H130464   4.265   5.223   1.210 -0.2082  1.2211  0.4584
 2943TIP3    H230465   4.157   5.311   1.150  0.4853  1.1536 -0.9121
 2944TIP3   OH230466   6.108   4.606   7.968  0.5456  0.0164 -0.1019
 2944TIP3    H130467   6.161   4.664   7.913  1.9390  0.0946  1.2728
 2944TIP3    H230468   6.149   4.610   8.054  1.4392 -3.8951 -0.1607
 2945TIP3   OH230469   4.131   3.091   8.288 -0.6326 -0.0758 -0.3862
 2945TIP3    H130470   4.051   3.143   8.291 -0.0215  1.3445 -3.8556
 2945TIP3    H230471   4.116   3.028   8.217  1.2289  0.0998 -0.9872
 2946TIP3   OH230472   0.685   1.204   7.022 -0.1957 -0.1262  0.4707
 2946TIP3    H130473   0.770   1.167   7.047 -0.7227 -1.5473  0.2712
 2946TIP3    H230474   0.704   1.256   6.944  0.5472 -0.1307  0.6366
 2947TIP3   OH230475   6.629   3.863   8.041 -0.2481 -0.1130 -0.1488
 2947TIP3    H130476   6.680   3.784   8.022 -0.8793 -0.7622  0.7905
 2947TIP3    H230477   6.538   3.834   8.039 -0.6988  1.1507 -2.4263
 2948TIP3   OH230478   5.588   6.086   1.388 -0.1779 -0.0520  0.0191
 2948TIP3    H130479   5.538   6.058   1.465 -2.5248  0.0038 -1.3862
 2948TIP3    H230480   5.525   6.136   1.336  2.0145  2.0183 -0.8136
 2949TIP3   OH230481   2.569   4.629   1.779 -0.6205 -0.3390  0.6247
 2949TIP3    H130482   2.504   4.699   1.786  0.5906  0.9798 -0.4999
 2949TIP3    H230483   2.613   4.646   1.696  0.6520 -1.6285  0.9958
 2950TIP3   OH230484   5.039   3.422   0.500 -0.2115  0.1907  0.5700
 2950TIP3    H130485   4.970   3.471   0.456 -0.8377 -1.4281 -0.3325
 2950TIP3    H230486   5.117   3.438   0.447 -0.5242 -0.1964 -0.0097
 2951TIP3   OH230487   5.039   4.627   7.370 -1.2542 -0.2165 -0.1952
 2951TIP3    H130488   4.990   4.652   7.291 -0.0990  1.6369 -0.3754
 2951TIP3    H230489   5.104   4.565   7.339 -2.5414 -1.6458 -0.1826
 2952TIP3   OH230490   2.250   3.478   8.791 -0.3245  0.0335  0.3743
 2952TIP3    H130491   2.258   3.412   8.861 -0.4668 -0.7759 -0.3584
 2952TIP3    H230492   2.295   3.555   8.826 -0.8028 -0.1996  1.5560
 2953TIP3   OH230493   2.379   1.092   8.351 -0.4868 -0.1074  0.3250
 2953TIP3    H130494   2.383   1.005   8.391  0.6434 -1.3258 -2.1662
 2953TIP3    H230495   2.287   1.117   8.357 -1.6169 -3.0758 -1.7950
 2954TIP3   OH230496   3.869   5.214   8.730  0.1904  0.3818  0.0096
 2954TIP3    H130497   3.945   5.166   8.696  0.1484 -0.6759  1.3598
 2954TIP3    H230498   3.908   5.286   8.780  0.2947  0.0109  0.4609
 2955TIP3   OH230499   5.806   6.107   8.287  0.2626 -0.3692 -0.2464
 2955TIP3    H130500   5.865   6.098   8.361 -0.1806 -0.8613  0.0532
 2955TIP3    H230501   5.812   6.199   8.262  0.2123 -0.1363  0.5770
 2956TIP3   OH230502   0.366   3.023   7.063  0.1104 -0.3883 -0.0267
 2956TIP3    H130503   0.366   3.107   7.109  1.2389 -1.0137  1.1617
 2956TIP3    H230504   0.289   2.977   7.097 -0.9389  0.4249 -1.2279
 2957TIP3   OH230505   0.300   5.459   0.981 -0.0966  0.2672 -0.4334
 2957TIP3    H130506   0.243   5.536   0.981  0.9419  1.0855  0.9139
 2957TIP3    H230507   0.388   5.495   0.980  0.4068 -0.9319 -0.6224
 2958TIP3   OH230508   2.059   0.093   7.756  0.8774 -0.5607 -0.2576
 2958TIP3    H130509   2.031   0.125   7.841  1.2846 -0.7708 -0.0408
 2958TIP3    H230510   2.150   0.123   7.747 -0.1399  2.3859 -2.0723
 2959TIP3   OH230511   3.213   4.499   1.155 -0.4060  0.7048 -0.4280
 2959TIP3    H130512   3.156   4.527   1.226  0.4818  0.4968  0.3984
 2959TIP3    H230513   3.190   4.408   1.140  2.5461 -0.8310  2.9399
 2960TIP3   OH230514   3.732   6.476   1.772 -0.4676  0.1324 -0.3759
 2960TIP3    H130515   3.761   6.403   1.718  1.3260 -1.3515  2.3137
 2960TIP3    H230516   3.677   6.435   1.840 -3.0018  1.9477 -1.1743
 2961TIP3   OH230517   4.801   1.568   0.013 -0.0815 -0.0208  0.3737
 2961TIP3    H130518   4.723   1.562  -0.042  0.6098 -0.5982 -0.5852
 2961TIP3    H230519   4.848   1.645  -0.019  0.7579 -0.8537 -0.4679
 2962TIP3   OH230520   3.134   1.180   0.287  0.0690  0.0614  0.2514
 2962TIP3    H130521   3.094   1.098   0.314 -0.6484  0.3552  0.1102
 2962TIP3    H230522   3.128   1.237   0.363  4.0168 -1.1519  1.7271
 2963TIP3   OH230523   3.008   5.861   8.254  0.3769 -0.5411  0.1989
 2963TIP3    H130524   3.002   5.853   8.159  0.1575 -1.5612  0.2969
 2963TIP3    H230525   3.083   5.807   8.278 -0.4324 -1.4367  0.7490
 2964TIP3   OH230526   5.323   3.228   1.181 -0.5664  0.3968 -0.4968
 2964TIP3    H130527   5.381   3.225   1.257 -0.7932  0.5572 -0.3194
 2964TIP3    H230528   5.237   3.202   1.215 -0.7906  1.0196 -0.5851
 2965TIP3   OH230529   4.848   1.380   2.141 -0.0030  0.4329  0.2389
 2965TIP3    H130530   4.889   1.438   2.205  0.2383  0.4661  0.0587
 2965TIP3    H230531   4.778   1.336   2.189  1.1210 -0.6588  0.9364
 2966TIP3   OH230532   4.091   4.302   7.294 -0.0038  0.6122  0.2620
 2966TIP3    H130533   4.163   4.269   7.241  0.1763  0.8581  0.3554
 2966TIP3    H230534   4.062   4.381   7.248  0.0989  0.7798  0.4873
 2967TIP3   OH230535   2.308   2.947   8.520  0.6209  0.0031 -0.6673
 2967TIP3    H130536   2.313   2.853   8.503  0.9413  0.0773 -0.9858
 2967TIP3    H230537   2.254   2.954   8.599  0.3374 -0.4291 -0.8180
 2968TIP3   OH230538   2.581   0.024   0.629 -0.0229  0.1120  0.2940
 2968TIP3    H130539   2.635   0.037   0.707  0.5610  0.4282 -0.1567
 2968TIP3    H230540   2.574  -0.071   0.620  2.0990  0.0038 -0.7455
 2969TIP3   OH230541   0.428   4.317   8.117 -0.2302 -0.3532  0.1263
 2969TIP3    H130542   0.456   4.267   8.040 -0.5255 -0.3394  0.0094
 2969TIP3    H230543   0.472   4.401   8.109  0.0684 -0.5012  0.1914
 2970TIP3   OH230544   6.534   1.139   0.175  0.4337 -0.5149  0.6959
 2970TIP3    H130545   6.485   1.182   0.105 -0.0962  1.5227  2.2083
 2970TIP3    H230546   6.576   1.064   0.133  1.4414  1.4848 -2.1479
 2971TIP3   OH230547   5.205   4.816   7.510 -0.0753  0.4405 -0.3010
 2971TIP3    H130548   5.143   4.883   7.539 -0.6598 -0.4808  0.6200
 2971TIP3    H230549   5.152   4.753   7.462  0.6596  1.2104 -2.2174
 2972TIP3   OH230550   5.030   1.513   0.611  0.2557 -0.8931  0.1134
 2972TIP3    H130551   4.966   1.546   0.549 -2.0597  0.2364  2.8653
 2972TIP3    H230552   5.101   1.578   0.610 -0.9880  0.5103  0.4875
 2973TIP3   OH230553   4.030   2.637   6.770  0.2588 -0.2178 -0.0774
 2973TIP3    H130554   4.058   2.623   6.679 -1.1212 -0.4720 -0.4874
 2973TIP3    H230555   4.035   2.550   6.810 -0.4418 -0.3708 -0.3076
 2974TIP3   OH230556   5.184   3.998   7.374  0.0280 -0.3441 -0.1127
 2974TIP3    H130557   5.141   4.083   7.384  0.0723 -0.2071 -1.0303
 2974TIP3    H230558   5.253   4.013   7.309  0.1112 -1.0512 -0.1969
 2975TIP3   OH230559   5.045   4.201   7.932  0.0909 -0.2379 -0.0314
 2975TIP3    H130560   5.053   4.285   7.977 -1.4712 -0.1773  0.1950
 2975TIP3    H230561   5.125   4.154   7.953  0.1285  0.4427  1.4565
 2976TIP3   OH230562   0.005   5.852   7.846 -0.1735 -0.2586  0.0094
 2976TIP3    H130563   0.086   5.899   7.826  0.3720 -0.7283  1.0416
 2976TIP3    H230564  -0.054   5.875   7.775  0.9695 -0.1470 -0.9380
 2977TIP3   OH230565   6.704   4.961   8.153  0.3584 -0.0247  0.2807
 2977TIP3    H130566   6.632   4.930   8.099  0.8950 -2.0789  0.6491
 2977TIP3    H230567   6.663   5.018   8.218 -0.6833  0.1107 -0.4750
 2978TIP3   OH230568   0.879   0.731   6.724 -0.1339 -0.2795  0.5428
 2978TIP3    H130569   0.898   0.693   6.638 -0.1132 -1.3761  1.0169
 2978TIP3    H230570   0.806   0.790   6.709  1.0645  0.9982 -0.5776
 2979TIP3   OH230571   1.160   0.226   2.598  0.0850  0.0340 -0.1230
 2979TIP3    H130572   1.132   0.138   2.621  0.9378 -0.0350  0.6615
 2979TIP3    H230573   1.170   0.224   2.502 -1.0828 -0.3622 -0.2469
 2980TIP3   OH230574   2.607   1.531   2.321  0.5063 -0.7242 -0.9914
 2980TIP3    H130575   2.536   1.585   2.354  2.6651  0.5558  1.8839
 2980TIP3    H230576   2.580   1.441   2.341 -0.5342 -0.3119 -0.5010
 2981TIP3   OH230577   3.195   5.881   7.573 -0.0271  0.0674 -0.3255
 2981TIP3    H130578   3.212   5.930   7.493  1.2529 -0.8030 -0.6222
 2981TIP3    H230579   3.140   5.807   7.544  1.6949 -1.1063 -0.7298
 2982TIP3   OH230580   4.401   3.629   8.457 -0.3550  0.1688 -0.4052
 2982TIP3    H130581   4.308   3.649   8.466 -0.4313 -0.7832  1.4582
 2982TIP3    H230582   4.407   3.534   8.472  0.9354  0.2605 -0.1935
 2983TIP3   OH230583   2.835   0.449   7.771 -0.5360  0.3296 -0.2899
 2983TIP3    H130584   2.816   0.355   7.774 -0.7165  0.3718  1.8292
 2983TIP3    H230585   2.930   0.455   7.784 -0.3652  0.4398 -1.4467
 2984TIP3   OH230586   0.340   2.455   7.774 -0.6238  0.7028 -0.4266
 2984TIP3    H130587   0.284   2.388   7.733  0.5361 -0.0548 -0.8295
 2984TIP3    H230588   0.281   2.527   7.794 -1.3177  1.0541 -3.3013
 2985TIP3   OH230589   0.059   6.078   0.555  0.1974  0.6144 -0.2752
 2985TIP3    H130590  -0.016   6.021   0.537  0.2002  0.9425 -1.4609
 2985TIP3    H230591   0.131   6.037   0.507  0.6999  0.4970  0.5658
 2986TIP3   OH230592   3.570   2.482   8.351  0.3271  0.2214 -0.5715
 2986TIP3    H130593   3.594   2.455   8.262  1.8368  0.0178 -0.1294
 2986TIP3    H230594   3.515   2.411   8.383 -0.2055  0.2792 -1.3174
 2987TIP3   OH230595   4.895   5.267   0.809 -0.1613  0.5636  0.0070
 2987TIP3    H130596   4.966   5.204   0.802  0.1668  0.9576 -0.3121
 2987TIP3    H230597   4.929   5.346   0.765  0.1504  1.5729  1.9198
 2988TIP3   OH230598   5.873   5.582   8.788  0.0579  0.0288 -0.4179
 2988TIP3    H130599   5.837   5.525   8.856  1.3848  0.3690  0.6334
 2988TIP3    H230600   5.842   5.669   8.811 -0.1034  0.0460 -0.6963
 2989TIP3   OH230601   4.711   1.309   8.796 -0.3008  0.7862  0.0417
 2989TIP3    H130602   4.763   1.383   8.826  1.4709 -0.2112 -0.3954
 2989TIP3    H230603   4.671   1.273   8.875  1.5298  0.2435  0.7751
 2990TIP3   OH230604   3.019   3.191   7.977 -0.5385  0.2692 -0.1346
 2990TIP3    H130605   3.107   3.192   8.016 -0.5608  0.1271 -0.0784
 2990TIP3    H230606   2.967   3.138   8.037 -0.9126  1.1738  0.3564
 2991TIP3   OH230607   1.508   3.822   7.125 -0.2109  0.0119  0.0107
 2991TIP3    H130608   1.571   3.826   7.053 -2.2427  0.2798 -1.8170
 2991TIP3    H230609   1.533   3.896   7.182  2.9632 -1.6667  1.0439
 2992TIP3   OH230610   6.317   0.869   7.086 -0.6633 -0.1976 -0.1723
 2992TIP3    H130611   6.352   0.800   7.029  0.0671  0.1429 -0.1515
 2992TIP3    H230612   6.226   0.845   7.100 -0.2803 -1.4588  0.2668
 2993TIP3   OH230613   5.051   2.293   7.594  0.2329  0.1870  0.2933
 2993TIP3    H130614   5.000   2.356   7.543  0.4581 -0.4723 -0.7848
 2993TIP3    H230615   5.013   2.296   7.682 -1.3224  0.0962 -0.3512
 2994TIP3   OH230616   1.394   6.408   7.732  0.1509  0.4959 -0.3639
 2994TIP3    H130617   1.312   6.453   7.751 -0.7019  0.3893 -3.3917
 2994TIP3    H230618   1.457   6.478   7.715  0.4137  0.5574  0.7756
 2995TIP3   OH230619   6.466   6.750   0.648 -0.0925 -0.6274 -0.1404
 2995TIP3    H130620   6.495   6.681   0.587  1.0770 -1.1057  0.9250
 2995TIP3    H230621   6.535   6.816   0.644  0.2766 -0.9264  1.0767
 2996TIP3   OH230622   5.190   3.420   8.029 -0.5110 -0.0309  0.0471
 2996TIP3    H130623   5.127   3.453   7.965 -2.0194  1.1482  1.9913
 2996TIP3    H230624   5.272   3.465   8.007 -0.9798  0.3198 -1.0561
 2997TIP3   OH230625   1.390   0.597   2.388 -0.2018 -0.2151  0.0283
 2997TIP3    H130626   1.397   0.513   2.434 -0.4993  0.0445  0.5528
 2997TIP3    H230627   1.381   0.662   2.457  2.2889  0.5302 -0.2564
 2998TIP3   OH230628   2.718   4.821   6.859  0.2372 -0.5860  0.1629
 2998TIP3    H130629   2.776   4.780   6.795 -1.0228 -1.3511 -0.5157
 2998TIP3    H230630   2.708   4.756   6.928  1.1845  0.0418  0.9194
 2999TIP3   OH230631   2.479   5.847   1.260 -0.0111  0.2929  0.2272
 2999TIP3    H130632   2.474   5.850   1.355 -0.0079 -0.2642  0.2513
 2999TIP3    H230633   2.390   5.866   1.230 -0.4623 -1.3455  0.4077
 3000TIP3   OH230634   2.739   6.788   8.356 -0.3328 -0.2289 -0.0257
 3000TIP3    H130635   2.682   6.767   8.282 -2.2527  1.0082  1.0202
 3000TIP3    H230636   2.795   6.711   8.366 -0.3825 -0.6523 -2.3895
 3001TIP3   OH230637   6.343   2.828   7.528  0.6012  0.1188  0.0899
 3001TIP3    H130638   6.252   2.808   7.552  0.9174 -0.0664  1.2209
 3001TIP3    H230639   6.373   2.750   7.481 -0.3442  0.8918 -1.9003
 3002TIP3   OH230640   4.990   1.039   0.564 -0.0060  0.9617 -0.0785
 3002TIP3    H130641   4.950   1.124   0.542 -0.3546  0.2528 -2.5144
 3002TIP3    H230642   4.923   0.975   0.542  1.5453 -0.1224 -1.9179
 3003TIP3   OH230643   4.043   4.186   7.535  0.2185 -0.0735  0.5400
 3003TIP3    H130644   4.061   4.205   7.443 -1.2313 -1.1376  0.0064
 3003TIP3    H230645   4.004   4.267   7.568 -1.6410 -0.4839 -0.4974
 3004TIP3   OH230646   3.968   2.106   0.719 -0.0073  0.1871  0.0011
 3004TIP3    H130647   3.926   2.044   0.778  0.0469  0.3107  0.1680
 3004TIP3    H230648   4.047   2.061   0.689 -0.1760  0.0140 -0.1977
 3005TIP3   OH230649   6.299   6.700   7.312 -0.3856  0.1865  0.6403
 3005TIP3    H130650   6.352   6.640   7.365  1.7124  1.2427 -0.1118
 3005TIP3    H230651   6.336   6.691   7.224 -1.8701  0.5758 -0.0400
 3006TIP3   OH230652   5.314   4.637   1.911  0.3822 -0.7062 -0.3411
 3006TIP3    H130653   5.315   4.687   1.993  1.9421  2.5510 -2.1622
 3006TIP3    H230654   5.222   4.624   1.892 -0.0518  0.5799  0.7435
 3007TIP3   OH230655   4.588   3.013   1.402  0.2447 -0.0665 -0.6053
 3007TIP3    H130656   4.528   3.058   1.461  1.5709 -1.4349  1.9861
 3007TIP3    H230657   4.613   3.079   1.338 -1.3495  1.4921  0.2800
 3008TIP3   OH230658   2.539   5.214   7.619 -0.0403  0.3712 -0.4115
 3008TIP3    H130659   2.484   5.192   7.544 -1.1082 -0.8734  0.6693
 3008TIP3    H230660   2.629   5.204   7.587 -0.4800 -1.2632 -1.2462
 3009TIP3   OH230661   0.230   6.811   6.759  0.5979  0.6444 -0.5119
 3009TIP3    H130662   0.318   6.778   6.773  1.7652  2.7262 -2.3908
 3009TIP3    H230663   0.222   6.884   6.821 -0.5833 -0.6722  0.9874
 3010TIP3   OH230664   6.704   5.356   0.267 -0.3926 -0.3084 -0.2691
 3010TIP3    H130665   6.715   5.360   0.362 -0.1656  1.3388 -0.3462
 3010TIP3    H230666   6.614   5.384   0.252 -0.5552 -0.9475 -0.5323
 3011TIP3   OH230667   5.612   1.487   0.546 -0.1775  0.2957 -0.4406
 3011TIP3    H130668   5.646   1.427   0.613  1.2930  0.8545 -0.6565
 3011TIP3    H230669   5.616   1.573   0.587 -0.9141  0.4324 -0.6482
 3012TIP3   OH230670   2.732   2.800   6.814  0.0988  0.1007 -0.0049
 3012TIP3    H130671   2.688   2.774   6.733 -1.4279 -0.1352  0.8634
 3012TIP3    H230672   2.666   2.849   6.863  1.2414  0.9115  0.7787
 3013TIP3   OH230673   0.168   6.475   7.147 -0.2996  0.3513 -0.4191
 3013TIP3    H130674   0.149   6.387   7.115  2.3874 -0.2220 -0.6989
 3013TIP3    H230675   0.256   6.494   7.115 -0.2173  2.5639  0.8669
 3014TIP3   OH230676   4.919   5.647   8.604  0.2161  0.4330 -0.5279
 3014TIP3    H130677   4.941   5.729   8.560  0.0566  0.6129 -0.2800
 3014TIP3    H230678   4.925   5.668   8.698  2.3252 -0.4060 -0.4155
 3015TIP3   OH230679   4.918   6.362   0.356  0.2441  0.3491  0.5671
 3015TIP3    H130680   4.866   6.350   0.436  1.2174  0.8620  1.2953
 3015TIP3    H230681   4.855   6.348   0.285 -0.2794 -1.8327  1.3713
 3016TIP3   OH230682   4.062   0.329   7.943  0.3983 -0.4320  0.2038
 3016TIP3    H130683   4.001   0.385   7.991  0.1148 -0.1694 -0.4624
 3016TIP3    H230684   4.012   0.297   7.868  0.0824 -2.7129  1.2792
 3017TIP3   OH230685   0.730   2.317   7.124  0.1661 -0.7786 -0.1832
 3017TIP3    H130686   0.730   2.328   7.219 -0.0600 -1.0851 -0.1447
 3017TIP3    H230687   0.818   2.287   7.102  1.0196  1.6601 -0.3677
 3018TIP3   OH230688   6.236   2.258   1.581  0.0217  0.3657  0.0802
 3018TIP3    H130689   6.281   2.176   1.598  0.8979  0.5931 -1.0119
 3018TIP3    H230690   6.161   2.257   1.640  1.0960 -0.3151  1.4886
 3019TIP3   OH230691   1.549   5.246   8.554  0.2358 -0.1642  0.6107
 3019TIP3    H130692   1.619   5.231   8.618  0.5052 -0.4656  0.2486
 3019TIP3    H230693   1.468   5.238   8.605  0.4126 -1.4218  0.7244
 3020TIP3   OH230694   2.740   5.810   7.236  0.3529  0.0156  0.2392
 3020TIP3    H130695   2.800   5.757   7.183  0.8743  1.1401 -0.3403
 3020TIP3    H230696   2.654   5.797   7.195  0.6462  0.3697 -0.5141
 3021TIP3   OH230697   2.922   4.305   0.889 -0.5144  0.4935 -0.2657
 3021TIP3    H130698   2.904   4.233   0.829 -1.2352  1.1761 -0.8930
 3021TIP3    H230699   2.836   4.343   0.907 -0.2456  0.6175  0.8014
 3022TIP3   OH230700   6.606   1.334   8.721 -0.1676 -0.0830 -0.0095
 3022TIP3    H130701   6.597   1.342   8.626  0.2209 -3.0491 -0.3938
 3022TIP3    H230702   6.648   1.416   8.748  0.5629  0.4622 -2.5055
 3023TIP3   OH230703   2.225   3.007   1.529 -0.6089  0.0039  0.2761
 3023TIP3    H130704   2.307   3.046   1.499 -0.2667 -0.6683  0.3321
 3023TIP3    H230705   2.250   2.956   1.607 -0.8512 -1.2420 -0.4412
 3024TIP3   OH230706   2.610   6.708   8.139 -0.1895 -0.0039  0.5791
 3024TIP3    H130707   2.616   6.612   8.139 -0.2588 -0.0341 -0.8384
 3024TIP3    H230708   2.554   6.728   8.064  1.6088  1.2288 -0.5026
 3025TIP3   OH230709   1.413   5.842   0.771 -0.0448  0.2916  0.1139
 3025TIP3    H130710   1.450   5.756   0.754  2.5382  1.4315 -0.4169
 3025TIP3    H230711   1.368   5.865   0.690  1.5754  0.5347 -0.7416
 3026TIP3   OH230712   4.851   5.911   7.101 -0.1907 -0.2999 -0.2226
 3026TIP3    H130713   4.826   5.858   7.026 -1.7779  1.3040 -0.9104
 3026TIP3    H230714   4.775   5.906   7.160 -1.0384  2.2950 -0.9778
 3027TIP3   OH230715   5.450   3.799   7.902 -0.5541 -0.4872 -0.7367
 3027TIP3    H130716   5.412   3.857   7.836 -2.2754 -3.3271 -2.4276
 3027TIP3    H230717   5.476   3.721   7.854  1.1881 -1.4059  1.5089
 3028TIP3   OH230718   5.082   1.048   1.090  0.0639  0.0768 -0.0275
 3028TIP3    H130719   5.018   0.985   1.056 -0.0212  0.2629 -0.2121
 3028TIP3    H230720   5.105   1.102   1.015 -0.9488  1.2020  0.4594
 3029TIP3   OH230721   6.470   2.820   0.136  0.2407 -0.3082  0.4611
 3029TIP3    H130722   6.496   2.841   0.046  1.2825  1.0914  1.0361
 3029TIP3    H230723   6.396   2.878   0.154  0.5425 -0.0050  0.7504
 3030TIP3   OH230724   4.944   1.142   0.020 -0.4102 -0.7927  0.2527
 3030TIP3    H130725   5.014   1.202   0.044 -0.1807 -0.1846 -1.7143
 3030TIP3    H230726   4.865   1.196   0.020 -0.3705 -0.7233 -0.5006
 3031TIP3   OH230727   0.438   0.866   1.913  0.0033  0.1662 -0.2616
 3031TIP3    H130728   0.493   0.851   1.990  0.8090  1.8467 -0.4481
 3031TIP3    H230729   0.358   0.904   1.949 -0.3210 -0.6269 -0.1309
 3032TIP3   OH230730   5.574   1.530   7.856  0.2609 -0.2717 -0.1701
 3032TIP3    H130731   5.646   1.589   7.834 -0.0942  0.3462  0.2816
 3032TIP3    H230732   5.570   1.532   7.951 -1.2664  0.8453 -0.2247
 3033TIP3   OH230733   6.664   0.661   7.403 -0.0007 -0.5766  0.4661
 3033TIP3    H130734   6.759   0.664   7.415  0.3388  1.6527 -1.8031
 3033TIP3    H230735   6.629   0.709   7.478  0.7593 -0.5384  0.8056
 3034TIP3   OH230736   1.794   3.803   8.055 -0.1559  0.2065  0.4805
 3034TIP3    H130737   1.813   3.724   8.003  1.2192  0.5042  0.4997
 3034TIP3    H230738   1.873   3.857   8.046 -1.3335  1.8961 -0.0849
 3035TIP3   OH230739   6.084   5.651   0.284 -0.4292 -0.5059 -0.1393
 3035TIP3    H130740   6.008   5.648   0.226 -0.6130 -1.0536  0.1299
 3035TIP3    H230741   6.159   5.651   0.224 -0.6184  1.7445 -0.4954
 3036TIP3   OH230742   6.544   4.308   8.657 -0.2738 -0.0847 -0.3161
 3036TIP3    H130743   6.515   4.398   8.643 -0.8653 -0.1886  0.2161
 3036TIP3    H230744   6.549   4.270   8.569 -0.5516  0.3048 -0.5012
 3037TIP3   OH230745   3.149   3.571   0.691 -0.7862 -0.2034 -0.0412
 3037TIP3    H130746   3.221   3.634   0.688 -0.5026 -0.5270 -0.0533
 3037TIP3    H230747   3.191   3.486   0.680 -1.0312 -0.4887  1.0557
 3038TIP3   OH230748   3.356   4.370   7.919  0.2405 -0.7289 -0.7442
 3038TIP3    H130749   3.400   4.295   7.877  0.1039 -0.7045 -0.9280
 3038TIP3    H230750   3.428   4.430   7.940  0.3313 -0.8315 -0.7539
 3039TIP3   OH230751   0.573   6.097   1.007  0.2936 -0.2576  0.3182
 3039TIP3    H130752   0.523   6.029   0.961  0.0682 -0.1300  0.3739
 3039TIP3    H230753   0.588   6.164   0.940 -1.3815  0.6507  0.8182
 3040TIP3   OH230754   6.136   5.227   8.043  0.0665  0.0361  0.1004
 3040TIP3    H130755   6.070   5.294   8.030  0.7293  0.1759 -3.2681
 3040TIP3    H230756   6.090   5.144   8.031  0.2303  0.0883 -0.9238
 3041TIP3   OH230757   4.182   2.285   0.131 -0.6900  0.4582 -0.6275
 3041TIP3    H130758   4.161   2.215   0.193  0.1304  1.7982  1.2589
 3041TIP3    H230759   4.278   2.283   0.124 -0.7708  0.1193 -2.1974
 3042TIP3   OH230760   2.818   6.700   7.784  0.2617 -0.0472  0.1594
 3042TIP3    H130761   2.858   6.625   7.828 -0.0334 -0.3123 -0.0251
 3042TIP3    H230762   2.892   6.758   7.765  0.2627  0.7633  2.3032
 3043TIP3   OH230763   4.201   6.303   7.642  1.0835  0.0287  0.0070
 3043TIP3    H130764   4.241   6.223   7.678  1.8086  0.3990  0.0380
 3043TIP3    H230765   4.250   6.374   7.681 -0.3504  0.5527  0.9431
 3044TIP3   OH230766   6.714   4.390   1.023  0.3706 -0.2182  0.0987
 3044TIP3    H130767   6.780   4.426   1.081  0.5838 -1.4640  0.6626
 3044TIP3    H230768   6.639   4.372   1.079  0.7708 -1.9431  0.1437
 3045TIP3   OH230769   1.285   3.439   6.779 -0.2332 -0.2214  0.5538
 3045TIP3    H130770   1.298   3.500   6.706 -0.8749 -1.5065 -0.6850
 3045TIP3    H230771   1.204   3.393   6.757  0.9534 -2.5203  0.6744
 3046TIP3   OH230772   5.515   1.963   0.777  0.2718 -0.0242  0.2269
 3046TIP3    H130773   5.445   1.925   0.829  0.0795 -0.6854 -0.5069
 3046TIP3    H230774   5.576   1.891   0.761  0.3752  0.1863 -0.3788
 3047TIP3   OH230775   3.857   4.094   7.978 -0.2060  0.5397 -0.5199
 3047TIP3    H130776   3.852   4.016   8.033 -0.2265  1.1965  0.4498
 3047TIP3    H230777   3.836   4.064   7.890 -1.6025 -0.2954  0.0680
 3048TIP3   OH230778   6.216   5.981   0.719  0.0228  0.2340  0.1438
 3048TIP3    H130779   6.182   5.947   0.636 -0.0132 -0.1866  0.3332
 3048TIP3    H230780   6.277   6.050   0.693  0.9803 -0.7447 -0.2824
 3049TIP3   OH230781   1.334   3.344   2.177  0.2724  0.3153 -0.1778
 3049TIP3    H130782   1.277   3.287   2.126  0.6656 -0.4114  0.1838
 3049TIP3    H230783   1.288   3.428   2.180 -0.7806 -0.2600  0.1166
 3050TIP3   OH230784   2.541   1.997   0.411  0.1301 -0.6967 -0.0490
 3050TIP3    H130785   2.470   1.996   0.346 -0.8080  3.3809  0.6657
 3050TIP3    H230786   2.503   1.954   0.488 -1.0559  0.0916 -0.1642
 3051TIP3   OH230787   5.462   1.086   1.364  0.4273 -0.7082 -0.7723
 3051TIP3    H130788   5.376   1.120   1.340 -0.3877 -2.4045 -0.4347
 3051TIP3    H230789   5.451   1.053   1.453  1.8500  0.3614 -0.1651
 3052TIP3   OH230790   5.398   0.485   1.008 -0.0036  0.2899  0.2850
 3052TIP3    H130791   5.482   0.529   1.019 -0.0439  0.4713 -0.1243
 3052TIP3    H230792   5.407   0.405   1.059  1.2931 -0.8750 -1.6260
 3053TIP3   OH230793   0.670   4.910   0.648  0.0442 -0.5604 -0.3520
 3053TIP3    H130794   0.600   4.965   0.683  0.9965 -0.1248  0.9556
 3053TIP3    H230795   0.686   4.945   0.560  0.4093  1.1028  0.3331
 3054TIP3   OH230796   3.128   5.227   0.955 -0.4058 -0.2084  0.6050
 3054TIP3    H130797   3.074   5.170   1.011 -1.1391 -0.8143 -0.6535
 3054TIP3    H230798   3.153   5.171   0.882  0.7167  0.5015  0.4190
 3055TIP3   OH230799   1.359   4.244   7.064  0.4189  0.4261  0.1415
 3055TIP3    H130800   1.412   4.222   6.987  3.0792 -0.0079  1.9407
 3055TIP3    H230801   1.336   4.159   7.102  0.0245  0.6454  0.3940
 3056TIP3   OH230802   0.345   5.329   0.141 -0.6587 -0.1344 -0.1425
 3056TIP3    H130803   0.341   5.419   0.174 -0.3223  1.2302 -3.4670
 3056TIP3    H230804   0.401   5.284   0.204 -1.5022  1.7042  2.0868
 3057TIP3   OH230805   1.629   5.827   1.505 -0.1441  0.2207  0.7053
 3057TIP3    H130806   1.552   5.778   1.475  1.2460 -1.9227  0.4852
 3057TIP3    H230807   1.635   5.808   1.598 -0.6214  1.5219  1.0343
 3058TIP3   OH230808   6.183   0.661   6.398 -0.3906 -0.5023 -0.5712
 3058TIP3    H130809   6.088   0.662   6.381 -0.6752 -2.0260  0.7065
 3058TIP3    H230810   6.190   0.666   6.494  0.9257  1.5324 -0.6964
 3059TIP3   OH230811   6.194   2.592   7.150  0.2520 -0.2450  0.2646
 3059TIP3    H130812   6.266   2.610   7.090 -0.5864 -0.9000 -0.9999
 3059TIP3    H230813   6.128   2.658   7.129  0.9734  1.2383  2.3738
 3060TIP3   OH230814   3.497   2.964   7.683  0.0849 -0.6129  0.4079
 3060TIP3    H130815   3.526   3.027   7.749 -0.4651 -0.8857  0.9234
 3060TIP3    H230816   3.461   2.891   7.734 -1.8903 -0.1154 -0.1717
 3061TIP3   OH230817   2.776   5.555   6.512  0.2985 -0.3111 -0.4332
 3061TIP3    H130818   2.714   5.503   6.462  1.3218 -0.9443 -1.0695
 3061TIP3    H230819   2.723   5.627   6.548 -1.0285 -1.4360 -0.0136
 3062TIP3   OH230820   3.206   3.891   0.969  0.0634  0.4609  0.0829
 3062TIP3    H130821   3.211   3.892   1.065 -1.4941  2.0982  0.2070
 3062TIP3    H230822   3.217   3.983   0.944  0.3970  0.0567 -1.3148
 3063TIP3   OH230823   0.653   3.699   6.851 -0.1425 -0.1278 -0.3886
 3063TIP3    H130824   0.570   3.726   6.890 -1.2059  0.4350 -2.8535
 3063TIP3    H230825   0.630   3.670   6.763  1.9454 -2.5027 -0.2768
 3064TIP3   OH230826   3.985   4.150   0.826 -0.0477  0.1345  0.0661
 3064TIP3    H130827   3.966   4.069   0.778 -0.8563  0.7692 -0.7239
 3064TIP3    H230828   3.967   4.128   0.918  3.1173 -1.6110  0.4451
 3065TIP3   OH230829   6.779   0.010   1.678 -0.3794 -0.2806  0.2616
 3065TIP3    H130830   6.779  -0.008   1.584  1.7429 -1.6384  0.4671
 3065TIP3    H230831   6.846   0.077   1.690 -0.9165  0.1752  0.7831
 3066TIP3   OH230832   6.398   1.553   2.327  0.2690 -0.1225 -0.1511
 3066TIP3    H130833   6.447   1.596   2.397  2.6335 -1.7107 -0.7118
 3066TIP3    H230834   6.407   1.612   2.251 -1.5089  1.1385  0.5368
 3067TIP3   OH230835   1.241   6.300   1.832 -0.2204 -0.3307 -0.1801
 3067TIP3    H130836   1.280   6.280   1.917  0.2815  0.6416 -0.1692
 3067TIP3    H230837   1.260   6.393   1.818 -1.0214 -0.2746 -0.9771
 3068TIP3   OH230838   0.405   6.551   7.011  0.3476 -0.1549 -0.3868
 3068TIP3    H130839   0.431   6.579   6.924  1.3499 -2.0430 -0.7724
 3068TIP3    H230840   0.485   6.512   7.048 -0.1690  0.1984  1.1978
 3069TIP3   OH230841   1.772   1.397   6.557 -1.0796  0.2063  0.3591
 3069TIP3    H130842   1.682   1.427   6.545 -1.6285 -1.5546 -0.3742
 3069TIP3    H230843   1.774   1.312   6.513  0.8529  0.0458  0.6858
 3070TIP3   OH230844   2.762   3.972   7.766 -0.3808  0.0894  0.0374
 3070TIP3    H130845   2.811   3.920   7.702 -1.0368 -0.4691 -0.0298
 3070TIP3    H230846   2.824   4.038   7.796  0.8277 -1.3685  0.9038
 3071TIP3   OH230847   4.666   6.457   8.406  0.0782  0.8769  0.1593
 3071TIP3    H130848   4.605   6.451   8.332 -1.3211  1.5429  1.2269
 3071TIP3    H230849   4.742   6.407   8.377 -2.1176 -2.7202 -0.0543
 3072TIP3   OH230850   3.129   2.085   7.241  0.5465 -0.6784  0.1332
 3072TIP3    H130851   3.199   2.140   7.206 -0.2280 -0.5290 -1.2623
 3072TIP3    H230852   3.134   2.004   7.191 -0.2318 -0.6932  0.0629
 3073TIP3   OH230853   1.481   4.716   1.209  0.0247  0.0816  0.4567
 3073TIP3    H130854   1.434   4.709   1.126  1.7016  1.5597 -0.6944
 3073TIP3    H230855   1.495   4.810   1.221 -0.8614 -0.0334  2.8479
 3074TIP3   OH230856   4.323   0.422   7.402  0.1174 -0.3716  0.1661
 3074TIP3    H130857   4.312   0.452   7.312  0.0533  0.3520  0.4077
 3074TIP3    H230858   4.253   0.465   7.451  1.3617  0.8917  0.9276
 3075TIP3   OH230859   2.503   4.190   2.177  0.1696  0.0014 -0.2846
 3075TIP3    H130860   2.564   4.240   2.231  1.3902 -1.9676  0.2794
 3075TIP3    H230861   2.429   4.248   2.163  1.7212  2.1275 -0.1246
 3076TIP3   OH230862   3.729   3.265   0.758  0.0336  0.2530 -0.0327
 3076TIP3    H130863   3.823   3.270   0.746  0.2665  1.5560  1.9649
 3076TIP3    H230864   3.717   3.217   0.841 -1.0560  0.2432 -0.1709
 3077TIP3   OH230865   4.553   4.706   7.707 -0.1686  0.0675  0.1387
 3077TIP3    H130866   4.493   4.719   7.781  0.0120  0.4564  0.2200
 3077TIP3    H230867   4.503   4.654   7.644 -0.7528  0.7666  0.0119
 3078TIP3   OH230868   4.761   5.225   6.563 -0.3130 -0.4520  0.2586
 3078TIP3    H130869   4.713   5.260   6.638 -1.5068 -1.0738 -0.1857
 3078TIP3    H230870   4.730   5.276   6.488  0.5107 -0.1598  0.1086
 3079TIP3   OH230871   3.279   5.251   8.313  0.0644 -0.2520  0.0247
 3079TIP3    H130872   3.339   5.298   8.371 -0.9345 -0.5127  1.3452
 3079TIP3    H230873   3.312   5.266   8.225  0.7698  1.4478  0.5544
 3080TIP3   OH230874   0.543   2.210   8.276 -0.3381 -0.0385 -0.0435
 3080TIP3    H130875   0.510   2.295   8.249 -1.6359 -0.8113 -1.0081
 3080TIP3    H230876   0.475   2.148   8.249  0.9318 -1.4698 -0.1047
 3081TIP3   OH230877   6.706   5.800   1.452 -0.1655 -0.5339  0.5885
 3081TIP3    H130878   6.625   5.753   1.470 -0.3598 -1.3244 -1.9637
 3081TIP3    H230879   6.678   5.884   1.416  0.2054  0.2003  1.9124
 3082TIP3   OH230880   3.792   6.118   0.766  0.3021 -0.2776 -0.4461
 3082TIP3    H130881   3.745   6.153   0.842  1.1678 -1.9897  0.9493
 3082TIP3    H230882   3.723   6.095   0.704 -0.4693  0.6175  0.0565
 3083TIP3   OH230883   3.668   4.803   7.310 -0.4632 -0.0073 -0.4457
 3083TIP3    H130884   3.623   4.725   7.342 -0.4626 -0.1832 -0.8672
 3083TIP3    H230885   3.713   4.838   7.387 -0.7253 -0.2399 -0.1834
 3084TIP3   OH230886   3.807   1.895   0.450 -0.7818 -0.0088  0.2774
 3084TIP3    H130887   3.840   1.860   0.367 -2.6272 -0.4537 -0.3147
 3084TIP3    H230888   3.759   1.974   0.425 -1.0588  0.0448  0.9674
 3085TIP3   OH230889   2.415   5.291   7.160 -0.4928  0.2113  0.4534
 3085TIP3    H130890   2.327   5.273   7.128  0.0876 -1.6265 -0.2211
 3085TIP3    H230891   2.444   5.368   7.111 -1.6818  0.8035  0.6516
 3086TIP3   OH230892   4.998   1.983   8.296  0.2676  0.5677 -0.0444
 3086TIP3    H130893   4.947   1.935   8.231 -0.0468  1.7818 -0.7205
 3086TIP3    H230894   5.086   1.987   8.260  0.4134  0.0684  0.2509
 3087TIP3   OH230895   0.614   1.985   2.053 -0.4315  0.0152 -0.4947
 3087TIP3    H130896   0.669   1.918   2.093 -0.3902 -1.1388 -2.3500
 3087TIP3    H230897   0.658   2.068   2.073  1.1602 -0.7496 -0.6581
 3088TIP3   OH230898   5.577   0.345   1.797  0.0806  0.2707 -0.3924
 3088TIP3    H130899   5.568   0.267   1.853 -0.1790  1.2555  0.9819
 3088TIP3    H230900   5.668   0.372   1.808  0.3566 -0.1943 -1.3945
 3089TIP3   OH230901   5.568   5.752   2.068  0.0122  0.0938 -0.5487
 3089TIP3    H130902   5.598   5.673   2.114  1.5664  0.7655 -0.3492
 3089TIP3    H230903   5.602   5.824   2.120 -0.2963  0.8922 -1.4324
 3090TIP3   OH230904   5.766   2.660   7.882  0.6218 -0.4373 -0.1557
 3090TIP3    H130905   5.734   2.673   7.793 -1.4242 -0.7317  0.4816
 3090TIP3    H230906   5.754   2.744   7.925 -1.0296 -1.0055  0.5719
 3091TIP3   OH230907   6.177   3.930   7.850  0.1599  0.0940 -0.6770
 3091TIP3    H130908   6.201   4.012   7.806 -1.3002  0.8248 -0.1749
 3091TIP3    H230909   6.124   3.957   7.924 -1.0914 -1.3452 -0.9989
 3092TIP3   OH230910   5.859   4.246   6.951  0.7338 -0.1021  0.3709
 3092TIP3    H130911   5.813   4.217   7.029 -0.0536  0.6107  0.1863
 3092TIP3    H230912   5.951   4.228   6.970  0.4807 -0.6693  1.1324
 3093TIP3   OH230913   1.714   5.417   1.697  0.0353  0.2694 -0.2164
 3093TIP3    H130914   1.624   5.441   1.716 -0.0530  0.7774 -1.2233
 3093TIP3    H230915   1.763   5.440   1.776 -0.3026  2.3386 -0.5498
 3094TIP3   OH230916   2.588   0.601   1.330  0.0726  0.2564 -0.7506
 3094TIP3    H130917   2.674   0.634   1.304 -0.0816  1.1934 -0.1057
 3094TIP3    H230918   2.599   0.575   1.421 -0.4942  0.9953 -0.4674
 3095TIP3   OH230919   0.591   2.741   0.252 -0.3083 -0.7986  0.0072
 3095TIP3    H130920   0.584   2.836   0.259  0.2709 -0.5328 -2.3779
 3095TIP3    H230921   0.554   2.709   0.335  0.0441  1.4817  1.1321
 3096TIP3   OH230922   6.497   0.539   8.390  0.2399  0.3532  0.2374
 3096TIP3    H130923   6.528   0.486   8.463  0.6910  0.6355  0.2556
 3096TIP3    H230924   6.568   0.537   8.326 -0.3762 -0.3576 -0.4478
 3097TIP3   OH230925   4.411   1.126   8.111  0.2254  0.0454 -0.3460
 3097TIP3    H130926   4.405   1.207   8.060  0.8965 -1.1864 -2.5221
 3097TIP3    H230927   4.336   1.075   8.083  1.2785 -1.1567 -1.1052
 3098TIP3   OH230928   6.374   4.579   0.861  0.3649  0.5282 -0.3529
 3098TIP3    H130929   6.401   4.491   0.835  2.0864 -0.2597  3.5173
 3098TIP3    H230930   6.278   4.577   0.856  0.3407 -1.6680 -0.0968
 3099TIP3   OH230931   0.482   6.131   0.600  0.6600 -0.0464 -0.0745
 3099TIP3    H130932   0.509   6.223   0.596  1.0623 -0.1884 -0.5657
 3099TIP3    H230933   0.467   6.106   0.509 -1.6479  0.1784  0.1729
 3100TIP3   OH230934   5.548   3.826   8.290 -0.1033 -0.1574  0.0808
 3100TIP3    H130935   5.557   3.885   8.215  0.6665 -0.8230 -0.3594
 3100TIP3    H230936   5.577   3.878   8.365  3.5548 -0.8351 -0.6816
 3101TIP3   OH230937   4.706   1.310   1.490  0.0241  0.0186 -0.3664
 3101TIP3    H130938   4.770   1.375   1.519 -1.8081  1.9977 -0.5345
 3101TIP3    H230939   4.650   1.296   1.567  1.4956 -2.9845  0.3494
 3102TIP3   OH230940   2.997   0.449   0.461 -0.4576 -0.3804  0.6526
 3102TIP3    H130941   3.041   0.428   0.543 -0.8942 -2.5626  0.3778
 3102TIP3    H230942   2.926   0.385   0.455 -2.9391  2.1990  0.4630
 3103TIP3   OH230943   5.240   5.253   0.450  0.2758 -0.3279 -0.4374
 3103TIP3    H130944   5.241   5.340   0.410  1.3271 -0.5529 -0.9293
 3103TIP3    H230945   5.179   5.203   0.396 -0.1669  0.0351 -0.2825
 3104TIP3   OH230946   0.918   0.477   0.193 -0.4255  0.1568  0.1074
 3104TIP3    H130947   0.894   0.555   0.243 -1.4783 -1.3528  2.0984
 3104TIP3    H230948   0.890   0.404   0.248  0.6671 -1.6474 -1.6113
 3105TIP3   OH230949   4.934   0.460   1.639 -0.0321 -0.1202  1.2293
 3105TIP3    H130950   4.899   0.448   1.727  0.2656 -0.8966  1.2503
 3105TIP3    H230951   4.865   0.427   1.581  0.8713 -2.2727  1.2949
 3106TIP3   OH230952   0.679   4.403   1.821  0.1023 -0.0503 -0.0229
 3106TIP3    H130953   0.704   4.418   1.730  2.0228 -1.5761  0.1926
 3106TIP3    H230954   0.584   4.415   1.822 -0.1692 -1.3722 -2.5326
 3107TIP3   OH230955   2.181   4.895   6.719  0.4684  0.1213 -0.3034
 3107TIP3    H130956   2.090   4.891   6.690  1.0304 -1.4679 -2.0891
 3107TIP3    H230957   2.221   4.961   6.663  0.1304  1.9676  1.5362
 3108TIP3   OH230958   0.909   3.590   1.673  0.2452 -0.3657 -0.0730
 3108TIP3    H130959   0.814   3.599   1.686  0.0500 -2.1128 -0.0445
 3108TIP3    H230960   0.917   3.536   1.594  1.2812  1.2739 -1.1712
 3109TIP3   OH230961   1.576   4.422   0.722 -0.2339 -0.2044 -0.4199
 3109TIP3    H130962   1.550   4.354   0.659 -1.5477 -2.4216  2.3019
 3109TIP3    H230963   1.665   4.397   0.748 -0.5862 -0.7018  0.3255
 3110TIP3   OH230964   0.976   4.165   0.128 -0.5043 -0.0843 -0.2301
 3110TIP3    H130965   0.964   4.138   0.218  0.2126 -1.2761 -0.4786
 3110TIP3    H230966   0.892   4.206   0.104 -0.7064  0.2379  0.9450
 3111TIP3   OH230967   6.836   5.571   6.937 -0.2447  0.2494 -0.2810
 3111TIP3    H130968   6.850   5.664   6.952 -0.8219  0.3284 -0.2351
 3111TIP3    H230969   6.803   5.538   7.021 -0.7494  0.1485 -0.5142
 3112TIP3   OH230970   1.493   5.040   0.693 -0.0720 -0.3798 -0.1746
 3112TIP3    H130971   1.545   4.993   0.629  0.5315 -0.4238  0.3285
 3112TIP3    H230972   1.544   5.034   0.774  0.7565  2.2950 -0.3815
 3113TIP3   OH230973   2.117   1.503   6.388  0.1768  0.0073 -0.1589
 3113TIP3    H130974   2.076   1.588   6.372  1.3056  0.1295 -3.0139
 3113TIP3    H230975   2.204   1.523   6.420 -0.7033 -0.2134  2.6201
 3114TIP3   OH230976   4.557   0.302   6.143  0.3257  0.1384 -0.4006
 3114TIP3    H130977   4.594   0.217   6.118 -0.4852 -1.1944  2.4028
 3114TIP3    H230978   4.629   0.347   6.189  0.7771  1.0592 -1.9468
 3115TIP3   OH230979   1.168   3.008   8.248 -0.1507  0.0644 -0.0599
 3115TIP3    H130980   1.082   2.996   8.209 -0.0476 -0.5487 -0.0981
 3115TIP3    H230981   1.211   2.923   8.239 -0.5671 -0.4941  2.5092
 3116TIP3   OH230982   1.258   2.555   0.469 -0.5219 -0.0365  1.0761
 3116TIP3    H130983   1.196   2.487   0.445 -1.0252  0.4350  1.0103
 3116TIP3    H230984   1.317   2.513   0.531  1.1046 -1.4277 -1.2571
 3117TIP3   OH230985   0.229   4.016   0.342 -0.5803 -0.1182 -0.6634
 3117TIP3    H130986   0.266   3.974   0.420 -1.0794 -0.0040 -0.3631
 3117TIP3    H230987   0.213   3.944   0.281  0.8517 -0.0954 -1.1103
 3118TIP3   OH230988   4.434   0.438   8.771 -0.3350  0.1862  0.0657
 3118TIP3    H130989   4.420   0.532   8.756 -2.5187 -0.0948 -0.0240
 3118TIP3    H230990   4.527   0.430   8.788  0.4853  2.0057 -2.7586
 3119TIP3   OH230991   1.090   2.366   7.473  0.1721 -0.2808  0.1549
 3119TIP3    H130992   1.055   2.299   7.415 -0.0251 -0.2649  0.2544
 3119TIP3    H230993   1.172   2.329   7.507  0.8191  0.1127 -0.9119
 3120TIP3   OH230994   5.695   1.039   7.086  0.1655 -0.3172  0.0759
 3120TIP3    H130995   5.690   0.957   7.035 -0.2388 -1.1138  1.3545
 3120TIP3    H230996   5.661   1.106   7.026 -0.3860 -1.2390 -0.6803
 3121TIP3   OH230997   5.897   3.040   7.162  0.8675 -0.0583  0.3845
 3121TIP3    H130998   5.884   3.127   7.198  1.2456  0.7172 -1.2780
 3121TIP3    H230999   5.810   2.999   7.164  0.6423  0.4458  0.9270
 3122TIP3   OH231000   1.343   6.769   0.744 -0.3741 -0.1934  0.3475
 3122TIP3    H131001   1.336   6.808   0.831 -1.2593  3.4509 -1.1882
 3122TIP3    H231002   1.341   6.843   0.684 -0.6203 -2.5930 -2.8717
 3123TIP3   OH231003   4.361   2.278   8.282  0.2006 -0.2777  0.7355
 3123TIP3    H131004   4.447   2.273   8.242 -0.1114  1.6037 -0.2795
 3123TIP3    H231005   4.304   2.227   8.224  0.3941 -0.5436  0.7753
 3124TIP3   OH231006   5.507   5.295   7.906 -0.0659 -0.3538  0.2241
 3124TIP3    H131007   5.538   5.381   7.934  0.9680 -1.2578  2.0520
 3124TIP3    H231008   5.512   5.297   7.810  0.6545  1.3510  0.2729
 3125TIP3   OH231009   4.268   0.925   6.551 -0.0010 -0.0642  0.2278
 3125TIP3    H131010   4.360   0.927   6.575 -0.0986  0.7084  0.5928
 3125TIP3    H231011   4.222   0.912   6.634 -0.2468  0.2773  0.1470
 3126TIP3   OH231012   4.204   4.383   8.409 -0.1962  0.1688  0.1789
 3126TIP3    H131013   4.154   4.372   8.490 -1.5787  0.4277 -0.5942
 3126TIP3    H231014   4.214   4.478   8.400 -0.8169  0.1932 -0.3708
 3127TIP3   OH231015   5.697   3.550   1.150 -0.5775  0.0578 -0.1588
 3127TIP3    H131016   5.654   3.533   1.066 -0.0940  0.6748 -0.5382
 3127TIP3    H231017   5.730   3.465   1.178  1.7441  0.2594 -1.9862
 3128TIP3   OH231018   5.825   1.255   0.044 -0.6383  0.1696 -0.0330
 3128TIP3    H131019   5.894   1.319   0.057 -1.0518  0.9468 -1.4453
 3128TIP3    H231020   5.771   1.261   0.123  0.3543  0.2336  0.6539
 3129TIP3   OH231021   2.374   5.526   0.664  0.1009 -0.2094  0.2159
 3129TIP3    H131022   2.289   5.482   0.668  0.7540 -1.8169 -1.9907
 3129TIP3    H231023   2.437   5.460   0.694  0.9432 -0.3507 -1.7242
 3130TIP3   OH231024   1.443   5.752   7.174 -0.0991  0.2817  0.2742
 3130TIP3    H131025   1.510   5.692   7.206 -1.9879 -1.3824  1.4052
 3130TIP3    H231026   1.420   5.806   7.251 -1.3285 -0.4696  0.4638
 3131TIP3   OH231027   2.726   1.918   7.537 -0.2746  0.0993  0.4896
 3131TIP3    H131028   2.787   1.989   7.559  1.8890 -1.7285  0.7108
 3131TIP3    H231029   2.776   1.838   7.550 -2.1082 -1.4596 -1.3414
 3132TIP3   OH231030   3.251   1.745   8.329  0.4411  0.1024  0.2548
 3132TIP3    H131031   3.336   1.713   8.358  0.0339 -0.6660  0.6283
 3132TIP3    H231032   3.234   1.698   8.247  0.3816  0.2513  0.1822
 3133TIP3   OH231033   6.195   4.964   7.264  0.8378 -0.4094  0.4192
 3133TIP3    H131034   6.251   5.041   7.269  1.7237 -1.0164 -0.1078
 3133TIP3    H231035   6.174   4.955   7.171  1.3017 -1.2002  0.3855
 3134TIP3   OH231036   2.449   0.836   8.169 -0.2807 -0.6268  0.3905
 3134TIP3    H131037   2.529   0.791   8.198  0.8727  1.4088  0.6027
 3134TIP3    H231038   2.412   0.873   8.249 -0.7819 -0.5709  0.1361
 3135TIP3   OH231039   3.743   3.365   7.447  0.2104  0.6984 -0.2894
 3135TIP3    H131040   3.722   3.288   7.393  0.6871 -0.1477  0.7050
 3135TIP3    H231041   3.658   3.392   7.483 -0.1284  1.3170 -1.4793
 3136TIP3   OH231042   4.607   6.411   1.640  0.2520  0.1813  0.1036
 3136TIP3    H131043   4.569   6.417   1.728  1.4888 -0.5351  0.7103
 3136TIP3    H231044   4.691   6.367   1.653  0.4144 -0.0191 -1.4607
 3137TIP3   OH231045   2.207   3.329   6.916  0.0658  0.1917  0.1437
 3137TIP3    H131046   2.228   3.241   6.948 -1.1939 -0.5602 -0.9881
 3137TIP3    H231047   2.292   3.367   6.893  0.6120 -0.7998  0.4447
 3138TIP3   OH231048   2.136   1.548   1.288 -0.0764 -0.2456  0.2196
 3138TIP3    H131049   2.057   1.597   1.264  1.7360  1.3330 -3.2466
 3138TIP3    H231050   2.115   1.457   1.268 -1.4689 -0.0620  0.7629
 3139TIP3   OH231051   3.409   6.465   8.658  0.2094  0.0729 -0.7141
 3139TIP3    H131052   3.460   6.429   8.730 -1.9235 -1.3768  0.1425
 3139TIP3    H231053   3.400   6.393   8.596 -1.6635 -0.0455 -0.3449
 3140TIP3   OH231054   2.900   2.458   8.790  0.1809 -0.1360  0.1103
 3140TIP3    H131055   2.990   2.468   8.759  0.0840 -2.0348 -0.9964
 3140TIP3    H231056   2.895   2.509   8.871  1.8437  1.1053 -0.5241
 3141TIP3   OH231057   3.596   2.544   1.434  0.1376 -0.0622 -0.1352
 3141TIP3    H131058   3.518   2.572   1.483 -0.4787 -0.8117 -0.6863
 3141TIP3    H231059   3.669   2.589   1.479 -0.7018  1.5468 -0.3012
 3142TIP3   OH231060   3.613   4.143   1.253 -0.7359  0.5577  0.1743
 3142TIP3    H131061   3.683   4.153   1.317  0.8262  0.6217 -1.4448
 3142TIP3    H231062   3.554   4.079   1.291  1.0180 -0.6540  0.9756
 3143TIP3   OH231063   0.824   2.088   1.438 -0.0529  0.3219 -0.0040
 3143TIP3    H131064   0.766   2.101   1.513  1.0446  1.1531  0.7358
 3143TIP3    H231065   0.808   2.164   1.382 -1.7986 -0.9318 -1.2870
 3144TIP3   OH231066   6.421   6.439   1.103 -0.1475  0.2185  0.8520
 3144TIP3    H131067   6.339   6.390   1.108 -0.4930  0.7365  0.4504
 3144TIP3    H231068   6.393   6.531   1.106  0.3285  0.4249 -0.4183
 3145TIP3   OH231069   4.249   0.082   8.789 -0.3516  0.6066  0.3446
 3145TIP3    H131070   4.267  -0.007   8.759 -2.4551  0.3161 -0.2856
 3145TIP3    H231071   4.238   0.133   8.708 -0.0374  1.2443  0.6958
 3146TIP3   OH231072   1.020   3.473   1.404  0.0252 -0.6545  0.4019
 3146TIP3    H131073   1.011   3.483   1.309  1.0899  1.1984  0.4502
 3146TIP3    H231074   0.970   3.394   1.424 -2.8248  0.5485 -1.2646
 3147TIP3   OH231075   1.445   3.590   1.954 -0.0344 -0.6834 -0.7401
 3147TIP3    H131076   1.372   3.536   1.924 -0.3947 -0.2747 -0.5956
 3147TIP3    H231077   1.421   3.616   2.042 -0.7053  1.2154 -1.4453
 3148TIP3   OH231078   5.230   0.710   0.994 -0.5666 -0.1738 -0.1563
 3148TIP3    H131079   5.278   0.782   1.035  0.1289 -0.7854  0.1307
 3148TIP3    H231080   5.293   0.639   0.990 -0.9385 -0.4536 -1.3638
 3149TIP3   OH231081   4.857   2.010   0.897 -0.3323  0.0625  0.0029
 3149TIP3    H131082   4.946   2.024   0.928 -0.1169 -0.1131 -0.5323
 3149TIP3    H231083   4.802   2.058   0.959  0.0187 -1.0001  1.1702
 3150TIP3   OH231084   4.308   1.319   0.532  0.0030  0.1077 -0.6799
 3150TIP3    H131085   4.328   1.301   0.440  1.3756  0.9142 -0.5677
 3150TIP3    H231086   4.378   1.276   0.581 -0.3389  0.2519 -0.0510
 3151TIP3   OH231087   3.082   0.263   1.195 -0.2174 -0.2847 -0.4130
 3151TIP3    H131088   3.165   0.299   1.226  0.0168 -1.7972  0.8900
 3151TIP3    H231089   3.071   0.182   1.246 -2.1256 -0.5030 -1.0928
 3152TIP3   OH231090   0.962   5.963   6.393  0.4388  0.5252  0.1454
 3152TIP3    H131091   0.991   6.020   6.322 -0.5350  1.0089  0.1173
 3152TIP3    H231092   1.032   5.968   6.458  2.3074 -1.4942 -1.5686
 3153TIP3   OH231093   3.446   4.580   1.379  0.5946 -0.0132  0.0552
 3153TIP3    H131094   3.462   4.512   1.314  0.6925  0.3367 -0.2966
 3153TIP3    H231095   3.529   4.627   1.385  0.5859 -0.0428  0.4369
 3154TIP3   OH231096   2.205   0.199   2.037 -0.2073 -0.2729  0.7380
 3154TIP3    H131097   2.209   0.294   2.036  0.3486 -0.2761 -1.2897
 3154TIP3    H231098   2.266   0.171   1.969  1.2413 -2.1849  2.6457
 3155TIP3   OH231099   1.213   0.634   0.178  0.3873  0.2818 -0.8161
 3155TIP3    H131100   1.184   0.712   0.130  0.0682  0.7094  0.0546
 3155TIP3    H231101   1.150   0.567   0.153 -2.1741  1.4657  1.8658
 3156TIP3   OH231102   3.287   1.144   7.646  0.5333 -0.1952 -0.4551
 3156TIP3    H131103   3.317   1.230   7.678  1.3679 -0.1303 -1.3667
 3156TIP3    H231104   3.354   1.117   7.584  0.5934 -1.7952  0.2494
 3157TIP3   OH231105   4.396   5.720   8.786 -0.5391  0.1779  0.4229
 3157TIP3    H131106   4.361   5.753   8.704 -0.1322  0.4206  0.3394
 3157TIP3    H231107   4.491   5.719   8.772 -0.3296  1.7566  1.4217
 3158TIP3   OH231108   2.928   5.148   0.533  0.0197 -0.3242 -0.1869
 3158TIP3    H131109   2.970   5.144   0.447 -1.0486  2.3211 -0.9044
 3158TIP3    H231110   2.834   5.138   0.515 -0.3674  1.7682  0.4540
 3159TIP3   OH231111   6.141   3.647   0.962 -0.2072 -0.3461  0.2426
 3159TIP3    H131112   6.147   3.743   0.961 -1.4201 -0.2610 -0.0136
 3159TIP3    H231113   6.187   3.621   1.041 -0.3696  0.4936  0.6248
 3160TIP3   OH231114   4.799   2.954   7.294 -0.0976  0.6815  0.6067
 3160TIP3    H131115   4.762   3.014   7.358 -1.0168  0.2546  0.4958
 3160TIP3    H231116   4.726   2.898   7.269  0.8183 -0.7459  0.9967
 3161TIP3   OH231117   5.651   4.648   1.407  0.2242  0.0663 -0.3538
 3161TIP3    H131118   5.671   4.557   1.388  1.0208  0.2478 -0.4387
 3161TIP3    H231119   5.730   4.682   1.449 -0.6537  0.2904  1.1738
 3162TIP3   OH231120   4.979   5.359   6.357  0.0802  0.4293 -0.2108
 3162TIP3    H131121   4.937   5.383   6.274 -0.4067 -0.6859 -0.3060
 3162TIP3    H231122   4.921   5.292   6.394 -1.0567  2.5825  2.2199
 3163TIP3   OH231123   2.365   3.937   0.428  0.1905 -0.4843 -0.2799
 3163TIP3    H131124   2.309   4.008   0.395  1.3561  0.2651 -0.7320
 3163TIP3    H231125   2.431   3.926   0.360  2.1372  0.4891  1.3501
 3164TIP3   OH231126   4.858   4.186   1.093  0.2537  0.2114  0.3763
 3164TIP3    H131127   4.836   4.269   1.052 -1.6399 -0.5764 -0.3410
 3164TIP3    H231128   4.894   4.209   1.179 -1.9382  1.7723  0.9673
 3165TIP3   OH231129   4.378   5.460   0.135  0.4074 -0.1361  0.3585
 3165TIP3    H131130   4.378   5.536   0.078 -1.3386 -0.5174 -0.2250
 3165TIP3    H231131   4.351   5.388   0.078  2.2234 -1.2655  0.8421
 3166TIP3   OH231132   6.589   6.556   7.029 -0.3387 -0.0543 -0.0235
 3166TIP3    H131133   6.669   6.600   7.058 -0.0467  0.5623 -1.6474
 3166TIP3    H231134   6.528   6.628   7.011 -0.3703 -0.3750 -1.2600
 3167TIP3   OH231135   2.509   1.497   0.378  0.5221  0.0700  0.5759
 3167TIP3    H131136   2.479   1.583   0.347  0.5593 -0.1686 -0.1240
 3167TIP3    H231137   2.525   1.510   0.472 -1.3795  0.3277  0.9164
 3168TIP3   OH231138   5.402   6.843   7.509  0.2100 -0.0321 -0.0709
 3168TIP3    H131139   5.352   6.813   7.433 -0.0135  0.4845 -0.1327
 3168TIP3    H231140   5.362   6.927   7.533  1.0743  0.4222 -0.1611
 3169TIP3   OH231141   1.280   0.935   7.933 -0.5001  0.3369 -0.7677
 3169TIP3    H131142   1.357   0.955   7.986 -1.2834 -0.3409  0.6695
 3169TIP3    H231143   1.276   1.007   7.869  1.2045  0.4749 -0.7765
 3170TIP3   OH231144   3.820   5.497   0.356 -0.7966 -0.1296 -0.3970
 3170TIP3    H131145   3.776   5.515   0.273  1.5090  1.7345 -1.3690
 3170TIP3    H231146   3.805   5.575   0.408 -1.9112 -1.1369  0.8512
 3171TIP3   OH231147   3.721   6.424   8.346  0.1726  0.5063 -0.3268
 3171TIP3    H131148   3.752   6.388   8.429 -1.1441  0.6078  0.2294
 3171TIP3    H231149   3.769   6.507   8.337  2.3678 -0.7610 -1.0664
 3172TIP3   OH231150   4.762   0.103   7.133 -0.4958  0.8163 -0.1771
 3172TIP3    H131151   4.812   0.065   7.061 -0.4434  0.3761  0.0891
 3172TIP3    H231152   4.769   0.198   7.119  0.1454  0.7544 -0.3205
 3173TIP3   OH231153   0.123   6.663   0.545 -0.4554 -0.5237  0.3262
 3173TIP3    H131154   0.163   6.680   0.459 -0.1681 -0.9580  0.3706
 3173TIP3    H231155   0.082   6.577   0.535  0.1937 -0.9017  0.8375
 3174TIP3   OH231156   4.350   4.493   0.377 -0.3144  0.3564 -0.2725
 3174TIP3    H131157   4.434   4.447   0.375 -0.1496  0.6613 -2.0444
 3174TIP3    H231158   4.371   4.580   0.412 -0.3953 -0.4071  1.7942
 3175TIP3   OH231159   4.266   5.695   8.206  0.2654  0.7181 -0.3233
 3175TIP3    H131160   4.231   5.666   8.290 -0.9473 -0.9944 -1.3635
 3175TIP3    H231161   4.312   5.777   8.227 -0.1970  0.4807  1.9421
 3176TIP3   OH231162   5.075   3.909   6.120 -0.1252  0.1568  0.1678
 3176TIP3    H131163   5.144   3.844   6.132 -0.6251 -0.2188  1.1197
 3176TIP3    H231164   5.094   3.975   6.187  0.4068  1.0254 -0.8240
 3177TIP3   OH231165   6.133   3.431   7.547  0.3197 -0.1001  0.4439
 3177TIP3    H131166   6.126   3.401   7.638 -0.3859  0.1355  0.4743
 3177TIP3    H231167   6.082   3.512   7.545 -0.2718 -0.4776 -0.3219
 3178TIP3   OH231168   3.565   6.589   7.196  0.2793 -0.4684 -0.0257
 3178TIP3    H131169   3.602   6.596   7.108  0.1876  0.4184  0.0063
 3178TIP3    H231170   3.627   6.534   7.244  0.9567  0.0544 -0.2975
 3179TIP3   OH231171   3.988   5.881   1.014  0.4368 -0.4654 -0.7811
 3179TIP3    H131172   3.953   5.858   1.100  1.5705 -1.4828 -0.5629
 3179TIP3    H231173   3.915   5.868   0.953 -0.1847 -0.3696 -0.0629
 3180TIP3   OH231174   1.317   6.827   1.354  0.0832  0.3680 -0.1180
 3180TIP3    H131175   1.284   6.738   1.344  1.1080  0.1324 -1.7505
 3180TIP3    H231176   1.375   6.822   1.430  0.1665 -0.3755 -0.2232
 3181TIP3   OH231177   4.858   0.097   0.205  0.0581  0.0919 -0.5262
 3181TIP3    H131178   4.901   0.011   0.203 -0.6889 -0.2780 -1.6613
 3181TIP3    H231179   4.915   0.153   0.153 -0.5028 -0.2489 -1.5296
 3182TIP3   OH231180   2.622   1.140   8.568 -0.0044 -0.4967 -0.0944
 3182TIP3    H131181   2.632   1.124   8.474  2.2269  1.8972 -0.3676
 3182TIP3    H231182   2.702   1.105   8.607 -0.5362 -0.7130  0.8234
 3183TIP3   OH231183   2.807   3.898   1.406 -0.6582  0.0664 -0.0186
 3183TIP3    H131184   2.732   3.942   1.366 -1.2673 -2.0444 -1.3269
 3183TIP3    H231185   2.769   3.835   1.467  0.0917 -0.2781  0.1100
 3184TIP3   OH231186   3.222   3.434   7.845 -0.2643  0.0702 -0.4749
 3184TIP3    H131187   3.283   3.362   7.829 -0.0117  0.6421 -2.2961
 3184TIP3    H231188   3.253   3.474   7.926  0.9313 -0.5008 -0.6270
 3185TIP3   OH231189   6.581   3.530   8.152 -0.3451 -0.3105 -0.0190
 3185TIP3    H131190   6.491   3.496   8.150 -0.2671 -0.5243  0.1205
 3185TIP3    H231191   6.572   3.618   8.189 -0.7827  0.5742 -2.1259
 3186TIP3   OH231192   1.861   4.477   0.711  0.3680  0.3899  0.1043
 3186TIP3    H131193   1.821   4.556   0.674 -0.2083 -0.3821 -0.9600
 3186TIP3    H231194   1.931   4.455   0.650 -0.0911 -0.4552 -0.1276
 3187TIP3   OH231195   5.552   0.640   2.147 -0.4787 -0.1476 -0.5282
 3187TIP3    H131196   5.552   0.556   2.193  2.0337  0.4528  0.7096
 3187TIP3    H231197   5.548   0.706   2.217 -1.1831  0.7961 -1.4272
 3188TIP3   OH231198   1.014   6.241   6.322  0.0006  1.4173  0.6264
 3188TIP3    H131199   0.929   6.284   6.327 -1.2680 -0.8717 -0.0689
 3188TIP3    H231200   1.040   6.250   6.230  0.6271  2.2373  0.8659
 3189TIP3   OH231201   0.888   3.549   7.722 -0.0011  0.4591 -0.0437
 3189TIP3    H131202   0.870   3.622   7.663 -0.0489 -1.7817 -3.0424
 3189TIP3    H231203   0.984   3.543   7.724  0.0108  0.8157  0.4889
 3190TIP3   OH231204   3.922   2.988   6.078 -0.1809 -0.1735 -0.0475
 3190TIP3    H131205   4.004   3.004   6.031  0.0657 -0.9605  0.1075
 3190TIP3    H231206   3.943   3.006   6.170 -0.6143  1.1830 -0.1863
 3191TIP3   OH231207   4.677   0.882   7.593 -0.5513  0.0970  0.5292
 3191TIP3    H131208   4.668   0.815   7.525  1.3630  0.5663 -0.2445
 3191TIP3    H231209   4.592   0.882   7.638 -1.0202 -1.9410 -0.2631
 3192TIP3   OH231210   3.306   0.360   6.713 -0.3452 -0.4030 -0.2396
 3192TIP3    H131211   3.251   0.437   6.730 -1.4168 -1.0082 -0.8306
 3192TIP3    H231212   3.345   0.339   6.799  1.3970  1.8078 -0.4003
 3193TIP3   OH231213   6.437   0.760   6.664 -0.1545  0.2198 -0.2082
 3193TIP3    H131214   6.370   0.692   6.665 -1.5658  1.5301  1.3390
 3193TIP3    H231215   6.458   0.771   6.571 -1.0997 -1.1570 -0.6201
 3194TIP3   OH231216   3.362   0.151   8.105  0.3295  0.1726  0.5886
 3194TIP3    H131217   3.296   0.083   8.122 -0.3507  0.7580  0.3327
 3194TIP3    H231218   3.368   0.199   8.187  0.6276 -0.0383  0.6911
 3195TIP3   OH231219   4.142   6.020   6.606  0.1376 -0.5318 -0.2426
 3195TIP3    H131220   4.180   6.071   6.535 -1.3052  0.6528 -0.2179
 3195TIP3    H231221   4.048   6.037   6.600 -0.1309 -1.3065  1.2517
 3196TIP3   OH231222   5.469   1.518   1.786  0.2511  0.2684  0.8053
 3196TIP3    H131223   5.466   1.530   1.881 -0.3027 -0.8404  0.9518
 3196TIP3    H231224   5.378   1.525   1.758  0.5525  1.8994  0.1526
 3197TIP3   OH231225   4.278   5.550   0.375  0.5805  0.5501  0.2123
 3197TIP3    H131226   4.348   5.552   0.441  0.6285 -1.4136  0.2907
 3197TIP3    H231227   4.320   5.512   0.297  0.3410  2.1828 -0.7522
 3198TIP3   OH231228   2.331   5.827   0.734  0.6617 -0.2859  0.2340
 3198TIP3    H131229   2.334   5.743   0.688  1.3743 -0.2670  0.2428
 3198TIP3    H231230   2.261   5.875   0.691  1.6416 -0.0711 -1.1876
 3199TIP3   OH231231   6.572   2.547   7.683  0.5470 -0.4203  0.1671
 3199TIP3    H131232   6.569   2.482   7.753 -1.4455  0.1845  0.7191
 3199TIP3    H231233   6.482   2.579   7.676  1.3440  1.8983 -0.4492
 3200TIP3   OH231234   3.499   5.609   0.741  0.0005  0.6564  0.0791
 3200TIP3    H131235   3.431   5.543   0.758  1.9584 -0.8193  3.1024
 3200TIP3    H231236   3.470   5.685   0.791  0.3463  0.1425  1.0937
 3201TIP3   OH231237   2.161   6.365   7.429 -0.3929  1.0389  0.4583
 3201TIP3    H131238   2.202   6.413   7.357 -0.3372 -1.3552 -1.2074
 3201TIP3    H231239   2.220   6.291   7.446 -2.9537 -1.4520 -0.7425
 3202TIP3   OH231240   0.972   4.085   1.348 -0.8640  0.2005  0.4487
 3202TIP3    H131241   0.977   4.175   1.314 -1.4386  0.4081  0.8933
 3202TIP3    H231242   0.968   4.096   1.443 -1.0936 -0.2873  0.4952
 3203TIP3   OH231243   2.796   5.903   6.915  0.1955 -0.4709 -0.1166
 3203TIP3    H131244   2.790   5.882   6.822 -0.5625 -2.0887  0.2572
 3203TIP3    H231245   2.842   5.828   6.953 -0.2059 -0.1992  0.9302
 3204TIP3   OH231246   5.816   2.772   1.090 -0.0904 -0.2086 -0.1794
 3204TIP3    H131247   5.805   2.787   1.184  0.2641  0.8888 -0.3040
 3204TIP3    H231248   5.734   2.731   1.062 -0.4719  0.1000  0.4738
 3205TIP3   OH231249   2.285   5.366   8.009  0.1143 -0.1005  0.2320
 3205TIP3    H131250   2.237   5.331   8.084 -0.5582 -0.7057 -0.4724
 3205TIP3    H231251   2.291   5.293   7.948  0.0719  0.5701 -0.5916
 3206TIP3   OH231252   4.951   4.729   8.130 -0.5473  0.5702  0.0991
 3206TIP3    H131253   4.862   4.742   8.098 -1.3045 -0.0669  1.8592
 3206TIP3    H231254   4.943   4.666   8.201  1.3632  0.2413  0.0914
 3207TIP3   OH231255   4.023   5.112   0.901  0.7789 -0.1316  0.2815
 3207TIP3    H131256   3.966   5.128   0.976  2.1520 -1.1224  1.6041
 3207TIP3    H231257   4.014   5.190   0.847 -1.1538  0.1003  0.8534
 3208TIP3   OH231258   3.470   0.014   7.885  0.7992 -0.0413  0.1225
 3208TIP3    H131259   3.432  -0.073   7.879 -0.6623  0.6510 -1.2846
 3208TIP3    H231260   3.424   0.056   7.957 -0.3892  0.4101 -0.8593
 3209TIP3   OH231261   3.175   1.876   7.066  0.2235  0.5246 -0.2728
 3209TIP3    H131262   3.213   1.837   7.144 -1.6210 -1.2064 -0.1572
 3209TIP3    H231263   3.242   1.866   6.999  0.9315 -0.1347  0.5127
 3210TIP3   OH231264   3.503   4.087   7.766  0.1724 -0.3412  0.2994
 3210TIP3    H131265   3.580   4.142   7.784 -0.5045  0.2471  1.5861
 3210TIP3    H231266   3.488   4.096   7.672  0.5857  1.0475  0.3408
 3211TIP3   OH231267   0.597   2.900   7.234 -0.0346 -0.2118  0.5478
 3211TIP3    H131268   0.573   2.870   7.146  0.6204  1.3857 -0.2284
 3211TIP3    H231269   0.514   2.929   7.272 -0.0955  0.6876 -0.2245
 3212TIP3   OH231270   4.595   1.724   8.485 -0.6238  0.0658 -0.3770
 3212TIP3    H131271   4.687   1.698   8.489 -0.2905  1.3295  1.5894
 3212TIP3    H231272   4.569   1.706   8.395  1.3052 -1.0835 -0.7645
 3213TIP3   OH231273   1.246   1.095   0.546 -0.0114  0.1854  0.1608
 3213TIP3    H131274   1.298   1.134   0.476 -0.0945  0.2789  0.1501
 3213TIP3    H231275   1.207   1.170   0.591  0.4210  0.1420  0.6006
 3214TIP3   OH231276   4.246   2.751   7.399 -0.4249 -0.3078 -0.0841
 3214TIP3    H131277   4.184   2.705   7.456  0.2805  0.6385  1.5485
 3214TIP3    H231278   4.224   2.844   7.410  0.5772 -0.0312 -0.3251
 3215TIP3   OH231279   6.410   0.455   1.189 -0.5581  0.0597 -0.0877
 3215TIP3    H131280   6.433   0.543   1.220 -2.1058  0.0477  1.2597
 3215TIP3    H231281   6.472   0.438   1.118 -0.7470  2.5802 -0.9937
 3216TIP3   OH231282   2.968   3.285   2.115 -0.7224  0.3128  0.1278
 3216TIP3    H131283   3.054   3.273   2.156 -1.3018 -1.7645  0.8648
 3216TIP3    H231284   2.971   3.228   2.038 -1.3485  0.4164  0.0289
 3217TIP3   OH231285   5.134   5.805   7.865  0.2331 -0.3588 -0.2778
 3217TIP3    H131286   5.228   5.810   7.852  0.6880  1.0877  2.6316
 3217TIP3    H231287   5.117   5.714   7.890  1.3297 -0.0993  1.6001
 3218TIP3   OH231288   3.046   6.623   0.791 -0.2685  0.8899 -0.5632
 3218TIP3    H131289   3.017   6.532   0.788 -1.1832  1.1913 -1.0013
 3218TIP3    H231290   3.002   6.659   0.868  0.5934  0.8122 -0.0097
 3219TIP3   OH231291   6.262   6.080   7.788  0.4488  0.3407 -0.2114
 3219TIP3    H131292   6.247   6.149   7.723  0.4796 -0.6664 -1.3308
 3219TIP3    H231293   6.353   6.090   7.813  0.9424 -0.3193 -1.6468
 3220TIP3   OH231294   2.463   3.973   7.725  0.2417  0.0850 -0.3604
 3220TIP3    H131295   2.558   3.976   7.738  0.0645  2.2110  0.8334
 3220TIP3    H231296   2.450   4.005   7.635  0.5948  1.7434  0.1397
 3221TIP3   OH231297   5.180   0.167   7.630 -0.2240  0.3345  0.0622
 3221TIP3    H131298   5.128   0.144   7.706 -1.3894  1.2586 -0.4152
 3221TIP3    H231299   5.144   0.251   7.601 -0.1905 -0.2584 -1.8271
 3222TIP3   OH231300   5.962   5.598   7.502  0.1329  0.5238  0.0562
 3222TIP3    H131301   5.985   5.691   7.513 -0.4476  0.5179  1.5174
 3222TIP3    H231302   5.928   5.572   7.587  0.6335 -1.1451 -0.2289
 3223TIP3   OH231303   6.111   6.382   7.355  0.7418 -0.0691 -0.0733
 3223TIP3    H131304   6.134   6.299   7.313 -0.1057 -0.2208 -0.2443
 3223TIP3    H231305   6.129   6.367   7.448  0.7265 -0.3945 -0.1193
 3224TIP3   OH231306   4.080   2.890   8.708  0.6889 -0.3569  0.4790
 3224TIP3    H131307   4.028   2.822   8.665  2.5123 -1.4139 -0.1695
 3224TIP3    H231308   4.068   2.968   8.654  1.1174 -1.0451 -0.6346
 3225TIP3   OH231309   1.391   3.022   6.778  0.1601  0.0636 -0.3842
 3225TIP3    H131310   1.441   3.050   6.701 -2.6540 -1.1621 -2.8683
 3225TIP3    H231311   1.372   3.103   6.825  2.2105  0.8081 -0.7206
 3226TIP3   OH231312   1.632   0.549   2.227 -0.0941  0.2759 -0.3631
 3226TIP3    H131313   1.557   0.566   2.283 -1.0475 -0.4404 -1.3789
 3226TIP3    H231314   1.632   0.454   2.215  1.5826  0.1404  0.4163
 3227TIP3   OH231315   5.718   4.167   7.178 -0.2705  0.2681 -0.3260
 3227TIP3    H131316   5.761   4.114   7.244  1.0944  1.0524 -0.5510
 3227TIP3    H231317   5.652   4.109   7.139  0.2671 -0.8092  0.3418
 3228TIP3   OH231318   0.541   2.731   6.354  0.7011 -0.2528 -0.5905
 3228TIP3    H131319   0.554   2.823   6.378  2.1429 -0.4525 -0.5382
 3228TIP3    H231320   0.531   2.732   6.259 -0.4303  0.0582 -0.4852
 3229TIP3   OH231321   3.243   1.581   2.026 -0.3136 -0.1438  0.3609
 3229TIP3    H131322   3.207   1.654   2.076  0.9629 -0.4032  1.7635
 3229TIP3    H231323   3.173   1.516   2.024 -0.1943 -0.4060  2.4958
 3230TIP3   OH231324   4.664   1.155   8.550 -0.0799  0.0700  0.4552
 3230TIP3    H131325   4.640   1.065   8.571 -0.4403  0.2188  0.6895
 3230TIP3    H231326   4.679   1.197   8.635  1.1029 -0.0349  0.3188
 3231TIP3   OH231327   5.897   3.449   6.946 -0.4485 -0.0300  0.2628
 3231TIP3    H131328   5.975   3.445   6.890 -1.4100 -0.5290 -1.1148
 3231TIP3    H231329   5.931   3.457   7.035  1.1508  1.9672 -0.4533
 3232TIP3   OH231330   6.244   3.082   6.898 -0.0592 -1.2014 -0.9587
 3232TIP3    H131331   6.251   3.013   6.964 -0.2765 -0.8291 -0.5428
 3232TIP3    H231332   6.335   3.102   6.874  0.1589  0.1127  0.7588
 3233TIP3   OH231333   0.518   1.126   6.658  0.0914  0.4751 -0.0924
 3233TIP3    H131334   0.542   1.199   6.601  2.4962  0.1381  0.4109
 3233TIP3    H231335   0.596   1.071   6.662 -0.5607 -0.4032  2.1592
 3234TIP3   OH231336   2.028   2.283   0.343 -0.4515 -0.0836 -0.0069
 3234TIP3    H131337   1.950   2.318   0.387  0.3114  0.1659  1.1929
 3234TIP3    H231338   2.066   2.358   0.297 -0.1646  0.1210  0.5541
 3235TIP3   OH231339   5.450   4.901   8.708  0.6810  0.3971 -0.4067
 3235TIP3    H131340   5.359   4.895   8.680  0.7126  1.5790 -0.8268
 3235TIP3    H231341   5.494   4.829   8.664  0.2915  0.8999 -1.6485
 3236TIP3   OH231342   2.428   5.727   7.096 -0.1939 -0.0230 -0.1869
 3236TIP3    H131343   2.412   5.691   7.183  1.4557  0.8903  0.5536
 3236TIP3    H231344   2.430   5.651   7.038 -0.1987 -0.7620  0.7642
 3237TIP3   OH231345   0.019   3.552   1.917  0.4183  0.1561 -0.0009
 3237TIP3    H131346   0.108   3.546   1.953  1.3842 -1.1690 -2.3966
 3237TIP3    H231347   0.031   3.575   1.825 -1.6001 -1.7919 -0.8476
 3238TIP3   OH231348   2.426   3.660   0.863  0.3583 -0.1901  0.2619
 3238TIP3    H131349   2.441   3.663   0.958  0.1006 -0.0710  0.2992
 3238TIP3    H231350   2.331   3.655   0.854  0.3900 -0.3262  0.0112
 3239TIP3   OH231351   3.154   2.439   7.451 -0.2444  1.1708  0.3898
 3239TIP3    H131352   3.141   2.346   7.470 -0.3074  1.3690  1.3822
 3239TIP3    H231353   3.212   2.440   7.375  1.4279  0.3032  1.5807
 3240TIP3   OH231354   4.195   4.914   7.875 -0.1304  0.0852 -0.4636
 3240TIP3    H131355   4.242   4.973   7.817  1.0238  0.1373  0.4907
 3240TIP3    H231356   4.167   4.969   7.948  1.3310 -0.5923  0.6472
 3241TIP3   OH231357   6.013   4.032   8.042  0.1264  0.1558  0.1937
 3241TIP3    H131358   5.972   3.974   8.106 -0.0546  1.9886  1.8470
 3241TIP3    H231359   5.941   4.067   7.990 -0.1815  1.4142  1.4139
 3242TIP3   OH231360   6.215   4.766   1.169  0.5203 -0.0643 -0.2929
 3242TIP3    H131361   6.178   4.825   1.103  0.0361  0.2139  0.2193
 3242TIP3    H231362   6.222   4.820   1.248  0.9009 -0.4515 -0.0557
 3243TIP3   OH231363   0.525   2.950   8.384  0.3093 -0.2454  0.3412
 3243TIP3    H131364   0.496   3.040   8.369 -4.0199 -1.5433 -0.4390
 3243TIP3    H231365   0.502   2.932   8.476  1.1591 -0.6087  0.4983
 3244TIP3   OH231366   0.981   6.239   7.264  0.5118  0.7172  0.2248
 3244TIP3    H131367   0.938   6.166   7.308  0.0446  1.4733  1.0339
 3244TIP3    H231368   0.978   6.311   7.326  0.5472  1.5789 -0.7345
 3245TIP3   OH231369   1.905   6.315   2.044  0.1470  0.2338 -0.0895
 3245TIP3    H131370   1.974   6.267   2.091 -1.0794 -0.1424  1.3980
 3245TIP3    H231371   1.848   6.349   2.113 -1.8178 -0.4602 -1.3038
 3246TIP3   OH231372   5.212   1.621   1.722  0.0576  0.7147 -0.8706
 3246TIP3    H131373   5.133   1.582   1.758  0.7517 -0.0911 -0.1698
 3246TIP3    H231374   5.227   1.699   1.775 -0.5062  1.1314 -1.3060
 3247TIP3   OH231375   0.422   0.242   7.301  0.2571  0.1628  0.2425
 3247TIP3    H131376   0.420   0.162   7.354 -1.6982  0.3023  0.4589
 3247TIP3    H231377   0.513   0.272   7.306  1.1360 -2.2054 -0.1161
 3248TIP3   OH231378   1.288   4.587   6.834 -1.0898  0.5570  0.0196
 3248TIP3    H131379   1.247   4.550   6.756 -1.9529 -0.3040  0.8673
 3248TIP3    H231380   1.366   4.632   6.800 -0.4112 -1.3668 -1.1503
 3249TIP3   OH231381   0.337   6.710   8.264 -0.3191  0.0864 -0.0103
 3249TIP3    H131382   0.401   6.763   8.217  0.4588 -1.4608 -0.7650
 3249TIP3    H231383   0.304   6.649   8.199 -0.7415 -0.7454  0.9596
 3250TIP3   OH231384   0.048   0.034   7.556  0.3653  0.4755 -0.0064
 3250TIP3    H131385   0.088   0.072   7.634  1.2620 -0.1143 -0.1654
 3250TIP3    H231386   0.071  -0.058   7.560  3.8381  1.0320 -2.9445
 3251TIP3   OH231387   6.529   1.452   8.471  0.2550 -0.0712  0.0132
 3251TIP3    H131388   6.464   1.511   8.511  0.5032 -0.5036  1.0817
 3251TIP3    H231389   6.592   1.511   8.430 -1.1568  0.3534 -1.6545
 3252TIP3   OH231390   6.147   0.298   0.782 -0.4162  0.2347  0.2883
 3252TIP3    H131391   6.124   0.207   0.764  1.3341 -0.3556  0.8515
 3252TIP3    H231392   6.180   0.297   0.872 -2.7758  1.9250  1.2930
 3253TIP3   OH231393   0.010   4.775   1.326 -0.3911 -0.0795  0.1767
 3253TIP3    H131394   0.052   4.763   1.411  0.2458  1.9414  0.2099
 3253TIP3    H231395  -0.084   4.777   1.345 -0.5511 -3.4134  0.2652
 3254TIP3   OH231396   0.320   1.904   6.829 -1.0797 -0.5099  0.4455
 3254TIP3    H131397   0.310   1.845   6.754 -0.2018 -1.2881  0.9104
 3254TIP3    H231398   0.233   1.907   6.869 -1.3725 -0.6871 -0.1663
 3255TIP3   OH231399   0.987   0.253   7.589  0.3258  0.5757  0.0582
 3255TIP3    H131400   0.916   0.224   7.646 -0.5514  1.2138 -0.6797
 3255TIP3    H231401   0.987   0.349   7.599  1.7293  0.5259  0.7877
 3256TIP3   OH231402   4.802   5.769   1.315 -0.1523  0.3663  0.0400
 3256TIP3    H131403   4.804   5.723   1.232 -1.9803 -0.2029  0.2496
 3256TIP3    H231404   4.708   5.776   1.336  0.2710 -0.8426  2.7677
 3257TIP3   OH231405   5.192   4.038   1.080 -0.0161 -0.2693 -0.0322
 3257TIP3    H131406   5.110   4.078   1.108  0.2296  0.6711 -0.5897
 3257TIP3    H231407   5.166   3.960   1.032 -0.5469 -0.3211  0.3247
 3258TIP3   OH231408   2.316   6.795   0.314  0.6260  0.0415  0.1948
 3258TIP3    H131409   2.322   6.884   0.281  2.0484 -0.4848 -1.0978
 3258TIP3    H231410   2.235   6.760   0.278  0.5033  0.5316 -0.0023
 3259TIP3   OH231411   3.810   3.023   8.210 -0.0847 -0.5909  0.0685
 3259TIP3    H131412   3.798   3.082   8.136  3.0476  0.2636  0.1040
 3259TIP3    H231413   3.796   2.936   8.173 -0.1536 -0.0912 -1.1410
 3260TIP3   OH231414   1.781   6.658   0.696  0.0070  0.4772  0.2462
 3260TIP3    H131415   1.796   6.568   0.669 -0.6203  0.5605 -0.4048
 3260TIP3    H231416   1.844   6.710   0.646 -1.1957  0.6386 -1.1716
 3261TIP3   OH231417   6.403   2.170   0.241 -0.0486  0.0469 -0.5099
 3261TIP3    H131418   6.442   2.093   0.201  3.3750  0.5882  1.3565
 3261TIP3    H231419   6.354   2.137   0.317  0.6361 -0.3735 -0.2473
 3262TIP3   OH231420   0.777   3.735   1.094 -0.4056  0.0329  0.6056
 3262TIP3    H131421   0.814   3.653   1.128 -0.2467 -0.3043 -0.3636
 3262TIP3    H231422   0.835   3.759   1.022 -2.4499 -0.9165 -1.4880
 3263TIP3   OH231423   6.151   4.851   8.758  0.2614  0.5675  0.0952
 3263TIP3    H131424   6.070   4.892   8.727  0.3555  0.1336 -0.7531
 3263TIP3    H231425   6.145   4.760   8.729  0.4409  0.1840  1.2215
 3264TIP3   OH231426   5.409   4.127   0.922 -0.3605  0.7748 -0.2628
 3264TIP3    H131427   5.323   4.120   0.963 -0.5199  1.3597 -0.4894
 3264TIP3    H231428   5.409   4.059   0.855 -1.4565  2.0921 -1.6845
 3265TIP3   OH231429   1.046   5.025   8.431  0.1002 -0.3301  0.3125
 3265TIP3    H131430   1.048   4.937   8.468 -1.7346  0.1339  1.6242
 3265TIP3    H231431   1.002   5.014   8.347  1.0886 -0.8376 -0.1605
 3266TIP3   OH231432   6.695   4.495   7.931  0.3501  0.9912 -0.4677
 3266TIP3    H131433   6.720   4.421   7.875 -2.2739 -0.3683  0.0020
 3266TIP3    H231434   6.764   4.499   7.997  0.2441 -1.5530 -0.0806
 3267TIP3   OH231435   3.247   3.542   1.107  0.4280 -0.1962  0.6581
 3267TIP3    H131436   3.194   3.463   1.097 -0.2231  0.3139 -0.0709
 3267TIP3    H231437   3.194   3.599   1.162  0.1113  0.3983 -0.2484
 3268TIP3   OH231438   2.681   5.951   7.472 -0.3509  0.4615  0.5332
 3268TIP3    H131439   2.636   5.872   7.503  0.1236 -0.3386 -0.7171
 3268TIP3    H231440   2.679   5.944   7.377 -0.9570  2.3677  0.3647
 3269TIP3   OH231441   2.538   5.880   0.444 -0.0532  0.5810 -0.0034
 3269TIP3    H131442   2.597   5.862   0.370 -1.8649  0.0690 -1.4005
 3269TIP3    H231443   2.512   5.971   0.432 -1.8062 -0.0176 -1.1666
 3270TIP3   OH231444   3.065   4.809   1.757  0.0985  0.3836 -0.2285
 3270TIP3    H131445   3.108   4.770   1.681 -0.4227  0.3262 -0.4958
 3270TIP3    H231446   3.041   4.735   1.812  2.6250  0.5028  1.2012
 3271TIP3   OH231447   5.136   2.262   8.355 -0.0863 -0.2236 -0.0994
 3271TIP3    H131448   5.203   2.195   8.365  0.0045 -0.1460 -0.1930
 3271TIP3    H231449   5.069   2.222   8.299 -0.1408 -0.3162  0.0306
 3272TIP3   OH231450   0.972   0.343   7.011 -0.2299  0.6084 -0.1823
 3272TIP3    H131451   0.982   0.392   7.092 -2.9815  0.6434  0.2359
 3272TIP3    H231452   1.006   0.402   6.943 -0.0510  1.5501  0.7051
 3273TIP3   OH231453   4.697   0.454   6.599  0.3348 -0.2340 -0.0895
 3273TIP3    H131454   4.783   0.445   6.641 -0.2679  0.5731  1.3674
 3273TIP3    H231455   4.710   0.522   6.533  1.2376 -1.3641 -1.1196
 3274TIP3   OH231456   1.875   4.510   1.920 -0.2812  0.4809 -0.3240
 3274TIP3    H131457   1.964   4.483   1.901 -1.4562 -2.3410 -2.6570
 3274TIP3    H231458   1.877   4.537   2.012  2.4531 -2.0011  0.5050
 3275TIP3   OH231459   5.197   1.555   8.687  0.6580  0.3347  0.0454
 3275TIP3    H131460   5.158   1.608   8.618  1.6588  1.5813  0.3948
 3275TIP3    H231461   5.239   1.618   8.746 -1.3089 -0.5538  2.5825
 3276TIP3   OH231462   4.829   3.379   0.268 -0.1022 -0.1973 -0.1684
 3276TIP3    H131463   4.864   3.467   0.282 -0.9671  0.0671  0.4120
 3276TIP3    H231464   4.902   3.330   0.230  0.7330  0.4750  0.5167
 3277TIP3   OH231465   1.013   6.592   0.269  0.0771 -0.0391 -0.5906
 3277TIP3    H131466   1.071   6.635   0.332 -0.5494 -1.8247  1.3121
 3277TIP3    H231467   0.952   6.661   0.241  1.0539  1.0476 -0.1019
 3278TIP3   OH231468   1.263   5.762   7.948 -0.4443  0.4861  0.1563
 3278TIP3    H131469   1.314   5.843   7.959  0.2938 -0.0108  0.4691
 3278TIP3    H231470   1.174   5.792   7.928  0.0435  1.3680 -0.7927
 3279TIP3   OH231471   1.180   4.886   7.495 -0.0658 -0.1023  0.5288
 3279TIP3    H131472   1.194   4.837   7.414  0.1183  2.0967 -0.8329
 3279TIP3    H231473   1.264   4.928   7.514 -0.1516 -0.4435  1.7969
 3280TIP3   OH231474   1.075   6.334   6.817 -0.1456 -0.0011 -0.0314
 3280TIP3    H131475   1.079   6.265   6.751 -1.2347  0.2558 -0.3835
 3280TIP3    H231476   1.163   6.373   6.817  0.0841 -0.5072 -0.7707
 3281TIP3   OH231477   5.370   0.847   0.102 -0.2444 -0.2531 -0.1259
 3281TIP3    H131478   5.358   0.888   0.187 -0.4524 -0.0901 -0.2350
 3281TIP3    H231479   5.282   0.837   0.067 -0.1202  0.1958 -0.5679
 3282TIP3   OH231480   0.480   3.066   0.018  0.2948 -0.5836  0.2202
 3282TIP3    H131481   0.431   2.984   0.012  1.4023 -1.4211  1.7606
 3282TIP3    H231482   0.571   3.041  -0.001  0.8174  0.0502  1.7067
 3283TIP3   OH231483   0.903   2.869   7.605 -0.4440 -0.4430  0.1464
 3283TIP3    H131484   0.928   2.949   7.559 -2.0807  0.0458  0.0410
 3283TIP3    H231485   0.986   2.828   7.629  0.4327  0.3978 -1.3153
 3284TIP3   OH231486   6.629   1.368   6.393  0.0462  0.3843  0.4150
 3284TIP3    H131487   6.706   1.312   6.392 -0.5650 -0.4803  0.1779
 3284TIP3    H231488   6.560   1.314   6.353 -0.2770  1.7192 -0.9092
 3285TIP3   OH231489   3.223   4.014   7.788 -0.0030  0.0583  0.0911
 3285TIP3    H131490   3.318   4.026   7.789 -0.0866  0.7261  0.3045
 3285TIP3    H231491   3.210   3.923   7.816  0.5870 -0.1692 -0.3368
 3286TIP3   OH231492   6.525   3.856   7.109  1.0210  0.0601 -0.0319
 3286TIP3    H131493   6.505   3.785   7.048 -1.0390  1.2835 -0.8965
 3286TIP3    H231494   6.598   3.903   7.067  1.9990 -1.1459  0.2558
 3287TIP3   OH231495   1.334   6.345   0.561  0.0073 -0.3818  0.4791
 3287TIP3    H131496   1.271   6.274   0.552 -0.1909 -0.2328  0.6601
 3287TIP3    H231497   1.413   6.313   0.519 -0.4064 -0.2890 -0.3969
 3288TIP3   OH231498   0.918   2.654   6.850 -0.2378  0.4043  0.3754
 3288TIP3    H131499   0.965   2.721   6.800  2.4070 -1.7137 -0.1986
 3288TIP3    H231500   0.857   2.616   6.787  1.1301 -0.4053 -0.5000
 3289TIP3   OH231501   2.422   2.740   7.591  0.3588 -0.3502 -0.9205
 3289TIP3    H131502   2.411   2.646   7.582 -0.8754 -0.0957 -2.6213
 3289TIP3    H231503   2.381   2.762   7.675 -0.9969 -1.1121 -1.3589
 3290TIP3   OH231504   2.195   6.182   8.493  0.4926 -0.3187 -0.2190
 3290TIP3    H131505   2.203   6.130   8.573  1.0695  0.2236  0.0853
 3290TIP3    H231506   2.228   6.269   8.518 -1.6351  0.5853 -0.3372
 3291TIP3   OH231507   2.233   1.664   1.553 -0.8804 -0.1250  0.0531
 3291TIP3    H131508   2.218   1.753   1.520 -0.8958  0.8724  2.5096
 3291TIP3    H231509   2.182   1.608   1.495 -0.2993  1.3512 -2.0197
 3292TIP3   OH231510   6.206   1.830   0.186 -0.1299 -0.1752 -0.0538
 3292TIP3    H131511   6.123   1.820   0.139 -0.8980  0.4906  1.0690
 3292TIP3    H231512   6.179   1.844   0.277  1.2371 -0.1789  0.3701
 3293TIP3   OH231513   3.194   6.034   6.938  0.8906  0.1201 -0.3371
 3293TIP3    H131514   3.234   6.121   6.928  0.9735  0.0597 -0.5326
 3293TIP3    H231515   3.215   5.988   6.856  0.2097  0.1725 -0.5516
 3294TIP3   OH231516   3.975   5.120   0.444 -0.3225  0.2866 -0.1852
 3294TIP3    H131517   3.966   5.173   0.523  0.7683 -0.7760  0.7079
 3294TIP3    H231518   3.979   5.030   0.477 -0.1496 -0.1996 -1.4811
 3295TIP3   OH231519   3.701   6.312   0.033 -0.9190  0.4925 -0.3421
 3295TIP3    H131520   3.620   6.336   0.078 -1.1594  0.4123 -0.7200
 3295TIP3    H231521   3.729   6.231   0.074 -0.9716  0.5789 -0.1360
 3296TIP3   OH231522   6.119   0.459   7.630 -0.0147  0.3521  0.4554
 3296TIP3    H131523   6.050   0.485   7.690  0.0589 -0.7511  1.0499
 3296TIP3    H231524   6.105   0.365   7.616  1.3848  0.0959  0.6234
 3297TIP3   OH231525   4.905   3.768   1.459 -0.0993 -0.1264 -0.4133
 3297TIP3    H131526   4.907   3.821   1.380  1.6549 -1.0372 -1.0495
 3297TIP3    H231527   4.834   3.804   1.511  0.1806  1.9635 -1.3919
 3298TIP3   OH231528   3.336   4.166   1.195  0.3189 -0.8307 -0.0954
 3298TIP3    H131529   3.421   4.210   1.196 -0.5515  0.9354  0.9230
 3298TIP3    H231530   3.309   4.167   1.103  1.9077 -2.5140 -0.6193
 3299TIP3   OH231531   3.575   6.705   8.528 -0.5928  0.7178 -0.0456
 3299TIP3    H131532   3.536   6.618   8.529 -1.0793  0.8357 -2.7149
 3299TIP3    H231533   3.641   6.703   8.598 -1.8251 -1.1545  1.1443
 3300TIP3   OH231534   5.437   3.193   7.942  0.3037  0.0931  0.7520
 3300TIP3    H131535   5.394   3.107   7.938  1.5638 -0.5347  0.1529
 3300TIP3    H231536   5.482   3.201   7.858 -0.9898  2.0195  0.1658
 3301TIP3   OH231537   5.597   6.574   7.042  0.0033 -0.1401  0.3421
 3301TIP3    H131538   5.573   6.493   6.998 -3.2009 -1.1327  3.4317
 3301TIP3    H231539   5.543   6.641   7.000 -0.6140 -0.4823  0.5657
 3302TIP3   OH231540   3.117   0.466   7.840 -0.5238 -0.0789 -0.3703
 3302TIP3    H131541   3.058   0.441   7.911 -0.4735  1.9102  0.4508
 3302TIP3    H231542   3.133   0.385   7.791 -1.9669 -1.1409  0.8378
 3303TIP3   OH231543   1.202   0.597   7.106  0.0758  0.0311  0.1981
 3303TIP3    H131544   1.190   0.653   7.029  0.2742 -1.0835 -0.6727
 3303TIP3    H231545   1.114   0.580   7.138  0.0381  1.4260  0.9415
 3304TIP3   OH231546   1.010   2.636   8.016 -0.0401  0.3030 -0.0382
 3304TIP3    H131547   1.099   2.671   8.013  0.1153 -0.1557 -1.0979
 3304TIP3    H231548   0.957   2.708   8.053  0.5715  0.9895 -0.4766
 3305TIP3   OH231549   0.336   3.945   0.878  0.4433 -0.3102 -0.4105
 3305TIP3    H131550   0.297   3.898   0.952  2.0594  0.3438  0.9498
 3305TIP3    H231551   0.429   3.923   0.884  0.6869  0.2510 -1.9069
 3306TIP3   OH231552   3.843   0.939   0.467  0.0733 -0.1024  0.3423
 3306TIP3    H131553   3.818   0.868   0.527  1.6085  0.4870  1.7695
 3306TIP3    H231554   3.760   0.972   0.434 -0.7048 -2.5135 -0.3616
 3307TIP3   OH231555   4.066   1.052   0.027 -0.3221 -0.6563  0.4858
 3307TIP3    H131556   4.079   0.957   0.017 -2.9732 -1.2930  2.1726
 3307TIP3    H231557   3.972   1.061   0.047  0.1075  2.2298  1.5743
 3308TIP3   OH231558   0.116   0.598   6.673  0.2880  0.2082 -0.1752
 3308TIP3    H131559   0.178   0.671   6.665 -0.4818  0.9360  0.3183
 3308TIP3    H231560   0.062   0.603   6.594 -1.5954  1.9579  1.1212
 3309TIP3   OH231561   5.932   5.796   8.269 -0.0291  0.3218  0.6527
 3309TIP3    H131562   5.972   5.764   8.188 -0.3537  0.4657  0.4340
 3309TIP3    H231563   5.969   5.883   8.283  0.3692  0.1126  0.9029
 3310TIP3   OH231564   0.175   1.157   7.930 -0.0241 -0.5646 -0.3337
 3310TIP3    H131565   0.175   1.208   7.849  0.1711 -1.6779 -1.0710
 3310TIP3    H231566   0.232   1.205   7.989  0.3561 -0.0599 -1.0935
 3311TIP3   OH231567   5.917   0.793   1.720  0.8635 -0.0701  0.5874
 3311TIP3    H131568   5.939   0.705   1.749  2.1046  0.2390  0.6295
 3311TIP3    H231569   5.981   0.849   1.763  0.9336  0.7069 -0.5033
 3312TIP3   OH231570   1.925   0.699   7.876  0.4243  0.8180  0.1040
 3312TIP3    H131571   1.942   0.629   7.938  0.1495 -1.4438 -2.1952
 3312TIP3    H231572   1.831   0.715   7.882  0.2982  0.1834 -0.1331
 3313TIP3   OH231573   1.509   6.737   7.317  0.3443 -0.0926  0.7486
 3313TIP3    H131574   1.421   6.755   7.284  0.7358 -0.3677 -0.4781
 3313TIP3    H231575   1.545   6.673   7.255  2.1171  1.4834  0.0831
 3314TIP3   OH231576   3.615   3.625   8.308 -0.8105 -0.8346  0.8558
 3314TIP3    H131577   3.551   3.693   8.288  0.6481 -0.3950 -3.3346
 3314TIP3    H231578   3.664   3.658   8.383 -3.1666  0.4037  1.9461
 3315TIP3   OH231579   2.046   0.642   7.589  0.2847  0.4688 -0.1971
 3315TIP3    H131580   1.958   0.633   7.554  0.6335  2.1222 -1.6198
 3315TIP3    H231581   2.035   0.634   7.683 -1.5485  1.6592 -0.2571
 3316TIP3   OH231582   1.121   4.305   6.793 -0.1148 -0.1608 -0.2480
 3316TIP3    H131583   1.196   4.336   6.844 -0.2209  1.4769 -1.0325
 3316TIP3    H231584   1.161   4.269   6.713 -0.1349  0.4078 -0.5181
 3317TIP3   OH231585   6.078   0.178   7.633 -0.2220 -0.4952  0.2201
 3317TIP3    H131586   6.169   0.177   7.603 -0.0293  1.1529  0.6891
 3317TIP3    H231587   6.084   0.177   7.728 -0.6087  1.2839  0.2983
 3318TIP3   OH231588   0.469   2.125   0.108 -0.2434 -0.1043  0.2600
 3318TIP3    H131589   0.425   2.198   0.153  0.0582  0.9686 -1.1112
 3318TIP3    H231590   0.467   2.150   0.016  2.4569 -0.4491  0.0453
 3319TIP3   OH231591   4.182   1.457   8.350 -0.3251  0.0605 -0.0362
 3319TIP3    H131592   4.255   1.398   8.371 -1.2756 -1.0277  0.2586
 3319TIP3    H231593   4.136   1.468   8.433 -0.3573  0.9815 -0.1603
 3320TIP3   OH231594   0.826   6.552   0.485 -0.1747 -0.1851 -0.3788
 3320TIP3    H131595   0.905   6.557   0.431 -0.3114  0.3563 -0.5370
 3320TIP3    H231596   0.858   6.528   0.572  0.4277  2.0836  0.0877
 3321TIP3   OH231597   5.154   2.564   6.879  0.0877 -0.1609  0.1289
 3321TIP3    H131598   5.225   2.624   6.859 -1.8757  2.6098  0.8630
 3321TIP3    H231599   5.132   2.524   6.795  0.6220  1.1624 -0.6755
 3322TIP3   OH231600   3.522   6.238   1.242 -0.3260 -0.0740  0.1432
 3322TIP3    H131601   3.491   6.307   1.299 -1.1670 -0.4487  0.1526
 3322TIP3    H231602   3.493   6.263   1.155  2.1901  1.2394 -0.4133
 3323TIP3   OH231603   3.278   4.358   0.530 -0.0328  0.0665  0.7480
 3323TIP3    H131604   3.261   4.446   0.498 -1.0138 -0.1141  0.7330
 3323TIP3    H231605   3.235   4.355   0.616  2.4343  0.5013  2.0957
 3324TIP3   OH231606   0.150   5.867   7.501  0.4520  0.4613  0.5507
 3324TIP3    H131607   0.228   5.839   7.453  0.6150 -0.3044  1.2509
 3324TIP3    H231608   0.136   5.799   7.566 -1.9481 -0.4449 -0.7811
 3325TIP3   OH231609   2.017   1.952   8.297  0.9488 -0.3531 -0.2684
 3325TIP3    H131610   1.970   1.870   8.309 -0.1295 -0.2624 -3.0524
 3325TIP3    H231611   2.105   1.926   8.270  1.3334 -0.5430  1.1093
 3326TIP3   OH231612   6.248   6.294   6.822 -0.1468 -0.0768 -0.2861
 3326TIP3    H131613   6.191   6.230   6.779  0.4272 -0.8025  0.0202
 3326TIP3    H231614   6.188   6.361   6.854 -0.8485 -0.8932  0.1454
 3327TIP3   OH231615   0.268   1.620   7.715  0.0644  0.0367  0.2379
 3327TIP3    H131616   0.246   1.631   7.807 -0.0269 -0.4105  0.2707
 3327TIP3    H231617   0.354   1.579   7.715 -0.7382 -1.7643  0.1668
 3328TIP3   OH231618   3.590   4.035   7.198  1.1021 -0.6190 -0.3132
 3328TIP3    H131619   3.659   3.995   7.146 -0.1749 -0.2391 -2.4661
 3328TIP3    H231620   3.636   4.089   7.262  2.7872 -1.2922 -0.8961
 3329TIP3   OH231621   4.116   3.597   2.176  0.1349 -0.3579  0.6123
 3329TIP3    H131622   4.022   3.613   2.181 -0.0733 -0.9080 -1.0079
 3329TIP3    H231623   4.124   3.502   2.168  0.7703 -0.2515 -0.1110
 3330TIP3   OH231624   1.680   5.074   6.920  0.5410 -0.7484 -0.0594
 3330TIP3    H131625   1.633   5.157   6.913  0.2936 -0.8658  0.1876
 3330TIP3    H231626   1.653   5.025   6.843  0.6705 -0.6113 -0.1948
 3331TIP3   OH231627   1.911   3.269   1.241 -0.2836 -0.0267 -0.2340
 3331TIP3    H131628   1.873   3.197   1.291  0.3484 -0.0053  0.2985
 3331TIP3    H231629   1.991   3.233   1.203  0.1319  0.4323  0.1823
 3332TIP3   OH231630   2.662   2.290   6.956  0.4003 -0.1319  0.0737
 3332TIP3    H131631   2.660   2.238   7.037 -0.0239 -1.9203 -1.0149
 3332TIP3    H231632   2.744   2.338   6.960  0.8348 -0.9161  1.1391
 3333TIP3   OH231633   5.697   4.453   8.038  0.1691  0.2052 -0.3929
 3333TIP3    H131634   5.657   4.495   8.115  1.0812  0.4693 -0.0484
 3333TIP3    H231635   5.755   4.387   8.075  0.5483  0.2721 -0.8655
 3334TIP3   OH231636   0.070   5.428   1.296  0.0625 -0.0450 -0.9363
 3334TIP3    H131637   0.049   5.374   1.373 -1.1368 -0.0112 -1.2307
 3334TIP3    H231638   0.166   5.430   1.294  0.2640  2.4801  2.3653
 3335TIP3   OH231639   6.456   5.045   1.495 -0.0268  0.4568  0.2045
 3335TIP3    H131640   6.523   5.110   1.516  0.0978  0.0969  0.9432
 3335TIP3    H231641   6.505   4.968   1.465 -0.1850  0.8120 -1.0443
 3336TIP3   OH231642   5.513   4.857   7.083  0.0848  0.0387 -0.1350
 3336TIP3    H131643   5.550   4.797   7.019 -1.6893  0.0961 -1.2706
 3336TIP3    H231644   5.463   4.800   7.143 -0.8502  0.2550 -0.6835
 3337TIP3   OH231645   5.806   1.299   7.781  0.0229 -0.1747  0.2065
 3337TIP3    H131646   5.805   1.205   7.764 -0.3237 -0.5044  1.8590
 3337TIP3    H231647   5.771   1.307   7.870  3.4917  1.1737  1.6369
 3338TIP3   OH231648   1.427   2.443   0.680 -0.0212 -0.4202  0.2029
 3338TIP3    H131649   1.432   2.457   0.775 -0.9719 -0.7848  0.3115
 3338TIP3    H231650   1.491   2.374   0.663 -1.3928 -1.9150  0.9196
 3339TIP3   OH231651   2.845   1.284   0.080  0.3319  1.1135 -0.1019
 3339TIP3    H131652   2.812   1.287  -0.010  1.3761 -0.5489 -0.5960
 3339TIP3    H231653   2.767   1.267   0.133  0.0899 -1.2744 -1.0889
 3340TIP3   OH231654   1.524   6.454   6.917  0.1481 -0.0157  0.1395
 3340TIP3    H131655   1.455   6.474   6.854  1.5730  0.0048 -1.4756
 3340TIP3    H231656   1.532   6.358   6.913  0.3174 -0.0034  0.2033
 3341TIP3   OH231657   3.863   5.508   1.287 -0.2951  0.1050  0.0690
 3341TIP3    H131658   3.781   5.459   1.279 -0.1245 -0.2053  0.1987
 3341TIP3    H231659   3.866   5.565   1.210  1.0515 -2.3863 -1.8478
 3342TIP3   OH231660   4.469   2.077   2.125 -0.1903 -0.2516  0.8574
 3342TIP3    H131661   4.481   2.013   2.195  0.7550 -2.4513 -1.1867
 3342TIP3    H231662   4.379   2.062   2.094 -0.8217  1.1265  1.8864
 3343TIP3   OH231663   2.424   2.283   0.770  0.2748 -0.0829 -0.3196
 3343TIP3    H131664   2.454   2.368   0.802  1.0278  0.0100 -1.2233
 3343TIP3    H231665   2.385   2.302   0.685 -0.5450 -0.4942 -0.0410
 3344TIP3   OH231666   3.224   6.158   8.245 -0.5940 -0.3498  0.0402
 3344TIP3    H131667   3.286   6.161   8.173 -0.6111 -0.3054  0.0266
 3344TIP3    H231668   3.153   6.217   8.218 -0.8411 -0.7210 -0.1268
 3345TIP3   OH231669   5.666   6.803   8.322  0.0481  0.6475  0.1697
 3345TIP3    H131670   5.602   6.857   8.370  0.3246  0.2349  1.0267
 3345TIP3    H231671   5.659   6.717   8.362  0.7861  0.4720 -0.0743
 3346TIP3   OH231672   1.785   5.837   8.075 -0.1592  0.2570  0.2091
 3346TIP3    H131673   1.730   5.761   8.096  0.0217 -0.1944 -0.8574
 3346TIP3    H231674   1.857   5.800   8.024  1.3973  0.7712  1.9538
 3347TIP3   OH231675   0.566   5.845   1.678  0.7386 -0.3352 -0.1124
 3347TIP3    H131676   0.591   5.835   1.586 -0.0846 -0.4668 -0.3266
 3347TIP3    H231677   0.637   5.896   1.717  1.2448 -0.5439 -0.7470
 3348TIP3   OH231678   5.787   1.013   1.060 -0.1514  0.4094  0.2092
 3348TIP3    H131679   5.808   0.974   0.975  0.0027 -1.7947  1.1816
 3348TIP3    H231680   5.775   1.106   1.041  1.9890  0.3634 -1.8475
 3349TIP3   OH231681   1.813   0.599   7.405  0.8541  0.1982 -0.3239
 3349TIP3    H131682   1.767   0.527   7.361  0.0856  0.9535 -0.7875
 3349TIP3    H231683   1.795   0.675   7.350  2.7325  0.5093 -0.5580
 3350TIP3   OH231684   6.025   6.627   7.917 -0.4281 -0.3843 -0.3294
 3350TIP3    H131685   6.087   6.569   7.963 -0.1528 -0.1333 -0.3792
 3350TIP3    H231686   5.939   6.600   7.948 -0.4052 -1.6995 -1.3228
 3351TIP3   OH231687   2.212   6.420   7.133 -0.3253 -0.2198  0.2427
 3351TIP3    H131688   2.242   6.356   7.068  0.4932 -0.4053  0.7878
 3351TIP3    H231689   2.176   6.492   7.081  2.1898  0.5807 -0.5282
 3352TIP3   OH231690   3.789   2.907   8.471  0.1829 -0.0055  0.0769
 3352TIP3    H131691   3.816   2.956   8.394 -0.6791  1.7964  0.8573
 3352TIP3    H231692   3.693   2.907   8.468 -0.0071  2.3993  2.3936
 3353TIP3   OH231693   5.090   3.495   6.170  0.0467 -0.0875  0.3536
 3353TIP3    H131694   5.038   3.471   6.247  1.4231 -0.0058  1.3465
 3353TIP3    H231695   5.038   3.466   6.096 -0.9434 -0.9288  1.3468
 3354TIP3   OH231696   3.613   5.755   7.367  0.0979 -0.5880 -0.3582
 3354TIP3    H131697   3.618   5.798   7.282  0.0490 -1.9492 -1.0720
 3354TIP3    H231698   3.519   5.749   7.385  0.1333  0.5884  0.2700
 3355TIP3   OH231699   2.898   4.947   7.017  0.1906 -0.1227 -0.2826
 3355TIP3    H131700   2.819   4.908   6.979 -0.1071  0.5306 -0.3398
 3355TIP3    H231701   2.867   4.994   7.094  0.8424 -1.7786  1.0539
 3356TIP3   OH231702   5.322   2.758   6.519  0.2591 -0.5133  0.2250
 3356TIP3    H131703   5.373   2.833   6.489  0.9095 -1.4661 -1.1898
 3356TIP3    H231704   5.231   2.788   6.518  0.3641 -0.1178 -1.6965
 3357TIP3   OH231705   6.474   6.383   7.384 -0.6400  0.1203 -0.5304
 3357TIP3    H131706   6.568   6.367   7.377 -0.4838  1.2176 -1.1841
 3357TIP3    H231707   6.434   6.298   7.363  0.1861 -0.2154 -0.8003
 3358TIP3   OH231708   0.585   0.061   1.176 -0.3929 -0.2364 -0.0227
 3358TIP3    H131709   0.581   0.084   1.083  1.3451  0.8115  0.1074
 3358TIP3    H231710   0.589  -0.035   1.177  1.6155 -0.2129 -1.1799
 3359TIP3   OH231711   2.111   4.904   8.095  0.1918  0.2915 -0.3456
 3359TIP3    H131712   2.123   4.991   8.134 -0.9044  0.7015 -0.8829
 3359TIP3    H231713   2.123   4.919   8.001  0.5286 -0.2488 -0.3912
 3360TIP3   OH231714   3.836   2.324   7.496  0.3012 -0.2631  0.2175
 3360TIP3    H131715   3.790   2.260   7.551  0.4954 -0.3544  0.2750
 3360TIP3    H231716   3.837   2.404   7.548  0.5914 -0.3825  0.4035
 3361TIP3   OH231717   5.128   0.950   7.916  0.0716 -0.3432 -0.1223
 3361TIP3    H131718   5.156   1.016   7.980  0.1124 -0.0780 -0.4117
 3361TIP3    H231719   5.199   0.947   7.852  0.3029 -1.0299  0.1537
 3362TIP3   OH231720   2.329   2.358   0.502 -0.3520  0.1392  0.1032
 3362TIP3    H131721   2.278   2.278   0.515  0.7009 -0.6404 -0.4149
 3362TIP3    H231722   2.278   2.409   0.440 -0.2400 -0.8971 -0.8731
 3363TIP3   OH231723   1.813   0.269   0.547 -0.5317  0.2812  0.3616
 3363TIP3    H131724   1.840   0.346   0.496  0.4703 -1.3825 -1.8242
 3363TIP3    H231725   1.718   0.265   0.536 -0.6769  1.4827  0.9844
 3364TIP3   OH231726   4.185   2.533   2.162  0.5340  0.5015 -0.2620
 3364TIP3    H131727   4.257   2.585   2.198  1.0655 -1.4909  1.7885
 3364TIP3    H231728   4.106   2.579   2.191  0.9575  1.5351 -0.6941
 3365TIP3   OH231729   1.516   1.822   0.383  0.1246 -0.2203 -0.0218
 3365TIP3    H131730   1.482   1.884   0.318  0.4079  0.5551  0.5615
 3365TIP3    H231731   1.438   1.776   0.414 -0.0081 -0.6545 -0.9554
 3366TIP3   OH231732   5.843   4.889   7.644  0.1983 -0.1496 -0.2506
 3366TIP3    H131733   5.907   4.893   7.573  0.2941  1.4135 -0.1076
 3366TIP3    H231734   5.894   4.863   7.721  0.3010 -0.7542 -0.5195
 3367TIP3   OH231735   4.432   3.480   0.842 -0.2098  0.6457  0.0729
 3367TIP3    H131736   4.419   3.527   0.760  0.9228  0.3749 -0.2929
 3367TIP3    H231737   4.473   3.544   0.901 -0.9911  0.8310  0.4233
 3368TIP3   OH231738   6.349   6.038   1.238  0.2453 -0.4591  0.8639
 3368TIP3    H131739   6.325   6.111   1.181 -0.1298 -1.1078  0.1622
 3368TIP3    H231740   6.274   5.979   1.233  1.4524 -1.9948 -0.4545
 3369TIP3   OH231741   0.539   5.236   7.732 -0.0883  0.1291 -0.1779
 3369TIP3    H131742   0.608   5.213   7.669  2.6960  2.2423  1.8670
 3369TIP3    H231743   0.525   5.330   7.719 -2.6921 -0.2039 -0.4682
 3370TIP3   OH231744   2.141   0.006   6.976 -0.6829 -0.5035 -0.0146
 3370TIP3    H131745   2.204   0.061   6.928 -0.0587 -1.2343 -0.0488
 3370TIP3    H231746   2.159   0.025   7.068  0.5887 -1.7596  0.0296
 3371TIP3   OH231747   0.274   6.720   1.110  0.2268 -0.5347 -1.2007
 3371TIP3    H131748   0.191   6.679   1.131 -0.0179  0.0579 -0.9725
 3371TIP3    H231749   0.250   6.805   1.072  0.7197 -0.4420 -1.3172
 3372TIP3   OH231750   1.194   0.435   8.241  0.1971  0.0368  0.3669
 3372TIP3    H131751   1.100   0.417   8.233  0.2741 -0.1037 -0.3546
 3372TIP3    H231752   1.201   0.529   8.224  0.0353  0.3550  1.9245
 3373TIP3   OH231753   0.549   2.775   6.978 -0.6514  0.1096 -0.0590
 3373TIP3    H131754   0.633   2.770   6.932 -0.8367 -0.6451 -0.3249
 3373TIP3    H231755   0.493   2.827   6.920 -0.7917 -0.5841 -0.5629
 3374TIP3   OH231756   0.437   3.643   0.380  0.0189  0.4077  0.1923
 3374TIP3    H131757   0.348   3.619   0.406  0.4007 -0.8828  0.3828
 3374TIP3    H231758   0.474   3.685   0.458 -0.6190  1.5498 -0.0994
 3375TIP3   OH231759   2.651   3.242   8.361 -0.0551 -0.6098 -0.2401
 3375TIP3    H131760   2.674   3.193   8.440 -0.8528 -1.9240 -0.7920
 3375TIP3    H231761   2.570   3.202   8.330 -1.0350  1.4309 -0.4378
 3376TIP3   OH231762   1.333   2.811   7.271  0.0228 -0.0400  0.0901
 3376TIP3    H131763   1.324   2.836   7.179 -1.9649  0.8374  0.4696
 3376TIP3    H231764   1.312   2.890   7.320  0.8590 -0.5492  1.3235
 3377TIP3   OH231765   5.921   4.600   1.171 -0.2447 -0.4607  1.2010
 3377TIP3    H131766   5.938   4.585   1.264 -2.0140 -2.8761  1.2113
 3377TIP3    H231767   5.947   4.691   1.157 -0.6557  0.2402  4.2287
 3378TIP3   OH231768   5.398   3.001   0.795 -0.7656  0.3929  0.2232
 3378TIP3    H131769   5.427   2.970   0.881  0.1531  0.9169  0.1153
 3378TIP3    H231770   5.322   2.947   0.774  0.4295 -1.4144  0.3068
 3379TIP3   OH231771   6.506   4.118   7.139  0.5203 -0.4036 -0.3087
 3379TIP3    H131772   6.505   4.116   7.234  2.2789 -0.6883 -0.2604
 3379TIP3    H231773   6.520   4.027   7.112  0.0125 -0.3319 -0.8360
 3380TIP3   OH231774   3.977   3.707   0.543  0.0606  0.2935  0.1665
 3380TIP3    H131775   3.899   3.737   0.590 -1.6201  0.4243 -2.5052
 3380TIP3    H231776   3.981   3.613   0.561  0.1670  0.5186  1.4393
 3381TIP3   OH231777   0.367   3.181   6.487 -0.0117  0.6193 -0.4935
 3381TIP3    H131778   0.336   3.271   6.499 -0.6064  0.1231  2.4461
 3381TIP3    H231779   0.299   3.127   6.527  1.9953 -0.8959  1.0629
 3382TIP3   OH231780   3.354   3.316   8.375  0.0283 -0.5183 -0.0394
 3382TIP3    H131781   3.302   3.389   8.342 -1.5779 -2.4733 -2.2492
 3382TIP3    H231782   3.423   3.304   8.310  0.6413 -0.6235  0.6176
 3383TIP3   OH231783   1.004   1.494   2.155 -0.4070  0.1003  0.3808
 3383TIP3    H131784   1.022   1.515   2.247 -0.1160 -0.5209  0.4674
 3383TIP3    H231785   1.075   1.436   2.129 -1.2752 -0.8987  0.1920
 3384TIP3   OH231786   3.881   1.895   7.968 -0.0946  0.5069  0.0037
 3384TIP3    H131787   3.847   1.952   7.898 -0.7667  0.7525  0.5165
 3384TIP3    H231788   3.836   1.926   8.047  1.2598  0.7664  0.6947
 3385TIP3   OH231789   0.717   2.342   1.654  0.3057 -0.0777 -0.2905
 3385TIP3    H131790   0.679   2.318   1.569  2.6546  0.2441 -1.5176
 3385TIP3    H231791   0.659   2.410   1.687 -0.9417 -0.5430 -1.4036
 3386TIP3   OH231792   5.019   3.527   8.741  0.1125  0.8012  0.4032
 3386TIP3    H131793   4.925   3.536   8.759 -0.0195  0.2643  0.0187
 3386TIP3    H231794   5.053   3.479   8.817  0.3035  2.0195  1.1093
 3387TIP3   OH231795   5.226   1.338   1.693  0.1951 -0.4645 -0.1519
 3387TIP3    H131796   5.206   1.385   1.611  0.3435 -0.9441 -0.4655
 3387TIP3    H231797   5.157   1.364   1.753  0.7651  0.8794 -0.0294
 3388TIP3   OH231798   4.237   0.065   6.778 -0.1889 -0.2415 -0.5421
 3388TIP3    H131799   4.317   0.013   6.783 -0.4969 -0.9383 -2.2368
 3388TIP3    H231800   4.247   0.117   6.698 -1.4649 -0.4420 -0.8602
 3389TIP3   OH231801   4.864   2.651   0.233 -0.2430 -0.1779  0.0921
 3389TIP3    H131802   4.882   2.734   0.277 -0.6994  0.8514 -1.5657
 3389TIP3    H231803   4.780   2.622   0.270  0.1439 -0.1550  1.0133
 3390TIP3   OH231804   6.404   2.606   7.362 -0.2072  0.2441 -0.4411
 3390TIP3    H131805   6.432   2.519   7.393 -1.3540  0.4103  1.2045
 3390TIP3    H231806   6.321   2.590   7.318 -0.8933  0.5812  0.6780
 3391TIP3   OH231807   0.835   4.673   8.413  0.1292  0.1379  0.0180
 3391TIP3    H131808   0.765   4.738   8.423 -0.0165  0.5776 -2.9172
 3391TIP3    H231809   0.914   4.717   8.444 -0.4663  0.5326  1.0330
 3392TIP3   OH231810   3.362   5.264   0.362 -0.3184  0.0623  0.7140
 3392TIP3    H131811   3.348   5.178   0.322 -0.4605 -0.5869  2.0883
 3392TIP3    H231812   3.401   5.244   0.447 -2.3975  1.2121  2.0171
 3393TIP3   OH231813   2.745   2.351   7.221  0.2735 -0.3299 -0.1451
 3393TIP3    H131814   2.722   2.438   7.254 -0.0703 -0.1717 -0.7799
 3393TIP3    H231815   2.672   2.296   7.247  0.0996 -0.2491 -0.4584
 3394TIP3   OH231816   0.484   1.335   0.048 -0.1244  0.0829 -0.7075
 3394TIP3    H131817   0.435   1.259   0.080 -0.2429  0.4828  0.0975
 3394TIP3    H231818   0.447   1.409   0.097 -0.3726  0.7434 -1.8461
 3395TIP3   OH231819   3.111   4.791   8.435  0.3890 -0.0651 -0.6347
 3395TIP3    H131820   3.180   4.728   8.456  1.0961  1.1676  0.9081
 3395TIP3    H231821   3.156   4.863   8.393  0.1219  0.9021  0.6831
 3396TIP3   OH231822   3.498   3.302   0.158 -0.7624  0.0683 -0.0799
 3396TIP3    H131823   3.509   3.250   0.237 -2.1085  0.7764  0.6140
 3396TIP3    H231824   3.562   3.372   0.166  0.0938 -0.6752 -0.3349
 3397TIP3   OH231825   0.706   3.233   1.404 -0.5311  0.2761 -0.4620
 3397TIP3    H131826   0.777   3.232   1.469 -1.4156 -0.6867  0.5156
 3397TIP3    H231827   0.748   3.268   1.325  0.8786  0.3139  0.2582
 3398TIP3   OH231828   0.229   1.654   6.690 -0.8374 -0.0551  0.2985
 3398TIP3    H131829   0.145   1.680   6.652 -0.4240  2.0116  0.6711
 3398TIP3    H231830   0.212   1.566   6.726 -2.4511 -0.2301 -0.7605
 3399TIP3   OH231831   5.631   2.762   0.233 -0.1356  0.2388 -0.1705
 3399TIP3    H131832   5.556   2.714   0.268 -0.9172 -0.2143 -2.2948
 3399TIP3    H231833   5.701   2.746   0.295 -1.8015  0.7873  1.9595
 3400TIP3   OH231834   5.851   3.849   2.228  0.6405  0.4339 -0.0318
 3400TIP3    H131835   5.828   3.835   2.320 -1.2649  0.3610 -0.4960
 3400TIP3    H231836   5.864   3.761   2.192  0.8552  0.4401  0.0271
 3401TIP3   OH231837   1.027   3.373   6.928 -0.0534  0.4454  0.5531
 3401TIP3    H131838   1.059   3.324   7.005 -0.3058  0.8002  0.8873
 3401TIP3    H231839   0.940   3.337   6.912  0.0190  0.3365  0.3975
 3402TIP3   OH231840   5.124   5.660   7.041 -0.0986 -0.2035  0.2204
 3402TIP3    H131841   5.061   5.602   7.084  0.0325 -1.2281 -0.9157
 3402TIP3    H231842   5.103   5.654   6.948  1.2124  0.0039 -0.1099
 3403TIP3   OH231843   4.263   2.218   0.957  0.3765  0.1090 -0.1905
 3403TIP3    H131844   4.272   2.125   0.936  1.8512  0.2675 -0.3399
 3403TIP3    H231845   4.348   2.243   0.993 -1.0815  0.5550  3.3263
 3404TIP3   OH231846   3.401   2.512   6.872  0.1969 -0.2534  0.0190
 3404TIP3    H131847   3.314   2.480   6.895 -0.7180  1.3855 -1.0055
 3404TIP3    H231848   3.423   2.465   6.791 -0.8938  1.1794 -1.1607
 3405TIP3   OH231849   0.663   2.818   6.713  0.3402 -0.2339  0.8049
 3405TIP3    H131850   0.610   2.852   6.641 -0.8149 -1.5569  0.9863
 3405TIP3    H231851   0.725   2.758   6.672 -1.0877 -1.8885  0.9876
 3406TIP3   OH231852   1.268   1.859   7.500 -0.1128  0.1034  0.6756
 3406TIP3    H131853   1.338   1.827   7.558  0.7436 -2.2640 -1.4871
 3406TIP3    H231854   1.194   1.801   7.518  0.1384 -0.6058 -0.4723
 3407TIP3   OH231855   6.603   3.676   0.272 -0.3624  0.1304  0.7771
 3407TIP3    H131856   6.607   3.748   0.335  1.0169  1.0082 -0.2603
 3407TIP3    H231857   6.687   3.679   0.227 -1.2475 -0.5566 -1.0145
 3408TIP3   OH231858   1.519   4.013   7.305 -0.5277  0.1207 -0.4453
 3408TIP3    H131859   1.466   4.003   7.385 -1.0646  1.0731 -0.6669
 3408TIP3    H231860   1.553   4.102   7.310  2.4307 -0.9265  0.4797
 3409TIP3   OH231861   0.393   6.202   7.954  0.7727 -0.3579  0.1146
 3409TIP3    H131862   0.460   6.173   8.015  0.2247 -0.9753  0.4332
 3409TIP3    H231863   0.353   6.278   7.996 -0.0250 -1.1521  0.8359
 3410TIP3   OH231864   6.088   3.018   1.861  0.5065  0.5063 -0.2829
 3410TIP3    H131865   6.115   3.026   1.952 -0.7605  3.1754 -0.0278
 3410TIP3    H231866   6.093   3.107   1.826 -3.5504  0.5244 -1.3796
 3411TIP3   OH231867   4.271   2.947   6.217 -0.3281 -0.2595  0.0977
 3411TIP3    H131868   4.328   2.882   6.258 -0.9810  0.2429  1.8779
 3411TIP3    H231869   4.331   3.004   6.168  0.6641 -0.1050  1.4441
 3412TIP3   OH231870   0.181   4.840   8.033 -0.3231  0.4235  0.6264
 3412TIP3    H131871   0.092   4.820   8.003  1.1823 -2.4468 -2.7509
 3412TIP3    H231872   0.191   4.934   8.019 -2.2224  0.4806 -0.7577
 3413TIP3   OH231873   1.789   1.203   1.976 -0.0164 -0.3922 -0.1353
 3413TIP3    H131874   1.857   1.135   1.977  1.5617  1.0955 -0.8429
 3413TIP3    H231875   1.796   1.245   2.061 -0.3955 -0.5454 -0.0270
 3414TIP3   OH231876   0.606   5.872   8.732 -0.1126 -0.1370 -0.3767
 3414TIP3    H131877   0.530   5.850   8.784 -0.2290  0.7164 -0.1683
 3414TIP3    H231878   0.661   5.794   8.734  0.0867  0.0071  1.3813
 3415TIP3   OH231879   0.603   2.377   7.800 -0.5337 -0.4707 -0.2712
 3415TIP3    H131880   0.519   2.396   7.759 -0.3092 -0.4799 -0.7449
 3415TIP3    H231881   0.651   2.460   7.796 -1.2186  0.0812  1.7431
 3416TIP3   OH231882   2.664   0.822   2.027  0.6657 -0.2617  0.3689
 3416TIP3    H131883   2.725   0.896   2.026  1.1670 -0.6576  0.9402
 3416TIP3    H231884   2.718   0.746   2.005 -0.0820 -0.3196 -1.4914
 3417TIP3   OH231885   4.732   0.026   1.349  0.2919  0.6023  0.2002
 3417TIP3    H131886   4.747  -0.062   1.383  0.7904  0.6501  0.1081
 3417TIP3    H231887   4.648   0.052   1.386 -0.2394 -0.2098 -0.3761
 3418TIP3   OH231888   4.904   6.589   1.749 -0.1186  0.3353 -0.3784
 3418TIP3    H131889   4.822   6.608   1.793  0.2145 -0.2818  0.5401
 3418TIP3    H231890   4.913   6.659   1.684 -0.6418  1.2553  0.5086
 3419TIP3   OH231891   2.244   0.314   7.863 -0.2214 -0.7763 -0.2253
 3419TIP3    H131892   2.225   0.359   7.780  0.5719 -0.9837 -0.5274
 3419TIP3    H231893   2.336   0.334   7.880 -0.2065 -1.2698  0.2801
 3420TIP3   OH231894   5.793   5.807   0.132 -0.4032 -0.1800  0.5733
 3420TIP3    H131895   5.729   5.784   0.200 -0.6763  0.4264  0.5223
 3420TIP3    H231896   5.799   5.902   0.135  1.8477 -0.3022  1.7912
 3421TIP3   OH231897   2.267   3.047   8.018 -0.9249 -0.5716  0.8098
 3421TIP3    H131898   2.241   3.042   7.926  0.2730  0.6560  0.3586
 3421TIP3    H231899   2.250   3.138   8.043 -0.6805 -0.7374  1.6150
 3422TIP3   OH231900   3.147   2.569   8.661 -0.0075 -0.1050 -0.1694
 3422TIP3    H131901   3.233   2.593   8.627 -0.4478 -0.5992 -1.7102
 3422TIP3    H231902   3.141   2.615   8.745  2.2144 -0.9566  0.5475
 3423TIP3   OH231903   1.198   0.976   8.480  0.0121 -0.5465  0.0381
 3423TIP3    H131904   1.148   0.896   8.495  0.4287 -0.9481 -0.7098
 3423TIP3    H231905   1.242   0.963   8.396 -0.3113  0.6725 -0.3422
 3424TIP3   OH231906   1.061   0.867   1.499  0.0514  1.0570 -0.2680
 3424TIP3    H131907   1.034   0.953   1.466  1.2431  2.0081  1.1478
 3424TIP3    H231908   1.144   0.882   1.543  0.6385 -0.9646 -0.5456
 3425TIP3   OH231909   3.569   5.027   1.210 -0.7003  0.2636 -0.2589
 3425TIP3    H131910   3.638   5.094   1.218 -0.9753  0.5290 -0.0828
 3425TIP3    H231911   3.536   5.017   1.299  0.9557 -1.8526  0.2040
 3426TIP3   OH231912   2.226   3.032   7.119 -0.2115  0.6881 -0.1234
 3426TIP3    H131913   2.236   2.945   7.079 -0.6298  1.3699 -1.7779
 3426TIP3    H231914   2.135   3.056   7.100 -1.0043  0.3329  2.8043
 3427TIP3   OH231915   1.807   6.214   8.465  0.0701  0.1253  0.5808
 3427TIP3    H131916   1.895   6.246   8.450  0.3025  0.4610  2.4667
 3427TIP3    H231917   1.806   6.126   8.427  0.5614  0.8601 -1.2478
 3428TIP3   OH231918   6.141   3.899   8.498  0.4473  0.0222  0.1727
 3428TIP3    H131919   6.164   3.896   8.591  1.2119  0.7195  0.0134
 3428TIP3    H231920   6.056   3.943   8.496  1.3028  1.7782  0.4092
 3429TIP3   OH231921   2.317   1.461   6.741  0.1883  0.4431 -0.0289
 3429TIP3    H131922   2.262   1.521   6.792  0.3005  1.1003 -0.6684
 3429TIP3    H231923   2.257   1.394   6.709 -0.0515  0.5659  0.1627
 3430TIP3   OH231924   5.168   4.448   8.518  1.3775 -0.0613  0.8481
 3430TIP3    H131925   5.202   4.493   8.595 -0.9842  0.3844  1.7319
 3430TIP3    H231926   5.177   4.354   8.538  0.6095  0.0501  1.8019
 3431TIP3   OH231927   4.145   5.789   0.614  0.1253 -0.8418 -0.7654
 3431TIP3    H131928   4.062   5.822   0.649  0.9979  2.0312 -1.1835
 3431TIP3    H231929   4.169   5.719   0.674 -0.9784  0.4705  1.3523
 3432TIP3   OH231930   0.288   0.901   1.607  0.0575 -0.4351  0.8908
 3432TIP3    H131931   0.315   0.945   1.688  0.0443  0.2318  0.5396
 3432TIP3    H231932   0.227   0.833   1.636  1.7164 -1.6670  1.6558
 3433TIP3   OH231933   1.138   3.078   6.572 -0.0004 -0.2414 -0.2273
 3433TIP3    H131934   1.233   3.086   6.581  0.0154  2.7820 -1.6905
 3433TIP3    H231935   1.104   3.164   6.597 -2.3539 -1.1737  0.0405
 3434TIP3   OH231936   5.309   1.346   8.214 -0.2897 -0.4256  0.5582
 3434TIP3    H131937   5.384   1.393   8.176 -1.2910 -0.6311 -1.8628
 3434TIP3    H231938   5.264   1.412   8.266 -0.6950  0.9053 -1.3589
 3435TIP3   OH231939   2.734   4.509   1.219 -0.2661 -0.4538  0.4439
 3435TIP3    H131940   2.680   4.430   1.219 -1.6379  0.4609  0.0422
 3435TIP3    H231941   2.676   4.578   1.189  0.5154  1.0114  2.1456
 3436TIP3   OH231942   1.940   4.482   1.010  0.6440 -0.0231 -0.2127
 3436TIP3    H131943   1.850   4.480   1.045  0.8209  1.1494  0.3330
 3436TIP3    H231944   1.929   4.504   0.917  0.2439 -2.0802 -0.6965
 3437TIP3   OH231945   6.732   6.258   7.312 -0.4597  0.0473 -0.3872
 3437TIP3    H131946   6.748   6.191   7.378 -1.9850 -0.5662 -0.5940
 3437TIP3    H231947   6.782   6.229   7.236 -1.2607 -0.9975 -0.5374
 3438TIP3   OH231948   2.496   3.149   7.715 -0.7351  0.1196  0.3181
 3438TIP3    H131949   2.528   3.071   7.761  0.6843  0.2745 -0.3548
 3438TIP3    H231950   2.468   3.116   7.629 -1.1948  0.1822  0.4424
 3439TIP3   OH231951   2.754   0.837   8.099  0.1917 -0.2026 -0.7211
 3439TIP3    H131952   2.786   0.913   8.050  1.1683 -0.2302 -0.1568
 3439TIP3    H231953   2.726   0.775   8.031  1.1840 -0.0950 -1.2538
 3440TIP3   OH231954   5.965   1.338   1.833 -0.7834 -0.4292  0.4826
 3440TIP3    H131955   6.043   1.346   1.888 -1.8071  0.3410  1.8714
 3440TIP3    H231956   5.929   1.252   1.855 -1.3905  0.0259  1.3198
 3441TIP3   OH231957   4.156   0.784   0.817 -0.2642  0.2309 -0.0613
 3441TIP3    H131958   4.120   0.719   0.878 -0.5487  0.4053 -0.0439
 3441TIP3    H231959   4.134   0.750   0.730 -0.1101  0.1282 -0.0603
 3442TIP3   OH231960   1.924   0.709   1.536 -0.1580 -0.5473 -0.0585
 3442TIP3    H131961   1.958   0.673   1.454 -0.8437 -0.7012 -0.2862
 3442TIP3    H231962   1.994   0.764   1.569  0.5570 -1.3651 -0.1791
 3443TIP3   OH231963   0.619   4.365   1.267 -0.2504  0.3126  0.1835
 3443TIP3    H131964   0.684   4.372   1.196 -1.3754  1.6750 -0.7742
 3443TIP3    H231965   0.557   4.436   1.249 -0.4225  0.8879  2.7316
 3444TIP3   OH231966   6.231   2.554   1.685 -0.4720 -0.0479  0.2575
 3444TIP3    H131967   6.242   2.632   1.630 -0.8891 -1.3313 -1.7664
 3444TIP3    H231968   6.267   2.482   1.632 -1.4817 -1.4558  1.3938
 3445TIP3   OH231969   2.610   1.276   0.222 -0.0820 -0.0662 -0.4145
 3445TIP3    H131970   2.533   1.219   0.218 -0.9642  1.1098 -0.4729
 3445TIP3    H231971   2.577   1.360   0.253  1.2328  0.3874 -0.1734
 3446TIP3   OH231972   2.387   0.351   1.100  0.2143 -0.3825 -0.1964
 3446TIP3    H131973   2.468   0.382   1.060  0.1595  2.0950  1.4434
 3446TIP3    H231974   2.326   0.343   1.027  1.3157 -0.2149 -1.1621
 3447TIP3   OH231975   1.728   3.685   1.549  0.8522 -0.1883 -0.3505
 3447TIP3    H131976   1.698   3.646   1.631  2.1801  0.4317  0.4523
 3447TIP3    H231977   1.776   3.614   1.506 -2.3970 -1.5249 -2.1263
 3448TIP3   OH231978   0.346   6.290   0.012 -0.4399  0.0352 -0.0211
 3448TIP3    H131979   0.427   6.242  -0.008 -0.0831  0.3822  0.5559
 3448TIP3    H231980   0.297   6.289  -0.070  0.8653  1.1955 -0.8759
 3449TIP3   OH231981   0.822   4.546   8.697 -0.6772 -0.0530 -0.0120
 3449TIP3    H131982   0.738   4.586   8.675 -0.3836  0.8063  0.3986
 3449TIP3    H231983   0.846   4.495   8.619 -0.9576  0.7378 -0.6215
 3450TIP3   OH231984   3.908   5.987   1.485  0.0734 -0.1853 -0.1712
 3450TIP3    H131985   3.818   6.014   1.469 -0.7368 -0.7686  2.8228
 3450TIP3    H231986   3.908   5.955   1.575  3.7112  1.7419  0.7321
 3451TIP3   OH231987   1.446   4.069   0.594  0.2741  0.1021 -0.3383
 3451TIP3    H131988   1.483   4.043   0.679 -1.5650 -0.1428  0.4345
 3451TIP3    H231989   1.516   4.050   0.531  0.3450 -3.5989  0.5744
 3452TIP3   OH231990   6.211   4.303   8.397 -0.0449  0.0617  0.5600
 3452TIP3    H131991   6.253   4.244   8.459  0.0535 -0.7674 -0.2838
 3452TIP3    H231992   6.268   4.380   8.395 -0.3068  0.3268  1.8510
 3453TIP3   OH231993   5.145   1.867   0.498 -0.6353  0.5111 -0.4328
 3453TIP3    H131994   5.113   1.916   0.422 -1.1344  0.7416 -0.0806
 3453TIP3    H231995   5.076   1.877   0.563  0.2396  1.1709  0.4217
 3454TIP3   OH231996   1.497   4.488   0.977  0.0367  0.4832 -0.3672
 3454TIP3    H131997   1.470   4.579   0.965  1.8760  1.1118 -0.1032
 3454TIP3    H231998   1.515   4.457   0.888  1.8301  1.2194 -0.3036
 3455TIP3   OH231999   3.038   4.008   0.731 -0.1654 -0.2755  0.0415
 3455TIP3    H132000   3.111   4.029   0.789 -0.5602 -0.5757  0.6656
 3455TIP3    H232001   3.032   4.083   0.672  0.4870 -0.1369  0.1462
 3456TIP3   OH232002   2.636   6.451   8.560 -0.4897 -0.1903 -0.0397
 3456TIP3    H132003   2.616   6.527   8.505 -0.2218  0.9288  1.3327
 3456TIP3    H232004   2.644   6.488   8.648  0.0443 -1.7720  0.5967
 3457TIP3   OH232005   5.872   1.964   6.539 -0.4291 -0.3398 -0.0601
 3457TIP3    H132006   5.947   2.018   6.513 -0.1330 -0.1759  1.0812
 3457TIP3    H232007   5.892   1.938   6.629 -1.3917 -0.9292 -0.0098
 3458TIP3   OH232008   0.241   1.377   1.872 -0.6924 -0.1590  0.0286
 3458TIP3    H132009   0.300   1.316   1.827 -0.9069 -1.5982  1.6205
 3458TIP3    H232010   0.243   1.350   1.963 -2.0393  1.2445  0.5208
 3459TIP3   OH232011   2.799   6.502   0.164  0.2070  0.5078 -0.3088
 3459TIP3    H132012   2.743   6.456   0.226 -0.1443 -0.4397 -1.3071
 3459TIP3    H232013   2.888   6.479   0.191  0.0399 -2.0338 -1.6620
 3460TIP3   OH232014   4.723   1.586   2.012 -0.3582 -0.3893  1.1370
 3460TIP3    H132015   4.731   1.535   1.931 -2.5619 -0.7258  1.0776
 3460TIP3    H232016   4.748   1.525   2.081  0.9485 -0.2792  0.8027
 3461TIP3   OH232017   5.554   4.508   7.742 -0.2917 -0.2693 -0.7614
 3461TIP3    H132018   5.502   4.588   7.742 -1.3084 -0.8843  0.6014
 3461TIP3    H232019   5.512   4.452   7.807  2.5633 -0.5026  1.0368
 3462TIP3   OH232020   3.649   1.757   0.979 -0.5114 -0.0778  0.0081
 3462TIP3    H132021   3.716   1.824   0.960 -0.3856  0.0501  0.8657
 3462TIP3    H232022   3.695   1.691   1.030 -0.3254 -1.4724 -1.8826
 3463TIP3   OH232023   2.718   3.348   1.837 -0.0305 -0.3823  1.1307
 3463TIP3    H132024   2.783   3.285   1.870 -0.1051 -0.9669  0.1794
 3463TIP3    H232025   2.677   3.383   1.916  1.5977  0.1830  1.7790
 3464TIP3   OH232026   4.830   5.266   8.294 -0.0804 -0.4967 -0.4564
 3464TIP3    H132027   4.803   5.176   8.315 -1.2354 -0.1404 -0.3260
 3464TIP3    H232028   4.817   5.314   8.376 -1.5558  0.2366 -1.0937
 3465TIP3   OH232029   3.062   1.943   8.276 -0.4503  0.1775 -0.7482
 3465TIP3    H132030   3.119   1.872   8.305  0.5809  1.3581  0.2584
 3465TIP3    H232031   2.998   1.953   8.346  0.4532  1.3330 -0.0621
 3466TIP3   OH232032   0.385   2.150   7.630 -0.5659  0.4578 -0.0659
 3466TIP3    H132033   0.460   2.127   7.576 -1.5932 -0.4489 -1.1656
 3466TIP3    H232034   0.411   2.123   7.718 -0.0069 -0.8648 -0.6038
 3467TIP3   OH232035   0.993   0.583   1.480 -0.2613  0.1056 -0.5868
 3467TIP3    H132036   0.918   0.558   1.425 -0.6640 -2.0280  0.7999
 3467TIP3    H232037   0.994   0.679   1.477 -1.9529  0.1300 -2.0790
 3468TIP3   OH232038   3.814   4.907   1.380 -0.0258 -0.0024 -0.1237
 3468TIP3    H132039   3.765   4.923   1.460  0.5414 -1.5371  0.5701
 3468TIP3    H232040   3.798   4.815   1.360 -0.3911  0.4136 -1.9562
 3469TIP3   OH232041   4.945   5.416   0.446 -0.0248 -0.2389  0.0792
 3469TIP3    H132042   4.963   5.492   0.390  0.4864  0.0925  0.6755
 3469TIP3    H232043   4.852   5.399   0.433  0.2528 -0.7054 -1.5129
 3470TIP3   OH232044   4.333   6.159   8.622 -0.1476 -0.1452 -0.2350
 3470TIP3    H132045   4.420   6.132   8.654 -0.3395  0.0126  0.4356
 3470TIP3    H232046   4.333   6.134   8.529  0.1744 -1.2417  0.0440
 3471TIP3   OH232047   5.244   1.318   7.951 -0.1495  0.3912  0.1041
 3471TIP3    H132048   5.266   1.311   8.044 -1.2564  0.8899  0.4327
 3471TIP3    H232049   5.150   1.299   7.948 -0.1494  0.5102 -0.8970
 3472TIP3   OH232050   0.732   3.820   0.175 -0.3278  0.1677  0.6724
 3472TIP3    H132051   0.722   3.896   0.231 -1.7900  0.3730  0.1762
 3472TIP3    H232052   0.646   3.808   0.135 -0.7461 -2.9007  2.2102
 3473TIP3   OH232053   5.639   6.383   6.841 -0.8031 -0.0095 -0.2273
 3473TIP3    H132054   5.703   6.331   6.891 -0.5763  0.8861  0.4470
 3473TIP3    H232055   5.677   6.390   6.754 -1.0175 -1.2753 -0.4373
 3474TIP3   OH232056   6.046   6.584   1.461  0.7612 -0.0333 -0.0475
 3474TIP3    H132057   6.022   6.583   1.554  1.4419 -0.3268  0.1302
 3474TIP3    H232058   6.044   6.492   1.434  0.5291  0.0530 -0.3396
 3475TIP3   OH232059   5.364   0.110   1.445 -0.7035  0.3998 -0.5912
 3475TIP3    H132060   5.273   0.138   1.433 -0.5683  0.7317 -0.8314
 3475TIP3    H232061   5.379   0.045   1.376 -0.8531  0.1060 -0.3543
 3476TIP3   OH232062   1.438   0.203   1.902  0.1147 -0.2985  0.7906
 3476TIP3    H132063   1.487   0.122   1.888  0.9519  0.0929  1.3817
 3476TIP3    H232064   1.414   0.201   1.995 -0.2899 -0.1019  0.6924
 3477TIP3   OH232065   1.663   5.028   1.438 -1.0428  0.4281  0.3100
 3477TIP3    H132066   1.718   4.956   1.408  2.0629  1.2673  3.3605
 3477TIP3    H232067   1.600   4.987   1.498 -0.3791  0.0252  0.7458
 3478TIP3   OH232068   4.314   0.547   0.212  0.1962  0.4723 -0.2850
 3478TIP3    H132069   4.322   0.530   0.118 -1.0094  0.3993 -0.3850
 3478TIP3    H232070   4.222   0.572   0.225  0.6258  1.6962  0.6830
 3479TIP3   OH232071   5.190   6.711   6.432  0.0786 -0.1588 -0.0407
 3479TIP3    H132072   5.185   6.631   6.485 -0.9644 -0.3299 -0.3694
 3479TIP3    H232073   5.178   6.681   6.342 -0.3378  0.3652 -0.1628
 3480TIP3   OH232074   2.144   4.214   7.012 -0.0694  0.4617 -0.4317
 3480TIP3    H132075   2.120   4.131   7.053  0.6864  0.0536 -0.7805
 3480TIP3    H232076   2.165   4.190   6.921 -0.8454  1.2008 -0.8182
 3481TIP3   OH232077   1.538   4.868   7.955  0.8849  0.5767  0.0982
 3481TIP3    H132078   1.446   4.875   7.980  0.4423 -0.4775 -1.1411
 3481TIP3    H232079   1.580   4.944   7.996 -1.1389  3.0107 -2.0088
 3482TIP3   OH232080   4.263   3.926   6.884  0.0760 -0.2065 -0.3828
 3482TIP3    H132081   4.213   3.898   6.807 -4.0011  0.5268  1.7059
 3482TIP3    H232082   4.286   3.844   6.929 -0.2077 -0.5517 -0.8620
 3483TIP3   OH232083   3.950   2.028   8.212  0.2037 -0.4325 -0.7615
 3483TIP3    H132084   3.975   1.995   8.298 -1.0042 -2.1486 -1.0301
 3483TIP3    H232085   3.855   2.035   8.216  0.3186  4.0213 -0.4243
 3484TIP3   OH232086   5.880   0.801   1.317 -0.5626  0.1772 -0.4533
 3484TIP3    H132087   5.855   0.850   1.239  0.7908 -0.0119 -1.0428
 3484TIP3    H232088   5.857   0.858   1.390 -2.2151  0.1934 -0.9519
 3485TIP3   OH232089   3.732   3.219   1.019 -0.2618 -0.2953 -0.5116
 3485TIP3    H132090   3.783   3.291   1.057  0.7442 -0.2370 -1.9351
 3485TIP3    H232091   3.789   3.143   1.027 -0.8430 -0.6993 -0.1320
 3486TIP3   OH232092   2.188   2.616   6.851  0.0150 -0.4386 -0.6768
 3486TIP3    H132093   2.213   2.525   6.863  0.4597 -0.2176  0.0888
 3486TIP3    H232094   2.248   2.649   6.785  0.7823 -0.3181  0.0710
 3487TIP3   OH232095   0.562   2.996   6.473 -0.0779 -0.0182  0.4410
 3487TIP3    H132096   0.494   3.058   6.501  0.6792  1.2695 -0.4483
 3487TIP3    H232097   0.574   3.014   6.380  2.6819  1.0595  0.8973
 3488TIP3   OH232098   6.691   5.363   0.530  0.0745 -0.1127 -0.1191
 3488TIP3    H132099   6.665   5.441   0.579 -2.1803 -0.3013 -0.9085
 3488TIP3    H232100   6.768   5.331   0.576 -0.7772  0.8277  2.1108
 3489TIP3   OH232101   3.450   0.230   1.053  0.4531  0.2119  0.1498
 3489TIP3    H132102   3.412   0.144   1.070  1.1327 -0.3746 -1.1624
 3489TIP3    H232103   3.480   0.260   1.139  0.8406 -1.1759  0.5215
 3490TIP3   OH232104   3.533   2.395   1.794 -0.3173  0.4467 -0.1105
 3490TIP3    H132105   3.555   2.330   1.727  1.1302 -0.0302  0.7943
 3490TIP3    H232106   3.443   2.372   1.820  0.0567 -1.0175 -0.0220
 3491TIP3   OH232107   6.286   0.794   0.751 -0.0423  0.0556  0.5931
 3491TIP3    H132108   6.364   0.760   0.794 -1.1489 -1.0162  1.8765
 3491TIP3    H232109   6.222   0.723   0.759 -1.7356  1.5827  1.3082
 3492TIP3   OH232110   5.571   4.162   7.454  0.3296  0.8576  0.2640
 3492TIP3    H132111   5.618   4.173   7.371  1.3098 -0.1205  0.6611
 3492TIP3    H232112   5.630   4.199   7.520  0.1575  0.4317  0.6680
 3493TIP3   OH232113   0.883   0.654   2.158  0.7466  0.7373  0.3210
 3493TIP3    H132114   0.789   0.638   2.157  0.3000  3.1045 -0.4260
 3493TIP3    H232115   0.909   0.636   2.248 -0.7398  1.5825  0.9530
 3494TIP3   OH232116   4.047   6.670   0.483  0.7821 -0.1486  0.0912
 3494TIP3    H132117   4.102   6.738   0.522  1.4356 -1.1885  1.0528
 3494TIP3    H232118   4.109   6.614   0.436  0.2782 -0.2087 -0.5176
 3495TIP3   OH232119   2.526   2.567   1.239 -0.3003  0.0614 -0.0320
 3495TIP3    H132120   2.618   2.567   1.266 -0.5379  1.9066  0.9379
 3495TIP3    H232121   2.480   2.527   1.312 -0.5075  1.3674  0.5752
 3496TIP3   OH232122   4.088   2.704   1.103 -0.4070  0.4216  0.2272
 3496TIP3    H132123   4.096   2.777   1.042 -0.8281  0.1307 -0.1795
 3496TIP3    H232124   4.156   2.720   1.168 -0.2070  0.9398 -0.1024
 3497TIP3   OH232125   2.346   4.218   7.293  0.8889 -0.2477 -0.0338
 3497TIP3    H132126   2.282   4.290   7.290 -0.3020 -1.2838 -0.7547
 3497TIP3    H232127   2.402   4.232   7.217  1.0175  0.2097  0.1382
 3498TIP3   OH232128   0.922   2.103   7.908  0.3268  0.1971  0.0034
 3498TIP3    H132129   0.931   2.128   7.816 -0.0794 -0.0760 -0.1131
 3498TIP3    H232130   1.011   2.108   7.943  0.4488  0.5216 -0.3460
 3499TIP3   OH232131   6.312   1.616   7.791 -0.0556  0.0718  0.1556
 3499TIP3    H132132   6.342   1.692   7.742 -0.0775  0.2274  0.3820
 3499TIP3    H232133   6.393   1.574   7.822 -0.0284 -0.2541 -0.3534
 3500TIP3   OH232134   4.816   2.039   1.933  0.2527 -0.3101 -0.1509
 3500TIP3    H132135   4.722   2.023   1.926  0.3678 -0.9828 -0.2634
 3500TIP3    H232136   4.847   1.972   1.994  0.8530 -0.8935 -1.0779
 3501TIP3   OH232137   4.961   2.635   8.423 -0.2382 -0.0230 -0.7662
 3501TIP3    H132138   5.021   2.626   8.349 -0.2928  1.5449 -1.0206
 3501TIP3    H232139   4.878   2.662   8.384 -0.5163 -0.0406 -0.2028
 3502TIP3   OH232140   3.621   5.265   7.136  0.3082  0.1863 -0.1755
 3502TIP3    H132141   3.616   5.360   7.149 -0.6653  0.2127 -0.6691
 3502TIP3    H232142   3.548   5.230   7.186  0.0154 -0.2082 -0.8702
 3503TIP3   OH232143   6.379   5.731   8.061  0.4113  0.2584 -0.2589
 3503TIP3    H132144   6.341   5.778   8.136  1.2216 -0.3498  0.5528
 3503TIP3    H232145   6.451   5.787   8.032  1.3423 -0.4113  0.6742
 3504TIP3   OH232146   3.050   0.704   7.213  0.1952 -0.6526  0.0725
 3504TIP3    H132147   3.125   0.763   7.223 -0.2856 -0.2320  1.3762
 3504TIP3    H232148   3.087   0.623   7.179  1.1494 -0.2625  0.1498
 3505TIP3   OH232149   5.595   0.659   1.093  0.0593  0.3400  0.0414
 3505TIP3    H132150   5.600   0.749   1.126 -0.1021  0.4836 -0.3226
 3505TIP3    H232151   5.628   0.606   1.165 -3.2491  0.3423  1.7181
 3506TIP3   OH232152   1.667   0.900   0.721 -0.2481  0.1883  0.1814
 3506TIP3    H132153   1.648   0.989   0.690  0.6603  0.7344  1.0916
 3506TIP3    H232154   1.585   0.871   0.761 -0.1140  1.2739  1.3102
 3507TIP3   OH232155   0.091   1.336   1.108  0.0592  0.6551 -0.1510
 3507TIP3    H132156   0.100   1.371   1.196 -2.8087 -2.1047  1.4262
 3507TIP3    H232157   0.007   1.370   1.077  0.6077  0.8635 -1.5011
 3508TIP3   OH232158   0.067   5.243   1.488  0.4306 -0.2078  0.1148
 3508TIP3    H132159   0.052   5.319   1.544  0.9167  0.6057 -0.8180
 3508TIP3    H232160   0.147   5.203   1.523  0.1540 -0.3151  0.6323
 3509TIP3   OH232161   1.878   6.639   2.757  0.1626  0.8814 -0.1934
 3509TIP3    H132162   1.909   6.722   2.721 -1.0050  0.7428 -1.5905
 3509TIP3    H232163   1.886   6.577   2.685 -0.8453  0.2392  0.2238
 3510TIP3   OH232164   1.778   4.060   7.454 -0.5810 -0.3960 -0.2889
 3510TIP3    H132165   1.753   3.981   7.406 -1.0650 -0.9167  0.7860
 3510TIP3    H232166   1.855   4.093   7.407 -2.3806  0.4658 -2.8845
 3511TIP3   OH232167   0.196   5.505   8.062 -1.2889  0.1661 -0.1513
 3511TIP3    H132168   0.195   5.443   8.135  1.2660 -0.0691 -0.2353
 3511TIP3    H232169   0.207   5.591   8.104 -0.0666  0.0533 -0.1891
 3512TIP3   OH232170   6.141   1.844   7.093 -0.8545 -0.3073 -0.1065
 3512TIP3    H132171   6.181   1.905   7.030 -1.1533  1.4376  1.3208
 3512TIP3    H232172   6.206   1.836   7.163 -1.2055 -0.9386  0.1555
 3513TIP3   OH232173   4.058   4.728   1.338  0.3750 -0.3532  0.3967
 3513TIP3    H132174   4.030   4.779   1.262  2.6651 -0.8223 -0.8703
 3513TIP3    H232175   4.063   4.638   1.306  1.8533 -0.4889  0.9045
 3514TIP3   OH232176   6.842   3.043   0.110 -0.0932 -0.3401  0.0003
 3514TIP3    H132177   6.852   3.041   0.015  2.5560 -0.5576  0.1830
 3514TIP3    H232178   6.784   3.117   0.127 -0.8519 -0.4834 -1.7880
 3515TIP3   OH232179   3.095   0.208   7.038 -0.0237 -0.1899 -0.0616
 3515TIP3    H132180   3.000   0.195   7.030 -0.0855  0.4826 -0.4743
 3515TIP3    H232181   3.111   0.292   6.995  0.8541 -0.6239 -0.5948
 3516TIP3   OH232182   1.298   6.182   7.655  0.0765 -0.0718  0.4297
 3516TIP3    H132183   1.343   6.151   7.576 -2.4868 -1.2474 -0.6646
 3516TIP3    H232184   1.337   6.269   7.671  3.1317 -1.2341  0.0084
 3517TIP3   OH232185   5.458   2.653   7.151 -0.3739  0.5738  0.2027
 3517TIP3    H132186   5.553   2.641   7.156 -0.2711  0.9837 -0.5928
 3517TIP3    H232187   5.439   2.658   7.057 -1.0129  1.7698  0.3686
 3518TIP3   OH232188   0.997   2.330   7.046  0.1919 -0.6165  0.8507
 3518TIP3    H132189   0.996   2.426   7.039 -0.4204 -0.6262  0.7499
 3518TIP3    H232190   1.059   2.302   6.978 -1.0866 -0.3893 -0.4614
 3519TIP3   OH232191   6.238   4.943   1.361 -0.2908  0.0331  0.4901
 3519TIP3    H132192   6.303   5.003   1.397 -0.4178  0.9208 -0.7245
 3519TIP3    H232193   6.154   4.975   1.395 -0.2329 -0.3704  1.0427
 3520TIP3   OH232194   6.499   6.228   6.700  0.3640  0.3559  0.3739
 3520TIP3    H132195   6.405   6.212   6.712  0.3217  0.5522  0.3239
 3520TIP3    H232196   6.512   6.223   6.605  0.2908  0.8992  0.3285
 3521TIP3   OH232197   5.964   1.138   0.513 -0.1506 -0.1148 -0.1406
 3521TIP3    H132198   5.878   1.121   0.474 -0.1767  2.0709 -1.2469
 3521TIP3    H232199   5.991   1.054   0.550 -2.2416 -1.1470 -0.7707
 3522TIP3   OH232200   3.530   5.190   0.593 -0.5632 -0.0863  0.0945
 3522TIP3    H132201   3.596   5.164   0.528  1.2554 -1.7592  2.3851
 3522TIP3    H232202   3.578   5.188   0.676 -3.2150  0.0603  1.7248
 3523TIP3   OH232203   5.075   1.412   6.632  1.1560  0.8399  0.3124
 3523TIP3    H132204   5.028   1.349   6.578  1.6653  0.8434 -0.1498
 3523TIP3    H232205   5.134   1.359   6.686 -0.4585  0.7088  2.0389
 3524TIP3   OH232206   5.038   5.596   1.760  0.2219  0.1540  0.2719
 3524TIP3    H132207   4.977   5.525   1.742 -0.2775  0.3768  1.0243
 3524TIP3    H232208   5.117   5.573   1.712 -0.6260  0.1324 -1.1546
 3525TIP3   OH232209   1.120   5.201   6.765  0.4917  0.2384  0.1293
 3525TIP3    H132210   1.207   5.198   6.804 -0.5101 -2.8559  2.5463
 3525TIP3    H232211   1.060   5.216   6.838 -1.1718 -0.3301 -1.0335
 3526TIP3   OH232212   2.974   4.149   7.828  0.4562  0.2915 -0.4939
 3526TIP3    H132213   2.986   4.184   7.917  1.2683 -0.3414 -0.3427
 3526TIP3    H232214   3.052   4.095   7.813 -1.1493 -2.2540 -0.3296
 3527TIP3   OH232215   2.540   1.974   8.386 -0.2155 -0.1315  0.3320
 3527TIP3    H132216   2.606   1.943   8.324 -0.1309  1.2879 -0.3215
 3527TIP3    H232217   2.484   1.897   8.402  0.3115 -0.7688 -0.7813
 3528TIP3   OH232218   3.175   2.747   6.568  0.0169 -0.0203 -0.0338
 3528TIP3    H132219   3.225   2.807   6.623  0.4859  0.4738 -0.9626
 3528TIP3    H232220   3.222   2.663   6.575 -1.3956 -0.6873  2.3124
 3529TIP3   OH232221   4.649   5.222   7.154 -0.2720  0.1711  0.0031
 3529TIP3    H132222   4.696   5.247   7.074  0.2194 -0.6046  0.0311
 3529TIP3    H232223   4.656   5.126   7.156 -3.7883 -0.2247 -1.1810
 3530TIP3   OH232224   4.166   0.901   1.085  0.6738  0.3173  0.2489
 3530TIP3    H132225   4.085   0.936   1.048 -0.7221 -1.0957  1.8312
 3530TIP3    H232226   4.216   0.871   1.008 -0.3659  1.0135 -0.7340
 3531TIP3   OH232227   3.251   4.474   0.070 -0.3130  0.2669 -0.1657
 3531TIP3    H132228   3.217   4.385   0.081  1.0153 -0.0547  1.7889
 3531TIP3    H232229   3.321   4.465   0.005 -0.6024  0.0210 -0.4492
 3532TIP3   OH232230   3.807   1.355   1.400 -0.1864  0.7066  0.0519
 3532TIP3    H132231   3.781   1.271   1.439  1.1578  1.4137  2.7465
 3532TIP3    H232232   3.747   1.419   1.438  0.6383  1.3213  0.3658
 3533TIP3   OH232233   3.348   5.525   1.358  0.2195  0.1639  0.3914
 3533TIP3    H132234   3.361   5.431   1.350 -0.0876  0.2245 -1.1178
 3533TIP3    H232235   3.279   5.534   1.423 -1.1577 -0.7777 -0.8807
 3534TIP3   OH232236   0.361   1.308   7.471 -0.6899  0.3953  0.3512
 3534TIP3    H132237   0.427   1.276   7.532 -0.3905 -0.2318 -0.2963
 3534TIP3    H232238   0.406   1.377   7.421 -0.6016  0.1615  0.1032
 3535TIP3   OH232239   5.148   4.739   0.700  0.6232  0.1121  0.2230
 3535TIP3    H132240   5.074   4.678   0.700 -0.4730  1.3807  0.9657
 3535TIP3    H232241   5.178   4.741   0.609 -1.7868  1.3215 -0.6312
 3536TIP3   OH232242   0.154   4.695   1.545  0.1930  0.0570  0.2543
 3536TIP3    H132243   0.104   4.613   1.550 -0.6488  0.5742  0.6388
 3536TIP3    H232244   0.238   4.670   1.508 -1.5639 -0.3285 -4.1080
 3537TIP3   OH232245   2.128   5.468   6.682 -0.0885 -0.3299 -0.1212
 3537TIP3    H132246   2.078   5.421   6.615 -0.1045 -2.0892  1.0544
 3537TIP3    H232247   2.209   5.418   6.689  0.1259  0.1395  0.8140
 3538TIP3   OH232248   5.941   4.583   1.994  0.6288  0.1425  0.3366
 3538TIP3    H132249   5.873   4.647   1.974  1.3302  0.0963 -2.6935
 3538TIP3    H232250   5.894   4.500   2.007  0.0655 -0.0112 -2.2915
 3539TIP3   OH232251   0.439   5.692   0.665  0.0483 -0.2760  0.1239
 3539TIP3    H132252   0.475   5.613   0.704  0.7080 -0.6871 -1.2686
 3539TIP3    H232253   0.505   5.721   0.602 -0.6893  0.7270 -0.2288
 3540TIP3   OH232254   0.974   4.784   0.541 -0.5125 -0.2824  0.1663
 3540TIP3    H132255   0.919   4.828   0.476 -1.9058 -2.0486  0.0585
 3540TIP3    H232256   0.946   4.692   0.537 -0.3911 -0.5307  3.0033
 3541TIP3   OH232257   1.801   5.417   1.983  0.0476  0.2715 -0.4794
 3541TIP3    H132258   1.771   5.479   2.048 -0.8618  1.0731 -1.6327
 3541TIP3    H232259   1.805   5.333   2.029  1.3223  1.1476  1.1010
 3542TIP3   OH232260   5.749   6.702   0.548  0.3964  0.1157 -0.3267
 3542TIP3    H132261   5.693   6.666   0.617 -1.1223  0.2575 -1.4188
 3542TIP3    H232262   5.824   6.643   0.545  0.4819  0.0827  1.3915
 3543TIP3   OH232263   3.625   1.366   0.541  0.3928 -0.4309 -0.0473
 3543TIP3    H132264   3.697   1.429   0.539 -1.5234  1.9177  0.4843
 3543TIP3    H232265   3.547   1.419   0.529 -1.3996 -2.6449  1.1477
 3544TIP3   OH232266   5.138   5.355   0.694  0.0220 -0.5089  0.7942
 3544TIP3    H132267   5.124   5.301   0.616  0.3172 -1.4501  1.3779
 3544TIP3    H232268   5.188   5.430   0.663 -1.6748  0.2202 -0.3205
 3545TIP3   OH232269   5.897   0.486   0.370 -0.5351  0.0078  0.2809
 3545TIP3    H132270   5.827   0.540   0.333  0.4235  0.9520 -0.2264
 3545TIP3    H232271   5.934   0.440   0.294 -0.4556 -0.3189  0.5149
 3546TIP3   OH232272   0.053   2.740   1.320  0.8869  0.1571  0.1541
 3546TIP3    H132273   0.010   2.707   1.241 -0.3292  1.2373  0.3236
 3546TIP3    H232274   0.044   2.669   1.384 -0.6354  0.3082  0.1551
 3547TIP3   OH232275   5.800   3.439   8.018  0.3328 -0.4755 -0.1383
 3547TIP3    H132276   5.811   3.437   7.923 -0.9313  0.8392 -0.3434
 3547TIP3    H232277   5.706   3.429   8.032  0.5487 -1.1362  1.0152
 3548TIP3   OH232278   5.855   0.236   8.794  0.2147  0.0876  0.1601
 3548TIP3    H132279   5.916   0.275   8.732 -0.3649  2.0600  0.7590
 3548TIP3    H232280   5.901   0.239   8.878  0.3917 -1.1077  0.1184
 3549TIP3   OH232281   5.559   4.961   1.913  0.5699 -0.4491 -0.1325
 3549TIP3    H132282   5.473   4.972   1.872  0.6463 -0.2949 -0.2513
 3549TIP3    H232283   5.546   4.990   2.004  0.1648 -1.6660  0.2219
 3550TIP3   OH232284   2.366   2.479   7.519 -0.4672  0.3305  0.0112
 3550TIP3    H132285   2.379   2.419   7.592  0.3015 -0.6302 -0.8772
 3550TIP3    H232286   2.279   2.457   7.485 -0.2297 -0.2326 -0.2505
 3551TIP3   OH232287   2.720   5.698   1.721 -0.3092 -0.0403 -0.1462
 3551TIP3    H132288   2.719   5.604   1.702 -0.3010 -0.0161 -0.2701
 3551TIP3    H232289   2.670   5.707   1.802  1.2624 -0.3547  0.8819
 3552TIP3   OH232290   4.864   3.945   7.266  0.1072  0.0185  0.2195
 3552TIP3    H132291   4.773   3.960   7.242 -0.6140 -0.2020  2.5357
 3552TIP3    H232292   4.904   4.032   7.266 -0.0235  0.0971 -0.9831
 3553TIP3   OH232293   1.279   2.415   0.937  0.0144  0.1565  0.5309
 3553TIP3    H132294   1.211   2.428   0.871  0.3115 -0.4028  0.1068
 3553TIP3    H232295   1.230   2.390   1.016 -0.3035  0.1715  0.3427
 3554TIP3   OH232296   1.617   3.525   1.756 -0.4272  0.6003  0.3024
 3554TIP3    H132297   1.542   3.541   1.699 -1.3854 -3.7509 -0.0571
 3554TIP3    H232298   1.580   3.531   1.845 -0.9240 -0.1695  0.1639
 3555TIP3   OH232299   2.327   0.738   6.875  0.2186 -0.3403  0.3656
 3555TIP3    H132300   2.355   0.658   6.831 -0.8610 -0.7773  0.4382
 3555TIP3    H232301   2.340   0.808   6.811  1.2612 -0.5573  0.3393
 3556TIP3   OH232302   1.692   2.218   0.195  0.3917  0.6014  0.2545
 3556TIP3    H132303   1.663   2.268   0.118 -1.7778 -0.0509  0.5883
 3556TIP3    H232304   1.645   2.257   0.268  0.8771 -0.1112  0.9578
 3557TIP3   OH232305   0.398   4.958   0.289  0.4352 -0.0932  0.5071
 3557TIP3    H132306   0.386   4.880   0.344  0.0099  0.8017  1.7415
 3557TIP3    H232307   0.308   4.988   0.271  0.6072  0.6862  0.9139
 3558TIP3   OH232308   1.561   1.762   8.601  0.9820  0.2202  0.1912
 3558TIP3    H132309   1.470   1.737   8.620  0.0042  0.6885 -3.1701
 3558TIP3    H232310   1.596   1.688   8.552  1.9756  0.6049  0.3093
 3559TIP3   OH232311   2.219   2.473   1.947 -0.4500  0.5579 -0.4887
 3559TIP3    H132312   2.253   2.473   1.857 -0.4334  0.7779 -0.4833
 3559TIP3    H232313   2.295   2.454   2.002 -0.4100  0.6715 -0.5038
 3560TIP3   OH232314   4.216   1.650   0.317 -0.6220 -0.1628  0.2498
 3560TIP3    H132315   4.280   1.693   0.261 -1.1647 -0.3354 -0.5223
 3560TIP3    H232316   4.147   1.715   0.330 -1.3935 -0.7415 -0.8359
 3561TIP3   OH232317   4.152   3.066   1.565  0.2402  0.0945 -0.1217
 3561TIP3    H132318   4.168   3.152   1.526  2.1432  0.1728  0.7286
 3561TIP3    H232319   4.216   3.060   1.636 -0.8029 -1.4631  0.7436
 3562TIP3   OH232320   1.225   1.337   1.296  0.0922 -0.4025 -0.0120
 3562TIP3    H132321   1.229   1.386   1.214 -0.6185 -1.7018 -0.8687
 3562TIP3    H232322   1.213   1.246   1.269 -0.3418 -0.8482  1.5516
 3563TIP3   OH232323   5.174   3.640   1.106  0.0929  0.1278 -0.3595
 3563TIP3    H132324   5.148   3.701   1.037 -0.7506 -0.8303 -0.9193
 3563TIP3    H232325   5.229   3.576   1.062 -1.2625 -1.0583 -0.3966
 3564TIP3   OH232326   5.610   2.618   0.522 -1.2190  0.0201 -0.7055
 3564TIP3    H132327   5.644   2.530   0.538 -0.8286  0.2063 -0.4815
 3564TIP3    H232328   5.673   2.676   0.566 -1.4520  0.4108 -0.8820
 3565TIP3   OH232329   0.870   1.532   1.919 -0.3083  0.7427 -0.2988
 3565TIP3    H132330   0.917   1.518   2.001 -1.8391  1.5844  0.7938
 3565TIP3    H232331   0.916   1.479   1.855 -1.5652 -3.6470  1.9847
 3566TIP3   OH232332   1.249   0.233   7.552 -0.1390  0.0928  0.1673
 3566TIP3    H132333   1.276   0.258   7.641 -0.7096  1.3524  0.0050
 3566TIP3    H232334   1.156   0.213   7.560 -0.2414  0.4137 -0.1702
 3567TIP3   OH232335   6.789   3.540   0.479  0.1396  0.0937  0.4895
 3567TIP3    H132336   6.820   3.628   0.500  0.0608 -0.4080  3.1197
 3567TIP3    H232337   6.699   3.537   0.513  0.1763 -1.0076  0.5468
 3568TIP3   OH232338   3.302   0.129   1.372 -0.0708 -0.7164 -0.3087
 3568TIP3    H132339   3.265   0.215   1.390  2.4458  0.3267  0.3066
 3568TIP3    H232340   3.327   0.096   1.458  2.4807 -0.3270 -0.8401
 3569TIP3   OH232341   0.744   1.694   2.114 -0.2864  0.5579  0.2418
 3569TIP3    H132342   0.814   1.685   2.049  0.1573  1.4051  0.5854
 3569TIP3    H232343   0.679   1.629   2.088  0.2507  0.3269 -0.5741
 3570TIP3   OH232344   3.298   1.491   1.228  0.1045 -0.4637 -0.1645
 3570TIP3    H132345   3.234   1.479   1.158  0.5123  1.9670 -1.0561
 3570TIP3    H232346   3.361   1.419   1.216 -0.4188 -0.7108 -1.6167
 3571TIP3   OH232347   3.905   0.914   0.967 -0.1159  0.1134  0.6440
 3571TIP3    H132348   3.869   0.873   1.046 -1.2250 -0.3236 -0.0648
 3571TIP3    H232349   3.938   0.840   0.915 -3.4683 -0.1936 -1.3279
 3572TIP3   OH232350   6.315   3.997   1.888 -0.2199 -0.0180  0.0158
 3572TIP3    H132351   6.258   4.074   1.882 -0.2302 -0.0318 -0.0754
 3572TIP3    H232352   6.268   3.929   1.840  1.1594  0.7656 -2.6675
 3573TIP3   OH232353   1.742   2.309   8.234  0.3422 -0.1742  0.2082
 3573TIP3    H132354   1.834   2.286   8.224  0.8291  1.4726  0.6507
 3573TIP3    H232355   1.715   2.265   8.315  0.7160 -0.7016  0.0537
 3574TIP3   OH232356   1.643   6.628   7.084  0.2837 -0.6501 -0.6047
 3574TIP3    H132357   1.598   6.560   7.035  0.1400 -0.3742 -0.8584
 3574TIP3    H232358   1.719   6.650   7.031  0.4946 -0.8236 -0.3771
 3575TIP3   OH232359   2.007   0.799   6.509 -0.4733  0.1401 -0.6559
 3575TIP3    H132360   1.952   0.792   6.587 -2.3372 -0.3257 -1.9522
 3575TIP3    H232361   2.068   0.726   6.516 -0.0575  0.5816  0.7372
 3576TIP3   OH232362   1.337   3.766   6.849 -0.6926  0.1166  0.3692
 3576TIP3    H132363   1.403   3.831   6.824 -0.2268 -0.5085 -0.0345
 3576TIP3    H232364   1.320   3.717   6.769 -1.1294 -0.1866  0.6423
 3577TIP3   OH232365   5.157   5.929   7.137  0.2963  0.0073  0.3336
 3577TIP3    H132366   5.093   5.993   7.169  0.1943  1.0961 -1.8954
 3577TIP3    H232367   5.106   5.865   7.089  0.5390 -1.1753  1.5797
 3578TIP3   OH232368   3.947   1.613   0.754 -0.3269  0.2917 -0.3282
 3578TIP3    H132369   3.875   1.633   0.693  1.1807 -0.3180 -2.4137
 3578TIP3    H232370   4.017   1.578   0.698  0.4934 -2.1137  1.9755
 3579TIP3   OH232371   3.696   5.221   6.523 -0.0799 -0.1456 -0.2139
 3579TIP3    H132372   3.669   5.194   6.610 -0.8227  1.5059  0.1151
 3579TIP3    H232373   3.792   5.226   6.528 -0.0688 -0.7791  0.2770
 3580TIP3   OH232374   3.147   1.747   8.589 -0.0173 -0.6702  0.2094
 3580TIP3    H132375   3.188   1.748   8.503  0.6184  0.5806  0.5142
 3580TIP3    H232376   3.163   1.658   8.622  2.7832 -0.1678  0.4456
 3581TIP3   OH232377   1.811   6.838   1.659  0.0343 -0.2748 -0.0175
 3581TIP3    H132378   1.769   6.912   1.615 -0.8743  0.0183  1.2874
 3581TIP3    H232379   1.897   6.832   1.618  0.1719  1.5781 -0.1082
 3582TIP3   OH232380   2.324   0.549   0.458 -0.5050  0.4928  0.2285
 3582TIP3    H132381   2.337   0.516   0.369 -3.0398  1.5819 -0.6507
 3582TIP3    H232382   2.346   0.642   0.453 -0.2198  0.4659  0.8684
 3583TIP3   OH232383   6.466   2.896   6.707  0.1197  0.4017  0.2420
 3583TIP3    H132384   6.461   2.837   6.782 -0.5327  2.2099  1.6980
 3583TIP3    H232385   6.411   2.854   6.640 -1.4104 -0.0192  1.6913
 3584TIP3   OH232386   2.064   3.964   1.458 -0.5576 -0.1172  0.1694
 3584TIP3    H132387   2.008   4.041   1.474  0.5821  0.4647  1.5343
 3584TIP3    H232388   2.029   3.926   1.378 -0.7692  2.1861 -0.9042
 3585TIP3   OH232389   4.417   4.244   8.554 -0.2599 -0.4508 -0.1992
 3585TIP3    H132390   4.389   4.255   8.645 -0.0444 -1.4112  0.0002
 3585TIP3    H232391   4.336   4.242   8.504 -0.5288 -2.0355  0.2372
 3586TIP3   OH232392   4.764   0.631   6.383 -0.3229  0.2354  0.0815
 3586TIP3    H132393   4.762   0.541   6.349 -0.3250 -0.1146  0.9991
 3586TIP3    H232394   4.836   0.672   6.335  0.4668 -0.6069  0.5062
 3587TIP3   OH232395   4.120   1.458   7.150  0.2912 -0.3603  0.2095
 3587TIP3    H132396   4.145   1.371   7.181  2.3472 -0.2327 -0.9044
 3587TIP3    H232397   4.025   1.458   7.153  0.2677 -1.7258  2.6518
 3588TIP3   OH232398   3.425   3.081   7.441 -0.5924  0.2806  0.6892
 3588TIP3    H132399   3.459   2.994   7.457  0.5403  0.9664  2.2569
 3588TIP3    H232400   3.410   3.118   7.528 -0.5390  1.8396  0.0744
 3589TIP3   OH232401   4.810   5.390   8.535 -0.2660 -0.2701 -0.2573
 3589TIP3    H132402   4.840   5.481   8.537 -0.5697 -0.1260 -1.3794
 3589TIP3    H232403   4.723   5.392   8.575 -0.7842  0.1637 -1.3587
 3590TIP3   OH232404   5.801   3.442   7.750 -0.1331 -0.1718  0.1236
 3590TIP3    H132405   5.752   3.423   7.670  0.8035  0.9911 -0.7585
 3590TIP3    H232406   5.823   3.534   7.743  0.2133 -0.1236  1.6047
 3591TIP3   OH232407   2.187   6.511   0.511  0.0694 -0.2277  0.7652
 3591TIP3    H132408   2.280   6.491   0.516  0.8529  2.4307 -1.0271
 3591TIP3    H232409   2.165   6.501   0.419 -1.3708 -0.5382  1.1140
 3592TIP3   OH232410   6.303   1.149   7.579  0.1428  0.2396  0.1866
 3592TIP3    H132411   6.338   1.060   7.572 -2.2940 -0.7492 -0.9539
 3592TIP3    H232412   6.301   1.181   7.489 -2.6892 -0.2179 -0.0325
 3593TIP3   OH232413   3.600   4.836   7.842  1.0465 -0.0325 -0.1652
 3593TIP3    H132414   3.673   4.836   7.780  0.4941  0.0510 -0.8241
 3593TIP3    H232415   3.641   4.815   7.926  1.6987 -0.9043 -0.6741
 3594TIP3   OH232416   1.422   6.466   2.249  0.0200 -0.3431 -0.4509
 3594TIP3    H132417   1.336   6.452   2.287  0.0414  0.4439 -0.0960
 3594TIP3    H232418   1.404   6.496   2.159 -0.1192  0.8334 -0.0511
 3595TIP3   OH232419   4.382   2.697   0.794  0.0931 -0.0982  0.3252
 3595TIP3    H132420   4.351   2.776   0.837  1.8430 -0.0857  1.6862
 3595TIP3    H232421   4.324   2.686   0.719 -0.7384  1.9681  0.6001
 3596TIP3   OH232422   5.722   1.377   1.956  0.0093  0.0794 -0.0403
 3596TIP3    H132423   5.714   1.334   2.041 -1.4980 -1.5041 -0.9210
 3596TIP3    H232424   5.811   1.356   1.927  0.3903  0.2951  0.9529
 3597TIP3   OH232425   6.092   6.698   0.268 -0.0533  0.1257 -0.1202
 3597TIP3    H132426   6.052   6.759   0.330 -1.6780  0.0575 -1.0612
 3597TIP3    H232427   6.042   6.709   0.188  0.8387 -1.1149 -0.8780
 3598TIP3   OH232428   5.798   1.602   8.681 -0.3880  0.4554  0.0299
 3598TIP3    H132429   5.772   1.521   8.638 -0.1568  0.8398 -0.8643
 3598TIP3    H232430   5.754   1.600   8.766  0.1162 -0.8989  0.2927
 3599TIP3   OH232431   1.110   2.084   1.496 -0.0656  0.4218  0.2022
 3599TIP3    H132432   1.028   2.083   1.446  1.2245 -0.2481 -2.0398
 3599TIP3    H232433   1.110   2.002   1.545 -1.5729  1.3068  1.8125
 3600TIP3   OH232434   6.221   1.136   8.166 -0.2996  0.2621 -0.1953
 3600TIP3    H132435   6.282   1.187   8.220 -0.1451 -0.5544  0.4236
 3600TIP3    H232436   6.276   1.068   8.127 -0.7092 -0.1505 -0.0636
 3601TIP3   OH232437   2.305   6.476   8.560  0.0631  0.5062 -0.1133
 3601TIP3    H132438   2.349   6.552   8.598  3.0086 -0.6953 -0.8004
 3601TIP3    H232439   2.275   6.506   8.475 -0.0865  1.2550  0.1918
 3602TIP3   OH232440   4.221   2.728   8.067 -0.1789 -0.1255  0.2970
 3602TIP3    H132441   4.294   2.787   8.082  0.4393 -0.4537 -1.1733
 3602TIP3    H232442   4.203   2.689   8.153 -1.5537  3.1603  1.6489
 3603TIP3   OH232443   5.663   0.610   0.832 -0.3057 -0.1107 -0.4679
 3603TIP3    H132444   5.664   0.643   0.922  2.2365 -0.9264 -0.1216
 3603TIP3    H232445   5.592   0.658   0.790 -0.5483  1.4450  1.5511
 3604TIP3   OH232446   3.210   6.245   0.476 -0.2503  0.3387  0.2529
 3604TIP3    H132447   3.180   6.229   0.565  0.8018 -1.5571  0.3364
 3604TIP3    H232448   3.133   6.231   0.421 -0.4961 -0.2549  0.7454
 3605TIP3   OH232449   0.855   1.245   1.015 -0.4092 -0.2142 -0.2952
 3605TIP3    H132450   0.798   1.190   1.068  2.0326 -0.5411  2.1796
 3605TIP3    H232451   0.909   1.184   0.966 -0.9175  0.0852 -1.2642
 3606TIP3   OH232452   2.780   3.614   1.614 -0.1103  0.4253 -0.2617
 3606TIP3    H132453   2.685   3.617   1.612 -0.0737  1.7374 -1.4504
 3606TIP3    H232454   2.805   3.660   1.694 -0.4674  0.2355 -0.0433
 3607TIP3   OH232455   1.659   4.572   7.241 -0.2726 -0.1154 -0.3242
 3607TIP3    H132456   1.627   4.654   7.279  1.5433  0.1701  0.6879
 3607TIP3    H232457   1.654   4.587   7.146  0.4658  1.3821 -0.1635
 3608TIP3   OH232458   1.756   2.419   8.528  0.4307 -0.0087  0.0185
 3608TIP3    H132459   1.780   2.328   8.509  1.9074  0.6753 -1.7128
 3608TIP3    H232460   1.662   2.416   8.546  0.0096 -1.6134 -2.0733
 3609TIP3   OH232461   3.223   0.824   6.169 -0.2952  0.1353  0.0180
 3609TIP3    H132462   3.221   0.863   6.257  0.9685  1.8230 -0.6313
 3609TIP3    H232463   3.165   0.748   6.175  0.7692 -0.5696  2.6516
 3610TIP3   OH232464   0.641   1.423   0.377  0.0061  0.5194 -0.2552
 3610TIP3    H132465   0.625   1.511   0.413 -1.8683 -0.4960  1.6422
 3610TIP3    H232466   0.576   1.414   0.307  1.4706  1.2736 -1.7920
 3611TIP3   OH232467   2.106   4.741   8.563  0.7702 -0.1657 -0.1534
 3611TIP3    H132468   2.083   4.716   8.473  0.3602 -1.9520  0.4044
 3611TIP3    H232469   2.051   4.816   8.582  0.4713 -0.1001 -1.2081
 3612TIP3   OH232470   3.462   3.954   0.669 -0.2645 -0.0197 -0.3188
 3612TIP3    H132471   3.405   4.005   0.726  1.6530  0.8224  0.9807
 3612TIP3    H232472   3.520   4.020   0.629  0.3840 -0.9049 -0.8729
 3613TIP3   OH232473   5.836   1.495   8.194 -0.2600  0.1008 -0.6564
 3613TIP3    H132474   5.813   1.588   8.188  0.8953  0.5118  0.6209
 3613TIP3    H232475   5.867   1.472   8.107  2.7503  1.9080 -0.1889
 3614TIP3   OH232476   6.517   3.352   6.998 -0.2283 -0.3155  0.2390
 3614TIP3    H132477   6.508   3.286   6.929  4.1606 -0.4471 -0.5100
 3614TIP3    H232478   6.521   3.301   7.079 -0.1763 -0.6650  0.0189
 3615TIP3   OH232479   1.651   2.417   0.011 -0.2065  0.2207 -0.0271
 3615TIP3    H132480   1.604   2.440  -0.069  1.1514  0.8013 -0.6911
 3615TIP3    H232481   1.729   2.370  -0.019  0.7204  1.1113  0.8841
 3616TIP3   OH232482   0.713   2.500   6.670  0.3185 -0.0827  0.1691
 3616TIP3    H132483   0.751   2.552   6.599 -0.1247 -0.3736 -0.2962
 3616TIP3    H232484   0.722   2.410   6.641 -4.1146 -0.1688 -1.9040
 3617TIP3   OH232485   2.280   4.501   1.596  0.0366  1.1740  0.0900
 3617TIP3    H132486   2.270   4.487   1.690 -0.6291  0.1973 -0.1182
 3617TIP3    H232487   2.348   4.569   1.590  2.6853 -1.1517  1.2064
 3618TIP3   OH232488   5.719   1.998   8.202  0.0119  0.2717  0.8388
 3618TIP3    H132489   5.747   2.041   8.282  2.6720 -0.4546  0.3928
 3618TIP3    H232490   5.655   2.058   8.164 -0.2832  1.2849  2.7916
 3619TIP3   OH232491   3.734   1.238   0.160  0.2762  0.4068  0.1049
 3619TIP3    H132492   3.644   1.210   0.179  0.6422 -0.9909 -0.1240
 3619TIP3    H232493   3.773   1.255   0.246 -0.3110  1.4066  0.1867
 3620TIP3   OH232494   4.703   2.278   0.374 -0.3492 -0.2452  0.6625
 3620TIP3    H132495   4.786   2.300   0.415  0.0641 -0.6659  0.0634
 3620TIP3    H232496   4.688   2.187   0.399  0.5517 -0.9360 -1.1408
 3621TIP3   OH232497   6.572   0.022   7.995  0.7102 -0.5699  0.2729
 3621TIP3    H132498   6.623   0.057   7.921 -0.2853 -0.5636 -0.4347
 3621TIP3    H232499   6.518  -0.047   7.956  0.5064 -0.8895  1.0965
 3622TIP3   OH232500   5.258   0.482   2.480 -0.0917 -0.3212  0.4647
 3622TIP3    H132501   5.193   0.416   2.504  1.7016 -1.9264  1.2687
 3622TIP3    H232502   5.323   0.433   2.429  1.0095  0.9557  0.5788
 3623TIP3   OH232503   4.183   2.998   7.451 -0.5832 -0.3109  0.1046
 3623TIP3    H132504   4.188   3.055   7.527 -1.9291 -0.4505  0.3101
 3623TIP3    H232505   4.105   3.026   7.404  0.6622  0.3288 -1.7143
 3624TIP3   OH232506   1.835   4.385   7.518 -0.0657  0.0011  0.3066
 3624TIP3    H132507   1.822   4.360   7.427 -1.0973  0.8846  0.1842
 3624TIP3    H232508   1.746   4.390   7.554  0.3404 -0.6188  1.4444
 3625TIP3   OH232509   2.643   4.926   2.550 -0.5281 -0.2433  0.3023
 3625TIP3    H132510   2.691   4.999   2.510  1.1836 -2.1972 -1.4690
 3625TIP3    H232511   2.570   4.909   2.490 -0.2034 -0.7468  0.0426
 3626TIP3   OH232512   1.811   1.036   1.309 -0.0769  0.5199 -0.1413
 3626TIP3    H132513   1.860   1.093   1.368 -0.4903  0.8681 -0.1302
 3626TIP3    H232514   1.755   0.983   1.366 -0.5080  0.8858 -0.2214
 3627TIP3   OH232515   5.006   4.453   8.072  0.0647 -0.5049  0.9574
 3627TIP3    H132516   4.941   4.478   8.005 -0.4187  0.8406  1.8677
 3627TIP3    H232517   4.953   4.434   8.150  0.7283  0.1270  1.5723
 3628TIP3   OH232518   4.595   1.409   0.471 -0.1546 -0.1934 -0.2292
 3628TIP3    H132519   4.504   1.432   0.455  0.0915  0.5407 -0.6126
 3628TIP3    H232520   4.616   1.452   0.555  0.0655  0.3193 -0.5399
 3629TIP3   OH232521   2.067   6.218   0.885 -0.0611  0.2830 -0.2806
 3629TIP3    H132522   2.032   6.220   0.974  0.9224  1.6233  0.1168
 3629TIP3    H232523   2.096   6.308   0.869  2.3688 -0.5385 -0.9052
 3630TIP3   OH232524   4.549   5.528   1.743 -0.2200  0.2750  0.1294
 3630TIP3    H132525   4.487   5.493   1.807 -0.2418  0.0251 -0.0256
 3630TIP3    H232526   4.634   5.494   1.772 -0.0654  1.1122  0.6905
 3631TIP3   OH232527   4.456   6.645   0.738  0.0732  0.4347 -0.1267
 3631TIP3    H132528   4.389   6.710   0.716 -3.0720 -2.0492  1.3238
 3631TIP3    H232529   4.500   6.680   0.815 -1.5448  0.8945  0.6171
 3632TIP3   OH232530   6.735   6.847   1.412 -0.0987  0.4005  0.1523
 3632TIP3    H132531   6.680   6.870   1.337  1.2442 -0.0570 -1.0278
 3632TIP3    H232532   6.746   6.752   1.405 -0.7265  0.2015  1.5060
 3633TIP3   OH232533   3.816   4.735   8.490  0.8858  0.1478 -0.3875
 3633TIP3    H132534   3.732   4.706   8.456 -0.5678  2.9616  0.5131
 3633TIP3    H232535   3.813   4.714   8.584 -0.1841  2.8783  0.2779
 3634TIP3   OH232536   1.315   2.975   7.708  0.4244  0.2507  0.1284
 3634TIP3    H132537   1.245   2.986   7.772 -1.1504 -0.9091 -1.2797
 3634TIP3    H232538   1.350   2.887   7.726  1.3596  0.7137  0.6433
 3635TIP3   OH232539   4.079   1.524   6.881  0.2044  0.2451 -0.0946
 3635TIP3    H132540   4.013   1.463   6.849  0.1905  0.4834 -0.5364
 3635TIP3    H232541   4.112   1.485   6.962  0.1513 -0.3140 -0.3381
 3636TIP3   OH232542   0.494   1.577   2.042 -0.2500  0.0246  0.1902
 3636TIP3    H132543   0.420   1.534   2.001 -0.2593  2.0370 -2.1134
 3636TIP3    H232544   0.456   1.655   2.084  0.2683 -0.1735  1.0624
 3637TIP3   OH232545   3.930   5.175   6.358 -0.2156 -0.8335 -0.1662
 3637TIP3    H132546   4.015   5.133   6.370 -0.7331 -1.6186  0.9654
 3637TIP3    H232547   3.948   5.249   6.300  1.3187 -0.7426  0.3613
 3638TIP3   OH232548   5.098   6.353   7.946  0.7596  0.1538  0.5467
 3638TIP3    H132549   5.166   6.340   8.012  1.6746  0.5357 -0.2797
 3638TIP3    H232550   5.139   6.323   7.864  0.0518  0.7157 -0.0300
 3639TIP3   OH232551   3.556   0.754   6.827  0.2506 -0.2844  0.1537
 3639TIP3    H132552   3.474   0.705   6.819 -0.0238 -0.0072  1.1758
 3639TIP3    H232553   3.529   0.846   6.821  0.6596 -0.2122 -0.8516
 3640TIP3   OH232554   4.561   0.825   7.154  0.0702  0.5970  0.4314
 3640TIP3    H132555   4.499   0.792   7.089  1.1229 -0.5346 -0.0329
 3640TIP3    H232556   4.604   0.899   7.110 -0.6807  1.1685  0.6312
 3641TIP3   OH232557   0.154   3.298   7.503 -0.3079 -0.0221  0.1282
 3641TIP3    H132558   0.189   3.376   7.546  0.2442  0.5235 -1.2421
 3641TIP3    H232559   0.231   3.245   7.483 -0.7228 -1.1512  1.4505
 3642TIP3   OH232560   0.289   0.646   2.291 -0.1305  0.0514  0.0567
 3642TIP3    H132561   0.257   0.718   2.237  0.0223 -0.0917 -0.2283
 3642TIP3    H232562   0.230   0.573   2.271  0.1346 -0.1019 -0.1842
 3643TIP3   OH232563   3.684   6.119   8.015  0.0945 -0.4250 -0.1813
 3643TIP3    H132564   3.655   6.157   8.098 -0.6316  0.4009 -0.7904
 3643TIP3    H232565   3.736   6.043   8.041 -0.7918 -0.6684  1.0139
 3644TIP3   OH232566   2.790   3.719   1.058  0.5850  0.5735 -0.9152
 3644TIP3    H132567   2.856   3.715   0.989  1.6193 -0.1782  0.0940
 3644TIP3    H232568   2.840   3.717   1.139 -0.6321  1.1806 -0.1289
 3645TIP3   OH232569   2.331   1.887   7.665  0.4891 -0.3193  0.7311
 3645TIP3    H132570   2.420   1.903   7.633  0.7064 -1.1982  0.8557
 3645TIP3    H232571   2.328   1.792   7.679 -1.0075 -0.5580 -0.8792
 3646TIP3   OH232572   2.674   2.409   1.754  0.0449 -0.0433 -0.2391
 3646TIP3    H132573   2.652   2.474   1.821  2.4504  0.5637  0.0633
 3646TIP3    H232574   2.717   2.339   1.803  2.4038  0.6951 -1.1381
 3647TIP3   OH232575   4.788   4.441   7.892 -0.2260  0.4816 -0.4714
 3647TIP3    H132576   4.696   4.450   7.915 -0.5838 -1.7791 -0.7672
 3647TIP3    H232577   4.788   4.395   7.808  1.1452 -0.2632 -0.1071
 3648TIP3   OH232578   0.781   0.744   0.050 -0.2306  0.2316  0.1693
 3648TIP3    H132579   0.832   0.749   0.131 -0.4706  1.4764  0.2649
 3648TIP3    H232580   0.690   0.736   0.079 -0.4027  1.5304  0.0643
 3649TIP3   OH232581   0.476   1.867   7.266 -0.7276 -0.5582 -0.1057
 3649TIP3    H132582   0.517   1.816   7.335  0.6659  0.5937 -0.0432
 3649TIP3    H232583   0.395   1.900   7.306 -0.7881 -1.2992  0.3994
 3650TIP3   OH232584   4.446   1.280   7.109 -0.0846 -0.2980  0.6488
 3650TIP3    H132585   4.425   1.189   7.131 -0.0803 -0.5526 -0.3476
 3650TIP3    H232586   4.391   1.300   7.034 -0.8320  0.8722  1.4774
 3651TIP3   OH232587   0.098   6.490   7.424  0.3144  0.3609 -0.7757
 3651TIP3    H132588   0.131   6.482   7.334  2.0361 -2.3497 -0.0530
 3651TIP3    H232589   0.043   6.412   7.435  0.3816  0.4873  0.5732
 3652TIP3   OH232590   5.351   5.630   0.032 -0.1981  0.4340  0.7621
 3652TIP3    H132591   5.323   5.722   0.026 -2.1557 -0.0559  1.4843
 3652TIP3    H232592   5.329   5.593  -0.054 -0.9231  0.2742  1.0111
 3653TIP3   OH232593   3.898   4.544   7.473  0.2607  0.3528 -0.3388
 3653TIP3    H132594   3.939   4.630   7.468 -0.2704  0.6044 -0.3956
 3653TIP3    H232595   3.892   4.515   7.382 -2.0221  1.4384 -0.6048
 3654TIP3   OH232596   3.186   4.465   7.124  0.8301  0.1123 -0.3491
 3654TIP3    H132597   3.183   4.494   7.215  0.1872  2.3588 -1.0307
 3654TIP3    H232598   3.098   4.432   7.106  0.9216 -0.2177 -0.1993
 3655TIP3   OH232599   3.721   4.086   0.611 -0.1291  0.1212  0.1521
 3655TIP3    H132600   3.721   4.120   0.522 -0.3950 -0.0325  0.0906
 3655TIP3    H232601   3.761   4.156   0.664  1.7899 -0.5475 -0.3491
 3656TIP3   OH232602   6.212   1.315   7.327  0.0626  0.1425 -0.0895
 3656TIP3    H132603   6.153   1.364   7.271 -0.6535  0.8682  1.2388
 3656TIP3    H232604   6.209   1.361   7.411  0.9147 -1.0255  0.6133
 3657TIP3   OH232605   0.550   4.560   0.174  0.2676  0.6261 -0.1176
 3657TIP3    H132606   0.511   4.538   0.089 -0.9995  1.4499  0.2254
 3657TIP3    H232607   0.623   4.499   0.183 -1.1576 -1.2649 -0.6268
 3658TIP3   OH232608   6.290   3.830   0.032 -0.0658  0.2254  0.0524
 3658TIP3    H132609   6.317   3.795   0.117  0.1031  2.5138  0.9996
 3658TIP3    H232610   6.200   3.859   0.046 -0.2337  0.1009 -0.7302
 3659TIP3   OH232611   3.406   0.718   7.151  0.8888  0.1798 -0.3996
 3659TIP3    H132612   3.360   0.659   7.091 -2.2890  1.4404  0.6377
 3659TIP3    H232613   3.440   0.660   7.220 -1.0380 -0.6424 -0.0792
 3660TIP3   OH232614   5.319   3.703   0.265  0.2066 -0.0563  0.1700
 3660TIP3    H132615   5.335   3.720   0.172  2.0785  1.4325  0.6898
 3660TIP3    H232616   5.397   3.736   0.308  0.1114 -2.1895  2.1708
 3661TIP3   OH232617   0.391   4.241   0.800 -0.4292  0.3523 -0.7132
 3661TIP3    H132618   0.468   4.297   0.813 -1.0427  0.8614  0.9603
 3661TIP3    H232619   0.317   4.294   0.830 -1.1870 -0.8857 -0.3117
 3662TIP3   OH232620   4.593   1.365   7.834 -0.4698  0.2352 -0.1222
 3662TIP3    H132621   4.546   1.347   7.753 -1.4900 -0.5478  0.6225
 3662TIP3    H232622   4.655   1.293   7.843 -0.4905  0.2200 -0.1021
 3663TIP3   OH232623   2.208   4.155   1.264 -0.3718 -0.8669  0.1528
 3663TIP3    H132624   2.123   4.124   1.293 -1.4000  0.2567 -1.4766
 3663TIP3    H232625   2.190   4.205   1.185  1.5175  1.4279  1.0436
 3664TIP3   OH232626   6.623   0.512   7.651  0.1667 -0.4769  0.2443
 3664TIP3    H132627   6.666   0.500   7.567 -3.5577 -2.4849 -1.6345
 3664TIP3    H232628   6.625   0.425   7.691 -0.9864 -0.3327  0.6507
 3665TIP3   OH232629   3.124   5.448   8.503 -0.2057 -0.2041  0.0873
 3665TIP3    H132630   3.084   5.527   8.537  1.7362  0.6068  0.6365
 3665TIP3    H232631   3.084   5.436   8.417 -0.3841  1.5052 -0.1036
 3666TIP3   OH232632   0.225   1.495   8.730 -0.8150  0.2348  0.0373
 3666TIP3    H132633   0.280   1.514   8.806 -0.6919  0.0803 -0.0113
 3666TIP3    H232634   0.173   1.574   8.717 -1.3348  0.0065  0.7012
 3667TIP3   OH232635   4.522   5.512   0.488  0.3509  0.3875 -0.8311
 3667TIP3    H132636   4.570   5.582   0.531  0.3294  1.4467 -2.4330
 3667TIP3    H232637   4.589   5.449   0.462  0.2952 -0.6381  1.2850
 3668TIP3   OH232638   5.024   5.258   1.378 -0.0868 -0.1478 -0.2559
 3668TIP3    H132639   4.986   5.201   1.311  1.1676 -3.5469  1.7339
 3668TIP3    H232640   4.950   5.284   1.433 -1.0288  2.1868 -2.4206
 3669TIP3   OH232641   3.515   4.424   1.142 -0.2012  0.1912 -0.2622
 3669TIP3    H132642   3.424   4.435   1.115 -0.0016 -0.2537 -1.1587
 3669TIP3    H232643   3.560   4.498   1.102  0.0543 -0.3296 -0.9528
 3670TIP3   OH232644   4.259   4.947   1.969  0.0056 -0.1648 -0.8288
 3670TIP3    H132645   4.240   5.010   1.900 -0.9801  2.1655  1.3956
 3670TIP3    H232646   4.178   4.899   1.981  0.3468 -0.9603 -1.6236
 3671TIP3   OH232647   0.706   4.306   0.476  0.0008 -0.0498  0.3954
 3671TIP3    H132648   0.674   4.251   0.547 -2.2628  0.0790 -0.4519
 3671TIP3    H232649   0.725   4.245   0.405  2.4669 -0.2013  1.0946
 3672TIP3   OH232650   1.396   4.742   0.959 -0.8830 -0.2921 -0.4453
 3672TIP3    H132651   1.331   4.740   0.890 -1.6729  2.1912  0.1080
 3672TIP3    H232652   1.468   4.793   0.922  0.2920 -1.9971 -0.6288
 3673TIP3   OH232653   2.968   2.360   1.343 -0.0858 -0.3224  0.1232
 3673TIP3    H132654   2.948   2.305   1.419 -0.9720 -1.1912 -0.7154
 3673TIP3    H232655   3.044   2.317   1.302  1.3268  0.9476  1.2716
 3674TIP3   OH232656   3.702   0.533   6.866 -0.5229 -0.0903  0.0264
 3674TIP3    H132657   3.667   0.497   6.784 -1.3544 -2.2071  1.2448
 3674TIP3    H232658   3.645   0.608   6.885 -1.7211 -0.9052 -0.2216
 3675TIP3   OH232659   0.439   2.065   1.831 -0.2827 -0.1099  0.6892
 3675TIP3    H132660   0.476   2.055   1.918 -2.2031  2.4833  1.9348
 3675TIP3    H232661   0.512   2.096   1.777  0.2833  1.1759  2.1199
 3676TIP3   OH232662   3.296   2.696   7.544 -0.1038  0.5391 -0.0443
 3676TIP3    H132663   3.215   2.745   7.535  1.0177  2.4177 -0.2687
 3676TIP3    H232664   3.271   2.605   7.524 -1.3633  1.6105 -4.3001
 3677TIP3   OH232665   5.907   5.630   7.082  0.0983  0.2236 -0.1750
 3677TIP3    H132666   5.862   5.713   7.065  0.3720  0.2229 -0.9696
 3677TIP3    H232667   5.856   5.588   7.151  1.5393  2.2906  2.2986
 3678TIP3   OH232668   1.358   3.639   1.648 -0.4150 -0.1949 -0.0099
 3678TIP3    H132669   1.292   3.584   1.691 -1.8427  0.0502 -1.7581
 3678TIP3    H232670   1.321   3.656   1.561  1.0341  1.6674 -0.3116
 3679TIP3   OH232671   1.948   0.117   0.265 -0.0477 -0.0753  0.7194
 3679TIP3    H132672   1.896   0.196   0.251  0.4171  0.5097  2.1772
 3679TIP3    H232673   1.968   0.117   0.358  0.8121 -1.3888  0.5610
 3680TIP3   OH232674   0.358   5.452   0.390  0.1687  0.3942  0.0306
 3680TIP3    H132675   0.413   5.524   0.359  0.5576 -0.5709 -1.5955
 3680TIP3    H232676   0.268   5.483   0.376  0.3138  0.8618  0.0927
 3681TIP3   OH232677   3.099   2.806   7.039  0.5009  0.3995  0.0409
 3681TIP3    H132678   3.164   2.861   7.082 -0.0471  0.9009  0.2400
 3681TIP3    H232679   3.050   2.866   6.982  0.9257 -0.1692 -0.9547
 3682TIP3   OH232680   3.562   2.392   1.206  0.3189  0.5169 -0.1590
 3682TIP3    H132681   3.576   2.459   1.273  0.3767 -0.4503  0.8293
 3682TIP3    H232682   3.638   2.334   1.215  1.4758  1.5155 -2.5342
 3683TIP3   OH232683   3.301   6.276   6.885 -0.2463  0.5837 -0.5811
 3683TIP3    H132684   3.323   6.347   6.946 -0.5176  1.0355 -1.0053
 3683TIP3    H232685   3.261   6.320   6.811 -0.4460 -0.0221 -0.8353
 3684TIP3   OH232686   1.980   0.009   2.587 -0.4905  0.0665 -0.2327
 3684TIP3    H132687   2.028  -0.043   2.522 -2.5371 -0.8698 -1.0785
 3684TIP3    H232688   1.979   0.097   2.551 -0.0668 -0.0664 -0.5818
 3685TIP3   OH232689   2.664   1.433   1.314  0.2669 -0.3840  0.5399
 3685TIP3    H132690   2.569   1.423   1.317  0.0432  1.3799  2.2217
 3685TIP3    H232691   2.679   1.501   1.248  0.5507 -1.8355 -0.9423
 3686TIP3   OH232692   3.449   3.568   8.077  0.2354  0.2627 -0.1850
 3686TIP3    H132693   3.383   3.603   8.137  0.0933  0.2818 -0.3521
 3686TIP3    H232694   3.533   3.594   8.116  0.1246  1.5198 -0.7428
 3687TIP3   OH232695   3.982   5.298   0.224 -0.0927  0.2192  0.3789
 3687TIP3    H132696   3.929   5.372   0.253 -0.8664 -0.3353  0.4074
 3687TIP3    H232697   4.006   5.253   0.305 -1.1298 -0.5671  0.2709
 3688TIP3   OH232698   1.803   4.669   6.835 -0.2241 -0.8149  1.1208
 3688TIP3    H132699   1.890   4.699   6.860 -0.2440 -0.1098  0.3822
 3688TIP3    H232700   1.767   4.739   6.781 -0.8728 -1.5146  0.6093
 3689TIP3   OH232701   3.415   5.575   7.983  0.1901 -0.0158  0.4807
 3689TIP3    H132702   3.481   5.642   8.003  1.3410 -1.6931  2.8227
 3689TIP3    H232703   3.431   5.551   7.892  0.0246  2.5245 -0.2875
 3690TIP3   OH232704   2.291   6.308   8.195 -0.2834  0.1304 -0.1685
 3690TIP3    H132705   2.382   6.304   8.225 -0.8270  2.0244  1.9389
 3690TIP3    H232706   2.283   6.234   8.135  2.6418 -0.0824 -0.4457
 3691TIP3   OH232707   3.625   0.431   8.151  0.1883  0.1062 -0.3045
 3691TIP3    H132708   3.584   0.435   8.238  0.0532  1.1795 -0.4082
 3691TIP3    H232709   3.553   0.410   8.091 -0.1035  1.2973 -0.3963
 3692TIP3   OH232710   4.358   2.510   7.325  0.6890 -0.2868 -0.7141
 3692TIP3    H132711   4.312   2.469   7.251 -0.1828 -0.4181 -0.1217
 3692TIP3    H232712   4.305   2.587   7.346 -0.5381 -1.5652  1.3202
 3693TIP3   OH232713   0.331   1.067   8.642  0.2651  0.3967  0.1313
 3693TIP3    H132714   0.321   1.031   8.730 -0.9207  2.6301  1.0035
 3693TIP3    H232715   0.422   1.049   8.618  0.4182 -0.8479  1.5113
 3694TIP3   OH232716   6.728   0.860   2.180 -0.3995  0.0788  0.8342
 3694TIP3    H132717   6.758   0.920   2.249  0.9403 -0.7604  1.0181
 3694TIP3    H232718   6.636   0.885   2.165  0.3111  2.7258  0.3022
 3695TIP3   OH232719   0.089   5.271   1.019  0.1643 -0.3044 -0.9584
 3695TIP3    H132720   0.097   5.250   1.112  0.4752 -1.3993 -1.2230
 3695TIP3    H232721   0.172   5.313   0.996  0.8794 -1.7658 -1.1656
 3696TIP3   OH232722   3.137   0.757   8.127 -0.4164 -0.4077 -1.0650
 3696TIP3    H132723   3.117   0.847   8.100 -0.4789 -0.4042 -1.0061
 3696TIP3    H232724   3.194   0.768   8.204 -3.1188 -0.3757  1.1060
 3697TIP3   OH232725   4.604   4.648   8.647  0.1756 -0.1643 -0.1503
 3697TIP3    H132726   4.586   4.613   8.559  0.7761  1.2320 -0.8681
 3697TIP3    H232727   4.681   4.600   8.677 -0.3835 -1.0675 -0.1178
 3698TIP3   OH232728   5.573   4.285   0.770  0.0040 -0.2135 -0.0633
 3698TIP3    H132729   5.603   4.338   0.844 -1.4892  2.7922 -1.4359
 3698TIP3    H232730   5.514   4.221   0.809  0.9187 -0.1319  1.5538
 3699TIP3   OH232731   4.571   1.202   6.172 -0.5161 -0.5392  0.1086
 3699TIP3    H132732   4.513   1.127   6.184 -1.2265 -0.2172 -1.1801
 3699TIP3    H232733   4.533   1.270   6.228 -2.3747  0.1717 -1.8613
 3700TIP3   OH232734   0.641   3.156   0.977 -0.1551 -0.1894 -0.1536
 3700TIP3    H132735   0.554   3.167   0.938  0.0238  1.1753 -0.2126
 3700TIP3    H232736   0.636   3.073   1.024 -1.8183  0.3329  0.6783
 3701TIP3   OH232737   5.577   6.354   1.943 -0.3201  0.7651 -0.0447
 3701TIP3    H132738   5.496   6.346   1.992 -0.2080 -0.3148 -0.0273
 3701TIP3    H232739   5.646   6.350   2.009 -0.2296  1.0640 -0.1196
 3702TIP3   OH232740   1.487   2.617   0.946  0.2939 -0.4615 -0.7663
 3702TIP3    H132741   1.414   2.559   0.968  0.1751 -0.7219 -1.7719
 3702TIP3    H232742   1.558   2.590   1.005 -0.8817  0.8992  1.4007
 3703TIP3   OH232743   1.053   0.063   8.012 -0.0391  0.1571 -0.2067
 3703TIP3    H132744   1.021   0.042   7.924  0.6488 -1.4906 -0.1029
 3703TIP3    H232745   1.147   0.072   8.001 -0.0652  0.9661  0.1990
 3704TIP3   OH232746   6.572   1.631   6.453  0.1885 -0.2842 -0.2657
 3704TIP3    H132747   6.607   1.553   6.409 -0.4491 -0.5371 -0.3221
 3704TIP3    H232748   6.485   1.605   6.482  0.8538 -0.3691  1.8075
 3705TIP3   OH232749   1.897   2.689   0.365 -0.1838  0.3641 -0.1081
 3705TIP3    H132750   1.838   2.617   0.344 -1.6119  1.8472 -1.4644
 3705TIP3    H232751   1.961   2.689   0.294  0.0730  0.1629  0.1241
 3706TIP3   OH232752   0.954   0.872   1.002  0.0291  0.4847  0.4512
 3706TIP3    H132753   0.912   0.790   0.978 -2.0729  1.8758 -0.8930
 3706TIP3    H232754   1.046   0.848   1.016  0.1526 -1.5853 -2.8937
 3707TIP3   OH232755   0.739   3.126   7.333  0.2555  0.8934  0.0039
 3707TIP3    H132756   0.731   3.040   7.292  1.5791  0.6292  0.2521
 3707TIP3    H232757   0.727   3.188   7.261 -0.4649  0.4970 -0.2200
 3708TIP3   OH232758   4.384   4.587   0.950  0.0768 -0.1406 -0.4760
 3708TIP3    H132759   4.350   4.516   1.004 -2.2175  0.8075 -0.5785
 3708TIP3    H232760   4.306   4.632   0.917  1.4469  1.7354 -1.3362
 3709TIP3   OH232761   6.034   2.697   7.824 -0.1995 -0.2284 -0.3184
 3709TIP3    H132762   6.028   2.673   7.732  0.2367  3.1902 -1.3894
 3709TIP3    H232763   5.952   2.665   7.863 -0.3411 -1.8062 -1.8171
 3710TIP3   OH232764   3.891   0.514   8.054 -0.5045 -0.0300 -0.4270
 3710TIP3    H132765   3.901   0.610   8.053 -2.0798  0.1601  0.0771
 3710TIP3    H232766   3.799   0.500   8.072 -0.6321 -1.6498 -2.0600
 3711TIP3   OH232767   0.077   6.156   8.261  0.2075 -0.0379 -0.2495
 3711TIP3    H132768   0.021   6.137   8.186 -0.7382  1.3653  0.0613
 3711TIP3    H232769   0.162   6.117   8.239 -0.6018 -1.3456 -1.1616
 3712TIP3   OH232770   1.230   5.055   1.098 -1.0354  0.0867  0.1075
 3712TIP3    H132771   1.155   5.041   1.155 -1.7768 -2.3075 -1.2895
 3712TIP3    H232772   1.289   4.982   1.118 -0.4144  0.3345 -0.7627
 3713TIP3   OH232773   5.929   0.467   7.227  0.5194  0.6667  0.5484
 3713TIP3    H132774   5.991   0.507   7.288  1.0852  0.9275 -0.1855
 3713TIP3    H232775   5.877   0.541   7.195 -3.5562  0.0902  4.6859
 3714TIP3   OH232776   6.420   3.783   1.277 -0.3443  0.0726 -0.6229
 3714TIP3    H132777   6.398   3.690   1.274 -0.5786  0.1376 -1.0998
 3714TIP3    H232778   6.364   3.822   1.209 -0.9186  0.6987  0.1892
 3715TIP3   OH232779   4.237   0.114   8.453 -0.7448 -0.3433  0.0094
 3715TIP3    H132780   4.235   0.023   8.425 -0.7872  0.3081 -2.3325
 3715TIP3    H232781   4.328   0.141   8.443 -1.0617  0.3647 -1.2306
 3716TIP3   OH232782   0.424   5.436   1.636  0.1367  0.1881  0.3612
 3716TIP3    H132783   0.511   5.474   1.653 -0.0415  0.3450  0.9671
 3716TIP3    H232784   0.417   5.433   1.541  0.9299 -0.1109  0.3073
 3717TIP3   OH232785   0.610   4.820   1.313 -0.1869 -0.3689  0.4411
 3717TIP3    H132786   0.664   4.899   1.302 -0.9163 -0.2005 -3.0191
 3717TIP3    H232787   0.525   4.845   1.277 -0.3773 -2.7582 -0.9379
 3718TIP3   OH232788   2.104   5.067   0.435  0.0810 -0.1371  0.1379
 3718TIP3    H132789   2.110   5.059   0.530 -0.9644  0.6210  0.2908
 3718TIP3    H232790   2.186   5.110   0.409 -0.3483  1.2072  0.9165
 3719TIP3   OH232791   0.174   0.138   1.692  0.3522  0.1012  0.6227
 3719TIP3    H132792   0.208   0.077   1.627 -1.1672  0.0199 -0.1296
 3719TIP3    H232793   0.196   0.098   1.776  1.4055 -0.3153  0.1607
 3720TIP3   OH232794   1.161   5.545   1.892  0.0418 -0.0463 -0.6926
 3720TIP3    H132795   1.221   5.559   1.966 -1.7436 -0.0365  0.8272
 3720TIP3    H232796   1.154   5.450   1.884  0.3532 -0.0477 -0.9539
 3721TIP3   OH232797   2.472   1.837   0.614  0.0076  0.0159 -0.3693
 3721TIP3    H132798   2.472   1.833   0.710  0.3579  0.5338 -0.3476
 3721TIP3    H232799   2.536   1.771   0.587 -0.7080 -0.7330 -0.2776
 3722TIP3   OH232800   2.124   1.057   0.328  0.5845  0.2914 -0.0363
 3722TIP3    H132801   2.067   1.053   0.404 -0.1075 -3.0341 -0.5980
 3722TIP3    H232802   2.068   1.093   0.258 -0.2602 -1.0979 -0.1014
 3723TIP3   OH232803   2.570   3.218   2.374 -0.7415  0.0237  0.3171
 3723TIP3    H132804   2.511   3.237   2.301  0.7539 -2.0279 -1.5850
 3723TIP3    H232805   2.615   3.301   2.391 -2.5593  1.0524  0.3207
 3724TIP3   OH232806   3.245   0.985   0.763  0.3797 -0.2727  0.0415
 3724TIP3    H132807   3.264   0.904   0.716  0.6377 -0.3822  0.3310
 3724TIP3    H232808   3.285   1.054   0.710 -0.3085 -0.2729 -0.4912
 3725TIP3   OH232809   3.890   3.734   6.383  0.2340  0.3996  0.2815
 3725TIP3    H132810   3.818   3.747   6.320 -0.3615  2.3043  1.2757
 3725TIP3    H232811   3.848   3.693   6.458  1.1741 -3.0303 -0.9045
 3726TIP3   OH232812   4.370   6.073   7.209  0.4380 -0.0371 -0.6146
 3726TIP3    H132813   4.275   6.067   7.221  0.3203 -0.1121 -1.5592
 3726TIP3    H232814   4.391   6.003   7.147  1.0407  0.3063 -0.8025
 3727TIP3   OH232815   0.828   4.757   1.020 -0.1230  0.5252  0.3388
 3727TIP3    H132816   0.843   4.851   1.027  2.2969  0.2471 -0.0617
 3727TIP3    H232817   0.910   4.723   0.984 -0.1327 -1.9961  2.4575
 3728TIP3   OH232818   6.604   3.029   8.187 -0.9057 -0.1020  0.0591
 3728TIP3    H132819   6.634   3.099   8.129 -0.4760 -0.9635 -0.7837
 3728TIP3    H232820   6.684   2.981   8.210 -1.3425 -1.0738 -0.4043
 3729TIP3   OH232821   6.233   3.164   1.060  0.5410  0.0038  0.1582
 3729TIP3    H132822   6.240   3.194   1.150  0.3383  0.4702  0.0239
 3729TIP3    H232823   6.167   3.095   1.063  0.7507 -0.1892  0.4115
 3730TIP3   OH232824   1.242   1.166   2.877  0.5170 -0.7116  0.3891
 3730TIP3    H132825   1.325   1.123   2.898  0.4658 -1.2755 -0.5002
 3730TIP3    H232826   1.174   1.105   2.905  0.4389 -1.0137 -0.4162
 3731TIP3   OH232827   1.460   3.817   0.207 -0.4074 -0.1076  0.0942
 3731TIP3    H132828   1.454   3.909   0.234  2.9708  0.0961  0.5934
 3731TIP3    H232829   1.486   3.821   0.115  0.6083 -0.5319  0.3590
 3732TIP3   OH232830   4.437   4.972   8.210  1.0072  0.2798 -0.6034
 3732TIP3    H132831   4.518   5.021   8.229  1.6347 -1.2257  0.8953
 3732TIP3    H232832   4.467   4.895   8.161  0.7376 -1.0385  1.2076
 3733TIP3   OH232833   5.383   6.147   0.888  0.1751 -0.4503  0.0151
 3733TIP3    H132834   5.382   6.086   0.962 -2.3257 -0.3046  0.1914
 3733TIP3    H232835   5.371   6.091   0.811 -0.2316 -0.3389 -0.0010
 3734TIP3   OH232836   5.039   4.219   0.486 -0.2140 -0.0279 -0.0410
 3734TIP3    H132837   5.009   4.129   0.477 -0.2304 -0.0199 -0.0664
 3734TIP3    H232838   4.977   4.271   0.434 -1.5677  0.2738  1.7854
 3735TIP3   OH232839   0.881   4.259   1.029  0.1842 -0.0367 -0.0110
 3735TIP3    H132840   0.912   4.269   1.118  0.3482 -0.1190 -0.0586
 3735TIP3    H232841   0.822   4.333   1.015 -0.4502 -0.4536  0.4241
 3736TIP3   OH232842   6.742   1.477   7.757  0.0610  0.0040 -0.1916
 3736TIP3    H132843   6.779   1.520   7.834  0.3414  1.8539 -1.3139
 3736TIP3    H232844   6.799   1.503   7.685 -0.1144 -1.8121 -1.0438
 3737TIP3   OH232845   5.013   4.882   1.865 -0.6819  0.1250  0.0200
 3737TIP3    H132846   4.924   4.906   1.841 -0.7043 -0.2529 -0.2615
 3737TIP3    H232847   5.026   4.795   1.830 -0.8688 -0.6391  1.7296
 3738TIP3   OH232848   2.469   4.362   1.439  0.0345 -0.0058 -0.0823
 3738TIP3    H132849   2.395   4.377   1.499  0.3636  2.0034 -0.1251
 3738TIP3    H232850   2.438   4.392   1.354  1.1788  1.8349  0.0926
 3739TIP3   OH232851   1.975   6.621   2.185 -0.1501 -0.7976  0.3149
 3739TIP3    H132852   1.883   6.595   2.179 -0.2052 -0.3685 -1.0907
 3739TIP3    H232853   1.972   6.712   2.213 -0.0455 -1.3833  2.4259
 3740TIP3   OH232854   1.293   0.955   8.241 -0.0582 -0.5913  0.1777
 3740TIP3    H132855   1.236   1.004   8.183  1.8395  0.8697 -0.5593
 3740TIP3    H232856   1.379   0.959   8.199  0.5785 -2.8859  1.1204
 3741TIP3   OH232857   4.820   6.407   6.954 -0.3279  0.5376  0.6668
 3741TIP3    H132858   4.831   6.488   7.004 -0.5184  0.3736  0.9826
 3741TIP3    H232859   4.831   6.432   6.863  1.0596  0.6749  0.8456
 3742TIP3   OH232860   1.203   0.958   7.639  0.2781  0.0080  0.6506
 3742TIP3    H132861   1.297   0.974   7.648  1.3786 -2.0328 -4.0749
 3742TIP3    H232862   1.188   0.877   7.689  0.9804  0.3528  1.4461
 3743TIP3   OH232863   0.993   0.393   0.714  0.0025 -0.0419 -0.5884
 3743TIP3    H132864   0.930   0.330   0.678  2.3769 -1.0396 -3.4074
 3743TIP3    H232865   1.069   0.340   0.738  1.0230  1.4579 -0.3649
 3744TIP3   OH232866   1.993   0.304   1.778 -0.3325 -0.1637 -0.3258
 3744TIP3    H132867   2.023   0.334   1.864  0.1953 -2.4953  0.3722
 3744TIP3    H232868   2.028   0.215   1.770  1.4801  0.7174 -3.9275
 3745TIP3   OH232869   1.733   5.318   0.754 -0.3552 -0.3089  0.4442
 3745TIP3    H132870   1.785   5.383   0.802  0.1426 -1.3967  1.4152
 3745TIP3    H232871   1.646   5.324   0.793 -0.4677  0.1835  0.1241
 3746TIP3   OH232872   1.245   6.570   1.342 -0.3905  0.1523  0.0359
 3746TIP3    H132873   1.180   6.571   1.412 -0.7716 -0.1693 -0.3107
 3746TIP3    H232874   1.267   6.477   1.331  0.0048  0.2430  0.0354
 3747TIP3   OH232875   1.015   4.335   0.727  0.2562  0.0088 -0.6933
 3747TIP3    H132876   1.083   4.366   0.787 -0.9170  1.4172 -0.0078
 3747TIP3    H232877   1.061   4.312   0.647  1.6777 -0.3338  0.1986
 3748TIP3   OH232878   6.260   3.395   1.623 -0.5384  0.0046 -0.5652
 3748TIP3    H132879   6.268   3.450   1.545 -0.8803  0.2393 -0.4371
 3748TIP3    H232880   6.187   3.433   1.671 -0.6205 -0.4178 -0.3563
 3749TIP3   OH232881   6.498   3.184   1.050 -0.2173  0.0862 -0.1000
 3749TIP3    H132882   6.488   3.176   1.145 -0.4745 -1.4740 -0.2281
 3749TIP3    H232883   6.422   3.137   1.014  0.8581 -0.9675 -1.0685
 3750TIP3   OH232884   0.426   1.808   0.116  0.1155 -0.1201  0.3269
 3750TIP3    H132885   0.440   1.903   0.113  0.3061 -0.1728 -0.9438
 3750TIP3    H232886   0.339   1.798   0.156 -1.7079  0.8451 -2.9888
 3751TIP3   OH232887   2.047   3.696   1.784  0.2521  0.5310  0.0604
 3751TIP3    H132888   2.091   3.626   1.834  0.2238  1.1373  0.9595
 3751TIP3    H232889   2.039   3.661   1.696  1.8869  0.1181  0.0507
 3752TIP3   OH232890   6.037   2.377   8.573 -0.0805 -0.1789  0.6717
 3752TIP3    H132891   5.951   2.387   8.533 -0.1716 -0.3778  0.8176
 3752TIP3    H232892   6.072   2.296   8.536  0.7178  0.7162 -0.6162
 3753TIP3   OH232893   5.770   1.687   6.521  0.4870  0.2569 -0.3968
 3753TIP3    H132894   5.845   1.743   6.540  0.4479 -0.3938  2.0089
 3753TIP3    H232895   5.696   1.747   6.516  1.0225  0.8335 -2.1625
 3754TIP3   OH232896   6.353   4.694   1.709  0.2682  0.3082  0.5301
 3754TIP3    H132897   6.332   4.768   1.766  2.1868 -0.3806  2.2561
 3754TIP3    H232898   6.291   4.626   1.734  0.8996  0.1159  1.6339
 3755TIP3   OH232899   2.469   4.941   0.419  0.3226 -0.1686  0.5030
 3755TIP3    H132900   2.404   5.006   0.390  0.3513  0.2884  1.4418
 3755TIP3    H232901   2.475   4.879   0.345 -0.1931  0.5199 -0.1324
 3756TIP3   OH232902   0.977   6.675   8.008 -0.1304 -0.1617 -0.0400
 3756TIP3    H132903   0.888   6.696   8.036 -0.5645  0.3879 -1.7439
 3756TIP3    H232904   1.026   6.756   8.020 -0.2447 -0.0125 -0.5615
 3757TIP3   OH232905   5.881   3.784   1.085  0.4329 -0.3394  0.3610
 3757TIP3    H132906   5.925   3.699   1.090  0.0268 -0.6969 -1.4314
 3757TIP3    H232907   5.789   3.763   1.068  0.4125  0.4374 -0.6350
 3758TIP3   OH232908   0.248   0.905   0.073 -0.2093  0.4827  0.3143
 3758TIP3    H132909   0.279   0.851   0.146 -1.7062 -0.7966  0.0342
 3758TIP3    H232910   0.154   0.889   0.069 -0.0139 -0.4452 -2.6484
 3759TIP3   OH232911   6.542   3.082   6.890  0.6774  0.2606 -0.0216
 3759TIP3    H132912   6.518   3.012   6.829  0.6812  0.8786 -0.7505
 3759TIP3    H232913   6.636   3.070   6.905  0.6026 -0.1156  0.1556
 3760TIP3   OH232914   2.872   1.052   8.626  0.5247  0.3456 -0.0984
 3760TIP3    H132915   2.930   1.015   8.559  0.5726  1.1686 -0.5202
 3760TIP3    H232916   2.930   1.092   8.690  0.5061 -0.9162  0.7588
 3761TIP3   OH232917   6.197   1.505   0.726  0.3482  0.6254 -0.2368
 3761TIP3    H132918   6.160   1.421   0.699  2.5278 -0.3490 -0.4003
 3761TIP3    H232919   6.211   1.497   0.820 -0.2006  1.1367 -0.1056
 3762TIP3   OH232920   5.068   2.921   6.576  0.2020 -0.1060  0.3143
 3762TIP3    H132921   5.026   2.951   6.656  0.5811 -1.4024  1.0425
 3762TIP3    H232922   5.101   3.000   6.534 -1.7966  0.8036  0.3615
 3763TIP3   OH232923   2.032   3.952   8.526 -0.4702  0.3574  0.1544
 3763TIP3    H132924   2.000   3.998   8.448 -0.5345  0.1056  0.0317
 3763TIP3    H232925   2.092   3.886   8.491 -2.1116 -1.1678  0.1444
 3764TIP3   OH232926   2.398   6.711   1.843  0.0351  0.6027 -0.5686
 3764TIP3    H132927   2.404   6.806   1.849 -1.7839  0.7743 -0.7318
 3764TIP3    H232928   2.314   6.690   1.884 -0.8157 -0.6492 -2.7758
 3765TIP3   OH232929   2.672   3.744   0.722 -0.4448  0.6804  0.0356
 3765TIP3    H132930   2.699   3.662   0.679  1.2145  0.1661  1.9174
 3765TIP3    H232931   2.599   3.718   0.779 -0.0354  0.5330  0.4981
 3766TIP3   OH232932   0.434   2.090   6.987 -0.3249 -0.1878 -0.1782
 3766TIP3    H132933   0.379   2.165   6.967 -0.0519  0.2664  0.7396
 3766TIP3    H232934   0.396   2.018   6.937 -1.7464  0.1143  0.4230
 3767TIP3   OH232935   4.887   3.867   8.794  0.0667  0.0156  0.0998
 3767TIP3    H132936   4.978   3.884   8.819 -0.1941  1.5477  0.0980
 3767TIP3    H232937   4.881   3.901   8.704 -0.3206 -0.7537 -0.1693
 3768TIP3   OH232938   1.910   2.841   7.140  0.1913  0.3507  0.0795
 3768TIP3    H132939   1.923   2.934   7.122  0.4617 -0.0846 -2.3070
 3768TIP3    H232940   1.816   2.833   7.156  0.3024  1.1350  1.3605
 3769TIP3   OH232941   4.057   4.172   1.123 -0.0454  0.4823 -0.3481
 3769TIP3    H132942   3.988   4.132   1.175 -0.6663  1.0930 -0.6942
 3769TIP3    H232943   4.135   4.166   1.179 -1.1476  3.1474  1.6766
 3770TIP3   OH232944   2.850   0.738   1.322  0.0494 -0.0498  0.3906
 3770TIP3    H132945   2.922   0.688   1.282 -1.7000 -0.5805 -2.4219
 3770TIP3    H232946   2.879   0.829   1.317  1.2503 -0.3735  1.0141
 3771TIP3   OH232947   6.557   0.088   8.676 -0.2640 -0.0481  0.5333
 3771TIP3    H132948   6.619   0.122   8.741 -0.4621  1.5374 -0.0799
 3771TIP3    H232949   6.502   0.027   8.726  1.9954 -1.8320  1.0116
 3772TIP3   OH232950   1.625   6.426   6.583 -0.5638 -0.0929 -0.3144
 3772TIP3    H132951   1.580   6.509   6.569  1.9377  1.1373 -1.8859
 3772TIP3    H232952   1.598   6.371   6.509  0.1588  0.5240 -1.0688
 3773TIP3   OH232953   0.365   6.140   2.223 -0.5051  0.2150 -0.0665
 3773TIP3    H132954   0.308   6.107   2.154  1.7473 -2.5077 -0.7843
 3773TIP3    H232955   0.312   6.136   2.303 -1.5553 -1.5889 -0.8046
 3774TIP3   OH232956   0.648   1.931   8.284 -0.7460 -0.0249 -0.7696
 3774TIP3    H132957   0.707   1.999   8.251 -0.2637 -0.6378 -1.1914
 3774TIP3    H232958   0.603   1.972   8.358 -1.0155  0.9944 -1.4807
 3775TIP3   OH232959   1.800   4.722   0.604 -0.3316 -0.3744  0.3704
 3775TIP3    H132960   1.714   4.750   0.572  0.0259 -2.3096 -2.7292
 3775TIP3    H232961   1.851   4.802   0.608 -1.3794  0.4043 -0.9394
 3776TIP3   OH232962   6.135   3.251   7.140  0.2686 -0.0772  0.6339
 3776TIP3    H132963   6.151   3.183   7.075  0.6300  0.5828  0.0114
 3776TIP3    H232964   6.123   3.331   7.088  1.8471  0.7006  1.4088
 3777TIP3   OH232965   3.730   4.795   7.577 -0.0910 -0.5720  0.6811
 3777TIP3    H132966   3.822   4.817   7.594 -0.0173 -0.5456  0.2398
 3777TIP3    H232967   3.727   4.700   7.578  0.0110 -0.5788  0.3156
 3778TIP3   OH232968   2.938   1.991   6.965  0.3104 -0.1367 -0.0731
 3778TIP3    H132969   2.921   1.931   6.893  0.4049 -1.7209  1.1711
 3778TIP3    H232970   3.003   1.947   7.019  0.0380  0.8684  1.1438
 3779TIP3   OH232971   4.755   2.424   8.459 -0.1651 -0.3844 -0.3086
 3779TIP3    H132972   4.837   2.463   8.489 -0.9118  0.0949  1.2259
 3779TIP3    H232973   4.743   2.457   8.370  1.3478 -0.5495 -0.5911
 3780TIP3   OH232974   4.648   2.666   7.974 -0.8914 -0.4767 -0.0716
 3780TIP3    H132975   4.601   2.663   7.890 -1.4760 -0.6481  0.2566
 3780TIP3    H232976   4.580   2.654   8.040 -0.5908  0.7175  0.4793
 3781TIP3   OH232977   4.034   5.885   8.726 -0.7162 -0.0636  0.4520
 3781TIP3    H132978   3.997   5.820   8.785 -0.2561 -1.1355 -0.3977
 3781TIP3    H232979   4.098   5.933   8.779 -0.6757 -0.6642  0.9541
 3782TIP3   OH232980   6.643   5.584   8.645 -0.0258 -0.5711 -0.3074
 3782TIP3    H132981   6.728   5.626   8.636 -0.5172  0.7187  0.8467
 3782TIP3    H232982   6.663   5.495   8.674  0.9271 -0.4214 -0.4756
 3783TIP3   OH232983   4.298   3.025   1.124 -0.5488  0.2323 -0.3853
 3783TIP3    H132984   4.339   2.992   1.044  1.3617  0.0170  0.6278
 3783TIP3    H232985   4.321   2.960   1.191 -1.1785  0.9651  0.5663
 3784TIP3   OH232986   5.852   1.230   7.203 -0.0259  0.3523  0.1638
 3784TIP3    H132987   5.801   1.164   7.156  0.3384 -0.0102  0.2650
 3784TIP3    H232988   5.855   1.305   7.144  0.5223 -0.1380 -0.4476
 3785TIP3   OH232989   4.766   0.524   6.897 -0.0182  0.6148  0.6929
 3785TIP3    H132990   4.848   0.567   6.872  0.2173  0.2329  0.8016
 3785TIP3    H232991   4.708   0.537   6.822  0.3966  0.2271  0.2979
 3786TIP3   OH232992   3.006   2.036   2.107  0.6704 -0.4474  0.3926
 3786TIP3    H132993   2.937   2.102   2.113 -0.6947 -1.8737  1.1665
 3786TIP3    H232994   3.080   2.082   2.067 -0.7027  1.1445 -0.4506
 3787TIP3   OH232995   4.538   1.121   0.628  0.2164  0.1151 -0.1240
 3787TIP3    H132996   4.479   1.046   0.629 -1.2909  1.2279 -0.9419
 3787TIP3    H232997   4.606   1.096   0.566 -0.5801 -0.3681 -0.8312
 3788TIP3   OH232998   4.863   6.501   6.701 -0.1992 -0.3977  0.0945
 3788TIP3    H132999   4.909   6.445   6.638  0.6610 -0.7826  1.0311
 3788TIP3    H233000   4.889   6.590   6.678  2.3348 -0.6574  1.5171
 3789TIP3   OH233001   5.115   2.511   1.620  0.0340  0.3114  0.8019
 3789TIP3    H133002   5.106   2.425   1.661  1.0689  0.0757  0.5427
 3789TIP3    H233003   5.209   2.527   1.617  0.0619  0.0304 -2.1240
 3790TIP3   OH233004   4.761   5.493   1.943 -0.0693 -0.0385  0.2189
 3790TIP3    H133005   4.809   5.414   1.917  1.7965  0.9408  0.4807
 3790TIP3    H233006   4.806   5.522   2.023 -2.5845 -0.3046  1.8676
 3791TIP3   OH233007   5.614   1.929   0.445 -0.4640  0.1753  0.2544
 3791TIP3    H133008   5.557   1.872   0.393  0.7447 -0.9058  0.0773
 3791TIP3    H233009   5.554   1.992   0.486 -1.6863 -0.4132 -0.5705
 3792TIP3   OH233010   2.678   3.560   7.368  0.3773 -0.0446 -0.1047
 3792TIP3    H133011   2.752   3.500   7.368  0.1059 -0.3964  0.4461
 3792TIP3    H233012   2.647   3.562   7.277  0.5268 -0.5700 -0.1673
 3793TIP3   OH233013   2.005   6.317   8.308 -0.5768 -0.1487 -0.1234
 3793TIP3    H133014   2.010   6.412   8.312 -0.1450 -0.1561 -0.3997
 3793TIP3    H233015   2.096   6.288   8.300 -0.7306 -0.5632 -0.4256
 3794TIP3   OH233016   4.791   5.471   7.816  0.4372  0.0198 -0.1217
 3794TIP3    H133017   4.746   5.546   7.856  1.3546 -0.0143  1.0402
 3794TIP3    H233018   4.742   5.395   7.846  1.8228 -0.0990  2.0583
 3795TIP3   OH233019   2.444   4.660   0.333 -0.3084 -0.4321  0.2657
 3795TIP3    H133020   2.449   4.603   0.256  1.5897 -0.7981  0.6212
 3795TIP3    H233021   2.353   4.690   0.334 -0.7186 -1.4786 -1.3468
 3796TIP3   OH233022   4.473   0.255   6.494  0.2423  0.1188 -0.1040
 3796TIP3    H133023   4.506   0.321   6.556  0.2197 -2.1218  2.5008
 3796TIP3    H233024   4.552   0.216   6.456  0.2897  0.6519 -0.5673
 3797TIP3   OH233025   2.390   3.706   8.495 -0.0648  0.1882  0.2016
 3797TIP3    H133026   2.310   3.734   8.450 -0.8236 -0.4914  1.1151
 3797TIP3    H233027   2.376   3.614   8.515  0.8352  0.1348  0.6272
 3798TIP3   OH233028   3.948   4.854   0.771  0.6195  0.5331 -0.5613
 3798TIP3    H133029   3.895   4.865   0.692  3.0414  2.1097 -2.0878
 3798TIP3    H233030   3.967   4.943   0.800  0.9642 -0.0150  0.9824
 3799TIP3   OH233031   6.390   5.117   7.697 -0.0664  0.0575 -1.4178
 3799TIP3    H133032   6.341   5.074   7.768  0.0817 -0.0389 -1.3742
 3799TIP3    H233033   6.326   5.176   7.657 -0.0773  0.3080 -1.0366
 3800TIP3   OH233034   5.135   3.828   0.902 -0.0429 -0.0400  0.0615
 3800TIP3    H133035   5.180   3.793   0.825  0.9520  0.1904  0.5158
 3800TIP3    H233036   5.062   3.879   0.867  0.8994  0.7663 -0.7670
 3801TIP3   OH233037   5.011   1.508   7.416 -0.2260  0.3497  0.4468
 3801TIP3    H133038   4.994   1.594   7.454  0.5838  0.4488  0.5989
 3801TIP3    H233039   5.009   1.522   7.322 -0.8458  0.3792  0.4580
 3802TIP3   OH233040   6.528   0.881   0.057 -0.0416 -0.1809 -0.6057
 3802TIP3    H133041   6.446   0.831   0.058  0.1590 -0.5065 -0.2431
 3802TIP3    H233042   6.583   0.839   0.124 -0.4938  1.5627  0.9500
 3803TIP3   OH233043   3.435   5.545   0.248  0.0475  0.5190  0.6408
 3803TIP3    H133044   3.509   5.553   0.187  0.6202  0.0810  1.2595
 3803TIP3    H233045   3.400   5.458   0.231 -0.5841  0.8801  0.0714
 3804TIP3   OH233046   0.895   1.293   7.982  0.2836 -0.1065  0.2466
 3804TIP3    H133047   0.894   1.313   8.075 -0.0563 -0.2169  0.2672
 3804TIP3    H233048   0.837   1.358   7.943  0.3702 -0.1041  0.1209
 3805TIP3   OH233049   4.628   0.341   8.461  0.2682  0.1015 -0.4431
 3805TIP3    H133050   4.673   0.424   8.451 -0.9497  1.0450  1.3444
 3805TIP3    H233051   4.662   0.304   8.543 -1.7815  0.6306  0.7166
 3806TIP3   OH233052   4.356   0.335   8.326 -0.0884 -0.1337 -0.6043
 3806TIP3    H133053   4.345   0.403   8.260  1.1268  0.4172 -0.2636
 3806TIP3    H233054   4.446   0.343   8.355 -0.1280 -1.4235 -0.0236
 3807TIP3   OH233055   4.253   3.900   0.677 -0.6936 -0.1133 -0.0392
 3807TIP3    H133056   4.171   3.862   0.709 -0.0323 -1.5078  0.0850
 3807TIP3    H233057   4.278   3.965   0.743 -0.9533 -0.7262  0.6732
 3808TIP3   OH233058   1.893   3.644   6.686  0.0057  0.8279 -0.0191
 3808TIP3    H133059   1.907   3.573   6.750 -0.5643  0.5490 -0.1953
 3808TIP3    H233060   1.884   3.599   6.602  0.1361  1.1530 -0.2103
 3809TIP3   OH233061   4.521   0.472   1.190 -0.0040 -0.3768 -0.0222
 3809TIP3    H133062   4.484   0.425   1.115  0.2648  1.8922 -1.6934
 3809TIP3    H233063   4.601   0.511   1.155  1.1950 -0.8464  2.0499
 3810TIP3   OH233064   1.307   4.648   8.374  0.4511  0.4502  0.8056
 3810TIP3    H133065   1.297   4.699   8.294  0.0358 -0.4620  0.2628
 3810TIP3    H233066   1.254   4.569   8.359  2.4407 -0.9785  0.9125
 3811TIP3   OH233067   0.800   2.796   1.612  0.3571  0.2591  0.6073
 3811TIP3    H133068   0.830   2.825   1.698 -0.2019 -1.8602  1.5770
 3811TIP3    H233069   0.831   2.706   1.605  0.4245  0.3928 -1.4592
 3812TIP3   OH233070   2.764   3.010   8.555 -0.0975 -0.5128 -0.3824
 3812TIP3    H133071   2.839   3.054   8.597  0.6374 -0.9536 -1.1919
 3812TIP3    H233072   2.715   2.972   8.628  0.5867 -0.3842  0.1617
 3813TIP3   OH233073   6.852   4.054   1.065 -0.7419  0.2719  0.2363
 3813TIP3    H133074   6.849   4.041   1.160 -1.7676  0.6399  0.2714
 3813TIP3    H233075   6.771   4.013   1.033 -0.4237  0.1849 -0.4787
 3814TIP3   OH233076   0.877   1.975   7.315 -0.3063 -0.2930  0.0121
 3814TIP3    H133077   0.942   2.045   7.307  0.4194 -0.6890  1.8005
 3814TIP3    H233078   0.809   1.997   7.251 -0.2113  2.1619  0.6587
 3815TIP3   OH233079   0.041   3.964   7.396 -0.5305 -0.3527  0.6743
 3815TIP3    H133080   0.059   3.960   7.490 -0.6027 -0.8619  0.6694
 3815TIP3    H233081  -0.034   3.905   7.384 -0.2025 -0.6798  0.2228
 3816TIP3   OH233082   2.040   5.352   7.212 -0.3551  0.0537 -0.1424
 3816TIP3    H133083   2.116   5.313   7.169  0.6203  2.4127 -0.7309
 3816TIP3    H233084   1.969   5.290   7.196  1.3153 -2.0738  0.1312
 3817TIP3   OH233085   4.279   0.326   6.901 -0.6680 -0.6078  0.6046
 3817TIP3    H133086   4.214   0.349   6.835 -0.1131 -0.8690 -0.0514
 3817TIP3    H233087   4.290   0.231   6.892 -0.2678 -0.5781  0.7687
 3818TIP3   OH233088   1.280   6.511   6.791  0.6986  0.5329  0.1019
 3818TIP3    H133089   1.272   6.503   6.696  2.6855  0.3839 -0.0907
 3818TIP3    H233090   1.265   6.604   6.808 -3.3440  0.0504  0.1525
 3819TIP3   OH233091   1.029   5.801   7.820 -0.9141 -0.7451 -0.2204
 3819TIP3    H133092   1.012   5.715   7.781  0.8068 -0.6850 -1.2421
 3819TIP3    H233093   1.026   5.862   7.746  1.6987 -0.5223 -0.2305
 3820TIP3   OH233094   2.759   5.154   8.231 -0.7925  0.2197 -0.8616
 3820TIP3    H133095   2.773   5.116   8.317  0.0186  0.5498 -0.8439
 3820TIP3    H233096   2.781   5.247   8.241 -0.3616  0.1954 -1.4996
 3821TIP3   OH233097   6.665   3.999   0.649 -0.0442 -0.0741  0.0340
 3821TIP3    H133098   6.720   4.067   0.610  0.0832  0.4750  1.1295
 3821TIP3    H233099   6.654   4.027   0.740  0.6081 -1.8855  0.7024
 3822TIP3   OH233100   3.268   0.525   7.013 -0.5173  0.6683  0.1110
 3822TIP3    H133101   3.178   0.496   6.997 -0.7346 -0.1892  2.4305
 3822TIP3    H233102   3.322   0.451   6.985 -0.4999  1.1531 -1.2094
 3823TIP3   OH233103   4.428   6.044   7.511 -0.2426 -0.4222 -0.0076
 3823TIP3    H133104   4.420   6.123   7.457  3.4060 -0.7341 -1.2895
 3823TIP3    H233105   4.397   5.973   7.455 -1.4835 -0.1800  0.3475
 3824TIP3   OH233106   3.332   4.990   8.412 -0.1941 -0.1036 -0.2184
 3824TIP3    H133107   3.414   5.036   8.434 -0.1482  0.2713 -1.1389
 3824TIP3    H233108   3.281   5.055   8.363 -0.7413 -0.5759 -0.2792
 3825TIP3   OH233109   1.615   2.106   0.807 -0.1697 -0.4545 -0.0890
 3825TIP3    H133110   1.526   2.111   0.842 -0.5726  0.8461 -1.1965
 3825TIP3    H233111   1.603   2.084   0.715  0.4199  2.4249 -0.9613
 3826TIP3   OH233112   0.102   6.609   1.692 -0.6024  0.7767 -0.1841
 3826TIP3    H133113   0.029   6.671   1.698  0.0316  1.8856 -2.6189
 3826TIP3    H233114   0.071   6.540   1.634 -0.2914  0.3478  0.1499
 3827TIP3   OH233115   3.613   4.769   8.738  0.1830  0.0232 -0.3140
 3827TIP3    H133116   3.625   4.858   8.707  0.2376  1.1478  2.6306
 3827TIP3    H233117   3.701   4.733   8.743  0.3544  0.5246  0.3770
 3828TIP3   OH233118   0.569   5.182   7.440  0.1841 -0.1724 -0.1421
 3828TIP3    H133119   0.654   5.157   7.475 -0.3319  0.1549  1.4224
 3828TIP3    H233120   0.581   5.273   7.412  1.0832 -0.9549 -2.5685
 3829TIP3   OH233121   3.401   1.652   1.602  0.0353  0.1930 -0.2844
 3829TIP3    H133122   3.393   1.558   1.615 -2.6837  0.3600 -0.3021
 3829TIP3    H233123   3.456   1.682   1.675 -0.3421 -1.1914  0.5964
 3830TIP3   OH233124   1.790   4.484   8.415 -0.2172  0.3765 -0.2545
 3830TIP3    H133125   1.868   4.516   8.459  0.1199 -1.3449  0.4877
 3830TIP3    H233126   1.823   4.429   8.343 -0.7560  0.5383 -0.6386
 3831TIP3   OH233127   5.094   2.827   8.194  0.2650 -0.1721 -0.0571
 3831TIP3    H133128   5.012   2.865   8.163 -0.3930 -0.3509  1.3950
 3831TIP3    H233129   5.091   2.737   8.163  0.8323  0.3262 -1.6566
 3832TIP3   OH233130   3.705   5.443   8.602 -0.0094  0.3021  0.0904
 3832TIP3    H133131   3.749   5.508   8.547  0.3313 -0.2065 -0.2527
 3832TIP3    H233132   3.761   5.365   8.596 -0.9725 -0.3743 -0.3911
 3833TIP3   OH233133   4.026   0.485   8.293  0.1130 -0.1668  0.1152
 3833TIP3    H133134   3.981   0.484   8.208 -0.9590  1.2256  0.6252
 3833TIP3    H233135   3.971   0.541   8.348  2.0010  0.8328  1.0552
 3834TIP3   OH233136   1.661   5.455   1.158 -0.2702  0.1299 -0.4431
 3834TIP3    H133137   1.609   5.399   1.101 -1.4070 -0.2637  0.9321
 3834TIP3    H233138   1.685   5.398   1.231  0.2800  0.8984 -0.0128
 3835TIP3   OH233139   6.183   5.493   1.085  0.0949  0.1006  0.0812
 3835TIP3    H133140   6.231   5.477   1.004  0.2027 -0.4308  0.2448
 3835TIP3    H233141   6.121   5.562   1.063  0.0321 -0.1333 -0.4917
 3836TIP3   OH233142   6.557   2.064   1.677 -0.0784  0.0051  0.2412
 3836TIP3    H133143   6.633   2.044   1.621 -0.9255 -0.0773 -0.9065
 3836TIP3    H233144   6.482   2.063   1.617 -0.9280  0.6086  1.2653
 3837TIP3   OH233145   2.147   2.178   1.700  0.3987 -0.2170  0.0276
 3837TIP3    H133146   2.231   2.154   1.660  0.8879  0.7986  0.4113
 3837TIP3    H233147   2.109   2.241   1.640 -0.7968 -1.7343 -0.8805
 3838TIP3   OH233148   0.371   4.732   8.391  0.4542 -0.5210  0.6336
 3838TIP3    H133149   0.449   4.770   8.431 -1.3416  1.7208  2.2295
 3838TIP3    H233150   0.298   4.779   8.430 -1.6504 -0.6315 -2.7356
 3839TIP3   OH233151   3.045   0.953   8.443  0.1388  0.1108 -0.6028
 3839TIP3    H133152   3.133   0.987   8.426  0.5898 -0.6914  0.0337
 3839TIP3    H233153   2.987   1.016   8.402  0.9128  1.8781  0.8522
 3840TIP3   OH233154   5.709   3.301   0.162  0.0725 -0.1107  0.0394
 3840TIP3    H133155   5.640   3.353   0.203 -1.4493  0.6191 -3.1360
 3840TIP3    H233156   5.685   3.210   0.181  0.2185  0.2022  1.8522
 3841TIP3   OH233157   0.926   1.447   7.423  0.4351 -0.0567 -0.2527
 3841TIP3    H133158   0.965   1.524   7.466  1.8736 -2.6726  3.7532
 3841TIP3    H233159   1.000   1.401   7.384  0.1464 -1.0537  0.3476
 3842TIP3   OH233160   1.897   1.450   0.266  0.1592  0.9355 -0.0902
 3842TIP3    H133161   1.955   1.465   0.342 -1.6275  1.3583  1.2578
 3842TIP3    H233162   1.809   1.468   0.299 -0.9778 -1.4240 -1.5886
 3843TIP3   OH233163   1.669   6.058   1.925  0.3236 -0.2356 -0.1942
 3843TIP3    H133164   1.593   6.115   1.912  0.5323 -0.1680 -1.2337
 3843TIP3    H233165   1.661   6.027   2.015 -1.0891 -0.4618 -0.3723
 3844TIP3   OH233166   4.790   4.486   1.259  0.5132  0.6568  0.2199
 3844TIP3    H133167   4.724   4.450   1.318  2.4329 -1.1298  1.4174
 3844TIP3    H233168   4.745   4.495   1.175 -0.9688 -1.5829  0.6854
 3845TIP3   OH233169   4.444   2.004   0.850 -0.3554 -0.2315  0.1534
 3845TIP3    H133170   4.478   1.919   0.879  0.0616 -0.6730 -1.4837
 3845TIP3    H233171   4.522   2.057   0.835 -0.5380 -0.0986 -0.3436
 3846TIP3   OH233172   4.844   3.904   8.526  0.4231  0.4231 -0.0205
 3846TIP3    H133173   4.805   3.957   8.457 -1.0644  1.3618  1.4676
 3846TIP3    H233174   4.795   3.822   8.525 -1.4389  1.4275  1.5470
 3847TIP3   OH233175   0.194   5.617   7.614  0.4560 -0.3938  0.1036
 3847TIP3    H133176   0.249   5.629   7.691  0.0281  0.3412  0.3033
 3847TIP3    H233177   0.221   5.532   7.578  1.1934 -0.3850  0.6175
 3848TIP3   OH233178   0.518   1.520   7.727 -0.1955  0.0650 -0.3335
 3848TIP3    H133179   0.560   1.492   7.645 -0.1590  0.0730 -0.3175
 3848TIP3    H233180   0.590   1.529   7.789  0.2132  2.9214 -1.0660
 3849TIP3   OH233181   2.935   2.966   6.886 -0.0320  0.3621 -0.1394
 3849TIP3    H133182   2.941   2.968   6.791  0.1265  1.6553 -0.1218
 3849TIP3    H233183   2.853   2.919   6.904 -0.2856  0.4877 -0.9217
 3850TIP3   OH233184   5.608   3.214   2.643 -0.1357  0.5006 -0.2298
 3850TIP3    H133185   5.611   3.264   2.561  1.9458  0.3650 -0.2944
 3850TIP3    H233186   5.694   3.228   2.682 -0.8640  0.0165  1.6229
 3851TIP3   OH233187   5.090   5.625   1.350 -0.4042 -0.3730 -0.4438
 3851TIP3    H133188   5.054   5.710   1.377 -1.3914 -1.2006  0.9740
 3851TIP3    H233189   5.023   5.586   1.294  0.5472  0.2366 -2.0728
 3852TIP3   OH233190   4.908   4.331   6.913 -0.4664  0.0504  0.0661
 3852TIP3    H133191   4.850   4.389   6.963  0.4241  0.6610  0.4332
 3852TIP3    H233192   4.959   4.391   6.858 -0.0059 -0.4486 -0.0583
 3853TIP3   OH233193   6.246   1.452   8.226 -0.1636  0.2241 -0.3475
 3853TIP3    H133194   6.324   1.405   8.251 -0.4874 -0.2377 -0.1955
 3853TIP3    H233195   6.221   1.415   8.141  0.4134  1.1518 -0.9459
 3854TIP3   OH233196   6.662   1.359   0.284 -1.2973 -0.2506  0.2919
 3854TIP3    H133197   6.615   1.286   0.242 -2.0325 -0.0928  0.8143
 3854TIP3    H233198   6.593   1.411   0.324 -1.0010  1.8631 -1.7298
 3855TIP3   OH233199   0.026   3.976   0.058 -0.3078  0.4455 -0.2138
 3855TIP3    H133200  -0.007   3.887   0.072  1.2667 -0.1133  0.1365
 3855TIP3    H233201   0.010   4.021   0.141 -0.7915  0.3948 -0.2764
 3856TIP3   OH233202   2.935   5.717   7.408 -0.2672 -0.0200  0.4523
 3856TIP3    H133203   2.862   5.744   7.351  0.4415 -1.6313 -1.3362
 3856TIP3    H233204   2.991   5.665   7.351  1.9236  0.5384  1.9813
 3857TIP3   OH233205   1.846   4.611   2.200  0.5046 -0.8066 -0.0787
 3857TIP3    H133206   1.848   4.551   2.274  0.4790 -1.6323 -0.7304
 3857TIP3    H233207   1.764   4.660   2.212  1.3465  0.3448  1.3821
 3858TIP3   OH233208   2.715   4.471   0.220 -0.0279  0.4095  0.7233
 3858TIP3    H133209   2.716   4.549   0.275 -2.0109  2.3803 -1.7780
 3858TIP3    H233210   2.806   4.460   0.191  0.0520  2.7200 -0.0297
 3859TIP3   OH233211   1.786   5.191   2.164 -0.4425  0.4796 -0.2187
 3859TIP3    H133212   1.789   5.145   2.080  1.5210  0.9684 -0.4593
 3859TIP3    H233213   1.874   5.183   2.199 -1.5477 -0.9149  2.5153
 3860TIP3   OH233214   3.103   2.904   8.764  0.7612 -0.2639 -0.1718
 3860TIP3    H133215   3.046   2.853   8.822  1.1333 -0.0293  0.4149
 3860TIP3    H233216   3.076   2.880   8.676 -1.1041  0.7932  0.0712
 3861TIP3   OH233217   5.621   4.376   6.904 -0.1449 -0.1796 -0.6057
 3861TIP3    H133218   5.701   4.332   6.933  0.9865  0.6750 -2.2678
 3861TIP3    H233219   5.573   4.309   6.856  0.7089 -0.1059 -1.5939
 3862TIP3   OH233220   2.429   3.373   0.954 -0.0708 -0.0329  0.2549
 3862TIP3    H133221   2.487   3.400   1.026  0.6662 -0.2656 -0.2348
 3862TIP3    H233222   2.344   3.409   0.977 -0.4059 -1.9502  2.3766
 3863TIP3   OH233223   2.492   1.158   0.787 -0.5800  0.6201  0.3825
 3863TIP3    H133224   2.505   1.098   0.861 -1.5935 -0.6087 -0.4022
 3863TIP3    H233225   2.544   1.120   0.716  0.6932  1.9989  0.5224
 3864TIP3   OH233226   6.694   0.996   7.518  0.4441  0.4451  0.2185
 3864TIP3    H133227   6.612   0.948   7.506  0.3211  0.7000  0.0285
 3864TIP3    H233228   6.671   1.067   7.579  0.3076  1.0486 -0.5239
 3865TIP3   OH233229   0.268   2.823   2.580  0.2024  0.2480 -0.4421
 3865TIP3    H133230   0.263   2.732   2.552 -1.3513  0.5002 -1.1057
 3865TIP3    H233231   0.341   2.825   2.642  0.6484 -1.3097 -0.8656
 3866TIP3   OH233232   0.859   6.843   0.240  0.5034  0.2660  0.2504
 3866TIP3    H133233   0.877   6.920   0.186 -0.0778 -0.3030 -0.7920
 3866TIP3    H233234   0.920   6.850   0.313  1.4225  0.9908 -0.5608
 3867TIP3   OH233235   4.907   5.931   2.227  0.0871  0.3451  0.2645
 3867TIP3    H133236   4.995   5.956   2.253  0.0333  0.3475  0.4446
 3867TIP3    H233237   4.852   6.003   2.257 -0.0815 -0.0270  0.8716
 3868TIP3   OH233238   3.503   0.877   6.139  0.1932 -0.1824  0.3422
 3868TIP3    H133239   3.525   0.969   6.125  0.2804 -0.2055  0.3299
 3868TIP3    H233240   3.407   0.876   6.137  0.1926 -0.1031  0.2691
 3869TIP3   OH233241   2.788   2.569   1.325  0.9775  0.1313 -0.2117
 3869TIP3    H133242   2.760   2.573   1.416  1.1761  1.2480 -0.1846
 3869TIP3    H233243   2.837   2.487   1.318  1.0638  0.0979  0.7099
 3870TIP3   OH233244   0.468   0.339   6.886  0.0923 -0.1985  0.1577
 3870TIP3    H133245   0.509   0.391   6.954 -0.8449 -1.5471  1.8262
 3870TIP3    H233246   0.542   0.297   6.840  0.7244  0.5463  0.4795
 3871TIP3   OH233247   0.159   5.261   8.544  0.6914 -0.3574 -0.3476
 3871TIP3    H133248   0.063   5.262   8.545  0.6970  0.3868  0.9085
 3871TIP3    H233249   0.181   5.189   8.484 -0.6300  0.0973 -1.4294
 3872TIP3   OH233250   1.696   4.157   6.556 -0.3052 -0.1213  0.6995
 3872TIP3    H133251   1.748   4.222   6.603  1.0863  0.1670 -1.0964
 3872TIP3    H233252   1.746   4.076   6.564 -0.1690 -0.1201 -0.0294
 3873TIP3   OH233253   0.171   0.671   8.240  0.1057  0.1598 -0.4546
 3873TIP3    H133254   0.223   0.666   8.160  1.8340  0.5750  0.5809
 3873TIP3    H233255   0.215   0.613   8.302 -0.6261  0.5689  0.4864
 3874TIP3   OH233256   6.680   5.933   1.688  0.0846 -0.4129 -0.1249
 3874TIP3    H133257   6.661   5.881   1.610  0.1586 -0.1038 -0.3501
 3874TIP3    H233258   6.629   6.013   1.677 -1.7552 -1.3227  1.2448
 3875TIP3   OH233259   1.942   4.903   0.323  0.7746 -0.0374 -0.3087
 3875TIP3    H133260   2.016   4.955   0.354  1.3965 -0.7548 -0.5477
 3875TIP3    H233261   1.866   4.943   0.363  1.4698 -0.5131  1.5898
 3876TIP3   OH233262   2.982   3.628   7.035 -0.2063 -0.5816 -0.2370
 3876TIP3    H133263   3.036   3.691   7.083  0.1214 -2.0124  1.3816
 3876TIP3    H233264   2.992   3.653   6.943  0.7168  1.0771  0.2645
 3877TIP3   OH233265   2.760   1.577   0.122  0.0374 -0.1969  0.4915
 3877TIP3    H133266   2.692   1.578   0.054 -0.0518 -0.7284  0.5689
 3877TIP3    H233267   2.828   1.519   0.087 -0.5136 -1.3826  1.3419
 3878TIP3   OH233268   0.209   1.036   1.116 -0.0148 -0.4293 -0.1038
 3878TIP3    H133269   0.158   1.117   1.109  0.0505 -0.4744 -1.3187
 3878TIP3    H233270   0.265   1.036   1.039  2.1149 -0.2321  1.3651
 3879TIP3   OH233271   0.809   6.170   6.572  0.3587  0.4794  0.4629
 3879TIP3    H133272   0.827   6.101   6.509 -0.1560  1.2813 -0.5956
 3879TIP3    H233273   0.788   6.247   6.519  1.2411  1.5590  1.5926
 3880TIP3   OH233274   5.125   5.853   1.640 -0.1608 -0.1663 -0.4719
 3880TIP3    H133275   5.107   5.876   1.549  2.3326 -0.3999 -1.1063
 3880TIP3    H233276   5.081   5.769   1.652 -0.0914 -0.3908 -1.6504
 3881TIP3   OH233277   6.187   3.941   2.540  0.3883  0.4001 -0.3795
 3881TIP3    H133278   6.115   4.004   2.533 -0.7262 -0.7367  0.3459
 3881TIP3    H233279   6.170   3.878   2.470 -0.6767 -1.1433  1.1959
 3882TIP3   OH233280   5.125   3.743   0.449  0.0406 -0.0044  0.0814
 3882TIP3    H133281   5.036   3.744   0.414  0.3623 -0.4722 -0.7689
 3882TIP3    H233282   5.180   3.719   0.375  0.8507 -0.0040  0.6677
 3883TIP3   OH233283   4.540   4.019   0.913 -0.0425 -0.0450  0.1425
 3883TIP3    H133284   4.473   4.039   0.846  0.6840 -1.0982 -0.9440
 3883TIP3    H233285   4.613   3.983   0.863  0.3795 -1.2413  1.5507
 3884TIP3   OH233286   1.646   3.695   6.904 -0.9477  0.0378 -0.0883
 3884TIP3    H133287   1.668   3.787   6.891  1.1863 -0.2361  1.1374
 3884TIP3    H233288   1.596   3.671   6.826  1.6511  1.2856 -2.3046
 3885TIP3   OH233289   2.359   4.191   7.934 -0.1513 -0.0120 -0.1527
 3885TIP3    H133290   2.370   4.285   7.921  0.4861  0.4766  2.9598
 3885TIP3    H233291   2.434   4.151   7.890 -0.3282  0.9268 -1.3403
 3886TIP3   OH233292   6.597   2.225   8.753  0.0481 -0.4609 -0.0583
 3886TIP3    H133293   6.568   2.197   8.666  2.6924 -1.3685 -0.7273
 3886TIP3    H233294   6.607   2.319   8.746 -5.3086  0.5126  1.1083
 3887TIP3   OH233295   6.444   2.060   1.976 -0.5529 -0.6521  0.0230
 3887TIP3    H133296   6.462   2.014   1.895 -0.3126  0.0178 -0.3140
 3887TIP3    H233297   6.363   2.109   1.959 -0.4773 -0.4721  0.1648
 3888TIP3   OH233298   5.804   1.425   0.986  0.5102  0.0921 -0.1588
 3888TIP3    H133299   5.848   1.492   0.933 -2.5728  0.6939 -2.2224
 3888TIP3    H233300   5.855   1.346   0.970  1.4806  0.9418 -1.5967
 3889TIP3   OH233301   1.817   3.208   0.043 -0.5270 -0.1646 -0.2947
 3889TIP3    H133302   1.798   3.131  -0.009 -0.6404 -0.1546 -0.2687
 3889TIP3    H233303   1.890   3.251  -0.002  1.3322 -1.6766  1.1164
 3890TIP3   OH233304   5.706   0.999   0.547 -0.3846  0.1086 -0.0073
 3890TIP3    H133305   5.669   0.944   0.477  0.0595  0.1964 -0.3103
 3890TIP3    H233306   5.631   1.049   0.580 -0.6245 -0.0478 -0.3100
 3891TIP3   OH233307   1.582   0.113   0.735  0.2105 -0.0063  0.5622
 3891TIP3    H133308   1.607   0.192   0.687 -1.3055  0.5570  0.6424
 3891TIP3    H233309   1.602   0.041   0.676  0.3850  0.5274 -0.0397
 3892TIP3   OH233310   4.561   4.445   8.161 -0.1281 -0.1278  0.8052
 3892TIP3    H133311   4.509   4.366   8.145  0.4325 -0.4272  0.4346
 3892TIP3    H233312   4.648   4.413   8.184  0.2439  0.3804  0.1401
 3893TIP3   OH233313   6.037   1.496   8.398  0.9818 -0.2799  0.0408
 3893TIP3    H133314   6.105   1.464   8.339 -1.8001 -1.2114 -2.9066
 3893TIP3    H233315   6.037   1.591   8.385  1.9331 -0.2199  0.3847
 3894TIP3   OH233316   1.549   3.927   1.537 -0.1617 -0.1866  0.4167
 3894TIP3    H133317   1.631   3.881   1.556  0.5090  0.6365 -0.3959
 3894TIP3    H233318   1.500   3.924   1.620  1.1198  0.1578  1.2176
 3895TIP3   OH233319   3.471   1.952   7.110  0.0438  0.1628 -0.1433
 3895TIP3    H133320   3.436   1.892   7.175  2.2212 -1.1784 -0.1138
 3895TIP3    H233321   3.451   1.911   7.026 -0.7101  0.7360 -0.2642
 3896TIP3   OH233322   4.664   5.451   8.150  0.0060  0.0507  0.0004
 3896TIP3    H133323   4.719   5.525   8.178 -0.4348  0.4292 -0.1247
 3896TIP3    H233324   4.702   5.375   8.194  1.4381  0.0788 -1.0976
 3897TIP3   OH233325   2.040   0.365   7.454  0.0974  0.1136 -0.4914
 3897TIP3    H133326   2.000   0.451   7.462 -0.1653  0.0576 -1.1344
 3897TIP3    H233327   1.968   0.304   7.465  0.5154 -0.0936  1.5364
 3898TIP3   OH233328   0.467   2.446   8.126  0.3248  0.2310  0.1644
 3898TIP3    H133329   0.385   2.492   8.145  0.3238 -0.0604  0.8791
 3898TIP3    H233330   0.503   2.493   8.051 -0.0618  0.9132  0.3938
 3899TIP3   OH233331   0.404   3.117   5.993 -0.4687 -0.3344  0.1686
 3899TIP3    H133332   0.394   3.182   5.924 -0.6927 -1.5651 -0.9912
 3899TIP3    H233333   0.339   3.141   6.059  0.1553  1.2045  0.2584
 3900TIP3   OH233334   0.091   6.384   7.978  0.1206 -0.3317 -0.2878
 3900TIP3    H133335   0.031   6.376   8.052  0.5546  0.5667  0.1763
 3900TIP3    H233336   0.175   6.406   8.017 -0.0315  1.9802 -1.1127
 3901TIP3   OH233337   4.973   2.257   7.862 -0.1484  0.1372  0.0298
 3901TIP3    H133338   4.903   2.194   7.844  1.4032 -1.3754 -0.9803
 3901TIP3    H233339   5.008   2.232   7.947 -0.7958  0.8967  0.5368
 3902TIP3   OH233340   6.327   0.577   0.371  0.6453 -0.3408 -0.4379
 3902TIP3    H133341   6.245   0.596   0.418  0.4144  0.5996 -1.1908
 3902TIP3    H233342   6.351   0.489   0.399 -0.1969 -0.3135  0.4151
 3903TIP3   OH233343   0.792   4.909   0.399  0.0160  0.1980  0.5915
 3903TIP3    H133344   0.740   4.874   0.326 -1.8959  0.0125  1.9624
 3903TIP3    H233345   0.797   5.003   0.382 -0.4111  0.1549  0.2038
 3904TIP3   OH233346   0.248   3.778   0.153  0.4261 -0.0444 -0.3777
 3904TIP3    H133347   0.280   3.716   0.219 -0.7513  0.5085  0.7676
 3904TIP3    H233348   0.162   3.745   0.129  0.5020  0.2220 -1.0449
 3905TIP3   OH233349   4.437   2.792   6.363  0.4939 -0.7761  0.5395
 3905TIP3    H133350   4.528   2.803   6.389 -0.6530  1.9105  4.1346
 3905TIP3    H233351   4.404   2.722   6.420  0.0870 -1.2647 -0.2689
 3906TIP3   OH233352   5.874   1.080   1.903 -0.5048  0.1949 -0.2737
 3906TIP3    H133353   5.959   1.036   1.895 -1.7886 -2.2311 -2.0556
 3906TIP3    H233354   5.847   1.062   1.993 -0.3810 -1.6347 -0.5625
 3907TIP3   OH233355   2.932   0.677   0.053  0.4064  0.0440 -0.4729
 3907TIP3    H133356   2.989   0.748   0.021  1.1409 -0.4663 -0.3229
 3907TIP3    H233357   2.886   0.714   0.128  3.1414 -0.5376  1.6673
 3908TIP3   OH233358   1.974   2.119   1.934 -0.5325  0.5047  0.4500
 3908TIP3    H133359   1.937   2.207   1.925  2.1282  1.6828  0.1033
 3908TIP3    H233360   2.042   2.115   1.867 -1.1443 -2.2062 -0.1475
 3909TIP3   OH233361   0.010   4.272   1.910 -0.1481 -0.7082  0.6797
 3909TIP3    H133362   0.016   4.239   2.000  0.3035 -2.3499  0.0881
 3909TIP3    H233363  -0.079   4.252   1.883  0.5419 -2.9336 -0.1735
 3910TIP3   OH233364   1.468   6.842   6.990 -0.1639 -0.4664 -0.2318
 3910TIP3    H133365   1.502   6.928   7.014 -0.8040  0.2299 -1.6580
 3910TIP3    H233366   1.528   6.780   7.030 -0.0436  0.6139  1.3561
 3911TIP3   OH233367   4.620   4.076   8.437 -0.1892 -0.5387 -0.3909
 3911TIP3    H133368   4.553   4.110   8.497 -0.8435 -0.1268 -1.3350
 3911TIP3    H233369   4.592   4.105   8.350  0.7114 -1.1770 -0.9132
 3912TIP3   OH233370   2.782   0.929   6.973  0.0757 -0.0798 -0.0323
 3912TIP3    H133371   2.758   0.845   7.013 -0.2402 -0.1658 -0.3984
 3912TIP3    H233372   2.798   0.987   7.048 -0.5840 -0.2168  0.2256
 3913TIP3   OH233373   6.068   2.957   0.557 -0.4622  0.1511  0.1020
 3913TIP3    H133374   6.038   2.981   0.645  1.7801  1.4544  0.5884
 3913TIP3    H233375   6.163   2.965   0.561 -0.1238 -1.9613 -1.8445
 3914TIP3   OH233376   3.964   0.073   6.831 -0.1125  0.3905 -0.0419
 3914TIP3    H133377   3.923   0.015   6.895  1.5905  1.1594  1.8601
 3914TIP3    H233378   4.055   0.043   6.826  0.0434  1.0281 -1.3036
 3915TIP3   OH233379   6.586   6.175   1.582  0.1465  0.0278  0.5122
 3915TIP3    H133380   6.667   6.207   1.621  1.7251 -1.9280 -0.9934
 3915TIP3    H233381   6.611   6.145   1.495 -1.8947 -1.9100  0.5071
 3916TIP3   OH233382   3.780   4.389   1.252 -0.1022 -0.0545  0.0830
 3916TIP3    H133383   3.758   4.341   1.332  2.3213  0.7120  1.2983
 3916TIP3    H233384   3.707   4.372   1.193 -2.0344 -0.5825  2.4801
 3917TIP3   OH233385   6.452   6.632   1.547  0.2218  0.2332  0.0786
 3917TIP3    H133386   6.407   6.651   1.629 -0.2573  0.8958 -0.3217
 3917TIP3    H233387   6.415   6.695   1.484 -0.1850 -0.9502 -0.9131
 3918TIP3   OH233388   3.237   6.626   8.325 -0.2199  0.0417  0.4143
 3918TIP3    H133389   3.257   6.697   8.387 -0.1177  0.0041  0.4230
 3918TIP3    H233390   3.292   6.644   8.249  0.9311 -0.8681  1.0022
 3919TIP3   OH233391   3.788   1.308   0.841  0.0730 -0.1130  0.2076
 3919TIP3    H133392   3.817   1.378   0.783  1.6324  1.3625  2.6028
 3919TIP3    H233393   3.818   1.228   0.799 -0.4288  0.7088 -1.8614
 3920TIP3   OH233394   2.856   5.432   0.090 -0.0118  0.5555 -0.7237
 3920TIP3    H133395   2.937   5.471   0.123 -0.1566 -0.1769  0.5666
 3920TIP3    H233396   2.884   5.347   0.054  0.0524  1.0948 -2.0237
 3921TIP3   OH233397   5.794   0.270   0.933 -0.2432  0.5181 -0.3200
 3921TIP3    H133398   5.745   0.266   0.851  0.1007  0.9744 -0.5550
 3921TIP3    H233399   5.820   0.180   0.950 -0.5949  0.3753 -0.5469
 3922TIP3   OH233400   6.190   0.600   6.659  0.2904 -0.6052 -0.1508
 3922TIP3    H133401   6.236   0.556   6.731  1.8294  0.3717 -0.4818
 3922TIP3    H233402   6.098   0.590   6.680  0.6535  1.4142  3.1210
 3923TIP3   OH233403   2.679   1.070   0.554  0.3519 -0.7542 -0.0178
 3923TIP3    H133404   2.649   0.984   0.524  0.3142 -0.7233 -0.0708
 3923TIP3    H233405   2.773   1.069   0.541  0.3828 -0.8775  0.2154
 3924TIP3   OH233406   2.275   0.338   8.793  0.1024 -0.2117  0.1062
 3924TIP3    H133407   2.358   0.330   8.747  0.0792  1.3496 -0.2431
 3924TIP3    H233408   2.226   0.404   8.744 -1.0229 -0.5114  0.7791
 3925TIP3   OH233409   4.516   3.857   0.043  0.3342  0.1772  0.8527
 3925TIP3    H133410   4.560   3.839  -0.040  1.9143  0.2083  1.6441
 3925TIP3    H233411   4.438   3.801   0.042  0.7095 -0.3541 -0.3340
 3926TIP3   OH233412   2.811   6.060   8.610 -0.7040  0.1537  0.0564
 3926TIP3    H133413   2.849   6.047   8.523 -1.1521 -1.3558  0.0592
 3926TIP3    H233414   2.728   6.106   8.593 -1.1445 -0.7885 -0.3987
 3927TIP3   OH233415   6.145   5.543   1.622 -0.3115 -0.1881  0.0692
 3927TIP3    H133416   6.180   5.631   1.635  0.5619 -0.7010  1.3774
 3927TIP3    H233417   6.188   5.490   1.688 -0.9152 -1.5922 -0.6194
 3928TIP3   OH233418   0.338   5.585   1.320 -0.0914  0.0053  0.1313
 3928TIP3    H133419   0.356   5.499   1.283 -3.0381 -1.3666  1.5329
 3928TIP3    H233420   0.422   5.613   1.356  1.2106 -1.7422 -1.3371
 3929TIP3   OH233421   6.115   3.674   7.813 -0.6213  0.3056 -0.6267
 3929TIP3    H133422   6.138   3.759   7.851 -0.9492  0.0056  0.2546
 3929TIP3    H233423   6.034   3.690   7.764  0.2248  0.8683 -1.8991
 3930TIP3   OH233424   2.058   5.634   2.143 -0.1421  0.5190  0.2272
 3930TIP3    H133425   2.005   5.714   2.153  0.3696  1.0022 -0.7149
 3930TIP3    H233426   2.098   5.620   2.228 -0.8965  0.7947  0.6347
 3931TIP3   OH233427   5.358   0.922   1.119 -0.1312 -0.2303 -0.5050
 3931TIP3    H133428   5.280   0.964   1.155 -1.2079 -3.3907  1.2381
 3931TIP3    H233429   5.422   0.926   1.190 -0.4703 -1.9485 -0.0616
 3932TIP3   OH233430   2.362   3.085   0.307  0.0556  0.0494  0.0111
 3932TIP3    H133431   2.365   3.000   0.351  0.0743  1.0588  2.0871
 3932TIP3    H233432   2.370   3.149   0.378  0.2451  1.7957 -1.5098
 3933TIP3   OH233433   6.132   1.433   0.019  0.2284  0.0965 -0.1807
 3933TIP3    H133434   6.139   1.503  -0.045  0.6042 -1.0578 -1.4722
 3933TIP3    H233435   6.221   1.423   0.053  0.9080 -1.6442 -2.1950
 3934TIP3   OH233436   0.925   4.184   7.945 -0.1374  0.1329 -0.4801
 3934TIP3    H133437   0.840   4.169   7.905 -0.3312  0.2158 -0.0988
 3934TIP3    H233438   0.920   4.142   8.031 -0.1888  1.1130  0.0046
 3935TIP3   OH233439   3.011   3.720   6.665 -0.6738  0.2645  0.3952
 3935TIP3    H133440   2.969   3.699   6.582  0.8633  0.5365 -0.4886
 3935TIP3    H233441   3.025   3.634   6.707  1.9560 -0.2850 -1.3853
 3936TIP3   OH233442   0.185   1.778   1.083  0.0616  0.2214  0.1813
 3936TIP3    H133443   0.106   1.749   1.038  0.7881  0.2176 -1.1352
 3936TIP3    H233444   0.154   1.846   1.144 -1.1110 -0.6384  0.5987
 3937TIP3   OH233445   5.198   2.246   0.448 -0.0705  0.2243 -0.0766
 3937TIP3    H133446   5.267   2.256   0.383 -0.0793 -0.1700 -0.1527
 3937TIP3    H233447   5.143   2.176   0.413 -0.2714  0.2505  0.1855
 3938TIP3   OH233448   1.126   2.764   0.625 -0.6119  0.2332  0.5012
 3938TIP3    H133449   1.094   2.822   0.555  0.9072  0.9650  0.3758
 3938TIP3    H233450   1.117   2.676   0.589  1.6740  0.6513 -1.3772
 3939TIP3   OH233451   2.641   2.864   8.362  0.8200  0.2488  0.3458
 3939TIP3    H133452   2.686   2.928   8.417  0.7637 -0.6606  1.4924
 3939TIP3    H233453   2.604   2.915   8.290  0.9427  1.4711  1.1294
 3940TIP3   OH233454   3.278   4.337   8.411  0.0355 -0.1753  0.4754
 3940TIP3    H133455   3.264   4.277   8.338 -1.7509  1.9207 -1.0380
 3940TIP3    H233456   3.353   4.300   8.458 -0.5509 -3.1667 -0.7230
 3941TIP3   OH233457   6.603   5.267   7.033 -0.1996 -0.0279 -0.6088
 3941TIP3    H133458   6.605   5.184   7.080 -1.4136  0.0876 -0.3168
 3941TIP3    H233459   6.647   5.329   7.092  0.7054 -0.4416 -0.8286
 3942TIP3   OH233460   5.452   3.116   0.269 -0.6500 -0.1976  0.0139
 3942TIP3    H133461   5.543   3.087   0.268 -0.7204 -0.4199  0.1621
 3942TIP3    H233462   5.420   3.094   0.357 -0.5519  0.7868  0.3157
 3943TIP3   OH233463   1.278   4.688   7.326  0.0233 -0.1506 -0.5366
 3943TIP3    H133464   1.263   4.612   7.270  1.8156 -2.0084  1.3222
 3943TIP3    H233465   1.369   4.713   7.309 -0.1766  0.8382 -0.2357
 3944TIP3   OH233466   6.141   5.181   8.309  0.3424 -0.6007 -0.1205
 3944TIP3    H133467   6.190   5.223   8.238  0.8921 -0.1728  0.4979
 3944TIP3    H233468   6.077   5.248   8.336  0.0792 -0.7930 -0.2651
 3945TIP3   OH233469   0.375   4.707   0.999 -0.1551 -0.2143 -0.2058
 3945TIP3    H133470   0.441   4.744   0.940 -0.8466  0.7085 -0.4282
 3945TIP3    H233471   0.308   4.775   1.005 -1.2177 -1.2338 -0.2027
 3946TIP3   OH233472   2.048   5.560   1.208  0.4410 -0.0434 -0.3923
 3946TIP3    H133473   1.963   5.584   1.172  1.1086  2.2433 -0.6027
 3946TIP3    H233474   2.029   5.531   1.298 -0.3806  2.6991  0.4003
 3947TIP3   OH233475   0.783   1.159   7.656 -0.0741  0.0662  0.0703
 3947TIP3    H133476   0.849   1.219   7.623 -1.4485  1.0072 -1.1038
 3947TIP3    H233477   0.702   1.210   7.656 -0.7468 -0.9017  1.9048
 3948TIP3   OH233478   2.154   1.246   6.671  0.8696 -0.1795  0.3147
 3948TIP3    H133479   2.104   1.243   6.752  0.3285  0.6826  0.0196
 3948TIP3    H233480   2.132   1.164   6.626  2.6875 -1.6546  1.8784
 3949TIP3   OH233481   5.471   2.626   6.317  0.3955  0.1117  0.2896
 3949TIP3    H133482   5.431   2.665   6.239 -2.3063  0.4968  1.7412
 3949TIP3    H233483   5.424   2.667   6.390  2.6329 -0.4344  2.1353
 3950TIP3   OH233484   1.943   6.708   7.241 -0.1402  0.2282  0.6403
 3950TIP3    H133485   1.928   6.703   7.146 -0.8468 -0.7013  0.7884
 3950TIP3    H233486   1.888   6.639   7.278 -2.0277  2.3223  1.9827
 3951TIP3   OH233487   1.781   0.235   6.355 -0.7392 -0.0681 -1.2329
 3951TIP3    H133488   1.818   0.148   6.369 -1.7187 -0.4995 -1.2139
 3951TIP3    H233489   1.796   0.252   6.262 -1.7666 -0.8804 -1.5788
 3952TIP3   OH233490   0.239   3.267   0.529  0.0536  0.0854  0.7523
 3952TIP3    H133491   0.206   3.355   0.511  0.6598 -0.0922 -1.5919
 3952TIP3    H233492   0.262   3.233   0.443  1.9805 -1.5159  1.8328
 3953TIP3   OH233493   0.445   6.263   8.499  0.1248 -0.1681  0.6269
 3953TIP3    H133494   0.479   6.223   8.580  2.6003 -0.5938 -0.5448
 3953TIP3    H233495   0.349   6.257   8.508  0.3348 -3.1342  2.1140
 3954TIP3   OH233496   2.187   6.704   1.237  0.0584 -0.2368  0.3073
 3954TIP3    H133497   2.166   6.618   1.199 -1.1454 -0.7924  2.1300
 3954TIP3    H233498   2.144   6.767   1.178 -0.7755 -1.0126  0.0559
 3955TIP3   OH233499   4.520   0.046   0.141 -0.0966  0.6234  0.0263
 3955TIP3    H133500   4.455   0.066   0.073  0.8784 -0.1425 -1.1743
 3955TIP3    H233501   4.586   0.115   0.131  1.3493 -0.8974 -1.5872
 3956TIP3   OH233502   6.449   5.394   1.522  0.0768  0.7851  0.3995
 3956TIP3    H133503   6.389   5.466   1.543  0.2073  0.7180  1.0003
 3956TIP3    H233504   6.517   5.435   1.468 -1.2959  0.5777 -1.6099
 3957TIP3   OH233505   0.512   5.227   0.340  0.3146 -0.1578  0.5491
 3957TIP3    H133506   0.447   5.289   0.373  0.7006  1.0766 -0.8927
 3957TIP3    H233507   0.472   5.141   0.353 -2.1537  0.5863 -1.2890
 3958TIP3   OH233508   2.002   0.437   7.985  0.8545  0.3304  0.3187
 3958TIP3    H133509   1.991   0.357   8.037  0.6286 -0.2544 -0.6002
 3958TIP3    H233510   2.097   0.450   7.982  0.9973 -0.8122 -0.8389
 3959TIP3   OH233511   0.107   0.428   1.759  0.5594  0.0377  0.6309
 3959TIP3    H133512   0.056   0.407   1.837 -0.1567  0.0910  0.1757
 3959TIP3    H233513   0.154   0.347   1.738  1.8576  0.4013  1.9237
 3960TIP3   OH233514   1.670   5.074   7.398 -0.1670  1.2958 -0.4771
 3960TIP3    H133515   1.700   5.120   7.477 -0.0297  0.9066 -0.2963
 3960TIP3    H233516   1.580   5.103   7.386  0.0667  1.9688 -0.6353
 3961TIP3   OH233517   3.224   6.061   0.241  0.1658 -0.6283  0.1379
 3961TIP3    H133518   3.138   6.022   0.261 -0.6381  0.5098 -0.9667
 3961TIP3    H233519   3.222   6.075   0.147  0.4244  1.9857  0.4477
 3962TIP3   OH233520   2.385   6.711   6.946  0.0251 -0.6800  0.1037
 3962TIP3    H133521   2.294   6.740   6.944  0.1389 -0.3024  0.2995
 3962TIP3    H233522   2.411   6.707   6.853 -0.4302 -1.5833  0.0023
 3963TIP3   OH233523   3.941   1.550   7.803  0.3583 -0.5765  0.3053
 3963TIP3    H133524   4.009   1.488   7.828  1.4170  0.2883 -0.3779
 3963TIP3    H233525   3.939   1.613   7.875  1.4074  0.2924 -0.4028
 3964TIP3   OH233526   3.939   3.424   1.057  0.1687  0.4563  0.0419
 3964TIP3    H133527   3.959   3.383   0.973  0.5916  1.4494 -0.3595
 3964TIP3    H233528   3.998   3.499   1.062 -0.8750  1.2648  0.5604
 3965TIP3   OH233529   2.812   1.524   8.023  0.1156  0.3031  0.1888
 3965TIP3    H133530   2.887   1.523   7.963 -0.7531 -0.8046 -0.9517
 3965TIP3    H233531   2.745   1.574   7.976 -0.4044 -0.1350  0.4564
 3966TIP3   OH233532   3.400   1.007   0.473 -0.3899 -0.1820 -0.0687
 3966TIP3    H133533   3.455   1.044   0.542  0.6741 -0.5356 -0.7174
 3966TIP3    H233534   3.365   0.927   0.512  0.8549 -0.8097 -0.1930
 3967TIP3   OH233535   6.420   3.002   8.367 -0.2547 -0.7933  0.3690
 3967TIP3    H133536   6.480   2.998   8.293 -0.4313  1.2433  0.0587
 3967TIP3    H233537   6.476   3.022   8.442 -0.3941 -0.1371  0.2997
 3968TIP3   OH233538   0.598   1.760   2.483 -0.0328  0.2392  0.5188
 3968TIP3    H133539   0.676   1.813   2.465  0.3657 -0.5209 -0.0284
 3968TIP3    H233540   0.598   1.748   2.578  1.9318 -1.8579  0.3115
 3969TIP3   OH233541   0.120   0.469   8.574 -0.1229  0.2821  0.3346
 3969TIP3    H133542   0.160   0.420   8.646  0.5974 -1.2654 -1.0646
 3969TIP3    H233543   0.194   0.508   8.527 -0.5498  0.7837  0.0645
 3970TIP3   OH233544   6.301   0.808   1.166 -0.0982 -0.1209 -0.1786
 3970TIP3    H133545   6.317   0.892   1.210 -1.7791  0.1772 -0.0899
 3970TIP3    H233546   6.214   0.817   1.128  0.3433 -1.2740 -1.5239
 3971TIP3   OH233547   1.549   1.185   1.206 -0.0668  0.1706 -0.0509
 3971TIP3    H133548   1.620   1.171   1.144 -0.6242 -1.7118 -0.3127
 3971TIP3    H233549   1.567   1.271   1.244  0.9558  0.8285 -1.9167
 3972TIP3   OH233550   4.251   3.639   6.704  0.7911 -0.9466 -0.0972
 3972TIP3    H133551   4.280   3.612   6.617  1.2408 -0.0429 -0.2409
 3972TIP3    H233552   4.326   3.685   6.741  0.3324 -0.6274  0.4455
 3973TIP3   OH233553   5.178   4.173   8.548 -0.1827  0.1454  0.3479
 3973TIP3    H133554   5.224   4.131   8.475  0.0100  2.7572 -1.1530
 3973TIP3    H233555   5.085   4.156   8.530 -0.2250  1.8314 -1.3072
 3974TIP3   OH233556   1.464   2.950   8.096 -0.0003  0.6957  0.1903
 3974TIP3    H133557   1.407   3.008   8.045  1.2694  2.4029  0.6455
 3974TIP3    H233558   1.549   2.956   8.054 -0.0366 -1.7117 -0.3863
 3975TIP3   OH233559   0.635   6.602   7.526  0.0211 -0.2682 -0.6110
 3975TIP3    H133560   0.706   6.658   7.557  0.7396 -2.1336  1.3846
 3975TIP3    H233561   0.643   6.604   7.431  2.5790 -0.1649 -0.4701
 3976TIP3   OH233562   3.315   5.904   0.495  0.2300  0.1002  0.0363
 3976TIP3    H133563   3.243   5.961   0.522  2.2928  1.9278  2.1007
 3976TIP3    H233564   3.327   5.924   0.402 -0.7684  1.0972  0.0985
 3977TIP3   OH233565   0.616   1.423   6.593 -0.3464  0.5063 -0.3593
 3977TIP3    H133566   0.553   1.487   6.627 -0.2299 -0.3184  1.5724
 3977TIP3    H233567   0.642   1.457   6.508 -1.4633  2.2012 -0.0715
 3978TIP3   OH233568   3.751   6.156   0.412  0.4322  0.3385  0.2114
 3978TIP3    H133569   3.801   6.211   0.472 -0.7810  2.6589 -0.7445
 3978TIP3    H233570   3.806   6.152   0.333  0.3525  0.5601  0.1416
 3979TIP3   OH233571   1.720   6.237   8.720 -0.0776 -0.3987  0.4801
 3979TIP3    H133572   1.675   6.319   8.741  0.5694  0.2232 -0.4781
 3979TIP3    H233573   1.745   6.246   8.628  1.6978 -0.8384  0.8707
 3980TIP3   OH233574   5.566   2.226   8.107 -0.6875  0.0176 -0.5845
 3980TIP3    H133575   5.568   2.289   8.035  0.4789 -1.6159 -2.0977
 3980TIP3    H233576   5.482   2.240   8.149  0.2373  3.8151  0.3947
 3981TIP3   OH233577   5.549   1.515   8.382  0.2554 -0.4126 -0.9119
 3981TIP3    H133578   5.552   1.609   8.403 -1.5662 -0.1471 -1.6539
 3981TIP3    H233579   5.505   1.476   8.458  2.2813 -0.9313  0.0603
 3982TIP3   OH233580   3.951   1.556   8.151 -0.3104 -0.6162  0.0136
 3982TIP3    H133581   3.966   1.610   8.074 -0.3173  0.4297  0.7224
 3982TIP3    H233582   4.036   1.553   8.195 -0.9752  1.5005  1.6265
 3983TIP3   OH233583   6.388   6.659   0.373 -0.0444 -0.7549  0.4266
 3983TIP3    H133584   6.351   6.607   0.301 -0.2083 -0.5477  0.3571
 3983TIP3    H233585   6.311   6.694   0.418  0.0436  0.7183 -0.4761
 3984TIP3   OH233586   6.840   1.294   1.671  0.4409 -0.2015  0.6281
 3984TIP3    H133587   6.922   1.254   1.699  0.7924 -0.9090 -1.2838
 3984TIP3    H233588   6.863   1.348   1.596 -1.1012 -2.1051 -1.3401
 3985TIP3   OH233589   0.331   0.119   6.958 -0.6517 -0.4319 -0.3050
 3985TIP3    H133590   0.414   0.081   6.987 -0.7493  0.1063  0.6901
 3985TIP3    H233591   0.354   0.205   6.925 -0.8717 -0.1112  0.3726
 3986TIP3   OH233592   2.191   1.353   8.052 -0.1089 -0.1109 -0.4498
 3986TIP3    H133593   2.161   1.346   7.961  0.1017  0.2787 -0.5517
 3986TIP3    H233594   2.280   1.318   8.050  0.3208  0.9341 -0.6291
 3987TIP3   OH233595   4.790   1.009   0.880 -0.0088  0.2296  0.6323
 3987TIP3    H133596   4.854   0.940   0.896  0.1475  0.5273  1.3027
 3987TIP3    H233597   4.809   1.076   0.945 -2.3828 -0.6250  2.3303
 3988TIP3   OH233598   5.616   3.686   2.119 -0.0279 -0.8169 -0.0514
 3988TIP3    H133599   5.565   3.623   2.170 -0.7611  0.6124  1.0840
 3988TIP3    H233600   5.707   3.665   2.139 -0.2634 -1.4628  0.3746
 3989TIP3   OH233601   6.641   5.255   6.746 -0.1843 -0.8730 -0.3600
 3989TIP3    H133602   6.645   5.264   6.841  1.0150 -2.3243 -0.2465
 3989TIP3    H233603   6.669   5.341   6.713  1.3528 -0.9622  0.6123
 3990TIP3   OH233604   6.742   5.181   6.475  0.2280 -0.3438 -1.0228
 3990TIP3    H133605   6.736   5.226   6.559  1.6787 -2.6733  0.4356
 3990TIP3    H233606   6.836   5.174   6.458 -0.0159 -0.9324 -2.2628
 3991TIP3   OH233607   6.101   5.490   7.258 -0.2924 -0.3553  0.0007
 3991TIP3    H133608   6.090   5.569   7.206  1.5153  0.6484  1.0387
 3991TIP3    H233609   6.045   5.502   7.334  0.4107  0.2242  0.4410
 3992TIP3   OH233610   0.214   1.803   1.489  0.3261 -0.1065  0.3139
 3992TIP3    H133611   0.275   1.730   1.478  0.6400  0.1707  0.2249
 3992TIP3    H233612   0.259   1.878   1.453 -0.6594 -0.1766 -1.1387
 3993TIP3   OH233613   1.059   1.665   2.446 -0.0277 -0.2526 -0.4870
 3993TIP3    H133614   1.104   1.582   2.433  0.1900 -0.4953  1.5750
 3993TIP3    H233615   1.126   1.732   2.430  0.5579 -0.5650  0.5723
 3994TIP3   OH233616   5.293   6.025   0.638  0.5778  0.7344  0.4851
 3994TIP3    H133617   5.198   6.023   0.653  0.3054  1.6804 -0.8682
 3994TIP3    H233618   5.310   6.115   0.610  1.5424  0.0707 -1.2100
 3995TIP3   OH233619   0.886   2.161   0.525  0.1143 -0.0522 -0.0718
 3995TIP3    H133620   0.876   2.120   0.611  1.9682 -0.6787 -0.1246
 3995TIP3    H233621   0.798   2.193   0.504 -1.0333 -2.3787  0.7852
 3996TIP3   OH233622   3.354   3.657   7.687 -0.4286  0.0366  0.3030
 3996TIP3    H133623   3.432   3.713   7.685  0.6500 -1.4297 -0.1477
 3996TIP3    H233624   3.380   3.583   7.742 -1.9990  0.1813  1.3048
 3997TIP3   OH233625   5.543   4.461   6.578  0.4541 -0.3245  0.3529
 3997TIP3    H133626   5.475   4.522   6.548  0.7418  0.1657  0.6876
 3997TIP3    H233627   5.577   4.422   6.498  0.2732 -0.0387  0.1339
 3998TIP3   OH233628   5.134   4.524   7.645  0.2554  0.5166  0.2314
 3998TIP3    H133629   5.197   4.586   7.682  1.1627 -0.1041 -0.2158
 3998TIP3    H233630   5.083   4.576   7.583  0.5418  0.9708  0.3713
 3999TIP3   OH233631   5.053   6.514   8.219 -0.3975 -0.2343 -0.4033
 3999TIP3    H133632   5.145   6.519   8.247  0.1578  0.5277 -2.1938
 3999TIP3    H233633   5.055   6.538   8.126 -2.4307 -0.1485 -0.4718
 4000TIP3   OH233634   6.123   4.142   0.304 -0.4829 -0.0839 -0.2425
 4000TIP3    H133635   6.172   4.156   0.223  1.0904 -0.9867  0.5114
 4000TIP3    H233636   6.050   4.086   0.279 -0.0759 -0.2609 -1.0573
 4001TIP3   OH233637   6.370   1.464   1.178 -0.6813 -0.0257  0.1458
 4001TIP3    H133638   6.296   1.419   1.219 -1.4817  1.6765  0.6354
 4001TIP3    H233639   6.430   1.393   1.153 -2.5173 -1.4732 -0.3817
 4002TIP3   OH233640   1.736   0.558   7.084  0.8060  0.3537 -0.0291
 4002TIP3    H133641   1.708   0.510   7.163 -0.6708  0.0715 -0.6903
 4002TIP3    H233642   1.699   0.508   7.012 -1.3344  2.7734 -0.7481
 4003TIP3   OH233643   2.394   1.337   1.376 -0.4430 -0.2317  0.4416
 4003TIP3    H133644   2.352   1.303   1.298  0.0581  2.3768 -1.0760
 4003TIP3    H233645   2.323   1.351   1.438 -1.2832  0.3439 -0.6192
 4004TIP3   OH233646   1.335   3.457   8.060  0.5013  0.2610 -0.2181
 4004TIP3    H133647   1.411   3.512   8.044  0.2693  0.9694  0.9796
 4004TIP3    H233648   1.304   3.484   8.147 -0.6094 -0.6014 -0.3270
 4005TIP3   OH233649   2.785   4.097   6.722 -0.5151 -0.3141  0.3973
 4005TIP3    H133650   2.782   4.185   6.759  2.3421 -0.6324  1.6896
 4005TIP3    H233651   2.828   4.044   6.789 -0.5272 -2.2830 -1.0542
 4006TIP3   OH233652   2.679   6.644   0.436  0.0387  0.3835  0.1119
 4006TIP3    H133653   2.721   6.559   0.420 -1.8794 -0.9887  1.7594
 4006TIP3    H233654   2.737   6.687   0.499 -1.6189 -2.2304  3.7763
 4007TIP3   OH233655   2.133   1.430   0.516 -0.3034  0.4624  0.4471
 4007TIP3    H133656   2.121   1.476   0.599  0.0198 -1.2348  1.4861
 4007TIP3    H233657   2.180   1.350   0.539  1.1488  0.6437 -1.5986
 4008TIP3   OH233658   5.937   1.967   1.164  0.0354 -0.0088 -0.3084
 4008TIP3    H133659   5.893   1.933   1.087 -0.3595  1.6293 -0.8409
 4008TIP3    H233660   5.926   1.898   1.230 -2.3624 -0.1423 -0.7526
 4009TIP3   OH233661   1.463   4.951   0.050 -0.4195 -0.1645 -0.5003
 4009TIP3    H133662   1.469   4.868   0.098 -2.7080 -0.9368 -1.3818
 4009TIP3    H233663   1.533   4.946  -0.014  1.1549 -0.1859  1.1558
 4010TIP3   OH233664   0.926   6.283   1.835 -0.1641 -0.2178  0.1419
 4010TIP3    H133665   0.995   6.227   1.801 -0.1101  1.3573 -2.6020
 4010TIP3    H233666   0.962   6.371   1.831 -1.9575  0.5383 -0.4071
 4011TIP3   OH233667   5.754   3.287   1.284  0.2671  0.0697  0.0853
 4011TIP3    H133668   5.726   3.198   1.307 -1.0579  0.4480  0.0401
 4011TIP3    H233669   5.846   3.291   1.310 -0.0527 -0.8416  1.4696
 4012TIP3   OH233670   5.555   5.701   7.587  0.2246 -0.0404  0.5801
 4012TIP3    H133671   5.595   5.741   7.510 -0.3381 -0.2398  0.1827
 4012TIP3    H233672   5.464   5.687   7.563  0.7716 -3.3676 -0.0404
 4013TIP3   OH233673   1.570   6.579   0.512  0.1928 -0.3365  0.1198
 4013TIP3    H133674   1.552   6.588   0.605  2.6512 -3.1730  1.0441
 4013TIP3    H233675   1.594   6.487   0.501  1.5444  0.2535 -3.0078
 4014TIP3   OH233676   1.619   1.353   0.974  0.6772 -0.6718 -0.4805
 4014TIP3    H133677   1.577   1.427   0.931 -0.9944 -0.4902  1.3198
 4014TIP3    H233678   1.548   1.289   0.986  1.5883 -1.6247 -0.0118
 4015TIP3   OH233679   6.265   6.536   7.997 -0.3028 -0.1116 -0.4742
 4015TIP3    H133680   6.266   6.571   8.087  1.1532 -1.7650  0.2115
 4015TIP3    H233681   6.338   6.580   7.954  0.3724 -0.9151 -0.1680
 4016TIP3   OH233682   5.684   2.875   6.606 -0.1767  0.0503 -0.2669
 4016TIP3    H133683   5.745   2.947   6.587 -0.3963  0.3964  0.3166
 4016TIP3    H233684   5.611   2.889   6.545 -0.6963  0.9249  0.5326
 4017TIP3   OH233685   2.555   2.570   1.957 -0.1403 -0.5438  0.2601
 4017TIP3    H133686   2.590   2.655   1.986 -0.5810 -0.3708  0.2979
 4017TIP3    H233687   2.516   2.533   2.036 -1.8573  0.1875 -0.2058
 4018TIP3   OH233688   2.274   4.203   8.499 -0.1853 -0.4073 -0.1488
 4018TIP3    H133689   2.322   4.243   8.426 -1.1006 -0.2084 -0.6554
 4018TIP3    H233690   2.287   4.109   8.488  1.2486 -0.3163  0.5411
 4019TIP3   OH233691   2.592   3.222   0.775  0.1967 -0.0712 -0.3137
 4019TIP3    H133692   2.523   3.282   0.805 -0.1513 -0.0507 -1.1262
 4019TIP3    H233693   2.672   3.255   0.817 -0.0056  0.8961 -0.6522
 4020TIP3   OH233694   3.879   4.022   1.314  0.2839  0.1891 -0.3537
 4020TIP3    H133695   3.864   4.057   1.402 -0.0225  1.8187 -1.0313
 4020TIP3    H233696   3.919   3.936   1.330  1.5638  1.0251  1.3887
 4021TIP3   OH233697   6.212   5.746   1.415  0.1116  0.0949  0.5154
 4021TIP3    H133698   6.231   5.752   1.322 -0.2475 -1.5207  0.3026
 4021TIP3    H233699   6.147   5.814   1.431  1.1017  1.2141 -0.1344
 4022TIP3   OH233700   3.813   5.533   8.243  0.0708 -0.1431  0.1167
 4022TIP3    H133701   3.832   5.549   8.336  1.5199 -0.2347 -0.1379
 4022TIP3    H233702   3.834   5.616   8.200  0.8817 -0.5470 -0.3032
 4023TIP3   OH233703   4.178   3.350   1.609 -0.2052 -0.1744  0.2348
 4023TIP3    H133704   4.133   3.363   1.692 -1.3630 -1.4711 -0.1473
 4023TIP3    H233705   4.112   3.372   1.543 -0.0839 -1.4405 -0.3331
 4024TIP3   OH233706   4.836   2.885   0.808  0.0815  0.2283 -0.2580
 4024TIP3    H133707   4.855   2.799   0.845 -0.0401 -0.0542 -0.8376
 4024TIP3    H233708   4.802   2.936   0.882  1.4054  0.2070  0.4093
 4025TIP3   OH233709   1.417   1.158   8.510  0.1990  0.0054 -0.4140
 4025TIP3    H133710   1.327   1.131   8.531 -0.0740  0.1537 -1.3336
 4025TIP3    H233711   1.456   1.179   8.595 -0.8808  0.6676 -0.0564
 4026TIP3   OH233712   0.227   0.126   1.045 -0.0805 -0.1273  0.2209
 4026TIP3    H133713   0.303   0.169   1.006  0.6589 -0.0036  1.7320
 4026TIP3    H233714   0.154   0.185   1.027  0.3917  0.3325 -0.2262
 4027TIP3   OH233715   3.443   6.687   0.897 -0.5246  0.1014  0.0854
 4027TIP3    H133716   3.532   6.717   0.914 -1.1924  2.3449  0.0220
 4027TIP3    H233717   3.434   6.606   0.947  1.9016 -0.8549 -0.9024
 4028TIP3   OH233718   0.646   6.061   7.552 -0.0054 -0.2636  0.1084
 4028TIP3    H133719   0.581   6.130   7.564 -0.1072 -0.1510 -1.0178
 4028TIP3    H233720   0.697   6.062   7.634 -0.6968  0.4026  0.5435
 4029TIP3   OH233721   4.594   6.323   6.746 -0.2987  0.6085 -0.0030
 4029TIP3    H133722   4.607   6.387   6.816 -0.1366  0.8229 -0.2317
 4029TIP3    H233723   4.585   6.375   6.666  0.1170  0.3339 -0.2324
 4030TIP3   OH233724   2.556   2.915   7.305 -0.0045 -0.8428  0.3357
 4030TIP3    H133725   2.565   2.864   7.224  1.1386  0.0091 -0.0879
 4030TIP3    H233726   2.627   2.882   7.362  0.4706 -0.0343  0.2195
 4031TIP3   OH233727   2.369   1.677   2.406 -0.0075 -0.6655 -0.1853
 4031TIP3    H133728   2.366   1.638   2.494  0.7802 -1.3245 -0.4395
 4031TIP3    H233729   2.300   1.743   2.407  0.6275  0.0178  1.2624
 4032TIP3   OH233730   4.105   0.829   0.221  0.5659 -0.4189  0.1782
 4032TIP3    H133731   4.084   0.907   0.271  1.0299 -0.6997  0.8199
 4032TIP3    H233732   4.197   0.839   0.196  0.9191 -1.1805  1.0848
 4033TIP3   OH233733   4.116   2.159   7.873  0.3492  0.1308  0.1975
 4033TIP3    H133734   4.074   2.245   7.870  3.1766  1.6606  1.0731
 4033TIP3    H233735   4.061   2.103   7.818 -1.3594  2.5771 -0.7214
 4034TIP3   OH233736   6.196   5.175   0.871 -0.2494  0.9605 -0.1571
 4034TIP3    H133737   6.194   5.268   0.848  2.8768  1.1914  0.1135
 4034TIP3    H233738   6.232   5.173   0.959 -0.3976 -0.5020 -0.1176
 4035TIP3   OH233739   3.922   6.481   1.099  0.5634 -0.3011 -0.1225
 4035TIP3    H133740   3.881   6.564   1.119 -1.3671 -0.8104 -1.6413
 4035TIP3    H233741   3.885   6.419   1.162 -0.6644 -0.6423 -1.1280
 4036TIP3   OH233742   2.610   2.853   2.023 -0.6935  0.5095 -0.1523
 4036TIP3    H133743   2.683   2.883   2.077 -0.3257  1.1752 -1.0033
 4036TIP3    H233744   2.616   2.905   1.943 -0.7017 -1.0499 -1.2078
 4037TIP3   OH233745   3.881   2.741   7.051 -0.0261 -0.3435 -0.4083
 4037TIP3    H133746   3.834   2.720   7.132 -0.7296  0.6813 -0.5375
 4037TIP3    H233747   3.842   2.683   6.986  0.6376 -1.2731 -0.0064
 4038TIP3   OH233748   0.332   6.263   7.687  0.2330 -0.0492  0.4092
 4038TIP3    H133749   0.399   6.262   7.755  1.5567  1.4024 -0.8023
 4038TIP3    H233750   0.294   6.351   7.692 -0.4976 -0.3351  0.0559
 4039TIP3   OH233751   6.391   2.687   6.930  0.5823  0.3660 -0.4875
 4039TIP3    H133752   6.487   2.684   6.934  0.5131 -1.6661  0.7593
 4039TIP3    H233753   6.367   2.758   6.989  1.2833 -0.0628  0.3316
 4040TIP3   OH233754   3.284   2.540   1.406  0.7288 -0.0475  0.1454
 4040TIP3    H133755   3.229   2.501   1.474 -0.8452  0.7130 -0.6470
 4040TIP3    H233756   3.277   2.634   1.420  1.1604  0.0888 -0.4952
 4041TIP3   OH233757   3.698   6.059   7.363  1.3668 -0.5149  0.0724
 4041TIP3    H133758   3.777   6.008   7.381  2.2618  0.3026 -1.3387
 4041TIP3    H233759   3.645   6.003   7.307  2.1374 -0.1185 -1.0918
 4042TIP3   OH233760   0.875   1.291   0.304 -0.7144  0.3931 -0.4555
 4042TIP3    H133761   0.924   1.347   0.364  0.4128 -1.9223  0.9452
 4042TIP3    H233762   0.783   1.310   0.321 -0.3728  0.9291  0.8805
 4043TIP3   OH233763   3.743   4.145   2.078 -0.4622  0.2432 -0.4293
 4043TIP3    H133764   3.803   4.212   2.045 -0.8280  1.4765  1.2822
 4043TIP3    H233765   3.665   4.194   2.105 -0.2049 -0.6209  2.1665
 4044TIP3   OH233766   3.219   1.822   0.030  0.2491 -0.6249 -0.0591
 4044TIP3    H133767   3.170   1.774   0.096  0.3154 -1.2700 -0.4678
 4044TIP3    H233768   3.199   1.777  -0.052 -0.5833  0.7471 -0.6248
 4045TIP3   OH233769   4.339   6.571   6.838  0.0369  0.3034  0.0120
 4045TIP3    H133770   4.403   6.620   6.889  1.4515 -1.3097 -0.1153
 4045TIP3    H233771   4.375   6.567   6.750 -0.0918 -0.8528 -0.0036
 4046TIP3   OH233772   4.659   0.621   7.464  0.2625 -0.0184  0.3886
 4046TIP3    H133773   4.652   0.577   7.379 -0.7417 -0.3756  0.6325
 4046TIP3    H233774   4.716   0.565   7.516 -1.7669 -1.6583  1.0210
 4047TIP3   OH233775   3.867   1.256   8.729  0.4839  0.0460 -0.4414
 4047TIP3    H133776   3.830   1.261   8.817 -0.1056 -1.4653 -0.5786
 4047TIP3    H233777   3.811   1.315   8.677  0.8333  0.9403  0.1758
 4048TIP3   OH233778   1.382   4.428   7.566 -0.4913 -0.3253  0.9114
 4048TIP3    H133779   1.402   4.521   7.560  0.9152 -0.5805  1.4687
 4048TIP3    H233780   1.466   4.385   7.579 -1.2495 -1.5736  1.9848
 4049TIP3   OH233781   5.035   0.190   1.513  0.2841 -0.3321  0.4813
 4049TIP3    H133782   5.016   0.283   1.531  0.1679 -0.2580 -0.0162
 4049TIP3    H233783   5.014   0.146   1.595  2.8905  0.4091  1.6599
 4050TIP3   OH233784   4.043   1.727   7.309 -0.6767  0.1138  0.0694
 4050TIP3    H133785   4.087   1.809   7.289  0.2466  0.1463  1.9684
 4050TIP3    H233786   4.114   1.664   7.325 -1.3510 -0.7114 -0.0775
 4051TIP3   OH233787   5.279   3.975   6.499 -0.1427 -0.2430  0.5451
 4051TIP3    H133788   5.358   4.020   6.470 -0.2900  1.5795  2.7257
 4051TIP3    H233789   5.209   4.013   6.446  0.1136 -0.0041  0.3750
 4052TIP3   OH233790   4.973   4.710   8.593  0.5041  0.2032 -0.0974
 4052TIP3    H133791   4.893   4.703   8.645 -0.2143  0.0623 -1.1991
 4052TIP3    H233792   4.984   4.623   8.554  0.1578  0.7463 -1.4283
 4053TIP3   OH233793   5.145   6.471   1.822 -0.1914  0.1556 -0.5506
 4053TIP3    H133794   5.055   6.437   1.818 -0.0269 -0.2471 -0.9109
 4053TIP3    H233795   5.151   6.532   1.749 -0.4570  0.9159  0.0404
 4054TIP3   OH233796   5.501   5.155   7.119 -0.6636  0.2177  0.3526
 4054TIP3    H133797   5.415   5.194   7.133 -1.2956 -1.5155  1.7245
 4054TIP3    H233798   5.486   5.061   7.126  1.3529 -0.1269  0.6665
 4055TIP3   OH233799   1.668   5.411   7.054  0.3946  0.1661  0.0802
 4055TIP3    H133800   1.635   5.374   6.972  1.5256 -0.3343 -0.1610
 4055TIP3    H233801   1.755   5.444   7.033  0.6141  0.2364  1.0221
 4056TIP3   OH233802   5.733   2.174   0.486 -0.1173  0.0277  0.3102
 4056TIP3    H133803   5.646   2.159   0.450 -0.3495  0.2491  0.7680
 4056TIP3    H233804   5.781   2.093   0.466 -0.1127  0.3067 -0.8324
 4057TIP3   OH233805   5.916   1.161   1.340 -0.4287  0.2344 -0.7628
 4057TIP3    H133806   5.933   1.097   1.409  0.5321  0.2127 -1.0082
 4057TIP3    H233807   5.832   1.200   1.364 -0.3088 -0.0715  0.1925
 4058TIP3   OH233808   0.019   5.817   0.786  0.3969 -0.2592 -0.4407
 4058TIP3    H133809   0.029   5.813   0.691 -0.9123 -0.8498 -0.5798
 4058TIP3    H233810  -0.074   5.799   0.801  0.7931 -1.2541  1.0158
 4059TIP3   OH233811   0.262   0.601   7.983 -0.0065 -0.2620  0.2179
 4059TIP3    H133812   0.322   0.538   7.943  0.0385 -0.7135  0.9758
 4059TIP3    H233813   0.189   0.607   7.922 -0.5421 -1.8982  0.6414
 4060TIP3   OH233814   0.580   6.819   6.959  0.2544  0.1865 -0.1010
 4060TIP3    H133815   0.518   6.766   6.909  1.2546 -0.0379 -1.1237
 4060TIP3    H233816   0.652   6.837   6.899  1.1816  0.4759  1.0499
 4061TIP3   OH233817   6.430   3.121   7.667  0.4765  0.5471  0.1037
 4061TIP3    H133818   6.479   3.112   7.748 -0.8159  0.8227  0.9380
 4061TIP3    H233819   6.444   3.039   7.620  0.6201  0.0880  0.9489
 4062TIP3   OH233820   1.592   4.737   2.202 -0.0609  0.2752  0.3354
 4062TIP3    H133821   1.524   4.776   2.257  1.0360  1.0785  1.1535
 4062TIP3    H233822   1.606   4.801   2.132 -0.0518  0.1671  0.2380
 4063TIP3   OH233823   6.117   1.155   7.840  0.0363 -1.0283 -0.4129
 4063TIP3    H133824   6.166   1.177   7.761  0.7270 -0.9711  0.0250
 4063TIP3    H233825   6.160   1.205   7.909 -0.1258 -1.6156  0.1168
 4064TIP3   OH233826   5.645   5.755   6.699 -0.0924 -0.1180  0.3424
 4064TIP3    H133827   5.574   5.704   6.740 -0.3100  0.5289  0.7859
 4064TIP3    H233828   5.722   5.734   6.751  0.5559 -2.4821 -1.4077
 4065TIP3   OH233829   4.898   4.614   0.747 -0.1349 -0.7090  0.1347
 4065TIP3    H133830   4.864   4.629   0.835 -1.3715  0.7937 -0.5563
 4065TIP3    H233831   4.898   4.519   0.737  1.0637 -0.9851  2.1139
 4066TIP3   OH233832   4.067   5.662   6.940 -0.2855 -0.2067 -0.3122
 4066TIP3    H133833   3.981   5.626   6.917 -0.1805 -1.2119  0.8203
 4066TIP3    H233834   4.052   5.712   7.020  0.3356 -1.0724  0.3534
 4067TIP3   OH233835   4.837   6.188   7.130  0.3267 -0.0217  0.1631
 4067TIP3    H133836   4.848   6.256   7.064 -2.9013  0.4923 -0.0097
 4067TIP3    H233837   4.850   6.105   7.083  0.2651  0.3837 -0.5722
 4068TIP3   OH233838   5.268   0.524   7.774 -0.0920 -0.4067 -0.5633
 4068TIP3    H133839   5.321   0.562   7.704  0.8188  1.3329  0.9711
 4068TIP3    H233840   5.313   0.442   7.796 -0.1543 -0.7644 -1.6851
 4069TIP3   OH233841   6.059   2.565   8.158 -0.3581 -0.3515 -0.0716
 4069TIP3    H133842   5.980   2.514   8.177 -0.1420 -1.2655 -1.4833
 4069TIP3    H233843   6.085   2.537   8.070 -0.5384  2.6327 -1.1703
 4070TIP3   OH233844   3.482   3.410   7.404 -0.1014 -0.2320 -0.2364
 4070TIP3    H133845   3.442   3.375   7.325  1.6748  0.0155 -1.2888
 4070TIP3    H233846   3.498   3.502   7.384  0.4590 -0.1934  0.3695
 4071TIP3   OH233847   1.563   6.313   7.970  0.3351  0.3282  0.2424
 4071TIP3    H133848   1.650   6.342   7.942  0.5281 -0.9170 -0.5268
 4071TIP3    H233849   1.503   6.345   7.902 -0.0024  2.1653  1.3445
 4072TIP3   OH233850   3.041   0.139   6.768  0.1005 -0.1515 -0.7726
 4072TIP3    H133851   3.060   0.101   6.854  2.5452 -1.5612 -1.8522
 4072TIP3    H233852   3.050   0.233   6.782 -1.5974 -0.1828  0.9390
 4073TIP3   OH233853   2.029   4.292   1.716  0.5650 -0.5450 -0.1120
 4073TIP3    H133854   2.089   4.349   1.764  0.9057 -0.9939  0.0139
 4073TIP3    H233855   2.070   4.205   1.722  2.1578 -0.1946 -3.6624
 4074TIP3   OH233856   6.691   3.723   6.695  0.3593 -0.1346  0.5881
 4074TIP3    H133857   6.663   3.814   6.686  0.8081  0.3115  3.1549
 4074TIP3    H233858   6.610   3.675   6.712  0.4169  0.2428  2.0217
 4075TIP3   OH233859   6.446   2.341   7.126 -0.1300 -0.6459 -0.1148
 4075TIP3    H133860   6.511   2.391   7.077 -0.3244 -0.7801 -0.5071
 4075TIP3    H233861   6.449   2.253   7.088 -0.0395 -0.8448  0.3375
 4076TIP3   OH233862   5.032   0.128   0.947  0.0701  0.5343  0.0249
 4076TIP3    H133863   5.021   0.173   1.031  1.4843  0.1551  0.4424
 4076TIP3    H233864   4.958   0.067   0.943 -0.5918  1.2899  0.5031
 4077TIP3   OH233865   4.810   0.498   0.261  0.0167  0.0921  0.4449
 4077TIP3    H133866   4.758   0.418   0.269  0.9594 -0.7138 -0.9909
 4077TIP3    H233867   4.796   0.544   0.344  0.5222 -2.2112  1.9180
 4078TIP3   OH233868   0.812   6.606   0.878  0.3272  0.3640  0.0959
 4078TIP3    H133869   0.823   6.701   0.873 -1.7004  0.5920 -2.3339
 4078TIP3    H233870   0.720   6.593   0.898  0.7084 -1.1446  1.0556
 4079TIP3   OH233871   0.974   6.659   8.546  0.5607  0.2538  0.2371
 4079TIP3    H133872   0.923   6.644   8.466  1.0666  1.0975 -0.2470
 4079TIP3    H233873   0.954   6.749   8.572  1.8523  0.6354 -0.0097
 4080TIP3   OH233874   5.991   6.772   7.580 -0.2669 -0.1718 -0.4524
 4080TIP3    H133875   5.996   6.725   7.664 -2.9278  0.0947 -0.0539
 4080TIP3    H233876   6.041   6.852   7.594  0.3694 -0.7037  0.4428
 4081TIP3   OH233877   4.866   2.606   8.727  0.3694  0.3669 -0.1758
 4081TIP3    H133878   4.791   2.547   8.726  2.0873 -1.9953  1.5422
 4081TIP3    H233879   4.891   2.613   8.819  2.3052  1.0390 -0.7008
 4082TIP3   OH233880   3.994   3.849   0.816  0.0545  0.3738 -0.2978
 4082TIP3    H133881   4.039   3.765   0.817 -0.0756  0.2749  1.2677
 4082TIP3    H233882   3.903   3.828   0.792 -0.1870 -0.0887  0.9330
 4083TIP3   OH233883   2.668   0.442   7.541  0.7299  0.0037 -0.5547
 4083TIP3    H133884   2.713   0.476   7.618  1.1021  0.9998 -1.1928
 4083TIP3    H233885   2.717   0.363   7.517 -0.4691 -1.3661  1.2652
 4084TIP3   OH233886   2.838   5.498   7.574  0.1148 -0.3384  0.4113
 4084TIP3    H133887   2.918   5.449   7.558  0.8928  0.9164  0.3513
 4084TIP3    H233888   2.867   5.581   7.611 -0.9611  1.1016 -1.7746
 4085TIP3   OH233889   2.166   4.433   7.299  0.5629  0.4128  0.8681
 4085TIP3    H133890   2.119   4.481   7.367 -1.6326 -0.7744  0.3000
 4085TIP3    H233891   2.103   4.368   7.268  2.3583 -0.7657 -0.5386
 4086TIP3   OH233892   3.710   6.840   7.986 -0.0570 -0.1049 -0.1244
 4086TIP3    H133893   3.718   6.910   8.050  1.5534 -1.4805  1.2989
 4086TIP3    H233894   3.621   6.848   7.953  0.2611  2.9486 -0.4995
 4087TIP3   OH233895   6.051   5.958   1.450  0.4133 -0.5888 -0.5947
 4087TIP3    H133896   5.991   6.007   1.394  1.1744  0.9190 -0.1397
 4087TIP3    H233897   5.994   5.914   1.513 -0.3429 -1.0511 -1.5792
 4088TIP3   OH233898   5.822   0.653   7.067 -0.0317  0.4657 -0.0311
 4088TIP3    H133899   5.816   0.580   7.005  0.3571 -0.1355  0.6304
 4088TIP3    H233900   5.846   0.728   7.012  1.8341 -0.3698 -0.4303
 4089TIP3   OH233901   4.559   4.480   8.429 -0.3206 -0.2731 -0.2440
 4089TIP3    H133902   4.535   4.475   8.337 -1.7552  0.7997  0.0463
 4089TIP3    H233903   4.525   4.398   8.467 -0.0577 -0.5419 -0.5804
 4090TIP3   OH233904   3.298   3.577   6.619 -0.0382  0.1090 -0.0346
 4090TIP3    H133905   3.275   3.518   6.548 -0.0781  0.5495 -0.3929
 4090TIP3    H233906   3.264   3.662   6.592  0.6669  0.4533  0.1328
 4091TIP3   OH233907   0.433   2.740   1.857 -0.4554 -0.2136 -0.4062
 4091TIP3    H133908   0.463   2.781   1.938  0.9038  0.1072 -1.0380
 4091TIP3    H233909   0.345   2.709   1.877 -0.2731  0.1471  1.0860
 4092TIP3   OH233910   6.632   4.843   6.790 -0.4210 -0.0769 -0.0569
 4092TIP3    H133911   6.598   4.886   6.711  1.0638 -0.3206 -0.8649
 4092TIP3    H233912   6.696   4.905   6.824 -0.3547 -0.4037  0.4134
 4093TIP3   OH233913   5.791   4.113   0.638 -0.2374 -0.0112 -0.1104
 4093TIP3    H133914   5.705   4.148   0.661 -0.0696  0.3526 -0.0280
 4093TIP3    H233915   5.787   4.100   0.543 -0.0949  0.8230 -0.2401
 4094TIP3   OH233916   5.662   0.709   7.457 -0.4177 -0.6498 -0.3231
 4094TIP3    H133917   5.616   0.648   7.515  1.8938 -1.1428  1.1135
 4094TIP3    H233918   5.686   0.782   7.514 -1.1314  0.5521 -1.5131
 4095TIP3   OH233919   2.372   3.637   1.371 -0.4166  0.3363 -0.9956
 4095TIP3    H133920   2.422   3.659   1.293  0.6756  0.1323 -0.3802
 4095TIP3    H233921   2.422   3.567   1.413 -1.6341 -0.4056 -0.7463
 4096TIP3   OH233922   1.868   5.785   7.606 -0.2474  0.1714  0.0264
 4096TIP3    H133923   1.915   5.756   7.685 -0.2226  1.3982  0.4831
 4096TIP3    H233924   1.787   5.735   7.608 -1.4575  2.0419  2.3114
 4097TIP3   OH233925   2.871   3.990   7.488 -0.5970 -0.1696 -0.2748
 4097TIP3    H133926   2.824   4.002   7.406 -1.4333  1.8196  0.4443
 4097TIP3    H233927   2.887   4.079   7.521  1.9661 -0.8206  0.4864
 4098TIP3   OH233928   1.052   5.132   7.476  0.3188  0.1817  0.0096
 4098TIP3    H133929   1.132   5.183   7.483  0.2425  0.2007  0.9190
 4098TIP3    H233930   1.078   5.043   7.503 -0.1536  0.4056  1.3086
 4099TIP3   OH233931   2.759   5.317   2.205 -0.0752  0.0021  0.1650
 4099TIP3    H133932   2.841   5.339   2.160 -0.9740  3.6996  0.0357
 4099TIP3    H233933   2.701   5.390   2.187 -2.8177 -1.5998  1.8168
 4100TIP3   OH233934   2.759   0.173   7.776 -0.0247 -0.6205  0.5873
 4100TIP3    H133935   2.704   0.150   7.702  0.0882 -2.9939  1.1543
 4100TIP3    H233936   2.699   0.181   7.850  0.1971 -1.6729  0.8970
 4101TIP3   OH233937   6.180   5.130   2.456 -0.2035 -0.0175  0.0317
 4101TIP3    H133938   6.243   5.201   2.469  1.3388 -1.2526 -0.3074
 4101TIP3    H233939   6.235   5.053   2.438 -1.8463 -1.0294 -0.8758
 4102TIP3   OH233940   1.383   3.534   7.023 -0.7364 -0.3971 -0.4795
 4102TIP3    H133941   1.415   3.624   7.019  0.5805 -0.8276  0.0093
 4102TIP3    H233942   1.326   3.525   6.946 -1.0058  0.8880 -0.4485
 4103TIP3   OH233943   4.432   6.245   8.014 -0.0201 -0.0999  0.4245
 4103TIP3    H133944   4.362   6.232   7.951 -0.4064 -1.0736  1.0275
 4103TIP3    H233945   4.484   6.165   8.008  0.3640  0.1184  0.8154
 4104TIP3   OH233946   6.537   2.868   1.142 -0.1077 -0.0640  0.1449
 4104TIP3    H133947   6.575   2.954   1.161  0.1427 -0.0163 -0.5263
 4104TIP3    H233948   6.584   2.838   1.064  0.2860 -1.1220  0.7761
 4105TIP3   OH233949   2.727   6.453   1.506  0.9303  0.0223 -0.5828
 4105TIP3    H133950   2.822   6.463   1.515  0.5854  1.8788  2.4124
 4105TIP3    H233951   2.700   6.410   1.587 -0.9966  2.0171 -0.0559
 4106TIP3   OH233952   1.881   1.245   7.573 -0.4075  0.1450 -0.1033
 4106TIP3    H133953   1.842   1.285   7.496  0.1094  1.5372  0.3258
 4106TIP3    H233954   1.943   1.181   7.538 -2.5485 -1.6755 -0.7932
 4107TIP3   OH233955   3.186   1.857   7.814 -0.1075 -0.5222  0.1295
 4107TIP3    H133956   3.109   1.904   7.845  1.3665  1.4612  1.0416
 4107TIP3    H233957   3.214   1.906   7.736  1.6563  0.4998  1.2961
 4108TIP3   OH233958   5.965   2.062   0.075  0.6029  0.4840 -0.5993
 4108TIP3    H133959   5.877   2.100   0.070  0.1465 -0.5092 -0.3515
 4108TIP3    H233960   5.950   1.970   0.093  1.7256  0.4463  0.2305
 4109TIP3   OH233961   6.664   1.742   8.003 -0.2031 -0.5409 -0.2294
 4109TIP3    H133962   6.687   1.832   8.025 -1.8076  0.4315 -2.2054
 4109TIP3    H233963   6.740   1.708   7.956  0.8974 -0.6874  1.5577
 4110TIP3   OH233964   3.660   6.047   1.412 -0.2672 -0.9336 -0.2734
 4110TIP3    H133965   3.573   6.010   1.397 -0.9259  0.3445  0.2150
 4110TIP3    H233966   3.663   6.122   1.353  0.0865 -0.3515  0.4721
 4111TIP3   OH233967   1.152   4.189   7.693 -0.4319  0.5706  0.1520
 4111TIP3    H133968   1.064   4.218   7.716 -1.1513 -1.6363  0.3581
 4111TIP3    H233969   1.210   4.241   7.749 -1.3937  3.3759 -1.2479
 4112TIP3   OH233970   5.223   4.314   1.385  0.2240 -0.3151 -0.4060
 4112TIP3    H133971   5.289   4.312   1.316  0.2231 -0.7899 -0.3960
 4112TIP3    H233972   5.218   4.224   1.416 -0.2002 -0.2192 -0.1875
 4113TIP3   OH233973   2.049   6.568   1.711  0.3146 -0.0167 -0.0075
 4113TIP3    H133974   2.125   6.513   1.697  0.0985  0.0550 -1.7303
 4113TIP3    H233975   2.049   6.628   1.636 -1.4166 -0.0072 -0.0418
 4114TIP3   OH233976   4.955   1.421   0.851 -0.3490  0.2390  0.2030
 4114TIP3    H133977   4.974   1.440   0.759  0.4007 -0.9002  0.1085
 4114TIP3    H233978   4.926   1.505   0.887 -0.4437  0.7519 -1.0096
 4115TIP3   OH233979   5.904   2.787   0.399 -0.0719 -0.0313 -0.1104
 4115TIP3    H133980   5.965   2.741   0.341 -0.7556 -1.1594  0.0398
 4115TIP3    H233981   5.955   2.860   0.435  1.1465 -0.8680 -0.0979
 4116TIP3   OH233982   4.351   2.121   1.341 -0.0924  0.0631  0.3454
 4116TIP3    H133983   4.353   2.075   1.258  0.5719 -2.0645  1.4643
 4116TIP3    H233984   4.263   2.108   1.374 -0.5299  1.3820 -0.2294
 4117TIP3   OH233985   5.590   6.544   2.365 -0.0322  0.3186 -0.2570
 4117TIP3    H133986   5.556   6.544   2.455 -0.7804 -1.2116 -0.5002
 4117TIP3    H233987   5.562   6.460   2.329 -0.5302  1.2556 -2.2196
 4118TIP3   OH233988   2.487   0.051   8.443  0.6109 -0.1764  0.3325
 4118TIP3    H133989   2.561   0.010   8.398  0.5131  0.0337 -0.0239
 4118TIP3    H233990   2.463  -0.011   8.512  1.3066 -0.1166  0.6437
 4119TIP3   OH233991   2.291   5.181   7.805 -0.2327  0.7120 -0.0733
 4119TIP3    H133992   2.373   5.175   7.756 -0.4818  1.4720 -0.6013
 4119TIP3    H233993   2.228   5.216   7.742 -1.0452 -0.1506  0.2380
 4120TIP3   OH233994   5.059   2.498   1.333 -0.6084  0.0553 -0.2777
 4120TIP3    H133995   5.124   2.430   1.349 -0.7836  0.1311  0.8440
 4120TIP3    H233996   5.012   2.506   1.416 -1.5807  0.4993 -0.8508
 4121TIP3   OH233997   0.820   1.552   8.494  0.1808  0.0561  0.0017
 4121TIP3    H133998   0.802   1.500   8.572  0.4908  2.2213  1.6167
 4121TIP3    H233999   0.739   1.601   8.479  0.2982  0.0338 -0.7560
 4122TIP3   OH234000   2.517   5.254   2.354  0.0253  0.0324 -0.0334
 4122TIP3    H134001   2.598   5.245   2.304 -0.0560 -2.1602  0.1612
 4122TIP3    H234002   2.509   5.172   2.403 -1.7209  0.6782  0.8569
 4123TIP3   OH234003   0.823   0.264   0.299 -0.0430  0.4914  0.0684
 4123TIP3    H134004   0.881   0.245   0.372 -0.4722 -2.2437 -0.1887
 4123TIP3    H234005   0.735   0.242   0.332 -0.1656 -1.6050 -1.4003
 4124TIP3   OH234006   5.977   3.310   0.031  0.3418  0.1144 -0.4509
 4124TIP3    H134007   5.889   3.305   0.068  0.2036 -0.6193 -0.8633
 4124TIP3    H234008   5.983   3.400  -0.003 -0.5391 -0.0763 -1.1442
 4125TIP3   OH234009   6.000   3.512   7.181 -0.0425  0.6210  0.5179
 4125TIP3    H134010   5.978   3.578   7.246 -0.8616  0.6014  0.2798
 4125TIP3    H234011   6.089   3.533   7.154 -1.1239  3.2957 -1.4569
 4126TIP3   OH234012   6.218   6.313   0.325 -0.4697 -0.5696 -0.5920
 4126TIP3    H134013   6.307   6.285   0.303 -1.0366 -3.1969  0.0509
 4126TIP3    H234014   6.172   6.313   0.241 -0.0698 -0.0026 -0.8153
 4127TIP3   OH234015   6.546   1.501   7.102 -0.1991 -0.1199  0.3528
 4127TIP3    H134016   6.453   1.479   7.101  0.2552 -2.2917  0.3241
 4127TIP3    H234017   6.565   1.527   7.012 -0.0824 -3.3936 -0.7166
 4128TIP3   OH234018   3.221   2.458   6.602 -0.5837  0.0603  0.3520
 4128TIP3    H134019   3.186   2.406   6.530  1.0080 -0.2369 -0.2415
 4128TIP3    H234020   3.308   2.421   6.619 -1.4873 -0.9729  3.5313
 4129TIP3   OH234021   4.660   1.615   1.606 -0.2292  0.1842  0.2734
 4129TIP3    H134022   4.566   1.611   1.623 -0.0941  1.3487  1.4185
 4129TIP3    H234023   4.676   1.706   1.581  0.3906 -0.3283 -1.3349
 4130TIP3   OH234024   0.017   0.389   2.030 -0.5139 -0.1861  0.0755
 4130TIP3    H134025  -0.036   0.468   2.020 -0.5448 -0.0906  0.9088
 4130TIP3    H234026   0.054   0.396   2.118  0.1121 -0.7209 -0.1388
 4131TIP3   OH234027   2.657   0.475   8.555  0.5881  0.7795  0.1203
 4131TIP3    H134028   2.622   0.526   8.628  0.5724 -0.9460  1.3856
 4131TIP3    H234029   2.744   0.448   8.584  0.1834 -0.7887 -0.0254
 4132TIP3   OH234030   3.144   1.195   1.710  0.3152 -0.1198  0.3239
 4132TIP3    H134031   3.083   1.154   1.649  0.1085 -0.0640  0.4928
 4132TIP3    H234032   3.102   1.187   1.795  0.3356  0.3257  0.3787
 4133TIP3   OH234033   0.155   1.886   7.989 -0.9943  0.4375  0.0934
 4133TIP3    H134034   0.103   1.939   8.050 -2.9467  0.6008 -1.6075
 4133TIP3    H234035   0.142   1.927   7.904  0.1807 -0.8311 -0.7406
 4134TIP3   OH234036   5.414   4.007   7.686 -0.1997  0.2626  0.0859
 4134TIP3    H134037   5.499   4.007   7.643  0.0457 -0.5623  0.5377
 4134TIP3    H234038   5.352   3.985   7.616 -0.4097  3.2938 -0.8133
 4135TIP3   OH234039   3.278   5.932   8.399  0.0044  1.0907 -0.3321
 4135TIP3    H134040   3.261   5.860   8.338 -0.4200  2.2008 -1.5862
 4135TIP3    H234041   3.250   6.010   8.351  0.8702  2.1345  0.8067
 4136TIP3   OH234042   0.681   5.104   8.591 -0.6065  0.4382 -0.2332
 4136TIP3    H134043   0.738   5.068   8.659 -0.6458 -1.5913 -1.2158
 4136TIP3    H234044   0.628   5.170   8.637 -0.2337 -0.4652  1.5731
 4137TIP3   OH234045   3.890   1.949   1.591  0.4953 -0.4799 -0.5021
 4137TIP3    H134046   3.841   1.912   1.664 -0.4261 -2.5926 -2.1054
 4137TIP3    H234047   3.980   1.956   1.624  0.1704 -1.6850  0.7336
 4138TIP3   OH234048   5.070   3.106   1.562  0.0998  0.3629  0.1385
 4138TIP3    H134049   4.999   3.063   1.609 -1.6928  0.9528 -1.8846
 4138TIP3    H234050   5.033   3.191   1.537  2.3024  1.6221  0.8887
 4139TIP3   OH234051   3.515   3.673   7.171  0.2026 -0.4098  0.4131
 4139TIP3    H134052   3.444   3.616   7.200  0.2379  0.8111  3.3049
 4139TIP3    H234053   3.556   3.703   7.252  1.3944  2.1824 -1.0044
 4140TIP3   OH234054   5.732   2.570   6.303  0.0915  0.1360 -0.3832
 4140TIP3    H134055   5.743   2.623   6.224 -1.3229  0.6802 -0.2425
 4140TIP3    H234056   5.641   2.542   6.300  0.7678 -2.3103 -0.4358
 4141TIP3   OH234057   3.413   5.209   7.316 -0.2071 -0.5448 -0.4249
 4141TIP3    H134058   3.324   5.208   7.280 -1.5243  4.1749  1.8420
 4141TIP3    H234059   3.400   5.221   7.410  2.7441  1.1665 -0.1173
 4142TIP3   OH234060   4.960   5.677   0.323  0.2636  0.0075 -0.0506
 4142TIP3    H134061   4.871   5.690   0.355  0.4620  0.1624  0.4466
 4142TIP3    H234062   5.014   5.737   0.375  0.5414  0.5484 -0.9492
 4143TIP3   OH234063   5.299   4.225   7.811 -0.1620  0.2565 -0.2133
 4143TIP3    H134064   5.345   4.154   7.766  0.3161  0.7140 -0.4584
 4143TIP3    H234065   5.348   4.238   7.892  0.6200  1.2418 -0.8118
 4144TIP3   OH234066   0.714   1.755   0.222 -0.2163  0.6271  0.0838
 4144TIP3    H134067   0.645   1.784   0.163  0.2847  1.0888 -0.2888
 4144TIP3    H234068   0.762   1.689   0.171  0.4061  1.2491 -0.1572
 4145TIP3   OH234069   0.200   4.209   6.953  0.3132  0.1924 -0.3561
 4145TIP3    H134070   0.212   4.268   6.878  2.4991  0.6779  0.3088
 4145TIP3    H234071   0.153   4.135   6.917 -0.3338  1.2453 -1.7875
 4146TIP3   OH234072   4.469   1.529   0.191  0.4571 -0.1729  0.0453
 4146TIP3    H134073   4.445   1.618   0.217  0.2265 -0.3630  0.4994
 4146TIP3    H234074   4.471   1.531   0.096  2.7985  0.9180  0.0587
 4147TIP3   OH234075   3.420   4.712   8.504 -0.5850  0.1244  0.2482
 4147TIP3    H134076   3.475   4.719   8.582  1.2762  0.9671 -1.0707
 4147TIP3    H234077   3.399   4.802   8.481 -1.1980 -0.1228 -0.1860
 4148TIP3   OH234078   2.997   2.844   8.529  0.5551 -0.2864  0.3882
 4148TIP3    H134079   2.910   2.881   8.513 -0.5031 -1.2845  3.2209
 4148TIP3    H234080   2.997   2.762   8.479  0.2931  0.2349 -0.4797
 4149TIP3   OH234081   0.343   4.922   1.300  0.1634 -0.0076 -0.1530
 4149TIP3    H134082   0.259   4.885   1.270 -1.0691 -0.3117  3.2760
 4149TIP3    H234083   0.326   5.015   1.308 -0.3865 -0.2477  1.9222
 4150TIP3   OH234084   3.709   5.136   7.524  0.5116 -0.4902 -0.2838
 4150TIP3    H134085   3.620   5.100   7.528  0.8384 -1.3122 -0.3905
 4150TIP3    H234086   3.753   5.100   7.601  1.2132 -1.3409 -1.0579
 4151TIP3   OH234087   0.999   1.409   8.240 -0.4374 -0.8834 -0.3101
 4151TIP3    H134088   1.024   1.502   8.235 -0.4202 -0.9055 -0.6769
 4151TIP3    H234089   1.039   1.378   8.321 -0.2155 -0.6345 -0.3200
 4152TIP3   OH234090   1.900   4.904   6.640 -0.0598 -0.1806 -0.2006
 4152TIP3    H134091   1.870   4.995   6.648 -0.5774 -0.4928  2.5056
 4152TIP3    H234092   1.826   4.858   6.600  0.5708  0.6733 -2.5355
 4153TIP3   OH234093   1.320   3.134   1.110 -0.0602  0.3502  0.0475
 4153TIP3    H134094   1.364   3.080   1.176 -1.1949 -1.1694 -0.3855
 4153TIP3    H234095   1.280   3.205   1.161  1.0499  0.5496  0.6843
 4154TIP3   OH234096   4.390   2.000   0.049 -0.5005 -0.5263  0.5668
 4154TIP3    H134097   4.426   1.947  -0.022  0.6371 -0.9606  1.4363
 4154TIP3    H234098   4.437   2.084   0.044 -0.8894 -0.3139  0.4070
 4155TIP3   OH234099   4.360   5.399   7.282  0.1610 -0.8621 -0.3619
 4155TIP3    H134100   4.269   5.374   7.296 -0.4249  2.1061  1.9727
 4155TIP3    H234101   4.360   5.441   7.196 -0.7112 -0.6959 -0.2909
 4156TIP3   OH234102   3.347   3.386   8.739 -0.1944  0.2381 -0.2847
 4156TIP3    H134103   3.413   3.433   8.689 -0.9231  1.5483 -0.0704
 4156TIP3    H234104   3.394   3.353   8.816  0.2835  0.9228 -0.2681
 4157TIP3   OH234105   5.033   6.125   7.280 -0.1998 -0.2229 -0.7000
 4157TIP3    H134106   4.950   6.151   7.241 -0.8086 -0.7187  0.2352
 4157TIP3    H234107   5.009   6.064   7.350  0.9401 -0.2787 -0.3360
 4158TIP3   OH234108   6.578   4.459   7.269  0.0476  0.4680 -0.2793
 4158TIP3    H134109   6.662   4.500   7.289 -0.0495  0.7117 -0.3641
 4158TIP3    H234110   6.518   4.532   7.256 -0.4016  0.2989  0.6989
 4159TIP3   OH234111   5.121   3.843   2.366  0.4289  0.3476 -0.6225
 4159TIP3    H134112   5.040   3.795   2.347  1.5917 -1.5792 -1.0358
 4159TIP3    H234113   5.140   3.822   2.457  0.1166  1.3801 -0.3077
 4160TIP3   OH234114   4.710   0.352   1.481  0.1001 -0.1642 -0.4492
 4160TIP3    H134115   4.715   0.256   1.490 -0.9888 -0.2212 -0.3405
 4160TIP3    H234116   4.654   0.366   1.405  0.8281  0.3951 -0.8952
 4161TIP3   OH234117   4.583   5.558   7.131 -0.4550 -0.6126  0.5699
 4161TIP3    H134118   4.657   5.568   7.072 -0.9852  2.0735  0.2419
 4161TIP3    H234119   4.506   5.560   7.073 -0.9446  1.3361  1.2198
 4162TIP3   OH234120   5.359   6.761   6.948 -0.2349  0.2784 -0.5650
 4162TIP3    H134121   5.421   6.784   6.879  0.6507  2.0643  0.7272
 4162TIP3    H234122   5.294   6.706   6.905  1.5105 -0.5514 -2.2852
 4163TIP3   OH234123   1.844   1.618   1.610 -0.6498  0.0739  0.3691
 4163TIP3    H134124   1.900   1.667   1.670  0.4698 -1.2645  0.4617
 4163TIP3    H234125   1.897   1.542   1.585 -1.6099 -0.0926 -1.2574
 4164TIP3   OH234126   5.743   2.613   1.773 -0.6190  0.0090  0.1412
 4164TIP3    H134127   5.764   2.520   1.767 -1.4149 -0.3620  2.2021
 4164TIP3    H234128   5.821   2.658   1.739 -0.3357 -1.3831 -1.1293
 4165TIP3   OH234129   3.422   0.079   0.108  0.2699 -0.2193 -0.0580
 4165TIP3    H134130   3.340   0.127   0.099  0.4463 -0.2995 -2.8285
 4165TIP3    H234131   3.475   0.132   0.167 -1.2012  0.5919  0.5801
 4166TIP3   OH234132   5.277   6.706   8.001  0.4245  0.4477 -0.1279
 4166TIP3    H134133   5.302   6.639   8.065  0.9513 -0.4233 -1.2166
 4166TIP3    H234134   5.316   6.786   8.035  0.8604 -0.0346  0.5428
 4167TIP3   OH234135   3.809   2.259   8.025 -0.0161 -0.1734  0.6192
 4167TIP3    H134136   3.855   2.206   8.090  1.4455 -0.0800 -0.3048
 4167TIP3    H234137   3.878   2.295   7.969 -1.0815  1.4386  0.2630
 4168TIP3   OH234138   2.064   1.875   7.421 -0.1751  0.3643 -0.0827
 4168TIP3    H134139   2.143   1.823   7.408  0.4543  1.0219  0.9470
 4168TIP3    H234140   1.997   1.812   7.447  0.7274  0.0977  1.7489
 4169TIP3   OH234141   6.497   5.883   8.604  0.0978  0.0277 -0.0432
 4169TIP3    H134142   6.564   5.929   8.656  1.5503 -1.2654 -0.6840
 4169TIP3    H234143   6.541   5.804   8.574 -1.4271 -0.3473 -1.3963
 4170TIP3   OH234144   5.908   4.907   1.484  0.4655  0.0481 -0.6112
 4170TIP3    H134145   5.821   4.941   1.466 -0.0053 -0.6388  0.3175
 4170TIP3    H234146   5.967   4.973   1.447 -0.3761 -0.8780 -3.9619
 4171TIP3   OH234147   4.498   2.289   7.243  0.0376 -0.1041 -0.7636
 4171TIP3    H134148   4.507   2.368   7.296  1.4528 -2.1609  2.4296
 4171TIP3    H234149   4.407   2.289   7.215 -0.4478  1.8319  0.6043
 4172TIP3   OH234150   2.852   4.464   7.979  0.1589  0.0927  0.9574
 4172TIP3    H134151   2.845   4.530   8.048  1.7971  0.9113  0.3877
 4172TIP3    H234152   2.929   4.413   8.003 -1.2201 -1.8589  1.5320
 4173TIP3   OH234153   6.711   1.595   8.232  0.0030 -0.4704 -0.2748
 4173TIP3    H134154   6.737   1.505   8.214 -1.0196 -1.2057  1.7406
 4173TIP3    H234155   6.656   1.620   8.157  0.8768 -1.2303 -1.1961
 4174TIP3   OH234156   2.329   5.682   6.504 -0.9362 -0.1582  0.0391
 4174TIP3    H134157   2.401   5.626   6.473  0.2384  0.7466  1.0324
 4174TIP3    H234158   2.317   5.747   6.435  0.1789  0.5261  0.4580
 4175TIP3   OH234159   0.025   5.869   2.252 -0.0190 -0.0067  0.3990
 4175TIP3    H134160  -0.003   5.777   2.254 -0.7915  0.2369  1.4951
 4175TIP3    H234161   0.098   5.870   2.189 -1.0390 -1.0696 -0.8746
 4176TIP3   OH234162   3.824   4.108   6.157  0.1711 -0.2719  0.1913
 4176TIP3    H134163   3.801   4.161   6.081 -1.4728 -1.5397 -0.2811
 4176TIP3    H234164   3.918   4.094   6.149  0.5798  2.0974  0.0827
 4177TIP3   OH234165   0.680   5.696   2.770 -0.5234 -0.0003  0.1720
 4177TIP3    H134166   0.614   5.644   2.725 -2.6410  3.0992 -0.6212
 4177TIP3    H234167   0.653   5.695   2.861  0.5066 -1.6367  0.5104
 4178TIP3   OH234168   5.370   4.729   0.199  0.0356 -0.2621  0.1411
 4178TIP3    H134169   5.323   4.809   0.175  0.8883  0.2959  0.2804
 4178TIP3    H234170   5.414   4.702   0.119  1.7761  0.8315  0.6883
 4179TIP3   OH234171   5.521   5.423   6.866  0.1906 -0.2164  0.0167
 4179TIP3    H134172   5.461   5.486   6.827  0.0281 -1.2104 -1.3995
 4179TIP3    H234173   5.480   5.401   6.950 -0.4708  0.5011 -0.1038
 4180TIP3   OH234174   4.690   1.045   6.977  0.8730 -0.0951  0.1861
 4180TIP3    H134175   4.702   1.136   6.948  0.5067 -0.1673 -0.1894
 4180TIP3    H234176   4.680   0.995   6.896  1.9678 -0.6055  0.3516
 4181TIP3   OH234177   2.036   2.957   2.028 -0.4707  0.5991 -0.1342
 4181TIP3    H134178   1.966   2.894   2.013 -1.2348  1.6139 -1.0204
 4181TIP3    H234179   2.102   2.908   2.077  0.0400 -1.6123 -2.7342
 4182TIP3   OH234180   0.481   2.468   6.980  0.0593  0.3329  0.4239
 4182TIP3    H134181   0.550   2.403   6.969 -0.3397  0.2378 -2.0189
 4182TIP3    H234182   0.527   2.548   7.004  1.3579  0.7902 -3.1131
 4183TIP3   OH234183   4.012   0.268   0.441  0.2544  0.4648  0.0143
 4183TIP3    H134184   4.026   0.228   0.354  2.6056 -0.1646  0.6059
 4183TIP3    H234185   4.062   0.350   0.438 -1.6545  1.6699  0.0054
 4184TIP3   OH234186   2.060   5.301   6.485  0.9689 -0.5527 -0.1123
 4184TIP3    H134187   2.114   5.229   6.452  0.8334 -1.6573  1.8942
 4184TIP3    H234188   2.002   5.322   6.412  1.2029 -2.3011 -0.8762
 4185TIP3   OH234189   5.784   5.888   7.127 -0.2008 -0.6093  0.2572
 4185TIP3    H134190   5.734   5.969   7.141  0.7669  0.3943 -1.6853
 4185TIP3    H234191   5.728   5.835   7.070 -0.4200 -0.8851  0.7291
 4186TIP3   OH234192   3.361   2.489   8.076  0.3207 -0.0704  0.2651
 4186TIP3    H134193   3.313   2.430   8.134  0.9914 -0.1065  0.7852
 4186TIP3    H234194   3.292   2.531   8.023 -0.1034 -1.9680 -0.7687
 4187TIP3   OH234195   1.525   2.507   1.816 -0.0686  0.0168 -0.1432
 4187TIP3    H134196   1.509   2.417   1.844 -0.5676  0.8882  2.7262
 4187TIP3    H234197   1.541   2.555   1.897  0.0075  2.5594 -1.5507
 4188TIP3   OH234198   6.851   3.671   0.117  0.2769  0.3282  0.0797
 4188TIP3    H134199   6.805   3.690   0.035  1.8278  0.3628 -0.8302
 4188TIP3    H234200   6.862   3.576   0.117  0.7687  0.3852 -0.0281
 4189TIP3   OH234201   3.455   2.458   7.640 -0.4256 -0.5679 -0.2814
 4189TIP3    H134202   3.510   2.519   7.592  0.8610 -1.5374 -0.1009
 4189TIP3    H234203   3.505   2.438   7.719 -0.2595 -2.7094 -0.8689
 4190TIP3   OH234204   4.349   4.636   7.539  0.1948  0.2910 -0.2285
 4190TIP3    H134205   4.332   4.549   7.505  1.2042 -0.5261  1.2166
 4190TIP3    H234206   4.281   4.650   7.605 -0.2819  0.8251 -0.8264
 4191TIP3   OH234207   0.925   4.737   2.209 -0.1864  0.5327 -0.1506
 4191TIP3    H134208   0.896   4.647   2.217  0.7409  0.3613  2.1540
 4191TIP3    H234209   0.846   4.787   2.188 -0.8285 -0.6911 -0.7510
 4192TIP3   OH234210   0.740   5.332   2.188  0.0337 -0.4310  0.1845
 4192TIP3    H134211   0.697   5.247   2.198  1.2663 -1.4291 -2.1456
 4192TIP3    H234212   0.830   5.311   2.164  0.4771  1.5398 -0.0848
 4193TIP3   OH234213   0.900   0.531   6.487  0.1089  0.7548 -0.1583
 4193TIP3    H134214   0.947   0.483   6.419 -0.4593 -1.2941  0.8200
 4193TIP3    H234215   0.808   0.512   6.471 -0.0710  0.7008  0.8573
 4194TIP3   OH234216   2.701   3.489   0.621 -0.2683 -0.6568 -0.1034
 4194TIP3    H134217   2.790   3.492   0.584 -0.4451  2.5594 -0.5636
 4194TIP3    H234218   2.713   3.463   0.712  0.9854 -1.6774 -0.5395
 4195TIP3   OH234219   2.144   1.930   0.047  0.3769 -0.0876  0.5194
 4195TIP3    H134220   2.135   1.839   0.018  1.2670 -0.1747  0.4702
 4195TIP3    H234221   2.063   1.949   0.095  0.4266 -1.0944  1.0322
 4196TIP3   OH234222   4.742   4.117   7.472  1.0593 -0.5947 -0.0074
 4196TIP3    H134223   4.771   4.033   7.508  0.0225 -1.9403 -2.1464
 4196TIP3    H234224   4.793   4.128   7.392 -1.8062 -1.4467 -2.1201
 4197TIP3   OH234225   4.261   3.707   8.721  0.3894  0.0347 -0.5772
 4197TIP3    H134226   4.184   3.682   8.773  0.4104  0.2637 -0.4349
 4197TIP3    H234227   4.333   3.657   8.758  0.6870  1.2563  0.5500
 4198TIP3   OH234228   0.381   5.085   8.724 -0.0653 -0.2341 -0.3056
 4198TIP3    H134229   0.451   5.103   8.786  0.4956 -0.8597 -0.7485
 4198TIP3    H234230   0.407   5.004   8.680 -2.2087 -1.8535  1.1739
 4199TIP3   OH234231   6.833   6.399   1.534  0.2290 -0.1225  0.1034
 4199TIP3    H134232   6.877   6.328   1.488  0.0558 -0.8594  1.0290
 4199TIP3    H234233   6.832   6.471   1.472 -0.3435 -1.1934 -1.1775
 4200TIP3   OH234234   6.428   1.406   2.071  0.4404 -0.2564  0.4337
 4200TIP3    H134235   6.465   1.479   2.120 -0.3288  0.4857 -0.0563
 4200TIP3    H234236   6.402   1.444   1.987  0.1105 -1.1115  0.1332
 4201TIP3   OH234237   1.294   2.049   7.274 -0.1035 -0.0690 -0.1081
 4201TIP3    H134238   1.296   1.976   7.335 -1.7359 -1.2082 -1.3066
 4201TIP3    H234239   1.351   2.022   7.202  0.5945  0.5781  0.1975
 4202TIP3   OH234240   5.691   3.803   1.340  0.1612 -0.4566  0.7122
 4202TIP3    H134241   5.680   3.724   1.287  0.3739 -0.6275  0.9162
 4202TIP3    H234242   5.608   3.814   1.385 -0.3377  0.2072 -0.3428
 4203TIP3   OH234243   6.727   6.524   8.111 -0.0606  0.3271 -0.0934
 4203TIP3    H134244   6.796   6.567   8.161 -1.1353  2.4873 -0.3245
 4203TIP3    H234245   6.716   6.579   8.034 -0.8701 -0.9488 -0.9227
 4204TIP3   OH234246   1.985   0.882   1.824  0.0051  0.3017 -0.2677
 4204TIP3    H134247   2.022   0.796   1.841  2.4709  0.9863 -1.6426
 4204TIP3    H234248   1.943   0.907   1.906  1.2941 -1.2187  0.9109
 4205TIP3   OH234249   0.660   2.037   7.532  0.4597 -0.0038  0.6387
 4205TIP3    H134250   0.618   1.964   7.578 -0.1994  0.1130  0.2358
 4205TIP3    H234251   0.740   1.999   7.496 -0.7436 -1.0309 -1.0944
 4206TIP3   OH234252   4.451   3.724   8.203  0.2740  0.0386 -0.0521
 4206TIP3    H134253   4.473   3.693   8.291  2.4384  3.3842  0.7777
 4206TIP3    H234254   4.368   3.769   8.213 -0.1942 -0.8040 -0.0718
 4207TIP3   OH234255   2.992   3.761   1.242 -0.7564  0.1291  0.7574
 4207TIP3    H134256   2.953   3.828   1.299 -2.2023  1.0896 -1.2594
 4207TIP3    H234257   3.072   3.801   1.210  0.0273 -0.3877  1.9656
 4208TIP3   OH234258   0.613   5.262   1.520  0.7360  0.5485  0.0457
 4208TIP3    H134259   0.633   5.180   1.564  2.0980  0.5720 -0.4762
 4208TIP3    H234260   0.682   5.322   1.548 -0.2891  1.5641  0.4968
 4209TIP3   OH234261   0.892   6.006   7.416 -0.2143 -0.1087  0.2067
 4209TIP3    H134262   0.876   5.928   7.363  0.8213 -1.4283  1.7209
 4209TIP3    H234263   0.814   6.015   7.471  0.8836 -2.0527  2.2635
 4210TIP3   OH234264   4.566   0.043   0.841  0.8228 -0.0121 -0.5212
 4210TIP3    H134265   4.624   0.024   0.767 -0.0480 -0.1507 -1.1879
 4210TIP3    H234266   4.614   0.107   0.894  1.0000  0.9330 -1.7896
 4211TIP3   OH234267   3.957   1.683   1.363 -0.4886  0.0138  0.1130
 4211TIP3    H134268   3.887   1.634   1.407 -0.4739  1.2541  1.6154
 4211TIP3    H234269   4.021   1.617   1.338 -0.0073 -0.7175  2.9492
 4212TIP3   OH234270   4.618   4.928   8.574 -0.0991  0.2724  0.0984
 4212TIP3    H134271   4.675   4.961   8.643 -0.6125  0.7572  0.3049
 4212TIP3    H234272   4.601   4.837   8.597 -1.2956  0.7768  1.3373
 4213TIP3   OH234273   0.071   0.924   8.548  0.0664  0.4635  0.1841
 4213TIP3    H134274   0.164   0.929   8.568  0.8742  1.0905 -3.1481
 4213TIP3    H234275   0.060   0.838   8.507 -1.5388 -0.8942  3.1271
 4214TIP3   OH234276   5.645   6.626   8.066 -0.4994 -0.5438  0.1869
 4214TIP3    H134277   5.714   6.584   8.119 -0.7099 -1.1964 -0.0535
 4214TIP3    H234278   5.609   6.693   8.124 -2.0149 -2.4819  1.6142
 4215TIP3   OH234279   4.583   5.350   6.740 -0.7159 -0.5347 -0.5665
 4215TIP3    H134280   4.517   5.299   6.787 -2.3218  1.3671 -0.5797
 4215TIP3    H234281   4.537   5.431   6.715  2.7464  3.2354  3.6073
 4216TIP3   OH234282   1.304   6.790   6.785 -0.0376 -0.3114 -0.0424
 4216TIP3    H134283   1.216   6.821   6.808  0.2080  1.5165 -1.3501
 4216TIP3    H234284   1.357   6.809   6.862 -0.5035 -0.1837  0.2506
 4217TIP3   OH234285   1.524   3.613   6.646 -0.5867 -0.7482 -0.6410
 4217TIP3    H134286   1.571   3.645   6.568 -1.4223  0.9067 -0.5083
 4217TIP3    H234287   1.432   3.621   6.623 -0.8337 -0.7135  0.3308
 4218TIP3   OH234288   4.421   3.416   7.576  0.0993 -0.0832  0.2338
 4218TIP3    H134289   4.419   3.359   7.653  0.8022 -1.1344 -0.4946
 4218TIP3    H234290   4.514   3.423   7.554 -0.1385 -0.4931 -1.0020
 4219TIP3   OH234291   6.176   0.015   1.650  0.1314  1.1809 -0.0551
 4219TIP3    H134292   6.236  -0.057   1.671  1.0575  1.5161 -1.3978
 4219TIP3    H234293   6.170   0.065   1.731 -0.2255 -0.1771  0.7872
 4220TIP3   OH234294   4.177   4.497   8.735  0.1034  0.0799 -0.2449
 4220TIP3    H134295   4.084   4.512   8.752  0.1505 -0.6132  0.7388
 4220TIP3    H234296   4.218   4.583   8.744 -0.3887  0.3208 -0.3047
 4221TIP3   OH234297   5.622   3.077   8.182  1.0585  0.0324  0.0760
 4221TIP3    H134298   5.564   3.096   8.108  1.7530 -0.6064 -0.6466
 4221TIP3    H234299   5.704   3.049   8.142  1.2116 -1.0421  1.0798
 4222TIP3   OH234300   4.134   4.082   8.718 -0.2705 -0.2081 -0.0400
 4222TIP3    H134301   4.106   4.132   8.795 -0.9351  1.1142 -1.1197
 4222TIP3    H234302   4.096   4.128   8.643  1.7849 -0.4570 -1.3080
 4223TIP3   OH234303   0.685   4.004   8.167 -0.6214  0.6618 -0.3066
 4223TIP3    H134304   0.628   4.052   8.107 -1.3918  0.1305 -0.0144
 4223TIP3    H234305   0.763   4.059   8.176 -1.8253  2.2770  0.6787
 4224TIP3   OH234306   3.873   5.565   0.710 -0.0749  0.4988  0.2241
 4224TIP3    H134307   3.873   5.647   0.661 -0.8003  0.2402 -0.2284
 4224TIP3    H234308   3.823   5.585   0.790  1.2058  0.9519  0.9458
 4225TIP3   OH234309   4.331   0.473   6.156 -0.0810 -0.3549  0.6092
 4225TIP3    H134310   4.394   0.409   6.187 -0.2891 -1.3532 -0.9387
 4225TIP3    H234311   4.259   0.469   6.219 -1.0862 -3.2706 -0.5730
 4226TIP3   OH234312   3.833   2.726   1.232 -0.0152  0.5438 -0.2252
 4226TIP3    H134313   3.755   2.687   1.192 -1.3811  1.5871  1.2871
 4226TIP3    H234314   3.891   2.744   1.158 -0.6565 -1.3870 -1.2741
 4227TIP3   OH234315   6.555   0.496   7.217 -0.7326 -0.5237 -0.0113
 4227TIP3    H134316   6.584   0.555   7.287 -1.3671  0.7056 -0.7445
 4227TIP3    H234317   6.636   0.466   7.175 -0.3268 -1.5856  1.4553
 4228TIP3   OH234318   2.950   5.514   7.229 -0.2040 -0.0106  0.2190
 4228TIP3    H134319   2.872   5.490   7.279 -0.1885  0.8730  0.6849
 4228TIP3    H234320   2.990   5.430   7.205 -0.0821 -0.4740  1.8995
 4229TIP3   OH234321   6.769   3.320   7.392 -0.1906  0.0601 -0.5305
 4229TIP3    H134322   6.713   3.351   7.462 -0.5973 -1.3769 -0.1932
 4229TIP3    H234323   6.857   3.316   7.431  0.0105  1.4059 -0.7877
 4230TIP3   OH234324   5.025   1.612   6.864  0.2259 -0.2146  0.4234
 4230TIP3    H134325   4.957   1.659   6.912 -0.4175 -2.3990  1.7725
 4230TIP3    H234326   4.979   1.568   6.793  0.4537 -0.4717  0.4314
 4231TIP3   OH234327   3.824   2.389   1.423  0.6878 -0.1429  0.1796
 4231TIP3    H134328   3.743   2.433   1.449  0.6788 -0.1604  0.1816
 4231TIP3    H234329   3.795   2.306   1.386  0.6367  0.2841 -0.7740
 4232TIP3   OH234330   5.528   3.421   7.186 -0.7475  0.4268  0.0221
 4232TIP3    H134331   5.561   3.416   7.276 -0.9101  0.6548  0.0947
 4232TIP3    H234332   5.583   3.486   7.144 -1.2014  0.9247  0.1871
 4233TIP3   OH234333   1.482   6.530   0.891 -0.4177  0.1766  0.0455
 4233TIP3    H134334   1.523   6.609   0.855  2.8224 -1.2210  0.3862
 4233TIP3    H234335   1.468   6.550   0.984 -1.2874  0.9250 -0.2298
 4234TIP3   OH234336   4.428   3.228   1.528 -0.1826 -0.2704  0.2873
 4234TIP3    H134337   4.352   3.262   1.575 -0.5157 -0.2757 -0.2315
 4234TIP3    H234338   4.425   3.273   1.443  0.2820 -0.4177  0.1913
 4235TIP3   OH234339   2.873   0.725   8.321  0.4633 -0.0150 -0.0862
 4235TIP3    H134340   2.949   0.775   8.352  1.3064 -1.0547 -0.4117
 4235TIP3    H234341   2.862   0.751   8.230  1.4457 -1.0390 -0.5149
 4236TIP3   OH234342   5.674   1.280   1.396  0.2099  0.7269 -0.2539
 4236TIP3    H134343   5.670   1.347   1.327  0.1096  0.6021 -0.3718
 4236TIP3    H234344   5.597   1.225   1.380  0.5766  0.2691 -0.4819
 4237TIP3   OH234345   2.421   2.242   0.108 -0.1969 -0.4739  0.1126
 4237TIP3    H134346   2.456   2.263   0.195  0.9906 -1.7645 -0.0245
 4237TIP3    H234347   2.495   2.253   0.049 -1.3352  1.7555 -0.9967
 4238TIP3   OH234348   6.476   2.004   1.102  0.1877 -0.5208 -0.4960
 4238TIP3    H134349   6.490   1.909   1.103 -1.1716 -0.7615 -1.6525
 4238TIP3    H234350   6.381   2.014   1.105  0.3180  0.8322 -0.1475
 4239TIP3   OH234351   0.543   1.479   0.671  0.7570 -0.3262 -0.0497
 4239TIP3    H134352   0.452   1.462   0.695  0.5341 -1.1847 -1.4279
 4239TIP3    H234353   0.574   1.396   0.633  1.7368  0.3250 -0.7229
 4240TIP3   OH234354   5.689   1.295   8.012  0.0639 -0.4536  0.5711
 4240TIP3    H134355   5.692   1.284   8.107 -1.5092 -1.4801  0.5247
 4240TIP3    H234356   5.617   1.356   7.998  0.7696  0.2815  0.0587
 4241TIP3   OH234357   5.743   1.067   0.227  0.2984  0.0812 -0.5878
 4241TIP3    H134358   5.701   1.005   0.167  0.5935 -0.1384 -0.5700
 4241TIP3    H234359   5.671   1.098   0.282 -0.0636  0.6351 -1.3423
 4242TIP3   OH234360   6.646   3.055   7.786 -0.0829  0.2692  0.4504
 4242TIP3    H134361   6.690   3.001   7.720 -1.2257  0.6214 -0.6288
 4242TIP3    H234362   6.715   3.076   7.849  0.5902 -1.6704  0.4181
 4243TIP3   OH234363   1.797   1.699   8.088 -0.3357  0.1453 -0.0764
 4243TIP3    H134364   1.834   1.622   8.043 -1.4630 -0.6258  0.2809
 4243TIP3    H234365   1.771   1.758   8.017  2.0910  1.0071 -0.3424
 4244TIP3   OH234366   0.356   2.928   7.370  0.2843 -0.3316  0.3903
 4244TIP3    H134367   0.394   2.842   7.386 -0.6286 -0.8440 -0.1006
 4244TIP3    H234368   0.262   2.912   7.366  0.1800  0.4650 -1.0659
 4245TIP3   OH234369   5.985   3.232   0.479  0.5440  0.0834 -0.0531
 4245TIP3    H134370   6.018   3.216   0.391 -1.5893 -3.2087 -0.4324
 4245TIP3    H234371   6.014   3.157   0.531 -2.0835 -0.4866  0.7621
 4246TIP3   OH234372   6.667   6.579   7.798 -0.5278  0.1936  0.0257
 4246TIP3    H134373   6.759   6.603   7.806 -0.2779 -0.5424 -0.5004
 4246TIP3    H234374   6.631   6.643   7.737 -0.0997 -0.1331 -0.5952
 4247TIP3   OH234375   3.555   1.765   7.600 -0.1012 -0.0652  0.6391
 4247TIP3    H134376   3.523   1.702   7.535 -0.4184  0.3762  0.3654
 4247TIP3    H234377   3.582   1.710   7.674  1.7019 -0.7021 -0.4371
 4248TIP3   OH234378   4.766   5.033   8.794  0.4224 -0.0852 -0.2618
 4248TIP3    H134379   4.815   4.960   8.831 -0.1879 -0.6420 -0.5491
 4248TIP3    H234380   4.755   5.094   8.868 -0.1825 -0.8663  0.3034
 4249TIP3   OH234381   1.796   2.315   7.941 -0.1014 -0.0417  0.3542
 4249TIP3    H134382   1.736   2.372   7.892 -1.7858 -2.0180 -0.0066
 4249TIP3    H234383   1.748   2.293   8.020  0.4330 -1.1236  0.3893
 4250TIP3   OH234384   3.256   6.048   7.332  0.1991  0.2201  0.0011
 4250TIP3    H134385   3.227   6.029   7.243  0.7005  0.9708 -0.3311
 4250TIP3    H234386   3.207   6.126   7.357 -1.0725 -0.8225  0.9699
 4251TIP3   OH234387   2.842   0.074   6.975 -0.3443 -0.0632 -0.2327
 4251TIP3    H134388   2.762   0.100   7.020  0.4721  0.0419  1.1966
 4251TIP3    H234389   2.812   0.016   6.905 -1.7807  1.1410 -0.6523
 4252TIP3   OH234390   5.868   6.073   0.078 -0.0951 -0.2294  0.3988
 4252TIP3    H134391   5.950   6.054   0.033 -0.5996 -0.8457 -0.2730
 4252TIP3    H234392   5.826   6.141   0.025 -0.4867 -0.6427  0.1728
 4253TIP3   OH234393   0.693   5.742   0.966  0.3443  0.1239 -0.3639
 4253TIP3    H134394   0.784   5.756   0.940  1.1733 -1.5955  1.3504
 4253TIP3    H234395   0.684   5.791   1.048 -0.1418 -0.0975 -0.2826
 4254TIP3   OH234396   4.034   3.513   6.826  0.2842 -0.4788 -0.1284
 4254TIP3    H134397   4.020   3.436   6.771  1.5016 -0.3682 -0.6156
 4254TIP3    H234398   4.077   3.576   6.768  2.7851 -0.8168  1.2373
 4255TIP3   OH234399   1.198   1.265   0.052  0.4073 -0.1144 -0.2526
 4255TIP3    H134400   1.243   1.241   0.133  0.8941  1.3790 -0.0526
 4255TIP3    H234401   1.267   1.298  -0.005 -0.3260  1.7344 -0.1267
 4256TIP3   OH234402   4.959   0.830   0.990 -0.2783 -0.3630 -0.4892
 4256TIP3    H134403   5.033   0.781   1.025  0.1231  0.9910  0.6368
 4256TIP3    H234404   4.900   0.842   1.064 -0.4691  0.6385 -0.7813
 4257TIP3   OH234405   4.507   0.053   8.371 -0.1091 -0.1123 -0.0634
 4257TIP3    H134406   4.466  -0.001   8.303 -2.9084  1.4465  0.2261
 4257TIP3    H234407   4.565   0.112   8.324 -1.4820  0.4769 -1.0845
 4258TIP3   OH234408   6.485   3.575   0.895 -0.0019  0.6449  0.8244
 4258TIP3    H134409   6.421   3.535   0.836  1.3894 -0.4996  0.0616
 4258TIP3    H234410   6.479   3.669   0.876 -0.2172  0.3838 -0.4841
 4259TIP3   OH234411   6.351   1.080   7.269 -0.0248 -0.1261  0.3162
 4259TIP3    H134412   6.301   1.162   7.264 -0.0811 -0.1751  0.0135
 4259TIP3    H234413   6.344   1.043   7.181 -1.4200 -1.2840  0.8740
 4260TIP3   OH234414   3.068   5.045   0.755  0.0917  0.0536 -0.6431
 4260TIP3    H134415   3.021   5.079   0.678  3.1503 -1.5242 -3.4462
 4260TIP3    H234416   3.159   5.042   0.728  0.9706 -3.2888  2.0573
 4261TIP3   OH234417   1.580   6.769   6.110  0.8033 -0.7110  0.2648
 4261TIP3    H134418   1.591   6.706   6.180 -1.1732 -0.1193  1.1706
 4261TIP3    H234419   1.644   6.838   6.130  2.6970 -2.1396 -0.5189
 4262TIP3   OH234420   1.334   3.677   7.283 -0.1551 -0.1224  0.3916
 4262TIP3    H134421   1.361   3.592   7.248  2.6340  0.8842 -0.1995
 4262TIP3    H234422   1.385   3.741   7.233 -2.9865  2.0616 -0.0125
 4263TIP3   OH234423   6.226   5.687   8.433  0.2626  0.1446 -0.4124
 4263TIP3    H134424   6.293   5.619   8.433 -0.3179 -0.6927  3.5851
 4263TIP3    H234425   6.143   5.640   8.443 -0.1378  1.2477  2.6457
 4264TIP3   OH234426   4.443   3.773   1.029  0.3223  0.3285  0.4487
 4264TIP3    H134427   4.366   3.796   1.081  0.6957  0.3197  1.0080
 4264TIP3    H234428   4.490   3.855   1.019  1.2302 -0.0013  1.7508
 4265TIP3   OH234429   1.583   3.389   6.818 -0.0353 -0.0083 -0.0426
 4265TIP3    H134430   1.596   3.316   6.758  0.6477  1.4824 -1.8149
 4265TIP3    H234431   1.598   3.467   6.764 -1.4328  1.4725  1.5793
 4266TIP3   OH234432   6.409   3.200   0.448  0.3060 -0.1608  0.0936
 4266TIP3    H134433   6.461   3.266   0.404 -1.3405  2.8105  2.2579
 4266TIP3    H234434   6.324   3.203   0.404  0.1209 -0.6360  0.4061
 4267TIP3   OH234435   2.250   3.299   7.548  0.6864  0.3275 -0.1608
 4267TIP3    H134436   2.226   3.349   7.625 -0.2910  0.4961 -0.5550
 4267TIP3    H234437   2.334   3.335   7.520  2.3780 -1.4219  2.2554
 4268TIP3   OH234438   5.993   1.272   8.126  0.0930 -0.1634 -0.1559
 4268TIP3    H134439   5.994   1.334   8.053 -1.5570  1.1936  0.8994
 4268TIP3    H234440   6.063   1.210   8.106  1.9947  2.1638 -1.1374
 4269TIP3   OH234441   5.834   1.201   2.179  0.5701 -0.2937  0.3489
 4269TIP3    H134442   5.749   1.223   2.218 -0.3059 -2.3751 -0.2250
 4269TIP3    H234443   5.896   1.210   2.251  0.1381  2.5125  0.4832
 4270TIP3   OH234444   0.963   0.575   0.946  0.5340 -0.2632 -0.3179
 4270TIP3    H134445   1.027   0.552   1.013  0.9375  0.3694 -0.4773
 4270TIP3    H234446   0.995   0.534   0.866 -0.2434 -1.4936 -0.0315
 4271TIP3   OH234447   5.510   1.235   1.733  0.0951  0.3455  0.5347
 4271TIP3    H134448   5.450   1.309   1.735  0.9997  1.1410 -0.3834
 4271TIP3    H234449   5.571   1.252   1.806  0.5739  0.7677  0.0491
 4272TIP3   OH234450   3.583   3.865   8.030  0.1569  0.6118  0.2200
 4272TIP3    H134451   3.543   3.918   7.960 -1.6355 -0.8790  0.0150
 4272TIP3    H234452   3.520   3.869   8.102  1.1570  0.7021  1.1172
 4273TIP3   OH234453   6.031   0.289   8.003  0.7784  0.5946 -0.0646
 4273TIP3    H134454   6.045   0.208   7.953  0.8285  1.2207 -1.0961
 4273TIP3    H234455   5.974   0.263   8.075  1.4785 -0.5346  0.1209
 4274TIP3   OH234456   3.585   2.445   0.416  0.4054  0.1616 -0.2790
 4274TIP3    H134457   3.506   2.452   0.362 -1.2389  0.2947  1.9946
 4274TIP3    H234458   3.592   2.530   0.460  0.6493 -0.4932  1.0148
 4275TIP3   OH234459   5.774   5.207   1.640  0.3039 -0.3466 -0.7062
 4275TIP3    H134460   5.748   5.125   1.599 -0.0410 -1.1659  1.0559
 4275TIP3    H234461   5.866   5.195   1.663 -0.7539 -2.2561  3.7280
 4276TIP3   OH234462   4.540   0.998   1.101  0.2123  0.8730 -0.3344
 4276TIP3    H134463   4.493   1.047   1.168 -1.2698  0.5496 -1.1007
 4276TIP3    H234464   4.552   1.062   1.029 -0.3889  0.5501 -0.7301
 4277TIP3   OH234465   0.887   6.263   6.993 -0.0314  0.3373  0.0586
 4277TIP3    H134466   0.913   6.235   7.081 -0.2639  0.3741  0.1397
 4277TIP3    H234467   0.969   6.280   6.948  0.1973 -1.7693 -0.4346
 4278TIP3   OH234468   4.680   3.803   2.125  0.5927 -0.1104 -0.6947
 4278TIP3    H134469   4.599   3.781   2.078 -0.6400 -0.1483  1.3418
 4278TIP3    H234470   4.718   3.875   2.074 -0.0970 -0.8540 -2.3376
 4279TIP3   OH234471   2.941   1.023   1.554  0.0481 -0.2156 -0.0544
 4279TIP3    H134472   2.848   1.006   1.568  0.0798  0.1987  0.7445
 4279TIP3    H234473   2.943   1.089   1.485 -0.3198  0.6165  0.7037
 4280TIP3   OH234474   2.890   1.954   7.811  0.1769  0.1825 -0.8808
 4280TIP3    H134475   2.897   1.882   7.749 -0.2888 -0.7863  0.1534
 4280TIP3    H234476   2.867   2.030   7.758 -0.8242 -0.7548 -1.8225
 4281TIP3   OH234477   3.044   6.365   8.558 -0.2100  0.1502  0.0743
 4281TIP3    H134478   3.017   6.299   8.495 -1.0298 -1.2966  1.8557
 4281TIP3    H234479   3.008   6.335   8.641  0.7262  2.0461  1.2314
 4282TIP3   OH234480   0.425   2.606   2.151  0.0274  1.1171 -0.4475
 4282TIP3    H134481   0.330   2.605   2.137 -0.4079  0.4663  1.9660
 4282TIP3    H234482   0.453   2.516   2.134  0.3305  1.4284 -1.6687
 4283TIP3   OH234483   3.558   0.766   8.117  0.1056 -0.3496  0.2931
 4283TIP3    H134484   3.518   0.851   8.135 -0.3461 -0.0199 -2.0061
 4283TIP3    H234485   3.485   0.706   8.112  0.2398 -0.4877 -0.0532
 4284TIP3   OH234486   2.975   6.763   0.499  0.0320  0.3678 -0.5817
 4284TIP3    H134487   2.985   6.685   0.553 -0.8717 -0.4394 -1.5485
 4284TIP3    H234488   3.063   6.780   0.464 -0.1425 -1.4982 -2.0639
 4285TIP3   OH234489   5.795   3.282   1.763 -0.2448 -0.3667 -0.0863
 4285TIP3    H134490   5.703   3.308   1.755  0.0324  0.8592  0.3674
 4285TIP3    H234491   5.841   3.365   1.774  0.9124 -0.9768 -0.2586
 4286TIP3   OH234492   5.480   3.311   8.709 -0.4738 -0.4870  0.2628
 4286TIP3    H134493   5.540   3.255   8.660  0.6617  1.2867 -0.4967
 4286TIP3    H234494   5.520   3.398   8.706 -2.9916  0.7760 -0.1383
 4287TIP3   OH234495   5.180   6.320   7.423  0.5165  0.2274 -0.1887
 4287TIP3    H134496   5.146   6.250   7.368 -0.2365  2.2604 -2.4878
 4287TIP3    H234497   5.122   6.394   7.406  0.5596  1.1490  3.0173
 4288TIP3   OH234498   2.619   0.965   0.944  0.3102  0.0584 -0.2894
 4288TIP3    H134499   2.580   0.980   1.029  1.1290  1.3296 -0.1169
 4288TIP3    H234500   2.664   0.880   0.953  1.2833  0.6696  0.9008
 4289TIP3   OH234501   0.419   4.391   1.790  0.1265  0.3407  0.0597
 4289TIP3    H134502   0.376   4.332   1.727  0.4730 -0.9081  0.9506
 4289TIP3    H234503   0.351   4.412   1.853  0.1160  0.5544 -0.0228
 4290TIP3   OH234504   4.397   4.747   7.951 -0.4926  0.3362 -0.0536
 4290TIP3    H134505   4.331   4.804   7.910 -1.4659 -1.6052 -1.3484
 4290TIP3    H234506   4.345   4.685   8.004  0.1823 -1.5417 -1.4851
 4291TIP3   OH234507   5.537   0.349   1.494  0.3144  0.1665  0.0496
 4291TIP3    H134508   5.633   0.340   1.496  0.2342 -1.6020 -0.9695
 4291TIP3    H234509   5.506   0.260   1.476 -1.5566  0.6280  0.8034
 4292TIP3   OH234510   5.959   6.459   0.356 -0.3077  0.4724  0.1201
 4292TIP3    H134511   5.985   6.405   0.282 -0.2039 -0.6149  0.9286
 4292TIP3    H234512   6.017   6.536   0.351  0.2585  0.0172 -0.4370
 4293TIP3   OH234513   6.304   0.467   6.860 -0.2515  0.0432 -0.2502
 4293TIP3    H134514   6.314   0.379   6.824  0.9250 -0.4794  1.2700
 4293TIP3    H234515   6.232   0.459   6.922 -0.7431  0.3882 -0.7669
 4294TIP3   OH234516   6.548   1.086   1.977 -0.7131 -0.7091  0.0454
 4294TIP3    H134517   6.582   1.176   1.981  0.0935 -1.0363  0.9823
 4294TIP3    H234518   6.619   1.036   1.936 -0.0753 -1.3687  1.8583
 4295TIP3   OH234519   4.354   6.376   7.040  0.2583  0.3023  0.0635
 4295TIP3    H134520   4.310   6.292   7.028  1.1600 -0.0837 -0.6878
 4295TIP3    H234521   4.329   6.428   6.964  2.7804 -0.7094 -1.5833
 4296TIP3   OH234522   4.056   0.731   0.572  0.4447 -0.2363 -0.1155
 4296TIP3    H134523   4.047   0.659   0.510  0.8980  0.8818 -1.5199
 4296TIP3    H234524   3.966   0.762   0.584  0.4712  0.2701 -1.1254
 4297TIP3   OH234525   4.575   3.067   0.226 -0.3378  0.1812 -0.1674
 4297TIP3    H134526   4.570   2.974   0.248  0.4408 -0.2242 -1.5814
 4297TIP3    H234527   4.487   3.088   0.193 -0.6274  0.0536  0.5125
 4298TIP3   OH234528   5.816   5.134   7.811 -0.1158 -0.4837  0.2243
 4298TIP3    H134529   5.745   5.169   7.866  0.0891 -0.3428  0.3995
 4298TIP3    H234530   5.773   5.070   7.755 -0.4199 -0.2548  0.1922
 4299TIP3   OH234531   4.570   5.461   1.278 -0.0071 -0.2657  0.0842
 4299TIP3    H134532   4.605   5.525   1.217 -1.3264 -1.4999 -2.1033
 4299TIP3    H234533   4.530   5.513   1.348  1.2103  1.1973 -0.2482
 4300TIP3   OH234534   0.300   5.727   8.552  0.8183 -0.2555  0.4842
 4300TIP3    H134535   0.363   5.765   8.490 -1.1041  1.3915 -0.6033
 4300TIP3    H234536   0.270   5.647   8.510 -0.2820  0.7206 -0.6765
 4301TIP3   OH234537   4.662   1.989   0.425 -1.0720  0.0744 -0.0486
 4301TIP3    H134538   4.580   2.025   0.458 -0.3804  0.2311  1.5783
 4301TIP3    H234539   4.676   1.910   0.478 -0.6597 -0.4940 -0.9883
 4302TIP3   OH234540   6.085   5.830   7.658  0.0692  0.4620  0.0503
 4302TIP3    H134541   6.167   5.876   7.677  0.1301  1.0042 -1.4052
 4302TIP3    H234542   6.021   5.899   7.641 -0.7630  0.0447  1.3859
 4303TIP3   OH234543   4.601   3.550   7.979  0.7476 -0.7080  0.4329
 4303TIP3    H134544   4.674   3.512   8.028  1.7860  1.4409  0.6499
 4303TIP3    H234545   4.550   3.597   8.044  1.3412  0.9639 -0.2402
 4304TIP3   OH234546   3.157   1.294   8.444 -0.3046  0.7543  0.4951
 4304TIP3    H134547   3.208   1.222   8.406  0.3720  0.0966  2.5218
 4304TIP3    H234548   3.068   1.279   8.414 -0.0593 -0.5665  0.3716
 4305TIP3   OH234549   2.739   6.129   7.690 -0.3518  0.1487 -0.2959
 4305TIP3    H134550   2.666   6.107   7.749  0.1291  0.8671  0.5967
 4305TIP3    H234551   2.729   6.068   7.617 -3.0637  1.5642 -1.2534
 4306TIP3   OH234552   0.122   0.845   2.055  1.1219  0.0980  0.3503
 4306TIP3    H134553   0.165   0.930   2.065  1.3889 -0.0135  0.1758
 4306TIP3    H234554   0.041   0.853   2.105  0.6641  0.7937 -0.4762
 4307TIP3   OH234555   4.097   3.307   0.570 -0.0574 -0.0763 -0.2982
 4307TIP3    H134556   4.059   3.343   0.490 -0.4450 -0.0198 -0.0911
 4307TIP3    H234557   4.186   3.282   0.545  0.6081  1.9977 -0.1854
 4308TIP3   OH234558   1.892   5.019   2.512  0.1703 -0.1549 -0.2851
 4308TIP3    H134559   1.876   5.057   2.426 -1.2083  0.9994  0.4204
 4308TIP3    H234560   1.985   4.996   2.512  0.7048  1.7927 -1.3534
 4309TIP3   OH234561   6.843   2.554   1.497  0.3956 -0.1507  0.4216
 4309TIP3    H134562   6.777   2.569   1.565 -0.6212 -1.2385 -0.2913
 4309TIP3    H234563   6.799   2.499   1.432  2.0893 -1.1648  0.0583
 4310TIP3   OH234564   0.504   1.852   7.648 -0.0803  0.2203 -0.5265
 4310TIP3    H134565   0.523   1.803   7.729 -0.0254  1.2408  0.1008
 4310TIP3    H234566   0.421   1.896   7.666  1.3195  2.7589  0.1178
 4311TIP3   OH234567   1.123   6.437   0.058 -0.0899  0.0166 -0.1523
 4311TIP3    H134568   1.139   6.509  -0.003 -1.9018  1.0334  0.4862
 4311TIP3    H234569   1.113   6.479   0.143  3.8200 -1.4890  1.2649
 4312TIP3   OH234570   6.293   3.089   0.022 -0.3589  0.6511  0.3160
 4312TIP3    H134571   6.216   3.075   0.077 -0.6280 -2.3042 -0.6490
 4312TIP3    H234572   6.262   3.143  -0.051 -1.4633 -0.2313  0.1133
 4313TIP3   OH234573   1.781   0.568   1.133  0.1246  0.2045  0.3727
 4313TIP3    H134574   1.848   0.547   1.198  1.0162 -0.3936 -0.7127
 4313TIP3    H234575   1.731   0.487   1.124  0.4694  0.0573 -0.2254
 4314TIP3   OH234576   1.538   5.932   2.141  0.0491  0.3617  0.2844
 4314TIP3    H134577   1.512   5.889   2.222 -2.2515  1.2519  0.0832
 4314TIP3    H234578   1.461   5.983   2.115  0.3507 -0.6155 -2.9524
 4315TIP3   OH234579   4.952   0.469   2.977  0.0244 -0.2908  0.1850
 4315TIP3    H134580   5.000   0.498   2.899  0.6764 -0.2862  0.5814
 4315TIP3    H234581   4.896   0.398   2.945 -0.3039  0.2325 -0.4425
 4316TIP3   OH234582   4.904   0.195   8.098  0.3037  1.2593  0.3076
 4316TIP3    H134583   4.995   0.179   8.122  0.4164 -0.0752 -0.8343
 4316TIP3    H234584   4.908   0.264   8.032  0.7688 -0.3661 -1.4520
 4317TIP3   OH234585   6.840   4.198   0.530 -0.3312  0.1888  0.2339
 4317TIP3    H134586   6.821   4.268   0.467 -0.0684  0.2766  0.2506
 4317TIP3    H234587   6.866   4.243   0.610 -3.3037  0.1747  1.3463
 4318TIP3   OH234588   5.023   4.603   1.839  0.5223  0.6447 -0.0481
 4318TIP3    H134589   5.047   4.544   1.767 -1.0637 -0.7945  0.5249
 4318TIP3    H234590   4.969   4.549   1.897 -0.2375  2.4369  0.9931
 4319TIP3   OH234591   5.768   0.829   6.841  0.1217 -0.0430 -0.1499
 4319TIP3    H134592   5.709   0.773   6.790  3.1349 -1.0862 -2.8177
 4319TIP3    H234593   5.773   0.911   6.791 -0.4266  0.7527  1.0546
 4320TIP3   OH234594   4.759   6.470   7.447 -0.3258  0.1041 -0.0244
 4320TIP3    H134595   4.672   6.439   7.421 -0.4116 -0.1427  0.5315
 4320TIP3    H234596   4.741   6.547   7.501 -0.2512 -0.4390  0.7947
 4321TIP3   OH234597   5.041   6.110   6.857  0.0043 -0.1660 -0.2628
 4321TIP3    H134598   5.101   6.153   6.796 -0.2516 -0.0258 -0.4171
 4321TIP3    H234599   4.958   6.103   6.808  0.3327 -1.8196 -0.6642
 4322TIP3   OH234600   1.405   3.904   8.005  0.7094  0.0286 -0.2893
 4322TIP3    H134601   1.318   3.877   8.034  1.2048 -1.5225 -0.1445
 4322TIP3    H234602   1.402   4.000   8.003 -0.9625 -0.0077 -0.2187
 4323TIP3   OH234603   2.232   3.916   6.947  0.4989 -0.3002  0.4009
 4323TIP3    H134604   2.139   3.897   6.942  0.6574 -1.4343  1.3154
 4323TIP3    H234605   2.266   3.853   7.010  1.6597  0.9572  1.0879
 4324TIP3   OH234606   6.159   5.717   6.986  0.2333  1.0655  0.1702
 4324TIP3    H134607   6.155   5.788   6.921  0.2337  0.4558 -0.5132
 4324TIP3    H234608   6.067   5.697   7.005  0.2078  0.4601 -0.5358
 4325TIP3   OH234609   5.081   1.743   8.481  0.0037 -0.6661  0.7926
 4325TIP3    H134610   5.047   1.813   8.426 -0.3950 -0.4814  1.2725
 4325TIP3    H234611   5.173   1.734   8.454 -0.3103 -0.9106 -0.2392
 4326TIP3   OH234612   3.097   3.288   1.158  0.0592  0.1667  0.0433
 4326TIP3    H134613   3.173   3.243   1.195  0.3663  1.3989  0.9668
 4326TIP3    H234614   3.052   3.326   1.233 -0.7968  0.4873 -0.6160
 4327TIP3   OH234615   6.436   0.521   2.000 -0.8130 -0.6475 -0.5001
 4327TIP3    H134616   6.346   0.524   2.032 -1.7540  2.5357 -2.8903
 4327TIP3    H234617   6.442   0.440   1.951 -2.4909 -0.7889 -0.5234
 4328TIP3   OH234618   0.115   1.168   7.168  0.2134  0.5131  0.6501
 4328TIP3    H134619   0.147   1.203   7.085  0.1644 -1.0649 -0.0681
 4328TIP3    H234620   0.022   1.193   7.170 -0.5927 -1.9374 -1.2450
 4329TIP3   OH234621   4.231   0.383   2.064  0.0864 -0.0395 -0.7465
 4329TIP3    H134622   4.195   0.325   2.131 -0.8072  0.8675 -0.4151
 4329TIP3    H234623   4.285   0.446   2.112  3.4381 -2.2231 -1.3530
 4330TIP3   OH234624   2.821   1.513   6.622 -0.1520 -0.9671  0.3393
 4330TIP3    H134625   2.837   1.439   6.563 -3.3554  0.1987 -2.3111
 4330TIP3    H234626   2.736   1.494   6.661 -1.1166  1.2733 -0.5119
 4331TIP3   OH234627   3.027   6.665   7.498 -1.1543 -0.7166  0.0172
 4331TIP3    H134628   3.090   6.708   7.440 -0.3653  0.2688  1.5247
 4331TIP3    H234629   2.946   6.662   7.448 -0.0597 -1.5283 -1.7842
 4332TIP3   OH234630   0.114   6.090   7.760  0.0966 -0.2922 -0.1770
 4332TIP3    H134631   0.047   6.142   7.715  1.4879  0.8786 -1.0189
 4332TIP3    H234632   0.195   6.140   7.746  1.3324 -2.2165 -0.1637
 4333TIP3   OH234633   2.822   2.493   6.193 -0.2353  0.4610  0.0301
 4333TIP3    H134634   2.752   2.482   6.128 -1.3230 -1.4321  1.3961
 4333TIP3    H234635   2.866   2.409   6.195  0.5388  0.8689  0.8999
 4334TIP3   OH234636   1.669   4.472   1.544 -0.8795  0.3053  0.6049
 4334TIP3    H134637   1.621   4.426   1.613  0.5863 -2.4711 -0.0616
 4334TIP3    H234638   1.757   4.483   1.581 -0.8455  1.3494  0.2136
 4335TIP3   OH234639   1.807   6.720   7.906  0.1691 -0.2874  0.3467
 4335TIP3    H134640   1.791   6.704   7.999  2.4853  2.2131  1.3081
 4335TIP3    H234641   1.787   6.813   7.895 -0.6406 -0.6754 -1.8352
 4336TIP3   OH234642   1.448   1.362   8.758  0.4352  0.4719 -0.7093
 4336TIP3    H134643   1.481   1.413   8.832  0.5377  0.9001 -1.0466
 4336TIP3    H234644   1.502   1.389   8.684 -0.2503  0.7062 -1.1287
 4337TIP3   OH234645   4.325   6.661   6.062 -0.3137 -0.1512 -0.1797
 4337TIP3    H134646   4.269   6.630   5.992  0.4399  0.4621 -1.0876
 4337TIP3    H234647   4.327   6.756   6.050 -0.1746 -0.0405  0.6742
 4338TIP3   OH234648   6.539   3.173   8.541  0.1221 -0.2172 -0.2978
 4338TIP3    H134649   6.470   3.219   8.587 -0.4826 -0.8311 -0.5814
 4338TIP3    H234650   6.549   3.221   8.459 -0.1977 -0.3224 -0.3996
 4339TIP3   OH234651   5.563   5.964   2.230 -0.2790 -0.1497 -0.3445
 4339TIP3    H134652   5.547   5.975   2.324 -1.1502 -2.8240 -0.0748
 4339TIP3    H234653   5.477   5.938   2.195  0.0784  0.6313 -1.8615
 4340TIP3   OH234654   4.300   0.529   6.546  0.3793 -0.3810 -0.1291
 4340TIP3    H134655   4.233   0.503   6.482  0.9094 -0.8245 -0.5131
 4340TIP3    H234656   4.366   0.574   6.494  2.3682 -3.4597 -0.4778
 4341TIP3   OH234657   5.278   2.600   8.478 -0.0852 -0.1801  0.0398
 4341TIP3    H134658   5.237   2.572   8.396 -2.6426  0.5191  1.0066
 4341TIP3    H234659   5.304   2.691   8.462  1.3773 -0.6686 -0.6192
 4342TIP3   OH234660   0.723   0.540   0.579 -0.3185 -0.2562 -0.0238
 4342TIP3    H134661   0.716   0.454   0.539 -0.3696 -0.3042  0.0885
 4342TIP3    H234662   0.747   0.523   0.670 -0.5504 -0.1614  0.0567
 4343TIP3   OH234663   3.730   4.404   7.227  0.4330 -0.4225  0.3915
 4343TIP3    H134664   3.775   4.321   7.214  0.6846 -0.0476 -1.3907
 4343TIP3    H234665   3.638   4.381   7.238  0.1623 -0.8617 -2.2822
 4344TIP3   OH234666   1.544   2.256   6.386  0.4497  0.1575 -0.4126
 4344TIP3    H134667   1.605   2.225   6.319 -0.2093 -1.1321 -0.4406
 4344TIP3    H234668   1.592   2.246   6.469  0.3158 -0.7481 -0.4433
 4345TIP3   OH234669   2.262   2.054   7.168  0.4232 -0.3355  0.3033
 4345TIP3    H134670   2.245   2.127   7.228 -2.7192 -1.8379  1.4237
 4345TIP3    H234671   2.291   1.982   7.224  0.5374 -0.8519 -0.4042
 4346TIP3   OH234672   5.526   6.303   2.216  0.4503 -0.1735 -0.5667
 4346TIP3    H134673   5.558   6.213   2.215  0.9016 -0.0150 -1.1794
 4346TIP3    H234674   5.434   6.296   2.241 -0.6862 -1.2110 -4.3918
 4347TIP3   OH234675   5.108   1.448   8.372 -0.0374 -0.3234 -0.3022
 4347TIP3    H134676   5.089   1.401   8.453 -1.0984  0.7222  0.0866
 4347TIP3    H234677   5.035   1.426   8.313  0.2582 -0.3711 -0.6571
 4348TIP3   OH234678   1.190   6.246   1.559  0.0680 -0.4104 -0.2559
 4348TIP3    H134679   1.166   6.252   1.651 -0.7983 -3.0204 -0.2259
 4348TIP3    H234680   1.285   6.239   1.559  0.0415 -0.8489  0.4966
 4349TIP3   OH234681   5.646   3.101   0.660  0.2955  0.2158  0.6574
 4349TIP3    H134682   5.688   3.015   0.661  1.3144  0.6875  0.3118
 4349TIP3    H234683   5.563   3.088   0.704  0.0895 -1.1225 -0.0723
 4350TIP3   OH234684   1.115   6.503   7.659 -0.0629  0.5478 -0.2994
 4350TIP3    H134685   1.066   6.451   7.722 -3.0430  1.8867 -1.3559
 4350TIP3    H234686   1.078   6.591   7.666  2.3335  1.7236 -1.1111
 4351TIP3   OH234687   6.259   4.736   7.591  0.4092 -0.5201  0.2423
 4351TIP3    H134688   6.266   4.801   7.521  1.1655 -0.0536  0.7373
 4351TIP3    H234689   6.231   4.786   7.667 -1.0690 -1.1381  0.1261
 4352TIP3   OH234690   5.141   2.507   8.235  0.2320 -0.2990 -0.2547
 4352TIP3    H134691   5.180   2.484   8.151 -0.2965 -0.3756 -0.4861
 4352TIP3    H234692   5.143   2.425   8.285 -2.1090 -1.0652 -1.2597
 4353TIP3   OH234693   1.233   5.204   0.881  0.7930 -0.0206 -0.2809
 4353TIP3    H134694   1.243   5.154   0.800 -3.1129  0.0883 -0.9870
 4353TIP3    H234695   1.249   5.140   0.951 -0.3438 -1.3083 -1.1674
 4354TIP3   OH234696   6.576   6.285   8.055 -0.5418  0.1962 -0.0810
 4354TIP3    H134697   6.618   6.363   8.090 -0.0965 -0.2878  0.4682
 4354TIP3    H234698   6.490   6.284   8.097  0.0434 -0.4629  1.1420
 4355TIP3   OH234699   5.572   5.785   1.798 -0.2509  0.1005  0.3471
 4355TIP3    H134700   5.581   5.782   1.894 -0.1243 -1.7724  0.3118
 4355TIP3    H234701   5.488   5.827   1.783 -0.0197  0.9309  1.2498
 4356TIP3   OH234702   3.067   3.963   6.570  0.0891 -0.1290  0.5687
 4356TIP3    H134703   3.140   3.932   6.516 -0.2158  0.6649 -0.3220
 4356TIP3    H234704   3.037   3.885   6.616  2.3694 -0.2343  2.0555
 4357TIP3   OH234705   3.268   2.220   6.779  0.8217 -0.3290  0.1084
 4357TIP3    H134706   3.271   2.131   6.745  1.6724 -0.1724 -0.2686
 4357TIP3    H234707   3.320   2.271   6.717 -0.8916  0.7344 -0.5220
 4358TIP3   OH234708   4.326   3.187   7.961 -0.6401  0.2875  0.5031
 4358TIP3    H134709   4.327   3.224   8.050 -1.5068 -1.2527  1.2021
 4358TIP3    H234710   4.382   3.245   7.910  0.2041  0.9851  2.1509
 4359TIP3   OH234711   4.049   4.818   8.543 -0.2256  0.2097 -0.2347
 4359TIP3    H134712   3.957   4.814   8.518 -0.3938 -0.6372  0.5028
 4359TIP3    H234713   4.050   4.806   8.638  0.6146  0.6796 -0.1683
 4360TIP3   OH234714   2.089   2.197   1.111 -0.5419  0.6033  0.7450
 4360TIP3    H134715   2.137   2.218   1.191 -0.3739  0.0210  0.8019
 4360TIP3    H234716   2.157   2.188   1.044 -0.5680 -0.2170  0.8247
 4361TIP3   OH234717   1.496   1.057   2.835  0.3017  0.1315  0.1382
 4361TIP3    H134718   1.517   0.975   2.790  0.8792  0.0722  0.5083
 4361TIP3    H234719   1.579   1.087   2.870  0.0105  0.6454  0.3972
 4362TIP3   OH234720   3.378   5.335   0.818 -0.3680 -0.5883 -0.0326
 4362TIP3    H134721   3.308   5.400   0.803  1.3523  1.2364 -0.6969
 4362TIP3    H234722   3.407   5.312   0.729  0.6245 -0.4553  0.2569
 4363TIP3   OH234723   0.041   3.781   0.553 -0.2829 -0.3238  0.3505
 4363TIP3    H134724   0.024   3.798   0.645 -0.7847  0.0280  0.1956
 4363TIP3    H234725   0.031   3.866   0.510  1.6830 -0.1231  0.2119
 4364TIP3   OH234726   1.063   5.565   1.613 -0.0044  0.4445  0.3180
 4364TIP3    H134727   1.099   5.477   1.612  1.1729  0.8873 -1.4418
 4364TIP3    H234728   1.096   5.604   1.694  0.0930 -0.4639  0.7278
 4365TIP3   OH234729   1.966   3.979   7.932 -0.2566 -0.2232 -0.2820
 4365TIP3    H134730   2.041   3.998   7.877 -0.7412  0.5499 -0.6911
 4365TIP3    H234731   1.895   4.032   7.896 -0.7015 -0.0401  0.8092
 4366TIP3   OH234732   4.993   6.461   7.289  0.4194  0.0044 -0.1428
 4366TIP3    H134733   4.918   6.491   7.341  1.3793  1.7225  0.3304
 4366TIP3    H234734   5.040   6.541   7.266  3.0306 -1.0803  0.9959
 4367TIP3   OH234735   0.696   4.434   7.884  0.3447 -0.0232 -0.0483
 4367TIP3    H134736   0.651   4.453   7.801  1.0401  0.7084 -0.2758
 4367TIP3    H234737   0.723   4.343   7.876 -0.0196 -0.1021 -0.4273
 4368TIP3   OH234738   2.486   5.884   1.533 -0.1163 -0.0624 -0.2326
 4368TIP3    H134739   2.393   5.896   1.555 -0.4787  0.0345 -1.6947
 4368TIP3    H234740   2.529   5.871   1.617 -1.2081  1.5396  0.6310
 4369TIP3   OH234741   6.530   4.143   7.761 -0.1801 -0.0170 -0.4780
 4369TIP3    H134742   6.584   4.066   7.748  0.2143  0.3764 -1.2888
 4369TIP3    H234743   6.584   4.203   7.812  0.2124  0.4239 -1.3914
 4370TIP3   OH234744   2.268   2.849   7.374 -0.1525  0.3199  0.2416
 4370TIP3    H134745   2.327   2.844   7.450  0.2739  0.8854 -0.0406
 4370TIP3    H234746   2.321   2.888   7.305  0.3308 -2.6805 -1.2350
 4371TIP3   OH234747   1.078   2.576   6.445 -0.4505  0.1541 -0.1336
 4371TIP3    H134748   1.093   2.562   6.539 -1.6655  1.0401  0.2065
 4371TIP3    H234749   1.163   2.557   6.405  0.5091  1.2066  1.2986
 4372TIP3   OH234750   4.033   6.171   1.097  0.5722  0.1787  0.6780
 4372TIP3    H134751   4.040   6.077   1.078 -0.2555  0.2417 -0.0210
 4372TIP3    H234752   4.123   6.199   1.114  0.6075 -1.1862  3.1919
 4373TIP3   OH234753   4.657   5.898   6.782  0.9788 -0.1182 -0.3198
 4373TIP3    H134754   4.650   5.951   6.862  1.4097  0.1641 -0.4673
 4373TIP3    H234755   4.599   5.941   6.719  1.7912  0.5400 -0.6313
 4374TIP3   OH234756   2.379   0.932   1.653  0.4928  0.0641  0.1701
 4374TIP3    H134757   2.377   0.933   1.749  1.8476  0.4249  0.2137
 4374TIP3    H234758   2.325   0.857   1.629  0.2490 -0.1162  1.2252
 4375TIP3   OH234759   1.707   1.091   7.831  0.9380  0.0145  0.8265
 4375TIP3    H134760   1.734   1.081   7.922  0.2234 -0.6209  0.9795
 4375TIP3    H234761   1.681   1.183   7.823  0.6524 -0.0229  1.3528
 4376TIP3   OH234762   3.373   0.754   0.640  0.6808 -0.0009  0.3731
 4376TIP3    H134763   3.430   0.795   0.705  0.9285 -0.4004  0.4136
 4376TIP3    H234764   3.370   0.662   0.666  1.5921 -0.3717 -0.7662
 4377TIP3   OH234765   1.614   6.311   0.510 -0.2701  0.1209 -0.2726
 4377TIP3    H134766   1.695   6.288   0.556  0.2481  0.1273 -1.1734
 4377TIP3    H234767   1.600   6.239   0.449 -0.9356  0.1314 -0.1386
 4378TIP3   OH234768   3.855   6.053   8.303 -0.4783  0.4982 -0.1634
 4378TIP3    H134769   3.851   5.963   8.272 -0.3605  0.1126  0.8831
 4378TIP3    H234770   3.764   6.081   8.307 -0.7426 -0.4777  1.9447
 4379TIP3   OH234771   0.376   3.145   1.729  0.2077 -0.3269  0.0203
 4379TIP3    H134772   0.381   3.144   1.825 -0.1855 -1.8710  0.0534
 4379TIP3    H234773   0.447   3.087   1.701  1.2921  1.2988 -0.7062
 4380TIP3   OH234774   3.332   4.794   1.227  0.2423  0.3058  0.1171
 4380TIP3    H134775   3.358   4.717   1.278 -0.1659 -1.0819 -1.6581
 4380TIP3    H234776   3.364   4.869   1.277  1.0060 -1.0383  1.7077
 4381TIP3   OH234777   2.375   0.993   2.563 -0.4566  0.5636  0.1190
 4381TIP3    H134778   2.362   1.054   2.635  0.7665  1.0079  0.0049
 4381TIP3    H234779   2.453   1.027   2.518 -0.5994 -0.2814 -0.7979
 4382TIP3   OH234780   6.689   3.616   1.189 -0.3011 -0.5003  0.0804
 4382TIP3    H134781   6.632   3.689   1.211 -0.0662 -0.4675  0.5900
 4382TIP3    H234782   6.696   3.618   1.094 -1.0996 -0.4675  0.0174
 4383TIP3   OH234783   5.245   6.278   2.294  0.1304  0.0550 -0.0554
 4383TIP3    H134784   5.238   6.190   2.331  1.2214 -0.2055 -0.4122
 4383TIP3    H234785   5.164   6.289   2.244 -0.5268 -0.2981  0.8928
 4384TIP3   OH234786   0.302   2.660   8.153  0.1550 -0.0937 -0.0273
 4384TIP3    H134787   0.274   2.637   8.064 -1.1944 -4.3892  1.2681
 4384TIP3    H234788   0.232   2.715   8.187 -0.4780 -0.3788 -0.8481
 4385TIP3   OH234789   0.291   5.145   1.653  0.6205 -0.2645  0.2200
 4385TIP3    H134790   0.343   5.215   1.693  0.7849 -0.6148  0.6263
 4385TIP3    H234791   0.356   5.086   1.615  0.5648 -1.0242  1.2620
 4386TIP3   OH234792   4.289   6.838   0.613 -0.6980 -0.2718 -0.8280
 4386TIP3    H134793   4.291   6.932   0.596  2.7742 -0.1818 -0.5450
 4386TIP3    H234794   4.323   6.798   0.533  0.3662 -1.0789  0.0004
 4387TIP3   OH234795   5.224   2.532   8.781  0.9893 -0.5075 -0.2131
 4387TIP3    H134796   5.210   2.492   8.867  1.1390  1.4788  0.7778
 4387TIP3    H234797   5.319   2.524   8.766  1.0238 -0.4888 -0.0029
 4388TIP3   OH234798   2.226   5.114   6.369  0.1915  0.6961 -0.4066
 4388TIP3    H134799   2.293   5.085   6.306  0.2716  0.8779 -0.4046
 4388TIP3    H234800   2.268   5.105   6.454  0.3493  1.1821 -0.4313
 4389TIP3   OH234801   2.141   2.477   1.290 -0.5955 -0.7602  0.6018
 4389TIP3    H134802   2.192   2.461   1.211 -1.6290 -1.0639 -0.0287
 4389TIP3    H234803   2.180   2.556   1.328  0.1400 -0.8162 -0.0150
 4390TIP3   OH234804   6.550   6.574   0.827  0.2577 -0.1471 -0.3947
 4390TIP3    H134805   6.479   6.634   0.802  0.6740 -0.7814 -3.6151
 4390TIP3    H234806   6.506   6.504   0.876 -0.9654  0.5853 -0.4121
 4391TIP3   OH234807   1.075   3.328   6.634  0.0424 -0.3692 -0.0773
 4391TIP3    H134808   1.047   3.376   6.556  0.9475  1.0739  0.4576
 4391TIP3    H234809   0.994   3.305   6.678 -0.4210  1.2459 -0.0264
 4392TIP3   OH234810   5.792   4.532   2.275 -0.1009  0.7594 -0.0911
 4392TIP3    H134811   5.859   4.585   2.320  0.3358 -0.1646  0.3792
 4392TIP3    H234812   5.827   4.443   2.278 -0.9845  0.3928 -0.5654
 4393TIP3   OH234813   0.451   0.727   1.343  0.3158 -0.4375  0.1973
 4393TIP3    H134814   0.455   0.805   1.398  1.3148 -1.2170  1.2595
 4393TIP3    H234815   0.466   0.654   1.403 -0.0835 -1.4231 -0.8645
 4394TIP3   OH234816   0.470   0.416   8.265  0.3079  0.0470  0.5874
 4394TIP3    H134817   0.432   0.335   8.230  2.7219 -0.8856 -0.0996
 4394TIP3    H234818   0.562   0.411   8.240  0.4874  3.1791  0.2968
 4395TIP3   OH234819   3.310   1.408   0.142  0.0272  0.2679 -0.2298
 4395TIP3    H134820   3.230   1.431   0.189  1.3873 -0.1659  2.4999
 4395TIP3    H234821   3.367   1.484   0.153  1.3323 -0.8724  1.1654
 4396TIP3   OH234822   4.761   3.611   8.776 -0.2051  0.1603 -0.0979
 4396TIP3    H134823   4.668   3.621   8.795 -0.0543 -1.1485  1.6862
 4396TIP3    H234824   4.801   3.693   8.806 -0.4823 -0.3664  1.8488
 4397TIP3   OH234825   1.009   3.389   0.884 -0.1126 -0.2387 -0.3728
 4397TIP3    H134826   1.055   3.338   0.817  0.3584 -0.6889  0.2696
 4397TIP3    H234827   0.978   3.323   0.946 -1.7181  0.0521 -0.8321
 4398TIP3   OH234828   6.472   0.661   1.352 -0.4616 -0.0709 -0.3111
 4398TIP3    H134829   6.390   0.709   1.361 -0.0954  0.3028  1.2311
 4398TIP3    H234830   6.538   0.717   1.391  0.0256 -1.6507  1.2640
 4399TIP3   OH234831   6.280   2.820   1.525  0.0191  0.1650  0.3995
 4399TIP3    H134832   6.261   2.913   1.523 -1.1868 -0.0571 -2.1712
 4399TIP3    H234833   6.368   2.812   1.487  1.3566  0.3894  3.1974
 4400TIP3   OH234834   3.991   0.810   6.567  0.1845 -0.3395 -0.5834
 4400TIP3    H134835   3.906   0.845   6.597 -0.2952 -0.8367 -1.3375
 4400TIP3    H234836   3.993   0.831   6.474  0.6951 -0.7433 -0.6596
 4401TIP3   OH234837   6.621   4.451   0.597  0.3793  0.3412 -0.2798
 4401TIP3    H134838   6.580   4.447   0.510  1.1406  0.8560 -0.6720
 4401TIP3    H234839   6.715   4.452   0.579  0.6767 -2.3565  0.6375
 4402TIP3   OH234840   1.714   1.794   0.709 -0.3177  0.1054 -0.1824
 4402TIP3    H134841   1.695   1.807   0.617 -0.1122  2.1422  0.0221
 4402TIP3    H234842   1.762   1.711   0.713  0.7391  0.5742 -2.0633
 4403TIP3   OH234843   5.755   1.916   7.669  0.0507 -0.7054  0.3368
 4403TIP3    H134844   5.738   2.006   7.697  2.6656  0.2734 -0.8581
 4403TIP3    H234845   5.712   1.909   7.584 -0.5563 -0.7623  0.6435
 4404TIP3   OH234846   4.369   5.438   7.769 -0.0910  1.2173 -0.0009
 4404TIP3    H134847   4.393   5.375   7.837  1.7928  0.5076 -1.2442
 4404TIP3    H234848   4.356   5.520   7.816 -1.5158  0.2018  1.5200
 4405TIP3   OH234849   2.144   3.798   8.048  0.6314 -0.5290 -0.3235
 4405TIP3    H134850   2.081   3.813   7.977 -0.0092 -2.3545 -0.1965
 4405TIP3    H234851   2.228   3.824   8.012  0.1044 -0.0099 -1.2230
 4406TIP3   OH234852   5.841   5.916   0.791  0.1840 -0.1413  0.0116
 4406TIP3    H134853   5.881   5.935   0.876 -0.8005 -0.7635  0.6283
 4406TIP3    H234854   5.861   5.994   0.738  1.3260 -0.0043  0.6023
 4407TIP3   OH234855   2.974   5.823   0.363  0.3719  0.2237 -0.2090
 4407TIP3    H134856   2.884   5.847   0.342  0.0001  1.4779  2.3480
 4407TIP3    H234857   2.986   5.738   0.323 -2.1856 -0.2644 -0.1239
 4408TIP3   OH234858   4.967   0.370   6.647  0.4365  0.4713 -0.3554
 4408TIP3    H134859   5.011   0.350   6.565  0.8158  0.2575 -0.1030
 4408TIP3    H234860   4.898   0.303   6.654  1.2520 -0.3436  0.1416
 4409TIP3   OH234861   1.505   5.128   2.123  0.2674 -0.1455 -0.3524
 4409TIP3    H134862   1.476   5.219   2.122 -1.4731 -0.6706 -0.2952
 4409TIP3    H234863   1.600   5.133   2.131  0.2909  1.6680 -1.3550
 4410TIP3   OH234864   3.294   3.454   1.676 -0.0979 -0.0736  0.9194
 4410TIP3    H134865   3.364   3.415   1.624  0.0897  0.2460  0.9301
 4410TIP3    H234866   3.285   3.396   1.752 -1.4020 -1.4010 -0.1950
 4411TIP3   OH234867   6.015   3.353   6.638 -0.0983 -0.1401  0.3466
 4411TIP3    H134868   5.979   3.388   6.557 -0.2008  3.0177  1.6076
 4411TIP3    H234869   6.097   3.400   6.650  0.0632 -0.7634  1.9334
 4412TIP3   OH234870   0.063   6.371   7.711 -0.3370 -0.1140 -0.2454
 4412TIP3    H134871   0.064   6.376   7.806  0.8575 -1.0953 -0.1860
 4412TIP3    H234872  -0.003   6.435   7.684  0.5530  1.4743  1.1573
 4413TIP3   OH234873   1.808   6.023   0.472 -0.5673  0.5748 -0.0815
 4413TIP3    H134874   1.795   5.940   0.425  0.3025 -0.2902  1.1309
 4413TIP3    H234875   1.767   6.008   0.557 -1.0660  1.6849 -0.1122
 4414TIP3   OH234876   2.410   2.399   2.120  0.0334 -0.1808 -0.0636
 4414TIP3    H134877   2.441   2.308   2.122  2.4681  0.5553 -0.3304
 4414TIP3    H234878   2.442   2.437   2.202 -2.0540  0.1707  0.6458
 4415TIP3   OH234879   0.271   0.197   0.366 -0.1205 -0.1676 -0.2920
 4415TIP3    H134880   0.178   0.209   0.382 -0.1218 -1.7965  1.2098
 4415TIP3    H234881   0.280   0.203   0.270 -1.5132  1.3716 -0.3686
 4416TIP3   OH234882   0.988   6.152   8.229 -0.5637 -0.1387 -0.1438
 4416TIP3    H134883   0.926   6.149   8.301  0.2851  1.4179  0.7049
 4416TIP3    H234884   1.054   6.085   8.250  1.0835  1.9940  1.9469
 4417TIP3   OH234885   2.627   0.421   0.985 -0.6147  0.6131  0.2768
 4417TIP3    H134886   2.645   0.506   0.944 -2.5595  0.7495 -0.4209
 4417TIP3    H234887   2.682   0.420   1.063  1.5280  1.3053 -1.1432
 4418TIP3   OH234888   1.672   1.919   1.529  0.4678 -0.2475  0.2295
 4418TIP3    H134889   1.702   1.987   1.468 -0.6218  0.6970  0.7247
 4418TIP3    H234890   1.607   1.962   1.584 -2.6829 -2.4126 -1.4579
 4419TIP3   OH234891   0.351   3.473   6.599  0.3353  0.1770  0.4550
 4419TIP3    H134892   0.304   3.546   6.558  0.6524 -0.1336 -0.4984
 4419TIP3    H234893   0.319   3.470   6.689 -1.2413  0.1562 -0.0884
 4420TIP3   OH234894   0.655   6.725   0.110  0.0824 -0.5031  0.0278
 4420TIP3    H134895   0.708   6.776   0.171 -0.0930 -1.6318  1.1635
 4420TIP3    H234896   0.567   6.763   0.117  0.2879  0.0491 -0.3272
 4421TIP3   OH234897   5.681   0.407   0.113 -0.3326 -0.1479  0.2273
 4421TIP3    H134898   5.739   0.365   0.049 -1.1274 -2.3115  0.8672
 4421TIP3    H234899   5.703   0.500   0.106  0.4349 -0.4313 -2.3313
 4422TIP3   OH234900   4.014   2.736   7.570  0.7592  0.8790 -0.3606
 4422TIP3    H134901   4.077   2.703   7.634  1.8986  0.4753 -1.6346
 4422TIP3    H234902   3.989   2.822   7.603  0.0733  0.0463  1.4429
 4423TIP3   OH234903   4.707   6.632   7.952  0.3273  0.7010  0.0688
 4423TIP3    H134904   4.776   6.686   7.989  2.3056 -0.6592 -1.4277
 4423TIP3    H234905   4.741   6.542   7.956 -2.2279 -0.3291  1.1312
 4424TIP3   OH234906   6.721   6.073   2.349 -0.1606  0.0982 -0.0922
 4424TIP3    H134907   6.766   5.997   2.387 -0.7746  1.0216  2.6963
 4424TIP3    H234908   6.628   6.056   2.366 -0.6727 -0.0770 -2.5793
 4425TIP3   OH234909   1.445   0.501   6.617  0.1979 -0.0089 -0.6330
 4425TIP3    H134910   1.526   0.526   6.573  1.0013 -2.2224 -0.5038
 4425TIP3    H234911   1.376   0.516   6.552  0.9341  0.1371 -1.3923
 4426TIP3   OH234912   5.392   2.593   7.425 -0.3704 -0.2719  0.1714
 4426TIP3    H134913   5.300   2.611   7.445 -0.4148  0.4356 -0.6253
 4426TIP3    H234914   5.408   2.638   7.342  1.0093  0.6270  0.8773
 4427TIP3   OH234915   4.424   2.894   6.842  0.0523  0.1628 -0.1339
 4427TIP3    H134916   4.424   2.804   6.809 -0.0149  0.2736 -0.4382
 4427TIP3    H234917   4.333   2.923   6.836 -0.0640 -0.0136  0.6988
 4428TIP3   OH234918   0.012   6.672   7.067  0.2057 -0.4005  0.5550
 4428TIP3    H134919   0.061   6.754   7.074 -0.3632  0.4831 -3.1692
 4428TIP3    H234920   0.076   6.604   7.086  1.2595  0.8446  1.6640
 4429TIP3   OH234921   0.180   6.005   8.662 -0.2452 -0.4471  0.0273
 4429TIP3    H134922   0.255   6.042   8.615 -0.7717  1.8563  0.8978
 4429TIP3    H234923   0.123   5.971   8.593  1.1971 -1.4923 -0.6860
 4430TIP3   OH234924   4.040   2.920   6.354 -0.0172  0.3273 -0.0459
 4430TIP3    H134925   4.042   2.973   6.433 -0.7171  0.7276 -0.2810
 4430TIP3    H234926   4.121   2.941   6.308  0.0635  0.6210  0.2269
 4431TIP3   OH234927   4.573   0.556   7.212  0.6047  0.5794 -0.0698
 4431TIP3    H134928   4.487   0.531   7.177  1.6930 -0.3282 -2.2168
 4431TIP3    H234929   4.575   0.652   7.205 -0.6171  0.7318  1.0718
 4432TIP3   OH234930   4.841   0.372   7.381 -0.3922 -0.5620  0.1894
 4432TIP3    H134931   4.836   0.347   7.289  1.7334  0.1221 -0.1590
 4432TIP3    H234932   4.760   0.338   7.419 -0.5290 -2.3906 -1.5592
 4433TIP3   OH234933   1.267   4.519   7.126 -0.1960 -0.0286 -0.2040
 4433TIP3    H134934   1.293   4.561   7.044 -1.3797 -1.2944 -1.2849
 4433TIP3    H234935   1.271   4.425   7.107 -0.9510 -0.3357  1.0395
 4434TIP3   OH234936   1.926   3.305   0.287  0.1800  0.0216 -0.3011
 4434TIP3    H134937   1.879   3.248   0.227  0.2399 -0.0144 -0.3142
 4434TIP3    H234938   1.896   3.279   0.374  0.9689 -0.7307 -0.2449
 4435TIP3   OH234939   1.928   1.648   7.465  0.2761 -0.4746  0.4063
 4435TIP3    H134940   2.006   1.603   7.497  0.5203  0.5454  1.3271
 4435TIP3    H234941   1.876   1.580   7.423  1.0433 -1.4199  0.9522
 4436TIP3   OH234942   2.520   3.708   1.123 -0.3070  0.4984 -0.7706
 4436TIP3    H134943   2.611   3.698   1.094  0.2713  2.5059  0.1438
 4436TIP3    H234944   2.496   3.797   1.097 -1.8873  0.1395 -0.6314
 4437TIP3   OH234945   6.029   5.190   1.717 -0.1147 -0.2743 -0.8483
 4437TIP3    H134946   6.004   5.267   1.767 -2.3435 -1.0181 -0.6860
 4437TIP3    H234947   6.125   5.189   1.719 -0.0397 -0.4436  3.6830
 4438TIP3   OH234948   0.063   2.376   7.667  0.1122 -0.3904 -0.2390
 4438TIP3    H134949   0.046   2.470   7.672 -0.4704 -0.4298 -1.3137
 4438TIP3    H234950  -0.019   2.339   7.634 -0.0741 -1.4270  1.2957
 4439TIP3   OH234951   1.150   3.482   1.782 -0.0238  0.0410 -0.1447
 4439TIP3    H134952   1.077   3.516   1.729  0.0418  0.2683 -0.0888
 4439TIP3    H234953   1.116   3.479   1.871  0.8216  2.5579  0.3388
 4440TIP3   OH234954   0.939   0.507   7.698 -0.4049 -0.2732  0.0297
 4440TIP3    H134955   0.958   0.588   7.651 -1.5329 -1.4404 -2.6117
 4440TIP3    H234956   0.843   0.505   7.704 -0.3260  0.0561  2.9552
 4441TIP3   OH234957   0.652   2.775   8.657  0.2237  0.0133 -0.3875
 4441TIP3    H134958   0.561   2.783   8.684  0.9967  0.2946  2.5113
 4441TIP3    H234959   0.679   2.865   8.639  0.0797 -0.0072 -0.7105
 4442TIP3   OH234960   3.113   4.981   7.323  0.4537 -0.7971 -0.0223
 4442TIP3    H134961   3.156   4.973   7.408  0.9249  2.4516  0.1910
 4442TIP3    H234962   3.152   4.912   7.269  4.0017  0.2173  0.9617
 4443TIP3   OH234963   3.675   4.931   1.621  0.1631 -0.4626 -0.7547
 4443TIP3    H134964   3.714   4.912   1.707  1.0081 -1.3292 -1.3112
 4443TIP3    H234965   3.654   5.024   1.625  1.0432 -0.2767  0.0644
 4444TIP3   OH234966   1.323   2.887   7.001 -0.7795  0.0186 -0.4067
 4444TIP3    H134967   1.348   2.946   6.930  1.5610 -0.8047 -0.3643
 4444TIP3    H234968   1.262   2.825   6.960 -1.4081  1.0404 -1.0381
 4445TIP3   OH234969   0.053   3.598   2.192  0.3286  0.3097  0.5920
 4445TIP3    H134970   0.042   3.505   2.211 -0.3586  0.0872 -0.7880
 4445TIP3    H234971   0.011   3.610   2.107 -2.0956  2.4047  1.9440
 4446TIP3   OH234972   6.467   0.643   6.991 -0.2971 -0.3173 -0.2605
 4446TIP3    H134973   6.506   0.579   7.051  0.3759  0.1190 -0.2261
 4446TIP3    H234974   6.420   0.590   6.927  0.6063 -0.8689 -0.4727
 4447TIP3   OH234975   4.177   0.246   6.571 -0.2747  0.4632  0.0977
 4447TIP3    H134976   4.191   0.338   6.592 -0.1573  0.3033  0.7509
 4447TIP3    H234977   4.201   0.238   6.479 -1.2708  1.2924 -0.2558
 4448TIP3   OH234978   1.707   4.760   0.187  0.2102 -0.0328  0.0027
 4448TIP3    H134979   1.778   4.802   0.236 -0.4443  1.7848 -0.5376
 4448TIP3    H234980   1.731   4.771   0.095 -1.3860  1.8650 -0.2509
 4449TIP3   OH234981   5.467   6.317   8.393 -0.4749 -0.1968  0.0413
 4449TIP3    H134982   5.495   6.232   8.361 -0.1680 -0.3932  0.7904
 4449TIP3    H234983   5.389   6.298   8.447 -0.5493  0.0249  0.0133
 4450TIP3   OH234984   2.713   3.158   8.010  0.0312 -0.2039  0.6016
 4450TIP3    H134985   2.640   3.115   8.054 -1.1629 -0.7144 -1.7234
 4450TIP3    H234986   2.694   3.251   8.018 -2.0255 -0.3318 -1.6003
 4451TIP3   OH234987   2.509   6.656   1.062 -0.4062  0.5010 -0.3632
 4451TIP3    H134988   2.549   6.671   1.148  1.8704 -0.1935 -1.2097
 4451TIP3    H234989   2.426   6.703   1.065 -0.3497  0.5490  2.1725
 4452TIP3   OH234990   5.361   3.535   7.389  0.2326 -0.0670  0.3790
 4452TIP3    H134991   5.305   3.457   7.392  0.3741 -0.3565 -2.2129
 4452TIP3    H234992   5.447   3.502   7.413  0.5457 -1.0685 -1.8222
 4453TIP3   OH234993   4.425   2.947   0.901 -0.4822  0.6195  0.2102
 4453TIP3    H134994   4.428   3.027   0.848  0.3745  1.3805  1.3590
 4453TIP3    H234995   4.509   2.946   0.947 -0.6220 -0.7752  0.4712
 4454TIP3   OH234996   2.233   1.028   1.444 -0.0851 -0.2761  0.2554
 4454TIP3    H134997   2.302   1.028   1.510 -0.2419 -0.6536  0.4266
 4454TIP3    H234998   2.268   0.974   1.373 -0.6584 -1.4457  0.8436
 4455TIP3   OH234999   6.539   1.242   1.132 -0.3268 -0.4598  0.0196
 4455TIP3    H135000   6.498   1.235   1.046  2.4459 -0.6103 -1.3905
 4455TIP3    H235001   6.545   1.151   1.162 -2.6968 -0.3141  1.1872
 4456TIP3   OH235002   3.568   1.987   7.849  0.5693  0.3702 -0.0188
 4456TIP3    H135003   3.590   1.896   7.829  0.5456  0.7608 -2.1014
 4456TIP3    H235004   3.511   1.982   7.926  2.3480 -1.1605  1.2754
 4457TIP3   OH235005   5.481   2.383   0.686  0.2736  0.5502  0.6414
 4457TIP3    H135006   5.447   2.346   0.767  2.3611 -2.2016  0.3892
 4457TIP3    H235007   5.572   2.404   0.706  0.5855  0.6028 -0.7559
 4458TIP3   OH235008   5.790   2.670   7.194 -0.0963  0.4003  0.1773
 4458TIP3    H135009   5.814   2.581   7.219  1.5007  0.5234 -0.7871
 4458TIP3    H235010   5.769   2.664   7.101 -1.6515  0.7442  0.4811
 4459TIP3   OH235011   1.793   4.828   1.130 -0.1528 -0.0649  0.0386
 4459TIP3    H135012   1.730   4.819   1.058  0.3022  1.5452 -0.5999
 4459TIP3    H235013   1.780   4.750   1.183 -1.3067 -0.7280 -1.1672
 4460TIP3   OH235014   2.515   4.938   8.607 -0.0903 -0.4189  0.0036
 4460TIP3    H135015   2.590   4.957   8.664  0.9547  0.7272 -1.6710
 4460TIP3    H235016   2.520   4.843   8.593 -0.0270 -0.6362  1.3123
 4461TIP3   OH235017   6.695   1.024   0.869  0.3160 -0.3581 -0.5367
 4461TIP3    H135018   6.602   1.015   0.849 -0.2083  1.4996  0.8348
 4461TIP3    H235019   6.728   1.082   0.800  0.3353 -0.5808 -0.7148
 4462TIP3   OH235020   1.253   4.124   0.124 -0.4626  0.0212 -0.0915
 4462TIP3    H135021   1.162   4.152   0.122 -0.1774  0.9736 -1.2803
 4462TIP3    H235022   1.303   4.206   0.115  0.4684 -0.6144 -0.9254
 4463TIP3   OH235023   2.901   2.763   7.677  0.6053  0.3061 -0.3549
 4463TIP3    H135024   2.946   2.692   7.722  0.0306  0.6587  0.8111
 4463TIP3    H235025   2.945   2.842   7.707  0.6499  0.5170 -0.9492
 4464TIP3   OH235026   4.763   5.684   6.952 -0.3839 -0.3575 -0.0977
 4464TIP3    H135027   4.708   5.734   6.893 -0.6962 -0.4160  0.1441
 4464TIP3    H235028   4.819   5.632   6.894  0.7291  1.0837 -0.3815
 4465TIP3   OH235029   2.546   6.065   0.704  0.5940  0.2165  0.2025
 4465TIP3    H135030   2.498   5.982   0.708  0.3072  0.4189  1.1844
 4465TIP3    H235031   2.566   6.086   0.795  0.4813  1.3292 -0.0132
 4466TIP3   OH235032   3.032   0.635   0.979 -0.1477  0.5068  0.0124
 4466TIP3    H135033   3.062   0.547   0.959 -0.6586  0.0434  1.2011
 4466TIP3    H235034   3.110   0.680   1.011 -0.0630  0.2424  0.1782
 4467TIP3   OH235035   4.667   1.666   7.645 -0.2671  0.2621  0.2659
 4467TIP3    H135036   4.689   1.580   7.611 -3.4202 -0.2333 -0.7601
 4467TIP3    H235037   4.740   1.688   7.703  1.3844 -2.3601 -0.6742
 4468TIP3   OH235038   3.183   2.884   0.585  0.2454 -0.8162  0.4226
 4468TIP3    H135039   3.261   2.851   0.629 -0.3178 -1.5594  0.8946
 4468TIP3    H235040   3.216   2.950   0.523  0.9733  1.3854  2.9457
 4469TIP3   OH235041   0.220   0.828   6.643  0.1716  0.0651  0.0174
 4469TIP3    H135042   0.242   0.902   6.700 -0.8544 -0.1016  0.6693
 4469TIP3    H235043   0.256   0.851   6.558  0.3487  1.0674  0.3537
 4470TIP3   OH235044   2.628   5.781   6.425 -0.1009  0.3342  0.3349
 4470TIP3    H135045   2.670   5.827   6.352 -0.4974 -1.0418 -0.8141
 4470TIP3    H235046   2.537   5.772   6.398  0.0851 -1.6369  0.1968
 4471TIP3   OH235047   3.419   4.654   1.019  0.7108 -0.5728  0.3346
 4471TIP3    H135048   3.402   4.711   1.094  0.9114 -0.1518  0.0584
 4471TIP3    H235049   3.336   4.610   1.003  0.5836 -0.4351  0.6112
 4472TIP3   OH235050   0.807   4.541   0.727  0.0040  0.4103  0.1551
 4472TIP3    H135051   0.847   4.598   0.792  1.7583  1.2165 -1.5371
 4472TIP3    H235052   0.867   4.467   0.718  0.6050  1.0567 -1.5843
 4473TIP3   OH235053   5.781   4.377   1.319 -0.2918  0.1958 -0.1194
 4473TIP3    H135054   5.746   4.297   1.360  1.2708  0.5138  2.0170
 4473TIP3    H235055   5.874   4.357   1.305 -0.4259  0.7451 -2.0231
 4474TIP3   OH235056   0.002   6.716   8.747  0.1641  0.3482  0.0319
 4474TIP3    H135057  -0.055   6.680   8.680  0.0974  0.4581  0.0298
 4474TIP3    H235058   0.036   6.797   8.709  1.0694 -0.1844 -0.3485
 4475TIP3   OH235059   6.726   3.566   7.280  0.5066  0.4975  0.0983
 4475TIP3    H135060   6.631   3.578   7.281  0.5189  0.9229  2.9192
 4475TIP3    H235061   6.739   3.471   7.275  0.0609  0.4931 -2.5700
 4476TIP3   OH235062   2.598   3.944   2.085 -0.3412 -1.2220  0.0306
 4476TIP3    H135063   2.692   3.936   2.073 -0.2321 -0.9505  0.6785
 4476TIP3    H235064   2.586   4.029   2.126 -0.9038 -1.0956 -0.3852
 4477TIP3   OH235065   0.726   1.428   8.201 -0.2199 -0.6506 -0.1206
 4477TIP3    H135066   0.820   1.448   8.199 -0.5700  1.0382 -0.6111
 4477TIP3    H235067   0.686   1.504   8.244 -1.1956 -2.1965  1.8888
 4478TIP3   OH235068   0.905   1.038   0.230 -0.0351 -0.0666 -0.0793
 4478TIP3    H135069   0.812   1.013   0.232 -0.0832  0.1111 -0.0467
 4478TIP3    H235070   0.906   1.126   0.269  0.3531 -0.6904  1.3915
 4479TIP3   OH235071   4.767   4.807   7.359 -0.3275 -0.3135  0.3639
 4479TIP3    H135072   4.810   4.853   7.431 -1.7528  1.6626  0.0393
 4479TIP3    H235073   4.808   4.843   7.280 -0.2152 -0.9345  0.1385
 4480TIP3   OH235074   6.137   4.826   0.700  0.1192  0.6454 -0.0957
 4480TIP3    H135075   6.143   4.897   0.636 -2.3370  0.3000 -0.8289
 4480TIP3    H235076   6.112   4.749   0.648 -1.6619  0.2937  1.2002
 4481TIP3   OH235077   0.631   3.147   0.645 -0.2548 -0.2652 -0.3151
 4481TIP3    H135078   0.535   3.153   0.645 -0.3235 -0.8278 -1.9355
 4481TIP3    H235079   0.660   3.228   0.685 -1.4170 -0.5236  1.1398
 4482TIP3   OH235080   4.798   4.071   6.436 -0.2648  0.9144  0.1040
 4482TIP3    H135081   4.833   4.092   6.523  1.6683  0.2796 -0.4596
 4482TIP3    H235082   4.735   4.141   6.418 -0.6557  1.0952  1.9644
 4483TIP3   OH235083   1.138   0.303   0.904  0.5302 -0.8751 -0.0540
 4483TIP3    H135084   1.217   0.293   0.956  0.3143 -1.4245  0.1782
 4483TIP3    H235085   1.066   0.287   0.965  0.2722 -1.4111 -0.4804
 4484TIP3   OH235086   6.455   6.270   0.246  0.2916  0.4643 -0.5031
 4484TIP3    H135087   6.478   6.327   0.172  0.4069  0.3254 -0.5753
 4484TIP3    H235088   6.462   6.181   0.211  0.8918  0.3782 -0.1730
 4485TIP3   OH235089   5.913   6.785   0.069  0.7179  0.5895 -0.0051
 4485TIP3    H135090   5.971   6.786  -0.007  2.2678  1.4556  1.1360
 4485TIP3    H235091   5.846   6.850   0.048  0.0109 -0.5271 -1.3980
 4486TIP3   OH235092   0.069   1.389   0.193  0.6193 -0.6293  0.3872
 4486TIP3    H135093   0.079   1.481   0.168 -2.0762 -0.5962 -0.9182
 4486TIP3    H235094  -0.025   1.378   0.208  0.8525 -3.1990  0.3817
 4487TIP3   OH235095   6.573   5.629   1.136 -0.1533 -0.4771 -0.2348
 4487TIP3    H135096   6.662   5.632   1.171 -0.7058 -0.5278  1.2540
 4487TIP3    H235097   6.517   5.641   1.213 -1.4132  1.2388 -1.3667
 4488TIP3   OH235098   2.585   5.048   6.931  0.3223  0.8518 -0.5722
 4488TIP3    H135099   2.579   5.088   6.844 -0.8362 -3.1983 -2.6199
 4488TIP3    H235100   2.621   4.960   6.914  0.9280  0.2212  3.2134
 4489TIP3   OH235101   5.537   6.792   1.049  1.0613  0.0921  0.3145
 4489TIP3    H135102   5.493   6.796   1.133  0.7660 -0.4617  0.1888
 4489TIP3    H235103   5.536   6.699   1.025 -0.9570  0.4807 -1.3977
 4490TIP3   OH235104   1.444   1.060   1.677  0.5640 -0.2750 -0.4690
 4490TIP3    H135105   1.539   1.068   1.672  0.5235  0.4616 -0.1716
 4490TIP3    H235106   1.411   1.139   1.633  0.1110  0.3862  1.0197
 4491TIP3   OH235107   0.329   6.372   1.010  1.0267 -0.4173 -0.3639
 4491TIP3    H135108   0.342   6.293   0.958 -0.4447 -1.8752  1.3455
 4491TIP3    H235109   0.253   6.414   0.971 -0.1707 -1.5882  0.5947
 4492TIP3   OH235110   2.734   5.815   8.383 -0.0974  0.2110  0.3486
 4492TIP3    H135111   2.659   5.848   8.334 -0.3661  1.0325  1.2663
 4492TIP3    H235112   2.810   5.852   8.339 -0.2873  0.2243  0.0327
 4493TIP3   OH235113   6.282   1.466   7.558  0.2505 -0.0910  0.1994
 4493TIP3    H135114   6.209   1.462   7.620  1.5501 -0.3595  1.7680
 4493TIP3    H235115   6.355   1.426   7.604  1.3640 -0.0017 -1.4062
 4494TIP3   OH235116   5.296   4.318   8.226 -0.0043  0.0837 -0.1275
 4494TIP3    H135117   5.209   4.352   8.246 -1.5878 -3.1084 -1.0700
 4494TIP3    H235118   5.320   4.359   8.143 -1.5387 -0.5430 -0.9010
 4495TIP3   OH235119   6.322   3.040   0.658 -0.1261 -0.2346  0.6217
 4495TIP3    H135120   6.340   3.087   0.739 -0.1856  1.0242 -0.0669
 4495TIP3    H235121   6.343   3.103   0.589 -1.3127 -0.8264 -0.3105
 4496TIP3   OH235122   1.359   3.952   1.029  0.5006 -0.3977 -0.3396
 4496TIP3    H135123   1.264   3.959   1.032  0.4554 -0.5014 -1.1647
 4496TIP3    H235124   1.384   3.927   1.117 -0.3469 -1.5466 -0.3973
 4497TIP3   OH235125   0.435   2.431   7.328 -0.0522 -0.1063 -0.1554
 4497TIP3    H135126   0.348   2.396   7.345  0.2933 -0.5259  0.8502
 4497TIP3    H235127   0.468   2.380   7.254 -0.1073 -0.9397  0.3899
 4498TIP3   OH235128   5.931   1.526   0.179  0.3541 -0.3542 -0.4937
 4498TIP3    H135129   6.005   1.475   0.146 -0.1546 -0.9463 -0.7248
 4498TIP3    H235130   5.901   1.477   0.256  0.5795  0.2110 -0.0388
 4499TIP3   OH235131   4.533   0.877   7.916 -0.1708 -0.3407  0.6119
 4499TIP3    H135132   4.480   0.955   7.899 -1.0007 -0.8579  0.7437
 4499TIP3    H235133   4.470   0.812   7.947  0.6480 -0.7900  1.3707
 4500TIP3   OH235134   2.770   0.193   7.295  0.4411 -0.3098  0.1518
 4500TIP3    H135135   2.819   0.267   7.259  2.1697 -1.5055 -0.1096
 4500TIP3    H235136   2.799   0.187   7.386  0.1780 -0.5541  0.2192
 4501TIP3   OH235137   0.757   6.278   7.979  0.4036  0.0718 -0.0717
 4501TIP3    H135138   0.757   6.282   7.883  1.3385  1.7513 -0.0317
 4501TIP3    H235139   0.844   6.308   8.005  0.0977 -0.1582  1.3194
 4502TIP3   OH235140   5.194   5.465   6.459  0.2370 -0.4165  0.0520
 4502TIP3    H135141   5.195   5.433   6.549  0.4282  0.3895  0.3411
 4502TIP3    H235142   5.112   5.433   6.423  0.1573 -0.7370  0.5107
 4503TIP3   OH235143   2.555   0.065   7.611  0.0370  0.2637 -0.7697
 4503TIP3    H135144   2.485   0.086   7.673  0.3310  0.4162 -0.4881
 4503TIP3    H235145   2.540  -0.027   7.588 -0.2936  0.3143 -0.7630
 4504TIP3   OH235146   4.548   2.740   1.405 -0.1975  0.2596  0.0997
 4504TIP3    H135147   4.566   2.833   1.419  0.5635 -0.1905  2.5288
 4504TIP3    H235148   4.626   2.706   1.362  0.5021  0.3401  1.2692
 4505TIP3   OH235149   5.021   3.214   8.602 -0.4002 -0.4728  0.3702
 4505TIP3    H135150   5.015   3.163   8.521  0.3250  0.9885 -0.6500
 4505TIP3    H235151   5.099   3.268   8.590 -2.0047  2.0500  0.6859
 4506TIP3   OH235152   0.556   0.495   7.082 -0.6557 -0.2404 -0.6328
 4506TIP3    H135153   0.563   0.579   7.036  0.5795  0.3795  0.5986
 4506TIP3    H235154   0.619   0.502   7.154 -2.5821 -1.0859  1.2645
 4507TIP3   OH235155   0.892   4.975   8.194  0.1569  0.0767  0.1412
 4507TIP3    H135156   0.932   5.004   8.113  1.1312  1.7106  1.1440
 4507TIP3    H235157   0.822   5.038   8.210 -0.7887 -0.9048  0.0179
 4508TIP3   OH235158   1.753   4.294   1.798 -0.3157 -0.4003  0.4830
 4508TIP3    H135159   1.821   4.267   1.737  1.3186  2.1139  1.0857
 4508TIP3    H235160   1.786   4.373   1.840 -3.6599  1.0486  0.7392
 4509TIP3   OH235161   1.173   6.233   6.545 -0.0259  0.3314 -0.1784
 4509TIP3    H135162   1.131   6.258   6.463  0.2107 -0.9221 -0.7035
 4509TIP3    H235163   1.164   6.137   6.549  0.0200  0.3580  1.2313
 4510TIP3   OH235164   5.166   4.827   1.034 -0.2570  0.3475  0.1610
 4510TIP3    H135165   5.085   4.807   1.081 -0.4987  0.0699 -0.3742
 4510TIP3    H235166   5.233   4.779   1.083 -0.3766  0.7653  0.7459
 4511TIP3   OH235167   4.267   3.528   0.221 -0.0973 -0.1998  0.1057
 4511TIP3    H135168   4.172   3.520   0.223  0.0518 -2.4487  0.8969
 4511TIP3    H235169   4.296   3.458   0.163  1.0988  0.4461 -0.1164
 4512TIP3   OH235170   0.138   3.214   1.555 -0.0407 -0.2057 -0.0333
 4512TIP3    H135171   0.138   3.162   1.474  1.7110 -1.1549  0.5375
 4512TIP3    H235172   0.219   3.190   1.599  0.2465  2.1379  0.8496
 4513TIP3   OH235173   6.735   4.493   8.595 -0.3872 -0.0723 -0.4796
 4513TIP3    H135174   6.648   4.526   8.617 -0.5331 -0.2333 -0.8128
 4513TIP3    H235175   6.742   4.409   8.641 -0.2854  0.0861 -0.2012
 4514TIP3   OH235176   4.930   0.946   8.648  0.4194 -0.4308  0.0011
 4514TIP3    H135177   4.931   1.015   8.713 -3.8488  1.4973 -1.5756
 4514TIP3    H235178   4.971   0.985   8.570 -1.5569  0.2912 -0.7397
 4515TIP3   OH235179   6.615   5.426   7.615 -0.1632 -0.3853  0.7881
 4515TIP3    H135180   6.710   5.431   7.621  0.3205 -1.8864 -2.7918
 4515TIP3    H235181   6.595   5.461   7.528 -2.7935 -1.0073  1.0682
 4516TIP3   OH235182   0.575   2.236   1.453 -0.2505  0.1004 -0.0945
 4516TIP3    H135183   0.574   2.253   1.359 -1.0279 -0.5757 -0.2195
 4516TIP3    H235184   0.507   2.170   1.466 -0.5957  0.6462  1.0239
 4517TIP3   OH235185   1.300   5.413   8.743  0.4141 -0.2928  0.4021
 4517TIP3    H135186   1.227   5.379   8.692 -1.2509  1.7757  1.2843
 4517TIP3    H235187   1.319   5.343   8.806 -1.4270 -0.5239  0.7532
 4518TIP3   OH235188   4.695   4.652   0.333  0.6698 -0.2647 -0.5056
 4518TIP3    H135189   4.769   4.711   0.320  0.5429 -0.2587 -1.2235
 4518TIP3    H235190   4.690   4.641   0.428  0.0252  1.7380 -0.2639
 4519TIP3   OH235191   0.823   6.548   8.351 -0.2562  0.1753  0.3652
 4519TIP3    H135192   0.773   6.475   8.385  0.6332  0.1740  1.7403
 4519TIP3    H235193   0.902   6.508   8.313 -1.2581  0.1660 -1.8596
 4520TIP3   OH235194   3.053   2.908   1.195  0.2080 -0.3537 -0.9895
 4520TIP3    H135195   3.026   2.937   1.108 -2.3226 -0.3854 -0.2910
 4520TIP3    H235196   3.040   2.814   1.194 -0.4055 -0.2804 -0.4089
 4521TIP3   OH235197   3.313   0.007   7.062 -0.4248 -0.9484 -0.3224
 4521TIP3    H135198   3.359   0.070   7.006 -0.4021  0.4617  1.1951
 4521TIP3    H235199   3.222   0.035   7.058 -0.4641 -1.0123  0.1242
 4522TIP3   OH235200   4.780   0.267   0.644  0.2235  0.6301 -0.6180
 4522TIP3    H135201   4.864   0.271   0.598  0.0272 -1.5017 -1.2603
 4522TIP3    H235202   4.798   0.221   0.725 -0.2291  0.6385 -0.5083
 4523TIP3   OH235203   5.311   3.041   0.511 -0.4657 -0.1588 -0.3185
 4523TIP3    H135204   5.217   3.027   0.516 -0.5916 -0.8412 -2.8995
 4523TIP3    H235205   5.336   3.072   0.598 -3.1349  0.5582  0.2848
 4524TIP3   OH235206   3.931   6.147   0.196 -0.0882 -0.1207  0.1742
 4524TIP3    H135207   3.931   6.112   0.106  0.4958  0.6831 -0.1513
 4524TIP3    H235208   4.024   6.155   0.218 -0.2019  1.3827  0.1732
 4525TIP3   OH235209   5.512   4.799   2.426 -0.2900 -0.0523  0.3390
 4525TIP3    H135210   5.442   4.854   2.461 -0.6771 -0.4696  0.2342
 4525TIP3    H235211   5.501   4.715   2.471  0.4284  0.0184  0.6575
 4526TIP3   OH235212   0.561   1.835   0.652  0.1872  0.5484  0.5567
 4526TIP3    H135213   0.630   1.772   0.638  0.5681  0.4147  2.6507
 4526TIP3    H235214   0.551   1.839   0.747 -1.3026  2.0487  0.3947
 4527TIP3   OH235215   2.977   5.559   7.840  0.6972 -0.3359  0.2933
 4527TIP3    H135216   2.916   5.632   7.838 -0.3595 -1.1982 -2.3113
 4527TIP3    H235217   3.024   5.564   7.758 -0.1046 -3.0903 -0.4441
 4528TIP3   OH235218   0.594   2.478   0.077 -0.4965  0.0622 -0.5901
 4528TIP3    H135219   0.549   2.557   0.105 -1.5967 -0.6178 -0.3512
 4528TIP3    H235220   0.532   2.434   0.019 -0.1946 -0.9658 -0.1600
 4529TIP3   OH235221   0.421   3.226   1.250  0.0609 -0.0646 -0.1440
 4529TIP3    H135222   0.470   3.297   1.291 -0.2339  0.0512  0.0087
 4529TIP3    H235223   0.457   3.146   1.288 -1.5148  0.0873  1.8230
 4530TIP3   OH235224   0.103   3.369   7.825  0.0465 -0.1614 -0.0581
 4530TIP3    H135225   0.092   3.282   7.786 -3.0114 -0.2255  0.6600
 4530TIP3    H235226   0.171   3.358   7.892  1.0749 -1.4885 -1.2661
 4531TIP3   OH235227   1.509   2.480   7.502 -0.5200 -0.3688 -0.2987
 4531TIP3    H135228   1.577   2.532   7.460 -0.8161  0.5586  0.3182
 4531TIP3    H235229   1.429   2.533   7.493 -0.8384 -0.7252  0.3237
 4532TIP3   OH235230   6.439   1.819   0.342 -0.0532 -0.0143 -1.0252
 4532TIP3    H135231   6.354   1.794   0.307 -0.5150 -0.8295  0.5765
 4532TIP3    H235232   6.476   1.879   0.276 -2.0531  0.7500 -1.5261
 4533TIP3   OH235233   0.919   3.245   8.070 -0.1703 -0.5634  0.1623
 4533TIP3    H135234   0.923   3.286   7.984  1.9577  0.0244  0.4792
 4533TIP3    H235235   0.895   3.154   8.052 -0.2400 -0.3320 -1.0026
 4534TIP3   OH235236   2.593   2.195   8.168 -0.0902 -0.5186 -0.0621
 4534TIP3    H135237   2.677   2.159   8.141 -0.2523 -0.6477 -0.4006
 4534TIP3    H235238   2.550   2.124   8.216  0.1171 -0.3532  0.3704
 4535TIP3   OH235239   1.684   0.085   7.797 -0.5869  0.0546 -0.0812
 4535TIP3    H135240   1.668   0.058   7.707  1.2768 -0.4687 -0.2992
 4535TIP3    H235241   1.610   0.050   7.847 -0.8068 -1.0625 -1.1484
 4536TIP3   OH235242   5.992   4.391   7.173 -0.7312  0.2026 -0.1301
 4536TIP3    H135243   6.066   4.355   7.123 -0.9523  0.6566 -0.8032
 4536TIP3    H235244   5.990   4.339   7.253  0.2259  0.0796 -0.1648
 4537TIP3   OH235245   1.076   4.643   6.632 -0.7693  0.1125 -0.4456
 4537TIP3    H135246   1.011   4.575   6.619  0.4230 -1.2443  0.3737
 4537TIP3    H235247   1.132   4.639   6.555 -1.2992  0.9032 -0.8887
 4538TIP3   OH235248   5.464   4.615   6.904  0.5882  0.2630 -0.4786
 4538TIP3    H135249   5.519   4.539   6.923 -0.2755  0.2361  2.3092
 4538TIP3    H235250   5.379   4.595   6.945 -0.0017  2.2758 -0.5819
 4539TIP3   OH235251   1.854   5.193   6.625  0.4679  0.5165  0.4982
 4539TIP3    H135252   1.922   5.229   6.568 -0.0714 -0.1138 -0.5815
 4539TIP3    H235253   1.790   5.263   6.633 -0.8950 -0.2654 -2.1155
 4540TIP3   OH235254   5.404   6.216   1.726  0.2287 -0.0290 -0.0150
 4540TIP3    H135255   5.497   6.223   1.748  0.6585  0.1829 -1.8055
 4540TIP3    H235256   5.359   6.236   1.809  1.7265 -4.0604  2.0406
 4541TIP3   OH235257   5.649   1.422   7.566 -0.8909  0.8336 -0.5897
 4541TIP3    H135258   5.669   1.390   7.654 -1.5133  1.6050 -0.1563
 4541TIP3    H235259   5.724   1.476   7.543  2.3779 -4.0089 -3.0694
 4542TIP3   OH235260   3.702   0.790   1.660  0.5610 -0.5322  0.2549
 4542TIP3    H135261   3.777   0.846   1.639  0.5024 -0.4842  0.1732
 4542TIP3    H235262   3.703   0.783   1.755 -0.1639  0.6139  0.3656
 4543TIP3   OH235263   4.297   1.622   1.906  0.2907  0.6635  0.6966
 4543TIP3    H135264   4.302   1.564   1.829 -0.8375  2.3145 -0.6993
 4543TIP3    H235265   4.374   1.679   1.897  0.2217  0.7790  0.8451
 4544TIP3   OH235266   0.851   4.646   1.320  0.0776 -0.1390  0.1622
 4544TIP3    H135267   0.926   4.667   1.265 -0.8261 -0.1694 -1.1204
 4544TIP3    H235268   0.779   4.698   1.283 -0.5943 -0.2887  1.2200
 4545TIP3   OH235269   1.625   2.575   0.256 -0.0572  0.3695 -0.6673
 4545TIP3    H135270   1.529   2.574   0.257 -0.0570  0.4861  0.0228
 4545TIP3    H235271   1.648   2.520   0.182 -0.6714  1.3621 -1.6184
 4546TIP3   OH235272   2.800   1.896   0.274  0.2218 -0.5269  0.0823
 4546TIP3    H135273   2.818   1.802   0.274  0.1013 -0.5516  0.5328
 4546TIP3    H235274   2.735   1.908   0.343 -0.3199 -0.2163 -0.4758
 4547TIP3   OH235275   0.423   1.237   1.719  0.0949  0.1477 -0.3845
 4547TIP3    H135276   0.476   1.157   1.722  0.8010  0.6225  1.3806
 4547TIP3    H235277   0.485   1.308   1.732 -0.8413  0.7781  0.8746
 4548TIP3   OH235278   0.720   2.518   8.561  0.1572 -0.2463 -0.1991
 4548TIP3    H135279   0.767   2.525   8.477  0.2657  0.1867 -0.1040
 4548TIP3    H235280   0.693   2.608   8.581  1.1061 -0.1674  0.7871
 4549TIP3   OH235281   4.088   0.638   8.656  0.4344  0.7129 -0.2375
 4549TIP3    H135282   4.067   0.678   8.572 -0.9680  1.0901  0.2523
 4549TIP3    H235283   4.003   0.632   8.701  1.1793  0.6711  1.2132
 4550TIP3   OH235284   4.522   3.486   6.125 -0.4569  0.0908 -0.6323
 4550TIP3    H135285   4.448   3.424   6.126  0.5675 -1.1749  0.3791
 4550TIP3    H235286   4.518   3.529   6.210  0.9902 -1.3247  0.2158
 4551TIP3   OH235287   0.136   5.385   2.190  0.2564 -0.4361 -0.2406
 4551TIP3    H135288   0.162   5.295   2.206 -0.6429 -0.8117 -0.7682
 4551TIP3    H235289   0.218   5.431   2.172  0.5835 -1.6700 -2.3446
 4552TIP3   OH235290   1.206   4.671   8.094  0.0323  0.2450  0.1772
 4552TIP3    H135291   1.113   4.680   8.117 -0.1484  0.1866 -0.5139
 4552TIP3    H235292   1.209   4.593   8.039  0.9170 -1.4426  2.4658
 4553TIP3   OH235293   0.016   1.295   8.484 -0.4073 -1.0414 -0.2700
 4553TIP3    H135294  -0.071   1.316   8.517 -0.9085 -1.7535 -1.1148
 4553TIP3    H235295   0.001   1.248   8.402  0.7906  0.1285 -1.2177
 4554TIP3   OH235296   5.890   4.321   0.377 -0.2689  0.1988 -0.0512
 4554TIP3    H135297   5.818   4.371   0.340  0.6846  0.4513 -1.6773
 4554TIP3    H235298   5.931   4.279   0.301  1.3962  0.2139  0.7902
 4555TIP3   OH235299   1.278   6.352   8.038 -0.0112 -0.5602 -0.0582
 4555TIP3    H135300   1.323   6.295   7.975  0.0141 -0.3676 -0.2180
 4555TIP3    H235301   1.270   6.299   8.117  1.1464 -0.3626  0.2204
 4556TIP3   OH235302   2.974   6.109   8.372 -0.2693  0.4351  0.0256
 4556TIP3    H135303   2.995   6.028   8.327 -0.5574  0.7105 -0.6090
 4556TIP3    H235304   2.924   6.161   8.309  0.6602  1.4788  0.1074
 4557TIP3   OH235305   1.531   6.440   7.338  0.5880 -0.1897  0.4140
 4557TIP3    H135306   1.567   6.361   7.379 -0.7790 -1.4212 -0.6733
 4557TIP3    H235307   1.437   6.436   7.357  0.6180  1.7299  1.2008
 4558TIP3   OH235308   5.381   5.631   7.872  0.0013 -0.1934  0.0443
 4558TIP3    H135309   5.321   5.579   7.818 -0.1264 -1.5154  1.3763
 4558TIP3    H235310   5.349   5.618   7.962  1.5104  0.1112  0.6537
 4559TIP3   OH235311   6.139   4.267   8.122  1.0127 -0.2525 -0.1684
 4559TIP3    H135312   6.156   4.262   8.216 -0.2444  2.2955  0.2737
 4559TIP3    H235313   6.090   4.187   8.102  0.5202 -0.4221  1.5339
 4560TIP3   OH235314   6.757   4.169   7.561  0.2154  0.4699  0.4629
 4560TIP3    H135315   6.810   4.095   7.532 -1.1952 -0.3285 -0.1870
 4560TIP3    H235316   6.686   4.130   7.611 -0.5058  1.3786  0.1774
 4561TIP3   OH235317   4.947   0.801   1.755  0.4996  0.4421 -0.2652
 4561TIP3    H135318   4.882   0.764   1.815  0.4475 -0.4560 -0.8571
 4561TIP3    H235319   4.951   0.894   1.778 -2.4273  0.9804 -1.4735
 4562TIP3   OH235320   4.123   2.591   8.282  0.3419 -0.4440 -0.3404
 4562TIP3    H135321   4.119   2.512   8.336  2.2061 -1.4887 -1.6577
 4562TIP3    H235322   4.061   2.574   8.211  0.9978 -0.8967 -0.8151
 4563TIP3   OH235323   5.550   4.439   0.015  0.1317 -0.3140 -0.6910
 4563TIP3    H135324   5.487   4.390  -0.038 -2.1620  0.7848  0.8586
 4563TIP3    H235325   5.541   4.403   0.103  2.2047 -0.5537 -0.5193
 4564TIP3   OH235326   1.257   1.701   1.965 -0.4456 -0.2693  0.4353
 4564TIP3    H135327   1.194   1.757   2.011  0.0400  1.7672 -1.2155
 4564TIP3    H235328   1.245   1.615   2.003 -2.7566  0.5025  1.6366
 4565TIP3   OH235329   5.406   0.736   1.873  0.1439  0.4532 -0.3621
 4565TIP3    H135330   5.477   0.720   1.935  0.4407 -0.1544 -0.8409
 4565TIP3    H235331   5.414   0.665   1.809 -0.8275  0.4465 -0.4848
 4566TIP3   OH235332   3.829   5.560   6.856 -0.0258 -0.0430 -0.4119
 4566TIP3    H135333   3.821   5.547   6.950  1.0574  1.7362 -0.0127
 4566TIP3    H235334   3.739   5.570   6.825 -0.3374  1.1897  0.7772
 4567TIP3   OH235335   3.259   0.981   1.465 -0.4087  0.0383 -0.7299
 4567TIP3    H135336   3.351   0.956   1.453  1.0708  3.0076  2.6493
 4567TIP3    H235337   3.244   1.046   1.397  0.1544 -0.1164 -1.0136
 4568TIP3   OH235338   0.331   6.145   0.858 -0.0254  0.1132 -0.5944
 4568TIP3    H135339   0.376   6.142   0.774  0.8545  1.1319 -0.1788
 4568TIP3    H235340   0.238   6.138   0.836  0.2355 -0.3069 -1.5926
 4569TIP3   OH235341   6.570   4.087   0.179 -0.2772  0.5179 -0.1123
 4569TIP3    H135342   6.481   4.053   0.170 -0.1989  0.3227 -0.1404
 4569TIP3    H235343   6.561   4.180   0.157 -0.8547  0.9822  1.8502
 4570TIP3   OH235344   0.209   2.683   7.904 -0.2679  0.3370  0.2973
 4570TIP3    H135345   0.237   2.722   7.821  2.7976  2.2700  2.0624
 4570TIP3    H235346   0.113   2.691   7.902 -0.2919  0.6351 -2.8431
 4571TIP3   OH235347   4.433   4.622   1.514  0.2591 -0.2446 -0.5052
 4571TIP3    H135348   4.381   4.676   1.453  1.9768 -0.0517 -1.8630
 4571TIP3    H235349   4.475   4.686   1.571 -0.6600 -0.3869  0.3642
 4572TIP3   OH235350   3.102   2.080   6.553  0.1583  0.0859 -0.0406
 4572TIP3    H135351   3.159   2.017   6.597 -1.1307 -0.3233  1.1019
 4572TIP3    H235352   3.114   2.161   6.603  1.6613  0.7417 -1.3846
 4573TIP3   OH235353   3.558   6.710   0.397  0.0218  0.2998  0.5930
 4573TIP3    H135354   3.641   6.666   0.378 -0.1156 -0.1027  0.9133
 4573TIP3    H235355   3.508   6.700   0.316  0.1548  0.2480  0.5155
 4574TIP3   OH235356   0.618   5.793   7.742  0.4226  0.2174  0.0236
 4574TIP3    H135357   0.603   5.874   7.692  1.7834 -0.6942 -2.0072
 4574TIP3    H235358   0.591   5.815   7.831  2.4804  3.5707  0.0229
 4575TIP3   OH235359   4.992   6.361   8.725 -0.4936  0.0349  0.4838
 4575TIP3    H135360   4.985   6.298   8.653 -0.9330  0.6961 -0.0638
 4575TIP3    H235361   4.950   6.441   8.691 -0.9761  0.2611  1.5763
 4576TIP3   OH235362   5.297   2.630   0.946 -0.2493  0.1649  0.2537
 4576TIP3    H135363   5.239   2.564   0.984 -2.2001  2.0622  0.7343
 4576TIP3    H235364   5.287   2.618   0.851  0.1794 -0.8276  0.3175
 4577TIP3   OH235365   3.117   0.682   8.526  0.1981 -0.2415 -0.1244
 4577TIP3    H135366   3.096   0.774   8.537 -0.5658 -0.6062  1.8305
 4577TIP3    H235367   3.194   0.668   8.582 -0.7382 -1.1305  0.9822
 4578TIP3   OH235368   0.095   0.559   1.385 -0.6038  0.4139 -0.4783
 4578TIP3    H135369   0.106   0.469   1.415 -1.2125  0.7771  0.9231
 4578TIP3    H235370   0.168   0.573   1.325  0.4364 -0.5099  0.5109
 4579TIP3   OH235371   1.765   4.333   8.177 -0.0700  0.0153  0.2422
 4579TIP3    H135372   1.764   4.237   8.185 -0.0237  0.0188  0.2928
 4579TIP3    H235373   1.675   4.356   8.154  0.1567 -0.1375 -0.8614
 4580TIP3   OH235374   6.631   3.422   1.850 -0.4857 -0.3262  0.0127
 4580TIP3    H135375   6.692   3.483   1.892 -1.8179  0.2963  1.1294
 4580TIP3    H235376   6.618   3.458   1.762 -1.8433  1.5519  0.8887
 4581TIP3   OH235377   1.185   3.375   7.645  0.2689 -0.2272  0.6655
 4581TIP3    H135378   1.226   3.439   7.703  1.0624 -1.9575  2.1128
 4581TIP3    H235379   1.109   3.343   7.694 -1.9114  1.5976 -1.2338
 4582TIP3   OH235380   1.040   4.659   0.884 -0.1759  0.5669 -0.2909
 4582TIP3    H135381   1.100   4.721   0.843 -0.6639  1.7502  0.7398
 4582TIP3    H235382   1.096   4.585   0.909  0.4379  0.6463 -1.3566
 4583TIP3   OH235383   4.579   3.809   5.940  0.3186 -0.6295 -0.7493
 4583TIP3    H135384   4.658   3.853   5.912 -0.2735  0.7258 -0.3530
 4583TIP3    H235385   4.609   3.723   5.971  1.4750 -0.5373 -1.5816
 4584TIP3   OH235386   2.499   0.698   7.732 -0.4091 -0.4792  0.1652
 4584TIP3    H135387   2.477   0.779   7.687 -1.0114 -0.7244  0.0070
 4584TIP3    H235388   2.591   0.683   7.711 -0.4937 -0.2223 -0.4059
 4585TIP3   OH235389   4.856   5.455   6.147  0.1659  0.7904  0.0286
 4585TIP3    H135390   4.760   5.459   6.144 -0.1043  0.0734  3.5982
 4585TIP3    H235391   4.883   5.547   6.146 -0.9436  1.2809  2.9532
 4586TIP3   OH235392   3.638   1.681   0.515  0.5012 -0.1967 -0.5514
 4586TIP3    H135393   3.677   1.768   0.509 -0.1749  0.1374 -0.2047
 4586TIP3    H235394   3.646   1.645   0.427 -0.5005  0.7927 -1.0850
 4587TIP3   OH235395   0.886   2.492   2.126  0.1068  0.3028  0.0103
 4587TIP3    H135396   0.974   2.454   2.123  0.6919  1.6583 -1.3739
 4587TIP3    H235397   0.844   2.451   2.202  0.9922 -2.3781 -0.8345
 4588TIP3   OH235398   2.716   4.251   1.430  0.7730  0.6212 -0.6565
 4588TIP3    H135399   2.702   4.179   1.369  1.7449 -0.8828  0.8089
 4588TIP3    H235400   2.628   4.284   1.448  0.3753  0.3459 -1.9513
 4589TIP3   OH235401   5.382   6.173   1.237  0.1637 -0.1190  0.0957
 4589TIP3    H135402   5.338   6.229   1.173 -1.3654  0.5473  1.6397
 4589TIP3    H235403   5.311   6.121   1.275  0.7858  0.3777  2.0771
 4590TIP3   OH235404   1.252   3.156   1.830  0.4553 -0.4439  0.4770
 4590TIP3    H135405   1.313   3.138   1.901 -0.5027  0.2231  1.5144
 4590TIP3    H235406   1.171   3.181   1.874  0.7407  3.3602 -0.7455
 4591TIP3   OH235407   3.848   1.173   7.105  0.8011  0.3030 -1.0594
 4591TIP3    H135408   3.921   1.143   7.158  0.8157 -0.4201 -1.4767
 4591TIP3    H235409   3.849   1.116   7.028 -0.2474  0.2260 -1.0377
 4592TIP3   OH235410   2.505   1.390   7.882  0.3466 -0.1174  0.0286
 4592TIP3    H135411   2.576   1.386   7.818 -0.1883 -0.4088 -0.5539
 4592TIP3    H235412   2.518   1.314   7.937  1.9056  1.1130  1.4682
 4593TIP3   OH235413   3.257   5.943   2.080  0.0314 -0.0941  0.5511
 4593TIP3    H135414   3.181   5.995   2.105 -0.8829 -0.6985 -0.9239
 4593TIP3    H235415   3.277   5.970   1.990  1.0544 -0.5407  0.6250
 4594TIP3   OH235416   3.930   4.393   6.494 -0.0504 -0.0761  0.6025
 4594TIP3    H135417   3.906   4.301   6.502  0.6541 -0.2756  0.4442
 4594TIP3    H235418   3.922   4.412   6.400  1.8988 -0.5774  0.2850
 4595TIP3   OH235419   6.020   3.992   7.576  0.1160 -0.5199  0.8628
 4595TIP3    H135420   6.077   3.946   7.639 -0.2094 -1.1927  0.6764
 4595TIP3    H235421   6.049   4.083   7.580 -0.6701 -0.2937  2.8813
 4596TIP3   OH235422   3.597   5.171   8.405 -0.1157  0.4786 -0.5492
 4596TIP3    H135423   3.573   5.260   8.432  0.3356  0.5309 -0.3218
 4596TIP3    H235424   3.686   5.179   8.370  0.2044 -0.0051  0.1271
 4597TIP3   OH235425   1.878   4.044   0.687 -0.2908 -0.1418  0.3650
 4597TIP3    H135426   1.879   3.957   0.725  0.7847 -0.4527 -0.3471
 4597TIP3    H235427   1.830   4.034   0.604 -2.6080  0.5271  1.5208
 4598TIP3   OH235428   2.399   6.349   7.625  0.0472  0.4608 -0.4361
 4598TIP3    H135429   2.408   6.290   7.550 -1.2317 -0.2779 -0.0367
 4598TIP3    H235430   2.329   6.311   7.678  1.1566  0.7575  1.3437
 4599TIP3   OH235431   6.719   4.314   8.220  0.5334  0.8116  0.2156
 4599TIP3    H135432   6.781   4.307   8.293  0.0414 -1.5651  0.4755
 4599TIP3    H235433   6.771   4.347   8.147  1.9964 -0.5575  0.5838
 4600TIP3   OH235434   1.219   0.849   0.405 -0.3809 -0.4575 -0.1735
 4600TIP3    H135435   1.223   0.906   0.482 -1.0004 -0.1068 -0.3947
 4600TIP3    H235436   1.295   0.874   0.352 -1.3211  1.0521 -0.8711
 4601TIP3   OH235437   0.294   5.738   7.073 -0.4346 -0.3357 -0.0731
 4601TIP3    H135438   0.371   5.734   7.017  0.0134  0.5635  0.4588
 4601TIP3    H235439   0.326   5.714   7.160 -0.7537  0.0533  0.1534
 4602TIP3   OH235440   0.732   4.325   7.513  0.2461  0.0733  0.3318
 4602TIP3    H135441   0.656   4.361   7.467 -0.5207 -0.3585  1.2252
 4602TIP3    H235442   0.774   4.401   7.554  1.3217  0.5691 -1.5432
 4603TIP3   OH235443   4.187   3.834   1.129  0.3355 -0.0500 -0.0873
 4603TIP3    H135444   4.190   3.846   1.224 -2.7493  0.6126  0.0256
 4603TIP3    H235445   4.184   3.923   1.093  0.3549 -0.3083 -0.7500
 4604TIP3   OH235446   1.426   3.848   1.315 -0.2846 -0.0936  0.0698
 4604TIP3    H135447   1.449   3.873   1.404 -1.4845 -0.5237  0.5156
 4604TIP3    H235448   1.347   3.795   1.324 -0.4025 -0.1824 -1.2488
 4605TIP3   OH235449   2.142   5.775   0.139  0.0710 -0.4415  0.7591
 4605TIP3    H135450   2.218   5.817   0.098 -1.1068 -0.5409 -1.7504
 4605TIP3    H235451   2.094   5.848   0.179 -0.5781  0.3427 -1.2643
 4606TIP3   OH235452   0.079   1.594   7.945  0.2821 -0.3987  0.2228
 4606TIP3    H135453   0.109   1.681   7.972  1.2464 -0.6617  0.0406
 4606TIP3    H235454   0.096   1.539   8.021 -0.6615 -0.3694  0.4663
 4607TIP3   OH235455   2.435   0.525   6.745  0.0714 -0.2989  0.5223
 4607TIP3    H135456   2.515   0.572   6.725  0.5716 -0.1302  2.6641
 4607TIP3    H235457   2.456   0.433   6.728  0.1699 -0.1050 -0.4583
 4608TIP3   OH235458   2.169   3.372   2.207 -0.3923 -0.0183  0.2290
 4608TIP3    H135459   2.108   3.441   2.234  0.6783  0.2285  2.1669
 4608TIP3    H235460   2.242   3.419   2.167 -0.6844 -0.2200 -0.5824
 4609TIP3   OH235461   5.889   5.208   6.713 -0.8265 -0.1256  0.4019
 4609TIP3    H135462   5.846   5.181   6.794 -1.7095 -0.0932 -0.0424
 4609TIP3    H235463   5.852   5.151   6.646 -0.0681 -0.1842  0.0225
 4610TIP3   OH235464   5.043   6.369   2.143  0.2974 -0.2906 -0.6536
 4610TIP3    H135465   4.983   6.354   2.070 -0.3622 -1.4846  0.1017
 4610TIP3    H235466   5.002   6.440   2.194 -0.1066 -0.6073 -0.5359
 4611TIP3   OH235467   3.594   4.676   0.500 -0.1797  0.1564 -0.3032
 4611TIP3    H135468   3.563   4.715   0.581  0.2190  0.1992 -0.1682
 4611TIP3    H235469   3.670   4.623   0.526 -1.3913 -1.6766 -0.2794
 4612TIP3   OH235470   5.231   4.499   0.819  0.2106  0.0936 -0.2475
 4612TIP3    H135471   5.245   4.588   0.789 -0.6739  0.4362  0.3052
 4612TIP3    H235472   5.312   4.475   0.865 -0.2315  1.3103  1.2471
 4613TIP3   OH235473   3.139   5.490   1.550 -1.0451  0.6528 -0.0327
 4613TIP3    H135474   3.116   5.412   1.601  2.0571  1.1486  2.3682
 4613TIP3    H235475   3.095   5.562   1.595 -1.4390  0.6666 -0.4294
 4614TIP3   OH235476   5.527   4.403   0.529 -0.7405 -0.4651  0.2472
 4614TIP3    H135477   5.562   4.485   0.564  0.2475 -0.6388 -0.2929
 4614TIP3    H235478   5.532   4.341   0.602  1.6900 -0.9395 -0.2388
 4615TIP3   OH235479   2.071   4.616   7.831 -0.0367  0.3877  0.2619
 4615TIP3    H135480   2.051   4.610   7.737  2.0581  1.1911 -0.2833
 4615TIP3    H235481   2.043   4.704   7.856 -1.1990 -0.0470  0.5986
 4616TIP3   OH235482   0.371   4.159   8.352  0.1914 -0.1029 -0.1120
 4616TIP3    H135483   0.293   4.202   8.388 -0.3586 -1.4639  0.3883
 4616TIP3    H235484   0.387   4.204   8.269 -1.8675 -0.5802 -0.8352
 4617TIP3   OH235485   5.754   0.759   8.459  0.3544 -0.0776  0.3786
 4617TIP3    H135486   5.777   0.667   8.473  1.2196  0.1422  0.4682
 4617TIP3    H235487   5.830   0.808   8.492  0.5931  0.6140 -1.1045
 4618TIP3   OH235488   2.570   6.590   1.322 -0.0963 -0.1857  0.2793
 4618TIP3    H135489   2.521   6.601   1.404  0.1476 -0.1404  0.4216
 4618TIP3    H235490   2.637   6.525   1.343 -1.0491 -1.3952 -0.3435
 4619TIP3   OH235491   3.980   3.694   0.112  0.1861 -0.0866  0.1584
 4619TIP3    H135492   3.897   3.720   0.152  0.0629 -0.2042 -0.0211
 4619TIP3    H235493   4.034   3.774   0.115 -0.1318  0.1478 -0.2431
 4620TIP3   OH235494   5.297   2.437   8.023  0.3784  0.1026  0.1159
 4620TIP3    H135495   5.354   2.468   7.953  2.0361 -1.3910  0.7295
 4620TIP3    H235496   5.280   2.345   8.002 -0.9960  0.2463  0.4985
 4621TIP3   OH235497   5.229   5.251   7.120 -0.0287  0.8467  0.3662
 4621TIP3    H135498   5.161   5.210   7.066  0.8009 -1.1064  0.7116
 4621TIP3    H235499   5.191   5.254   7.208 -1.2053  3.6158 -0.1251
 4622TIP3   OH235500   3.472   0.787   7.447 -0.5786  0.1508 -0.2556
 4622TIP3    H135501   3.499   0.751   7.532 -1.9415 -1.0710 -0.3006
 4622TIP3    H235502   3.426   0.715   7.404 -1.2674  1.2244 -1.3889
 4623TIP3   OH235503   3.721   4.771   8.077  0.0347  0.0423  0.3899
 4623TIP3    H135504   3.769   4.719   8.141  0.7933  0.3078  0.0492
 4623TIP3    H235505   3.668   4.831   8.129 -0.4734 -0.7215  0.7815
 4624TIP3   OH235506   4.971   3.447   1.181 -0.1571 -0.5095 -0.6453
 4624TIP3    H135507   5.038   3.512   1.203  0.5291 -0.7740 -1.8112
 4624TIP3    H235508   4.984   3.431   1.087 -0.6343 -1.9607 -0.4867
 4625TIP3   OH235509   1.970   2.981   8.378 -0.0231 -0.4947 -0.0218
 4625TIP3    H135510   1.891   3.035   8.370 -0.4442 -1.3245 -2.1431
 4625TIP3    H235511   1.961   2.937   8.462 -0.9152  0.8088  0.5988
 4626TIP3   OH235512   1.840   4.788   1.836  0.0419 -0.0616  0.3328
 4626TIP3    H135513   1.862   4.698   1.858 -0.1102 -1.1058 -3.2692
 4626TIP3    H235514   1.924   4.832   1.830  0.1327  0.0242  1.7542
 4627TIP3   OH235515   0.637   4.880   8.409 -0.1991  0.0548  0.0904
 4627TIP3    H135516   0.596   4.930   8.338 -0.7863 -1.4686 -0.7094
 4627TIP3    H235517   0.668   4.946   8.470 -1.1880  1.3762 -0.7627
 4628TIP3   OH235518   4.273   4.108   0.854 -0.2710 -0.9921  0.0860
 4628TIP3    H135519   4.224   4.126   0.935 -0.4418 -1.0218 -0.0103
 4628TIP3    H235520   4.238   4.170   0.791 -0.1796 -1.0104  0.0171
 4629TIP3   OH235521   2.357   1.145   7.746 -0.4521  0.0817 -0.1360
 4629TIP3    H135522   2.332   1.126   7.836 -0.7442 -2.8000 -0.7232
 4629TIP3    H235523   2.452   1.134   7.745 -0.4916 -0.2601 -0.2463
 4630TIP3   OH235524   3.384   0.692   0.941 -0.2126 -0.2090 -0.1438
 4630TIP3    H135525   3.351   0.605   0.960 -0.2413 -0.0482  0.5592
 4630TIP3    H235526   3.369   0.742   1.022  0.0913  0.3588 -0.4308
 4631TIP3   OH235527   1.407   5.017   7.574  0.2590 -0.0691 -0.3241
 4631TIP3    H135528   1.490   4.975   7.598 -1.6854 -3.6536  0.9185
 4631TIP3    H235529   1.383   5.068   7.652 -0.4392 -2.2055  0.9562
 4632TIP3   OH235530   0.633   1.050   7.985  0.4159  0.0726 -0.3374
 4632TIP3    H135531   0.550   1.006   7.969  0.1500  0.6776 -0.6369
 4632TIP3    H235532   0.697   1.002   7.932  0.0208  0.4190 -1.1355
 4633TIP3   OH235533   0.887   0.315   7.921  0.0437  0.5188 -0.2557
 4633TIP3    H135534   0.962   0.344   7.868 -0.2204  1.1980 -0.2647
 4633TIP3    H235535   0.853   0.395   7.961  0.1646  0.0339  0.8592
 4634TIP3   OH235536   5.900   0.513   0.946  0.5075 -0.1870  0.2017
 4634TIP3    H135537   5.875   0.424   0.969  1.7501 -0.4511  0.6258
 4634TIP3    H235538   5.823   0.549   0.902 -0.3213 -1.1711  0.8029
 4635TIP3   OH235539   0.792   6.188   0.514 -0.0337 -0.3902  0.6574
 4635TIP3    H135540   0.727   6.249   0.548 -0.8051 -0.6506 -0.3098
 4635TIP3    H235541   0.766   6.103   0.549  0.7661 -0.2685  1.6144
 4636TIP3   OH235542   0.536   0.639   1.086 -0.0564  0.2416 -0.2203
 4636TIP3    H135543   0.457   0.598   1.050 -0.1980 -1.0561  1.4087
 4636TIP3    H235544   0.510   0.665   1.175  1.0815  0.6488 -0.0006
 4637TIP3   OH235545   2.831   3.504   7.920  0.0864  0.2678 -0.2362
 4637TIP3    H135546   2.791   3.561   7.855  0.2620  0.7356  0.0627
 4637TIP3    H235547   2.764   3.492   7.987 -0.3315 -0.7474 -0.8079
 4638TIP3   OH235548   2.903   5.399   8.324  0.1115  0.1223 -0.0323
 4638TIP3    H135549   2.892   5.467   8.391 -2.1140  0.9269 -1.1104
 4638TIP3    H235550   2.898   5.446   8.241 -0.9851 -1.2723 -0.7983
 4639TIP3   OH235551   1.027   5.857   8.109  0.0492  0.0278 -0.6144
 4639TIP3    H135552   1.005   5.768   8.080  0.7715 -0.1988 -0.4971
 4639TIP3    H235553   0.982   5.915   8.048  0.1594 -0.4253 -1.1314
 4640TIP3   OH235554   0.550   2.120   7.895 -0.1471  0.0333 -0.0108
 4640TIP3    H135555   0.628   2.064   7.894 -0.0842  0.1180  0.1389
 4640TIP3    H235556   0.585   2.209   7.890 -0.2228  0.0848  0.3664
 4641TIP3   OH235557   0.090   5.510   0.256  0.1350  0.1724  0.6555
 4641TIP3    H135558   0.014   5.566   0.277  0.1769 -0.4399  2.6453
 4641TIP3    H235559   0.070   5.426   0.297  1.9795  0.0692  1.4456
 4642TIP3   OH235560   3.968   2.839   7.948 -0.2345  0.0366 -0.3290
 4642TIP3    H135561   3.889   2.785   7.938 -0.3885  0.2780 -0.4123
 4642TIP3    H235562   4.020   2.793   8.014 -1.2522  0.8112  1.0610
 4643TIP3   OH235563   5.879   0.873   7.359  0.2766  0.1490  0.8262
 4643TIP3    H135564   5.935   0.905   7.429  0.3026 -0.3884  1.0520
 4643TIP3    H235565   5.848   0.788   7.389  0.2830 -0.0860  0.1899
 4644TIP3   OH235566   2.947   1.636   1.230 -0.3529  0.2728 -0.0246
 4644TIP3    H135567   2.863   1.644   1.185  0.1064  0.4444 -0.8733
 4644TIP3    H235568   2.996   1.572   1.179 -0.1184 -0.1386  0.7076
 4645TIP3   OH235569   3.504   5.733   1.586 -0.7416  0.1402  0.4012
 4645TIP3    H135570   3.451   5.790   1.531  0.1594  1.0817  0.4827
 4645TIP3    H235571   3.551   5.793   1.645  0.7853 -0.6228 -0.0009
 4646TIP3   OH235572   2.293   5.549   7.749 -0.1643 -0.4077 -0.6586
 4646TIP3    H135573   2.214   5.602   7.742 -0.1541 -0.2278  0.4768
 4646TIP3    H235574   2.310   5.542   7.843  2.1624  1.0092 -0.8983
 4647TIP3   OH235575   1.325   5.414   0.668  0.0228  1.0947 -0.5007
 4647TIP3    H135576   1.231   5.401   0.684  0.3329 -0.6482  0.1094
 4647TIP3    H235577   1.337   5.386   0.577 -0.1606  2.0327 -0.8215
 4648TIP3   OH235578   4.559   0.303   7.481  0.2343 -0.0087 -0.4742
 4648TIP3    H135579   4.481   0.319   7.428 -0.3700 -2.1284 -0.3125
 4648TIP3    H235580   4.534   0.326   7.570 -0.5374 -1.5065 -0.2774
 4649TIP3   OH235581   5.232   0.852   0.335 -0.3150  0.0161 -0.4866
 4649TIP3    H135582   5.179   0.793   0.281 -0.1627  0.2431 -0.8906
 4649TIP3    H235583   5.210   0.828   0.425 -2.2580  1.1341 -0.6186
 4650TIP3   OH235584   4.380   1.451   1.710  0.6744 -0.0592 -0.4467
 4650TIP3    H135585   4.446   1.383   1.714 -1.7649 -2.6028 -0.3022
 4650TIP3    H235586   4.356   1.457   1.618  1.4192  1.2343 -0.5788
 4651TIP3   OH235587   5.781   1.401   6.454  0.2324  0.0856 -0.2592
 4651TIP3    H135588   5.696   1.359   6.473  0.1999 -0.5612 -1.7366
 4651TIP3    H235589   5.760   1.494   6.447  0.1025  0.2775  1.8610
 4652TIP3   OH235590   6.319   6.274   8.129  0.7232  0.3545 -0.4489
 4652TIP3    H135591   6.269   6.344   8.086  1.0915  0.5953 -0.4816
 4652TIP3    H235592   6.264   6.196   8.118  0.1992  0.6803 -0.2065
 4653TIP3   OH235593   3.783   2.590   7.591  0.2020  0.5502  0.3742
 4653TIP3    H135594   3.714   2.654   7.575 -0.2897  0.2380  1.1646
 4653TIP3    H235595   3.864   2.635   7.570 -0.2096  1.0975 -0.0507
 4654TIP3   OH235596   6.494   3.240   0.786 -0.2846 -0.1345  0.0456
 4654TIP3    H135597   6.499   3.245   0.881  1.9137 -0.5659  0.0087
 4654TIP3    H235598   6.434   3.310   0.761  0.4196  1.1053  1.6585
 4655TIP3   OH235599   6.490   5.928   0.499  0.2279 -0.3693 -0.7447
 4655TIP3    H135600   6.443   5.995   0.549  0.4672 -0.4838 -0.3612
 4655TIP3    H235601   6.425   5.893   0.438 -0.3099 -0.8178  0.0626
 4656TIP3   OH235602   2.147   2.894   7.769  0.1156  0.2120  0.3166
 4656TIP3    H135603   2.170   2.907   7.677 -1.1936  3.1625  0.2921
 4656TIP3    H235604   2.118   2.980   7.799 -0.7758 -0.9526  3.1516
 4657TIP3   OH235605   0.335   5.059   7.673 -0.3213  0.5301 -0.7144
 4657TIP3    H135606   0.407   5.112   7.706  2.5370 -3.7123  0.6476
 4657TIP3    H235607   0.279   5.042   7.749 -1.1500  1.3940 -1.1115
 4658TIP3   OH235608   1.365   4.484   0.388  0.4128 -0.2575 -0.3768
 4658TIP3    H135609   1.276   4.451   0.378 -0.0683  0.9495 -0.2152
 4658TIP3    H235610   1.364   4.569   0.345  0.9384  0.6803  1.3657
 4659TIP3   OH235611   4.659   1.876   1.587  0.1753  0.4002  0.1249
 4659TIP3    H135612   4.633   1.940   1.520 -0.8875 -0.3654 -0.2125
 4659TIP3    H235613   4.590   1.880   1.652 -0.1529 -0.7486 -0.1353
 4660TIP3   OH235614   5.941   1.714   1.274 -0.3312 -0.1560 -0.1536
 4660TIP3    H135615   5.903   1.640   1.321  0.2373  0.5956  1.5867
 4660TIP3    H235616   5.991   1.674   1.202  0.2096 -1.4860  0.9172
 4661TIP3   OH235617   0.970   5.593   7.663  0.1626  0.0040 -0.7576
 4661TIP3    H135618   0.955   5.533   7.736  2.9152 -1.8397 -1.5652
 4661TIP3    H235619   0.912   5.563   7.594 -0.8664  0.4004 -0.0894
 4662TIP3   OH235620   4.998   1.852   6.645  0.0725  0.3202  0.2481
 4662TIP3    H135621   4.938   1.816   6.710 -0.2393 -0.0241 -0.2282
 4662TIP3    H235622   5.045   1.776   6.611  1.1755  0.6396  1.0029
 4663TIP3   OH235623   3.152   0.900   6.415  0.3383  0.3793  0.3032
 4663TIP3    H135624   3.174   0.820   6.463 -1.4475 -1.8716 -2.2897
 4663TIP3    H235625   3.059   0.913   6.431  0.3771  1.3115 -0.1720
 4664TIP3   OH235626   3.484   6.116   7.040  0.2540 -0.1013 -0.2290
 4664TIP3    H135627   3.562   6.156   7.003 -0.2699  0.8676 -0.3043
 4664TIP3    H235628   3.411   6.164   7.001 -0.4519 -1.8579 -1.2120
 4665TIP3   OH235629   1.700   0.351   8.358 -0.2458 -0.4653  0.3941
 4665TIP3    H135630   1.761   0.415   8.321 -0.1255 -0.9886 -0.3266
 4665TIP3    H235631   1.613   0.391   8.344 -0.0956  0.2062  1.2811
 4666TIP3   OH235632   1.819   3.687   1.214  0.4642  0.0573 -0.3607
 4666TIP3    H135633   1.787   3.776   1.200  1.4470  1.0002  2.5834
 4666TIP3    H235634   1.908   3.688   1.179 -0.4591 -0.6819 -2.8782
 4667TIP3   OH235635   1.163   0.586   1.693 -0.1480 -0.2437 -0.1127
 4667TIP3    H135636   1.223   0.634   1.637  0.9153 -1.8167 -0.4027
 4667TIP3    H235637   1.081   0.583   1.644 -0.4326  1.7251  0.1832
 4668TIP3   OH235638   2.335   1.950   7.967  0.5892 -0.0803  0.1576
 4668TIP3    H135639   2.412   2.003   7.945  0.2846  0.6960  0.9313
 4668TIP3    H235640   2.322   1.895   7.890  2.8144 -1.3218  0.5820
 4669TIP3   OH235641   2.046   6.334   8.806  0.5991  0.0886  0.1576
 4669TIP3    H135642   1.984   6.356   8.875 -0.7137  0.2818 -1.0405
 4669TIP3    H235643   2.002   6.359   8.725  1.6046 -1.2444 -0.8468
 4670TIP3   OH235644   3.791   6.571   6.523  0.3745  0.1077 -0.0157
 4670TIP3    H135645   3.742   6.490   6.512  1.4422 -0.6557  0.7283
 4670TIP3    H235646   3.723   6.638   6.534 -0.5167 -0.6411 -0.7803
 4671TIP3   OH235647   1.024   6.404   7.928 -0.4493 -0.3582  0.6998
 4671TIP3    H135648   1.113   6.402   7.964  0.3439  2.1841 -0.9055
 4671TIP3    H235649   0.990   6.490   7.953 -0.9299  0.3277 -2.0620
 4672TIP3   OH235650   6.106   1.079   1.144 -0.8428  0.3796  0.2332
 4672TIP3    H135651   6.038   1.124   1.194 -1.3211  0.5534 -0.5501
 4672TIP3    H235652   6.181   1.074   1.204 -1.2870  0.8721  0.8455
 4673TIP3   OH235653   1.615   2.451   1.273  0.1710  0.1346 -0.2859
 4673TIP3    H135654   1.639   2.472   1.183  1.0411 -0.7450 -0.2684
 4673TIP3    H235655   1.687   2.397   1.305 -0.6834 -0.5211  0.5643
 4674TIP3   OH235656   3.473   6.298   1.564  0.2408 -0.6346  0.6024
 4674TIP3    H135657   3.440   6.233   1.626  0.6448 -1.8855 -0.4397
 4674TIP3    H235658   3.526   6.247   1.503 -0.2995  0.5029 -0.8755
 4675TIP3   OH235659   4.419   1.261   8.365  0.0105  0.1890  0.5370
 4675TIP3    H135660   4.422   1.184   8.423  2.2868  1.0999  1.7563
 4675TIP3    H235661   4.422   1.224   8.277  4.6126 -1.2734  1.0454
 4676TIP3   OH235662   4.756   6.048   1.505  0.1581  0.0860  0.4036
 4676TIP3    H135663   4.735   5.968   1.552 -0.2723  0.1970  0.4052
 4676TIP3    H235664   4.774   6.113   1.573  0.5608 -0.0206  0.4018
 4677TIP3   OH235665   6.314   1.639   8.559  0.0022  0.5151  1.0715
 4677TIP3    H135666   6.310   1.671   8.469  1.1944 -0.3298  0.7013
 4677TIP3    H235667   6.223   1.637   8.587 -0.2666  2.2799  0.4298
 4678TIP3   OH235668   1.562   4.605   6.969  0.6471 -0.0916 -0.4760
 4678TIP3    H135669   1.513   4.551   6.908  0.8995 -0.4266 -0.3808
 4678TIP3    H235670   1.648   4.617   6.928  1.0523 -0.8849  0.1215
 4679TIP3   OH235671   3.608   6.670   1.275  0.8527  0.2056 -0.3986
 4679TIP3    H135672   3.696   6.666   1.239  0.8933 -1.2063 -0.2041
 4679TIP3    H235673   3.612   6.738   1.341  2.6616 -1.8158  1.7651
 4680TIP3   OH235674   6.632   3.634   1.653  0.8330  0.3999  0.0427
 4680TIP3    H135675   6.715   3.677   1.633  0.4115  1.1809 -0.0626
 4680TIP3    H235676   6.582   3.699   1.701  0.7248 -0.4736  1.1646
 4681TIP3   OH235677   6.733   2.010   1.938 -0.6349  0.0995  0.1889
 4681TIP3    H135678   6.813   1.957   1.940 -0.6412  0.0122 -1.0396
 4681TIP3    H235679   6.666   1.951   1.902 -0.1219  1.4988 -3.4713
 4682TIP3   OH235680   5.331   2.339   7.699 -0.1865  0.5494 -0.1280
 4682TIP3    H135681   5.391   2.308   7.632 -0.6752  0.3531 -0.4751
 4682TIP3    H235682   5.244   2.332   7.660 -0.4602  0.6249  0.4491
 4683TIP3   OH235683   0.488   3.536   1.469 -0.4352  0.1833  0.2547
 4683TIP3    H135684   0.579   3.551   1.443 -0.7603 -0.9112 -1.6801
 4683TIP3    H235685   0.437   3.560   1.392 -1.5835 -1.6298  0.3869
 4684TIP3   OH235686   1.919   5.248   8.043  0.1257 -0.2640  0.6392
 4684TIP3    H135687   1.982   5.218   8.109  0.4170  0.2681  0.6105
 4684TIP3    H235688   1.966   5.237   7.959  0.2081  0.1908  0.6230
 4685TIP3   OH235689   1.681   1.115   7.281  0.1182 -0.5519 -0.6220
 4685TIP3    H135690   1.667   1.125   7.187 -0.5968 -2.3712 -0.7493
 4685TIP3    H235691   1.704   1.202   7.311  1.9431 -0.2278 -2.7355
 4686TIP3   OH235692   4.099   6.219   6.959  0.2672 -0.3741 -0.6198
 4686TIP3    H135693   4.036   6.217   7.031  0.0422  0.4757 -0.7849
 4686TIP3    H235694   4.054   6.266   6.889  1.7537  2.0727 -0.0563
 4687TIP3   OH235695   0.544   3.299   6.725  0.6455 -0.4756  0.3487
 4687TIP3    H135696   0.472   3.322   6.666  1.6508 -1.0059 -1.1414
 4687TIP3    H235697   0.515   3.219   6.769 -0.6245  0.5868  1.5452
 4688TIP3   OH235698   2.312   0.869   1.216 -0.1523 -0.3590 -0.5950
 4688TIP3    H135699   2.230   0.838   1.179  0.1650 -3.2905  0.8848
 4688TIP3    H235700   2.380   0.827   1.164  0.4532  1.4300 -1.3150
 4689TIP3   OH235701   5.090   3.326   7.067 -0.5489  0.0301  0.1861
 4689TIP3    H135702   5.083   3.253   7.128 -1.1449  0.5626  0.7687
 4689TIP3    H235703   5.015   3.382   7.088 -0.3113  0.6206 -0.5049
 4690TIP3   OH235704   5.182   6.597   0.780  0.0080  0.4074  0.0079
 4690TIP3    H135705   5.237   6.643   0.716  1.7908 -1.4579  0.1099
 4690TIP3    H235706   5.222   6.511   0.789 -3.0641 -1.1590 -0.0293
 4691TIP3   OH235707   2.810   0.214   0.946  0.1660  0.2065 -0.1460
 4691TIP3    H135708   2.786   0.307   0.952 -1.1010 -0.1103 -0.0999
 4691TIP3    H235709   2.746   0.169   1.000  2.3546 -0.4991  2.0328
 4692TIP3   OH235710   1.226   6.747   8.310 -0.2961  0.0151 -0.4921
 4692TIP3    H135711   1.157   6.813   8.321  0.2674  0.4260  0.7962
 4692TIP3    H235712   1.271   6.772   8.230  1.5219  2.7976  1.2239
 4693TIP3   OH235713   5.487   0.823   8.447 -0.5498 -0.6603  0.1846
 4693TIP3    H135714   5.581   0.831   8.433 -0.7615  2.3593 -0.0277
 4693TIP3    H235715   5.449   0.828   8.360 -0.9512 -1.1928  0.3244
 4694TIP3   OH235716   0.845   1.013   7.351  0.4848  0.1124 -0.2961
 4694TIP3    H135717   0.907   1.069   7.397  1.4856 -0.9652 -0.3024
 4694TIP3    H235718   0.830   0.939   7.410 -0.1755 -0.0344 -0.6318
 4695TIP3   OH235719   5.707   5.036   7.464  0.8332  0.2008  0.3813
 4695TIP3    H135720   5.753   4.986   7.531  1.4297 -0.6252 -0.6178
 4695TIP3    H235721   5.628   4.985   7.447  1.8236 -0.8788 -1.2078
 4696TIP3   OH235722   3.193   5.984   0.843  0.4492 -0.2896 -0.3578
 4696TIP3    H135723   3.167   5.955   0.755  2.6188 -2.1386 -0.4911
 4696TIP3    H235724   3.126   5.949   0.901  0.0244 -0.7139 -1.0872
 4697TIP3   OH235725   5.608   1.688   1.240 -0.1681  0.4346 -0.4803
 4697TIP3    H135726   5.665   1.693   1.317 -1.6669 -0.6346  0.7660
 4697TIP3    H235727   5.537   1.749   1.260 -0.2728  0.5829 -1.2896
 4698TIP3   OH235728   6.502   2.543   8.305  0.5895  0.0945  0.3765
 4698TIP3    H135729   6.543   2.581   8.228 -1.2836  0.0926 -0.6689
 4698TIP3    H235730   6.459   2.463   8.274 -0.7793  0.4531  1.2468
 4699TIP3   OH235731   6.470   4.131   8.080 -0.0921 -0.0028  0.3655
 4699TIP3    H135732   6.444   4.071   8.010 -1.7471  2.3079 -1.1424
 4699TIP3    H235733   6.519   4.077   8.141 -1.4879 -2.8708 -0.8858
 4700TIP3   OH235734   0.220   4.908   8.524  0.1592  0.5714  0.7534
 4700TIP3    H135735   0.252   4.923   8.613  1.6567 -1.8067  0.7116
 4700TIP3    H235736   0.126   4.928   8.528  0.1399  0.2446  2.9513
 4701TIP3   OH235737   2.825   3.371   6.504 -0.6547 -0.4453 -0.6383
 4701TIP3    H135738   2.776   3.372   6.587  0.2391 -0.9167 -0.0996
 4701TIP3    H235739   2.757   3.377   6.437 -1.3154  2.5406  0.1226
 4702TIP3   OH235740   4.380   5.487   0.992 -0.4819 -0.7881  0.3455
 4702TIP3    H135741   4.317   5.419   1.015 -1.6709  0.4995  1.0490
 4702TIP3    H235742   4.426   5.507   1.074 -1.4738  0.5493  0.6152
 4703TIP3   OH235743   4.279   0.053   7.811 -0.1761 -0.7239  0.3199
 4703TIP3    H135744   4.268   0.028   7.902  0.8048 -1.6804  0.1877
 4703TIP3    H235745   4.368   0.028   7.789 -0.8376 -1.8581 -1.3095
 4704TIP3   OH235746   3.292   5.640   0.480 -0.2791  0.7391  0.0189
 4704TIP3    H135747   3.299   5.736   0.488 -0.3132  0.7216  0.2768
 4704TIP3    H235748   3.348   5.618   0.406 -0.9914  1.0595 -0.6279
 4705TIP3   OH235749   0.654   1.486   1.386 -0.0811  0.0479  0.1467
 4705TIP3    H135750   0.714   1.472   1.459 -0.6004 -0.2231  0.5220
 4705TIP3    H235751   0.626   1.398   1.360  0.8328  0.0687 -1.0066
 4706TIP3   OH235752   0.395   0.066   8.525 -0.0025  0.9032  0.2188
 4706TIP3    H135753   0.444   0.130   8.575  0.9342  2.0443 -2.0117
 4706TIP3    H235754   0.462   0.008   8.487 -0.8534 -2.3429  3.1688
 4707TIP3   OH235755   3.662   5.228   6.860  0.3988  0.0053 -0.0947
 4707TIP3    H135756   3.655   5.254   6.952  0.2878 -0.1052 -0.0720
 4707TIP3    H235757   3.615   5.145   6.855  0.7698 -0.2039 -0.1629
 4708TIP3   OH235758   6.115   4.163   0.012 -0.3343 -0.1813  0.1417
 4708TIP3    H135759   6.175   4.238   0.011 -0.2320 -0.2294  1.0165
 4708TIP3    H235760   6.033   4.198   0.047 -1.4253  0.2728 -2.6494
 4709TIP3   OH235761   0.006   2.297   1.082  0.4777  0.1757  0.2320
 4709TIP3    H135762  -0.052   2.234   1.038  2.2353 -1.3672  0.0194
 4709TIP3    H235763   0.037   2.354   1.011  0.5018 -0.0201  0.0853
 4710TIP3   OH235764   0.643   1.908   1.303 -0.7359  0.3317 -0.0460
 4710TIP3    H135765   0.710   1.967   1.339 -0.1823 -0.7107  0.6829
 4710TIP3    H235766   0.692   1.831   1.274 -1.5793 -0.2649  0.0827
 4711TIP3   OH235767   1.912   0.649   0.635 -0.3336  0.2933 -0.3099
 4711TIP3    H135768   1.977   0.589   0.599  0.0847  0.9623 -0.6798
 4711TIP3    H235769   1.853   0.666   0.561 -1.6923 -1.3017  0.3469
 4712TIP3   OH235770   5.623   2.931   7.031 -0.1197  0.2809 -0.1493
 4712TIP3    H135771   5.539   2.913   6.988 -0.0689  0.4020 -0.2990
 4712TIP3    H235772   5.628   3.026   7.036  0.0566  0.2749 -0.2316
 4713TIP3   OH235773   0.552   6.511   8.522 -0.1930 -0.3512 -0.1578
 4713TIP3    H135774   0.509   6.559   8.593 -0.2734 -0.4979 -0.1084
 4713TIP3    H235775   0.516   6.423   8.527  0.6023 -0.6689  0.3052
 4714TIP3   OH235776   4.145   5.723   1.296 -0.5305 -0.2600  0.1097
 4714TIP3    H135777   4.182   5.809   1.276  0.0642 -0.8565 -1.5178
 4714TIP3    H235778   4.055   5.729   1.266 -0.0136 -0.7152 -1.6658
 4715TIP3   OH235779   5.946   3.645   7.462  0.2897 -0.0325  0.0223
 4715TIP3    H135780   5.920   3.706   7.531  1.3938 -1.2238  1.5537
 4715TIP3    H235781   5.872   3.584   7.456 -1.2153  1.8124 -2.1199
 4716TIP3   OH235782   0.919   4.266   7.195  0.3803 -0.2463 -0.3654
 4716TIP3    H135783   0.975   4.259   7.272 -0.3202 -1.3941  0.0681
 4716TIP3    H235784   0.843   4.317   7.226  0.3582 -0.2295 -0.4485
 4717TIP3   OH235785   0.124   0.414   0.694 -0.1466  0.7848 -0.4737
 4717TIP3    H135786   0.110   0.367   0.612  1.5661 -0.5105 -0.0667
 4717TIP3    H235787   0.218   0.407   0.710 -0.3590  1.5224  1.3001
 4718TIP3   OH235788   3.579   4.475   8.773  0.2355  0.6187  0.2053
 4718TIP3    H135789   3.567   4.560   8.730 -0.4967  0.2233 -0.4007
 4718TIP3    H235790   3.569   4.494   8.866 -0.6722  1.0948  0.0330
 4719TIP3   OH235791   2.310   4.868   0.130  0.5097  0.1269 -0.4513
 4719TIP3    H135792   2.297   4.895   0.039  0.7933 -1.5777 -1.0311
 4719TIP3    H235793   2.405   4.871   0.143  0.6723 -1.6523 -0.9224
 4720TIP3   OH235794   5.304   2.915   2.545 -0.1414 -0.2336  0.1023
 4720TIP3    H135795   5.349   2.980   2.599 -0.3032  0.3215 -0.4292
 4720TIP3    H235796   5.232   2.884   2.600 -0.1087  0.0918  0.3281
 4721TIP3   OH235797   4.687   6.758   0.596  0.2382  0.1828 -0.0449
 4721TIP3    H135798   4.749   6.703   0.643 -0.1459 -0.4787 -0.2981
 4721TIP3    H235799   4.602   6.719   0.614 -0.4757  2.6051  2.4979
 4722TIP3   OH235800   1.776   5.098   0.429  0.1138  0.6773 -0.3473
 4722TIP3    H135801   1.690   5.104   0.386 -1.0970 -3.3479  1.0529
 4722TIP3    H235802   1.789   5.184   0.469 -3.4074  1.4116 -0.4576
 4723TIP3   OH235803   4.181   2.661   7.052 -0.0305 -0.4611 -0.5331
 4723TIP3    H135804   4.096   2.705   7.053  1.2496  2.2187  1.1964
 4723TIP3    H235805   4.170   2.588   7.114 -0.4708  1.2955  1.5925
 4724TIP3   OH235806   1.826   5.593   1.428  0.5142  0.0457 -0.0805
 4724TIP3    H135807   1.792   5.679   1.455  1.6334  0.6782 -0.6352
 4724TIP3    H235808   1.771   5.530   1.475 -0.2153  1.0631  0.4699
 4725TIP3   OH235809   3.818   3.396   0.333 -0.2034 -0.1337  0.2495
 4725TIP3    H135810   3.755   3.450   0.286 -0.7168 -0.9384 -0.0255
 4725TIP3    H235811   3.895   3.394   0.277 -1.4132 -2.5159 -1.5392
 4726TIP3   OH235812   4.637   6.659   0.259  0.3628  1.0867  0.5562
 4726TIP3    H135813   4.694   6.693   0.329  0.6750 -0.3278  1.0248
 4726TIP3    H235814   4.591   6.736   0.226  0.6795  1.8837  1.8977
 4727TIP3   OH235815   3.467   0.055   7.598 -0.7341  0.2381  0.0108
 4727TIP3    H135816   3.478  -0.022   7.542 -1.2965  0.4424 -0.3957
 4727TIP3    H235817   3.503   0.029   7.683 -2.1960 -0.9795  0.2959
 4728TIP3   OH235818   1.259   6.115   6.935 -0.7591  0.2414  0.2659
 4728TIP3    H135819   1.194   6.050   6.960 -2.2498  1.1212 -1.1224
 4728TIP3    H235820   1.291   6.087   6.849  2.2157 -1.2177  1.6739
 4729TIP3   OH235821   0.704   1.216   8.401  0.4597 -0.5293 -0.1573
 4729TIP3    H135822   0.740   1.270   8.331  2.0326 -1.0934  0.1559
 4729TIP3    H235823   0.757   1.238   8.478 -0.7678 -0.4384  0.6827
 4730TIP3   OH235824   1.971   5.511   6.927  0.7493 -0.3476  0.3713
 4730TIP3    H135825   2.018   5.433   6.957 -0.0890 -0.8485  0.4002
 4730TIP3    H235826   1.998   5.522   6.836 -0.7565 -1.9546 -0.3248
 4731TIP3   OH235827   4.107   5.523   8.695  0.2535  0.4215  0.0873
 4731TIP3    H135828   4.119   5.449   8.755  1.2301  0.6580  0.1971
 4731TIP3    H235829   4.059   5.588   8.747  0.3927  0.3096  0.3625
 4732TIP3   OH235830   1.299   4.181   6.568  0.0578  0.0966 -0.0788
 4732TIP3    H135831   1.265   4.232   6.495  1.3035 -1.1989 -1.6416
 4732TIP3    H235832   1.367   4.125   6.529 -1.0369 -2.5810  1.5322
 4733TIP3   OH235833   0.860   5.254   8.378  0.1488 -0.9251 -0.1765
 4733TIP3    H135834   0.843   5.235   8.470 -1.2074  0.8799 -0.0040
 4733TIP3    H235835   0.785   5.219   8.331 -0.3581  0.2533 -0.2923
 4734TIP3   OH235836   4.439   5.156   6.864 -0.1117  0.1889  0.7445
 4734TIP3    H135837   4.413   5.124   6.777  0.1894  2.2169 -0.1388
 4734TIP3    H235838   4.356   5.162   6.913 -0.2857 -0.9234  0.6172
 4735TIP3   OH235839   4.416   4.030   1.614  0.2983  0.0714 -0.0296
 4735TIP3    H135840   4.398   4.121   1.593  2.2237 -0.0042 -2.4847
 4735TIP3    H235841   4.460   4.033   1.698 -1.1983  1.1984  0.7550
 4736TIP3   OH235842   2.912   4.664   0.799  0.3367  0.4640 -0.0646
 4736TIP3    H135843   2.820   4.686   0.789  0.2681  0.5257  0.6371
 4736TIP3    H235844   2.921   4.640   0.891  1.0495  0.5923 -0.0928
 4737TIP3   OH235845   3.768   0.717   7.464  0.1928  0.3946  0.0051
 4737TIP3    H135846   3.725   0.638   7.431 -0.1444  0.7573 -0.4335
 4737TIP3    H235847   3.857   0.713   7.429 -0.2819  0.9935 -1.3545
 4738TIP3   OH235848   5.354   4.691   7.208 -0.3488 -0.1757 -0.4786
 4738TIP3    H135849   5.305   4.665   7.130  0.3664 -0.5461 -0.8097
 4738TIP3    H235850   5.364   4.610   7.258  1.3537 -0.4551 -1.2159
 4739TIP3   OH235851   6.586   5.886   7.992 -0.2419 -0.3429 -0.2973
 4739TIP3    H135852   6.672   5.855   7.966 -0.1676  0.1137 -0.6063
 4739TIP3    H235853   6.601   5.974   8.026 -0.1184 -1.4080  2.6508
 4740TIP3   OH235854   3.719   1.189   8.402 -0.3404 -0.5586  0.7348
 4740TIP3    H135855   3.777   1.258   8.434  0.4786  0.7031 -2.9976
 4740TIP3    H235856   3.631   1.223   8.414  0.0546  1.2102 -1.0142
 4741TIP3   OH235857   2.801   2.828   7.426  0.5746  0.4611 -0.6164
 4741TIP3    H135858   2.875   2.771   7.405  0.3287 -0.4162  0.8262
 4741TIP3    H235859   2.805   2.840   7.520 -2.5348 -1.6668 -0.0446
 4742TIP3   OH235860   4.483   5.977   0.116 -0.2611  0.0145 -0.1940
 4742TIP3    H135861   4.480   6.007   0.025  1.5943 -0.9619 -0.6296
 4742TIP3    H235862   4.520   6.051   0.165 -1.1377  0.4938 -0.2519
 4743TIP3   OH235863   0.270   4.198   1.613 -0.7956 -0.0928 -0.1846
 4743TIP3    H135864   0.294   4.119   1.564  0.9694  1.1534 -1.4710
 4743TIP3    H235865   0.309   4.269   1.563  1.1140  1.3021  3.0537
 4744TIP3   OH235866   4.419   3.221   8.231 -0.0684 -0.4971  0.1544
 4744TIP3    H135867   4.491   3.196   8.289  1.2518  1.1592 -0.6829
 4744TIP3    H235868   4.344   3.232   8.288  0.7133 -0.7638  1.2644
 4745TIP3   OH235869   5.641   2.332   0.276  0.3871 -0.0280  0.2767
 4745TIP3    H135870   5.669   2.306   0.364 -0.7142 -2.9000 -0.1026
 4745TIP3    H235871   5.683   2.417   0.261  0.8003  0.4517  3.4542
 4746TIP3   OH235872   1.797   4.086   1.596 -0.0355  0.1917  0.8827
 4746TIP3    H135873   1.812   4.038   1.677 -1.7908 -0.4072  0.8855
 4746TIP3    H235874   1.703   4.079   1.580  0.3382 -0.3319 -1.5786
 4747TIP3   OH235875   1.893   4.308   0.468  0.2252  0.1107 -0.1011
 4747TIP3    H135876   1.830   4.379   0.453  0.4437  0.0853 -1.3062
 4747TIP3    H235877   1.842   4.228   0.456 -0.0870  0.0392  1.5512
 4748TIP3   OH235878   2.958   6.629   8.399  0.0239  0.1247  0.1128
 4748TIP3    H135879   3.026   6.635   8.333 -0.1442 -0.9076 -0.1736
 4748TIP3    H235880   3.003   6.602   8.479 -0.2008 -2.2257 -0.4629
 4749TIP3   OH235881   5.840   6.563   1.068  0.0593 -0.3925  0.1217
 4749TIP3    H135882   5.877   6.480   1.038  0.6369 -0.5789  1.2924
 4749TIP3    H235883   5.765   6.537   1.123  1.7529 -0.3217  2.6218
 4750TIP3   OH235884   2.570   5.565   1.115  0.2107 -0.0671  0.0055
 4750TIP3    H135885   2.505   5.633   1.098  0.5336  0.2552  0.0575
 4750TIP3    H235886   2.612   5.592   1.196 -1.5025 -1.7211  1.5448
 4751TIP3   OH235887   5.478   6.570   7.846 -0.3848 -0.4033  0.0809
 4751TIP3    H135888   5.528   6.573   7.927  0.4796  0.1046 -0.4593
 4751TIP3    H235889   5.403   6.627   7.862  1.4135  2.3168 -0.5016
 4752TIP3   OH235890   6.656   0.479   8.793  0.6002 -0.0845 -0.0752
 4752TIP3    H135891   6.577   0.499   8.844 -0.0954  0.4146 -1.3094
 4752TIP3    H235892   6.624   0.429   8.719  1.3959  0.4328 -0.7814
 4753TIP3   OH235893   4.966   4.210   0.021  0.3950 -0.2130  0.0548
 4753TIP3    H135894   5.050   4.170   0.046  0.4622  0.1930  0.4933
 4753TIP3    H235895   4.903   4.171   0.082  0.3494 -0.1421  0.0519
 4754TIP3   OH235896   5.698   5.226   6.397  0.0067  0.0294 -0.4793
 4754TIP3    H135897   5.616   5.258   6.433  0.9001  0.5465  1.2043
 4754TIP3    H235898   5.720   5.150   6.450  1.2673  0.6896 -0.0055
 4755TIP3   OH235899   1.512   2.685   0.542  0.4015  0.2453 -0.2182
 4755TIP3    H135900   1.424   2.691   0.505  0.7417 -0.3314 -1.1627
 4755TIP3    H235901   1.501   2.632   0.621 -0.3298  1.4472  0.5062
 4756TIP3   OH235902   5.416   0.935   8.008 -0.0641 -0.0428  0.0130
 4756TIP3    H135903   5.510   0.955   8.010 -0.2262  0.7545  0.2638
 4756TIP3    H235904   5.377   1.001   8.066 -0.8335 -0.0507 -0.4798
 4757TIP3   OH235905   1.129   2.401   8.214 -0.6649 -0.4270  0.6668
 4757TIP3    H135906   1.047   2.440   8.182 -0.7658 -0.7966  0.4760
 4757TIP3    H235907   1.156   2.342   8.145  0.5648  0.7975  0.0566
 4758TIP3   OH235908   4.291   4.425   1.163  0.2516 -0.2131  0.0782
 4758TIP3    H135909   4.200   4.440   1.185  0.2186  0.5395 -0.4998
 4758TIP3    H235910   4.305   4.331   1.176 -0.6226 -0.3430  0.1001
 4759TIP3   OH235911   0.733   5.082   1.747 -0.6118  0.3556  0.6726
 4759TIP3    H135912   0.649   5.125   1.763 -0.0383  2.1643 -0.8191
 4759TIP3    H235913   0.792   5.121   1.811 -0.6654 -0.2033  1.0735
 4760TIP3   OH235914   2.260   0.627   7.989  0.3363  0.2444 -0.2570
 4760TIP3    H135915   2.307   0.558   7.943 -0.1535  1.3122 -2.4745
 4760TIP3    H235916   2.327   0.673   8.039  1.2984  0.3481 -1.5944
 4761TIP3   OH235917   3.982   6.300   6.723  0.0002  0.5731  0.2076
 4761TIP3    H135918   4.051   6.364   6.708  0.2849  0.0463 -0.7906
 4761TIP3    H235919   4.018   6.217   6.693 -1.3701  0.4419 -1.2061
 4762TIP3   OH235920   0.220   1.739   0.746  0.3530 -0.1001  0.2804
 4762TIP3    H135921   0.240   1.778   0.661  0.5598 -1.0432 -0.1138
 4762TIP3    H235922   0.178   1.809   0.795 -2.1708 -0.2545 -1.4857
 4763TIP3   OH235923   2.019   3.453   0.838 -0.2592  0.1429 -0.2858
 4763TIP3    H135924   2.080   3.488   0.904  0.3255  1.8950 -1.6675
 4763TIP3    H235925   2.041   3.361   0.831  0.2748  0.1240  1.3077
 4764TIP3   OH235926   3.501   1.319   0.875 -0.3197  0.4260 -0.0242
 4764TIP3    H135927   3.516   1.412   0.862 -2.0647  0.6488 -0.7226
 4764TIP3    H235928   3.586   1.284   0.903  0.3964  2.1758  0.0878
 4765TIP3   OH235929   4.734   5.354   1.006 -0.0617 -0.2511 -0.1111
 4765TIP3    H135930   4.647   5.314   0.999 -0.0959 -0.2782  0.4839
 4765TIP3    H235931   4.785   5.312   0.936 -0.7991  0.5080 -1.1425
 4766TIP3   OH235932   1.359   4.650   8.767 -0.1953 -0.3497 -0.3651
 4766TIP3    H135933   1.418   4.677   8.697 -2.3654  2.1057 -1.4010
 4766TIP3    H235934   1.298   4.590   8.725 -0.2398 -0.5320 -0.0416
 4767TIP3   OH235935   0.642   6.228   1.744  0.0569  0.3521 -0.0964
 4767TIP3    H135936   0.734   6.248   1.761  0.2435  0.0596 -0.7430
 4767TIP3    H235937   0.606   6.209   1.830  0.9384 -0.9135  0.0214
 4768TIP3   OH235938   1.614   6.080   1.385 -0.0835 -0.5698  0.2919
 4768TIP3    H135939   1.533   6.052   1.342 -0.1128  0.7574 -0.5826
 4768TIP3    H235940   1.636   6.008   1.444 -1.1014 -1.5993 -0.5314
 4769TIP3   OH235941   0.878   2.876   1.141 -0.2330 -0.4670  0.2085
 4769TIP3    H135942   0.892   2.911   1.229 -1.6649  0.9652 -0.0828
 4769TIP3    H235943   0.951   2.910   1.090  0.4514 -1.0739  0.7544
 4770TIP3   OH235944   5.300   1.686   0.590 -0.4262 -0.2198 -0.3217
 4770TIP3    H135945   5.347   1.640   0.520 -0.3693 -0.2096 -0.2909
 4770TIP3    H235946   5.255   1.758   0.545 -0.6871 -0.4339 -0.3976
 4771TIP3   OH235947   6.558   0.548   8.073 -0.7294 -0.3777  0.4145
 4771TIP3    H135948   6.537   0.599   7.995  0.1656  0.6635  0.8227
 4771TIP3    H235949   6.558   0.457   8.043 -0.5601 -0.0063 -0.7595
 4772TIP3   OH235950   2.332   0.206   0.210  0.4288 -0.3643  0.3685
 4772TIP3    H135951   2.313   0.260   0.134  1.2797 -0.3908  0.1284
 4772TIP3    H235952   2.403   0.252   0.255 -0.3838 -0.0907  1.4214
 4773TIP3   OH235953   1.234   2.708   0.242 -0.2026  0.2770 -0.3420
 4773TIP3    H135954   1.289   2.786   0.238 -1.4387  1.1929 -0.4525
 4773TIP3    H235955   1.243   2.676   0.331 -1.5678  2.0520  0.5167
 4774TIP3   OH235956   6.043   1.567   0.477 -0.8703 -0.9000  0.4376
 4774TIP3    H135957   6.083   1.573   0.563  0.4577  0.1493 -0.2014
 4774TIP3    H235958   6.041   1.474   0.457  1.7386 -1.0021  0.3368
 4775TIP3   OH235959   1.166   4.471   8.610 -0.0988 -0.7109 -0.2870
 4775TIP3    H135960   1.089   4.417   8.626 -0.2379 -0.2309  0.8106
 4775TIP3    H235961   1.176   4.472   8.515 -1.3996 -0.8499 -0.4458
 4776TIP3   OH235962   6.802   0.726   7.097 -0.1947 -0.4831  0.0043
 4776TIP3    H135963   6.839   0.727   7.185  0.0315  0.4234 -0.0994
 4776TIP3    H235964   6.791   0.633   7.077 -0.3494 -0.6978  1.0306
 4777TIP3   OH235965   4.871   1.182   1.307  0.4189  0.0254 -0.0918
 4777TIP3    H135966   4.802   1.223   1.358 -0.2895  0.1408 -1.1195
 4777TIP3    H235967   4.933   1.148   1.373 -0.8264 -0.4852  0.8562
 4778TIP3   OH235968   1.100   6.513   1.619  0.0051  0.2355 -0.2409
 4778TIP3    H135969   1.158   6.557   1.681 -1.0450  2.6152 -0.8608
 4778TIP3    H235970   1.150   6.437   1.589  2.2069  1.3978  0.3181
 4779TIP3   OH235971   5.982   4.446   8.430 -0.2031 -0.0018 -0.0619
 4779TIP3    H135972   5.946   4.464   8.516 -0.0095  2.5938 -0.4452
 4779TIP3    H235973   6.056   4.387   8.446  0.0888  0.7715  1.6046
 4780TIP3   OH235974   6.381   4.704   2.006 -0.8185 -0.1847  0.0523
 4780TIP3    H135975   6.299   4.751   2.017 -1.6757 -2.1130  3.6114
 4780TIP3    H235976   6.421   4.704   2.093  1.7320 -1.4741 -0.9882
 4781TIP3   OH235977   0.117   4.038   7.936  0.0992 -0.0112  0.2495
 4781TIP3    H135978   0.212   4.042   7.924  0.1109  0.0166  0.3458
 4781TIP3    H235979   0.100   3.945   7.954 -0.0040 -0.1718 -0.6518
 4782TIP3   OH235980   1.776   1.748   8.345 -0.1202 -0.0521 -0.0551
 4782TIP3    H135981   1.777   1.732   8.251  0.8826 -2.6614  0.3056
 4782TIP3    H235982   1.748   1.665   8.383  2.0106  0.0615  2.0136
 4783TIP3   OH235983   2.911   2.998   7.198  0.1152 -0.2081 -0.4421
 4783TIP3    H135984   2.970   2.930   7.165  0.7796 -0.4405  1.1333
 4783TIP3    H235985   2.859   2.954   7.266 -0.4208  0.5075 -0.3823
 4784TIP3   OH235986   2.896   2.625   0.668  0.2162  0.1260  0.4100
 4784TIP3    H135987   2.819   2.568   0.673 -0.5393  1.0240 -0.6944
 4784TIP3    H235988   2.970   2.564   0.666 -0.5966 -0.9073 -1.5522
 4785TIP3   OH235989   4.359   5.276   1.372 -0.3097  0.2281 -0.0938
 4785TIP3    H135990   4.417   5.350   1.353  0.6790 -0.4924  0.0633
 4785TIP3    H235991   4.271   5.315   1.374  0.0876  1.2223 -0.9734
 4786TIP3   OH235992   1.344   3.187   7.971  0.1446  0.0770  0.4466
 4786TIP3    H135993   1.386   3.220   7.891 -0.8733 -0.8379 -0.5107
 4786TIP3    H235994   1.337   3.263   8.028  1.0743  0.7097 -0.2498
 4787TIP3   OH235995   5.986   1.742   1.601  0.1272 -0.9504 -0.0033
 4787TIP3    H135996   5.982   1.647   1.610  1.4666 -1.0029  0.1359
 4787TIP3    H235997   5.899   1.766   1.567 -0.0028 -2.2886 -0.6869
 4788TIP3   OH235998   0.577   0.346   1.434  0.0097  0.5095 -0.4004
 4788TIP3    H135999   0.483   0.329   1.445 -0.6063  2.9418 -1.2134
 4788TIP3    H236000   0.603   0.389   1.515  0.3945  0.0321 -0.2647
 4789TIP3   OH236001   3.576   0.789   2.056 -0.1552  0.1300 -0.2113
 4789TIP3    H136002   3.541   0.850   2.122 -0.7734 -0.2667 -0.1662
 4789TIP3    H236003   3.655   0.832   2.023 -2.2410  2.6038 -2.5460
 4790TIP3   OH236004   2.769   0.702   7.817 -0.2358 -0.1092 -0.6439
 4790TIP3    H136005   2.799   0.612   7.799  1.2260 -0.0080  0.9662
 4790TIP3    H236006   2.694   0.690   7.875 -0.8477 -0.3085 -1.4698
 4791TIP3   OH236007   4.167   1.163   7.255 -0.4845 -0.5276 -0.7555
 4791TIP3    H136008   4.260   1.156   7.279  0.0023  1.3180 -1.8448
 4791TIP3    H236009   4.137   1.073   7.246  1.1051 -1.1681 -0.0344
 4792TIP3   OH236010   6.612   6.050   1.333 -0.3721 -0.0879  0.2890
 4792TIP3    H136011   6.642   6.129   1.288  0.1319  0.1537  1.0298
 4792TIP3    H236012   6.530   6.028   1.290 -1.0134  1.3868  0.6884
 4793TIP3   OH236013   2.060   3.147   1.714  0.2427  0.5898 -0.0385
 4793TIP3    H136014   2.112   3.166   1.792  0.6471 -0.2254 -0.0976
 4793TIP3    H236015   2.125   3.125   1.647 -0.1733 -0.4290 -0.1189
 4794TIP3   OH236016   3.114   1.643   1.464  0.5370  0.6033 -0.1274
 4794TIP3    H136017   3.077   1.606   1.384  1.6561  0.4955 -0.6163
 4794TIP3    H236018   3.207   1.655   1.444  1.5481 -2.2931  2.1349
 4795TIP3   OH236019   6.085   3.908   2.049 -0.2073  0.1962  0.1209
 4795TIP3    H136020   5.998   3.880   2.075 -0.8226  0.6395 -1.3775
 4795TIP3    H236021   6.071   3.968   1.976  1.3092  0.9099  0.3747
 4796TIP3   OH236022   5.143   1.872   7.002  0.0970  0.2123 -0.1520
 4796TIP3    H136023   5.188   1.953   6.980  0.2457  0.5215  1.1973
 4796TIP3    H236024   5.208   1.820   7.050 -0.1000 -0.5664 -0.7110
 4797TIP3   OH236025   4.576   5.804   7.231  0.7314  0.3510 -0.1398
 4797TIP3    H136026   4.595   5.716   7.201  0.1890 -0.0580  0.6805
 4797TIP3    H236027   4.504   5.834   7.175 -0.2653 -0.3978  0.7153
 4798TIP3   OH236028   0.935   5.005   1.111 -0.3923 -0.0544 -0.0491
 4798TIP3    H136029   0.919   5.012   1.205  4.2170  2.3115  0.8576
 4798TIP3    H236030   0.922   5.094   1.078 -0.2536 -0.4813 -1.3108
 4799TIP3   OH236031   6.467   2.133   1.332 -0.2937 -0.2749 -0.5141
 4799TIP3    H136032   6.483   2.078   1.255  0.5081  1.1436 -1.4020
 4799TIP3    H236033   6.372   2.137   1.340 -0.4073  0.1516 -1.8894
 4800TIP3   OH236034   6.482   5.295   6.394 -0.3354  0.1377  0.4322
 4800TIP3    H136035   6.553   5.231   6.395 -0.8335 -0.4274  0.9259
 4800TIP3    H236036   6.501   5.352   6.319  1.9281  1.4856  1.8970
 4801TIP3   OH236037   5.216   5.967   2.595 -0.3687  0.0626  0.3471
 4801TIP3    H136038   5.282   6.015   2.645 -0.1871 -0.6532  0.7984
 4801TIP3    H236039   5.253   5.879   2.583 -0.0266  0.4301 -1.7813
 4802TIP3   OH236040   2.076   1.225   7.822  0.1791  0.2426 -0.0357
 4802TIP3    H136041   2.156   1.195   7.780  1.1278  0.3470  1.5994
 4802TIP3    H236042   2.031   1.144   7.849 -0.6207  0.1610 -1.4897
 4803TIP3   OH236043   4.328   5.095   7.713  0.2003 -0.2952  0.6859
 4803TIP3    H136044   4.415   5.070   7.683 -0.0857 -0.1078 -0.3427
 4803TIP3    H236045   4.340   5.181   7.753  0.3927  0.0111 -0.0132
 4804TIP3   OH236046   5.384   4.758   2.200 -0.1136  0.0153  0.1637
 4804TIP3    H136047   5.290   4.773   2.200 -0.5086 -2.2195 -0.5666
 4804TIP3    H236048   5.410   4.769   2.292 -0.8604  1.5858  0.2296
 4805TIP3   OH236049   0.229   2.159   0.609 -0.0302 -0.1309 -0.1061
 4805TIP3    H136050   0.252   2.248   0.583 -0.3730  0.1423  0.5047
 4805TIP3    H236051   0.138   2.148   0.581  0.2459 -0.5633 -0.8646
 4806TIP3   OH236052   6.397   0.868   0.382 -0.7975  0.2587  0.5984
 4806TIP3    H136053   6.342   0.865   0.304 -0.0340 -0.4591  0.0645
 4806TIP3    H236054   6.390   0.780   0.420  1.6056 -0.5848 -0.6824
 4807TIP3   OH236055   0.545   5.768   8.049 -0.3181  0.8341  0.1559
 4807TIP3    H136056   0.585   5.853   8.066  1.3503  0.4339 -1.4168
 4807TIP3    H236057   0.585   5.710   8.114 -0.1055  0.8990  0.0842
 4808TIP3   OH236058   0.147   2.615   7.351 -0.0958  0.1981  0.4443
 4808TIP3    H136059   0.182   2.556   7.285 -1.1223  0.9089 -0.7859
 4808TIP3    H236060   0.098   2.558   7.411 -0.8091 -0.2711 -0.5478
 4809TIP3   OH236061   6.371   4.674   7.261  0.4370  0.2578 -0.0835
 4809TIP3    H136062   6.373   4.755   7.313 -1.1860  0.3433 -0.1122
 4809TIP3    H236063   6.291   4.630   7.289  0.9778 -1.0458 -0.5309
 4810TIP3   OH236064   5.558   3.402   0.955  0.6626  0.2867 -0.1174
 4810TIP3    H136065   5.513   3.412   0.871  0.5099  2.1988  0.1552
 4810TIP3    H236066   5.489   3.377   1.016  0.4024  0.8403 -0.1789
 4811TIP3   OH236067   5.036   0.208   8.792 -0.1987 -0.6124 -0.1382
 4811TIP3    H136068   5.062   0.272   8.857 -2.5488  0.9831 -0.6225
 4811TIP3    H236069   5.109   0.205   8.729  0.9894 -0.2971  1.1896
 4812TIP3   OH236070   4.275   0.664   8.347  0.2605  0.9284  0.0951
 4812TIP3    H136071   4.181   0.669   8.368  0.0320 -1.8693  0.0414
 4812TIP3    H236072   4.279   0.616   8.264  1.7121  2.1379 -0.5786
 4813TIP3   OH236073   4.179   1.225   0.206 -0.2774  0.2436  0.3965
 4813TIP3    H136074   4.270   1.225   0.233 -0.2871 -1.0181  0.4780
 4813TIP3    H236075   4.174   1.158   0.137 -1.3392 -0.4816  1.1454
 4814TIP3   OH236076   0.302   1.106   6.800  0.3730  0.7140  0.0542
 4814TIP3    H136077   0.382   1.105   6.747  0.3959  1.1441  0.0735
 4814TIP3    H236078   0.232   1.127   6.737  0.3276  0.6991  0.0997
 4815TIP3   OH236079   1.386   3.384   0.852 -0.0242  0.1541  0.3033
 4815TIP3    H136080   1.376   3.479   0.865  0.4329  0.0403  1.6275
 4815TIP3    H236081   1.346   3.367   0.767 -2.0787  1.1967  1.0004
 4816TIP3   OH236082   1.396   4.171   1.951  0.4499  0.0390  0.5571
 4816TIP3    H136083   1.383   4.227   2.028  1.8926 -1.3242  1.8541
 4816TIP3    H236084   1.308   4.141   1.929 -0.1847  1.6610  0.6825
 4817TIP3   OH236085   2.242   2.207   7.853 -0.2901 -0.2881 -0.4416
 4817TIP3    H136086   2.214   2.159   7.931 -0.6594 -0.0649 -0.4369
 4817TIP3    H236087   2.260   2.138   7.788 -1.6467 -0.4153 -0.7152
 4818TIP3   OH236088   5.374   3.802   7.483  0.9592 -0.1412 -0.2608
 4818TIP3    H136089   5.315   3.857   7.432 -1.0946 -2.2687 -0.3622
 4818TIP3    H236090   5.412   3.741   7.419  0.9493 -0.6984  0.2549
 4819TIP3   OH236091   0.302   4.469   8.312 -0.3077  0.0918 -0.1259
 4819TIP3    H136092   0.322   4.561   8.325  0.2674  0.3506 -2.5066
 4819TIP3    H236093   0.378   4.433   8.265 -0.2285 -1.7704  1.2964
 4820TIP3   OH236094   3.039   4.702   1.073  0.8512 -0.4355 -0.2760
 4820TIP3    H136095   3.122   4.657   1.058  0.8762 -0.7950  0.8890
 4820TIP3    H236096   3.025   4.698   1.167  0.5247  1.4486 -0.1953
 4821TIP3   OH236097   1.627   3.501   0.504  0.2261  0.5229 -0.3027
 4821TIP3    H136098   1.677   3.497   0.585 -0.2707 -0.9910 -0.0449
 4821TIP3    H236099   1.596   3.412   0.489 -4.9773  1.6991  1.2389
 4822TIP3   OH236100   2.479   3.145   1.863 -0.4426  0.4925 -0.4106
 4822TIP3    H136101   2.418   3.193   1.808  0.8130  1.2583 -1.1990
 4822TIP3    H236102   2.566   3.172   1.832  0.3232 -1.5070 -0.1923
 4823TIP3   OH236103   1.412   0.917   2.172 -0.2947 -0.3669  0.1412
 4823TIP3    H136104   1.464   0.878   2.242  1.7108  1.1768 -0.4031
 4823TIP3    H236105   1.383   1.001   2.207 -2.0664 -0.9847  0.2473
 4824TIP3   OH236106   0.805   5.179   7.549 -0.1954 -0.2219  0.0284
 4824TIP3    H136107   0.889   5.157   7.509  0.7213 -1.1235  2.2727
 4824TIP3    H236108   0.816   5.157   7.641 -3.3270 -1.6299  0.2032
 4825TIP3   OH236109   4.794   4.247   0.368 -0.1697  0.2900 -0.1476
 4825TIP3    H136110   4.768   4.254   0.276 -0.4152 -0.4398 -0.1392
 4825TIP3    H236111   4.717   4.276   0.417 -0.7945 -1.2899 -0.1371
 4826TIP3   OH236112   0.328   6.408   0.560  0.2839 -0.1341  0.2987
 4826TIP3    H136113   0.251   6.410   0.616  1.1072  0.4286  1.4772
 4826TIP3    H236114   0.294   6.410   0.470 -1.0767 -1.2373  0.7591
 4827TIP3   OH236115   5.606   2.805   7.364 -0.3788  0.1246  0.2359
 4827TIP3    H136116   5.611   2.897   7.339  2.0141  0.9508  3.1970
 4827TIP3    H236117   5.662   2.760   7.300 -1.0582  0.7745 -0.8526
 4828TIP3   OH236118   0.209   5.275   8.233  0.5780  0.2520  0.4751
 4828TIP3    H136119   0.167   5.263   8.319 -0.6379 -1.0353 -0.2616
 4828TIP3    H236120   0.248   5.190   8.213  2.1112  0.9512  0.3656
 4829TIP3   OH236121   0.586   5.730   1.369 -0.4135  0.8080  0.0256
 4829TIP3    H136122   0.663   5.680   1.395 -0.1925  0.8718 -0.4939
 4829TIP3    H236123   0.614   5.778   1.292 -1.6917 -1.1070 -1.7292
 4830TIP3   OH236124   3.285   4.566   7.677  0.2774  0.7882 -0.0441
 4830TIP3    H136125   3.242   4.639   7.722 -0.2426 -0.4875  1.6416
 4830TIP3    H236126   3.330   4.518   7.747  2.3586  0.6293 -1.4019
 4831TIP3   OH236127   0.443   6.549   8.765  0.4805  0.1639 -0.5808
 4831TIP3    H136128   0.516   6.572   8.823  2.3059  1.4295 -3.1533
 4831TIP3    H236129   0.419   6.460   8.791  3.0494 -0.3581  0.3191
 4832TIP3   OH236130   2.164   4.722   0.299  0.3515 -0.0013  0.1812
 4832TIP3    H136131   2.078   4.755   0.324 -0.1827 -0.2867 -1.1779
 4832TIP3    H236132   2.206   4.797   0.256  1.8537  0.9707  3.0500
 4833TIP3   OH236133   5.324   3.734   8.793 -0.0049 -0.2793  0.5259
 4833TIP3    H136134   5.239   3.696   8.770 -0.2220  0.5474 -0.0620
 4833TIP3    H236135   5.387   3.677   8.748 -0.3634  0.4531 -0.9848
 4834TIP3   OH236136   1.877   2.903   7.497  0.2964 -0.3828  0.0231
 4834TIP3    H136137   1.932   2.980   7.484 -0.1400 -0.5620 -4.5135
 4834TIP3    H236138   1.921   2.833   7.449 -0.6874 -2.3293  1.7510
 4835TIP3   OH236139   0.097   3.941   6.923 -1.1369 -0.5186 -0.2998
 4835TIP3    H136140   0.140   3.917   6.841  2.0703  1.1373  0.7265
 4835TIP3    H236141   0.107   3.864   6.979  1.4950  0.0864  0.1998
 4836TIP3   OH236142   2.377   6.379   1.146 -0.2843 -0.3295 -0.0728
 4836TIP3    H136143   2.354   6.372   1.238 -0.4329 -2.3083 -0.2161
 4836TIP3    H236144   2.431   6.458   1.140  1.1598 -1.0795  2.0102
 4837TIP3   OH236145   2.453   5.798   8.221 -0.7097 -0.1827 -0.3629
 4837TIP3    H136146   2.405   5.867   8.266 -0.8528  0.2096 -1.0909
 4837TIP3    H236147   2.390   5.764   8.157 -1.0513 -1.8376  0.7992
 4838TIP3   OH236148   5.390   1.536   0.385 -0.0892  0.1496 -0.0917
 4838TIP3    H136149   5.341   1.467   0.340  1.0836 -0.1636 -0.9441
 4838TIP3    H236150   5.472   1.494   0.410 -0.1392  0.7246  1.1070
 4839TIP3   OH236151   5.643   4.742   7.363  0.0762 -0.2032  0.4392
 4839TIP3    H136152   5.578   4.811   7.381  1.5778  1.6437 -0.7847
 4839TIP3    H236153   5.634   4.725   7.270  0.4489 -0.8909  0.5257
 4840TIP3   OH236154   3.974   4.429   7.710 -0.2459  0.3477  0.0028
 4840TIP3    H136155   4.045   4.490   7.688  1.0670 -1.1247  0.0522
 4840TIP3    H236156   3.904   4.451   7.648  0.3909  1.5457 -0.3211
 4841TIP3   OH236157   2.255   3.429   6.547  0.3022 -0.3648  0.3987
 4841TIP3    H136158   2.345   3.397   6.554 -0.2540 -2.1055  0.1096
 4841TIP3    H236159   2.203   3.350   6.529 -1.3275  0.5397  0.9248
 4842TIP3   OH236160   6.256   2.557   0.476 -0.4375  0.1687 -0.4408
 4842TIP3    H136161   6.272   2.643   0.515  0.6700 -0.0553 -0.3749
 4842TIP3    H236162   6.291   2.563   0.388 -0.9309 -0.0281 -0.6584
 4843TIP3   OH236163   3.241   4.048   0.077  0.7785  0.0556  0.1313
 4843TIP3    H136164   3.274   4.098   0.003 -0.3316 -0.1078 -0.4881
 4843TIP3    H236165   3.218   3.963   0.041 -0.0955  0.0891  0.5812
 4844TIP3   OH236166   0.795   6.835   8.673 -0.2732 -0.6766  0.0123
 4844TIP3    H136167   0.766   6.780   8.746 -0.3793 -0.0792  0.4230
 4844TIP3    H236168   0.809   6.921   8.711  1.5314 -0.7971 -0.2829
 4845TIP3   OH236169   6.328   3.530   1.146 -0.5627  0.6243  0.2060
 4845TIP3    H136170   6.318   3.438   1.123 -1.3762  1.0042 -1.0920
 4845TIP3    H236171   6.392   3.564   1.082 -0.5114  1.0247  0.4660
 4846TIP3   OH236172   4.119   4.445   0.660 -0.4218 -0.1273 -0.2690
 4846TIP3    H136173   4.064   4.440   0.738 -1.1816 -1.5779 -0.8520
 4846TIP3    H236174   4.203   4.477   0.691 -1.0484  0.4100  0.9404
 4847TIP3   OH236175   6.394   5.018   8.373 -0.1616  0.0135 -0.2122
 4847TIP3    H136176   6.417   4.932   8.407  0.9957  1.2377  2.3374
 4847TIP3    H236177   6.304   5.032   8.403 -0.2357 -0.1712 -0.3466
 4848TIP3   OH236178   1.170   3.722   1.091 -0.4412  0.3390 -0.2845
 4848TIP3    H136179   1.240   3.658   1.083  0.8753  1.3050  2.2408
 4848TIP3    H236180   1.153   3.727   1.186 -1.0290  3.0872 -0.4387
 4849TIP3   OH236181   6.040   5.491   8.550  0.1657 -0.4285 -0.2058
 4849TIP3    H136182   6.129   5.456   8.549  0.1288 -0.5144 -1.4062
 4849TIP3    H236183   6.017   5.496   8.643  1.6237  0.1244  0.1432
 4850TIP3   OH236184   0.689   4.728   7.423 -0.5543  0.0386  0.6403
 4850TIP3    H136185   0.741   4.791   7.372 -1.4748 -0.9696 -1.7008
 4850TIP3    H236186   0.754   4.678   7.472  0.2923  1.8454  1.4558
 4851TIP3   OH236187   3.872   5.690   7.496  0.2802  0.4829 -0.1179
 4851TIP3    H136188   3.847   5.683   7.588 -0.8018  2.1443 -0.2492
 4851TIP3    H236189   3.789   5.693   7.448  0.7902  1.2518 -1.0020
 4852TIP3   OH236190   0.825   4.091   7.570  0.1379  0.8717  0.1461
 4852TIP3    H136191   0.792   4.181   7.566  1.5962  1.4096 -0.2635
 4852TIP3    H236192   0.891   4.087   7.501 -0.7451 -0.8806 -0.6534
 4853TIP3   OH236193   1.713   5.522   2.254 -0.4455 -0.2288 -0.4489
 4853TIP3    H136194   1.801   5.545   2.283 -0.5506  0.1257 -0.4122
 4853TIP3    H236195   1.693   5.440   2.300  1.0162 -1.9624 -2.6675
 4854TIP3   OH236196   4.050   5.048   1.349 -0.3011  0.1182  0.3259
 4854TIP3    H136197   4.115   5.053   1.419 -0.6819  1.2029  0.6234
 4854TIP3    H236198   3.987   4.982   1.379 -1.5702  1.9775  2.0201
 4855TIP3   OH236199   6.619   0.953   7.186 -0.2234  0.1716  0.3398
 4855TIP3    H136200   6.535   0.938   7.227 -0.7942 -1.0285 -1.1869
 4855TIP3    H236201   6.663   0.868   7.188  0.1336  0.3202 -0.6039
 4856TIP3   OH236202   6.411   3.219   1.875  0.2899  0.4677  0.9890
 4856TIP3    H136203   6.435   3.168   1.798 -0.2324  1.5618  0.0881
 4856TIP3    H236204   6.394   3.153   1.942 -2.0431 -0.6896 -0.6026
 4857TIP3   OH236205   0.277   0.599   0.973  0.0535  0.1973 -0.2790
 4857TIP3    H136206   0.278   0.657   0.897 -0.0529 -0.9224 -1.1658
 4857TIP3    H236207   0.185   0.594   0.999 -0.1752 -0.8114 -1.2077
 4858TIP3   OH236208   2.276   2.406   2.361  0.1255  0.0214 -0.1419
 4858TIP3    H136209   2.253   2.475   2.299 -2.0269  0.4039  1.0006
 4858TIP3    H236210   2.366   2.425   2.386 -0.0460  1.7249 -0.7443
 4859TIP3   OH236211   1.328   4.052   7.534 -0.0156 -0.0625  0.6680
 4859TIP3    H136212   1.329   3.956   7.530  1.7728 -0.1179  1.6752
 4859TIP3    H236213   1.253   4.072   7.591 -1.0193 -0.7776 -0.3391
 4860TIP3   OH236214   3.787   0.151   1.406  0.6050  0.5001  0.0081
 4860TIP3    H136215   3.818   0.211   1.475 -0.6964  1.0671  0.1250
 4860TIP3    H236216   3.746   0.079   1.453  2.2862 -0.6123 -0.1302
 4861TIP3   OH236217   4.003   6.295   0.854  0.7423  0.5915  0.0064
 4861TIP3    H136218   3.985   6.259   0.941  1.8301 -1.4624 -0.5546
 4861TIP3    H236219   3.939   6.251   0.796 -0.9203  2.9762 -0.0994
 4862TIP3   OH236220   5.381   1.102   6.888 -0.2552 -0.0877 -0.0746
 4862TIP3    H136221   5.388   1.010   6.914 -0.0375 -0.4312 -1.2979
 4862TIP3    H236222   5.470   1.137   6.898 -0.2761 -0.0796  0.0975
 4863TIP3   OH236223   0.390   3.265   7.218  0.3988 -0.0847  0.0060
 4863TIP3    H136224   0.435   3.279   7.302  0.1130 -0.7127  0.2755
 4863TIP3    H236225   0.298   3.258   7.241  0.2241  0.5697 -0.4720
 4864TIP3   OH236226   1.793   3.679   8.299 -0.7362  0.3296 -0.1605
 4864TIP3    H136227   1.820   3.726   8.219 -1.2049  0.4743 -0.2366
 4864TIP3    H236228   1.819   3.588   8.283 -1.6558  0.1758 -0.8721
 4865TIP3   OH236229   2.998   1.060   6.187  0.4219 -0.2966 -0.6970
 4865TIP3    H136230   3.034   0.973   6.172 -2.1825 -1.5842 -0.0939
 4865TIP3    H236231   2.905   1.045   6.205 -0.2263  2.6525 -0.9881
 4866TIP3   OH236232   1.975   4.138   8.326  0.1239  0.3334  0.8016
 4866TIP3    H136233   2.026   4.124   8.246 -1.0126 -0.0387  0.1208
 4866TIP3    H236234   1.979   4.233   8.340  1.2081  0.2821  0.9100
 4867TIP3   OH236235   2.956   4.647   1.342  0.3157 -0.5057 -0.6562
 4867TIP3    H136236   2.950   4.628   1.436  0.1628 -1.0957 -0.7856
 4867TIP3    H236237   2.882   4.602   1.303 -1.1420  1.8110 -0.7607
 4868TIP3   OH236238   1.873   5.330   0.536 -0.0490  0.0589  0.2785
 4868TIP3    H136239   1.829   5.372   0.461  0.2275 -1.5713 -0.8464
 4868TIP3    H236240   1.802   5.315   0.599 -0.3965  0.9041  0.1081
 4869TIP3   OH236241   0.884   5.558   8.097 -0.4972  0.2207  0.6925
 4869TIP3    H136242   0.943   5.507   8.152  1.7402  0.9807 -0.8401
 4869TIP3    H236243   0.841   5.493   8.041  0.2266 -0.2347  0.6522
 4870TIP3   OH236244   6.781   2.533   7.490  0.6140  0.1101  0.1237
 4870TIP3    H136245   6.786   2.605   7.427 -1.2535 -1.1766 -1.6631
 4870TIP3    H236246   6.700   2.548   7.537  0.6003 -0.4094  0.2704
 4871TIP3   OH236247   3.346   2.277   1.305 -0.3456  0.4085 -0.7076
 4871TIP3    H136248   3.316   2.353   1.356 -0.8070 -0.3220  0.1429
 4871TIP3    H236249   3.426   2.307   1.263  0.2616  0.9408  0.7578
 4872TIP3   OH236250   3.717   6.424   7.347 -0.3766 -0.0434  0.3972
 4872TIP3    H136251   3.633   6.413   7.392 -0.8724 -0.5754 -0.6344
 4872TIP3    H236252   3.776   6.454   7.416 -1.1860 -0.5286  1.3431
 4873TIP3   OH236253   2.330   1.564   2.144 -0.2325  0.0274 -0.1782
 4873TIP3    H136254   2.369   1.623   2.207  0.0289 -1.0268  0.6775
 4873TIP3    H236255   2.278   1.503   2.196 -0.7039 -0.3555 -1.0549
 4874TIP3   OH236256   1.133   2.313   1.674  0.1273 -0.0744 -0.5890
 4874TIP3    H136257   1.132   2.235   1.619 -0.3168 -2.0585  2.0496
 4874TIP3    H236258   1.225   2.339   1.678  0.3521 -0.7902 -1.0168
 4875TIP3   OH236259   2.058   1.045   6.503 -0.1044  0.2692  0.2337
 4875TIP3    H136260   1.973   1.086   6.488 -0.5483 -0.7146 -0.0416
 4875TIP3    H236261   2.043   0.952   6.484  0.4948 -0.2802  2.2686
 4876TIP3   OH236262   2.493   1.919   7.324  0.0581  0.5790  0.0666
 4876TIP3    H136263   2.539   1.894   7.245 -0.1459 -1.0204  0.4231
 4876TIP3    H236264   2.561   1.923   7.392 -0.2711 -1.9591  0.6318
 4877TIP3   OH236265   2.783   4.930   1.429 -0.0511  0.1337  0.6525
 4877TIP3    H136266   2.703   4.975   1.404 -1.7393 -3.3262 -0.9059
 4877TIP3    H236267   2.841   4.940   1.354 -0.2960  0.0169  0.4463
 4878TIP3   OH236268   5.054   4.496   1.277 -0.7930 -0.1045  0.2759
 4878TIP3    H136269   5.097   4.420   1.315 -0.4347 -2.3935 -4.0282
 4878TIP3    H236270   4.962   4.486   1.299 -0.5117 -0.8381  1.1697
 4879TIP3   OH236271   4.129   4.407   1.530 -0.1874  0.2760 -0.2213
 4879TIP3    H136272   4.121   4.493   1.572 -0.5063  0.9008 -1.4999
 4879TIP3    H236273   4.084   4.347   1.590 -0.6025  1.1229  0.3415
 4880TIP3   OH236274   4.252   0.019   8.073  0.1610 -0.0098  0.6823
 4880TIP3    H136275   4.207   0.088   8.122 -0.1783  0.5660 -0.3978
 4880TIP3    H236276   4.318  -0.015   8.134 -0.9159 -0.0336  1.8727
 4881TIP3   OH236277   3.656   5.828   6.884  0.4557 -0.5699 -0.5153
 4881TIP3    H136278   3.719   5.883   6.837 -1.2620  2.6013  0.6281
 4881TIP3    H236279   3.596   5.797   6.815 -0.6976  2.1485 -0.8614
 4882TIP3   OH236280   1.894   0.877   0.283  0.2643 -0.5057 -0.3365
 4882TIP3    H136281   1.917   0.915   0.367 -1.2173  0.9164 -0.5121
 4882TIP3    H236282   1.800   0.892   0.275  0.5062  0.2272 -2.6155
 4883TIP3   OH236283   1.878   0.155   7.547  0.5724 -0.0115 -0.6543
 4883TIP3    H136284   1.937   0.143   7.621 -0.2440  1.8549  0.3692
 4883TIP3    H236285   1.804   0.096   7.565  1.3677 -1.1953 -1.1474
 4884TIP3   OH236286   0.434   0.555   0.504  0.1164  0.3383  0.5677
 4884TIP3    H136287   0.525   0.582   0.492  0.2714 -0.2024  0.4793
 4884TIP3    H236288   0.396   0.560   0.416 -0.3590  1.9788  0.8262
 4885TIP3   OH236289   0.666   3.584   2.274 -0.2544  0.4602  0.0341
 4885TIP3    H136290   0.607   3.514   2.301  0.3436 -0.0533  0.0223
 4885TIP3    H236291   0.746   3.570   2.324 -0.0414  0.9967 -0.1395
 4886TIP3   OH236292   4.089   1.412   8.594 -0.3976 -0.1282  0.0925
 4886TIP3    H136293   4.170   1.380   8.633 -0.3540  0.8319  0.8044
 4886TIP3    H236294   4.021   1.360   8.634 -0.2266 -0.1806  0.3161
 4887TIP3   OH236295   2.619   5.890   8.766  0.4999 -0.2197  0.4284
 4887TIP3    H136296   2.685   5.932   8.712  1.9861  0.5526  2.6789
 4887TIP3    H236297   2.636   5.796   8.756 -0.8581 -0.2531 -2.2480
 4888TIP3   OH236298   6.415   6.156   0.637 -0.1637 -0.2744 -0.0448
 4888TIP3    H136299   6.409   6.230   0.578 -1.1104  0.7934  1.3219
 4888TIP3    H236300   6.464   6.189   0.713  0.1551 -1.3053  0.2204
 4889TIP3   OH236301   6.287   0.164   7.840  0.2478  0.2330 -0.2254
 4889TIP3    H136302   6.352   0.199   7.779 -1.9662  1.2027 -2.2175
 4889TIP3    H236303   6.289   0.223   7.915 -0.1708  1.9067 -1.4751
 4890TIP3   OH236304   2.354   4.005   8.298 -0.0236  0.0951  0.1946
 4890TIP3    H136305   2.296   4.059   8.245 -0.7063 -0.9862 -0.1901
 4890TIP3    H236306   2.300   3.930   8.324 -0.0909  1.0847  3.3450
 4891TIP3   OH236307   5.624   3.735   0.085  0.3231  0.3616 -0.2973
 4891TIP3    H136308   5.571   3.747   0.164 -2.3812  0.8444 -2.0425
 4891TIP3    H236309   5.566   3.687   0.026  2.4722 -0.4837 -1.8112
 4892TIP3   OH236310   2.685   6.633   1.716 -0.3342 -0.0488 -0.5921
 4892TIP3    H136311   2.688   6.539   1.737 -1.2007  0.0471 -0.0041
 4892TIP3    H236312   2.610   6.666   1.764 -0.1416  0.9250 -0.9401
 4893TIP3   OH236313   4.603   5.947   7.744 -0.1347  0.0903 -0.2833
 4893TIP3    H136314   4.578   6.030   7.704 -0.5283  0.2306  0.2446
 4893TIP3    H236315   4.559   5.881   7.690  0.7110  0.1787 -1.1012
 4894TIP3   OH236316   2.254   2.327   6.795  0.2495  0.2864  0.3924
 4894TIP3    H136317   2.335   2.362   6.758  0.8129 -0.6587  0.7295
 4894TIP3    H236318   2.193   2.327   6.722  0.3135  1.7085  0.3109
 4895TIP3   OH236319   4.835   1.247   1.012 -0.0483 -0.1585 -0.2668
 4895TIP3    H136320   4.894   1.292   0.952  0.2294 -0.0661  0.0730
 4895TIP3    H236321   4.861   1.277   1.099 -1.3099  0.7432 -0.1711
 4896TIP3   OH236322   0.447   1.651   1.439 -0.4693  0.2197 -0.0320
 4896TIP3    H136323   0.515   1.584   1.433 -2.1848 -1.8083  1.4297
 4896TIP3    H236324   0.493   1.730   1.468  1.3769 -0.7949 -0.0469
 4897TIP3   OH236325   4.210   2.478   7.700 -0.4133 -0.2948  0.3468
 4897TIP3    H136326   4.236   2.564   7.734 -1.8389  1.0569 -1.7242
 4897TIP3    H236327   4.292   2.438   7.671  0.3311  0.1150  1.7514
 4898TIP3   OH236328   1.079   2.866   6.743  0.2458 -0.7243  0.3782
 4898TIP3    H136329   1.160   2.828   6.708 -0.7212 -0.5342 -2.2762
 4898TIP3    H236330   1.078   2.956   6.709 -1.4836 -1.0067 -0.4117
 4899TIP3   OH236331   4.031   4.467   1.262 -0.5742  0.2677 -0.5695
 4899TIP3    H136332   4.039   4.428   1.350 -1.0913  0.1948 -0.5518
 4899TIP3    H236333   3.939   4.455   1.239 -0.4300  0.2354 -1.1491
 4900TIP3   OH236334   4.836   6.793   0.900 -0.1259  0.0330 -0.5196
 4900TIP3    H136335   4.843   6.712   0.849 -0.3020 -0.7345  0.6171
 4900TIP3    H236336   4.801   6.764   0.985  0.1717  1.2527  0.0354
 4901TIP3   OH236337   1.201   0.278   0.155  0.1284 -0.1695 -0.4655
 4901TIP3    H136338   1.163   0.306   0.238  0.5022 -0.2093 -0.2830
 4901TIP3    H236339   1.292   0.257   0.175 -0.1197 -1.4699 -0.6018
 4902TIP3   OH236340   6.009   0.200   0.216  0.0094  0.2505  0.0791
 4902TIP3    H136341   5.994   0.158   0.301  1.2394  1.4504  0.9435
 4902TIP3    H236342   6.104   0.210   0.211 -0.1267  1.3447 -0.8662
 4903TIP3   OH236343   4.637   2.854   7.601  0.0398 -0.1500  0.1476
 4903TIP3    H136344   4.609   2.874   7.512 -0.6782 -0.1028  0.3746
 4903TIP3    H236345   4.579   2.906   7.657 -0.6504 -1.4384  0.6823
 4904TIP3   OH236346   3.911   6.248   7.165  0.3579 -0.4152  0.1223
 4904TIP3    H136347   3.833   6.278   7.212 -0.5800 -1.5695 -0.6583
 4904TIP3    H236348   3.970   6.217   7.233  0.4453  1.0956  0.7779
 4905TIP3   OH236349   6.558   2.495   0.005 -0.5357  0.2592 -0.0410
 4905TIP3    H136350   6.615   2.568  -0.016  0.5626 -0.6350 -0.2469
 4905TIP3    H236351   6.480   2.510  -0.049 -0.2693  1.1928 -0.1886
 4906TIP3   OH236352   3.323   6.254   8.498 -0.2296 -0.4174 -0.0218
 4906TIP3    H136353   3.304   6.213   8.413  1.4965 -3.2618  0.8384
 4906TIP3    H236354   3.238   6.288   8.527 -1.6685 -2.7418 -1.2134
 4907TIP3   OH236355   1.889   6.829   8.518  0.0416 -0.2405  0.2550
 4907TIP3    H136356   1.904   6.906   8.574  0.0269  0.2965 -0.4621
 4907TIP3    H236357   1.949   6.841   8.445  1.0405 -1.6392  0.8112
 4908TIP3   OH236358   4.908   5.868   0.954 -0.6263 -0.0538  0.5750
 4908TIP3    H136359   5.002   5.881   0.942 -0.5784  0.3448  1.3735
 4908TIP3    H236360   4.894   5.775   0.933 -0.3266  0.2447 -1.0956
 4909TIP3   OH236361   0.526   2.985   1.371 -0.7165 -0.2445 -0.4771
 4909TIP3    H136362   0.604   3.032   1.402 -0.8782  0.6618 -1.3793
 4909TIP3    H236363   0.496   2.935   1.447 -0.8604  1.5802  0.7469
 4910TIP3   OH236364   3.957   2.701   8.513  0.1160 -0.6146  0.4646
 4910TIP3    H136365   3.904   2.773   8.480  2.6078  1.6965  1.0979
 4910TIP3    H236366   3.952   2.633   8.446  2.0795  2.4083 -3.0870
 4911TIP3   OH236367   0.858   0.578   8.074  0.7805 -0.0821 -0.1066
 4911TIP3    H136368   0.827   0.570   8.165  2.0672  0.4514  0.4079
 4911TIP3    H236369   0.953   0.570   8.081  0.7591 -2.8808 -1.7650
 4912TIP3   OH236370   4.483   0.679   6.410 -0.5794  0.2211 -0.0583
 4912TIP3    H136371   4.457   0.730   6.333 -0.1007 -0.2546 -0.5461
 4912TIP3    H236372   4.576   0.661   6.396  0.3073  2.5249  2.0013
 4913TIP3   OH236373   6.141   3.245   7.750  1.0569  0.2346  0.4800
 4913TIP3    H136374   6.177   3.185   7.684 -1.6280  1.1358 -2.0026
 4913TIP3    H236375   6.063   3.201   7.783  0.5859  1.1697  0.6581
 4914TIP3   OH236376   4.682   1.862   7.305 -0.4900 -0.4444  0.2911
 4914TIP3    H136377   4.626   1.807   7.360 -1.8621 -0.3304 -0.9385
 4914TIP3    H236378   4.727   1.801   7.247  1.4032 -0.6209  1.8279
 4915TIP3   OH236379   4.547   4.937   7.005 -0.0414  0.0606 -0.3342
 4915TIP3    H136380   4.504   5.006   6.954  0.3795 -0.1463 -0.9723
 4915TIP3    H236381   4.475   4.883   7.038 -0.2635 -0.6338 -1.8878
 4916TIP3   OH236382   2.132   4.272   1.048  0.2285  0.4592  0.1322
 4916TIP3    H136383   2.108   4.230   0.966 -0.6494 -1.4505  1.2982
 4916TIP3    H236384   2.073   4.347   1.055 -0.6045 -0.1328 -0.3688
 4917TIP3   OH236385   2.649   4.352   7.839  0.1935  0.7237  0.1073
 4917TIP3    H136386   2.647   4.353   7.743 -0.8005 -2.7559 -0.0448
 4917TIP3    H236387   2.716   4.416   7.862  3.1409 -0.8915 -3.0767
 4918TIP3   OH236388   0.029   5.614   2.346  0.6889 -0.0484  0.1616
 4918TIP3    H136389   0.020   5.634   2.439 -1.2375  0.6736 -0.1370
 4918TIP3    H236390   0.123   5.610   2.331  1.0374  0.3931  2.0143
 4919TIP3   OH236391   3.102   6.036   7.812 -0.1366  0.4235 -0.3069
 4919TIP3    H136392   3.131   5.976   7.744  0.7576  0.5800 -0.0674
 4919TIP3    H236393   3.152   6.116   7.799  0.4765  0.2599  0.8691
 4920TIP3   OH236394   0.569   4.533   8.093  0.0289  0.0499 -0.1505
 4920TIP3    H136395   0.626   4.521   8.017  0.7480  0.1043  0.3757
 4920TIP3    H236396   0.505   4.598   8.063  0.8661  0.7803 -0.4222
 4921TIP3   OH236397   1.521   2.046   7.640  0.0707 -0.7924  0.0282
 4921TIP3    H136398   1.606   2.035   7.598  0.0644 -2.1119  0.3012
 4921TIP3    H236399   1.521   2.136   7.672  0.7145 -0.2719 -1.3677
 4922TIP3   OH236400   6.608   0.131   7.101  0.7572  0.1376 -0.5574
 4922TIP3    H136401   6.568   0.204   7.148  1.1230  0.2596 -0.4339
 4922TIP3    H236402   6.647   0.077   7.170  0.4548 -0.1960 -0.6443
 4923TIP3   OH236403   6.141   6.228   2.045 -0.2510 -0.5254 -0.0664
 4923TIP3    H136404   6.092   6.234   1.963  0.4010  1.7134 -0.3483
 4923TIP3    H236405   6.166   6.136   2.051 -0.4829 -0.7823 -2.2818
 4924TIP3   OH236406   6.048   3.445   0.603 -0.4807 -0.7141 -0.6915
 4924TIP3    H136407   6.023   3.363   0.560  2.3411 -1.1262 -1.7302
 4924TIP3    H236408   6.061   3.507   0.531 -0.9174  0.1831 -0.0279
 4925TIP3   OH236409   4.651   5.654   8.749 -0.3078 -0.4855  0.7053
 4925TIP3    H136410   4.692   5.681   8.832  0.6317 -3.1144  1.2072
 4925TIP3    H236411   4.702   5.700   8.682  1.1089 -0.8369  1.4860
 4926TIP3   OH236412   1.756   3.787   0.390 -0.6049  0.4299 -0.6141
 4926TIP3    H136413   1.677   3.747   0.354 -0.7806  0.9402 -0.7986
 4926TIP3    H236414   1.826   3.726   0.367 -0.8835  0.1706 -0.7895
 4927TIP3   OH236415   0.705   0.535   1.664  0.0597  0.3669 -0.0625
 4927TIP3    H136416   0.617   0.557   1.695  0.3228  1.0165  0.2370
 4927TIP3    H236417   0.738   0.615   1.624  0.9228  0.4577  0.7878
 4928TIP3   OH236418   6.217   4.987   0.194 -0.1372 -0.4733 -0.0125
 4928TIP3    H136419   6.209   4.924   0.266  2.4040 -0.3999  0.4262
 4928TIP3    H236420   6.210   4.933   0.115 -0.5830 -0.9174  0.3220
 4929TIP3   OH236421   3.421   2.770   6.971  0.7514  0.0889  0.1390
 4929TIP3    H136422   3.473   2.778   7.051  2.0644  0.2333 -0.6987
 4929TIP3    H236423   3.414   2.676   6.956 -1.2356 -0.0376  1.4781
 4930TIP3   OH236424   2.893   0.912   7.431 -0.1427  0.2300 -0.1465
 4930TIP3    H136425   2.923   0.961   7.508  2.5660  1.0430 -1.6124
 4930TIP3    H236426   2.916   0.821   7.450  0.7103  0.4562 -0.0844
 4931TIP3   OH236427   1.748   3.295   1.679 -0.5083  0.3010  0.0411
 4931TIP3    H136428   1.842   3.294   1.693 -0.8184 -1.3910  2.9024
 4931TIP3    H236429   1.718   3.376   1.720 -0.5020 -0.4998  1.7344
 4932TIP3   OH236430   3.047   1.560   7.874  0.1345 -0.4184  0.4559
 4932TIP3    H136431   3.129   1.540   7.829  0.8709 -1.3835  2.1595
 4932TIP3    H236432   3.061   1.647   7.912  0.5935 -0.8076  1.1989
 4933TIP3   OH236433   6.318   0.210   0.157  0.4559 -0.5139  0.4579
 4933TIP3    H136434   6.367   0.266   0.096 -0.5829 -0.5710 -0.4470
 4933TIP3    H236435   6.381   0.191   0.227  0.7314  2.1643  1.0685
 4934TIP3   OH236436   6.570   0.996   1.229 -0.0340 -0.5668 -0.5223
 4934TIP3    H136437   6.502   0.939   1.265 -0.0469  0.3902  1.0861
 4934TIP3    H236438   6.643   0.938   1.211  0.6254 -0.9701  2.7790
 4935TIP3   OH236439   6.115   4.961   8.446 -0.1768 -0.1986 -0.3868
 4935TIP3    H136440   6.096   5.049   8.413 -0.5267 -0.0971  0.0769
 4935TIP3    H236441   6.079   4.960   8.535  0.0942 -0.7120 -0.2775
 4936TIP3   OH236442   2.058   0.066   1.140 -0.6520  0.2459 -0.0010
 4936TIP3    H136443   2.047   0.071   1.045 -0.0613  0.2770 -0.0759
 4936TIP3    H236444   1.975   0.097   1.176 -0.5237  1.2008 -0.5023
 4937TIP3   OH236445   6.546   0.457   0.949  0.2559 -0.5196  0.3296
 4937TIP3    H136446   6.637   0.476   0.923 -0.2639  0.3670 -0.9317
 4937TIP3    H236447   6.514   0.398   0.881 -0.0618 -1.0048  0.8905
 4938TIP3   OH236448   1.477   4.539   1.967  0.4624 -0.1624 -0.3765
 4938TIP3    H136449   1.407   4.551   2.031 -0.8257 -1.7842 -1.4114
 4938TIP3    H236450   1.551   4.505   2.019  0.1051  0.3843  0.5247
 4939TIP3   OH236451   5.544   0.221   2.127  0.4561 -0.2666  0.1603
 4939TIP3    H136452   5.490   0.159   2.176  0.3438 -1.0619 -0.9248
 4939TIP3    H236453   5.554   0.296   2.185  0.3538 -1.1840  1.3915
 4940TIP3   OH236454   5.819   1.752   8.129 -0.0570  0.1681 -0.7242
 4940TIP3    H136455   5.784   1.733   8.041 -1.3034  0.1924 -0.2589
 4940TIP3    H236456   5.773   1.832   8.156  1.4513  1.0345 -0.6501
 4941TIP3   OH236457   2.942   1.530   0.771 -0.1260 -0.1386 -0.1894
 4941TIP3    H136458   2.970   1.439   0.762  0.7662  0.1948 -0.9019
 4941TIP3    H236459   3.022   1.577   0.794 -0.4680  0.5494 -0.3948
 4942TIP3   OH236460   5.387   5.629   6.750 -0.0252 -0.8466 -0.2087
 4942TIP3    H136461   5.418   5.618   6.660 -1.9399 -1.7089 -0.7956
 4942TIP3    H236462   5.292   5.625   6.744 -0.3136  1.3110  1.5804
 4943TIP3   OH236463   1.466   2.049   1.678 -0.1277  0.5903  0.3257
 4943TIP3    H136464   1.441   2.094   1.759 -2.2958  1.6084 -0.8040
 4943TIP3    H236465   1.414   1.969   1.677  0.1251  0.4248  0.0884
 4944TIP3   OH236466   0.058   2.565   6.783 -0.4066  0.4359 -0.2024
 4944TIP3    H136467   0.103   2.620   6.719 -0.4759  0.1899 -0.4647
 4944TIP3    H236468   0.111   2.572   6.862  0.7532 -0.7345 -0.8169
 4945TIP3   OH236469   0.314   6.265   6.871 -0.6370  0.0867  0.6318
 4945TIP3    H136470   0.370   6.267   6.948 -0.0450 -0.4656  0.2263
 4945TIP3    H236471   0.329   6.348   6.827  0.5443 -0.4057  0.0632
 4946TIP3   OH236472   2.397   2.554   1.757 -0.2536 -0.1210  0.1571
 4946TIP3    H136473   2.361   2.637   1.789 -2.5426 -1.1540  0.4484
 4946TIP3    H236474   2.475   2.540   1.810 -1.0995  0.7428  1.6996
 4947TIP3   OH236475   2.144   3.465   7.742 -0.3705 -0.0617  0.2007
 4947TIP3    H136476   2.070   3.487   7.685  1.0149  1.2654 -1.1482
 4947TIP3    H236477   2.197   3.545   7.745  0.6450 -0.7404  1.7510
 4948TIP3   OH236478   0.555   3.431   0.213  0.2474  0.1124  0.0155
 4948TIP3    H136479   0.538   3.492   0.285  2.7021  1.3712 -0.3726
 4948TIP3    H236480   0.647   3.405   0.225  0.6131  0.0696 -2.4494
 4949TIP3   OH236481   4.179   0.378   8.634  0.2207  0.0909  0.4890
 4949TIP3    H136482   4.162   0.472   8.641  0.6499  0.0630  2.5612
 4949TIP3    H236483   4.271   0.368   8.657  0.2446 -0.8155  0.0484
 4950TIP3   OH236484   0.084   1.153   8.804  0.3815 -0.3285  0.0414
 4950TIP3    H136485   0.014   1.201   8.849  2.7437  1.1113  2.4626
 4950TIP3    H236486   0.066   1.061   8.825 -1.7444 -0.1953 -0.9440
 4951TIP3   OH236487   0.535   1.328   1.007  0.2658  0.1730  0.2560
 4951TIP3    H136488   0.579   1.369   1.082  0.9519  0.0762 -0.0788
 4951TIP3    H236489   0.479   1.396   0.971  1.1868  0.7507 -0.1290
 4952TIP3   OH236490   4.312   5.385   2.124 -0.2513 -0.0034  0.0390
 4952TIP3    H136491   4.381   5.451   2.131 -0.9531  0.8499 -0.7202
 4952TIP3    H236492   4.353   5.303   2.150  0.7490  0.6730  0.6350
 4953TIP3   OH236493   1.522   3.826   6.445 -0.4641  0.2241  0.2747
 4953TIP3    H136494   1.494   3.913   6.415  0.9678  0.4670 -0.4863
 4953TIP3    H236495   1.470   3.765   6.394 -1.4755  0.6322  0.8023
 4954TIP3   OH236496   2.967   0.558   8.095 -0.0448  0.4219 -0.6322
 4954TIP3    H136497   3.021   0.492   8.138 -1.4453  0.1004  0.7389
 4954TIP3    H236498   3.016   0.640   8.107  1.7421 -0.3108 -2.4264
 4955TIP3   OH236499   3.929   1.086   0.754 -0.3634  0.1286 -0.0431
 4955TIP3    H136500   3.911   1.014   0.814  0.6019  0.5620  0.7971
 4955TIP3    H236501   3.954   1.043   0.672  0.6905 -0.5184  0.5966
 4956TIP3   OH236502   1.559   4.212   7.845 -0.3247  0.0478  0.0143
 4956TIP3    H136503   1.607   4.139   7.805 -0.2965  1.7294 -3.3244
 4956TIP3    H236504   1.608   4.290   7.819 -2.4778  1.5229  0.1462
 4957TIP3   OH236505   6.793   0.405   7.140  0.4176  0.1712  0.1749
 4957TIP3    H136506   6.858   0.347   7.179 -0.2390 -1.0543 -0.4751
 4957TIP3    H236507   6.823   0.419   7.050  0.8784  1.3323  0.5038
 4958TIP3   OH236508   2.070   6.379   7.950  0.2607  0.5013  0.2988
 4958TIP3    H136509   2.093   6.371   8.042 -0.4551 -1.2043  0.3749
 4958TIP3    H236510   2.154   6.375   7.904  0.4912 -3.4814  0.6830
 4959TIP3   OH236511   1.863   4.765   7.601 -0.6958  0.2972 -0.0918
 4959TIP3    H136512   1.805   4.840   7.617 -2.8479 -1.1989 -0.4737
 4959TIP3    H236513   1.877   4.765   7.506 -1.3765 -0.2093 -0.2049
 4960TIP3   OH236514   4.943   6.055   0.025  0.2304  0.3115 -0.2570
 4960TIP3    H136515   5.002   6.064   0.099 -1.0113 -0.6994  0.9178
 4960TIP3    H236516   4.875   6.120   0.040  0.3794  0.6454 -0.9594
 4961TIP3   OH236517   4.703   0.887   0.667  0.4135  0.4450 -0.2354
 4961TIP3    H136518   4.728   0.944   0.739 -0.7640 -0.5985  1.0650
 4961TIP3    H236519   4.749   0.804   0.686 -0.1957  0.0499 -0.4663
 4962TIP3   OH236520   4.713   1.418   7.515  0.1117  0.5672 -0.0695
 4962TIP3    H136521   4.674   1.338   7.551  2.2416  0.3219  1.8913
 4962TIP3    H236522   4.782   1.387   7.456 -0.6829  1.0054 -1.2741
 4963TIP3   OH236523   3.728   1.390   8.030 -0.6473 -0.1609  0.1550
 4963TIP3    H136524   3.785   1.416   8.102  0.0293  0.0870 -0.4577
 4963TIP3    H236525   3.778   1.322   7.984 -0.5423  0.5466 -0.7961
 4964TIP3   OH236526   1.666   5.106   8.007 -0.3537  0.0791 -0.1269
 4964TIP3    H136527   1.651   5.185   7.954  0.4535  2.1116  2.4300
 4964TIP3    H236528   1.754   5.117   8.042 -0.9843 -0.9505  1.9079
 4965TIP3   OH236529   5.237   2.713   0.241  0.2718 -0.3922  0.5349
 4965TIP3    H136530   5.268   2.742   0.327 -1.7948  1.5166  0.7224
 4965TIP3    H236531   5.300   2.750   0.179  1.0744 -0.7259  1.1314
 4966TIP3   OH236532   6.661   2.014   7.714 -0.1211  0.4872 -0.4064
 4966TIP3    H136533   6.689   2.055   7.797 -0.0532 -1.7951  0.7639
 4966TIP3    H236534   6.664   2.086   7.651 -0.2859  2.3512  1.5717
 4967TIP3   OH236535   5.688   5.428   8.268 -0.7455 -0.3274 -0.6609
 4967TIP3    H136536   5.684   5.516   8.231  0.1666 -0.5089 -1.2093
 4967TIP3    H236537   5.602   5.415   8.308 -0.3482  1.4577  0.9504
 4968TIP3   OH236538   3.127   2.914   7.434  0.0034  0.0141  1.0685
 4968TIP3    H136539   3.069   2.974   7.479  0.3809  1.3571 -0.1457
 4968TIP3    H236540   3.191   2.971   7.391 -0.9850 -1.0246 -2.0746
 4969TIP3   OH236541   6.034   0.885   0.626 -0.4668 -0.0612 -0.0453
 4969TIP3    H136542   6.026   0.817   0.560 -1.3640  0.1004 -0.1078
 4969TIP3    H236543   6.121   0.871   0.664  0.9122  1.0330 -2.5350
 4970TIP3   OH236544   1.695   3.221   7.024  0.1614 -0.3920 -0.0387
 4970TIP3    H136545   1.763   3.221   6.957  0.7384  1.8058  0.4786
 4970TIP3    H236546   1.683   3.128   7.046  1.1308 -1.0201 -1.9677
 4971TIP3   OH236547   4.130   6.289   8.720 -0.1913 -0.0992  0.0680
 4971TIP3    H136548   4.051   6.325   8.679  0.7771 -0.0758 -1.9182
 4971TIP3    H236549   4.180   6.255   8.647  1.7859  0.1475  1.2488
 4972TIP3   OH236550   2.240   5.283   1.333 -0.0364  0.2897  0.5805
 4972TIP3    H136551   2.151   5.293   1.300  0.5065  0.3605 -0.9217
 4972TIP3    H236552   2.296   5.306   1.259  1.2481  1.6505  1.9003
 4973TIP3   OH236553   0.693   6.444   7.073 -0.1999 -0.2718  0.9925
 4973TIP3    H136554   0.725   6.523   7.030 -1.0300  0.6335  1.9875
 4973TIP3    H236555   0.752   6.375   7.043  0.1399  0.5875 -0.4164
 4974TIP3   OH236556   1.954   5.214   7.742  0.0539 -0.0825 -0.1178
 4974TIP3    H136557   2.006   5.280   7.698  1.3686 -0.2916  1.0526
 4974TIP3    H236558   1.999   5.131   7.723  1.0760 -0.1168  2.0649
 4975TIP3   OH236559   3.847   3.788   1.084  0.5365  0.1428 -0.4490
 4975TIP3    H136560   3.864   3.740   1.165 -0.2977 -0.3853 -0.5780
 4975TIP3    H236561   3.933   3.795   1.042  1.1384  1.1917  0.8760
 4976TIP3   OH236562   0.555   5.514   7.712  1.2900 -0.3304 -0.5143
 4976TIP3    H136563   0.579   5.605   7.696 -0.6270 -0.0992 -2.4190
 4976TIP3    H236564   0.487   5.518   7.779 -0.4933 -0.0789 -2.2504
 4977TIP3   OH236565   2.551   6.717   7.867  0.4701  0.3860 -0.5610
 4977TIP3    H136566   2.516   6.655   7.803 -0.0047  0.5418 -0.4557
 4977TIP3    H236567   2.641   6.733   7.839  0.3754  0.1815 -0.9811
 4978TIP3   OH236568   4.991   4.598   0.219  0.0619 -0.1798 -0.0566
 4978TIP3    H136569   5.062   4.594   0.282  0.9703 -1.7512 -1.1040
 4978TIP3    H236570   4.941   4.517   0.234  0.1627 -0.4632 -1.1549
 4979TIP3   OH236571   0.332   6.194   6.333 -0.2524 -0.3054 -0.0412
 4979TIP3    H136572   0.281   6.223   6.408  0.1688 -0.8769  0.4765
 4979TIP3    H236573   0.397   6.263   6.319  0.4094 -0.7289  0.8530
 4980TIP3   OH236574   6.650   0.485   0.510  0.0192  0.3427 -0.0443
 4980TIP3    H136575   6.561   0.453   0.498  0.2190  0.0559 -0.8128
 4980TIP3    H236576   6.640   0.566   0.560 -0.6211  0.0051  0.3902
 4981TIP3   OH236577   0.659   2.261   1.176 -0.0605 -0.5339 -0.5154
 4981TIP3    H136578   0.691   2.254   1.086  0.7594  1.2682 -0.4073
 4981TIP3    H236579   0.593   2.330   1.173 -0.0032 -0.4306  0.2656
 4982TIP3   OH236580   1.520   4.973   1.193 -0.2270 -0.2745 -0.7143
 4982TIP3    H136581   1.518   5.043   1.127 -1.8228  0.0895 -0.3382
 4982TIP3    H236582   1.587   5.001   1.255 -0.1634  0.4441 -1.0892
 4983TIP3   OH236583   0.461   4.144   0.222  0.1855 -0.8260 -0.0450
 4983TIP3    H136584   0.386   4.091   0.251 -0.5847 -0.2014 -0.8494
 4983TIP3    H236585   0.437   4.234   0.244  1.2971 -0.7385  0.9065
 4984TIP3   OH236586   2.555   4.687   1.139  0.1858  0.4658  0.3554
 4984TIP3    H136587   2.466   4.653   1.145 -0.2708  1.0929 -1.7613
 4984TIP3    H236588   2.544   4.779   1.115  1.3711  0.3354 -0.8174
 4985TIP3   OH236589   5.690   6.226   7.792  0.1848 -0.2141 -0.1267
 4985TIP3    H136590   5.613   6.174   7.813  0.6241  0.3954  3.6416
 4985TIP3    H236591   5.666   6.273   7.712 -3.8721  0.8164  1.4312
 4986TIP3   OH236592   3.353   0.093   1.638 -0.2400  0.4099  0.4133
 4986TIP3    H136593   3.342  -0.000   1.654  1.6008 -0.0972 -0.9242
 4986TIP3    H236594   3.392   0.127   1.719  1.3369 -0.4965  0.0820
 4987TIP3   OH236595   6.426   4.347   1.872  0.0262 -0.0547  0.2305
 4987TIP3    H136596   6.473   4.355   1.955  0.7165 -0.8033 -0.0728
 4987TIP3    H236597   6.339   4.383   1.890 -0.0667 -0.8408  1.4634
 4988TIP3   OH236598   3.281   0.260   7.285  0.2763  0.5954  0.2912
 4988TIP3    H136599   3.331   0.303   7.216  3.1251 -1.3355  0.9671
 4988TIP3    H236600   3.217   0.206   7.239  0.0746  1.6253 -0.6898
 4989TIP3   OH236601   1.668   0.227   8.593 -0.1610 -0.2317 -0.2146
 4989TIP3    H136602   1.674   0.280   8.513 -1.2437 -2.0583 -1.6121
 4989TIP3    H236603   1.754   0.186   8.601 -0.5169 -1.3399 -1.4938
 4990TIP3   OH236604   0.502   0.893   7.621 -0.4450  0.1095 -0.1741
 4990TIP3    H136605   0.471   0.944   7.547  0.5503  1.7808  0.4916
 4990TIP3    H236606   0.425   0.846   7.652 -2.0636  2.9801  0.5509
 4991TIP3   OH236607   4.986   5.475   2.483  0.1052  0.4207 -0.3299
 4991TIP3    H136608   5.064   5.484   2.537  0.0207 -0.3165 -0.0681
 4991TIP3    H236609   5.016   5.427   2.406  0.6783  3.2039 -1.9615
 4992TIP3   OH236610   3.721   1.286   1.111 -0.0921 -0.4874 -0.0073
 4992TIP3    H136611   3.772   1.294   1.030 -0.5829 -0.8712 -0.3642
 4992TIP3    H236612   3.776   1.232   1.168  0.2187 -0.2923 -0.1178
 4993TIP3   OH236613   4.417   2.236   1.608  0.0688 -0.4382 -0.2349
 4993TIP3    H136614   4.380   2.168   1.553 -2.1932 -0.0912  0.7321
 4993TIP3    H236615   4.483   2.279   1.554  0.6326 -2.5397 -1.2855
 4994TIP3   OH236616   2.577   0.209   7.987  0.0520 -0.0749  0.0713
 4994TIP3    H136617   2.616   0.217   8.074 -0.9943  0.6465  0.4861
 4994TIP3    H236618   2.508   0.143   7.997  1.8004 -2.2063 -0.9264
 4995TIP3   OH236619   3.708   4.621   1.388 -0.4202 -0.5154 -0.2966
 4995TIP3    H136620   3.729   4.583   1.474 -1.7443 -0.3605  0.1200
 4995TIP3    H236621   3.740   4.557   1.325  1.1610 -0.3296  0.2814
 4996TIP3   OH236622   2.187   4.920   7.812 -1.1920 -0.1569  0.1703
 4996TIP3    H136623   2.200   4.897   7.720 -1.3903 -1.9072  0.5498
 4996TIP3    H236624   2.236   5.001   7.824 -0.5793 -0.2877 -1.3036
 4997TIP3   OH236625   6.759   4.796   7.934  0.1127  0.3618  0.4387
 4997TIP3    H136626   6.733   4.727   7.995  0.5465  0.3706  0.6420
 4997TIP3    H236627   6.677   4.829   7.898 -0.3334  1.8742  2.6460
 4998TIP3   OH236628   6.521   0.268   0.752  0.5759 -0.6878 -0.1591
 4998TIP3    H136629   6.499   0.210   0.825  2.5457 -1.3894 -0.0784
 4998TIP3    H236630   6.575   0.215   0.694  1.5354  0.7493 -0.6369
 4999TIP3   OH236631   4.648   2.937   6.997 -0.2974 -0.1171 -0.1860
 4999TIP3    H136632   4.592   2.909   6.925  1.0174  0.3715 -1.4598
 4999TIP3    H236633   4.647   2.864   7.058 -1.6292 -0.4485 -0.5752
 5000TIP3   OH236634   6.385   2.299   8.214  0.1264  0.0823 -0.0608
 5000TIP3    H136635   6.455   2.245   8.178 -0.2789  0.6236 -1.7955
 5000TIP3    H236636   6.307   2.274   8.163 -0.7483  0.1258  1.2132
 5001TIP3   OH236637   0.475   2.563   1.519 -0.2854 -0.1399 -0.0103
 5001TIP3    H136638   0.395   2.611   1.544  0.8575  0.1960  3.5792
 5001TIP3    H236639   0.509   2.529   1.602  2.1484 -2.2042 -1.7088
 5002TIP3   OH236640   4.573   2.920   1.795  0.4976 -0.0313 -0.1471
 5002TIP3    H136641   4.654   2.893   1.839  0.1332 -0.5446  0.2243
 5002TIP3    H236642   4.516   2.844   1.802  1.0272 -0.8188 -3.0744
 5003TIP3   OH236643   6.458   4.758   0.248 -0.2869 -0.4092  0.1297
 5003TIP3    H136644   6.469   4.749   0.153 -0.4732 -1.0714  0.1608
 5003TIP3    H236645   6.429   4.848   0.261 -1.4071 -0.6494 -0.5542
 5004TIP3   OH236646   3.362   4.265   0.276  0.7312 -0.1438  0.3958
 5004TIP3    H136647   3.334   4.179   0.248 -0.5690  0.3485  0.1326
 5004TIP3    H236648   3.329   4.273   0.366  0.3114  0.3075  0.2065
 5005TIP3   OH236649   4.611   6.162   8.331  0.2038  0.4187 -0.5549
 5005TIP3    H136650   4.663   6.110   8.270  1.4151 -0.1521  0.9080
 5005TIP3    H236651   4.676   6.208   8.384 -0.8234  1.1257  0.1275
 5006TIP3   OH236652   4.983   0.467   8.452  1.0762  0.2539 -0.5271
 5006TIP3    H136653   4.972   0.514   8.534  0.2590 -1.3171  0.2978
 5006TIP3    H236654   4.899   0.476   8.408  0.6247 -1.0933  0.0173
 5007TIP3   OH236655   3.505   2.797   1.019 -0.0956 -0.1062 -0.0076
 5007TIP3    H136656   3.436   2.740   1.054  0.2748 -0.5416  0.0333
 5007TIP3    H236657   3.493   2.880   1.064 -0.9792  0.0166 -0.4613
 5008TIP3   OH236658   2.967   3.612   2.089 -0.3146 -0.4775  0.1394
 5008TIP3    H136659   2.884   3.640   2.051 -1.1677 -0.8134  1.6553
 5008TIP3    H236660   2.960   3.517   2.094 -0.7129 -0.3953  2.0655
 5009TIP3   OH236661   4.214   0.523   5.919  0.4813 -0.1095 -0.1358
 5009TIP3    H136662   4.285   0.525   5.984  0.2034 -0.9871  0.2173
 5009TIP3    H236663   4.165   0.444   5.941  0.0419 -0.1021 -1.0683
 5010TIP3   OH236664   1.927   2.625   1.170  0.1373  1.0975  0.1261
 5010TIP3    H136665   1.987   2.565   1.213  1.1364  2.0874  0.1649
 5010TIP3    H236666   1.912   2.695   1.233  2.0006  2.8143 -1.2016
 5011TIP3   OH236667   2.533   2.214   7.278 -0.6938 -0.3429  0.0890
 5011TIP3    H136668   2.523   2.121   7.296 -1.4219 -0.0329  1.3475
 5011TIP3    H236669   2.444   2.244   7.258 -0.6520  0.3010  0.8323
 5012TIP3   OH236670   0.024   2.111   8.600  0.7013 -0.0215 -0.0825
 5012TIP3    H136671   0.086   2.101   8.528  1.6354 -2.8410  1.0062
 5012TIP3    H236672   0.071   2.165   8.664 -0.1888  2.6256 -1.4967
 5013TIP3   OH236673   5.273   3.639   6.962 -0.0782  0.2925  0.2858
 5013TIP3    H136674   5.347   3.681   6.918 -0.1015  0.3916  0.3394
 5013TIP3    H236675   5.294   3.546   6.963  1.3438  0.5736  2.7457
 5014TIP3   OH236676   1.837   0.716   0.063  0.6046  0.2525 -0.2690
 5014TIP3    H136677   1.752   0.679   0.086  1.1670 -0.8533  0.1409
 5014TIP3    H236678   1.860   0.771   0.137  0.9649 -0.7515  0.3880
 5015TIP3   OH236679   4.433   2.976   7.785 -0.2111 -0.8423 -0.0764
 5015TIP3    H136680   4.415   2.957   7.877 -0.7301  0.7931  0.1954
 5015TIP3    H236681   4.479   3.060   7.787 -2.7779  0.6886 -1.4377
 5016TIP3   OH236682   2.708   1.606   1.103  0.0642  0.3474  0.2666
 5016TIP3    H136683   2.705   1.542   1.033 -1.1724 -0.5263  1.0899
 5016TIP3    H236684   2.700   1.691   1.058  1.6859 -0.0189 -0.8204
 5017TIP3   OH236685   6.705   3.428   7.878  0.2497  0.1024 -0.4351
 5017TIP3    H136686   6.798   3.435   7.857  0.5614 -0.4320  0.6870
 5017TIP3    H236687   6.689   3.497   7.942  0.2593 -0.8082  0.5771
 5018TIP3   OH236688   1.301   6.145   8.199  0.0827 -0.0762 -0.4648
 5018TIP3    H136689   1.356   6.124   8.123 -1.8927 -1.7594 -1.5528
 5018TIP3    H236690   1.311   6.070   8.257  0.8491  0.7732  0.5280
 5019TIP3   OH236691   2.387   5.495   6.931  0.7342  0.2369 -0.5766
 5019TIP3    H136692   2.376   5.409   6.890 -1.2665  0.1844  0.0042
 5019TIP3    H236693   2.328   5.553   6.883 -0.4133  0.5388  1.1059
 5020TIP3   OH236694   2.128   4.054   7.330  0.5607  0.2092 -0.0597
 5020TIP3    H136695   2.079   4.043   7.249  1.4492  0.0088 -0.5922
 5020TIP3    H236696   2.190   4.124   7.312  0.0018  0.9602  0.8371
 5021TIP3   OH236697   0.098   5.965   1.608  0.2508  0.0047 -0.6517
 5021TIP3    H136698   0.012   5.924   1.617  1.4481 -2.3473  1.0627
 5021TIP3    H236699   0.085   6.034   1.542 -2.4888 -1.4725 -1.8260
 5022TIP3   OH236700   5.181   6.644   6.770  0.4541  0.2474 -0.0690
 5022TIP3    H136701   5.107   6.687   6.727 -1.3603 -1.4915  1.0932
 5022TIP3    H236702   5.210   6.578   6.707 -0.0164 -0.0888  0.0612
 5023TIP3   OH236703   3.207   2.334   0.894 -0.2018  0.3657 -0.5995
 5023TIP3    H136704   3.195   2.376   0.809 -1.0296 -0.2100 -0.7825
 5023TIP3    H236705   3.118   2.314   0.923  0.0753  0.4766  0.3659
 5024TIP3   OH236706   2.231   4.405   7.679  0.5202  0.1214  0.3323
 5024TIP3    H136707   2.198   4.437   7.595  1.7871 -0.1100 -0.2730
 5024TIP3    H236708   2.173   4.446   7.744 -0.3667  0.4434 -0.6303
 5025TIP3   OH236709   1.328   2.863   1.182  0.1536  0.1282 -0.1700
 5025TIP3    H136710   1.363   2.824   1.262  0.2546  0.2704 -0.1446
 5025TIP3    H236711   1.264   2.799   1.150 -0.7601  0.5973  0.6618
 5026TIP3   OH236712   5.527   4.115   6.786  0.1094 -0.3693 -0.4518
 5026TIP3    H136713   5.606   4.082   6.744  0.2964 -0.4148 -0.0693
 5026TIP3    H236714   5.464   4.126   6.715  1.1317  1.7448 -1.1127
 5027TIP3   OH236715   1.810   5.059   1.936  0.4645 -0.3269 -0.0274
 5027TIP3    H136716   1.836   4.968   1.925 -1.1300 -0.7091 -0.9750
 5027TIP3    H236717   1.882   5.109   1.897  1.2256 -1.1669  0.2559
 5028TIP3   OH236718   2.808   3.410   7.032  0.1729 -0.1601  0.2420
 5028TIP3    H136719   2.876   3.471   7.003 -1.4081  0.5564 -2.2504
 5028TIP3    H236720   2.764   3.382   6.952 -0.8072 -2.6778  1.5183
 5029TIP3   OH236721   1.607   1.816   7.922  0.1066  0.0782  0.0478
 5029TIP3    H136722   1.591   1.892   7.979 -1.0376 -0.7221  0.8343
 5029TIP3    H236723   1.634   1.854   7.838  0.2760  1.3296  0.6474
 5030TIP3   OH236724   5.526   4.749   7.971 -0.2509  0.2590 -0.6440
 5030TIP3    H136725   5.588   4.732   8.043 -0.0518 -0.8649 -1.0516
 5030TIP3    H236726   5.447   4.781   8.014  0.1222  0.3100  0.0118
 5031TIP3   OH236727   2.941   0.478   8.535 -0.2714 -0.5230  0.7646
 5031TIP3    H136728   2.994   0.553   8.508  0.6044 -1.7966 -1.3542
 5031TIP3    H236729   2.953   0.473   8.630  1.0976  0.9213  0.7197
 5032TIP3   OH236730   0.695   4.403   1.551 -0.4221  0.6193 -0.8674
 5032TIP3    H136731   0.789   4.420   1.547 -0.3269 -0.1294 -2.5689
 5032TIP3    H236732   0.665   4.413   1.461 -1.7197 -0.5254 -0.5915
 5033TIP3   OH236733   0.507   5.969   6.332  0.6356 -0.5106 -0.2685
 5033TIP3    H136734   0.446   6.043   6.322  0.2129 -0.6804  0.9281
 5033TIP3    H236735   0.524   5.941   6.242 -0.4846  0.0113 -0.6730
 5034TIP3   OH236736   2.856   6.433   0.435  0.2825  0.0188  0.0051
 5034TIP3    H136737   2.868   6.339   0.419 -0.2286 -0.2760  1.1937
 5034TIP3    H236738   2.945   6.467   0.446  0.5246 -0.1256 -1.3997
 5035TIP3   OH236739   2.658   2.290   8.789 -0.0397 -0.4956 -0.0516
 5035TIP3    H136740   2.630   2.366   8.738 -0.1160  0.3580  1.2312
 5035TIP3    H236741   2.743   2.315   8.825 -0.2205 -0.8709  0.6577
 5036TIP3   OH236742   3.153   2.430   1.617  0.2422  0.1847 -0.1255
 5036TIP3    H136743   3.063   2.405   1.639 -0.3146  0.7764 -1.5559
 5036TIP3    H236744   3.205   2.403   1.692 -1.0361 -0.7764  0.4519
 5037TIP3   OH236745   4.804   2.059   7.751 -0.5189 -0.4336  0.5260
 5037TIP3    H136746   4.839   2.079   7.664  0.2828  0.2709  1.0000
 5037TIP3    H236747   4.713   2.032   7.734  0.0799 -1.8844 -0.6793
 5038TIP3   OH236748   6.566   2.329   1.763 -0.0000 -0.6035 -0.0517
 5038TIP3    H136749   6.543   2.393   1.696 -1.0932  0.1192  0.9580
 5038TIP3    H236750   6.548   2.244   1.723  0.8589 -0.2794 -1.1868
 5039TIP3   OH236751   4.598   5.522   6.118 -1.1626  0.2098  0.6177
 5039TIP3    H136752   4.529   5.532   6.053 -0.1194  1.3530 -0.3526
 5039TIP3    H236753   4.595   5.603   6.169  1.1887  1.5575 -1.2067
 5040TIP3   OH236754   0.157   5.158   0.294 -0.0004  0.1926 -0.4129
 5040TIP3    H136755   0.082   5.107   0.327  1.5129 -2.0599 -0.2018
 5040TIP3    H236756   0.126   5.198   0.213 -2.0232  1.0011  0.7020
 5041TIP3   OH236757   5.755   2.422   1.309 -0.4239 -0.0758  0.1935
 5041TIP3    H136758   5.744   2.385   1.396  1.4266 -0.3967  0.3486
 5041TIP3    H236759   5.750   2.347   1.250  0.3220 -0.1658  0.2311
 5042TIP3   OH236760   1.402   4.607   0.646  0.3133 -0.1137  0.0701
 5042TIP3    H136761   1.396   4.566   0.560 -0.6233 -0.9774  0.5189
 5042TIP3    H236762   1.466   4.553   0.694  0.8495  0.3781 -0.0842
 5043TIP3   OH236763   1.074   4.482   7.470  0.0572  0.0057  0.3758
 5043TIP3    H136764   1.085   4.553   7.407  0.4962 -0.1452  0.2821
 5043TIP3    H236765   1.161   4.445   7.481 -0.2295 -0.7734  0.1316
 5044TIP3   OH236766   4.623   6.345   1.354 -0.1349  0.0637  0.3264
 5044TIP3    H136767   4.683   6.405   1.309 -0.0952  0.1530  0.4982
 5044TIP3    H236768   4.642   6.357   1.446 -0.6742  0.3629  0.4051
 5045TIP3   OH236769   6.814   5.677   0.402  0.8891  0.3864  0.1802
 5045TIP3    H136770   6.883   5.683   0.468 -0.0422  1.9988  1.0767
 5045TIP3    H236771   6.745   5.625   0.444  0.6796  0.6149  0.1217
 5046TIP3   OH236772   2.395   4.659   7.792  0.0817  0.0760 -0.3643
 5046TIP3    H136773   2.312   4.684   7.834  0.4142 -0.6716  0.7957
 5046TIP3    H236774   2.458   4.723   7.824  0.0893  0.2406 -0.7081
 5047TIP3   OH236775   3.706   3.642   7.994 -0.4572  0.4052  0.0823
 5047TIP3    H136776   3.757   3.659   7.915 -2.4037  1.5507 -1.0260
 5047TIP3    H236777   3.639   3.710   7.994 -2.6452 -1.5853  0.8062
 5048TIP3   OH236778   4.058   6.605   6.572  0.2151  0.0580  0.0421
 5048TIP3    H136779   3.969   6.586   6.544  0.7780 -0.8857 -1.1807
 5048TIP3    H236780   4.061   6.576   6.664 -0.9372  0.8548  0.3573
 5049TIP3   OH236781   4.722   0.245   0.928 -0.8439 -0.0173 -0.2996
 5049TIP3    H136782   4.739   0.326   0.976 -0.4950  0.2030 -0.7858
 5049TIP3    H236783   4.781   0.181   0.970 -1.0148  0.0117 -0.0100
 5050TIP3   OH236784   0.424   0.871   7.955 -0.1763 -0.1254 -0.2074
 5050TIP3    H136785   0.427   0.795   8.013  1.8453 -0.0436 -0.1525
 5050TIP3    H236786   0.387   0.837   7.873 -1.3516 -0.6452  0.5208
 5051TIP3   OH236787   2.024   2.975   1.314  0.4803  0.1926  0.1600
 5051TIP3    H136788   2.087   2.921   1.267  0.2933 -0.7862  1.0220
 5051TIP3    H236789   1.964   3.006   1.246  0.5671 -0.7100 -0.3404
 5052TIP3   OH236790   1.058   6.040   7.674  0.7796 -0.2867  0.2521
 5052TIP3    H136791   1.028   6.085   7.595  1.4171  0.0271  0.1760
 5052TIP3    H236792   1.141   6.083   7.695  1.3515 -1.3386  0.2460
 5053TIP3   OH236793   4.158   3.769   1.401  0.2924  0.1035  0.2004
 5053TIP3    H136794   4.075   3.728   1.376  0.2860 -0.8764  1.6726
 5053TIP3    H236795   4.201   3.704   1.457  1.9215  0.7200 -0.2687
 5054TIP3   OH236796   0.299   4.543   7.159  0.3625  0.2683  0.5731
 5054TIP3    H136797   0.319   4.449   7.159  1.6614  0.4862 -1.1274
 5054TIP3    H236798   0.273   4.562   7.249 -0.3534 -1.7923  0.8692
 5055TIP3   OH236799   6.401   2.890   7.107 -0.3260  0.1306  0.2327
 5055TIP3    H136800   6.492   2.907   7.085 -0.3388 -0.5097 -0.3533
 5055TIP3    H236801   6.383   2.946   7.183  0.2554  1.0140 -0.2758
 5056TIP3   OH236802   3.310   6.628   7.833 -0.1927  0.3834  0.1405
 5056TIP3    H136803   3.319   6.574   7.754  1.2793 -0.0724  0.5882
 5056TIP3    H236804   3.279   6.568   7.900  0.8872  0.1917  0.4926
 5057TIP3   OH236805   1.381   0.903   1.886 -0.2588  0.0866  0.3786
 5057TIP3    H136806   1.391   0.970   1.819  0.4589 -0.7902 -0.4314
 5057TIP3    H236807   1.407   0.946   1.967  0.0240  0.8338 -0.0965
 5058TIP3   OH236808   0.131   5.768   8.191 -0.4703  0.4047  0.3278
 5058TIP3    H136809   0.048   5.811   8.172  0.6962  3.1353  0.8658
 5058TIP3    H236810   0.196   5.839   8.188  1.7099 -1.4443  0.8499
 5059TIP3   OH236811   5.713   5.320   0.367 -0.0042  0.6842 -0.3278
 5059TIP3    H136812   5.806   5.299   0.358  0.2998 -0.0785  3.1131
 5059TIP3    H236813   5.676   5.301   0.281  2.7180 -0.6720 -1.3322
 5060TIP3   OH236814   2.071   2.387   1.542 -0.2929  0.1220 -0.2979
 5060TIP3    H136815   2.093   2.440   1.466  1.8191 -0.0275  0.1452
 5060TIP3    H236816   2.054   2.450   1.612  1.8128  0.2899  0.1229
 5061TIP3   OH236817   2.410   3.492   7.433  0.2189  0.1098 -0.2132
 5061TIP3    H136818   2.383   3.579   7.404  0.4857  0.5534  0.8202
 5061TIP3    H236819   2.504   3.489   7.419  0.1808 -0.0839 -0.4294
 5062TIP3   OH236820   4.401   6.785   0.373  0.1635  0.2564  0.0110
 5062TIP3    H136821   4.435   6.853   0.314 -2.1239  1.3714 -0.1172
 5062TIP3    H236822   4.347   6.730   0.316  0.8310 -0.8387  0.4066
 5063TIP3   OH236823   1.427   1.450   6.591  0.3396  0.0520  0.1998
 5063TIP3    H136824   1.355   1.420   6.536 -0.2220  1.3930  0.1694
 5063TIP3    H236825   1.442   1.377   6.652 -0.5606 -0.5279 -0.2494
 5064TIP3   OH236826   3.527   1.044   6.822  0.4275 -0.6156 -0.1043
 5064TIP3    H136827   3.525   1.095   6.903 -1.6324  1.0107 -1.0576
 5064TIP3    H236828   3.611   1.065   6.782  0.7906 -0.1794  0.8592
 5065TIP3   OH236829   1.424   0.220   8.733  0.2158 -0.5828 -0.4701
 5065TIP3    H136830   1.515   0.214   8.706 -0.2392 -0.6831 -2.0805
 5065TIP3    H236831   1.390   0.298   8.688 -0.3442 -0.1743  0.6043
 5066TIP3   OH236832   1.886   6.166   7.785  0.0287  0.4044  0.5377
 5066TIP3    H136833   1.939   6.247   7.788  1.4604 -0.5180  1.8795
 5066TIP3    H236834   1.818   6.180   7.850  0.0789  0.6574  0.5388
 5067TIP3   OH236835   2.413   4.835   1.872  0.5239  0.2705  0.2388
 5067TIP3    H136836   2.385   4.879   1.792 -1.3814 -1.8036 -0.3323
 5067TIP3    H236837   2.339   4.844   1.931 -0.0012 -2.1688  0.0517
 5068TIP3   OH236838   6.413   0.362   0.526 -0.2028  0.8601  0.0055
 5068TIP3    H136839   6.457   0.351   0.610  2.8824  0.2778 -1.5408
 5068TIP3    H236840   6.421   0.277   0.482 -2.5333  0.8763 -0.6277
 5069TIP3   OH236841   5.625   0.649   6.666  0.1804  0.0395  0.2378
 5069TIP3    H136842   5.683   0.587   6.622 -0.2043  1.3882 -2.3410
 5069TIP3    H236843   5.578   0.692   6.595 -2.5005  0.4758  2.1299
 5070TIP3   OH236844   0.332   2.122   8.096 -0.4093 -0.1259 -0.3043
 5070TIP3    H136845   0.245   2.127   8.056 -0.5697 -1.9595 -0.2724
 5070TIP3    H236846   0.392   2.149   8.027 -0.8127 -1.5449 -1.2466
 5071TIP3   OH236847   1.421   0.432   1.197  0.8988 -0.2558  0.0368
 5071TIP3    H136848   1.464   0.507   1.237  1.3303 -0.1246 -0.6647
 5071TIP3    H236849   1.491   0.382   1.157  0.6497 -1.1943  0.7269
 5072TIP3   OH236850   5.255   3.724   6.173 -0.0028  0.2718  0.1845
 5072TIP3    H136851   5.226   3.639   6.138 -0.3836  0.1980  0.6700
 5072TIP3    H236852   5.245   3.715   6.268 -0.1393  0.8985  0.2289
 5073TIP3   OH236853   6.703   4.033   6.949 -0.2811  0.1227 -0.3415
 5073TIP3    H136854   6.788   4.009   6.912 -0.7323 -0.5011 -1.0010
 5073TIP3    H236855   6.644   4.035   6.874 -1.0770 -0.5287  0.2407
 5074TIP3   OH236856   1.741   2.458   1.036 -0.4309  0.0937  0.3896
 5074TIP3    H136857   1.772   2.410   0.960  1.4992  1.4293  0.2563
 5074TIP3    H236858   1.813   2.517   1.059 -0.9175 -0.2520  3.2588
 5075TIP3   OH236859   1.657   1.252   0.190  0.0455  0.1502  0.0405
 5075TIP3    H136860   1.576   1.235   0.238 -1.2443 -0.4161 -2.1774
 5075TIP3    H236861   1.645   1.340   0.153  0.5433  0.1347 -0.1659
 5076TIP3   OH236862   4.584   2.288   2.288  0.3986 -0.1092 -0.7100
 5076TIP3    H136863   4.596   2.233   2.365  0.2127 -0.3857 -0.8777
 5076TIP3    H236864   4.532   2.235   2.228 -2.0171  1.1421  0.1228
 5077TIP3   OH236865   2.402   0.848   0.063 -0.0828 -0.3784  0.0827
 5077TIP3    H136866   2.310   0.829   0.076 -0.1359  0.4240  1.0545
 5077TIP3    H236867   2.407   0.890  -0.023 -1.1565  2.5429  1.2999
 5078TIP3   OH236868   5.927   0.069   7.307  0.0587 -0.3824  0.2044
 5078TIP3    H136869   5.883   0.153   7.321  0.1201 -0.6110  2.0432
 5078TIP3    H236870   6.001   0.090   7.251  1.1603  1.2068  2.0885
 5079TIP3   OH236871   1.812   5.650   8.393 -0.2068 -0.0541 -0.1376
 5079TIP3    H136872   1.818   5.603   8.310 -1.8397  0.6041 -0.6598
 5079TIP3    H236873   1.722   5.638   8.422  0.4017 -0.5585  1.7478
 5080TIP3   OH236874   1.400   0.636   8.402  0.6467 -0.0298  0.1501
 5080TIP3    H136875   1.373   0.546   8.388 -1.2540  0.4290  0.5512
 5080TIP3    H236876   1.424   0.640   8.494 -0.5496  0.1400  0.4747
 5081TIP3   OH236877   3.711   2.108   8.533  0.6402 -0.0418 -0.6399
 5081TIP3    H136878   3.682   2.113   8.624  1.0089  0.3499 -0.5371
 5081TIP3    H236879   3.800   2.072   8.538  0.6863  0.0407 -0.8390
 5082TIP3   OH236880   0.188   0.192   7.733  0.2869  0.2913  0.6130
 5082TIP3    H136881   0.282   0.194   7.714  0.0505 -1.0672 -0.8692
 5082TIP3    H236882   0.181   0.151   7.819  1.0047 -0.4455  0.3232
 5083TIP3   OH236883   2.674   6.001   1.895 -0.2896 -0.2976 -0.1431
 5083TIP3    H136884   2.664   6.081   1.946 -0.5155 -1.2319  1.3325
 5083TIP3    H236885   2.584   5.972   1.878 -0.2254  0.1909 -1.4125
 5084TIP3   OH236886   5.656   6.641   7.290 -0.0259 -0.1418 -0.2875
 5084TIP3    H136887   5.624   6.567   7.342 -1.1430 -0.3754 -1.2602
 5084TIP3    H236888   5.635   6.617   7.200  0.0374  1.1563 -0.6600
 5085TIP3   OH236889   1.006   0.160   1.903 -0.4275 -0.3565  0.5506
 5085TIP3    H136890   0.928   0.186   1.952  0.4696 -1.2040  2.5267
 5085TIP3    H236891   1.042   0.242   1.870 -1.2756  0.2121  1.0019
 5086TIP3   OH236892   0.616   1.646   7.117 -0.1125 -0.1181 -0.3037
 5086TIP3    H136893   0.655   1.647   7.205 -1.4488 -0.8199  0.3211
 5086TIP3    H236894   0.552   1.716   7.118 -1.2095 -1.0966 -0.1872
 5087TIP3   OH236895   4.109   3.321   2.146 -0.7670 -0.6159  0.4728
 5087TIP3    H136896   4.035   3.295   2.091  0.2261  1.7707 -2.2679
 5087TIP3    H236897   4.179   3.261   2.121  0.2982  1.6502 -2.7379
 5088TIP3   OH236898   1.962   2.345   7.732  0.4567 -0.1731  0.6499
 5088TIP3    H136899   2.013   2.272   7.698  0.4092 -0.0991  0.4212
 5088TIP3    H236900   1.928   2.313   7.816 -0.2857 -0.7296  0.1506
 5089TIP3   OH236901   3.472   1.992   0.542  0.4773  0.2245 -0.3008
 5089TIP3    H136902   3.478   2.046   0.621  0.6676  0.4164 -0.4429
 5089TIP3    H236903   3.543   2.024   0.486  1.2750 -0.8924  0.0501
 5090TIP3   OH236904   1.913   4.179   0.154 -0.0455 -0.2405  0.7945
 5090TIP3    H136905   1.912   4.178   0.058  2.4731 -0.6896  0.7039
 5090TIP3    H236906   1.911   4.271   0.177 -0.8407 -0.1318  0.3397
 5091TIP3   OH236907   3.665   2.164   0.423  0.3415  0.9045  0.0806
 5091TIP3    H136908   3.652   2.252   0.459  1.7488  1.9599 -1.8009
 5091TIP3    H236909   3.617   2.165   0.340  2.6079  0.9056 -1.3073
 5092TIP3   OH236910   4.175   4.723   7.077 -0.1873 -0.0086 -0.7066
 5092TIP3    H136911   4.189   4.781   7.002 -0.3189  1.1876  0.1550
 5092TIP3    H236912   4.230   4.647   7.059 -0.3372  0.1778 -2.0777
 5093TIP3   OH236913   3.184   4.751   7.168 -0.9588  0.0385  0.0694
 5093TIP3    H136914   3.174   4.775   7.076 -1.1768  1.3078  0.4068
 5093TIP3    H236915   3.210   4.659   7.166 -0.3992  0.2059 -1.2743
 5094TIP3   OH236916   4.178   5.804   1.706  0.1384 -0.2881  0.8864
 5094TIP3    H136917   4.196   5.772   1.794 -1.1500  0.1749  1.3401
 5094TIP3    H236918   4.095   5.852   1.714  0.6189  0.8173 -0.3224
 5095TIP3   OH236919   6.461   4.756   8.445 -0.1110 -0.4187  0.2162
 5095TIP3    H136920   6.483   4.726   8.533 -0.5392  1.0817  0.8683
 5095TIP3    H236921   6.444   4.676   8.396 -0.5912 -1.2567  1.6931
 5096TIP3   OH236922   4.547   1.456   1.300  0.2874  0.0196  0.3205
 5096TIP3    H136923   4.629   1.409   1.286 -0.1594 -0.1638 -1.9556
 5096TIP3    H236924   4.569   1.548   1.288  0.0507 -0.0826 -1.0188
 5097TIP3   OH236925   1.527   2.265   6.904  0.3137  0.3061 -0.2667
 5097TIP3    H136926   1.511   2.344   6.852 -0.2985  0.2438 -0.1839
 5097TIP3    H236927   1.519   2.193   6.841  1.8254  0.3515 -0.5407
 5098TIP3   OH236928   5.997   1.027   0.143  0.1334 -0.0313 -0.0349
 5098TIP3    H136929   5.918   1.034   0.196  0.8117  0.5552  0.9321
 5098TIP3    H236930   5.965   1.022   0.053 -1.1044 -2.1180  0.4322
 5099TIP3   OH236931   0.159   4.049   2.612  0.5028  0.3348  0.6781
 5099TIP3    H136932   0.132   3.964   2.645  1.2616 -0.3862 -0.4779
 5099TIP3    H236933   0.099   4.111   2.652 -2.2141 -1.0679 -0.9550
 5100TIP3   OH236934   3.851   6.025   6.858  0.0021 -0.2883 -0.0077
 5100TIP3    H136935   3.841   6.029   6.763  1.7014  1.0017 -0.1658
 5100TIP3    H236936   3.793   6.094   6.891  0.1774 -0.0672 -0.1658
 5101TIP3   OH236937   0.919   5.527   6.236  0.0007 -0.4250 -0.0741
 5101TIP3    H136938   0.864   5.528   6.314 -0.7397  1.2453 -0.5583
 5101TIP3    H236939   0.941   5.435   6.223 -2.3345 -1.1168  0.3757
 5102TIP3   OH236940   2.912   4.247   7.599 -0.5403 -0.2570 -0.1609
 5102TIP3    H136941   2.941   4.213   7.683 -0.7401  1.7717  0.7817
 5102TIP3    H236942   2.924   4.342   7.605 -2.8661  0.2212 -1.4859
 5103TIP3   OH236943   5.722   3.527   8.511  0.4256 -0.3052 -0.0729
 5103TIP3    H136944   5.719   3.465   8.437 -2.4087 -0.2373 -0.1493
 5103TIP3    H236945   5.815   3.547   8.523  1.0260 -0.4372 -3.5305
 5104TIP3   OH236946   5.291   3.628   8.510  0.0429 -0.5394 -0.1269
 5104TIP3    H136947   5.247   3.708   8.537  2.3381  0.5211  0.7575
 5104TIP3    H236948   5.259   3.611   8.421 -0.6519  1.2324 -0.2505
 5105TIP3   OH236949   4.016   2.162   1.097 -0.0851 -0.1337 -0.2539
 5105TIP3    H136950   4.042   2.080   1.139  1.0441 -1.9172 -4.0396
 5105TIP3    H236951   4.087   2.182   1.036 -1.2532  2.6314 -0.8652
 5106TIP3   OH236952   6.173   4.482   0.264  0.3546 -0.1034  0.0068
 5106TIP3    H136953   6.246   4.497   0.203  2.8696 -3.1596  1.9123
 5106TIP3    H236954   6.164   4.387   0.268 -2.4571  0.1038  1.4070
 5107TIP3   OH236955   0.198   3.129   8.732  0.0244 -0.1081  0.1415
 5107TIP3    H136956   0.264   3.143   8.801  0.3174 -2.3502  0.3871
 5107TIP3    H236957   0.173   3.218   8.705  1.5580  0.8210  1.5471
 5108TIP3   OH236958   4.918   5.505   7.126 -0.3932 -0.1596  0.3640
 5108TIP3    H136959   4.899   5.438   7.060  1.4024  1.1824 -1.6418
 5108TIP3    H236960   4.839   5.560   7.127 -1.2243 -1.3392  0.8236
 5109TIP3   OH236961   2.549   6.444   6.637  0.7210 -0.0642  0.3033
 5109TIP3    H136962   2.464   6.485   6.625  0.1320 -1.6024 -1.4156
 5109TIP3    H236963   2.603   6.481   6.567  1.1655  0.1391  0.7475
 5110TIP3   OH236964   4.909   1.891   0.631 -0.1236 -0.5853  0.3339
 5110TIP3    H136965   4.899   1.940   0.712 -2.0394 -0.9377  0.3536
 5110TIP3    H236966   4.822   1.856   0.612  0.7788 -2.5094 -0.6145
 5111TIP3   OH236967   5.827   3.308   7.229  0.2799  0.2448  0.5723
 5111TIP3    H136968   5.875   3.384   7.196 -3.1691  1.4019 -2.4503
 5111TIP3    H236969   5.780   3.340   7.305 -0.8367  1.1038 -0.4494
 5112TIP3   OH236970   3.101   5.156   1.478 -0.0322 -0.4658 -0.5251
 5112TIP3    H136971   3.085   5.143   1.571  1.9024  0.5005  0.0179
 5112TIP3    H236972   3.077   5.073   1.437 -2.3170 -0.4260  0.5880
 5113TIP3   OH236973   5.402   2.703   6.866 -0.2216  0.3070 -0.1567
 5113TIP3    H136974   5.455   2.682   6.790 -0.5144 -0.4176 -0.1680
 5113TIP3    H236975   5.367   2.790   6.848  1.0049  0.8234 -0.1185
 5114TIP3   OH236976   2.625   0.486   1.569  0.3386  0.2198 -0.1681
 5114TIP3    H136977   2.590   0.434   1.642  3.1950 -0.5186  0.8248
 5114TIP3    H236978   2.618   0.577   1.599 -2.6417  0.3695 -0.9845
 5115TIP3   OH236979   2.265   1.212   0.595  0.8049 -0.2775 -0.0448
 5115TIP3    H136980   2.324   1.213   0.670  0.1848  0.0332  0.4485
 5115TIP3    H236981   2.293   1.137   0.543  0.0977 -1.6347  1.4407
 5116TIP3   OH236982   6.549   3.839   1.895 -0.2605  0.2524 -0.5053
 5116TIP3    H136983   6.469   3.891   1.902 -1.0538 -0.6020 -2.5748
 5116TIP3    H236984   6.589   3.868   1.812  2.0053  1.1783  0.8004
 5117TIP3   OH236985   5.249   4.320   6.543 -0.1785  0.3803  0.5575
 5117TIP3    H136986   5.338   4.287   6.555  0.0104  0.6283 -0.0955
 5117TIP3    H236987   5.260   4.407   6.504 -0.7195 -0.3740 -1.3973
 5118TIP3   OH236988   2.046   0.879   1.081 -0.3157  0.4110  0.1643
 5118TIP3    H136989   2.030   0.832   1.162 -0.3302 -1.0513 -0.6557
 5118TIP3    H236990   1.978   0.849   1.021 -0.2462  1.3821 -0.4377
 5119TIP3   OH236991   1.600   6.840   1.829  0.4099  0.1749 -0.4756
 5119TIP3    H136992   1.613   6.803   1.916 -1.7339  2.0656  0.7230
 5119TIP3    H236993   1.685   6.828   1.786  1.2846 -1.5466  1.5485
 5120TIP3   OH236994   4.228   4.948   1.066 -0.0367  0.1414 -0.3333
 5120TIP3    H136995   4.229   5.043   1.068 -0.4656  0.1392  1.9223
 5120TIP3    H236996   4.138   4.924   1.089  0.3687 -0.7958  0.3441
 5121TIP3   OH236997   2.279   1.711   7.357 -0.2490  0.0250 -0.7219
 5121TIP3    H136998   2.354   1.745   7.406  0.3527  0.3853 -1.8410
 5121TIP3    H236999   2.300   1.729   7.265 -0.5736 -2.1037 -1.2736
 5122TIP3   OH237000   3.408   0.890   8.793 -0.1791  0.5582  0.7371
 5122TIP3    H137001   3.492   0.861   8.757 -0.2990  1.4724 -0.3678
 5122TIP3    H237002   3.431   0.959   8.856  0.0406 -1.1322  2.5967
 5123TIP3   OH237003   2.073   4.391   8.418  0.2277 -0.0958 -0.4069
 5123TIP3    H137004   2.109   4.444   8.347  0.1729  0.3439 -0.1117
 5123TIP3    H237005   2.148   4.341   8.452  0.5834  0.8566  0.2425
 5124TIP3   OH237006   4.201   4.642   8.374 -0.3536  0.3805 -0.1321
 5124TIP3    H137007   4.208   4.714   8.436  1.6661 -0.2008  0.3988
 5124TIP3    H237008   4.182   4.685   8.290 -1.2783  1.3290  0.5415
 5125TIP3   OH237009   2.628   5.658   0.645  0.3821  0.2216 -0.0679
 5125TIP3    H137010   2.629   5.727   0.579 -0.3461  0.1118 -0.2063
 5125TIP3    H237011   2.542   5.616   0.635  0.1287  0.4031  1.1498
 5126TIP3   OH237012   3.020   0.009   1.624 -0.2862  0.0019  0.4488
 5126TIP3    H137013   3.042   0.097   1.656 -0.5100  1.0473 -2.0356
 5126TIP3    H237014   3.100  -0.042   1.635  0.0592  0.7069  1.2871
 5127TIP3   OH237015   5.432   5.226   8.622  0.2472 -0.0395 -0.4349
 5127TIP3    H137016   5.513   5.241   8.672 -0.0695  2.4749 -0.5252
 5127TIP3    H237017   5.381   5.166   8.677  2.1058 -1.6345 -0.3521
 5128TIP3   OH237018   1.654   4.947   7.731  0.5940  0.3116 -0.7682
 5128TIP3    H137019   1.684   5.036   7.710 -2.3380  1.3049 -1.1450
 5128TIP3    H237020   1.660   4.942   7.826  0.1281  1.1730 -0.6860
 5129TIP3   OH237021   4.254   2.738   8.531  0.2506 -0.4069  0.1201
 5129TIP3    H137022   4.316   2.771   8.467  1.0863 -1.3185  0.4498
 5129TIP3    H237023   4.171   2.734   8.484  0.3976  0.9279 -0.2870
 5130TIP3   OH237024   0.758   2.527   8.247  0.4466 -0.1518 -0.1340
 5130TIP3    H137025   0.807   2.484   8.178  0.8661 -3.2937  1.9033
 5130TIP3    H237026   0.675   2.479   8.251 -0.1554  0.9160  0.6006
 5131TIP3   OH237027   1.069   4.030   8.675 -0.0226 -0.0899 -0.0673
 5131TIP3    H137028   1.165   4.021   8.671 -0.0043 -0.2426  0.6063
 5131TIP3    H237029   1.053   4.088   8.749 -0.4707 -0.4628  0.1330
 5132TIP3   OH237030   2.670   6.595   6.914  0.4886 -0.1427  0.0786
 5132TIP3    H137031   2.634   6.512   6.882  0.5037  0.6402 -2.1445
 5132TIP3    H237032   2.597   6.637   6.960 -0.4452 -0.0870 -1.3977
 5133TIP3   OH237033   3.928   3.107   8.594 -0.5214 -0.7278  0.5001
 5133TIP3    H137034   3.861   3.048   8.560 -1.0623  0.5515 -0.7525
 5133TIP3    H237035   3.880   3.169   8.649 -0.4917  0.5216 -0.8266
 5134TIP3   OH237036   2.216   2.381   0.015  0.3055 -0.0693  0.5261
 5134TIP3    H137037   2.132   2.334   0.021  0.1651  0.0802 -0.1470
 5134TIP3    H237038   2.280   2.322   0.054  0.1166 -0.7953 -0.2316
 5135TIP3   OH237039   0.940   3.480   1.160  0.5106  0.0992 -0.3550
 5135TIP3    H137040   0.996   3.506   1.087 -0.1009 -0.5867 -1.0984
 5135TIP3    H237041   0.892   3.404   1.127 -1.6613  1.2830 -0.1656
 5136TIP3   OH237042   1.479   4.717   7.602 -0.5582  0.4284 -0.6262
 5136TIP3    H137043   1.441   4.766   7.529 -3.0824 -0.6785 -0.1783
 5136TIP3    H237044   1.519   4.784   7.658  0.5780  1.3854 -2.5064
 5137TIP3   OH237045   6.413   5.485   8.477 -0.1838  0.0322 -0.4168
 5137TIP3    H137046   6.440   5.400   8.510  0.8990  0.4135 -0.2697
 5137TIP3    H237047   6.476   5.547   8.515 -1.5364  1.0361  0.2710
 5138TIP3   OH237048   0.722   2.764   8.135 -0.7714 -0.2154  0.6476
 5138TIP3    H137049   0.731   2.683   8.185 -0.7864 -0.1161  0.8104
 5138TIP3    H237050   0.768   2.830   8.187 -1.3794  0.0361  0.8759
 5139TIP3   OH237051   4.375   1.353   7.984  0.1086  0.1232  0.2661
 5139TIP3    H137052   4.441   1.363   7.915 -0.8271 -0.8250 -0.8137
 5139TIP3    H237053   4.349   1.442   8.006  0.1820  0.4326 -0.8586
 5140TIP3   OH237054   6.125   6.216   0.865 -0.0574  0.3323 -0.3729
 5140TIP3    H137055   6.140   6.131   0.823 -1.6157  0.7634 -1.9287
 5140TIP3    H237056   6.115   6.277   0.792  2.6014  2.2448  0.6699
 5141TIP3   OH237057   0.839   0.552   2.430  0.4439 -0.1382 -0.1881
 5141TIP3    H137058   0.794   0.468   2.441 -0.3563  0.4138  0.9134
 5141TIP3    H237059   0.927   0.538   2.466  0.0506 -0.2768  0.7183
 5142TIP3   OH237060   0.520   6.817   0.640  0.0655 -0.2656 -0.6896
 5142TIP3    H137061   0.563   6.808   0.724  0.1351  0.7548 -0.6079
 5142TIP3    H237062   0.508   6.726   0.609  0.3740 -0.6284  0.2304
 5143TIP3   OH237063   3.287   1.084   2.228  0.5428 -0.4907  0.1646
 5143TIP3    H137064   3.315   1.032   2.304 -2.3274 -1.3681  0.7270
 5143TIP3    H237065   3.201   1.048   2.205 -0.2600  2.1397 -1.2698
 5144TIP3   OH237066   3.245   4.962   7.570 -0.2104  0.2513  0.0437
 5144TIP3    H137067   3.340   4.954   7.568  0.1051  2.9083 -0.2732
 5144TIP3    H237068   3.225   4.990   7.659 -0.8467 -1.3667  0.4290
 5145TIP3   OH237069   2.172   0.837   8.615  0.3372  0.1191  0.2238
 5145TIP3    H137070   2.161   0.915   8.669 -0.4132  0.9007 -1.0041
 5145TIP3    H237071   2.140   0.863   8.528  0.8967 -1.2874 -0.4379
 5146TIP3   OH237072   1.406   2.929   0.292  0.1627 -0.1009  0.1422
 5146TIP3    H137073   1.367   3.016   0.283  2.3950  0.9827  0.4272
 5146TIP3    H237074   1.474   2.940   0.359  0.4039 -2.1092  0.2879
 5147TIP3   OH237075   0.000   0.132   0.822  0.2683 -0.0885 -0.2024
 5147TIP3    H137076   0.084   0.108   0.783 -0.6778 -1.1006 -1.7251
 5147TIP3    H237077   0.003   0.227   0.829  1.9885 -0.1806  0.9137
 5148TIP3   OH237078   2.282   5.260   2.202  0.2004 -0.3701 -0.7036
 5148TIP3    H137079   2.268   5.355   2.204  1.8008 -0.1005  1.5655
 5148TIP3    H237080   2.366   5.248   2.245 -0.2049 -2.8734 -0.5066
 5149TIP3   OH237081   6.715   0.265   6.619 -0.3145 -0.3824 -0.7464
 5149TIP3    H137082   6.635   0.309   6.590 -1.8602 -2.6344 -0.1619
 5149TIP3    H237083   6.707   0.260   6.714  0.6098 -0.5053 -0.6613
 5150TIP3   OH237084   3.244   4.018   6.855  0.0115 -0.4711  0.1697
 5150TIP3    H137085   3.283   4.021   6.767  1.1033 -1.0236  0.6073
 5150TIP3    H237086   3.266   3.930   6.887 -0.6740 -0.3941  0.8708
 5151TIP3   OH237087   5.503   4.356   0.259 -0.4638  0.2400 -0.2625
 5151TIP3    H137088   5.409   4.374   0.250 -0.3107  0.8393 -0.6961
 5151TIP3    H237089   5.524   4.382   0.348 -0.8015 -0.3115 -0.0199
 5152TIP3   OH237090   3.450   3.075   1.728 -0.2974 -0.5912  0.1278
 5152TIP3    H137091   3.503   2.996   1.717  0.0011 -0.4624  0.6122
 5152TIP3    H237092   3.442   3.086   1.823 -0.4984 -0.1512  0.0640
 5153TIP3   OH237093   1.828   0.571   2.511 -0.2410 -0.6385 -0.4423
 5153TIP3    H137094   1.794   0.486   2.484  0.0252 -1.0440  0.4743
 5153TIP3    H237095   1.795   0.584   2.600 -0.3460  0.2554 -0.6002
 5154TIP3   OH237096   0.143   0.066   8.615 -0.2473 -0.6549 -0.0998
 5154TIP3    H137097   0.152   0.133   8.683 -0.6583 -1.1734  0.4788
 5154TIP3    H237098   0.231   0.055   8.580 -0.0468 -0.3196  0.2907
 5155TIP3   OH237099   2.116   3.050   7.477  0.1864  0.3800 -0.3798
 5155TIP3    H137100   2.168   3.122   7.512  0.2169 -0.0278  0.4122
 5155TIP3    H237101   2.164   3.021   7.399  1.5314 -0.4543  0.7226
 5156TIP3   OH237102   1.660   2.634   7.363 -0.4827 -0.6933 -0.0632
 5156TIP3    H137103   1.611   2.626   7.281 -0.6202  1.6514 -0.2808
 5156TIP3    H237104   1.709   2.715   7.353 -0.6152 -0.2675  2.2514
 5157TIP3   OH237105   0.191   5.995   6.972 -0.5324 -0.2220 -0.5684
 5157TIP3    H137106   0.226   5.912   7.005  0.2512 -0.0950 -1.0494
 5157TIP3    H237107   0.264   6.057   6.982 -0.5088 -0.0166 -1.8851
 5158TIP3   OH237108   2.763   0.433   0.158 -0.0723 -0.3124  0.0625
 5158TIP3    H137109   2.838   0.480   0.193  0.7957 -1.3529 -0.3609
 5158TIP3    H237110   2.726   0.492   0.092  1.5859 -0.5625 -1.1620
 5159TIP3   OH237111   2.994   2.289   7.109  0.0851 -0.2399 -0.1032
 5159TIP3    H137112   3.028   2.206   7.142  1.4241  0.5332  0.5523
 5159TIP3    H237113   2.910   2.300   7.153  0.0226 -1.1111  0.0111
 5160TIP3   OH237114   3.915   0.964   1.532  0.1707 -0.4262  0.1172
 5160TIP3    H137115   3.915   1.027   1.604  0.7774  1.5753 -1.5660
 5160TIP3    H237116   4.006   0.961   1.503 -0.1549 -0.8248 -0.8947
 5161TIP3   OH237117   4.504   2.889   7.380  0.5114 -0.2776 -0.0544
 5161TIP3    H137118   4.439   2.836   7.427 -0.4405  1.0164  0.1439
 5161TIP3    H237119   4.501   2.857   7.290  0.8860 -1.4187  0.3254
 5162TIP3   OH237120   5.331   4.604   6.508 -0.1425  0.4870 -0.6070
 5162TIP3    H137121   5.388   4.673   6.474 -0.6651  1.6686  0.8002
 5162TIP3    H237122   5.242   4.636   6.490 -0.4254 -1.2056 -2.5315
 5163TIP3   OH237123   4.549   4.824   0.555  0.4041 -0.7031  0.1282
 5163TIP3    H137124   4.525   4.844   0.464  1.6161 -1.5059 -0.3829
 5163TIP3    H237125   4.554   4.910   0.597  0.7294 -0.2588 -0.7942
 5164TIP3   OH237126   4.397   2.188   7.892  0.0976 -0.2076  0.3321
 5164TIP3    H137127   4.301   2.182   7.891  0.0264 -0.3477  2.6642
 5164TIP3    H237128   4.425   2.115   7.947  1.6447 -0.6491 -0.9619
 5165TIP3   OH237129   6.751   0.744   1.349 -0.1159 -0.3141  0.4565
 5165TIP3    H137130   6.825   0.685   1.362 -0.7482 -0.6610  3.1313
 5165TIP3    H237131   6.784   0.812   1.290  1.7396 -1.4033  0.1730
 5166TIP3   OH237132   4.242   5.905   0.968  0.2210  0.5543  0.1722
 5166TIP3    H137133   4.249   5.881   0.876 -1.1456  0.1494  0.1520
 5166TIP3    H237134   4.148   5.899   0.988  0.4794  0.7023  1.5693
 5167TIP3   OH237135   3.400   0.073   6.752  0.4776 -0.3765 -0.1841
 5167TIP3    H137136   3.484   0.056   6.709 -0.0614 -1.8643 -0.7064
 5167TIP3    H237137   3.356  -0.012   6.754 -2.7153  0.9036 -3.5193
 5168TIP3   OH237138   5.805   4.900   0.924 -0.2152 -0.1910 -0.4298
 5168TIP3    H137139   5.852   4.969   0.878 -1.3997  2.3383  1.8503
 5168TIP3    H237140   5.716   4.903   0.888 -0.7306  0.7373  0.8399
 5169TIP3   OH237141   2.813   4.055   0.484  0.6299 -0.3816 -0.4461
 5169TIP3    H137142   2.898   4.099   0.477  1.1694 -1.5626 -1.7668
 5169TIP3    H237143   2.772   4.066   0.399  0.4838 -1.7973 -0.5923
 5170TIP3   OH237144   3.440   1.180   8.645  0.5583  0.8313 -0.1658
 5170TIP3    H137145   3.363   1.129   8.622  0.2286  0.1535  2.1630
 5170TIP3    H237146   3.438   1.256   8.586 -0.9914  0.0341 -1.1975
 5171TIP3   OH237147   2.141   6.720   7.415 -0.1480 -0.3194  0.7514
 5171TIP3    H137148   2.089   6.676   7.347 -0.3961 -0.0960  0.8007
 5171TIP3    H237149   2.082   6.729   7.489 -0.5850  1.4999  0.2172
 5172TIP3   OH237150   2.266   1.364   0.293  0.1998  0.2847  0.0133
 5172TIP3    H137151   2.342   1.417   0.317  1.1285 -0.9474 -0.1390
 5172TIP3    H237152   2.210   1.365   0.370  0.6001  0.8053  0.2989
 5173TIP3   OH237153   2.466   0.449   7.893  0.0082  0.4200 -0.3203
 5173TIP3    H137154   2.534   0.507   7.857  1.0885  0.4619  1.6537
 5173TIP3    H237155   2.514   0.382   7.940 -1.3255 -0.2943  0.0740
 5174TIP3   OH237156   0.805   2.710   0.100 -0.5323  0.3919 -0.1357
 5174TIP3    H137157   0.772   2.684   0.014  0.2821  1.2559 -0.7290
 5174TIP3    H237158   0.727   2.712   0.156 -0.8266 -2.0155 -0.3534
 5175TIP3   OH237159   3.187   4.620   1.550 -0.3511 -0.0602  0.5073
 5175TIP3    H137160   3.263   4.620   1.492 -0.6603 -1.4615  0.0919
 5175TIP3    H237161   3.200   4.544   1.607 -1.6440 -0.5544  0.1619
 5176TIP3   OH237162   1.041   2.228   0.172 -0.1594  0.1181 -0.5389
 5176TIP3    H137163   0.978   2.294   0.201  0.9378  0.4114  1.3442
 5176TIP3    H237164   1.094   2.272   0.106 -1.7373 -0.0649 -1.9726
 5177TIP3   OH237165   1.257   2.719   1.426  0.0325 -0.2420 -0.3342
 5177TIP3    H137166   1.308   2.697   1.504 -1.1577  0.0768  0.5644
 5177TIP3    H237167   1.226   2.808   1.442 -1.9658 -0.9252 -0.1935
 5178TIP3   OH237168   3.062   5.729   0.885  0.0739 -0.5583 -0.3432
 5178TIP3    H137169   3.064   5.712   0.791 -0.2184  0.5653 -0.5701
 5178TIP3    H237170   3.103   5.652   0.925  0.2503 -1.0167 -1.3874
 5179TIP3   OH237171   5.828   4.802   0.568  0.0234  0.1060  0.4351
 5179TIP3    H137172   5.866   4.886   0.593  1.5449 -0.2989 -0.4070
 5179TIP3    H237173   5.742   4.801   0.611  1.1094  0.8662  2.8449
 5180TIP3   OH237174   0.602   6.223   8.275  0.1434  0.0794 -0.4835
 5180TIP3    H137175   0.531   6.236   8.338  0.2716  0.7425 -0.4702
 5180TIP3    H237176   0.658   6.157   8.316 -0.5792 -0.6155 -0.5946
 5181TIP3   OH237177   3.546   1.130   0.673  0.1794  0.2634 -0.0474
 5181TIP3    H137178   3.546   1.171   0.759  0.0836  0.9918 -0.3903
 5181TIP3    H237179   3.560   1.202   0.612  0.6371 -0.3042 -0.6172
 5182TIP3   OH237180   0.903   2.869   8.361  0.1324 -0.4089  0.9743
 5182TIP3    H137181   0.957   2.903   8.433 -1.9015  0.2700  2.2800
 5182TIP3    H237182   0.924   2.776   8.357 -0.0323 -0.5587  2.7929
 5183TIP3   OH237183   0.092   0.887   0.549 -0.3095  0.2013 -0.0859
 5183TIP3    H137184   0.022   0.846   0.600 -0.1126  0.4657  0.4048
 5183TIP3    H237185   0.054   0.970   0.519 -0.4604 -0.0017 -0.4597
 5184TIP3   OH237186   2.519   3.096   1.507 -0.0289  0.1772  0.0130
 5184TIP3    H137187   2.547   3.043   1.433 -1.2499 -0.8849  0.2772
 5184TIP3    H237188   2.599   3.138   1.539  0.8316 -0.8999 -0.6826
 5185TIP3   OH237189   0.483   2.351   0.847 -0.1581  0.0213  0.3000
 5185TIP3    H137190   0.460   2.372   0.756 -0.0327  0.5621  0.3898
 5185TIP3    H237191   0.461   2.430   0.896  0.5689  0.0321  0.6118
 5186TIP3   OH237192   4.318   0.769   6.171  0.2394  0.1525 -0.0283
 5186TIP3    H137193   4.224   0.788   6.170  0.1654 -0.2467 -0.9665
 5186TIP3    H237194   4.325   0.678   6.142  1.0004  0.5675 -1.2040
 5187TIP3   OH237195   1.288   2.646   7.477  0.0692 -0.1460 -0.0788
 5187TIP3    H137196   1.198   2.616   7.468 -0.6622  1.9110 -0.0633
 5187TIP3    H237197   1.300   2.710   7.407  0.9690  0.8256  0.9129
 5188TIP3   OH237198   0.415   6.238   1.416  0.1014 -0.1425  0.0360
 5188TIP3    H137199   0.408   6.145   1.439  1.4369 -0.1761  0.3876
 5188TIP3    H237200   0.373   6.284   1.489  0.3890 -0.4326  0.3894
 5189TIP3   OH237201   5.015   3.199   0.109 -0.2305 -0.4366 -0.5533
 5189TIP3    H137202   5.090   3.190   0.168  0.2656  0.8959 -0.9500
 5189TIP3    H237203   5.054   3.209   0.022 -0.9516 -2.2278 -1.1335
 5190TIP3   OH237204   0.552   0.672   8.157  0.3111  0.8339  0.0683
 5190TIP3    H137205   0.535   0.593   8.209  0.3631  0.6235 -0.2354
 5190TIP3    H237206   0.611   0.643   8.088 -0.8191  0.8097 -0.9088
 5191TIP3   OH237207   0.858   4.481   6.662  0.1711  0.0321 -0.2169
 5191TIP3    H137208   0.763   4.495   6.654  0.1526 -0.2882 -0.5568
 5191TIP3    H237209   0.871   4.459   6.754 -0.0567  0.2759 -0.1231
 5192TIP3   OH237210   3.517   2.564   0.719 -0.1161 -0.6408  0.3814
 5192TIP3    H137211   3.611   2.551   0.705  0.2624 -0.7912  2.6738
 5192TIP3    H237212   3.496   2.512   0.797 -1.4286  1.6553  1.7081
 5193TIP3   OH237213   3.165   5.470   6.627  0.4491  0.2064  0.4110
 5193TIP3    H137214   3.224   5.498   6.558 -1.8567  1.7473 -1.0749
 5193TIP3    H237215   3.148   5.549   6.679  0.3620 -0.4099  1.3551
 5194TIP3   OH237216   1.742   6.284   7.548 -0.2740  0.0098 -0.2681
 5194TIP3    H137217   1.711   6.208   7.597  0.4055 -0.2905 -0.2935
 5194TIP3    H237218   1.823   6.309   7.592 -0.6151  0.8718 -0.1105
 5195TIP3   OH237219   3.937   1.139   7.927 -0.4265 -0.4596  0.1701
 5195TIP3    H137220   3.871   1.082   7.967 -0.5413 -0.4182  0.0423
 5195TIP3    H237221   3.909   1.147   7.835 -0.6970  0.2084  0.3035
 5196TIP3   OH237222   5.534   4.136   8.190 -0.1567  0.0521  0.0457
 5196TIP3    H137223   5.506   4.205   8.130 -2.1053  0.0603  0.8634
 5196TIP3    H237224   5.597   4.084   8.140  0.4056  1.6830 -1.0093
 5197TIP3   OH237225   0.986   3.813   0.901  0.7855 -0.0408 -0.4337
 5197TIP3    H137226   1.004   3.902   0.869 -0.4170  1.4262  2.6105
 5197TIP3    H237227   1.057   3.795   0.963  1.1132 -1.3486 -1.1415
 5198TIP3   OH237228   3.087   4.815   6.844 -0.3719  0.2445  0.1870
 5198TIP3    H137229   3.040   4.838   6.923 -2.0733 -0.0256 -0.7044
 5198TIP3    H237230   3.019   4.801   6.778  0.8473 -1.7785 -0.7497
 5199TIP3   OH237231   4.453   0.536   6.794 -0.3063 -0.4919  0.0403
 5199TIP3    H137232   4.442   0.506   6.704 -0.4391  0.1774 -0.1716
 5199TIP3    H237233   4.390   0.483   6.844 -1.3120  0.1743 -0.4899
 5200TIP3   OH237234   0.541   2.498   1.763 -0.1595  0.6355  0.0132
 5200TIP3    H137235   0.536   2.440   1.840  2.4636  1.4092  0.8742
 5200TIP3    H237236   0.496   2.577   1.791 -0.6149  0.3310  0.1601
 5201TIP3   OH237237   4.289   3.136   8.521 -0.7964  0.4366 -0.1646
 5201TIP3    H137238   4.299   3.074   8.593  0.0264 -2.0867 -2.3084
 5201TIP3    H237239   4.210   3.109   8.476  0.3272 -0.0315 -1.9668
 5202TIP3   OH237240   2.493   4.870   6.640  0.1784  0.3175 -0.0257
 5202TIP3    H137241   2.426   4.938   6.631  0.5516  0.5615 -1.0998
 5202TIP3    H237242   2.538   4.869   6.556  1.1927 -0.2035  0.5025
 5203TIP3   OH237243   5.051   5.456   8.722  0.1975  0.1263 -0.1589
 5203TIP3    H137244   5.021   5.518   8.655  1.0862  0.3365 -0.3837
 5203TIP3    H237245   5.145   5.448   8.706  0.5402  0.5933  1.3925
 5204TIP3   OH237246   3.465   6.319   7.423 -0.8175 -0.0226 -0.8501
 5204TIP3    H137247   3.375   6.325   7.388 -1.9692  1.5778  2.0452
 5204TIP3    H237248   3.507   6.251   7.369 -3.7573 -0.8820 -2.2892
 5205TIP3   OH237249   0.815   5.387   1.229 -0.3708 -0.1300 -0.4105
 5205TIP3    H137250   0.843   5.463   1.178 -0.9759  1.0635  0.9502
 5205TIP3    H237251   0.892   5.331   1.234  0.5632  1.1251 -0.1889
 5206TIP3   OH237252   4.552   3.922   6.873 -0.6305 -0.8810 -0.1523
 5206TIP3    H137253   4.463   3.955   6.863  0.2826  2.3423  0.9432
 5206TIP3    H237254   4.607   3.984   6.825  1.2278 -1.1106  1.5090
 5207TIP3   OH237255   1.657   0.742   7.792  0.1909 -0.2056 -0.0181
 5207TIP3    H137256   1.620   0.701   7.870 -1.3010  0.9987 -0.0390
 5207TIP3    H237257   1.647   0.677   7.723 -0.4192 -0.5046  0.3469
 5208TIP3   OH237258   4.656   1.461   7.111 -0.0716 -0.1522 -0.2117
 5208TIP3    H137259   4.588   1.396   7.132  0.0119 -0.1924 -0.0633
 5208TIP3    H237260   4.675   1.447   7.018  0.1910 -0.5708 -0.0967
 5209TIP3   OH237261   0.137   3.113   1.088 -0.4636 -0.3171  0.0221
 5209TIP3    H137262   0.136   3.207   1.106  1.8207 -0.0843 -0.6939
 5209TIP3    H237263   0.187   3.076   1.161 -0.6052 -0.8517 -0.1538
 5210TIP3   OH237264   2.344   3.642   7.077  0.3457  0.4270  0.2351
 5210TIP3    H137265   2.422   3.588   7.067  0.4466  0.8652 -1.6610
 5210TIP3    H237266   2.336   3.655   7.172  2.5295  0.3226  0.4819
 5211TIP3   OH237267   1.737   6.466   2.238  0.1152  0.5121  0.5522
 5211TIP3    H137268   1.670   6.498   2.298 -0.4952  2.2519 -0.9635
 5211TIP3    H237269   1.689   6.409   2.177  0.6336 -0.8336  1.3788
 5212TIP3   OH237270   2.162   3.947   8.782  0.0342 -0.4200  0.3338
 5212TIP3    H137271   2.100   3.965   8.711 -2.8204 -0.0772  2.7223
 5212TIP3    H237272   2.205   4.030   8.798  1.0836 -0.6160 -1.2309
 5213TIP3   OH237273   1.097   4.737   1.650 -0.1564  0.0513 -0.2745
 5213TIP3    H137274   1.163   4.687   1.602 -0.5320 -2.1285  1.3056
 5213TIP3    H237275   1.013   4.699   1.624 -0.4066 -0.6947  1.4795
 5214TIP3   OH237276   5.666   2.270   1.529 -0.2402  0.3616  0.3308
 5214TIP3    H137277   5.717   2.211   1.474 -0.3102  0.9100 -0.3416
 5214TIP3    H237278   5.725   2.293   1.601  0.7793  1.5727 -0.8245
 5215TIP3   OH237279   4.712   2.157   6.544 -0.1957 -0.2595  0.0791
 5215TIP3    H137280   4.802   2.125   6.541  0.0844  0.4573  0.5802
 5215TIP3    H237281   4.680   2.148   6.454  0.6393  0.2174 -0.2739
 5216TIP3   OH237282   1.348   3.528   1.138 -0.2020 -0.1374 -0.1135
 5216TIP3    H137283   1.303   3.449   1.169  0.7717 -0.4177  0.6396
 5216TIP3    H237284   1.440   3.512   1.158  0.3032  0.2715 -1.9447
 5217TIP3   OH237285   0.913   5.778   0.012 -0.7966 -0.1779 -0.0561
 5217TIP3    H137286   0.974   5.851   0.024  0.7270 -0.9113 -2.5928
 5217TIP3    H237287   0.861   5.777   0.092 -0.0528  2.8964  0.5873
 5218TIP3   OH237288   3.772   2.482   0.704 -0.3817 -0.8961  0.5622
 5218TIP3    H137289   3.828   2.428   0.648  0.6436  0.0728  0.5969
 5218TIP3    H237290   3.812   2.475   0.791 -0.1489 -0.0053  0.5406
 5219TIP3   OH237291   0.733   2.075   0.187  0.3292  0.2340 -0.3271
 5219TIP3    H137292   0.762   2.165   0.205 -0.8234 -0.0122  3.6940
 5219TIP3    H237293   0.638   2.082   0.182  0.3285 -0.5674 -1.9393
 5220TIP3   OH237294   0.858   0.216   0.010 -0.7746 -0.6968  0.0072
 5220TIP3    H137295   0.799   0.284  -0.024  0.0204 -0.3231 -0.6766
 5220TIP3    H237296   0.886   0.249   0.095 -1.1088 -0.6017  0.0795
 5221TIP3   OH237297   1.654   3.134   0.752 -0.1629 -0.7528 -0.0293
 5221TIP3    H137298   1.578   3.156   0.697  0.2254 -0.7477 -0.5736
 5221TIP3    H237299   1.627   3.159   0.840  0.0272  1.3709 -0.5092
 5222TIP3   OH237300   6.852   0.392   0.163  0.1258 -0.0437 -0.2036
 5222TIP3    H137301   6.927   0.371   0.107 -1.1304 -1.2299 -1.5010
 5222TIP3    H237302   6.796   0.448   0.110 -0.0800  0.6000  0.6581
 5223TIP3   OH237303   2.325   6.622   7.600 -0.0118 -0.6288 -0.4844
 5223TIP3    H137304   2.295   6.656   7.516 -0.2958  0.7800  0.1474
 5223TIP3    H237305   2.379   6.546   7.578 -1.1948 -1.1129 -1.8409
 5224TIP3   OH237306   2.370   6.716   6.683  0.0696 -0.1533 -0.4660
 5224TIP3    H137307   2.430   6.758   6.622  1.8841 -2.0253 -0.0989
 5224TIP3    H237308   2.346   6.634   6.640 -1.7269  0.2253 -0.2814
 5225TIP3   OH237309   1.587   4.101   1.305 -0.3014 -0.2993  0.4556
 5225TIP3    H137310   1.507   4.148   1.327 -0.9400 -1.0501 -0.1898
 5225TIP3    H237311   1.581   4.018   1.353 -0.4402 -0.8065 -0.4057
 5226TIP3   OH237312   5.540   1.777   1.679 -0.3753  0.0934 -0.1604
 5226TIP3    H137313   5.494   1.825   1.749  0.2758  1.2717 -0.5138
 5226TIP3    H237314   5.568   1.696   1.721 -0.3396  0.6019  0.8446
 5227TIP3   OH237315   4.594   3.490   6.994 -0.6896  0.3075  0.4810
 5227TIP3    H137316   4.676   3.445   7.008 -1.1590 -1.6193 -2.1663
 5227TIP3    H237317   4.601   3.526   6.905 -2.6246  0.2040  0.2310
 5228TIP3   OH237318   2.130   1.475   1.800 -0.3273  0.0147 -0.2714
 5228TIP3    H137319   2.180   1.447   1.724 -1.2920 -2.0309 -0.2093
 5228TIP3    H237320   2.196   1.503   1.863  0.4861  2.2800 -1.9719
 5229TIP3   OH237321   6.695   1.305   1.907  0.0767  0.1661 -0.0646
 5229TIP3    H137322   6.703   1.398   1.927 -0.0574  0.4137 -1.1165
 5229TIP3    H237323   6.748   1.292   1.829 -0.0569 -0.6003 -0.0356
 5230TIP3   OH237324   1.089   2.081   0.759 -0.4718 -0.5212  0.3110
 5230TIP3    H137325   1.133   2.070   0.843  0.3499 -3.9954 -0.4122
 5230TIP3    H237326   1.141   2.029   0.698 -3.3662 -1.5921 -1.4431
 5231TIP3   OH237327   0.857   0.994   1.851  0.1402  0.3363 -0.8139
 5231TIP3    H137328   0.876   1.012   1.943  0.9348  0.5895 -1.0147
 5231TIP3    H237329   0.862   0.898   1.844 -1.7229  0.1691 -0.2354
 5232TIP3   OH237330   6.772   3.332   0.683 -0.1215  0.5593 -0.2939
 5232TIP3    H137331   6.761   3.389   0.607  0.6496 -1.1615 -1.7569
 5232TIP3    H237332   6.685   3.330   0.723 -0.4730  1.7272 -0.9320
 5233TIP3   OH237333   5.507   1.513   8.113  0.0524  0.2543  0.2171
 5233TIP3    H137334   5.476   1.602   8.095  1.9778  0.6513 -1.5659
 5233TIP3    H237335   5.553   1.521   8.197  2.2378  1.6059 -0.9943
 5234TIP3   OH237336   2.556   5.450   8.046 -0.4654  0.1028 -0.0967
 5234TIP3    H137337   2.482   5.390   8.043  0.7162 -1.4027 -0.3933
 5234TIP3    H237338   2.612   5.423   7.973  2.0755 -1.1682  2.1225
 5235TIP3   OH237339   5.514   2.689   2.544 -0.9203 -0.0000 -0.5416
 5235TIP3    H137340   5.445   2.755   2.538 -1.4167 -0.5300 -0.6669
 5235TIP3    H237341   5.594   2.737   2.522 -1.3358  0.4597 -1.0824
 5236TIP3   OH237342   5.076   2.494   0.201 -0.0089 -0.3735  0.1045
 5236TIP3    H137343   5.129   2.567   0.233  0.0303 -0.2275 -0.2900
 5236TIP3    H237344   4.986   2.527   0.204  0.0361 -0.1925 -0.3684
 5237TIP3   OH237345   5.889   3.173   7.815 -0.0878 -0.0624 -0.7470
 5237TIP3    H137346   5.845   3.258   7.816 -0.7005 -0.3691 -1.0840
 5237TIP3    H237347   5.842   3.123   7.749 -0.7373 -1.1864  0.5175
 5238TIP3   OH237348   1.030   1.124   1.655  0.4258 -0.0143  0.0644
 5238TIP3    H137349   1.012   1.057   1.722 -1.0630  1.0005  0.7325
 5238TIP3    H237350   0.954   1.121   1.597  0.1541  1.3336  0.3226
 5239TIP3   OH237351   3.775   3.249   8.771 -0.0616  0.0355 -0.1906
 5239TIP3    H137352   3.756   3.201   8.852 -1.3395 -0.1615 -0.5863
 5239TIP3    H237353   3.723   3.329   8.779  1.2479  0.8898 -0.0041
 5240TIP3   OH237354   4.033   0.768   8.437  0.4111 -0.4512 -0.5230
 5240TIP3    H137355   3.949   0.810   8.456  0.6295  0.4345 -1.4309
 5240TIP3    H237356   4.072   0.822   8.368  1.5569 -1.0691 -0.3867
 5241TIP3   OH237357   6.417   4.487   8.364  0.4119  0.1135 -0.7259
 5241TIP3    H137358   6.482   4.416   8.374  0.0743 -0.3960 -1.9215
 5241TIP3    H237359   6.425   4.513   8.273 -1.4353 -0.3385 -1.0555
 5242TIP3   OH237360   6.300   4.278   7.196 -0.1214 -0.0815 -0.3548
 5242TIP3    H137361   6.366   4.213   7.170 -0.7393  0.1647 -2.7792
 5242TIP3    H237362   6.265   4.245   7.279  2.1085 -0.8937  0.3407
 5243TIP3   OH237363   6.803   0.632   6.459 -0.2481  0.2269 -0.0344
 5243TIP3    H137364   6.834   0.669   6.376  0.5779  0.4124  0.3465
 5243TIP3    H237365   6.708   0.636   6.453 -0.1906  0.6840 -0.7790
 5244TIP3   OH237366   6.249   4.902   7.881 -0.9485 -0.1147  0.2180
 5244TIP3    H137367   6.163   4.944   7.890  0.2334  2.6904 -0.5447
 5244TIP3    H237368   6.274   4.880   7.971 -1.8336  0.3847  0.5969
 5245TIP3   OH237369   4.754   4.063   0.145 -0.2506 -0.2537  0.3811
 5245TIP3    H137370   4.661   4.044   0.132 -0.2351 -0.3548  0.4226
 5245TIP3    H237371   4.799   3.986   0.111 -0.0670  0.8616 -2.1704
 5246TIP3   OH237372   3.276   3.274   1.884 -0.0879 -0.4090  0.5811
 5246TIP3    H137373   3.185   3.242   1.890  0.1000 -0.9765  0.4866
 5246TIP3    H237374   3.326   3.215   1.939  0.1894  0.0703  0.8462
 5247TIP3   OH237375   2.981   5.200   8.806 -0.1653  0.2382 -0.8174
 5247TIP3    H137376   3.071   5.204   8.771  0.2384  0.8871  0.2421
 5247TIP3    H237377   2.931   5.157   8.737  0.8550  0.3364 -1.6591
 5248TIP3   OH237378   0.648   6.651   1.181  0.4998 -0.3159 -0.1971
 5248TIP3    H137379   0.617   6.560   1.186  0.2150 -0.1512  2.0208
 5248TIP3    H237380   0.743   6.644   1.187  0.5051 -0.4988 -0.5021
 5249TIP3   OH237381   3.580   2.179   1.625  0.0460  0.0734  0.2970
 5249TIP3    H137382   3.598   2.107   1.686 -0.5107 -2.1770 -2.0167
 5249TIP3    H237383   3.646   2.169   1.556 -1.0884  0.7224 -0.9334
 5250TIP3   OH237384   6.390   3.847   0.826  0.0546  0.6450  0.6676
 5250TIP3    H137385   6.322   3.913   0.811 -0.2291  0.0130 -1.0516
 5250TIP3    H237386   6.427   3.830   0.739  1.3872 -0.1285  1.3464
 5251TIP3   OH237387   3.498   1.054   7.503  0.3106  0.0047 -0.1664
 5251TIP3    H137388   3.583   1.034   7.541 -0.6671 -1.3852  1.4485
 5251TIP3    H237389   3.477   0.976   7.451 -0.0150  0.3006 -0.4811
 5252TIP3   OH237390   4.850   3.648   0.381 -0.3030  0.2155 -0.2261
 5252TIP3    H137391   4.764   3.661   0.342 -1.7959  3.4775  3.5302
 5252TIP3    H237392   4.833   3.635   0.474  3.2625 -0.8759  0.4530
 5253TIP3   OH237393   3.200   6.463   0.979 -0.1168  0.0263 -0.6958
 5253TIP3    H137394   3.205   6.461   0.884  0.8529  0.5577 -0.6742
 5253TIP3    H237395   3.289   6.440   1.007 -0.2254  0.5065  0.0661
 5254TIP3   OH237396   6.117   4.582   7.305  1.0121  0.0278 -0.1006
 5254TIP3    H137397   6.036   4.623   7.336  1.5052  1.2714 -0.4261
 5254TIP3    H237398   6.087   4.504   7.258  0.0053  0.4170 -0.1378
 5255TIP3   OH237399   4.728   1.956   8.009  0.3774  0.1482 -0.3727
 5255TIP3    H137400   4.793   1.886   8.019  0.6662  0.5656  0.9472
 5255TIP3    H237401   4.766   2.014   7.943 -0.0591 -1.1264 -1.7884
 5256TIP3   OH237402   4.452   1.145   8.785 -0.7107  0.5686  0.0075
 5256TIP3    H137403   4.502   1.068   8.756 -2.2890  0.6130 -3.3049
 5256TIP3    H237404   4.383   1.109   8.840 -0.4110 -0.1811 -0.0892
 5257TIP3   OH237405   6.699   2.786   8.296 -0.3640  0.2200  0.4426
 5257TIP3    H137406   6.792   2.773   8.278 -0.6699 -1.5898  0.0425
 5257TIP3    H237407   6.685   2.745   8.382 -0.5746  1.5804  1.0941
 5258TIP3   OH237408   1.264   4.666   0.225 -0.2089  0.1888 -0.0017
 5258TIP3    H137409   1.306   4.656   0.140  1.6069 -2.0985  1.0358
 5258TIP3    H237410   1.171   4.656   0.207 -0.0475  1.5285 -1.8887
 5259TIP3   OH237411   1.128   5.100   7.810 -0.0069  0.2272  0.5609
 5259TIP3    H137412   1.172   5.174   7.768  0.2838 -0.6157 -0.6766
 5259TIP3    H237413   1.198   5.050   7.851 -0.0839  0.0936  0.5304
 5260TIP3   OH237414   3.109   3.663   8.589  0.2634  0.0637  0.1161
 5260TIP3    H137415   3.125   3.622   8.504 -0.2089  2.6963 -1.3300
 5260TIP3    H237416   3.014   3.658   8.601  0.5059 -2.7215  1.9004
 5261TIP3   OH237417   3.621   4.302   8.291  0.1968 -0.4445  0.0983
 5261TIP3    H137418   3.567   4.283   8.214  0.9136  3.5342 -1.6331
 5261TIP3    H237419   3.704   4.258   8.273  0.4534  0.6404 -1.6354
 5262TIP3   OH237420   3.227   2.197   0.472  0.2934  0.3932  0.3969
 5262TIP3    H137421   3.229   2.143   0.552  1.3273  2.0625  1.5581
 5262TIP3    H237422   3.318   2.217   0.454  0.1870 -0.8853 -1.9445
 5263TIP3   OH237423   3.301   2.670   1.757 -0.1745  0.1970  0.1213
 5263TIP3    H137424   3.246   2.593   1.741 -2.0921  1.9865 -3.0001
 5263TIP3    H237425   3.245   2.730   1.805  0.5054  0.5239  0.5118
 5264TIP3   OH237426   0.699   5.423   0.118  0.4039 -0.6584  0.0464
 5264TIP3    H137427   0.778   5.372   0.136  0.6399 -0.3434 -0.0918
 5264TIP3    H237428   0.668   5.449   0.205  1.1488  0.2652  0.0469
 5265TIP3   OH237429   3.118   2.835   1.865  0.4687  0.3653 -0.5125
 5265TIP3    H137430   3.118   2.880   1.949  1.0625 -1.2520  0.3969
 5265TIP3    H237431   3.038   2.783   1.865  0.5825  0.1848 -0.8472
 5266TIP3   OH237432   5.953   4.861   8.246 -0.9614 -0.1240  0.4768
 5266TIP3    H137433   5.882   4.925   8.250 -0.5241  0.5102 -1.1152
 5266TIP3    H237434   6.017   4.892   8.310 -0.8349  0.9458 -0.1465
 5267TIP3   OH237435   2.153   1.925   0.747  0.0361  0.4431  0.3490
 5267TIP3    H137436   2.110   1.845   0.717 -1.4605  1.6554 -0.9082
 5267TIP3    H237437   2.205   1.954   0.672  0.1428  0.9143  0.6028
 5268TIP3   OH237438   4.916   1.318   8.525  0.1347  0.0560 -0.3909
 5268TIP3    H137439   4.832   1.304   8.481 -0.7372  1.8970  0.5623
 5268TIP3    H237440   4.893   1.325   8.618  1.2000  1.4504 -0.2041
 5269TIP3   OH237441   3.545   3.052   8.649 -0.2114 -0.1033 -0.0688
 5269TIP3    H137442   3.607   3.001   8.702  0.4131 -1.6218 -2.1105
 5269TIP3    H237443   3.461   3.042   8.694  0.4202 -0.7362  1.0181
 5270TIP3   OH237444   3.770   2.193   1.193  0.2466  0.3812 -0.1126
 5270TIP3    H137445   3.756   2.154   1.280  0.3660  0.8080  0.0978
 5270TIP3    H237446   3.858   2.166   1.169  0.1718  0.1681 -0.1515
 5271TIP3   OH237447   2.648   0.585   0.394 -0.4930 -0.6808 -0.1384
 5271TIP3    H137448   2.619   0.538   0.473 -3.5346 -0.2509 -0.8909
 5271TIP3    H237449   2.644   0.519   0.325  1.6913 -0.9214 -0.1120
 5272TIP3   OH237450   3.799   3.013   1.310 -0.1629 -0.1902  0.2737
 5272TIP3    H137451   3.804   2.919   1.293  0.3443 -0.3432  1.2315
 5272TIP3    H237452   3.884   3.047   1.282 -0.5135  0.0670 -0.5067
 5273TIP3   OH237453   4.175   6.007   0.415 -0.5089 -0.4306  0.0176
 5273TIP3    H137454   4.211   5.970   0.335  2.0403  0.2505  0.7408
 5273TIP3    H237455   4.201   5.945   0.484 -1.3421 -0.2363  0.5297
 5274TIP3   OH237456   5.568   3.685   7.651 -0.2308 -0.2991 -0.4849
 5274TIP3    H137457   5.494   3.706   7.594 -1.8193  0.0154  1.5750
 5274TIP3    H237458   5.606   3.606   7.613  0.0095  0.9079 -3.0132
 5275TIP3   OH237459   1.734   3.491   7.069  0.2155  0.4266 -0.0846
 5275TIP3    H137460   1.726   3.561   7.004  0.1415  0.4774 -0.0208
 5275TIP3    H237461   1.787   3.424   7.025 -1.2136 -0.2841 -0.8215
 5276TIP3   OH237462   2.135   4.114   0.602  0.1239  0.1598 -0.1160
 5276TIP3    H137463   2.048   4.117   0.644 -1.2344 -1.2324 -2.5933
 5276TIP3    H237464   2.187   4.059   0.661 -1.6944 -1.7233 -0.1163
 5277TIP3   OH237465   2.925   4.857   0.522 -0.1862 -0.0336  0.2759
 5277TIP3    H137466   2.874   4.886   0.598 -1.3865 -0.1255 -0.4706
 5277TIP3    H237467   2.932   4.936   0.468 -1.0291 -0.4282 -0.4275
 5278TIP3   OH237468   2.689   3.384   2.139  0.3579 -0.1846 -0.2524
 5278TIP3    H137469   2.784   3.380   2.155  0.8215  0.2319 -2.5982
 5278TIP3    H237470   2.658   3.450   2.202  1.5190 -0.6868  0.8994
 5279TIP3   OH237471   3.504   4.948   7.613 -0.1454  0.2015 -0.0770
 5279TIP3    H137472   3.551   4.890   7.552  0.3871 -1.5319  1.8583
 5279TIP3    H237473   3.554   4.942   7.694 -1.6149  1.3183  0.9530
 5280TIP3   OH237474   4.733   4.331   7.660  0.1613 -0.6594 -0.0831
 5280TIP3    H137475   4.734   4.254   7.603  0.0306 -0.3455 -0.5137
 5280TIP3    H237476   4.734   4.405   7.599 -0.7906 -0.3179  0.3182
 5281TIP3   OH237477   0.103   3.119   0.700  0.5762 -0.1339 -0.8182
 5281TIP3    H137478   0.033   3.182   0.712 -0.0005 -1.0608  1.2200
 5281TIP3    H237479   0.163   3.161   0.638 -1.2427  1.0972 -1.8573
 5282TIP3   OH237480   4.393   3.670   7.020  0.1692  0.5369 -0.4849
 5282TIP3    H137481   4.320   3.608   7.021 -0.8972  1.7526  0.1201
 5282TIP3    H237482   4.472   3.615   7.023 -0.7037 -0.7875  3.7339
 5283TIP3   OH237483   1.806   5.186   7.202 -0.9671 -0.5210 -0.4060
 5283TIP3    H137484   1.755   5.134   7.264 -0.6691 -1.0348 -0.5831
 5283TIP3    H237485   1.741   5.228   7.147 -1.2057 -1.0723 -0.5495
 5284TIP3   OH237486   1.862   3.956   6.686 -0.4767  0.3102 -0.5809
 5284TIP3    H137487   1.878   3.867   6.653  0.1878  0.1944  0.0412
 5284TIP3    H237488   1.949   3.994   6.698 -0.4709 -0.5236  3.3449
 5285TIP3   OH237489   1.873   6.207   8.067 -0.3100  0.1429  0.0688
 5285TIP3    H137490   1.885   6.247   8.153 -1.4335  0.4488  0.0985
 5285TIP3    H237491   1.953   6.156   8.053  0.4337  1.0756  0.7428
 5286TIP3   OH237492   0.370   4.366   1.398  0.4068 -0.0860  0.2406
 5286TIP3    H137493   0.344   4.440   1.344  1.3975  0.7396  0.8534
 5286TIP3    H237494   0.431   4.316   1.342  0.0345 -0.2333 -0.0361
 5287TIP3   OH237495   5.355   0.604   8.704  0.0075 -0.3098 -0.1848
 5287TIP3    H137496   5.305   0.568   8.778  1.8850 -0.3161  1.1564
 5287TIP3    H237497   5.311   0.686   8.683 -0.6931 -0.4061  0.8172
 5288TIP3   OH237498   2.934   3.114   1.328  0.1085 -0.0379 -0.6043
 5288TIP3    H137499   2.978   3.171   1.391 -1.3593 -0.5124  0.9173
 5288TIP3    H237500   3.004   3.066   1.285  1.3253  2.0707 -1.1517
 5289TIP3   OH237501   4.320   3.511   6.474 -0.2056 -0.4628  0.0962
 5289TIP3    H137502   4.262   3.561   6.416  1.3052  0.3948 -0.7229
 5289TIP3    H237503   4.309   3.420   6.446  1.2106  0.0191 -2.2858
 5290TIP3   OH237504   2.839   3.162   7.757 -0.2765 -0.5348 -0.0135
 5290TIP3    H137505   2.785   3.216   7.700 -1.9187  0.2265  2.1039
 5290TIP3    H237506   2.784   3.145   7.833  2.2175 -0.2048  2.0358
 5291TIP3   OH237507   0.301   2.649   6.938  0.4842 -0.0982 -0.2004
 5291TIP3    H137508   0.359   2.574   6.952  0.1307 -0.2964  0.2196
 5291TIP3    H237509   0.314   2.704   7.016 -0.1363 -0.3069  0.0556
 5292TIP3   OH237510   3.072   5.931   7.157 -0.0506  0.1494 -0.3992
 5292TIP3    H137511   3.113   5.981   7.087  1.4332  0.5392  0.6924
 5292TIP3    H237512   3.007   5.991   7.194 -1.6091 -0.4266 -2.0524
 5293TIP3   OH237513   1.294   5.814   8.229  0.5262  0.1983 -0.1397
 5293TIP3    H137514   1.245   5.840   8.307 -0.1569  0.6750 -0.7142
 5293TIP3    H237515   1.238   5.840   8.156  1.0423 -0.4698 -0.7895
 5294TIP3   OH237516   6.533   3.001   6.130 -0.3134  0.0644  0.2027
 5294TIP3    H137517   6.450   2.970   6.165 -1.2744  0.5956 -1.4747
 5294TIP3    H237518   6.519   3.095   6.116  0.8362  0.3076  0.5759
 5295TIP3   OH237519   2.739   4.499   1.589 -0.0631  0.7950 -0.2838
 5295TIP3    H137520   2.788   4.450   1.523  0.9550  0.4726  0.6751
 5295TIP3    H237521   2.781   4.586   1.589  0.1119  0.7095  0.1209
 5296TIP3   OH237522   5.674   2.799   2.047 -0.3877 -0.3718  0.3958
 5296TIP3    H137523   5.678   2.870   1.983  0.1834 -1.0738 -0.3515
 5296TIP3    H237524   5.759   2.802   2.091 -0.0269 -1.1302 -0.2302
 5297TIP3   OH237525   0.814   1.871   2.352  0.3823 -0.3083 -0.1277
 5297TIP3    H137526   0.779   1.808   2.291  0.8705 -0.6131 -0.0974
 5297TIP3    H237527   0.889   1.827   2.393 -0.5376 -0.5047  1.4357
 5298TIP3   OH237528   4.362   4.855   8.770 -0.1616  0.6580  0.0848
 5298TIP3    H137529   4.285   4.834   8.824  0.5193 -0.4512  0.6596
 5298TIP3    H237530   4.417   4.776   8.775  0.4875  1.0076 -1.2436
 5299TIP3   OH237531   4.866   6.674   7.078  0.2864  0.0924 -0.1065
 5299TIP3    H137532   4.944   6.673   7.134 -0.0183 -0.6895  0.3142
 5299TIP3    H237533   4.887   6.738   7.010  0.1196  2.0560  1.6257
 5300TIP3   OH237534   0.489   1.701   6.645 -0.0535  0.0078 -0.2167
 5300TIP3    H137535   0.486   1.759   6.568  0.3019 -0.6881 -0.7708
 5300TIP3    H237536   0.398   1.676   6.658 -0.1903  0.5619 -0.0694
 5301TIP3   OH237537   1.903   3.285   7.704 -0.2243  0.0579  0.3450
 5301TIP3    H137538   1.851   3.209   7.682 -3.1705  2.1147 -0.4000
 5301TIP3    H237539   1.869   3.314   7.789  1.9835 -0.3030  1.4397
 5302TIP3   OH237540   0.843   0.111   6.972 -0.0658 -0.5308 -0.0974
 5302TIP3    H137541   0.761   0.134   6.929 -1.4582 -2.4650  1.2964
 5302TIP3    H237542   0.888   0.194   6.986 -1.6455  0.5525 -1.1712
 5303TIP3   OH237543   2.556   2.742   7.040  0.4541 -0.3043 -0.1703
 5303TIP3    H137544   2.649   2.721   7.050  0.5422  0.0283 -0.3181
 5303TIP3    H237545   2.513   2.656   7.034  0.7617 -0.4551 -0.2216
 5304TIP3   OH237546   6.109   2.452   0.036 -0.0408 -0.3523 -0.0656
 5304TIP3    H137547   6.048   2.416  -0.028  1.5315  0.2278 -1.9625
 5304TIP3    H237548   6.188   2.398   0.028  0.6774  0.5955  0.3641
 5305TIP3   OH237549   2.760   1.733   0.815  0.4783 -0.1578  0.2059
 5305TIP3    H137550   2.805   1.658   0.775 -1.0203 -0.5718 -0.7825
 5305TIP3    H237551   2.830   1.797   0.829  1.6030 -1.2798 -0.0094
 5306TIP3   OH237552   0.719   4.487   1.019 -0.0665 -0.1077 -0.1317
 5306TIP3    H137553   0.666   4.494   0.940  1.6666  0.0243 -1.3379
 5306TIP3    H237554   0.739   4.578   1.042 -1.6804 -0.0543  1.3249
 5307TIP3   OH237555   4.069   6.030   8.005  0.3093  0.0304 -0.7228
 5307TIP3    H137556   3.979   6.058   8.020  0.6185 -0.5099  3.0216
 5307TIP3    H237557   4.069   5.936   8.022  1.5992  0.0303 -0.6135
 5308TIP3   OH237558   4.557   1.586   7.348  0.0616  0.2226 -0.8902
 5308TIP3    H137559   4.622   1.536   7.398  0.1762  2.5906  1.5401
 5308TIP3    H237560   4.584   1.576   7.257  3.7809  0.9125 -0.0190
 5309TIP3   OH237561   1.080   2.798   5.941  0.0878  0.4575  0.1726
 5309TIP3    H137562   1.026   2.805   6.020 -1.6106  0.5666 -0.9385
 5309TIP3    H237563   1.167   2.827   5.969 -0.3915  0.2176  2.0541
 5310TIP3   OH237564   3.730   4.882   0.225 -0.0352  0.1216 -0.3431
 5310TIP3    H137565   3.813   4.892   0.178  0.7425 -0.5678  0.8499
 5310TIP3    H237566   3.670   4.847   0.160  0.9032 -0.4083 -0.9450
 5311TIP3   OH237567   3.700   0.871   7.667  0.7923  0.3530  0.3778
 5311TIP3    H137568   3.745   0.832   7.592  0.8317 -0.7441  0.9531
 5311TIP3    H237569   3.623   0.816   7.679  0.0243  1.3677  0.2867
 5312TIP3   OH237570   0.913   0.982   7.820  0.2110 -0.0528  0.3980
 5312TIP3    H137571   0.985   1.030   7.858  0.6119  0.2665 -0.7156
 5312TIP3    H237572   0.873   1.043   7.758 -3.1161  0.9770  3.2488
 5313TIP3   OH237573   2.324   6.038   0.911 -0.2866 -0.6382  0.2756
 5313TIP3    H137574   2.331   5.961   0.855 -0.6695 -0.5654  0.1242
 5313TIP3    H237575   2.232   6.040   0.938 -0.3754 -0.0204 -0.0428
 5314TIP3   OH237576   0.876   6.313   0.054 -0.0096  0.0421  0.0609
 5314TIP3    H137577   0.957   6.363   0.062 -0.3165  0.4461  0.7307
 5314TIP3    H237578   0.822   6.363  -0.007  0.6862 -0.8341 -1.3081
 5315TIP3   OH237579   1.443   5.348   1.801  0.2098  0.0735 -0.0343
 5315TIP3    H137580   1.490   5.268   1.827 -0.3689 -0.5288 -0.7936
 5315TIP3    H237581   1.354   5.318   1.783 -0.1770  1.0105  0.2931
 5316TIP3   OH237582   4.062   3.374   8.587 -0.5364 -0.1737  0.7175
 5316TIP3    H137583   4.008   3.301   8.556  0.5845 -0.3787 -0.8240
 5316TIP3    H237584   4.108   3.405   8.510 -0.7578  2.0181  1.3965
 5317TIP3   OH237585   4.026   2.790   1.880  0.2626  0.6894  0.0593
 5317TIP3    H137586   4.021   2.854   1.950 -1.6598  0.8948 -0.1976
 5317TIP3    H237587   3.958   2.726   1.902  0.9854 -0.3195 -0.5830
 5318TIP3   OH237588   4.766   3.228   0.956 -0.5900 -0.4606  0.7432
 5318TIP3    H137589   4.853   3.193   0.977  0.6829  1.7590 -0.4678
 5318TIP3    H237590   4.748   3.199   0.867 -0.0955  0.8126  0.2041
 5319TIP3   OH237591   3.087   0.281   8.231  0.3712  0.1487 -0.7487
 5319TIP3    H137592   3.003   0.267   8.275  1.2293 -0.0822  0.9027
 5319TIP3    H237593   3.082   0.227   8.153 -0.6535 -0.6092 -0.1881
 5320TIP3   OH237594   0.291   0.160   8.257  0.6968 -0.0076  0.1993
 5320TIP3    H137595   0.328   0.089   8.311 -0.2026 -0.5419  0.1323
 5320TIP3    H237596   0.203   0.172   8.292  1.0688  1.5664  0.6614
 5321TIP3   OH237597   4.501   2.876   2.107 -0.2218  0.0974  0.2231
 5321TIP3    H137598   4.460   2.840   2.028  1.2967 -0.0544 -0.5245
 5321TIP3    H237599   4.593   2.887   2.084 -0.3229  3.3636  0.7725
 5322TIP3   OH237600   1.729   1.384   0.621 -0.1058 -0.5006  0.5652
 5322TIP3    H137601   1.696   1.295   0.620 -2.2467  0.2410  0.6055
 5322TIP3    H237602   1.663   1.435   0.575  2.3679  0.7051 -1.9781
 5323TIP3   OH237603   1.632   0.803   7.015 -0.3077 -0.9093  0.0096
 5323TIP3    H137604   1.645   0.709   7.032 -0.9182 -1.0729 -0.3864
 5323TIP3    H237605   1.633   0.810   6.919  0.4708 -0.3949  0.0505
 5324TIP3   OH237606   2.290   4.163   0.105  0.2686  0.6575 -0.0623
 5324TIP3    H137607   2.241   4.244   0.091 -0.1519  0.2154 -1.2282
 5324TIP3    H237608   2.243   4.119   0.177 -0.9778  0.3234 -1.0405
 5325TIP3   OH237609   0.421   1.651   1.165  0.3151 -0.1746  0.2529
 5325TIP3    H137610   0.444   1.670   1.256  0.3185 -2.6316  0.8410
 5325TIP3    H237611   0.332   1.685   1.155  0.1166 -0.3207  1.3638
 5326TIP3   OH237612   5.029   1.405   0.031 -0.1164 -0.0174 -0.2403
 5326TIP3    H137613   5.105   1.427  -0.023  1.2769  1.5281  2.1459
 5326TIP3    H237614   4.973   1.483   0.025 -1.2014 -0.8383 -1.3546
 5327TIP3   OH237615   1.141   5.926   0.084 -0.1588  0.0263  0.1816
 5327TIP3    H137616   1.172   6.013   0.061 -0.2084  0.3003  1.1424
 5327TIP3    H237617   1.182   5.868   0.019  0.0243  0.7285 -0.3404
 5328TIP3   OH237618   2.137   1.564   0.747 -0.0524  0.3047  0.1550
 5328TIP3    H137619   2.129   1.497   0.815  0.9078 -0.0390 -0.0491
 5328TIP3    H237620   2.222   1.605   0.764 -1.1352  2.3374  1.0228
 5329TIP3   OH237621   6.728   1.936   7.399  0.1924  0.3492  0.2660
 5329TIP3    H137622   6.777   1.860   7.430 -0.7967 -0.3139  0.2413
 5329TIP3    H237623   6.636   1.911   7.410 -0.1491  1.2078 -0.5637
 5330TIP3   OH237624   2.485   3.987   1.709 -0.0792 -0.6500  0.8043
 5330TIP3    H137625   2.431   4.021   1.638 -1.0765 -1.4531  1.1500
 5330TIP3    H237626   2.532   3.913   1.670 -0.4722 -0.9637  0.9195
 5331TIP3   OH237627   0.672   4.138   1.526  0.1594  0.3584 -0.6127
 5331TIP3    H137628   0.664   4.230   1.551  0.3017  0.3926 -0.6963
 5331TIP3    H237629   0.618   4.130   1.447 -1.6390 -0.1037  0.5938
 5332TIP3   OH237630   6.704   2.118   8.313 -0.3685  0.2843 -0.4567
 5332TIP3    H137631   6.762   2.057   8.359  1.0733  0.0185 -2.4776
 5332TIP3    H237632   6.622   2.071   8.303 -0.0947 -0.3511  0.2298
 5333TIP3   OH237633   6.122   3.302   1.879  0.4283  0.1543 -0.1850
 5333TIP3    H137634   6.100   3.371   1.941  2.0965 -0.2328  0.8865
 5333TIP3    H237635   6.217   3.309   1.868  0.4839 -1.3099 -0.8570
 5334TIP3   OH237636   1.871   5.738   7.063  0.7365 -0.0773  0.1100
 5334TIP3    H137637   1.911   5.736   6.976 -0.5686 -1.7907 -0.4905
 5334TIP3    H237638   1.944   5.723   7.123  1.2182 -2.0931 -0.9046
 5335TIP3   OH237639   6.810   0.408   8.345  0.4498 -0.2769 -0.8876
 5335TIP3    H137640   6.866   0.455   8.407  0.1761 -0.1268 -0.7535
 5335TIP3    H237641   6.778   0.476   8.286  0.5137 -0.3837 -1.0459
 5336TIP3   OH237642   4.874   1.269   0.527 -0.0863  0.9303  0.8895
 5336TIP3    H137643   4.797   1.314   0.491  0.6458  1.5531  0.0561
 5336TIP3    H237644   4.941   1.337   0.534  0.5415  0.3015  1.1533
 5337TIP3   OH237645   6.109   3.764   7.302 -0.2238 -0.2942 -0.6634
 5337TIP3    H137646   6.060   3.702   7.356 -1.3756  1.0094 -0.1629
 5337TIP3    H237647   6.187   3.786   7.353 -0.9549  0.3929  0.1808
 5338TIP3   OH237648   6.059   2.260   0.241  0.0560 -0.1070 -0.1638
 5338TIP3    H137649   6.076   2.337   0.186  1.1915 -1.3309 -1.6210
 5338TIP3    H237650   6.025   2.195   0.180 -1.2104 -0.6918  1.1072
 5339TIP3   OH237651   4.898   4.077   8.142  0.0180 -0.7078  0.2914
 5339TIP3    H137652   4.936   4.116   8.063  2.4694 -1.8111  0.8311
 5339TIP3    H237653   4.844   4.005   8.110  0.3868 -0.6754 -0.4169
 5340TIP3   OH237654   1.884   1.598   0.625  0.1839 -0.1406 -0.5388
 5340TIP3    H137655   1.855   1.508   0.606  0.6015 -0.4809  0.3720
 5340TIP3    H237656   1.976   1.588   0.651 -0.2275  0.3189  1.2180
 5341TIP3   OH237657   3.492   3.911   1.406 -0.6656  0.0432  0.8826
 5341TIP3    H137658   3.503   3.819   1.431  3.3626 -0.3212 -1.4083
 5341TIP3    H237659   3.530   3.960   1.479  1.8428 -0.4993  0.0560
 5342TIP3   OH237660   2.006   1.107   8.645 -0.4053 -1.0297 -0.2591
 5342TIP3    H137661   1.922   1.124   8.687 -0.2237 -1.1183  0.1427
 5342TIP3    H237662   2.070   1.155   8.698 -0.2775 -0.4276 -0.9355
 5343TIP3   OH237663   6.489   1.306   6.726  0.0349  0.2360  0.1239
 5343TIP3    H137664   6.451   1.389   6.700  0.0027 -0.3644 -1.9122
 5343TIP3    H237665   6.584   1.320   6.720  0.0356  0.2122  0.0804
 5344TIP3   OH237666   3.898   5.873   0.716  0.8032 -0.0517 -0.0698
 5344TIP3    H137667   3.814   5.852   0.675  2.3279  0.4148 -3.8465
 5344TIP3    H237668   3.891   5.965   0.739 -0.4174 -0.5525  1.8233
 5345TIP3   OH237669   3.545   6.039   0.663  0.2382  0.1520 -0.2200
 5345TIP3    H137670   3.482   5.971   0.640 -1.3513  1.2953  0.5406
 5345TIP3    H237671   3.505   6.121   0.633  2.8711  0.6901 -2.6850
 5346TIP3   OH237672   1.763   1.165   8.775 -0.9263  0.4498  0.1421
 5346TIP3    H137673   1.721   1.219   8.841  0.0105  0.2082  0.9647
 5346TIP3    H237674   1.709   1.086   8.770 -1.5175  0.8622 -0.0569
 5347TIP3   OH237675   0.943   5.077   7.041  0.4132  0.1725 -0.2168
 5347TIP3    H137676   0.931   5.160   6.996  1.3699 -0.3186 -1.4438
 5347TIP3    H237677   0.855   5.048   7.064  0.0389  1.2281 -0.3026
 5348TIP3   OH237678   4.984   2.697   0.917  0.6766  0.3471  0.1927
 5348TIP3    H137679   5.024   2.767   0.969 -0.0607  0.0881  1.1534
 5348TIP3    H237680   4.973   2.625   0.980  0.1483 -0.1310 -0.4349
 5349TIP3   OH237681   5.674   0.770   7.849 -0.4264  0.5432  0.5007
 5349TIP3    H137682   5.755   0.793   7.894  0.9023  0.5321 -1.7573
 5349TIP3    H237683   5.656   0.844   7.792 -1.9866  0.4934  0.8782
 5350TIP3   OH237684   0.440   2.685   7.466 -0.5427  0.0054 -0.4574
 5350TIP3    H137685   0.431   2.606   7.412  0.8328 -0.1200 -0.5475
 5350TIP3    H237686   0.521   2.671   7.515 -1.7525  0.1162  1.6933
 5351TIP3   OH237687   0.269   1.297   6.991  0.2904  0.6206 -0.2912
 5351TIP3    H137688   0.232   1.359   6.929 -2.6431 -0.8269 -0.1616
 5351TIP3    H237689   0.295   1.222   6.937  0.7116  0.6292 -0.1011
 5352TIP3   OH237690   1.535   3.965   0.833  0.2571 -0.1827  0.4040
 5352TIP3    H137691   1.479   3.956   0.910  0.5872 -1.4655  0.5201
 5352TIP3    H237692   1.585   4.045   0.849 -1.2798  0.8064  0.4556
 5353TIP3   OH237693   0.333   3.887   0.599  0.6310  0.0806  0.4433
 5353TIP3    H137694   0.326   3.908   0.692 -2.6422 -1.4540  0.6762
 5353TIP3    H237695   0.392   3.812   0.595  0.4730 -0.1053  1.3463
 5354TIP3   OH237696   6.249   6.255   7.578 -0.5467 -0.0576 -0.6557
 5354TIP3    H137697   6.292   6.240   7.494  1.5307 -0.8201  0.4653
 5354TIP3    H237698   6.308   6.315   7.624 -1.8912  0.7243  0.1029
 5355TIP3   OH237699   2.149   5.371   0.582  0.4410 -0.1646 -0.3292
 5355TIP3    H137700   2.057   5.345   0.574 -0.7538  2.6574  2.1040
 5355TIP3    H237701   2.157   5.447   0.524  1.2027 -0.2937 -0.4013
 5356TIP3   OH237702   2.992   2.648   7.345 -0.0110 -0.2678 -0.5194
 5356TIP3    H137703   3.031   2.563   7.366 -0.8959 -0.4678  0.3709
 5356TIP3    H237704   3.065   2.710   7.350  0.5758 -0.9224 -0.8535
 5357TIP3   OH237705   6.678   5.319   8.789  0.1233 -0.1741  0.0392
 5357TIP3    H137706   6.741   5.346   8.857 -0.8476  0.0610  0.8683
 5357TIP3    H237707   6.611   5.270   8.837 -0.7071  0.1944 -0.7230
 5358TIP3   OH237708   1.619   0.393   1.545 -0.0157  0.6508 -0.4952
 5358TIP3    H137709   1.562   0.460   1.507 -0.0481  0.6227 -0.4963
 5358TIP3    H237710   1.560   0.319   1.564 -0.2696  1.1901  0.9535
 5359TIP3   OH237711   0.260   6.275   0.299 -0.6549 -0.2115 -0.1176
 5359TIP3    H137712   0.175   6.230   0.299 -1.3711  1.0759 -0.3398
 5359TIP3    H237713   0.279   6.290   0.207  0.1442 -1.0502 -0.1028
 5360TIP3   OH237714   6.233   0.319   8.444  0.5628 -0.2272 -0.0091
 5360TIP3    H137715   6.282   0.342   8.365  0.8169  1.3101  0.5591
 5360TIP3    H237716   6.141   0.323   8.417  0.5028  2.6383  0.2483
 5361TIP3   OH237717   5.155   2.248   0.089 -0.8665  0.3844 -0.3610
 5361TIP3    H137718   5.232   2.242   0.146 -1.0042 -2.5285 -0.2818
 5361TIP3    H237719   5.111   2.329   0.115  0.8688  0.8550  1.3202
 5362TIP3   OH237720   1.580   0.453   6.858  0.0877  0.1302 -0.1081
 5362TIP3    H137721   1.539   0.508   6.792 -1.3232  0.2504  0.8157
 5362TIP3    H237722   1.667   0.434   6.823 -0.8151 -0.3388 -2.2966
 5363TIP3   OH237723   5.377   5.469   7.105  0.3348  0.0328  0.1232
 5363TIP3    H137724   5.339   5.557   7.113  1.2444  0.3810  0.7864
 5363TIP3    H237725   5.304   5.410   7.121 -0.3577  0.6612 -0.6216
 5364TIP3   OH237726   3.519   2.215   7.414  0.1211  0.4359  0.4068
 5364TIP3    H137727   3.557   2.253   7.493  0.2264  0.7119  0.2271
 5364TIP3    H237728   3.558   2.129   7.406  1.8862  1.2733 -0.5953
 5365TIP3   OH237729   2.159   3.131   6.240 -0.2614 -0.2785 -0.5020
 5365TIP3    H137730   2.124   3.155   6.326 -2.0588 -1.0730 -0.9510
 5365TIP3    H237731   2.228   3.067   6.259  0.4073  0.6833  0.3910
 5366TIP3   OH237732   1.703   5.876   0.213 -0.5970 -0.0543 -0.0535
 5366TIP3    H137733   1.615   5.847   0.186  0.0693 -2.1454 -0.1552
 5366TIP3    H237734   1.747   5.896   0.131 -0.4103 -0.8169 -0.1506
 5367TIP3   OH237735   5.281   3.723   1.367 -0.0757 -0.2492 -0.0125
 5367TIP3    H137736   5.217   3.683   1.426  0.2024 -0.6257  0.0382
 5367TIP3    H237737   5.243   3.711   1.279 -0.4079  0.1587  0.0729
 5368TIP3   OH237738   0.428   4.570   1.223 -0.2098 -0.4293  0.1515
 5368TIP3    H137739   0.389   4.614   1.148 -0.0864 -0.6503 -0.0458
 5368TIP3    H237740   0.433   4.637   1.291  2.6824  0.7556 -1.0350
 5369TIP3   OH237741   4.853   3.582   7.049 -0.1570  0.1247 -0.2419
 5369TIP3    H137742   4.911   3.613   6.979 -0.4647 -0.1490 -0.6222
 5369TIP3    H237743   4.782   3.647   7.051 -1.2038 -0.9003 -1.5515
 5370TIP3   OH237744   5.476   6.214   7.396 -0.5878 -0.0203  0.9510
 5370TIP3    H137745   5.431   6.175   7.321 -0.1710  2.6008 -0.7688
 5370TIP3    H237746   5.405   6.245   7.452 -0.8984 -0.5029  0.8353
 5371TIP3   OH237747   3.157   2.698   0.244  0.1148 -0.5892 -0.0695
 5371TIP3    H137748   3.067   2.718   0.268  0.1888 -0.0665 -0.2169
 5371TIP3    H237749   3.188   2.639   0.313  0.2898  0.7813  1.0846
 5372TIP3   OH237750   5.048   5.416   8.126  0.2482  0.2011 -0.2358
 5372TIP3    H137751   4.973   5.367   8.160 -0.6326  1.7202  0.0780
 5372TIP3    H237752   5.118   5.351   8.120 -0.7112 -0.9670  0.7013
 5373TIP3   OH237753   4.509   1.604   8.714 -0.2991 -0.1304 -0.4754
 5373TIP3    H137754   4.542   1.645   8.634 -0.7937  0.0801 -0.5720
 5373TIP3    H237755   4.488   1.514   8.687  0.8102 -0.4757 -0.2561
 5374TIP3   OH237756   2.968   4.437   0.122  0.8659 -0.1404  0.4497
 5374TIP3    H137757   3.004   4.354   0.153 -0.4920 -0.4668  1.2362
 5374TIP3    H237758   3.045   4.491   0.104  1.7569 -1.2520  0.7806
 5375TIP3   OH237759   6.373   4.695   0.577 -0.3900 -0.3597  0.2173
 5375TIP3    H137760   6.378   4.703   0.673  0.2335  0.7840  0.0980
 5375TIP3    H237761   6.368   4.601   0.562  1.7959 -0.7083  1.2773
 5376TIP3   OH237762   0.146   5.211   6.547  0.2551 -0.3496  0.0747
 5376TIP3    H137763   0.168   5.301   6.524  0.8768 -0.3625  0.5878
 5376TIP3    H237764   0.145   5.211   6.643 -2.0221 -0.3436  0.0921
 5377TIP3   OH237765   5.429   6.440   1.373 -0.4186  0.0722  0.1975
 5377TIP3    H137766   5.446   6.489   1.454 -0.9556  0.1038  0.3000
 5377TIP3    H237767   5.424   6.348   1.401 -2.4139  0.2316  0.5365
 5378TIP3   OH237768   5.448   3.070   8.391 -0.3311 -0.0773  0.4129
 5378TIP3    H137769   5.454   3.161   8.420  2.1808 -0.2625  0.7288
 5378TIP3    H237770   5.513   3.063   8.321 -2.6134 -0.9429 -1.7662
 5379TIP3   OH237771   4.556   2.618   7.728 -0.0467  0.0212 -0.2879
 5379TIP3    H137772   4.561   2.695   7.671 -0.6532  0.2880  0.0158
 5379TIP3    H237773   4.528   2.547   7.671 -1.2807  0.4258 -0.1966
 5380TIP3   OH237774   4.053   5.849   8.407  0.5119 -0.1389  0.1831
 5380TIP3    H137775   4.080   5.925   8.356  4.0917 -1.1383  0.3165
 5380TIP3    H237776   4.079   5.869   8.497  2.2542 -1.7013  0.0990
 5381TIP3   OH237777   3.945   4.796   7.396 -0.5061  0.0626  0.3198
 5381TIP3    H137778   4.032   4.837   7.395 -0.0351 -0.9104 -0.6241
 5381TIP3    H237779   3.896   4.842   7.328 -1.1502  1.4049  1.6276
 5382TIP3   OH237780   5.893   6.037   7.632  0.2597 -0.7823  0.2561
 5382TIP3    H137781   5.816   6.014   7.580 -1.6995  0.9014  2.1760
 5382TIP3    H237782   5.888   6.133   7.640  3.0149 -0.5332 -0.1621
 5383TIP3   OH237783   1.050   1.384   1.733  0.8124 -0.5294  0.9494
 5383TIP3    H137784   1.040   1.311   1.672 -0.6244  0.1690  0.2958
 5383TIP3    H237785   1.144   1.399   1.739  1.0853 -2.0506  0.6450
 5384TIP3   OH237786   1.805   3.690   8.796  0.2595  0.2421  0.0233
 5384TIP3    H137787   1.757   3.756   8.845 -0.3656 -0.8569  0.9391
 5384TIP3    H237788   1.790   3.712   8.704 -0.3080  1.0917  0.3132
 5385TIP3   OH237789   1.999   6.678   7.722  0.2728 -0.0917  0.5018
 5385TIP3    H137790   1.914   6.689   7.765 -0.1344 -0.3786 -0.2062
 5385TIP3    H237791   2.033   6.767   7.712  0.2628 -0.0064  1.1852
 5386TIP3   OH237792   5.206   4.448   6.786  0.0770 -0.2891  0.4000
 5386TIP3    H137793   5.232   4.428   6.696 -0.3513 -0.4139  0.3051
 5386TIP3    H237794   5.214   4.544   6.792  1.3893 -0.3836  0.6313
 5387TIP3   OH237795   2.748   1.769   8.292 -0.4533 -0.6746  0.2723
 5387TIP3    H137796   2.784   1.685   8.319 -0.3673 -0.4493  0.8681
 5387TIP3    H237797   2.801   1.834   8.339 -1.6746 -0.3418  1.2397
 5388TIP3   OH237798   3.855   5.276   0.663 -0.2180  0.4751 -0.5638
 5388TIP3    H137799   3.780   5.263   0.606 -0.4847  1.5613 -0.4886
 5388TIP3    H237800   3.854   5.370   0.683  0.6151  0.3417  0.1854
 5389TIP3   OH237801   5.619   4.599   8.254  0.0665 -0.4093 -0.4012
 5389TIP3    H137802   5.647   4.687   8.279 -1.6790  0.2618 -0.6206
 5389TIP3    H237803   5.525   4.598   8.273 -0.0557 -2.0329 -0.9512
 5390TIP3   OH237804   3.772   2.769   0.953 -0.1129 -0.0760  0.1896
 5390TIP3    H137805   3.785   2.675   0.942  0.5848 -0.1948  1.7527
 5390TIP3    H237806   3.681   2.779   0.979 -0.5054 -0.1849 -1.0531
 5391TIP3   OH237807   2.374   4.866   8.134 -0.2174 -0.1131 -0.1739
 5391TIP3    H137808   2.284   4.883   8.106 -0.1727  0.7064  0.1689
 5391TIP3    H237809   2.367   4.849   8.228 -0.3293 -2.5703 -0.5553
 5392TIP3   OH237810   4.336   5.986   8.097 -0.5500  0.4235  0.1748
 5392TIP3    H137811   4.273   6.024   8.036 -0.5171  0.2847  0.0525
 5392TIP3    H237812   4.421   6.009   8.060 -0.4906 -1.5156 -1.0414
 5393TIP3   OH237813   2.014   5.725   6.538  0.0008 -0.5314  0.2140
 5393TIP3    H137814   1.986   5.725   6.630 -0.9399  0.1282 -0.0532
 5393TIP3    H237815   2.052   5.638   6.525 -0.8594 -1.0439  0.9458
 5394TIP3   OH237816   4.795   3.379   2.339  0.5761  0.6749 -0.1768
 5394TIP3    H137817   4.816   3.390   2.246 -1.5548 -0.4598 -0.8505
 5394TIP3    H237818   4.701   3.396   2.344  0.7987  1.5911  1.9601
 5395TIP3   OH237819   0.540   0.681   7.354  0.2239  0.5239 -0.3452
 5395TIP3    H137820   0.472   0.732   7.310  1.8548  2.6536 -0.5843
 5395TIP3    H237821   0.569   0.736   7.426 -0.3566 -1.6589  1.6889
 5396TIP3   OH237822   5.092   3.158   7.981 -0.0644  0.4616  0.5823
 5396TIP3    H137823   5.156   3.103   7.936 -1.5501  0.3071 -1.4942
 5396TIP3    H237824   5.138   3.240   7.997  0.8411  0.1424 -0.2838
 5397TIP3   OH237825   4.929   3.342   1.494  0.4049  0.4040 -0.3003
 5397TIP3    H137826   4.870   3.394   1.549  0.7913 -0.4335  0.9624
 5397TIP3    H237827   4.944   3.396   1.416 -1.1442  1.0960 -0.1511
 5398TIP3   OH237828   3.369   4.647   8.101 -0.2806 -0.0151  0.0484
 5398TIP3    H137829   3.348   4.732   8.139 -2.1577 -0.1284 -0.6418
 5398TIP3    H237830   3.373   4.663   8.007 -1.1269 -0.7722 -0.1238
 5399TIP3   OH237831   2.620   1.109   7.526  0.4691 -0.6709 -0.0702
 5399TIP3    H137832   2.694   1.074   7.476  0.7716 -1.6092  0.9910
 5399TIP3    H237833   2.556   1.038   7.527  0.8695 -1.0389  1.6700
 5400TIP3   OH237834   2.254   5.209   0.105  0.1012  0.0680  0.4105
 5400TIP3    H137835   2.293   5.295   0.091  1.7759 -0.4900  1.3360
 5400TIP3    H237836   2.282   5.157   0.030 -1.5806  0.5008 -0.5691
 5401TIP3   OH237837   2.307   6.363   1.420 -0.1796  0.3502  0.5266
 5401TIP3    H137838   2.212   6.365   1.432  0.0033 -0.8426  2.8194
 5401TIP3    H237839   2.341   6.428   1.482  0.4664  2.3754 -1.8340
 5402TIP3   OH237840   1.167   1.899   8.538 -0.0306  0.3700  0.2252
 5402TIP3    H137841   1.093   1.916   8.597  0.6110  0.2282  1.0868
 5402TIP3    H237842   1.145   1.948   8.458 -1.6156 -0.6349  0.0004
 5403TIP3   OH237843   5.943   2.553   7.487  0.6906  0.9610 -0.1036
 5403TIP3    H137844   5.890   2.513   7.418  0.2924  0.3944  0.5209
 5403TIP3    H237845   6.006   2.485   7.511 -1.1048 -0.0319  2.1927
 5404TIP3   OH237846   1.840   0.771   0.942 -0.0400  0.0889  0.4885
 5404TIP3    H137847   1.842   0.740   0.852  3.5324  1.4190 -0.0552
 5404TIP3    H237848   1.828   0.692   0.994  1.1392 -1.1931 -1.0749
 5405TIP3   OH237849   3.516   3.306   8.163  0.2415 -0.5569 -0.3800
 5405TIP3    H137850   3.493   3.391   8.124  1.5212 -0.9188 -2.0742
 5405TIP3    H237851   3.600   3.284   8.123 -0.8135 -3.3846 -1.2925
 5406TIP3   OH237852   1.689   5.949   1.168 -0.1161 -0.0313 -0.0874
 5406TIP3    H137853   1.597   5.932   1.186  0.7781 -2.9138  2.8147
 5406TIP3    H237854   1.724   5.980   1.252  1.6151  0.8901 -1.0923
 5407TIP3   OH237855   3.161   4.480   8.190 -0.3117 -0.0252 -0.3857
 5407TIP3    H137856   3.221   4.535   8.141 -1.4910  1.3563 -0.3331
 5407TIP3    H237857   3.207   4.461   8.272  0.1293  0.8424 -0.4256
 5408TIP3   OH237858   3.958   0.639   6.041  0.2832  0.3945  0.0418
 5408TIP3    H137859   3.958   0.555   6.088  0.8348  0.9325  1.0300
 5408TIP3    H237860   4.036   0.634   5.985 -0.5605 -0.3859 -1.1071
 5409TIP3   OH237861   5.993   1.459   7.943 -0.1269  0.0143 -0.9918
 5409TIP3    H137862   5.957   1.407   7.872 -1.8417  0.6302 -0.6168
 5409TIP3    H237863   6.018   1.542   7.902  1.3760 -0.5856 -1.3417
 5410TIP3   OH237864   3.419   1.170   6.307  0.4605  0.2127 -0.1806
 5410TIP3    H137865   3.326   1.178   6.283  0.2257  1.2767  0.9665
 5410TIP3    H237866   3.460   1.132   6.230 -0.9308 -0.2954 -0.7159
 5411TIP3   OH237867   4.874   3.954   0.464  0.1232  0.3822  0.6702
 5411TIP3    H137868   4.860   3.861   0.452  2.0758  0.0038  1.0434
 5411TIP3    H237869   4.816   3.996   0.400 -0.2824 -1.0780  0.0490
 5412TIP3   OH237870   3.084   3.889   8.074  0.5289 -0.0431  0.8450
 5412TIP3    H137871   3.157   3.933   8.117 -0.0368 -1.1518  3.1057
 5412TIP3    H237872   3.124   3.840   8.003  1.4116  2.4952 -0.5332
 5413TIP3   OH237873   3.363   1.895   8.026  0.0177  0.3567  0.0061
 5413TIP3    H137874   3.311   1.972   8.049 -0.5243  1.0349 -2.9877
 5413TIP3    H237875   3.304   1.839   7.976  0.5828 -1.7913  1.5983
 5414TIP3   OH237876   6.616   4.006   6.191  0.2999 -0.2351  0.0141
 5414TIP3    H137877   6.596   3.997   6.285  0.0342  0.1259 -0.0054
 5414TIP3    H237878   6.566   4.083   6.164 -0.0725 -0.6682 -0.5548
 5415TIP3   OH237879   2.666   3.713   8.493 -0.3873 -0.3619 -0.2862
 5415TIP3    H137880   2.705   3.645   8.548 -1.0829 -2.3209 -2.0465
 5415TIP3    H237881   2.572   3.706   8.510 -0.6730 -1.3703 -1.9908
 5416TIP3   OH237882   2.970   0.676   7.537  0.0749 -0.0575  0.4236
 5416TIP3    H137883   3.050   0.704   7.580  0.7754 -0.6701 -0.4496
 5416TIP3    H237884   2.994   0.595   7.492 -0.8545  0.1146 -0.4123
 5417TIP3   OH237885   3.418   3.283   7.673 -0.9610 -0.5859  0.1062
 5417TIP3    H137886   3.490   3.311   7.729 -1.7816 -0.0596  0.9435
 5417TIP3    H237887   3.443   3.311   7.585 -0.8529  1.0427  0.6205
 5418TIP3   OH237888   3.319   2.019   8.394  0.6204 -0.1631 -0.0780
 5418TIP3    H137889   3.354   1.992   8.478 -1.9224  2.0594  1.8605
 5418TIP3    H237890   3.283   1.938   8.356 -1.0825 -0.7742  2.5548
 5419TIP3   OH237891   0.226   3.562   0.546  0.1426 -0.4434 -0.4528
 5419TIP3    H137892   0.172   3.640   0.550  1.9682  0.9670 -1.6079
 5419TIP3    H237893   0.218   3.523   0.633 -0.2240  1.4516  0.4123
 5420TIP3   OH237894   5.543   2.113   8.621  0.4031  0.0620  0.3298
 5420TIP3    H137895   5.458   2.086   8.655 -0.5857  0.7027 -1.4735
 5420TIP3    H237896   5.570   2.185   8.679 -1.5548  1.6110 -0.5334
 5421TIP3   OH237897   6.782   5.705   1.797  0.3247 -0.6585 -0.3852
 5421TIP3    H137898   6.852   5.738   1.854  1.7295 -0.9162 -1.9044
 5421TIP3    H237899   6.745   5.783   1.758  0.5351 -0.5868 -0.4461
 5422TIP3   OH237900   1.735   0.062   2.197  0.4807  0.1034 -0.1944
 5422TIP3    H137901   1.830   0.064   2.212  0.8052  1.2753 -2.0554
 5422TIP3    H237902   1.721  -0.018   2.145  0.4038 -0.1871  0.2677
 5423TIP3   OH237903   1.898   3.590   0.253 -0.2430  0.4712 -0.1008
 5423TIP3    H137904   1.911   3.497   0.273 -1.0026  0.5538  0.8148
 5423TIP3    H237905   1.848   3.590   0.172 -0.8684  0.0585  0.2736
 5424TIP3   OH237906   5.497   2.414   1.149 -0.0761 -0.3254 -1.4043
 5424TIP3    H137907   5.509   2.328   1.189  0.3002 -0.4822 -1.8496
 5424TIP3    H237908   5.580   2.432   1.105 -0.1845  0.2267 -1.3912
 5425TIP3   OH237909   4.021   4.200   0.145 -0.1914 -0.3727  0.3632
 5425TIP3    H137910   3.979   4.265   0.089  1.7938 -0.8021 -1.7607
 5425TIP3    H237911   4.041   4.247   0.226 -0.2892  1.1738 -0.4736
 5426TIP3   OH237912   4.625   5.747   2.223  0.2558 -0.3263  0.5101
 5426TIP3    H137913   4.641   5.690   2.298  0.4215  0.6249  1.2173
 5426TIP3    H237914   4.703   5.802   2.217  0.3254 -0.5183 -0.4858
 5427TIP3   OH237915   0.635   2.802   7.860  0.4555  0.1301  0.0042
 5427TIP3    H137916   0.629   2.793   7.955  0.2849  1.1643  0.0953
 5427TIP3    H237917   0.691   2.729   7.833  0.0763 -0.4865  0.8285
 5428TIP3   OH237918   5.672   3.574   6.999  0.0259  0.3017  0.2972
 5428TIP3    H137919   5.753   3.531   6.970 -0.5769 -1.2130  0.7195
 5428TIP3    H237920   5.661   3.649   6.941  1.2730  0.0173 -0.3236
 5429TIP3   OH237921   0.427   4.399   0.432 -0.1262 -0.3738  0.0586
 5429TIP3    H137922   0.382   4.477   0.466 -1.9499 -0.8862 -0.9959
 5429TIP3    H237923   0.518   4.411   0.457  0.0197  2.9160 -1.4088
 5430TIP3   OH237924   6.288   5.897   0.181  0.5122 -0.3576  0.3764
 5430TIP3    H137925   6.367   5.948   0.199 -0.0523  0.5951  0.2063
 5430TIP3    H237926   6.311   5.845   0.104  0.6467  0.6794 -0.3021
 5431TIP3   OH237927   4.377   4.284   1.523 -0.1140  0.7515  0.6030
 5431TIP3    H137928   4.289   4.319   1.532 -0.6884 -0.4217 -0.2233
 5431TIP3    H237929   4.425   4.350   1.473 -0.8275  0.8934  0.1010
 5432TIP3   OH237930   5.368   5.849   0.304 -0.5317  0.7024  0.1253
 5432TIP3    H137931   5.336   5.785   0.240  0.3840 -1.2610  1.5471
 5432TIP3    H237932   5.355   5.933   0.261  0.0780 -0.5022 -2.6877
 5433TIP3   OH237933   0.416   3.236   8.281 -0.0008  0.7166  0.1510
 5433TIP3    H137934   0.493   3.274   8.240 -0.4589  0.0217 -1.4150
 5433TIP3    H237935   0.402   3.289   8.360  0.9231  2.0735 -0.5617
 5434TIP3   OH237936   2.161   1.679   6.771  0.3201  0.5342 -0.1594
 5434TIP3    H137937   2.093   1.636   6.719  1.1950 -1.8478  0.5005
 5434TIP3    H237938   2.198   1.746   6.714 -0.4971 -0.2264 -1.6275
 5435TIP3   OH237939   5.970   0.223   8.397 -0.4036 -0.5947  0.0701
 5435TIP3    H137940   5.965   0.161   8.324 -1.6356 -0.0658 -0.3088
 5435TIP3    H237941   5.891   0.207   8.448  0.3037 -0.7588  1.1564
 5436TIP3   OH237942   1.172   0.405   1.887  0.0758  0.5606 -0.0292
 5436TIP3    H137943   1.166   0.449   1.802  0.1198 -0.4516 -0.5798
 5436TIP3    H237944   1.256   0.358   1.884 -0.6620 -0.8222 -0.1255
 5437TIP3   OH237945   4.108   2.860   0.850  0.7064 -0.5315 -0.5947
 5437TIP3    H137946   4.089   2.797   0.781 -0.8359  0.7446 -1.4208
 5437TIP3    H237947   4.174   2.918   0.812  1.1513 -0.8694 -0.3359
 5438TIP3   OH237948   1.499   0.855   1.049  0.3873  0.0136 -0.5000
 5438TIP3    H137949   1.525   0.768   1.020  0.9061 -0.6328  1.6834
 5438TIP3    H237950   1.582   0.900   1.067  0.1184  0.0094  0.8777
 5439TIP3   OH237951   5.100   6.045   0.247 -0.0510  0.0758 -0.2242
 5439TIP3    H137952   5.021   6.015   0.291 -0.9690  2.5894 -0.0201
 5439TIP3    H237953   5.171   5.998   0.290 -1.0998  0.8335  2.5118
 5440TIP3   OH237954   3.379   6.181   0.912  0.2722 -0.3405  0.9830
 5440TIP3    H137955   3.395   6.250   0.848 -1.8769  1.0756  1.8544
 5440TIP3    H237956   3.329   6.115   0.864  0.8217 -0.4797  0.5939
 5441TIP3   OH237957   2.432   6.151   1.697  0.3411  0.1033  0.3359
 5441TIP3    H137958   2.394   6.077   1.744  1.3337 -0.4056  0.3698
 5441TIP3    H237959   2.469   6.114   1.617  0.5783  0.6050  0.2014
 5442TIP3   OH237960   0.418   5.061   7.041 -0.1719  0.2399 -0.0414
 5442TIP3    H137961   0.330   5.067   7.005 -0.3351 -0.3586  0.2339
 5442TIP3    H237962   0.444   4.970   7.025  0.5117  0.4878 -0.3840
 5443TIP3   OH237963   0.843   2.997   7.938 -0.6129 -0.0262  0.3243
 5443TIP3    H137964   0.920   2.946   7.913  0.6484  1.6490  0.6270
 5443TIP3    H237965   0.769   2.937   7.925  0.5234 -1.0816 -1.8726
 5444TIP3   OH237966   5.212   3.653   7.665 -0.0424  0.0557 -0.1560
 5444TIP3    H137967   5.278   3.678   7.600 -1.4663  1.2834 -1.2142
 5444TIP3    H237968   5.261   3.605   7.732  1.8024  0.3988 -1.1842
 5445TIP3   OH237969   3.317   3.066   0.013 -0.6079  0.4746  0.4819
 5445TIP3    H137970   3.252   3.027  -0.046 -1.4765 -0.7193  2.1472
 5445TIP3    H237971   3.265   3.105   0.083  0.4428  0.1268  1.4871
 5446TIP3   OH237972   0.799   6.349   7.681 -0.0362  0.0622 -0.0234
 5446TIP3    H137973   0.832   6.438   7.688  0.6894 -0.0929 -1.1595
 5446TIP3    H237974   0.728   6.355   7.617 -2.1711  0.3532  2.2353
 5447TIP3   OH237975   5.634   2.548   8.134 -0.0778 -0.3332  0.1183
 5447TIP3    H137976   5.560   2.497   8.100  0.0395  0.0573 -0.7561
 5447TIP3    H237977   5.685   2.570   8.056  1.4967 -1.4198  0.8051
 5448TIP3   OH237978   3.002   2.280   6.836  0.4562 -0.3105 -0.1692
 5448TIP3    H137979   2.982   2.259   6.927  0.6870  0.4592  0.0730
 5448TIP3    H237980   3.097   2.268   6.829  0.8254  1.8572  0.3522
 5449TIP3   OH237981   1.200   0.214   1.284 -0.2683  0.4032 -0.1907
 5449TIP3    H137982   1.263   0.257   1.226 -1.2670  2.5169  0.2045
 5449TIP3    H237983   1.241   0.130   1.305  1.7773  1.1245 -1.0172
 5450TIP3   OH237984   5.548   2.154   1.221 -0.7166 -0.6766  0.2162
 5450TIP3    H137985   5.629   2.155   1.272 -0.8537  1.4792  0.4797
 5450TIP3    H237986   5.572   2.111   1.139  1.2048  1.3666 -0.3995
 5451TIP3   OH237987   0.549   0.852   2.197  0.3493  0.8327  0.1051
 5451TIP3    H137988   0.601   0.839   2.276  0.7948  0.7417 -0.2004
 5451TIP3    H237989   0.511   0.940   2.207  0.5956  0.9157  0.3123
 5452TIP3   OH237990   0.566   3.708   8.620 -0.1248  1.0585  0.5141
 5452TIP3    H137991   0.601   3.656   8.548 -1.3705  0.9575 -0.0526
 5452TIP3    H237992   0.525   3.783   8.577 -2.8874 -0.1267  0.8619
 5453TIP3   OH237993   3.074   4.287   8.037  0.0446 -0.0229 -0.5107
 5453TIP3    H137994   3.105   4.333   8.115 -0.4444  1.3451 -1.0822
 5453TIP3    H237995   3.151   4.278   7.982  0.3909 -0.9906  0.1029
 5454TIP3   OH237996   6.811   4.508   6.432 -0.1019 -0.1523 -0.5456
 5454TIP3    H137997   6.847   4.533   6.347  0.4958 -1.2650 -0.6439
 5454TIP3    H237998   6.763   4.585   6.462 -0.7424  0.0961 -2.1082
 5455TIP3   OH237999   1.749   2.955   8.011  0.2671  0.1498  0.5565
 5455TIP3    H138000   1.825   2.922   8.059 -0.9714  0.1992  2.6783
 5455TIP3    H238001   1.760   3.050   8.012  0.2839  0.1465  0.6613
 5456TIP3   OH238002   3.905   4.623   8.231 -0.5923 -0.4304  0.2972
 5456TIP3    H138003   3.849   4.629   8.308  0.5744 -2.2968  1.3610
 5456TIP3    H238004   3.985   4.668   8.256 -0.1328 -1.2208  0.2569
 5457TIP3   OH238005   3.361   0.178   0.602 -0.1380 -0.1163  0.1181
 5457TIP3    H138006   3.318   0.095   0.625 -1.5020  0.3390 -0.7057
 5457TIP3    H238007   3.433   0.152   0.545 -0.3004 -0.7754  0.2017
 5458TIP3   OH238008   0.570   2.988   6.185 -0.4258 -0.1626 -0.0432
 5458TIP3    H138009   0.492   3.020   6.139 -0.5372  0.3046  0.4534
 5458TIP3    H238010   0.638   2.985   6.118  0.0452  2.7317  0.1588
 5459TIP3   OH238011   2.463   3.548   0.284 -0.2671  0.2916  0.0036
 5459TIP3    H138012   2.447   3.598   0.204  1.1042  0.4186 -0.2201
 5459TIP3    H238013   2.540   3.495   0.264 -1.4940 -1.7355  0.3220
 5460TIP3   OH238014   2.796   5.138   2.442  0.0724  0.3222  0.0355
 5460TIP3    H138015   2.881   5.162   2.478  0.5138 -0.3957 -0.4984
 5460TIP3    H238016   2.786   5.195   2.365 -1.1788  2.3513  1.5809
 5461TIP3   OH238017   0.044   6.247   7.092 -0.2154  0.5416 -0.2251
 5461TIP3    H138018   0.006   6.247   7.004  0.2550  2.1195 -0.4530
 5461TIP3    H238019   0.130   6.206   7.081 -0.2741  0.4748 -0.4386
 5462TIP3   OH238020   6.299   2.322   2.392  0.2833 -0.3663  0.3075
 5462TIP3    H138021   6.334   2.392   2.448  1.2827 -0.5707 -0.0262
 5462TIP3    H238022   6.205   2.339   2.388  0.5386  1.1369 -0.0009
 5463TIP3   OH238023   2.597   1.806   6.648  0.5420  0.4969  0.4948
 5463TIP3    H138024   2.546   1.881   6.617  0.8134  0.3305 -0.3774
 5463TIP3    H238025   2.668   1.797   6.584  0.0908 -0.9522  0.1663
 5464TIP3   OH238026   0.211   3.666   6.408  0.3513 -0.0564  0.1639
 5464TIP3    H138027   0.252   3.742   6.368 -0.6261 -0.4872 -1.7500
 5464TIP3    H238028   0.120   3.692   6.423  0.3435 -0.4010  0.7981
 5465TIP3   OH238029   6.778   6.845   0.391 -0.1963 -0.1659  0.6702
 5465TIP3    H138030   6.856   6.803   0.429  0.0973 -0.2576 -0.0255
 5465TIP3    H238031   6.745   6.782   0.327  0.5701  0.8580 -0.7913
 5466TIP3   OH238032   4.706   2.098   2.453  0.1704 -0.0838  0.0883
 5466TIP3    H138033   4.753   2.104   2.536 -0.1112 -0.3478  0.2692
 5466TIP3    H238034   4.736   2.016   2.413 -1.4573 -1.1940  1.0432
 5467TIP3   OH238035   6.310   5.144   1.121 -0.1960  0.3615  0.7233
 5467TIP3    H138036   6.297   5.052   1.146 -1.0909  0.4051  0.4399
 5467TIP3    H238037   6.296   5.193   1.203 -1.1763  0.3501  0.5773
 5468TIP3   OH238038   4.157   1.064   1.443 -0.9812  0.1896  0.3912
 5468TIP3    H138039   4.215   1.113   1.501 -0.9362 -1.5878  1.9432
 5468TIP3    H238040   4.213   1.040   1.369  0.8420 -2.7299  2.5117
 5469TIP3   OH238041   2.449   4.489   0.131 -0.2987  0.7540  0.9512
 5469TIP3    H138042   2.410   4.491   0.043  0.0469  2.0238  0.8130
 5469TIP3    H238043   2.542   4.503   0.116 -0.1603  0.4130  1.4825
 5470TIP3   OH238044   1.085   5.302   0.587 -0.2895 -0.2869  0.0421
 5470TIP3    H138045   1.131   5.218   0.592  0.8433  0.2808 -0.4823
 5470TIP3    H238046   1.005   5.289   0.639  0.1427 -1.5049  0.4331
 5471TIP3   OH238047   1.413   6.014   1.209 -0.1526 -0.3928 -0.2484
 5471TIP3    H138048   1.340   5.989   1.265  0.5010  0.0587  0.8214
 5471TIP3    H238049   1.373   6.027   1.123 -1.3144 -0.2637  0.2897
 5472TIP3   OH238050   6.507   4.299   0.797  0.0790  0.3675 -0.3361
 5472TIP3    H138051   6.564   4.317   0.872 -0.1732 -0.2912  0.0249
 5472TIP3    H238052   6.558   4.325   0.721  1.1549 -0.8790 -0.0727
 5473TIP3   OH238053   2.667   2.843   1.706 -0.1177 -0.1329 -0.1530
 5473TIP3    H138054   2.696   2.752   1.701  1.6768  0.2386  2.1142
 5473TIP3    H238055   2.740   2.893   1.671 -0.4022  0.5407  0.1991
 5474TIP3   OH238056   1.168   0.750   2.232 -0.0322 -0.6984  0.1865
 5474TIP3    H138057   1.249   0.801   2.239  0.0083 -0.9245  1.9379
 5474TIP3    H238058   1.189   0.667   2.273 -0.9367 -1.0403 -0.0204
 5475TIP3   OH238059   2.373   2.833   2.160 -0.3266  0.5446  0.2771
 5475TIP3    H138060   2.449   2.817   2.104 -0.1071 -0.1709  0.7539
 5475TIP3    H238061   2.382   2.924   2.188 -0.3267  0.8369 -0.6674
 5476TIP3   OH238062   2.020   6.252   1.780 -0.5787 -0.1484  0.5256
 5476TIP3    H138063   2.111   6.281   1.770 -0.4776 -0.8433 -0.9252
 5476TIP3    H238064   1.998   6.270   1.871  0.9392  0.2527  0.8328
 5477TIP3   OH238065   0.742   1.070   1.484  0.2723 -0.1300 -0.3217
 5477TIP3    H138066   0.673   1.081   1.549  2.2203  0.8509  1.7292
 5477TIP3    H238067   0.725   1.138   1.419 -1.4652 -0.8348 -0.6417
 5478TIP3   OH238068   2.757   4.340   6.868 -0.4802  0.2197  0.9305
 5478TIP3    H138069   2.800   4.405   6.813 -0.8007 -0.8196 -0.5948
 5478TIP3    H238070   2.669   4.330   6.831 -0.5399 -0.8612  1.3073
 5479TIP3   OH238071   2.925   0.985   1.210  0.0289 -0.0750  0.2158
 5479TIP3    H138072   2.938   1.080   1.215 -4.9873  1.2707 -3.5608
 5479TIP3    H238073   2.992   0.956   1.147  0.3522  1.3743 -0.1649
 5480TIP3   OH238074   5.628   2.078   7.144  0.0354 -0.2049  0.1517
 5480TIP3    H138075   5.716   2.045   7.129 -0.8696 -2.4281 -0.7532
 5480TIP3    H238076   5.578   2.048   7.068 -2.4822 -2.9919  2.6381
 5481TIP3   OH238077   3.931   1.560   0.435  0.5162  0.0677 -0.7788
 5481TIP3    H138078   3.856   1.512   0.399 -0.3897 -0.2433  1.3659
 5481TIP3    H238079   4.007   1.507   0.411 -0.2905 -1.4501 -0.1356
 5482TIP3   OH238080   0.874   4.352   6.883 -0.3656  0.4879 -0.0961
 5482TIP3    H138081   0.883   4.327   6.975  0.2301  0.0802 -0.2570
 5482TIP3    H238082   0.960   4.332   6.845 -0.2918  1.5810 -0.5238
 5483TIP3   OH238083   3.376   1.095   1.824  0.3103  0.5862  0.5518
 5483TIP3    H138084   3.367   1.155   1.897  0.9678  0.6270  0.6076
 5483TIP3    H238085   3.308   1.120   1.762 -0.3158  0.4857  1.1926
 5484TIP3   OH238086   3.286   5.004   0.596  0.1844  0.2139 -0.1588
 5484TIP3    H138087   3.283   5.017   0.501  3.4136 -0.0818 -0.4321
 5484TIP3    H238088   3.380   4.996   0.616 -0.3987 -0.0925  3.0257
 5485TIP3   OH238089   6.629   5.931   7.196  0.0476 -0.8531 -0.2672
 5485TIP3    H138090   6.573   5.855   7.210 -0.9183  0.0764  1.2122
 5485TIP3    H238091   6.645   5.966   7.284  2.7227 -0.8951 -0.6579
 5486TIP3   OH238092   6.387   4.633   1.435  0.2359  0.0990  0.3309
 5486TIP3    H138093   6.308   4.581   1.418 -0.7183  1.3841  0.6229
 5486TIP3    H238094   6.375   4.666   1.524  2.4726 -1.9489  1.4920
 5487TIP3   OH238095   4.668   2.921   1.065  0.7621  0.4896 -0.2909
 5487TIP3    H138096   4.657   3.005   1.108  0.7678  1.0672 -1.4001
 5487TIP3    H238097   4.733   2.875   1.119  2.0899  1.8805 -0.6314
 5488TIP3   OH238098   0.351   1.400   1.240  0.3456  0.3472  0.7311
 5488TIP3    H138099   0.382   1.483   1.205  0.9139  0.1290  0.7033
 5488TIP3    H238100   0.406   1.334   1.198 -1.0148 -0.1723 -0.3161
 5489TIP3   OH238101   6.355   3.976   8.342  0.4669  0.3653 -0.7887
 5489TIP3    H138102   6.312   3.994   8.258  0.3265  0.7597 -0.6370
 5489TIP3    H238103   6.283   3.975   8.405  0.7149  1.4857 -0.4604
 5490TIP3   OH238104   4.168   3.773   6.350  0.1360 -0.0887  0.2215
 5490TIP3    H138105   4.192   3.856   6.391  0.4744 -0.3408  0.5321
 5490TIP3    H238106   4.072   3.773   6.353  0.1411  0.1647  0.4693
 5491TIP3   OH238107   5.965   6.811   8.260  0.4503 -0.6121 -0.0500
 5491TIP3    H138108   5.873   6.799   8.283 -0.1084  1.7938 -0.6831
 5491TIP3    H238109   5.967   6.803   8.165  0.8676 -0.5949 -0.0428
 5492TIP3   OH238110   6.557   2.737   6.339 -0.3769  0.3637  0.4149
 5492TIP3    H138111   6.477   2.786   6.319 -0.8496  0.1690  1.7690
 5492TIP3    H238112   6.595   2.719   6.253 -0.2801  2.8975 -0.1648
 5493TIP3   OH238113   4.263   3.709   7.868  0.1362 -0.3125  1.3070
 5493TIP3    H138114   4.177   3.686   7.903  0.4654 -0.8351  1.7903
 5493TIP3    H238115   4.270   3.804   7.881 -0.9229 -0.0281  0.0053
 5494TIP3   OH238116   3.526   0.309   0.804 -0.3798  0.3879  0.3053
 5494TIP3    H138117   3.509   0.292   0.897 -0.0360  0.5428  0.3953
 5494TIP3    H238118   3.459   0.257   0.759 -2.5967  2.6764  0.6977
 5495TIP3   OH238119   1.473   4.204   6.812 -0.1542 -0.3187  0.1870
 5495TIP3    H138120   1.544   4.269   6.812 -2.5352  2.5309  0.3911
 5495TIP3    H238121   1.453   4.190   6.719 -0.9453  0.9382  0.1340
 5496TIP3   OH238122   5.077   3.243   0.819 -0.2400 -0.3460  0.0842
 5496TIP3    H138123   5.068   3.178   0.889 -0.0265 -1.3947 -0.8220
 5496TIP3    H238124   5.069   3.192   0.738  1.8495  0.4361 -0.6959
 5497TIP3   OH238125   1.755   5.978   8.740 -0.6285  0.1749  0.4495
 5497TIP3    H138126   1.740   6.073   8.735  0.5709  0.3770  0.4333
 5497TIP3    H238127   1.700   5.941   8.671 -0.1178  0.9834 -0.4106
 5498TIP3   OH238128   1.566   1.614   1.535 -0.5825  0.1055 -0.1216
 5498TIP3    H138129   1.637   1.675   1.555 -0.4328 -0.4483  1.0863
 5498TIP3    H238130   1.527   1.593   1.620 -0.2633 -1.9484 -0.4397
 5499TIP3   OH238131   1.781   0.277   8.019 -0.5063 -0.0731 -0.0831
 5499TIP3    H138132   1.822   0.359   7.992  1.1199 -0.5748  0.7628
 5499TIP3    H238133   1.743   0.243   7.938  1.0451  0.2715 -1.0139
 5500TIP3   OH238134   5.204   0.337   0.214 -0.7523 -0.1945 -0.4263
 5500TIP3    H138135   5.221   0.309   0.304 -2.4960  0.0388 -0.0028
 5500TIP3    H238136   5.287   0.375   0.185  0.5341 -2.2419  0.2966
 5501TIP3   OH238137   2.614   0.975   0.183 -0.1047  0.3002  0.2153
 5501TIP3    H138138   2.545   0.910   0.163 -0.1329  0.2001  0.6420
 5501TIP3    H238139   2.577   1.029   0.252 -0.2384  1.0355 -0.4126
 5502TIP3   OH238140   5.567   2.681   8.712 -0.2799  0.6226 -0.0627
 5502TIP3    H138141   5.576   2.769   8.676  2.8820  1.1065  1.5401
 5502TIP3    H238142   5.578   2.692   8.807  0.9793 -1.5091  0.1134
 5503TIP3   OH238143   3.946   6.475   7.520 -0.1207 -0.0143  0.3742
 5503TIP3    H138144   3.969   6.529   7.596  0.7622  0.3663 -0.1522
 5503TIP3    H238145   4.012   6.406   7.520 -0.7528 -0.6305  0.5588
 5504TIP3   OH238146   0.327   2.961   8.077  0.4757 -0.2532 -0.0539
 5504TIP3    H138147   0.362   2.874   8.057  1.7058 -0.0368  1.0398
 5504TIP3    H238148   0.399   3.006   8.121 -0.1624  1.3074 -0.5533
 5505TIP3   OH238149   3.201   2.141   8.028  0.0172 -0.1651 -0.6001
 5505TIP3    H138150   3.108   2.154   8.046 -0.4488 -1.7014 -1.6554
 5505TIP3    H238151   3.220   2.202   7.957  0.0852  0.8511  0.2689
 5506TIP3   OH238152   1.768   2.079   7.541  0.6812  0.1977 -0.5066
 5506TIP3    H138153   1.728   2.157   7.503  0.1606  0.6904  0.9572
 5506TIP3    H238154   1.861   2.086   7.520  0.8084  1.7379  0.4017
 5507TIP3   OH238155   3.248   6.124   1.437 -0.1914 -0.0270 -0.2232
 5507TIP3    H138156   3.195   6.112   1.516 -1.5524 -0.6649 -1.1911
 5507TIP3    H238157   3.248   6.219   1.422 -0.4289  0.0434  0.2136
 5508TIP3   OH238158   3.678   4.884   1.884  0.0671 -0.0834 -0.3004
 5508TIP3    H138159   3.754   4.928   1.921  1.1369 -0.1493 -2.2648
 5508TIP3    H238160   3.605   4.908   1.942  1.1648  1.8301  0.3705
 5509TIP3   OH238161   6.292   1.004   1.370 -0.4722 -0.2858 -0.4458
 5509TIP3    H138162   6.229   0.943   1.407 -0.4328 -1.1901 -1.8098
 5509TIP3    H238163   6.374   0.985   1.416 -0.5779 -0.9212 -0.5174
 5510TIP3   OH238164   6.360   3.303   1.337  0.0864  0.4242 -0.5089
 5510TIP3    H138165   6.309   3.382   1.353 -0.5240 -0.3087  1.5307
 5510TIP3    H238166   6.431   3.306   1.402  0.0595 -0.6723 -0.4077
 5511TIP3   OH238167   3.540   4.185   0.903  0.5460 -0.2190  0.2428
 5511TIP3    H138168   3.612   4.131   0.936 -1.0419 -1.4530  1.9368
 5511TIP3    H238169   3.572   4.220   0.820  2.4413 -2.1072  0.0867
 5512TIP3   OH238170   2.172   4.807   1.576 -0.0619 -0.1694  0.7829
 5512TIP3    H138171   2.230   4.883   1.576 -0.0728 -0.1552  1.1864
 5512TIP3    H238172   2.227   4.735   1.544 -0.1096  0.0464  0.2036
 5513TIP3   OH238173   4.279   4.725   0.568  0.0221  0.6601  0.2406
 5513TIP3    H138174   4.264   4.745   0.661  0.1912  0.3609  0.3326
 5513TIP3    H238175   4.359   4.773   0.546  0.3997  0.1300  0.4484
 5514TIP3   OH238176   0.219   0.686   0.721 -0.2575 -0.2261 -0.0478
 5514TIP3    H138177   0.239   0.627   0.649 -0.6034  0.1969 -0.5016
 5514TIP3    H238178   0.206   0.771   0.679 -1.6020 -0.1981  0.3688
 5515TIP3   OH238179   6.477   0.890   1.512 -0.1718  0.0428 -0.1617
 5515TIP3    H138180   6.406   0.861   1.569  0.1884  1.6503  1.1736
 5515TIP3    H238181   6.557   0.868   1.559  0.1330  1.1330 -0.1316
 5516TIP3   OH238182   1.975   2.795   2.319 -0.0903  0.0232  0.0619
 5516TIP3    H138183   2.052   2.746   2.290 -0.7680 -0.6137 -0.6824
 5516TIP3    H238184   1.900   2.743   2.290 -0.8141 -0.0244  1.8997
 5517TIP3   OH238185   2.905   2.756   0.362  0.1234 -0.0787 -0.3945
 5517TIP3    H138186   2.904   2.827   0.298  3.0859  0.0422 -0.4656
 5517TIP3    H238187   2.884   2.798   0.445  1.9161  0.9678 -0.4263
 5518TIP3   OH238188   0.174   1.201   0.390 -0.0800 -0.8234 -0.1213
 5518TIP3    H138189   0.103   1.225   0.450  0.7402 -0.9751  0.9390
 5518TIP3    H238190   0.182   1.277   0.331 -0.0963 -0.1329  0.7412
 5519TIP3   OH238191   2.176   4.544   0.882  0.3696 -0.5245  0.5239
 5519TIP3    H138192   2.213   4.631   0.892  3.0133 -1.6041  0.8172
 5519TIP3    H238193   2.104   4.541   0.946 -0.2533  1.6140 -0.0020
 5520TIP3   OH238194   5.147   3.177   6.462  0.0026  0.5631 -0.4889
 5520TIP3    H138195   5.228   3.171   6.411 -0.7291 -0.9650 -1.5581
 5520TIP3    H238196   5.097   3.247   6.420 -0.4885 -0.5222 -1.8019
 5521TIP3   OH238197   1.942   2.645   7.927  0.1701 -0.3770  0.6224
 5521TIP3    H138198   1.852   2.615   7.915  0.4487 -1.0181  0.0664
 5521TIP3    H238199   1.967   2.683   7.842 -0.1429  1.3926  1.2807
 5522TIP3   OH238200   6.634   4.170   1.820  0.5735  0.7013  0.1701
 5522TIP3    H138201   6.550   4.217   1.817  0.0187 -0.1871  1.1619
 5522TIP3    H238202   6.620   4.094   1.764  1.1447  1.1740 -0.6407
 5523TIP3   OH238203   6.018   1.389   7.676  0.1657 -0.1579 -0.4583
 5523TIP3    H138204   5.944   1.334   7.702 -0.5845  1.1549  0.2659
 5523TIP3    H238205   5.999   1.413   7.585  1.9164 -3.3166 -1.8252
 5524TIP3   OH238206   0.007   0.378   7.602  0.4941  0.1932 -0.0762
 5524TIP3    H138207   0.046   0.290   7.601 -0.6052 -0.3644 -2.2091
 5524TIP3    H238208   0.012   0.406   7.510  1.1698  2.5619  0.6308
 5525TIP3   OH238209   0.922   0.454   8.344 -0.5769 -0.0539 -0.1300
 5525TIP3    H138210   0.907   0.361   8.326  1.6612 -0.3044 -0.9861
 5525TIP3    H238211   0.848   0.479   8.399 -1.4017 -2.2507 -0.1034
 5526TIP3   OH238212   4.188   5.844   7.760 -0.1921  0.4917 -0.2059
 5526TIP3    H138213   4.206   5.772   7.821  0.7841  2.2177  1.6337
 5526TIP3    H238214   4.093   5.852   7.760 -0.2660 -0.2660  0.2133
 5527TIP3   OH238215   1.852   2.731   1.425 -0.4356  0.0929 -0.1538
 5527TIP3    H138216   1.837   2.822   1.450 -0.7302 -0.2053  0.7843
 5527TIP3    H238217   1.940   2.711   1.455  1.4992  1.3715 -4.3046
 5528TIP3   OH238218   1.640   1.411   1.380 -0.4818  0.1368 -0.1500
 5528TIP3    H138219   1.632   1.479   1.447 -3.0147 -1.1908  1.0489
 5528TIP3    H238220   1.727   1.375   1.393 -0.2409  1.1193  1.2475
 5529TIP3   OH238221   5.674   1.750   0.669  0.1373 -0.4708 -0.2689
 5529TIP3    H138222   5.663   1.785   0.581 -0.4269  0.1781  0.0585
 5529TIP3    H238223   5.736   1.809   0.711  2.3465 -2.1372 -0.9788
 5530TIP3   OH238224   4.400   3.702   6.267 -0.0478 -0.7573  0.1892
 5530TIP3    H138225   4.372   3.666   6.183  0.7364 -1.2288  0.1151
 5530TIP3    H238226   4.321   3.742   6.304 -0.2370  0.1704 -1.1266
 5531TIP3   OH238227   2.436   2.223   1.643 -0.5108 -0.2759  0.3936
 5531TIP3    H138228   2.469   2.274   1.717  3.6274  0.1827 -1.4895
 5531TIP3    H238229   2.486   2.141   1.646 -1.0062 -0.6817 -1.2910
 5532TIP3   OH238230   3.917   2.179   0.323  0.3487 -0.2739  0.6279
 5532TIP3    H138231   3.887   2.231   0.248  2.1216  1.7642  1.2334
 5532TIP3    H238232   3.837   2.156   0.370 -0.7375 -0.9209 -1.4128
 5533TIP3   OH238233   2.284   3.815   1.559 -0.2447  0.1955  0.1131
 5533TIP3    H138234   2.191   3.805   1.576 -0.3573  0.5862 -0.2572
 5533TIP3    H238235   2.299   3.769   1.476  0.2958 -1.6700  1.1872
 5534TIP3   OH238236   0.481   3.870   0.044  0.1553  0.2902  0.1644
 5534TIP3    H138237   0.403   3.822   0.070 -0.3302  0.5253 -0.7958
 5534TIP3    H238238   0.507   3.828  -0.039  0.3256  1.0022 -0.1490
 5535TIP3   OH238239   5.420   3.480   7.850  0.0568  0.2224  0.2311
 5535TIP3    H138240   5.393   3.388   7.849 -1.2412  0.5440  1.3804
 5535TIP3    H238241   5.508   3.479   7.888 -0.0106 -0.5320  0.3911
 5536TIP3   OH238242   3.210   0.244   7.702 -0.1545  0.0157 -0.3269
 5536TIP3    H138243   3.169   0.158   7.693 -0.3321  0.0630  0.0048
 5536TIP3    H238244   3.297   0.233   7.664 -0.4960 -0.0625 -1.1014
 5537TIP3   OH238245   3.388   2.289   8.439 -0.1557  0.0330  0.3878
 5537TIP3    H138246   3.391   2.195   8.425 -0.9833 -0.0621  0.7653
 5537TIP3    H238247   3.355   2.299   8.529  0.8063  0.6700  0.6840
 5538TIP3   OH238248   3.946   0.612   1.585 -0.8753  0.0929  0.3296
 5538TIP3    H138249   3.961   0.530   1.537 -0.5240  0.7163 -0.6645
 5538TIP3    H238250   3.853   0.629   1.574 -0.5224  1.0535 -1.5527
 5539TIP3   OH238251   0.925   6.076   8.687  0.0290  0.1132  0.3677
 5539TIP3    H138252   0.904   6.112   8.773  2.4618  0.6328  0.8435
 5539TIP3    H238253   0.955   6.152   8.637 -0.5804 -0.3210 -0.6744
 5540TIP3   OH238254   6.429   2.986   1.728  0.0094 -0.6681 -0.5220
 5540TIP3    H138255   6.342   3.008   1.694 -0.4954 -0.4814  0.8569
 5540TIP3    H238256   6.478   2.958   1.650 -1.3572 -1.0473 -1.2802
 5541TIP3   OH238257   0.097   6.457   0.860  0.1693 -0.4012 -0.1821
 5541TIP3    H138258   0.077   6.441   0.768  0.8529  0.4140 -0.4832
 5541TIP3    H238259   0.019   6.501   0.894  0.3081  0.1899 -0.6255
 5542TIP3   OH238260   4.587   0.656   0.853  0.2287  0.6210  0.4285
 5542TIP3    H138261   4.563   0.613   0.771 -0.6006  2.2650 -0.2339
 5542TIP3    H238262   4.658   0.716   0.829  0.2041  0.8754  0.9828
 5543TIP3   OH238263   1.242   1.779   8.089 -0.1136  0.7236 -0.1025
 5543TIP3    H138264   1.236   1.873   8.108  0.2670  0.5277  1.0954
 5543TIP3    H238265   1.335   1.758   8.102 -0.0724  0.2950 -0.9993
 5544TIP3   OH238266   4.230   4.496   7.960  0.5358  0.4531 -0.0289
 5544TIP3    H138267   4.246   4.444   8.040  1.6687  1.5151  0.4578
 5544TIP3    H238268   4.223   4.431   7.891  2.3083 -0.3739  0.5055
 5545TIP3   OH238269   4.185   3.458   7.428 -0.0034 -0.2976 -0.1096
 5545TIP3    H138270   4.280   3.454   7.419 -0.0554  0.7215 -1.3588
 5545TIP3    H238271   4.171   3.521   7.498  0.2366  1.3881 -1.5141
 5546TIP3   OH238272   2.195   2.613   2.203 -0.1108  0.2867 -1.1144
 5546TIP3    H138273   2.181   2.573   2.117  0.7413 -1.8330 -0.3279
 5546TIP3    H238274   2.252   2.688   2.186  0.6363 -0.5342 -2.3146
 5547TIP3   OH238275   0.134   2.722   0.360  0.0126 -0.5895  0.1838
 5547TIP3    H138276   0.076   2.666   0.308 -0.8108 -0.9481  1.4532
 5547TIP3    H238277   0.077   2.792   0.392  0.9970  0.9705 -1.2737
 5548TIP3   OH238278   4.517   5.546   2.052 -0.3965  0.0818  0.3581
 5548TIP3    H138279   4.563   5.612   2.103  0.1018  0.3379 -0.4037
 5548TIP3    H238280   4.585   5.505   1.998 -0.9245 -0.1044 -0.1773
 5549TIP3   OH238281   0.354   3.917   2.475  0.2470  0.2195 -0.4881
 5549TIP3    H138282   0.301   3.986   2.515  0.3744  0.6950 -1.1318
 5549TIP3    H238283   0.423   3.964   2.429  0.1243 -0.3241 -1.2412
 5550TIP3   OH238284   4.649   6.672   6.925 -0.0787 -0.0394 -0.0893
 5550TIP3    H138285   4.720   6.705   6.980 -0.6269  1.6196 -0.3292
 5550TIP3    H238286   4.625   6.588   6.966  1.4355 -0.2210  0.4805
 5551TIP3   OH238287   1.914   2.403   0.815  0.0214 -0.4491 -0.1545
 5551TIP3    H138288   2.003   2.419   0.847  0.1265 -0.2994 -0.5144
 5551TIP3    H238289   1.919   2.321   0.767  0.4588  0.5782 -1.9803
 5552TIP3   OH238290   5.726   3.007   1.326 -0.4455  0.0179  0.1855
 5552TIP3    H138291   5.705   2.979   1.415 -0.3874 -0.0488  0.1772
 5552TIP3    H238292   5.646   2.988   1.276 -1.0826  1.5208  0.5535
 5553TIP3   OH238293   1.305   4.939   8.255 -0.3174 -0.0600  0.4646
 5553TIP3    H138294   1.217   4.929   8.291 -0.6011 -1.5890 -0.5541
 5553TIP3    H238295   1.363   4.924   8.330 -0.8504  2.9433  1.6121
 5554TIP3   OH238296   4.800   1.091   6.381 -0.7897 -0.1271 -0.0915
 5554TIP3    H138297   4.824   1.170   6.332 -0.1565  0.6662  1.4545
 5554TIP3    H238298   4.711   1.071   6.352  0.0933 -0.6435 -2.7527
 5555TIP3   OH238299   2.101   4.154   6.695 -0.3905 -0.3703  0.3238
 5555TIP3    H138300   2.149   4.071   6.693 -0.4624 -0.4275  0.9771
 5555TIP3    H238301   2.169   4.221   6.682 -0.0041 -0.4050  2.0442
 5556TIP3   OH238302   5.216   4.838   1.498  0.5335  0.2044 -0.1429
 5556TIP3    H138303   5.144   4.777   1.480  2.4507 -2.0413 -0.6339
 5556TIP3    H238304   5.177   4.904   1.557 -2.3012  0.0191 -1.6269
 5557TIP3   OH238305   0.092   5.182   0.020  0.1644 -0.1339 -0.1618
 5557TIP3    H138306   0.040   5.249  -0.024  0.7339 -0.6985 -1.7635
 5557TIP3    H238307   0.061   5.100  -0.018 -1.3438 -0.9787  2.5842
 5558TIP3   OH238308   4.142   0.309   1.646  0.0351  0.5645  0.3632
 5558TIP3    H138309   4.192   0.376   1.693  0.3323  0.5487  0.0708
 5558TIP3    H238310   4.200   0.233   1.644  0.4549  0.8823 -0.9201
 5559TIP3   OH238311   4.732   4.531   7.021 -0.0446 -0.5946  0.3482
 5559TIP3    H138312   4.687   4.580   7.089  0.6614  1.5639 -0.6319
 5559TIP3    H238313   4.717   4.582   6.941  1.1639 -1.7238 -0.6497
 5560TIP3   OH238314   0.714   0.694   0.881  0.5253  0.3843 -0.1934
 5560TIP3    H138315   0.788   0.636   0.904 -1.3206 -2.5229 -1.0198
 5560TIP3    H238316   0.650   0.680   0.951 -0.4890  0.4278 -1.0968
 5561TIP3   OH238317   5.271   6.299   1.971 -0.7888  0.1747 -0.4121
 5561TIP3    H138318   5.212   6.309   2.046  0.5023  1.7086  0.4702
 5561TIP3    H238319   5.230   6.349   1.901 -2.5936 -2.2008 -1.2065
 5562TIP3   OH238320   5.638   6.299   8.072 -0.1931 -0.4116  0.7069
 5562TIP3    H138321   5.659   6.309   7.980 -0.3592 -1.5562  0.5272
 5562TIP3    H238322   5.696   6.360   8.117 -0.1641  0.2080 -0.1521
 5563TIP3   OH238323   1.485   2.006   8.369 -0.1046 -0.2445 -0.2697
 5563TIP3    H138324   1.432   1.931   8.395 -1.2834  1.0008  1.1827
 5563TIP3    H238325   1.471   2.015   8.275 -0.8027 -1.2058 -0.2679
 5564TIP3   OH238326   0.287   0.488   0.279 -0.2578  0.3395  0.1002
 5564TIP3    H138327   0.303   0.434   0.201 -2.2345 -0.1856  0.0105
 5564TIP3    H238328   0.192   0.494   0.285 -0.1286  3.2746  0.5198
 5565TIP3   OH238329   2.173   3.175   1.959  0.3779  0.8233  0.1510
 5565TIP3    H138330   2.222   3.176   2.042  2.2891  0.8778 -0.9311
 5565TIP3    H238331   2.111   3.103   1.971  0.2312  1.1751  1.8350
 5566TIP3   OH238332   5.176   0.060   8.528 -0.1198  0.3790  0.2232
 5566TIP3    H138333   5.086   0.077   8.501 -0.0236  2.6501  1.1546
 5566TIP3    H238334   5.213   0.146   8.546  1.2785 -0.6680  2.9050
 5567TIP3   OH238335   3.883   6.253   7.853 -0.0965  0.3231  0.0191
 5567TIP3    H138336   3.857   6.187   7.789  0.8820 -0.4335  0.3614
 5567TIP3    H238337   3.815   6.250   7.920 -0.0226 -0.4054  0.0703
 5568TIP3   OH238338   5.334   1.752   7.131 -0.0043  0.3136 -0.0561
 5568TIP3    H138339   5.415   1.781   7.090  0.5798  0.3589  1.1040
 5568TIP3    H238340   5.358   1.730   7.221 -1.0404 -0.8073 -0.0172
 5569TIP3   OH238341   2.556   6.190   8.564 -0.0512  0.8358 -0.3435
 5569TIP3    H138342   2.570   6.285   8.555 -0.1636  0.9826  0.8734
 5569TIP3    H238343   2.471   6.183   8.609  0.4186  0.1980  0.4685
 5570TIP3   OH238344   1.663   5.358   8.324 -0.1472 -0.0075  0.3180
 5570TIP3    H138345   1.605   5.351   8.400  1.8321 -1.2282  1.8049
 5570TIP3    H238346   1.604   5.361   8.249 -2.1883  1.4253  1.8739
 5571TIP3   OH238347   5.120   2.821   8.658  0.0367 -0.7986 -0.2517
 5571TIP3    H138348   5.074   2.883   8.601 -2.2859 -1.2777  0.9691
 5571TIP3    H238349   5.158   2.874   8.727  0.0093 -0.5361 -0.4368
 5572TIP3   OH238350   5.568   5.762   8.605  0.1346 -0.4109  0.1635
 5572TIP3    H138351   5.547   5.671   8.582  0.8372 -0.4878 -0.1873
 5572TIP3    H238352   5.659   5.773   8.579 -0.4758  0.9692 -1.5617
 5573TIP3   OH238353   2.179   5.257   7.573 -0.1171 -0.6059  0.2120
 5573TIP3    H138354   2.223   5.221   7.496 -0.1010 -0.0578 -0.0376
 5573TIP3    H238355   2.138   5.337   7.542 -1.9295 -1.4685  0.2467
 5574TIP3   OH238356   2.392   3.218   0.548 -0.2099  0.4173  0.3824
 5574TIP3    H138357   2.454   3.291   0.549  1.3340 -0.8331  0.3732
 5574TIP3    H238358   2.381   3.195   0.640  0.2601 -0.0882  0.3180
 5575TIP3   OH238359   3.616   5.293   8.074  0.8860  0.6298 -0.6118
 5575TIP3    H138360   3.567   5.231   8.020  1.2502  1.3516 -1.7937
 5575TIP3    H238361   3.598   5.378   8.036  2.0367  1.0398 -0.2706
 5576TIP3   OH238362   1.973   3.428   6.839  0.7803  0.7535 -0.2875
 5576TIP3    H138363   2.059   3.407   6.875  0.4464 -2.0024 -0.8359
 5576TIP3    H238364   1.938   3.343   6.812 -2.2504  1.7427  0.2099
 5577TIP3   OH238365   2.313   2.125   8.378  0.0777 -0.3606  0.6166
 5577TIP3    H138366   2.290   2.088   8.463  1.3394 -2.0862  0.2449
 5577TIP3    H238367   2.408   2.120   8.374  0.1018  0.6198 -0.5079
 5578TIP3   OH238368   6.397   5.372   0.507  0.0633  0.1962  0.2094
 5578TIP3    H138369   6.380   5.373   0.601  1.1481 -1.1023  0.4433
 5578TIP3    H238370   6.492   5.375   0.500 -0.0252  2.3368 -0.9261
 5579TIP3   OH238371   1.531   5.576   8.737 -0.4788  0.6350 -0.3445
 5579TIP3    H138372   1.459   5.514   8.744  0.1154  0.1096  1.3963
 5579TIP3    H238373   1.550   5.579   8.643 -0.9711 -1.2946 -0.5466
 5580TIP3   OH238374   1.424   1.287   1.509 -0.2933  0.0809  0.5364
 5580TIP3    H138375   1.512   1.318   1.485 -0.2510  1.6971  2.5460
 5580TIP3    H238376   1.381   1.271   1.425  2.1105 -1.4825 -0.5368
 5581TIP3   OH238377   5.627   0.069   0.075  0.1561  0.1050 -0.2540
 5581TIP3    H138378   5.650   0.106  -0.011  1.9985 -0.9978 -0.2913
 5581TIP3    H238379   5.640   0.142   0.136  0.3555  0.4731 -0.7286
 5582TIP3   OH238380   3.806   5.943   8.598 -0.2339  0.1501 -0.4050
 5582TIP3    H138381   3.889   5.910   8.633 -0.4076  1.0854  0.9563
 5582TIP3    H238382   3.831   5.994   8.521  0.2980 -0.7925 -0.8703
 5583TIP3   OH238383   5.346   0.943   7.429  0.1909 -0.2083  0.1483
 5583TIP3    H138384   5.433   0.980   7.410  0.7707 -1.4617  0.2446
 5583TIP3    H238385   5.293   0.965   7.353  0.4790  0.8917  0.2434
 5584TIP3   OH238386   0.247   4.553   7.445  0.0541  0.4325  0.2607
 5584TIP3    H138387   0.216   4.492   7.512 -1.0369  0.2771 -0.3564
 5584TIP3    H238388   0.272   4.631   7.493 -2.6520  1.0989  0.7394
 5585TIP3   OH238389   2.141   1.516   7.521  0.3969 -0.1746 -0.9155
 5585TIP3    H138390   2.211   1.556   7.468  0.9130  0.5915  0.3108
 5585TIP3    H238391   2.153   1.421   7.508  1.2354 -0.0318 -1.2481
 5586TIP3   OH238392   2.584   4.916   0.158 -0.2318 -0.0686 -0.6475
 5586TIP3    H138393   2.581   5.011   0.163  0.0301 -0.1274  0.9461
 5586TIP3    H238394   2.654   4.897   0.096 -2.1831  0.7626 -3.3033
 5587TIP3   OH238395   4.361   1.258   6.613  0.4583  0.0600 -0.4008
 5587TIP3    H138396   4.423   1.280   6.544  0.5407 -1.5976 -0.9078
 5587TIP3    H238397   4.275   1.267   6.572  0.5020 -0.7696 -0.7014
 5588TIP3   OH238398   0.812   0.759   1.252  0.1468 -0.2416 -0.2520
 5588TIP3    H138399   0.802   0.664   1.248  0.3695 -0.2352 -1.2409
 5588TIP3    H238400   0.901   0.775   1.223  0.6642  0.1842  1.4485
 5589TIP3   OH238401   6.766   3.934   8.501 -0.5139 -0.0436  0.0701
 5589TIP3    H138402   6.745   4.023   8.527 -0.3485 -0.2171  0.8202
 5589TIP3    H238403   6.792   3.941   8.409 -2.1306  0.4318 -0.3832
 5590TIP3   OH238404   4.125   1.981   0.107 -0.8432  0.4058  0.0263
 5590TIP3    H138405   4.217   1.998   0.086 -1.1583  0.3151 -1.5706
 5590TIP3    H238406   4.127   1.941   0.194  0.5548  1.0869  0.3354
 5591TIP3   OH238407   4.183   2.121   8.135 -0.6923  0.0819  0.3373
 5591TIP3    H138408   4.176   2.139   8.041  0.3765 -2.0857 -0.2264
 5591TIP3    H238409   4.095   2.092   8.160 -1.0872  1.0460  0.1271
 5592TIP3   OH238410   1.645   2.550   7.870 -0.2447  0.0410  0.1051
 5592TIP3    H138411   1.627   2.600   7.950 -0.1130 -0.7360  0.6413
 5592TIP3    H238412   1.588   2.587   7.804 -1.4539 -0.2671  0.9479
 5593TIP3   OH238413   5.032   5.923   1.386  0.3760  0.1944 -0.3637
 5593TIP3    H138414   5.022   6.017   1.372  0.1226  0.2257  0.0274
 5593TIP3    H238415   4.943   5.888   1.384  0.3888  0.0943  0.3991
 5594TIP3   OH238416   5.330   3.367   5.997  0.8538 -0.0410 -0.4627
 5594TIP3    H138417   5.316   3.390   6.088  0.3510 -0.2739 -0.4753
 5594TIP3    H238418   5.417   3.327   5.995 -0.1403 -2.3978  0.3822
 5595TIP3   OH238419   5.713   1.599   7.240  0.0992 -0.0672  0.2189
 5595TIP3    H138420   5.772   1.556   7.177  1.1373  0.0696  1.0706
 5595TIP3    H238421   5.772   1.648   7.298 -0.7521 -0.9580  1.8988
 5596TIP3   OH238422   2.523   3.454   7.121 -0.5168 -0.0892  0.0642
 5596TIP3    H138423   2.581   3.379   7.141 -0.1301  0.1579 -0.1092
 5596TIP3    H238424   2.517   3.454   7.026 -1.5334 -0.6505  0.1140
 5597TIP3   OH238425   5.978   6.113   0.356  0.2275  0.5222 -0.3278
 5597TIP3    H138426   6.022   6.198   0.353  1.3408 -0.0296 -0.4412
 5597TIP3    H238427   5.940   6.103   0.269  0.2317  0.8394 -0.3678
 5598TIP3   OH238428   4.740   3.858   8.101  0.0233  0.2829  0.0160
 5598TIP3    H138429   4.755   3.803   8.179  0.7376  0.6563  0.1529
 5598TIP3    H238430   4.645   3.858   8.090 -0.0658 -0.0584  0.6872
 5599TIP3   OH238431   0.465   2.862   0.748  0.3449 -0.2850 -0.0119
 5599TIP3    H138432   0.431   2.852   0.659 -1.2650 -1.2800  0.6685
 5599TIP3    H238433   0.390   2.846   0.804  1.1639  1.0355  1.5466
 5600TIP3   OH238434   1.926   6.243   0.380 -0.1055  0.0213 -0.1626
 5600TIP3    H138435   1.948   6.295   0.457 -0.9545  0.8397 -0.4574
 5600TIP3    H238436   1.880   6.167   0.415 -0.1652  0.2038  0.1636
 5601TIP3   OH238437   1.433   5.131   7.244  0.3038 -0.4876 -0.5194
 5601TIP3    H138438   1.443   5.225   7.258 -0.1597 -0.6645  1.2774
 5601TIP3    H238439   1.359   5.123   7.184  1.0726  0.2978 -1.6220
 5602TIP3   OH238440   5.548   5.831   2.529  0.4759 -0.0309  0.4536
 5602TIP3    H138441   5.594   5.747   2.532 -0.1925 -0.4472 -0.5090
 5602TIP3    H238442   5.460   5.809   2.498  0.2957  1.0188  0.1962
 5603TIP3   OH238443   3.921   2.024   7.658  0.0632  0.5661 -0.3455
 5603TIP3    H138444   3.830   2.035   7.632  0.0466  3.6993  0.6898
 5603TIP3    H238445   3.971   2.041   7.578 -0.1608 -2.5268 -1.2760
 5604TIP3   OH238446   5.147   0.666   7.967 -0.0370 -0.1884  0.1903
 5604TIP3    H138447   5.213   0.603   7.937 -0.1232 -0.4681  0.5816
 5604TIP3    H238448   5.157   0.741   7.908 -0.4764 -0.8841 -0.7933
 5605TIP3   OH238449   3.830   2.488   0.988  0.3630 -0.1047 -0.0055
 5605TIP3    H138450   3.820   2.394   1.006 -1.4080  0.4468  2.4462
 5605TIP3    H238451   3.922   2.507   1.008  0.3342 -1.0416  1.1450
 5606TIP3   OH238452   4.445   1.261   0.269 -0.5811 -0.1659 -0.3749
 5606TIP3    H138453   4.468   1.352   0.253  1.3630 -0.2735  1.3464
 5606TIP3    H238454   4.529   1.217   0.283 -1.4358 -2.3308 -1.5385
 5607TIP3   OH238455   4.979   0.127   1.774  0.2921  0.2450 -0.1772
 5607TIP3    H138456   5.043   0.070   1.818  0.3277  1.1367  0.9510
 5607TIP3    H238457   4.907   0.135   1.836 -1.1006 -0.9784 -1.5511
 5608TIP3   OH238458   4.101   1.745   7.987 -0.1587  0.0810  0.0518
 5608TIP3    H138459   4.130   1.796   8.062 -0.8009  0.1084  0.2829
 5608TIP3    H238460   4.031   1.798   7.948  0.6738  0.4402 -1.0214
 5609TIP3   OH238461   5.445   0.680   6.452 -0.7923  0.2102 -0.0824
 5609TIP3    H138462   5.376   0.614   6.461 -1.8961  1.3412  0.0632
 5609TIP3    H238463   5.425   0.745   6.520  1.6461 -0.4599  1.3547
 5610TIP3   OH238464   0.607   5.163   0.065  0.1860 -0.0926 -0.0025
 5610TIP3    H138465   0.642   5.117   0.141 -1.8899 -1.0241  0.4543
 5610TIP3    H238466   0.604   5.255   0.092 -1.1217 -0.4852  1.3384
 5611TIP3   OH238467   0.011   3.412   0.234  0.3970  0.1174  0.2182
 5611TIP3    H138468  -0.016   3.419   0.326 -0.1631  2.0844 -0.0613
 5611TIP3    H238469   0.104   3.434   0.235 -0.0320  2.0659  0.1088
 5612TIP3   OH238470   2.153   3.194   1.156 -0.1980 -0.6316  0.1658
 5612TIP3    H138471   2.150   3.139   1.078  0.7343  0.1711 -0.4595
 5612TIP3    H238472   2.238   3.175   1.196 -0.2759 -0.3517  0.4732
 5613TIP3   OH238473   6.281   1.345   7.944 -0.0806 -0.5448 -0.2318
 5613TIP3    H138474   6.374   1.341   7.923  0.3072  1.1702  0.9207
 5613TIP3    H238475   6.248   1.418   7.892 -0.1668  0.5490  1.2762
 5614TIP3   OH238476   0.355   5.648   7.881 -0.0050 -0.9809  0.4792
 5614TIP3    H138477   0.412   5.701   7.936 -1.3150  1.7741 -0.6237
 5614TIP3    H238478   0.315   5.585   7.942  1.9927 -1.1040  1.7578
 5615TIP3   OH238479   0.563   3.745   2.066  0.4605 -0.7269  0.2590
 5615TIP3    H138480   0.604   3.693   2.136 -0.0371 -0.8586  0.4599
 5615TIP3    H238481   0.604   3.832   2.074  2.0652 -1.3500 -0.7534
 5616TIP3   OH238482   6.013   5.362   0.340  0.8121 -0.8283  0.6971
 5616TIP3    H138483   6.019   5.430   0.408  0.4913  1.1616 -1.1827
 5616TIP3    H238484   6.104   5.332   0.328  1.3142  0.8784  0.0184
 5617TIP3   OH238485   3.113   1.185   7.176 -0.1550 -0.2795 -0.2537
 5617TIP3    H138486   3.149   1.099   7.195 -3.8443 -1.8270  0.5312
 5617TIP3    H238487   3.090   1.182   7.083  0.4167  0.1626 -0.4144
 5618TIP3   OH238488   2.322   6.120   0.458  0.3404 -0.3929  0.0005
 5618TIP3    H138489   2.322   6.163   0.543  1.2042 -1.0534  0.3449
 5618TIP3    H238490   2.315   6.192   0.395 -0.9629  0.0612  0.6263
 5619TIP3   OH238491   0.825   5.576   1.447 -0.0416  0.6750 -0.1629
 5619TIP3    H138492   0.905   5.569   1.500 -0.3844  1.6258  0.5083
 5619TIP3    H238493   0.840   5.517   1.373  0.0955 -1.4094  1.4257
 5620TIP3   OH238494   1.651   5.286   2.380  0.9551 -0.3626 -0.3140
 5620TIP3    H138495   1.688   5.242   2.304 -3.3863 -1.4784 -2.0767
 5620TIP3    H238496   1.632   5.215   2.442 -0.1874 -0.1952 -0.4434
 5621TIP3   OH238497   4.058   5.488   7.443  0.1037 -0.5985 -0.3630
 5621TIP3    H138498   4.004   5.409   7.436  0.6742 -1.3135  2.4269
 5621TIP3    H238499   4.004   5.551   7.490 -0.1054  0.5362 -2.0092
 5622TIP3   OH238500   4.865   2.941   6.806 -0.1240 -0.3296 -0.4931
 5622TIP3    H138501   4.947   2.928   6.853  1.2717 -0.3228 -2.7506
 5622TIP3    H238502   4.798   2.944   6.874  2.0532  3.2699  1.8369
 5623TIP3   OH238503   6.685   1.697   0.434 -0.3255  0.3031 -0.2473
 5623TIP3    H138504   6.604   1.741   0.410 -0.5668  0.5962  1.0312
 5623TIP3    H238505   6.657   1.619   0.482  0.1318  0.5125  0.3798
 5624TIP3   OH238506   2.777   3.131   1.093 -0.0600  0.0117 -0.4180
 5624TIP3    H138507   2.818   3.080   1.023  1.1504 -2.1554  1.7132
 5624TIP3    H238508   2.850   3.161   1.147 -0.9367  1.8484 -0.1710
 5625TIP3   OH238509   1.938   3.305   7.216 -0.6994  0.3121 -0.1611
 5625TIP3    H138510   1.888   3.385   7.200 -0.2962  0.7054  0.4464
 5625TIP3    H238511   2.018   3.336   7.259  0.0382 -0.3023 -1.0426
 5626TIP3   OH238512   3.146   0.198   0.031  0.3815 -0.7195  0.1499
 5626TIP3    H138513   3.090   0.141  -0.022 -0.4340  0.2030 -0.0320
 5626TIP3    H238514   3.104   0.284   0.025  2.4862  0.2974 -0.9639
 5627TIP3   OH238515   5.688   2.167   6.784  0.5565 -0.1306  0.4702
 5627TIP3    H138516   5.762   2.173   6.845  1.4056  0.8955 -0.6196
 5627TIP3    H238517   5.656   2.078   6.795  1.7072 -0.4734  1.2710
 5628TIP3   OH238518   5.369   1.916   1.023 -0.2913 -0.0417  0.1757
 5628TIP3    H138519   5.415   1.899   1.105 -0.9865  1.1724  0.8493
 5628TIP3    H238520   5.327   1.832   1.002 -0.9119 -0.1300  1.5966
 5629TIP3   OH238521   1.223   5.083   0.631  0.6279 -0.1309 -0.0282
 5629TIP3    H138522   1.314   5.099   0.608  0.7722  0.6442  1.0208
 5629TIP3    H238523   1.221   4.991   0.659  1.2915  0.0963  0.8145
 5630TIP3   OH238524   2.986   1.402   0.475  0.1112 -0.0606  0.0688
 5630TIP3    H138525   2.949   1.342   0.540 -0.6111 -0.8527 -1.0186
 5630TIP3    H238526   2.953   1.488   0.500 -0.7044 -0.4523  0.3733
 5631TIP3   OH238527   5.880   3.547   0.242 -0.5884  0.0253 -0.0259
 5631TIP3    H138528   5.830   3.470   0.212 -0.8833  0.0852  0.3096
 5631TIP3    H238529   5.904   3.592   0.161 -2.2185  0.7217 -0.1689
 5632TIP3   OH238530   0.411   3.110   1.997  0.5866 -0.5813 -0.0389
 5632TIP3    H138531   0.398   3.027   2.044 -0.0080  0.0413  0.9158
 5632TIP3    H238532   0.373   3.176   2.054  2.5792  0.5779  0.0290
 5633TIP3   OH238533   5.198   6.108   8.291 -0.7414  0.4313 -0.2600
 5633TIP3    H138534   5.262   6.038   8.305 -0.4514  0.5023 -1.1534
 5633TIP3    H238535   5.232   6.156   8.216 -0.3784  2.1745  0.9569
 5634TIP3   OH238536   1.403   0.268   1.640  0.0675 -0.4258  0.1208
 5634TIP3    H138537   1.422   0.250   1.732 -0.6356  0.1386  0.3827
 5634TIP3    H238538   1.309   0.253   1.631  0.5669 -3.4902 -1.2306
 5635TIP3   OH238539   2.819   2.408   8.535 -0.1604 -0.4015 -0.0517
 5635TIP3    H138540   2.866   2.395   8.618 -1.9472 -0.0793  1.0625
 5635TIP3    H238541   2.761   2.482   8.551 -1.1109 -0.8247 -1.3330
 5636TIP3   OH238542   2.024   3.713   0.700  0.2150  0.2566  0.0440
 5636TIP3    H138543   1.930   3.728   0.709  0.2053  1.2561 -1.3346
 5636TIP3    H238544   2.040   3.631   0.746 -1.4529 -0.2720 -0.2538
 5637TIP3   OH238545   5.354   4.693   7.734  0.7372 -0.2829 -0.2697
 5637TIP3    H138546   5.311   4.751   7.671 -0.1824  1.4864  1.8144
 5637TIP3    H238547   5.427   4.745   7.769  1.1445 -1.1538  0.2031
 5638TIP3   OH238548   4.687   2.521   1.219 -0.1316  0.1156  0.1268
 5638TIP3    H138549   4.594   2.515   1.199  0.2143 -0.2504 -1.4627
 5638TIP3    H238550   4.731   2.509   1.135  1.3823 -0.5117  0.9682
 5639TIP3   OH238551   2.661   4.417   7.242  0.3578  0.1438 -0.2462
 5639TIP3    H138552   2.611   4.489   7.280 -0.3932  0.9726 -2.6612
 5639TIP3    H238553   2.652   4.346   7.306 -2.1485  0.9379  0.3769
 5640TIP3   OH238554   4.138   3.600   0.783 -0.2628 -0.2645  0.2352
 5640TIP3    H138555   4.215   3.575   0.733 -0.6100 -0.6919 -0.0832
 5640TIP3    H238556   4.159   3.575   0.873  1.0554  2.0118  0.6586
 5641TIP3   OH238557   1.291   1.728   0.088  0.2019 -0.2930  0.0834
 5641TIP3    H138558   1.328   1.748   0.002  0.0759  0.8460  0.2854
 5641TIP3    H238559   1.253   1.810   0.117 -0.8459 -0.9799  0.6980
 5642TIP3   OH238560   6.301   0.346   8.178 -0.7673  0.0750 -0.6698
 5642TIP3    H138561   6.261   0.400   8.110  0.6426  2.7612  0.4896
 5642TIP3    H238562   6.392   0.333   8.149 -0.2735  0.8778  0.4316
 5643TIP3   OH238563   4.686   4.937   6.561 -0.2705 -0.3772 -0.5431
 5643TIP3    H138564   4.756   4.885   6.599 -1.0733 -0.6497  0.6136
 5643TIP3    H238565   4.708   5.027   6.581  0.4587 -0.3491 -1.4195
 5644TIP3   OH238566   0.452   6.683   5.949  0.4250  0.5716 -0.2595
 5644TIP3    H138567   0.541   6.672   5.915  1.3489  0.0084  2.1746
 5644TIP3    H238568   0.460   6.749   6.018 -1.0392  0.4447  0.0701
 5645TIP3   OH238569   6.385   6.560   6.780 -0.2295  0.4146 -0.3757
 5645TIP3    H138570   6.339   6.526   6.703  0.4975  0.9202 -1.0442
 5645TIP3    H238571   6.393   6.654   6.764  0.3542  0.4526  0.0863
 5646TIP3   OH238572   5.868   6.233   6.887  0.2380 -0.4409  0.5383
 5646TIP3    H138573   5.881   6.196   6.975  0.0696  1.0528  1.2278
 5646TIP3    H238574   5.924   6.181   6.830  1.8672 -0.2241  1.8633
 5647TIP3   OH238575   1.385   3.023   2.028 -0.2665  0.1364 -0.4259
 5647TIP3    H138576   1.455   2.989   2.084 -0.8085 -0.5873 -0.1823
 5647TIP3    H238577   1.329   3.072   2.088  0.0185  0.7104 -0.6202
 5648TIP3   OH238578   6.624   2.077   6.701 -0.2869  0.3963  0.2979
 5648TIP3    H138579   6.715   2.104   6.714 -0.3471  0.8124 -0.1123
 5648TIP3    H238580   6.626   2.021   6.623 -0.5367  1.3276 -0.4030
 5649TIP3   OH238581   1.353   6.520   0.307  0.1412  0.4891  0.1342
 5649TIP3    H138582   1.303   6.439   0.302 -0.0421  0.5729  0.5664
 5649TIP3    H238583   1.406   6.511   0.387 -0.1166  0.9244  0.3611
 5650TIP3   OH238584   1.284   1.861   0.735  0.2232 -0.2302  0.4107
 5650TIP3    H138585   1.354   1.889   0.676  0.8507 -3.2004 -0.4299
 5650TIP3    H238586   1.323   1.864   0.822  1.0437 -0.7683  0.0761
 5651TIP3   OH238587   1.127   0.731   8.261 -0.9277 -0.2674  0.0583
 5651TIP3    H138588   1.040   0.770   8.271 -1.0648 -0.9873  2.1689
 5651TIP3    H238589   1.187   0.805   8.254 -1.5991  0.2348 -0.4915
 5652TIP3   OH238590   0.690   0.240   6.746  0.2456  0.1284 -0.7113
 5652TIP3    H138591   0.726   0.152   6.735 -0.4179 -0.1438 -0.7670
 5652TIP3    H238592   0.664   0.267   6.658 -2.8230 -1.0741 -0.3272
 5653TIP3   OH238593   4.574   2.927   8.476  0.6858 -0.3633 -0.0363
 5653TIP3    H138594   4.648   2.902   8.531  1.2999  0.5731 -0.3992
 5653TIP3    H238595   4.589   3.020   8.458 -2.1213  0.6685  2.3055
 5654TIP3   OH238596   1.291   2.697   8.034  0.2323 -0.2983 -0.0232
 5654TIP3    H138597   1.372   2.746   8.020  0.1898 -0.5883 -1.5331
 5654TIP3    H238598   1.286   2.684   8.128 -0.8037  4.4068  0.8211
 5655TIP3   OH238599   5.202   1.121   0.386  0.2448  0.2753  0.1200
 5655TIP3    H138600   5.209   1.048   0.324 -0.8023 -0.0261  0.3380
 5655TIP3    H238601   5.147   1.087   0.457 -0.1168  1.2228  0.3087
 5656TIP3   OH238602   3.535   6.344   1.924 -0.1270 -0.3969 -0.6825
 5656TIP3    H138603   3.484   6.352   2.004  1.4824  0.2009  0.3374
 5656TIP3    H238604   3.512   6.258   1.889  0.9756 -1.8122  1.8107
 5657TIP3   OH238605   0.444   5.194   1.015 -0.3008 -0.5938  0.3855
 5657TIP3    H138606   0.407   5.130   0.954 -0.1430  1.2240 -1.7266
 5657TIP3    H238607   0.372   5.253   1.036  0.1318 -0.0344  0.3370
 5658TIP3   OH238608   6.407   4.027   7.534  0.1755  0.2723 -0.2651
 5658TIP3    H138609   6.456   4.072   7.465  2.2460 -0.0284  0.9203
 5658TIP3    H238610   6.442   4.063   7.616  0.3436 -1.8838  0.6835
 5659TIP3   OH238611   3.927   3.585   1.730  0.0559 -0.0716 -0.4071
 5659TIP3    H138612   3.920   3.492   1.750 -0.2011 -0.5419 -2.4636
 5659TIP3    H238613   3.853   3.625   1.775 -0.0534 -0.9135  0.1828
 5660TIP3   OH238614   0.621   5.789   7.018 -0.8514 -0.1319  0.3781
 5660TIP3    H138615   0.607   5.859   7.081  1.5909  0.1904  0.6635
 5660TIP3    H238616   0.575   5.818   6.939 -0.0444  1.7550  0.5467
 5661TIP3   OH238617   0.885   5.897   2.665 -0.2551  0.0908 -0.0627
 5661TIP3    H138618   0.825   5.959   2.623 -1.4729 -0.1151  1.3108
 5661TIP3    H238619   0.830   5.824   2.692  1.0974 -1.4924 -1.3284
 5662TIP3   OH238620   0.759   2.633   1.093 -0.2929 -0.2016  0.3269
 5662TIP3    H138621   0.756   2.652   0.999 -1.3388 -1.6332  0.0340
 5662TIP3    H238622   0.819   2.698   1.129 -2.9648  3.0496 -0.6392
 5663TIP3   OH238623   2.227   2.720   0.697  0.0854 -0.0800 -0.0449
 5663TIP3    H138624   2.153   2.759   0.744  0.5961  0.3985  0.3867
 5663TIP3    H238625   2.241   2.636   0.741  0.5375  0.3507  0.6549
 5664TIP3   OH238626   5.084   0.055   7.911  0.1792 -0.4233  0.1831
 5664TIP3    H138627   5.135  -0.020   7.940  0.8166  0.2280  0.8178
 5664TIP3    H238628   5.102   0.123   7.977 -1.9094 -0.3226  0.7328
 5665TIP3   OH238629   6.848   6.610   1.154  0.7903 -0.4738  0.0116
 5665TIP3    H138630   6.825   6.637   1.065  0.7278 -0.3781  0.0572
 5665TIP3    H238631   6.765   6.611   1.202  0.8414 -0.4231  0.0985
 5666TIP3   OH238632   5.626   1.335   0.786 -0.0726 -0.3391  0.1487
 5666TIP3    H138633   5.691   1.387   0.834 -1.4779  1.6907 -0.0065
 5666TIP3    H238634   5.634   1.246   0.822  0.9568  0.4601  2.0191
 5667TIP3   OH238635   4.609   3.766   0.792 -0.2981 -0.1841  0.3799
 5667TIP3    H138636   4.577   3.754   0.881 -1.4929 -0.9882 -0.1291
 5667TIP3    H238637   4.539   3.731   0.737 -0.0837  1.3481 -0.9228
 5668TIP3   OH238638   3.599   2.437   7.933  0.8839  0.3971 -0.5124
 5668TIP3    H138639   3.650   2.385   7.995  0.8813  0.7023 -0.2512
 5668TIP3    H238640   3.508   2.421   7.958  0.5355 -3.2603 -3.3863
 5669TIP3   OH238641   0.202   5.466   6.478 -1.0360  0.2325 -0.3019
 5669TIP3    H138642   0.268   5.536   6.474 -0.4597 -0.3675 -2.1179
 5669TIP3    H238643   0.119   5.511   6.461 -0.6095  0.4311 -1.9855
 5670TIP3   OH238644   2.160   5.847   1.939 -0.3790  0.0051  0.1003
 5670TIP3    H138645   2.133   5.756   1.947 -0.2495  0.1273  2.9790
 5670TIP3    H238646   2.078   5.897   1.940 -0.3851 -0.0080  0.5456
 5671TIP3   OH238647   5.686   0.118   1.218 -0.6507 -0.1244  0.0028
 5671TIP3    H138648   5.662   0.206   1.191 -1.1349  0.1072  1.1269
 5671TIP3    H238649   5.671   0.064   1.140  2.4017  1.1758 -1.6655
 5672TIP3   OH238650   2.662   3.747   7.550  0.3763  0.7624 -0.1909
 5672TIP3    H138651   2.641   3.821   7.493 -4.3096 -1.8954 -2.4689
 5672TIP3    H238652   2.674   3.674   7.490  0.3671 -1.2281  2.0980
 5673TIP3   OH238653   5.435   6.140   7.848 -0.1589 -0.0309  0.9169
 5673TIP3    H138654   5.396   6.171   7.766 -0.6084  0.7178  1.3991
 5673TIP3    H238655   5.443   6.046   7.837 -0.4758  0.0286  0.1179
 5674TIP3   OH238656   4.868   1.799   7.045 -0.2044 -0.0498  0.0996
 5674TIP3    H138657   4.954   1.837   7.028 -0.5072  0.3086 -0.7129
 5674TIP3    H238658   4.825   1.800   6.959 -1.0975 -0.0039  0.5386
 5675TIP3   OH238659   5.629   1.435   1.185 -0.6584  0.1915 -0.5755
 5675TIP3    H138660   5.609   1.528   1.184  0.8536  0.5867  1.1236
 5675TIP3    H238661   5.694   1.423   1.115 -0.1786  0.5976 -0.2066
 5676TIP3   OH238662   1.511   3.703   8.127  0.3170 -0.3240 -0.4665
 5676TIP3    H138663   1.604   3.726   8.122  0.0402  0.5775 -2.1570
 5676TIP3    H238664   1.465   3.779   8.089 -1.3219  0.3319  2.5221
 5677TIP3   OH238665   2.507   0.824   2.810 -0.1174  0.1360 -0.7352
 5677TIP3    H138666   2.464   0.767   2.747  0.9623  0.7479 -2.0670
 5677TIP3    H238667   2.435   0.867   2.857 -0.9545 -1.9788  0.0423
 5678TIP3   OH238668   5.290   5.969   7.535  0.0791  0.6506 -0.3705
 5678TIP3    H138669   5.197   5.991   7.539 -0.5008 -1.4825 -0.6824
 5678TIP3    H238670   5.299   5.894   7.594  1.6714  0.9754 -0.1449
 5679TIP3   OH238671   4.907   5.312   1.777 -0.2998 -0.4403  0.2557
 5679TIP3    H138672   4.888   5.254   1.704 -1.2658  1.6372 -1.2410
 5679TIP3    H238673   4.924   5.253   1.851  0.9665 -2.6311 -1.6503
 5680TIP3   OH238674   1.139   4.446   8.318 -0.1729 -0.1586  0.0810
 5680TIP3    H138675   1.152   4.353   8.339  1.6399 -0.2543 -1.1799
 5680TIP3    H238676   1.146   4.450   8.223 -3.9050  0.8266 -0.2652
 5681TIP3   OH238677   0.851   4.213   8.195 -0.1863 -0.0331  0.2101
 5681TIP3    H138678   0.786   4.248   8.256  0.1190 -0.3554  0.7351
 5681TIP3    H238679   0.899   4.290   8.164  0.0685  0.0794  0.8685
 5682TIP3   OH238680   2.141   3.895   6.647 -0.0885  0.5059 -0.0363
 5682TIP3    H138681   2.156   3.854   6.732  0.9220 -2.0885 -1.3613
 5682TIP3    H238682   2.149   3.823   6.584 -2.7887  1.9342 -2.2073
 5683TIP3   OH238683   6.719   6.675   8.510  0.0016 -0.1066  0.8246
 5683TIP3    H138684   6.639   6.711   8.471  0.1710  0.2876  0.8380
 5683TIP3    H238685   6.783   6.675   8.439 -0.0734 -0.6362  0.7521
 5684TIP3   OH238686   1.016   2.882   0.139 -0.0989  0.6857  0.3228
 5684TIP3    H138687   1.096   2.832   0.126  0.1819  1.2523 -0.1580
 5684TIP3    H238688   0.946   2.817   0.133  0.1484  0.5557 -1.8872
 5685TIP3   OH238689   5.272   6.587   2.106  0.4281  0.4560  0.1190
 5685TIP3    H138690   5.190   6.619   2.068 -0.1306 -0.0832  0.8374
 5685TIP3    H238691   5.315   6.540   2.035  0.2761  1.0155 -0.3542
 5686TIP3   OH238692   2.588   3.172   0.191  0.1960 -0.5286 -0.1652
 5686TIP3    H138693   2.619   3.220   0.268  0.5029 -1.9566  0.6550
 5686TIP3    H238694   2.497   3.149   0.212 -0.0985  0.0926 -0.7530
 5687TIP3   OH238695   3.692   3.897   1.605  0.4486 -0.7090 -0.4816
 5687TIP3    H138696   3.695   3.817   1.658  0.6018 -0.2705  0.1775
 5687TIP3    H238697   3.780   3.934   1.612  0.4415 -0.5914 -0.9620
 5688TIP3   OH238698   0.912   2.988   0.794 -0.1966 -0.0376  0.2112
 5688TIP3    H138699   0.961   2.922   0.842 -0.2842 -0.0184  0.3263
 5688TIP3    H238700   0.979   3.053   0.768 -0.4993  1.3213  2.5531
 5689TIP3   OH238701   5.661   6.738   2.158 -0.2937 -0.5482  0.3955
 5689TIP3    H138702   5.603   6.814   2.174 -3.4324 -2.5191 -0.6172
 5689TIP3    H238703   5.627   6.670   2.215  0.0687 -2.2466 -1.3232
 5690TIP3   OH238704   0.216   5.152   0.567  0.2281 -0.0341  0.1435
 5690TIP3    H138705   0.143   5.191   0.613 -1.0033 -1.6427 -0.3405
 5690TIP3    H238706   0.193   5.159   0.474  1.5875  1.1024 -0.1415
 5691TIP3   OH238707   3.494   3.664   1.499  0.1133  0.0637 -0.1770
 5691TIP3    H138708   3.437   3.592   1.473 -0.8887  1.1750 -1.1667
 5691TIP3    H238709   3.578   3.622   1.518  0.0489 -1.2032 -2.3412
 5692TIP3   OH238710   0.118   3.196   6.760 -0.3663 -0.7846  0.0293
 5692TIP3    H138711   0.196   3.249   6.776 -0.2474 -1.2615  1.1208
 5692TIP3    H238712   0.148   3.129   6.698  0.4656 -1.7235  1.3857
 5693TIP3   OH238713   3.137   3.756   7.828  0.4409  0.1740  0.5912
 5693TIP3    H138714   3.063   3.754   7.767  0.2863  0.0681  0.7835
 5693TIP3    H238715   3.203   3.701   7.786  0.2405 -0.1061  0.6367
 5694TIP3   OH238716   4.150   4.841   0.157  0.3718  0.5939  0.0048
 5694TIP3    H138717   4.134   4.789   0.236  2.2780 -1.0145 -0.5863
 5694TIP3    H238718   4.077   4.820   0.099 -1.2164  2.0347  1.4000
 5695TIP3   OH238719   3.583   4.638   0.793  0.2390  0.7003  0.1021
 5695TIP3    H138720   3.651   4.679   0.847  0.9783  1.0054 -1.0293
 5695TIP3    H238721   3.502   4.651   0.843  0.4321  3.5443 -0.1379
 5696TIP3   OH238722   1.099   4.393   0.408 -0.3915 -0.5794 -0.3259
 5696TIP3    H138723   1.039   4.320   0.417 -0.7395 -0.2585  0.0042
 5696TIP3    H238724   1.156   4.388   0.485  1.4162 -2.1319 -1.6809
 5697TIP3   OH238725   6.175   2.444   1.348 -0.3698 -0.7824  0.1956
 5697TIP3    H138726   6.178   2.363   1.400 -0.0204 -0.0410  1.3560
 5697TIP3    H238727   6.264   2.453   1.313  0.5028  0.6444  2.5503
 5698TIP3   OH238728   1.758   2.308   1.487  0.0352  0.4083  0.5531
 5698TIP3    H138729   1.726   2.368   1.554  1.6123  0.7855  0.9869
 5698TIP3    H238730   1.849   2.292   1.510  0.1443 -0.7471 -0.5819
 5699TIP3   OH238731   4.047   3.107   7.998  1.2384 -0.6966 -0.2063
 5699TIP3    H138732   4.142   3.102   8.010  1.3744 -2.7616 -1.6182
 5699TIP3    H238733   4.021   3.020   7.969 -1.1131 -0.1744  0.0743
 5700TIP3   OH238734   4.209   4.891   7.336  0.3766 -0.6860 -0.6871
 5700TIP3    H138735   4.297   4.859   7.356  0.9302  0.2502 -1.5304
 5700TIP3    H238736   4.197   4.873   7.243 -0.4298 -1.0311 -0.5264
 5701TIP3   OH238737   2.153   1.071   0.920 -0.0418 -0.3259  0.0068
 5701TIP3    H138738   2.125   1.021   0.843 -2.0165  0.5692  0.0793
 5701TIP3    H238739   2.124   1.019   0.995  0.1699 -0.2789  0.1228
 5702TIP3   OH238740   2.479   5.119   8.172  0.3746  0.8651  0.3508
 5702TIP3    H138741   2.458   5.026   8.168  0.8376  0.7832 -0.3685
 5702TIP3    H238742   2.575   5.122   8.170  0.3969  1.4298 -2.8507
 5703TIP3   OH238743   2.891   4.302   6.400 -0.1497 -0.6559 -0.5773
 5703TIP3    H138744   2.931   4.373   6.350  0.3379 -1.4036 -1.2574
 5703TIP3    H238745   2.796   4.319   6.393 -0.0462 -0.1702 -0.8765
 5704TIP3   OH238746   6.081   6.738   8.654  0.7255 -0.3560  0.2073
 5704TIP3    H138747   6.107   6.775   8.570  0.1251 -1.2303 -0.3758
 5704TIP3    H238748   6.086   6.643   8.642  0.8080 -0.4985  1.2174
 5705TIP3   OH238749   2.309   2.072   6.886 -0.4561 -0.2565 -0.3413
 5705TIP3    H138750   2.308   2.164   6.860 -2.1991 -0.4936 -1.2628
 5705TIP3    H238751   2.302   2.074   6.981 -2.0196  0.5716 -0.4474
 5706TIP3   OH238752   5.727   6.015   7.418  0.1408 -0.6602 -0.2164
 5706TIP3    H138753   5.655   6.077   7.408  1.7503  0.9930 -2.9413
 5706TIP3    H238754   5.692   5.931   7.388 -0.6632  0.1677 -1.7161
 5707TIP3   OH238755   6.397   2.497   1.148 -0.4796 -0.2254  0.1720
 5707TIP3    H138756   6.406   2.463   1.058 -0.6874  0.5778 -0.1625
 5707TIP3    H238757   6.354   2.582   1.137  0.8409  0.5713  0.9033
 5708TIP3   OH238758   6.611   2.318   0.542  0.1371  0.3050  0.5919
 5708TIP3    H138759   6.653   2.273   0.469 -0.1436 -1.1881  1.2994
 5708TIP3    H238760   6.519   2.290   0.538 -0.0744  0.9342  0.9676
 5709TIP3   OH238761   4.490   2.793   0.217 -0.2518 -0.0071  0.2264
 5709TIP3    H138762   4.549   2.718   0.225  2.4330  1.7659 -1.5525
 5709TIP3    H238763   4.443   2.778   0.136  2.2147  1.3172 -1.5935
 5710TIP3   OH238764   1.771   3.185   8.401  0.2489 -0.2050  0.3767
 5710TIP3    H138765   1.703   3.172   8.467 -0.2895 -0.6018 -0.2329
 5710TIP3    H238766   1.752   3.271   8.363 -0.0919 -0.4333  0.0177
 5711TIP3   OH238767   4.953   0.829   6.808 -0.5542 -0.0156  0.6031
 5711TIP3    H138768   4.867   0.840   6.767  0.4924 -0.6508 -1.9467
 5711TIP3    H238769   5.000   0.769   6.751  1.1865 -0.7360  2.6340
 5712TIP3   OH238770   1.775   1.248   2.630  0.6774  0.1330  0.0105
 5712TIP3    H138771   1.868   1.243   2.608  0.6649 -1.9513  0.2277
 5712TIP3    H238772   1.769   1.320   2.692  2.2245 -0.0155  0.3679
 5713TIP3   OH238773   2.464   1.753   8.186 -0.4120  0.4658  0.1700
 5713TIP3    H138774   2.541   1.793   8.144  0.7695 -1.5305  0.2894
 5713TIP3    H238775   2.499   1.675   8.229 -2.2597  0.4113  1.6617
 5714TIP3   OH238776   0.462   6.636   1.394  0.3996 -0.3267 -0.0637
 5714TIP3    H138777   0.410   6.709   1.360 -1.5614 -0.7367  1.8004
 5714TIP3    H238778   0.516   6.608   1.320 -1.8624  0.3252 -2.0908
 5715TIP3   OH238779   4.715   3.958   7.814 -0.4020 -0.0978 -0.1053
 5715TIP3    H138780   4.789   3.953   7.874 -0.6628 -0.4886  0.1884
 5715TIP3    H238781   4.700   3.868   7.786  0.5543  0.2491 -1.8077
 5716TIP3   OH238782   3.220   4.958   1.944  0.0013 -0.6195 -0.8081
 5716TIP3    H138783   3.140   4.926   1.986  0.0349 -0.0269 -0.2696
 5716TIP3    H238784   3.205   4.944   1.851 -0.2613 -1.5476 -0.6396
 5717TIP3   OH238785   2.880   0.422   7.205 -0.5262  0.4162 -1.2460
 5717TIP3    H138786   2.802   0.479   7.202  0.5619  1.9460 -2.2450
 5717TIP3    H238787   2.936   0.455   7.135  0.1513 -1.9938 -1.9365
 5718TIP3   OH238788   0.526   1.183   7.689  0.2048  0.3324  0.1216
 5718TIP3    H138789   0.516   1.088   7.683  3.7327 -0.2043  0.5575
 5718TIP3    H238790   0.512   1.203   7.781 -2.8650  0.6874 -0.3375
 5719TIP3   OH238791   4.371   0.921   0.194  0.2105 -0.3272  0.7410
 5719TIP3    H138792   4.465   0.925   0.211  0.3005  1.2700  0.0807
 5719TIP3    H238793   4.330   0.957   0.273  0.3193  1.3563  0.0771
 5720TIP3   OH238794   6.219   3.133   1.589 -0.1566 -0.7640  0.3071
 5720TIP3    H138795   6.132   3.162   1.614 -1.1755 -2.3853 -1.1530
 5720TIP3    H238796   6.273   3.211   1.595 -1.6154  0.2120  1.5422
 5721TIP3   OH238797   0.873   0.265   1.605 -0.0364 -0.7442 -0.5219
 5721TIP3    H138798   0.967   0.276   1.615  0.0440 -0.2808 -1.6430
 5721TIP3    H238799   0.842   0.351   1.576 -0.5854 -1.2624 -1.5332
 5722TIP3   OH238800   3.577   5.988   7.795  0.3785  0.1958 -0.5112
 5722TIP3    H138801   3.595   6.049   7.723 -0.0167  1.8781  0.7346
 5722TIP3    H238802   3.594   6.040   7.874 -1.4923 -0.8207  0.6227
 5723TIP3   OH238803   6.367   0.636   2.313  0.2036 -0.2884  0.1115
 5723TIP3    H138804   6.336   0.709   2.367  0.3725 -0.3142  0.2449
 5723TIP3    H238805   6.320   0.645   2.230  0.9276  0.5250 -0.2160
 5724TIP3   OH238806   1.717   0.466   6.508 -0.1027 -0.1907  0.0380
 5724TIP3    H138807   1.766   0.437   6.584  1.6561  2.1573 -0.0988
 5724TIP3    H238808   1.754   0.416   6.435 -0.4206 -1.0015  0.4236
 5725TIP3   OH238809   6.806   2.214   7.845 -0.1627 -0.7149 -0.2040
 5725TIP3    H138810   6.734   2.277   7.859  0.7225 -0.0834  1.9950
 5725TIP3    H238811   6.872   2.264   7.797  0.6866  0.2530  1.8447
 5726TIP3   OH238812   6.826   5.226   7.669  0.2434 -0.2528 -0.0299
 5726TIP3    H138813   6.847   5.213   7.761  2.5448 -1.2302 -0.6218
 5726TIP3    H238814   6.791   5.142   7.639  0.3022 -0.2029 -0.2437
 5727TIP3   OH238815   4.045   5.291   6.646  0.0480 -0.2695  0.1180
 5727TIP3    H138816   4.030   5.219   6.706  1.5898 -1.0717 -0.4023
 5727TIP3    H238817   4.099   5.254   6.576  0.8793  1.3678 -0.1736
 5728TIP3   OH238818   4.098   0.899   8.210  0.0064  0.2528 -0.0352
 5728TIP3    H138819   4.010   0.862   8.200  0.4036 -0.9536  0.7235
 5728TIP3    H238820   4.118   0.935   8.124 -1.1268  0.3285 -0.2948
 5729TIP3   OH238821   0.209   6.848   7.152  0.4754  0.3244  0.3712
 5729TIP3    H138822   0.256   6.881   7.076  0.8364 -0.7577  0.1067
 5729TIP3    H238823   0.278   6.816   7.211  0.1229 -0.3954  0.4021
 5730TIP3   OH238824   2.540   6.347   6.879 -0.0538  0.0301 -0.3560
 5730TIP3    H138825   2.521   6.357   6.786 -1.0192  2.2813  0.0133
 5730TIP3    H238826   2.455   6.351   6.922  0.4340 -0.3184  0.6841
 5731TIP3   OH238827   2.840   1.738   8.600  0.1063 -0.7276  0.0969
 5731TIP3    H138828   2.801   1.747   8.687  0.5316  0.1755  0.2053
 5731TIP3    H238829   2.933   1.751   8.614  0.2261 -0.9914 -0.4378
 5732TIP3   OH238830   0.735   3.025   8.755  0.3123 -0.2783 -0.0558
 5732TIP3    H138831   0.751   3.052   8.845 -1.4888 -3.2973  1.3338
 5732TIP3    H238832   0.819   2.991   8.724  0.4015 -1.4793  1.4112
 5733TIP3   OH238833   0.288   2.850   0.946 -0.6842  0.1236 -0.3164
 5733TIP3    H138834   0.292   2.881   1.036  0.5702  1.0817 -0.6623
 5733TIP3    H238835   0.195   2.839   0.928 -0.9085 -1.6110  1.5645
 5734TIP3   OH238836   0.950   5.828   8.372  0.8874 -0.6001 -0.0517
 5734TIP3    H138837   1.035   5.863   8.400  0.1240  1.1590  0.1465
 5734TIP3    H238838   0.940   5.858   8.282  0.1014 -0.0739  0.2047
 5735TIP3   OH238839   2.642   0.754   8.524  0.2447  0.0411 -0.3246
 5735TIP3    H138840   2.673   0.805   8.599 -0.3216 -0.0786 -0.0023
 5735TIP3    H238841   2.721   0.732   8.475  0.6754 -0.3397  0.5317
 5736TIP3   OH238842   3.818   6.264   1.252  0.2015 -0.5911 -0.2242
 5736TIP3    H138843   3.749   6.226   1.197 -0.4131 -1.3707  1.0484
 5736TIP3    H238844   3.899   6.227   1.216  0.1408  1.1590 -2.4135
 5737TIP3   OH238845   0.319   3.602   7.234 -0.0940 -0.1885  0.4541
 5737TIP3    H138846   0.371   3.523   7.222 -0.4046 -0.1612 -1.4272
 5737TIP3    H238847   0.383   3.671   7.251  0.3985 -0.3977 -0.5073
 5738TIP3   OH238848   2.236   4.797   1.162  0.1643 -0.0091 -0.9300
 5738TIP3    H138849   2.175   4.871   1.169  1.5521  1.0470  0.7691
 5738TIP3    H238850   2.181   4.719   1.173 -1.0029  0.8660 -0.3616
 5739TIP3   OH238851   5.225   2.306   1.401 -0.5291 -0.6823  0.2019
 5739TIP3    H138852   5.308   2.352   1.392 -1.1919  0.1154 -2.7850
 5739TIP3    H238853   5.249   2.220   1.435  1.3511 -0.0183  0.6415
 5740TIP3   OH238854   6.833   0.330   8.036  0.3522 -0.4123  0.1367
 5740TIP3    H138855   6.886   0.403   8.004  0.7849  0.2110  2.1372
 5740TIP3    H238856   6.891   0.254   8.033  1.3685  0.2163  2.0735
 5741TIP3   OH238857   0.792   5.321   7.964 -0.0511 -0.3152 -0.2410
 5741TIP3    H138858   0.797   5.279   7.878 -0.9462  0.7280 -0.8197
 5741TIP3    H238859   0.790   5.247   8.025  1.5006 -1.0703 -1.0225
 5742TIP3   OH238860   5.364   1.351   7.483 -0.0524  0.0955 -0.6617
 5742TIP3    H138861   5.453   1.364   7.451  0.5283  0.6654  1.0702
 5742TIP3    H238862   5.374   1.299   7.563 -1.1132  1.3192  0.3094
 5743TIP3   OH238863   2.783   5.294   0.758 -0.5346  0.1443  0.1918
 5743TIP3    H138864   2.819   5.376   0.724  3.2145  0.3402  3.7905
 5743TIP3    H238865   2.835   5.226   0.715  1.4225  0.2053  2.2540
 5744TIP3   OH238866   1.974   4.978   8.603 -0.3569 -0.8249 -0.3095
 5744TIP3    H138867   1.948   5.000   8.692 -1.0322  2.0790 -1.1215
 5744TIP3    H238868   2.042   5.042   8.581 -0.3493 -1.3346 -1.9459
 5745TIP3   OH238869   0.342   6.471   8.066  0.3094  0.3945  0.2380
 5745TIP3    H138870   0.433   6.462   8.093  0.8117 -1.0279 -1.6948
 5745TIP3    H238871   0.340   6.549   8.012  0.0621  1.1965  1.3733
 5746TIP3   OH238872   4.324   3.119   0.198  0.0368  0.5841  0.4821
 5746TIP3    H138873   4.301   3.169   0.120 -0.5297  0.5464  0.6179
 5746TIP3    H238874   4.264   3.044   0.197 -0.8808  1.2550  1.6263
 5747TIP3   OH238875   3.041   1.268   0.721  0.2279  0.1824 -0.0202
 5747TIP3    H138876   2.995   1.192   0.757 -0.0259  0.3744  0.0706
 5747TIP3    H238877   3.133   1.242   0.720  0.0158 -0.5749 -1.1365
 5748TIP3   OH238878   3.474   6.465   1.048 -0.5683  0.2756 -0.0306
 5748TIP3    H138879   3.554   6.416   1.026 -0.6457  1.1531 -2.7282
 5748TIP3    H238880   3.497   6.514   1.126  0.9441 -0.8112  0.2645
 5749TIP3   OH238881   6.377   5.167   7.283  0.0890 -0.4414  0.3117
 5749TIP3    H138882   6.445   5.155   7.350  0.0673 -0.9494  0.2493
 5749TIP3    H238883   6.382   5.259   7.260 -0.6483  0.0229  1.8216
 5750TIP3   OH238884   3.237   3.548   6.892  0.8751 -0.1358  0.4286
 5750TIP3    H138885   3.254   3.573   6.801  1.4097 -0.3331  0.4755
 5750TIP3    H238886   3.158   3.494   6.886  1.6157 -1.2040 -0.0829
 5751TIP3   OH238887   6.404   1.928   0.609 -0.5985 -0.3593  0.1640
 5751TIP3    H138888   6.350   1.973   0.544 -0.1353  1.1959  0.8153
 5751TIP3    H238889   6.436   1.850   0.563 -1.1671  0.1222 -1.1093
 5752TIP3   OH238890   0.910   5.891   0.825  0.1949  0.6005 -0.0133
 5752TIP3    H138891   0.972   5.828   0.789 -0.8096 -0.1992 -0.3819
 5752TIP3    H238892   0.955   5.975   0.817  1.5549 -0.0469  0.4831
 5753TIP3   OH238893   6.108   2.144   8.193 -0.0640 -0.3002 -0.3724
 5753TIP3    H138894   6.021   2.182   8.206 -0.4770 -1.2990 -0.0708
 5753TIP3    H238895   6.117   2.079   8.263  1.3834  0.5356  0.2612
 5754TIP3   OH238896   1.699   0.741   1.390 -0.3130 -0.0022 -0.0153
 5754TIP3    H138897   1.768   0.701   1.443  0.2519  0.5067 -0.3549
 5754TIP3    H238898   1.731   0.735   1.300 -2.0233 -2.4127 -0.5468
 5755TIP3   OH238899   2.582   4.528   0.548  0.5875 -0.2412  0.5299
 5755TIP3    H138900   2.569   4.580   0.627 -0.0585 -1.4492  1.2446
 5755TIP3    H238901   2.558   4.587   0.476  0.4803  0.6401  1.2755
 5756TIP3   OH238902   2.080   4.466   0.307  0.4680 -0.4418  0.1734
 5756TIP3    H138903   2.108   4.558   0.315 -2.5012  0.6577 -0.6452
 5756TIP3    H238904   2.098   4.444   0.216 -1.5058  0.4010 -0.4679
 5757TIP3   OH238905   6.521   2.652   8.047  0.1184 -0.1920 -0.4359
 5757TIP3    H138906   6.547   2.736   8.008  0.4733 -1.0634 -2.1321
 5757TIP3    H238907   6.443   2.673   8.098  0.2144  1.1779 -0.8039
 5758TIP3   OH238908   1.844   0.200   7.209  0.1260 -0.8519 -0.1334
 5758TIP3    H138909   1.842   0.118   7.259  2.4933 -1.7168 -1.3130
 5758TIP3    H238910   1.810   0.175   7.123 -0.9874 -0.0895  0.0586
 5759TIP3   OH238911   0.896   3.011   7.086 -0.6117  0.2135 -0.3252
 5759TIP3    H138912   0.874   3.031   6.995 -1.0026 -2.0766 -0.8056
 5759TIP3    H238913   0.850   2.929   7.104  2.7197 -1.6595  0.5650
 5760TIP3   OH238914   1.062   1.677   8.283 -0.2816 -0.1534 -0.1888
 5760TIP3    H138915   1.123   1.714   8.218  1.4740 -0.0754  1.4158
 5760TIP3    H238916   1.061   1.741   8.354 -1.6176 -0.5833  0.2089
 5761TIP3   OH238917   0.114   3.616   1.640 -0.0397  0.1215 -0.3849
 5761TIP3    H138918   0.199   3.661   1.644 -0.1850  0.4076 -0.4712
 5761TIP3    H238919   0.089   3.621   1.547 -1.2987  2.2039  0.0102
 5762TIP3   OH238920   0.727   5.201   0.659  0.0170  0.3806 -0.3835
 5762TIP3    H138921   0.766   5.160   0.737 -1.4424 -0.1705  0.0971
 5762TIP3    H238922   0.640   5.162   0.653 -0.2330  1.0998 -1.7839
 5763TIP3   OH238923   5.052   3.098   7.249 -0.6710  0.1498  0.3142
 5763TIP3    H138924   4.969   3.050   7.257 -1.6136  1.6632  0.0510
 5763TIP3    H238925   5.112   3.035   7.209 -1.6995 -0.9775  0.4847
 5764TIP3   OH238926   5.517   3.399   8.144  0.0830  0.1164 -0.2000
 5764TIP3    H138927   5.449   3.348   8.098 -1.1526  0.2299  1.4174
 5764TIP3    H238928   5.471   3.477   8.175  1.1820  0.6384  0.1416
 5765TIP3   OH238929   4.676   1.532   0.974  0.2281  0.0380 -0.5978
 5765TIP3    H138930   4.719   1.538   1.059 -0.5819 -0.1073 -0.1656
 5765TIP3    H238931   4.698   1.444   0.943 -0.7180 -0.4928  0.1683
 5766TIP3   OH238932   1.422   3.432   6.380 -0.3087 -0.1841 -0.3075
 5766TIP3    H138933   1.352   3.489   6.413  0.8281  0.2646  1.4639
 5766TIP3    H238934   1.418   3.354   6.436  0.1305 -0.4900 -0.6895
 5767TIP3   OH238935   2.984   4.302   1.507 -0.1564 -0.2520  0.1973
 5767TIP3    H138936   2.949   4.253   1.581 -0.6130  0.6052  0.5666
 5767TIP3    H238937   2.915   4.296   1.441 -0.6211  0.6585  0.5851
 5768TIP3   OH238938   1.294   3.855   1.813 -0.3445  0.1274 -0.1026
 5768TIP3    H138939   1.379   3.897   1.822 -0.4277  0.4455 -0.7652
 5768TIP3    H238940   1.314   3.765   1.787 -0.1360 -0.5228  2.0771
 5769TIP3   OH238941   3.868   2.339   7.220 -0.1268 -0.2004 -0.0395
 5769TIP3    H138942   3.830   2.312   7.304  0.1467 -0.5792 -0.0337
 5769TIP3    H238943   3.808   2.405   7.186 -0.5360 -0.4544  0.1907
 5770TIP3   OH238944   2.952   3.964   6.913 -0.1670  0.3253 -0.2634
 5770TIP3    H138945   3.040   3.951   6.877  0.1257  1.4589 -0.0014
 5770TIP3    H238946   2.967   3.988   7.004 -0.8486 -1.2012  0.2925
 5771TIP3   OH238947   2.548   2.512   0.877  0.2736 -0.1311 -0.1561
 5771TIP3    H138948   2.551   2.590   0.822 -1.2298  0.2721  0.2845
 5771TIP3    H238949   2.618   2.526   0.941  1.6837 -0.3613 -1.5769
 5772TIP3   OH238950   0.625   1.074   0.284  0.4976 -0.8221  0.8870
 5772TIP3    H138951   0.553   1.106   0.231  1.4670 -0.4757 -0.2523
 5772TIP3    H238952   0.584   1.051   0.368 -0.5675  1.5646  1.1157
 5773TIP3   OH238953   2.915   6.151   0.370  0.5723 -0.5279 -0.0009
 5773TIP3    H138954   2.847   6.125   0.308 -0.0203 -0.5203  0.6441
 5773TIP3    H238955   2.889   6.111   0.453  1.2984 -0.4400  0.2742
 5774TIP3   OH238956   4.608   2.492   2.086  0.0782  0.0180  0.2671
 5774TIP3    H138957   4.606   2.416   2.145 -0.5255 -0.8630 -0.8267
 5774TIP3    H238958   4.683   2.476   2.029  1.8367  1.8222  1.9330
 5775TIP3   OH238959   3.813   0.945   6.847  0.1649 -0.3719 -0.7818
 5775TIP3    H138960   3.823   1.027   6.798  0.2987 -0.5856 -1.1124
 5775TIP3    H238961   3.741   0.900   6.804  0.7273 -0.8683 -1.2126
 5776TIP3   OH238962   1.677   2.817   6.515 -0.8001  0.2749 -0.6805
 5776TIP3    H138963   1.745   2.776   6.461  0.7560 -0.1495  1.4914
 5776TIP3    H238964   1.723   2.850   6.591 -3.1987 -1.6705  1.8351
 5777TIP3   OH238965   3.292   0.662   6.728  0.2227  0.2525 -0.2193
 5777TIP3    H138966   3.258   0.663   6.638 -1.3217 -1.4541  0.2984
 5777TIP3    H238967   3.214   0.672   6.783  1.1442  1.1955  0.9654
 5778TIP3   OH238968   2.544   2.041   8.678  0.3446 -0.6119  0.2202
 5778TIP3    H138969   2.588   2.029   8.594 -0.1652 -0.9648 -0.0033
 5778TIP3    H238970   2.593   2.111   8.721  1.0145 -0.8782 -0.0923
 5779TIP3   OH238971   6.822   0.888   0.040 -0.5947 -0.5237 -0.6339
 5779TIP3    H138972   6.793   0.824   0.105  0.2859 -0.1478  0.1600
 5779TIP3    H238973   6.814   0.843  -0.044  0.4955 -1.8707 -0.0475
 5780TIP3   OH238974   4.724   4.072   0.695 -0.3912 -0.1610  0.0853
 5780TIP3    H138975   4.644   4.093   0.647 -2.1704  0.0414  2.8775
 5780TIP3    H238976   4.776   4.020   0.634 -5.1661 -5.4612 -0.2878
 5781TIP3   OH238977   5.875   3.088   6.619  0.2505 -0.2969  0.2678
 5781TIP3    H138978   5.948   3.037   6.653 -0.4293  0.4390  3.1254
 5781TIP3    H238979   5.908   3.179   6.619 -0.4292 -0.0398  0.9885
 5782TIP3   OH238980   3.048   2.852   8.039 -1.1282 -0.4882 -0.4392
 5782TIP3    H138981   3.015   2.920   8.098 -0.6650  1.0303 -1.8942
 5782TIP3    H238982   2.970   2.802   8.015 -1.3858 -0.9066  1.1098
 5783TIP3   OH238983   2.240   4.821   0.892 -0.3189  0.4631  0.3223
 5783TIP3    H138984   2.287   4.853   0.969  0.5291  0.9760 -0.3835
 5783TIP3    H238985   2.170   4.884   0.878 -0.0731  0.7343  0.2987
 5784TIP3   OH238986   5.520   2.938   8.652  0.4448  0.6842  0.2743
 5784TIP3    H138987   5.484   2.909   8.568  0.9057  0.6069  0.1042
 5784TIP3    H238988   5.572   3.015   8.632  1.7256 -0.1651  0.2649
 5785TIP3   OH238989   2.288   2.967   6.720 -0.0819 -0.0928 -0.0325
 5785TIP3    H138990   2.304   2.882   6.679 -0.5287 -0.1980  0.0113
 5785TIP3    H238991   2.356   2.973   6.788  0.3721 -0.1176 -0.4768
 5786TIP3   OH238992   6.178   2.052   1.321 -0.2045  0.5130  0.4341
 5786TIP3    H138993   6.120   2.011   1.256 -0.0520  3.1977 -1.5728
 5786TIP3    H238994   6.119   2.079   1.391 -1.1504  1.4784 -0.6771
 5787TIP3   OH238995   3.878   1.745   7.609 -0.5187  0.0216  0.3029
 5787TIP3    H138996   3.909   1.827   7.648  1.1069 -0.9538  1.1715
 5787TIP3    H238997   3.897   1.678   7.675  0.1609 -1.3504 -1.2019
 5788TIP3   OH238998   5.964   5.214   0.063 -0.2012  0.0241 -0.2181
 5788TIP3    H138999   6.009   5.250   0.139  0.0023  0.8446 -0.7079
 5788TIP3    H239000   5.872   5.234   0.078 -0.1240  0.4787 -0.3393
 5789TIP3   OH239001   2.469   1.502   0.000  0.5443 -0.4058  0.0427
 5789TIP3    H139002   2.377   1.489  -0.025  1.1036 -0.8687 -1.9692
 5789TIP3    H239003   2.483   1.596  -0.009  0.8333 -0.6051 -1.9328
 5790TIP3   OH239004   2.065   4.972   7.082 -0.2228  0.0075 -0.3410
 5790TIP3    H139005   2.147   4.947   7.039  0.5587 -0.1083  1.1428
 5790TIP3    H239006   2.024   5.033   7.022  0.8161 -0.1506 -1.2456
 5791TIP3   OH239007   0.782   5.584   7.002 -0.0159 -0.2269 -0.5894
 5791TIP3    H139008   0.719   5.654   6.989  0.8983  0.6225 -0.5208
 5791TIP3    H239009   0.844   5.593   6.930  0.1539 -0.9131 -0.5368
 5792TIP3   OH239010   3.523   4.712   7.008 -0.0482 -0.0027  0.1328
 5792TIP3    H139011   3.516   4.783   7.072 -0.6650  0.6688 -0.6661
 5792TIP3    H239012   3.587   4.744   6.944 -1.2746  0.3956 -0.9258
 5793TIP3   OH239013   3.815   5.280   8.319  0.0286 -0.9384 -0.2156
 5793TIP3    H139014   3.811   5.357   8.261  0.2676 -0.3905  0.4742
 5793TIP3    H239015   3.896   5.292   8.368  0.5605 -2.1416 -0.7730
 5794TIP3   OH239016   2.623   2.889   7.797 -0.2969 -0.0047 -0.0979
 5794TIP3    H139017   2.708   2.909   7.835 -0.3956  0.8011 -0.3001
 5794TIP3    H239018   2.633   2.800   7.763  0.7547  0.4107 -0.9369
 5795TIP3   OH239019   2.416   6.730   8.641 -0.1210 -0.3312 -0.1197
 5795TIP3    H139020   2.476   6.687   8.703 -0.5643  0.1940  0.6900
 5795TIP3    H239021   2.359   6.782   8.696 -1.0376 -0.4665 -0.9266
 5796TIP3   OH239022   0.612   0.298   6.495  0.2113 -0.1026  0.1694
 5796TIP3    H139023   0.567   0.376   6.462  1.0812  0.2668 -0.1624
 5796TIP3    H239024   0.588   0.229   6.434  1.0432  0.3660 -0.7056
 5797TIP3   OH239025   1.494   2.266   1.929  0.3136  0.7788 -0.0397
 5797TIP3    H139026   1.423   2.254   1.993  0.3562 -0.1862 -0.1499
 5797TIP3    H239027   1.545   2.185   1.935 -0.0611  0.3837 -1.7487
 5798TIP3   OH239028   2.649   5.128   0.527  0.0283 -0.6963  0.3276
 5798TIP3    H139029   2.611   5.048   0.492  1.0541 -1.2448  0.4206
 5798TIP3    H239030   2.642   5.118   0.622  0.1660 -0.6842  0.3393
 5799TIP3   OH239031   6.700   6.682   0.184 -0.2567  0.1704 -0.8565
 5799TIP3    H139032   6.732   6.691   0.094  1.3043 -0.2861 -0.3852
 5799TIP3    H239033   6.625   6.623   0.176  0.2922 -0.4396 -1.7924
 5800TIP3   OH239034   6.257   6.204   6.500  0.4038  0.5054  0.0729
 5800TIP3    H139035   6.192   6.133   6.503  0.4462  0.4682  0.1024
 5800TIP3    H239036   6.337   6.161   6.470  0.4015  0.5618 -0.0126
 5801TIP3   OH239037   5.837   6.335   2.065  0.0583 -0.5648  0.5994
 5801TIP3    H139038   5.870   6.296   1.984  1.4706 -0.1343  0.9417
 5801TIP3    H239039   5.896   6.409   2.082 -0.7087 -0.1577  1.5867
 5802TIP3   OH239040   3.001   5.219   7.740  0.1617  0.0839  0.4692
 5802TIP3    H139041   2.924   5.206   7.686  1.2649 -1.1114 -0.9082
 5802TIP3    H239042   3.043   5.297   7.704  0.1591  0.1079  0.5175
 5803TIP3   OH239043   2.675   2.340   7.939 -0.3700  0.1356 -0.3029
 5803TIP3    H139044   2.633   2.281   8.001 -1.8664  1.4269 -0.0207
 5803TIP3    H239045   2.659   2.428   7.974  1.3188  0.7673 -0.9846
 5804TIP3   OH239046   3.604   1.772   8.055 -0.0443 -0.1026 -0.4266
 5804TIP3    H139047   3.509   1.775   8.071 -0.4100 -2.2898 -1.7688
 5804TIP3    H239048   3.643   1.774   8.142 -1.4363 -1.2008  0.2696
 5805TIP3   OH239049   0.099   4.145   0.816 -0.4382  0.7955 -0.0854
 5805TIP3    H139050   0.087   4.130   0.910  0.1077  2.8014  0.3349
 5805TIP3    H239051   0.190   4.122   0.800 -0.5988  0.2086 -0.2016
 5806TIP3   OH239052   5.982   2.766   1.706  0.3196  0.5646  0.6082
 5806TIP3    H139053   6.041   2.781   1.632 -1.2884 -0.5036 -0.9364
 5806TIP3    H239054   6.012   2.829   1.772  1.8757  1.4729 -0.8710
 5807TIP3   OH239055   2.702   5.706   0.913 -0.0544  0.4649  0.6698
 5807TIP3    H139056   2.672   5.712   0.823  1.2371 -0.5939  0.1480
 5807TIP3    H239057   2.639   5.647   0.956 -3.1517  4.0278  1.6443
 5808TIP3   OH239058   6.646   2.575   1.250 -0.0565  0.4940 -0.2320
 5808TIP3    H139059   6.684   2.634   1.184 -0.8177 -0.2396 -1.3746
 5808TIP3    H239060   6.584   2.522   1.200  0.0747 -0.7658  0.9117
 5809TIP3   OH239061   0.706   6.702   8.062 -0.2015 -0.1972  0.6416
 5809TIP3    H139062   0.671   6.668   7.979  1.3453  1.9137 -0.9842
 5809TIP3    H239063   0.651   6.660   8.129 -2.4698 -0.9145 -1.4735
 5810TIP3   OH239064   6.771   3.396   1.554  0.1323  0.0415  0.3119
 5810TIP3    H139065   6.823   3.469   1.588  1.9350 -0.8411 -0.4490
 5810TIP3    H239066   6.828   3.319   1.563 -0.3233 -0.6698 -2.2273
 5811TIP3   OH239067   5.979   1.468   1.571 -0.5779  0.1093 -0.1899
 5811TIP3    H139068   5.995   1.405   1.642 -2.4657  0.2515  0.4198
 5811TIP3    H239069   5.886   1.459   1.553 -0.4802  1.3871 -1.4266
 5812TIP3   OH239070   5.206   4.424   7.265 -0.4340  0.1412 -0.5163
 5812TIP3    H139071   5.245   4.374   7.336 -0.6938  0.6438 -0.0113
 5812TIP3    H239072   5.253   4.396   7.187 -0.4320 -0.7366 -0.2183
 5813TIP3   OH239073   0.393   3.626   5.889 -0.5439 -0.2140  0.4843
 5813TIP3    H139074   0.418   3.675   5.966 -0.6210  1.6488 -0.6145
 5813TIP3    H239075   0.396   3.689   5.817 -2.3474 -1.3805 -0.7309
 5814TIP3   OH239076   1.662   0.708   0.508  0.0941 -0.3741  0.8071
 5814TIP3    H139077   1.689   0.774   0.444  1.1488 -0.8914  0.6965
 5814TIP3    H239078   1.630   0.759   0.583  0.2025  0.2493  0.4399
 5815TIP3   OH239079   1.313   1.686   8.608 -0.3842  0.5405 -0.2707
 5815TIP3    H139080   1.251   1.756   8.586 -2.1236 -0.9228 -0.2346
 5815TIP3    H239081   1.259   1.608   8.617  1.1522 -0.3538  2.1868
 5816TIP3   OH239082   0.767   0.215   0.612 -0.5495 -0.3338  0.0193
 5816TIP3    H139083   0.690   0.184   0.564 -0.9014 -1.0545  1.0257
 5816TIP3    H239084   0.770   0.162   0.691  1.2731 -0.6714 -0.2162
 5817TIP3   OH239085   2.328   1.047   7.996 -0.1882 -0.3337 -0.7008
 5817TIP3    H139086   2.378   0.969   8.023 -1.4836 -0.7284  0.6470
 5817TIP3    H239087   2.364   1.118   8.050  0.2753 -0.1945 -1.1818
 5818TIP3   OH239088   5.928   0.032   0.428 -0.9311  0.5968  0.0419
 5818TIP3    H139089   5.933   0.108   0.485 -0.6635  1.7253 -1.4276
 5818TIP3    H239090   5.866  -0.027   0.471 -0.6201  1.3305  1.5459
 5819TIP3   OH239091   5.860   4.571   6.309  0.4838  0.0006 -0.4861
 5819TIP3    H139092   5.895   4.607   6.228  2.9254  1.6644  1.1636
 5819TIP3    H239093   5.833   4.648   6.359 -0.6222 -0.9653  0.4385
 5820TIP3   OH239094   5.770   0.425   6.898 -0.2355 -0.1292 -0.3555
 5820TIP3    H139095   5.741   0.370   6.825  1.0599 -0.3588 -0.7134
 5820TIP3    H239096   5.816   0.365   6.957 -1.2215  0.0580  0.6656
 5821TIP3   OH239097   4.793   1.170   7.322 -0.0260  0.1600 -0.1684
 5821TIP3    H139098   4.853   1.192   7.251  1.4190  0.7751  1.1799
 5821TIP3    H239099   4.755   1.086   7.296  0.0566  0.6094 -1.8820
 5822TIP3   OH239100   0.062   6.671   8.310  0.4467 -0.5647  0.3612
 5822TIP3    H139101   0.155   6.659   8.329  0.7129  0.1554 -0.4339
 5822TIP3    H239102   0.041   6.756   8.347 -0.4381 -1.6081  2.4080
 5823TIP3   OH239103   3.897   5.774   7.786 -0.0344  0.1752 -0.9215
 5823TIP3    H139104   3.944   5.704   7.832 -0.5981 -0.4611 -1.2811
 5823TIP3    H239105   3.865   5.831   7.856  0.2233 -0.0598 -0.6052
 5824TIP3   OH239106   2.955   2.251   8.341  1.1828 -0.0626 -0.2102
 5824TIP3    H139107   2.962   2.156   8.338 -0.9995 -0.2376 -1.9061
 5824TIP3    H239108   2.882   2.268   8.401 -0.4898  0.3277 -2.2587
 5825TIP3   OH239109   3.104   1.786   7.437  0.2632 -0.0936  0.1772
 5825TIP3    H139110   3.054   1.863   7.466 -0.8367 -0.4522 -0.6748
 5825TIP3    H239111   3.060   1.712   7.478  0.3167 -0.3885 -0.2857
 5826TIP3   OH239112   4.726   1.108   7.829  0.5081 -0.4572 -0.2851
 5826TIP3    H139113   4.769   1.086   7.746 -1.0516  0.0328 -1.2722
 5826TIP3    H239114   4.661   1.038   7.841  0.3661 -0.2352  0.2587
 5827TIP3   OH239115   6.187   4.441   1.421 -0.0075 -0.0753  0.3952
 5827TIP3    H139116   6.181   4.423   1.327  1.7852 -0.7737  0.3787
 5827TIP3    H239117   6.103   4.482   1.443 -0.9088 -0.9079 -1.2762
 5828TIP3   OH239118   5.097   6.714   7.234  0.0867  0.2345  0.0300
 5828TIP3    H139119   5.085   6.739   7.326 -0.0044  0.2598  0.0112
 5828TIP3    H239120   5.152   6.783   7.198  2.5728 -1.2441  0.7812
 5829TIP3   OH239121   5.195   0.708   0.700  0.4247  0.1094 -0.1241
 5829TIP3    H139122   5.219   0.637   0.759 -0.7492  0.9038  1.3863
 5829TIP3    H239123   5.186   0.785   0.756 -0.7102  0.9191 -1.3403
 5830TIP3   OH239124   0.918   3.520   6.271 -0.1848 -0.1313  0.1880
 5830TIP3    H139125   1.005   3.521   6.310  0.0559  0.7241 -0.3288
 5830TIP3    H239126   0.933   3.537   6.178 -0.7951 -1.5117 -0.1757
 5831TIP3   OH239127   6.518   5.542   7.378  0.7979  0.0029 -0.3418
 5831TIP3    H139128   6.447   5.536   7.314  1.2965 -0.8390 -0.8395
 5831TIP3    H239129   6.493   5.614   7.436 -0.6353 -0.5072 -0.2878
 5832TIP3   OH239130   4.786   4.422   6.594  0.1005 -0.1174  0.1432
 5832TIP3    H139131   4.857   4.361   6.613  0.4121 -0.2228 -1.2665
 5832TIP3    H239132   4.744   4.386   6.516 -2.2045 -0.6411  1.5311
 5833TIP3   OH239133   0.951   1.075   0.837 -0.1894  0.1986 -0.0316
 5833TIP3    H139134   0.955   1.035   0.750  2.0797 -0.1456  0.1808
 5833TIP3    H239135   0.954   1.002   0.898  0.1858  0.5227  0.3455
 5834TIP3   OH239136   4.052   6.188   7.428  0.5061 -0.0079 -0.3072
 5834TIP3    H139137   4.039   6.094   7.433 -0.4461  0.1847  1.4991
 5834TIP3    H239138   4.118   6.207   7.495  0.3276  0.6637 -0.3140
 5835TIP3   OH239139   6.619   3.905   1.621  0.3680 -0.6491 -0.4185
 5835TIP3    H139140   6.587   3.896   1.532  1.5998  0.3122 -0.9831
 5835TIP3    H239141   6.713   3.917   1.612  0.3310  0.9581  0.8984
 5836TIP3   OH239142   4.372   0.781   6.947  0.2068  1.2705  0.4913
 5836TIP3    H139143   4.292   0.826   6.920  0.1758  1.1816  0.4341
 5836TIP3    H239144   4.374   0.702   6.894 -0.4064  0.5609  1.4918
 5837TIP3   OH239145   3.858   1.447   7.081 -0.0777 -0.0763  0.3757
 5837TIP3    H139146   3.851   1.354   7.101  2.0818 -0.2464  0.5943
 5837TIP3    H239147   3.849   1.453   6.986 -0.6753 -0.4453  0.4078
 5838TIP3   OH239148   1.892   4.390   6.969  0.6344 -0.5700 -0.3266
 5838TIP3    H139149   1.951   4.355   6.902  1.3410 -1.1323  0.5657
 5838TIP3    H239150   1.854   4.468   6.929  0.8090 -1.0562 -1.4946
 5839TIP3   OH239151   3.509   6.094   1.779  0.3210  0.1663 -0.2336
 5839TIP3    H139152   3.579   6.029   1.775 -1.0770 -1.6990  2.2321
 5839TIP3    H239153   3.429   6.043   1.770 -0.8101  1.7181  0.6389
 5840TIP3   OH239154   6.184   6.293   1.127 -0.3196 -0.0417  0.0851
 5840TIP3    H139155   6.148   6.246   1.052 -2.0361  3.0683 -1.2247
 5840TIP3    H239156   6.116   6.286   1.194 -0.2311 -0.0773  0.1713
 5841TIP3   OH239157   5.261   4.032   8.325 -0.1090  0.3061  0.1993
 5841TIP3    H139158   5.302   4.110   8.287  0.7186  0.9120  2.2167
 5841TIP3    H239159   5.316   3.960   8.296  1.8628  0.9980  1.9791
 5842TIP3   OH239160   4.653   4.575   0.605 -0.0362 -0.1038  0.2115
 5842TIP3    H139161   4.594   4.649   0.616  2.1692  2.0234 -1.2841
 5842TIP3    H239162   4.733   4.601   0.649  0.9958 -1.3079 -0.8682
 5843TIP3   OH239163   3.676   0.232   0.204  0.5990  0.1523  0.4147
 5843TIP3    H139164   3.723   0.205   0.125  1.1072 -1.4546  1.2304
 5843TIP3    H239165   3.649   0.322   0.186 -0.0275 -0.4427 -1.9289
 5844TIP3   OH239166   2.316   4.934   6.933  0.6507  0.2090 -0.1943
 5844TIP3    H139167   2.283   4.920   6.845  2.1764 -0.0743 -0.7436
 5844TIP3    H239168   2.389   4.995   6.923 -0.2369  1.5957  1.1076
 5845TIP3   OH239169   5.962   1.782   0.074  0.1513  0.1738 -0.1074
 5845TIP3    H139170   5.872   1.804   0.048  0.3650 -0.4945 -1.5132
 5845TIP3    H239171   5.954   1.694   0.111 -0.0349  0.8327  1.4845
 5846TIP3   OH239172   4.935   6.606   0.687  0.1981  0.0171  0.4422
 5846TIP3    H139173   4.953   6.694   0.655 -0.0498 -0.4435 -1.0450
 5846TIP3    H239174   5.018   6.576   0.725  0.9652  0.0371 -1.1729
 5847TIP3   OH239175   0.927   4.643   8.138  0.1116  0.4422 -0.2366
 5847TIP3    H139176   0.937   4.632   8.233  2.1384  2.0167 -0.2074
 5847TIP3    H239177   0.850   4.699   8.129 -0.7946 -0.6449  0.3725
 5848TIP3   OH239178   4.016   0.688   1.883  0.5767  0.0164 -0.6288
 5848TIP3    H139179   3.984   0.621   1.943  0.6816  1.6643  1.3610
 5848TIP3    H239180   3.977   0.665   1.799 -1.0393 -1.3845  0.4413
 5849TIP3   OH239181   2.119   5.108   0.784  0.2204  0.5821  0.1963
 5849TIP3    H139182   2.199   5.130   0.736 -0.4386 -0.4133 -1.4422
 5849TIP3    H239183   2.124   5.159   0.864  2.3321  0.7928 -0.0296
 5850TIP3   OH239184   3.128   3.209   0.141  0.1035 -0.2368  0.1821
 5850TIP3    H139185   3.100   3.267   0.070  1.3022 -0.5099 -0.5607
 5850TIP3    H239186   3.159   3.268   0.209  1.0920  0.0262 -0.4697
 5851TIP3   OH239187   5.031   6.056   7.601 -0.1609 -0.0293  0.2962
 5851TIP3    H139188   4.974   5.983   7.575  0.1172 -0.2206  0.2130
 5851TIP3    H239189   4.974   6.133   7.600 -0.6047 -0.3390  0.9776
 5852TIP3   OH239190   0.219   5.570   1.766  0.8502  0.0989  0.5376
 5852TIP3    H139191   0.302   5.525   1.749  0.4659 -0.4900  0.1672
 5852TIP3    H239192   0.159   5.533   1.702 -0.3932 -1.4366  2.4699
 5853TIP3   OH239193   4.327   5.119   2.172  0.2909  0.0477 -0.1896
 5853TIP3    H139194   4.422   5.119   2.188  0.2636  1.6377  0.1485
 5853TIP3    H239195   4.316   5.064   2.094  1.5511  0.3145 -0.5880
 5854TIP3   OH239196   0.385   5.996   7.762  0.5725 -0.0557 -0.1316
 5854TIP3    H139197   0.399   6.055   7.836  2.5403 -0.7116  0.0746
 5854TIP3    H239198   0.293   5.970   7.770  0.8745 -0.6402  2.4983
 5855TIP3   OH239199   6.535   5.998   0.173 -0.2704 -0.2489 -0.6188
 5855TIP3    H139200   6.570   5.909   0.185  1.7473  0.6435  0.5736
 5855TIP3    H239201   6.583   6.032   0.097  0.4651  0.4831  0.1499
 5856TIP3   OH239202   1.576   5.730   7.750  0.1348 -0.2168 -0.0070
 5856TIP3    H139203   1.607   5.820   7.757  1.1534 -0.3761 -1.8418
 5856TIP3    H239204   1.505   5.724   7.814  2.1651  0.9312  2.5272
 5857TIP3   OH239205   1.177   3.472   0.335 -0.7100  0.2459  0.1042
 5857TIP3    H139206   1.169   3.504   0.425  0.6533 -1.9876  1.1050
 5857TIP3    H239207   1.269   3.486   0.313 -0.6291 -0.8573 -0.2842
 5858TIP3   OH239208   0.032   4.825   7.558  0.3810  0.5176 -0.1171
 5858TIP3    H139209  -0.000   4.845   7.646 -0.6767  0.7488 -0.5374
 5858TIP3    H239210   0.127   4.818   7.567  0.4542  2.2987  0.6905
 5859TIP3   OH239211   4.774   0.374   7.128 -0.3714  0.4082 -0.1706
 5859TIP3    H139212   4.784   0.427   7.049  0.1655  0.9365  0.2404
 5859TIP3    H239213   4.691   0.402   7.165 -0.9021 -0.2488 -0.8419
 5860TIP3   OH239214   0.139   3.576   6.985 -0.2808 -0.9898 -0.7225
 5860TIP3    H139215   0.133   3.622   7.068  1.3553  1.3122 -1.7806
 5860TIP3    H239216   0.050   3.543   6.969 -0.5216 -1.9768  2.1020
 5861TIP3   OH239217   4.305   0.745   7.858  0.0328  0.0050 -0.3757
 5861TIP3    H139218   4.305   0.737   7.762 -1.5561 -1.2507 -0.3020
 5861TIP3    H239219   4.226   0.700   7.886 -1.6415  3.5702  1.3137
 5862TIP3   OH239220   6.826   5.102   7.919  0.3437 -0.0255 -0.5881
 5862TIP3    H139221   6.810   5.011   7.944 -0.6970 -0.2259 -1.8135
 5862TIP3    H239222   6.738   5.140   7.908  0.7583  1.1250 -0.1120
 5863TIP3   OH239223   5.381   6.722   1.271  0.7495 -0.1107  0.4084
 5863TIP3    H139224   5.382   6.634   1.308  0.4304 -0.8584 -1.2839
 5863TIP3    H239225   5.292   6.754   1.289 -0.2050 -1.4064 -1.7451
 5864TIP3   OH239226   0.592   0.561   2.209 -0.2071 -0.5607  0.6445
 5864TIP3    H139227   0.562   0.652   2.217  2.1881  0.3130  0.5568
 5864TIP3    H239228   0.572   0.521   2.293  1.2350  0.9200  1.7535
 5865TIP3   OH239229   6.427   2.276   8.494 -0.0772 -1.0417 -0.3009
 5865TIP3    H139230   6.433   2.268   8.399  0.1634 -1.6469 -0.2416
 5865TIP3    H239231   6.438   2.370   8.512 -1.7105 -0.6882 -0.9720
 5866TIP3   OH239232   0.077   0.206   7.300  0.1518 -0.5353 -0.0646
 5866TIP3    H139233   0.104   0.146   7.370  0.2485  0.4624  0.7794
 5866TIP3    H239234   0.119   0.171   7.221  0.5230 -1.3451  0.4733
 5867TIP3   OH239235   5.957   2.327   7.083 -0.1261  0.0486 -0.2315
 5867TIP3    H139236   5.986   2.276   7.008 -0.2217 -2.7181  1.4613
 5867TIP3    H239237   5.874   2.366   7.056 -0.7922 -1.9113 -1.2056
 5868TIP3   OH239238   6.240   5.913   7.367  0.0887  0.2450 -0.0874
 5868TIP3    H139239   6.263   5.835   7.417  0.1584 -0.4366 -1.1690
 5868TIP3    H239240   6.146   5.904   7.352 -0.0314  0.7100  0.3439
 5869TIP3   OH239241   1.083   0.495   2.535 -0.2993  0.2238 -0.2764
 5869TIP3    H139242   1.154   0.558   2.541  0.0280 -0.0273 -1.2855
 5869TIP3    H239243   1.118   0.415   2.575 -1.0627  0.9205  1.9369
 5870TIP3   OH239244   5.523   1.177   0.342 -0.0258 -0.1023 -0.0216
 5870TIP3    H139245   5.487   1.160   0.429  0.4901 -0.7624  0.0654
 5870TIP3    H239246   5.448   1.207   0.291 -0.4768 -0.3912  0.4583
 5871TIP3   OH239247   0.384   4.220   7.197 -0.4118 -0.4834 -0.2885
 5871TIP3    H139248   0.387   4.133   7.237 -0.1400 -0.4194 -0.1664
 5871TIP3    H239249   0.334   4.208   7.116  1.0433 -1.1042 -1.1375
 5872TIP3   OH239250   4.645   4.493   1.016  0.4064 -0.3662  0.4922
 5872TIP3    H139251   4.566   4.537   0.984  0.6055  0.0342  0.5442
 5872TIP3    H239252   4.650   4.413   0.964 -0.2480 -0.5906  0.7603
 5873TIP3   OH239253   3.792   0.247   0.911 -0.0069  0.1440 -0.2073
 5873TIP3    H139254   3.699   0.268   0.903  0.5056  2.2401 -1.3635
 5873TIP3    H239255   3.811   0.195   0.833  0.6322  3.4520 -2.4620
 5874TIP3   OH239256   6.078   2.772   7.552 -0.3407 -0.4707  0.0593
 5874TIP3    H139257   6.035   2.696   7.514 -0.3500 -1.4082  1.8217
 5874TIP3    H239258   6.026   2.847   7.524  0.8742 -0.7888 -3.4982
 5875TIP3   OH239259   0.698   2.715   0.809 -0.5259  0.0707 -0.4775
 5875TIP3    H139260   0.608   2.689   0.790 -0.0650 -0.8666 -1.4124
 5875TIP3    H239261   0.749   2.635   0.803  0.4741  0.6874 -0.5079
 5876TIP3   OH239262   3.501   3.778   0.081 -0.1961  0.1864  0.5394
 5876TIP3    H139263   3.499   3.866   0.120 -0.9515  0.5657 -0.3240
 5876TIP3    H239264   3.522   3.793  -0.011 -0.2578 -0.5549  0.3971
 5877TIP3   OH239265   1.138   0.396   8.718  0.0556 -0.2048 -0.1745
 5877TIP3    H139266   1.156   0.355   8.803 -1.6068 -0.8941 -0.1135
 5877TIP3    H239267   1.050   0.433   8.727  1.0759  2.5558 -0.5751
 5878TIP3   OH239268   1.118   6.489   8.334  0.0479  0.2678 -0.1463
 5878TIP3    H139269   1.186   6.423   8.322  0.3682  0.6352 -0.3789
 5878TIP3    H239270   1.154   6.568   8.294 -1.3283 -0.0417 -2.1437
 5879TIP3   OH239271   3.815   3.978   1.878 -0.0995  0.3195  0.0525
 5879TIP3    H139272   3.887   4.028   1.840 -0.6500  2.0029  1.1333
 5879TIP3    H239273   3.799   4.020   1.962 -2.0354 -0.3190  0.0409
 5880TIP3   OH239274   1.738   3.852   2.044  0.3665 -0.0006  0.1580
 5880TIP3    H139275   1.737   3.947   2.036 -0.4975  0.0004  0.1615
 5880TIP3    H239276   1.694   3.834   2.127 -0.8112 -0.4449 -0.5331
 5881TIP3   OH239277   0.298   2.192   1.105  0.2674 -0.8065 -0.0030
 5881TIP3    H139278   0.361   2.132   1.066  1.1719 -0.7915  1.3606
 5881TIP3    H239279   0.266   2.245   1.032  0.7164 -1.8213 -0.9475
 5882TIP3   OH239280   1.120   1.304   0.719 -0.0532  0.2194 -0.6986
 5882TIP3    H139281   1.052   1.361   0.682  0.1995  1.9160  1.3024
 5882TIP3    H239282   1.071   1.231   0.757 -1.0358  2.2320  2.1990
 5883TIP3   OH239283   4.957   2.629   7.043 -0.5113  0.0189  0.3272
 5883TIP3    H139284   5.026   2.628   6.977 -0.1552 -1.3670  0.6684
 5883TIP3    H239285   4.996   2.585   7.119 -0.9212  1.5543  1.4610
 5884TIP3   OH239286   5.847   4.760   7.964 -0.2054  0.0128  0.1460
 5884TIP3    H139287   5.898   4.761   8.045 -0.4616  1.2881  0.3140
 5884TIP3    H239288   5.839   4.668   7.942  0.6942 -0.3016  1.0521
 5885TIP3   OH239289   2.519   1.854   0.880 -0.0641  0.5025 -0.0959
 5885TIP3    H139290   2.546   1.903   0.957 -1.0647  0.8364  0.0622
 5885TIP3    H239291   2.600   1.817   0.844  0.4383  0.5538  0.9647
 5886TIP3   OH239292   6.030   5.383   1.934 -0.1418 -0.0648  0.4076
 5886TIP3    H139293   5.971   5.454   1.912 -0.8800 -0.8333 -0.1565
 5886TIP3    H239294   6.117   5.415   1.908 -0.2741  1.0834  1.2774
 5887TIP3   OH239295   5.124   0.649   1.613  0.1365 -0.3693 -0.2478
 5887TIP3    H139296   5.054   0.707   1.643  0.3605 -0.5986  0.7695
 5887TIP3    H239297   5.083   0.563   1.608  0.1845 -0.3918 -0.2553
 5888TIP3   OH239298   2.855   2.749   0.036  0.5828 -0.0363  0.2284
 5888TIP3    H139299   2.815   2.772  -0.048  0.8764  1.7690  0.5388
 5888TIP3    H239300   2.783   2.748   0.098  0.6919  0.9823  0.3784
 5889TIP3   OH239301   5.394   2.977   6.783  0.3386 -0.5803  1.1169
 5889TIP3    H139302   5.434   2.961   6.697 -0.1979 -0.6960  0.8886
 5889TIP3    H239303   5.340   3.055   6.771  2.7498  1.3899  2.1614
 5890TIP3   OH239304   3.604   3.822   7.688 -0.6321  0.2250 -0.0203
 5890TIP3    H139305   3.602   3.915   7.712  2.2055  0.0676  1.2489
 5890TIP3    H239306   3.687   3.791   7.723 -0.3522 -2.2379 -2.5852
 5891TIP3   OH239307   3.252   2.185   7.535 -0.2645  0.7133  0.4449
 5891TIP3    H139308   3.275   2.098   7.567 -1.0925 -0.4121 -1.7531
 5891TIP3    H239309   3.328   2.212   7.483 -0.5910  0.6462 -0.0712
 5892TIP3   OH239310   1.089   1.511   2.701 -0.9361 -0.0929  0.2607
 5892TIP3    H139311   1.060   1.573   2.634 -1.1327  0.1015  0.5240
 5892TIP3    H239312   1.028   1.523   2.773 -0.1325  0.4244  0.8796
 5893TIP3   OH239313   0.383   2.297   6.737 -0.9770 -0.4359 -0.1667
 5893TIP3    H139314   0.315   2.257   6.791  0.3866 -2.9714 -0.1727
 5893TIP3    H239315   0.420   2.366   6.793 -0.8229 -1.7838  1.4901
 5894TIP3   OH239316   1.449   3.564   0.305  0.0262  0.3072 -0.4236
 5894TIP3    H139317   1.493   3.576   0.389  1.0713 -0.4238 -0.8571
 5894TIP3    H239318   1.459   3.648   0.260  1.9476 -0.1664 -0.9528
 5895TIP3   OH239319   6.184   5.842   1.144  0.1819  0.2727  0.1137
 5895TIP3    H139320   6.103   5.791   1.148  0.1702  0.3102  3.5296
 5895TIP3    H239321   6.229   5.811   1.065 -1.2999 -2.7109  0.3141
 5896TIP3   OH239322   6.297   1.040   2.056  0.1470  0.3722 -0.5672
 5896TIP3    H139323   6.389   1.041   2.032  0.4546 -2.0576  0.2199
 5896TIP3    H239324   6.296   1.058   2.150 -0.4651  2.8838 -0.9735
 5897TIP3   OH239325   4.732   0.881   0.066  0.0545  0.0568  0.6792
 5897TIP3    H139326   4.779   0.851   0.143  0.2823  0.7240  0.8054
 5897TIP3    H239327   4.800   0.917   0.009 -0.0321 -0.9935 -0.1082
 5898TIP3   OH239328   1.273   6.229   0.283  0.4996 -0.7689 -0.6523
 5898TIP3    H139329   1.360   6.191   0.297  0.3299 -0.9852 -0.1352
 5898TIP3    H239330   1.248   6.200   0.195  0.2012 -2.2425 -0.1167
 5899TIP3   OH239331   2.260   2.640   8.689 -0.3660  0.3554 -0.3395
 5899TIP3    H139332   2.255   2.547   8.712  0.1325  0.1870 -0.8972
 5899TIP3    H239333   2.239   2.643   8.596  1.0052  0.6334 -0.6581
 5900TIP3   OH239334   3.074   5.703   6.772  0.5095 -0.5544  0.0246
 5900TIP3    H139335   2.983   5.691   6.798  0.0482 -1.4311 -1.8956
 5900TIP3    H239336   3.071   5.761   6.696  1.6084 -0.1535  0.2602
 5901TIP3   OH239337   0.403   1.904   2.355 -0.1115  0.3664  0.1595
 5901TIP3    H139338   0.483   1.868   2.393 -1.4891 -2.7735  0.3545
 5901TIP3    H239339   0.333   1.867   2.408 -1.7786  1.8870 -0.8889
 5902TIP3   OH239340   6.369   6.143   7.332 -0.1539 -0.4071  0.0810
 5902TIP3    H139341   6.410   6.114   7.251  0.0917 -1.4886  0.5705
 5902TIP3    H239342   6.314   6.069   7.359  0.8619 -0.6491  1.6229
 5903TIP3   OH239343   3.559   0.355   8.416  0.5588 -0.4318  0.5421
 5903TIP3    H139344   3.480   0.408   8.429 -0.0655 -0.3168 -2.8424
 5903TIP3    H239345   3.534   0.267   8.443 -1.5498 -0.8540 -2.3100
 5904TIP3   OH239346   1.099   0.040   0.381  0.5318 -0.2521 -0.2535
 5904TIP3    H139347   1.181  -0.001   0.352 -0.0045 -1.3742 -0.2481
 5904TIP3    H239348   1.120   0.133   0.387  1.7996 -0.5068 -0.2924
 5905TIP3   OH239349   2.215   1.231   0.039 -0.0452  0.3449 -0.5292
 5905TIP3    H139350   2.233   1.288   0.113 -0.8951  0.4480 -0.4005
 5905TIP3    H239351   2.178   1.152   0.077  0.4716 -0.0237 -0.7667
 5906TIP3   OH239352   2.555   0.038   7.306  0.0683  0.1270 -0.1952
 5906TIP3    H139353   2.631   0.091   7.282  1.0373 -0.6447  1.0077
 5906TIP3    H239354   2.558   0.035   7.402 -2.4088  1.3655 -0.0075
 5907TIP3   OH239355   3.681   1.135   1.878 -0.3891 -0.2187  0.3884
 5907TIP3    H139356   3.666   1.213   1.931 -0.1558 -1.0657  1.7571
 5907TIP3    H239357   3.595   1.113   1.842 -0.6370  0.1164  0.7753
 5908TIP3   OH239358   3.004   2.053   8.683  0.2747 -0.4311  0.0864
 5908TIP3    H139359   3.078   2.012   8.636  1.5518 -1.4328  2.7516
 5908TIP3    H239360   2.990   1.996   8.759 -2.3698  0.5326  0.4197
 5909TIP3   OH239361   6.145   1.302   2.039  0.4500 -0.0951  0.2467
 5909TIP3    H139362   6.227   1.333   2.077  1.1932  0.4539 -1.6995
 5909TIP3    H239363   6.144   1.208   2.060  1.0508  0.0827  1.1670
 5910TIP3   OH239364   2.972   3.186   1.866  0.0782  0.3878 -0.6585
 5910TIP3    H139365   3.008   3.270   1.837 -1.1795  1.4375  0.6554
 5910TIP3    H239366   2.962   3.135   1.786  1.4953  1.2212 -1.4105
 5911TIP3   OH239367   2.506   3.663   1.661 -0.6582 -0.0323  0.0253
 5911TIP3    H139368   2.423   3.702   1.634 -1.1274 -1.2210 -0.3342
 5911TIP3    H239369   2.489   3.631   1.750 -1.2028 -1.8391 -0.6631
 5912TIP3   OH239370   6.116   2.074   8.663  0.2887 -0.2585  0.4224
 5912TIP3    H139371   6.189   2.126   8.697  0.9988 -1.5347  0.9468
 5912TIP3    H239372   6.050   2.076   8.733  0.2714  0.0084  0.3995
 5913TIP3   OH239373   1.735   3.159   1.445 -0.3933  0.1567 -0.0443
 5913TIP3    H139374   1.739   3.199   1.532  1.5925  1.0336 -0.4811
 5913TIP3    H239375   1.782   3.076   1.455 -1.5941 -0.5296  0.0742
 5914TIP3   OH239376   5.353   0.541   8.439 -0.4585  0.3258  0.3633
 5914TIP3    H139377   5.360   0.629   8.401 -0.6698  0.6967  1.1755
 5914TIP3    H239378   5.369   0.554   8.532 -1.1950 -0.3943  0.6001
 5915TIP3   OH239379   4.144   2.883   6.836  0.6678 -0.3223 -0.6013
 5915TIP3    H139380   4.088   2.807   6.828  0.0425 -0.0838  1.1647
 5915TIP3    H239381   4.123   2.936   6.759 -0.2817 -1.0299 -0.8507
 5916TIP3   OH239382   4.481   0.511   1.703  0.2097 -0.1274 -0.4594
 5916TIP3    H139383   4.403   0.519   1.758 -0.0150 -2.9710 -0.1949
 5916TIP3    H239384   4.447   0.497   1.615  0.3426 -1.8390 -0.2720
 5917TIP3   OH239385   2.106   4.533   1.232 -0.1206  0.0305  0.1513
 5917TIP3    H139386   2.071   4.515   1.320  0.0540 -3.3827 -0.3636
 5917TIP3    H239387   2.031   4.522   1.174 -0.3868  2.9127 -0.2113
 5918TIP3   OH239388   1.714   4.813   8.705 -0.8712  0.3966 -0.5658
 5918TIP3    H139389   1.644   4.771   8.654  0.0960 -0.1382 -1.4832
 5918TIP3    H239390   1.787   4.819   8.644  0.5878 -0.9487  0.9712
 5919TIP3   OH239391   3.889   0.254   7.746  0.0925  0.4309  0.1754
 5919TIP3    H139392   3.799   0.285   7.737  0.3985  1.1964 -0.3041
 5919TIP3    H239393   3.919   0.243   7.656  0.2998 -0.3700  0.3361
 5920TIP3   OH239394   2.643   4.864   6.411 -0.4056 -0.0832  0.2998
 5920TIP3    H139395   2.652   4.792   6.348  1.8019  0.1105  0.2934
 5920TIP3    H239396   2.698   4.934   6.375 -2.6386  1.7204  0.2288
 5921TIP3   OH239397   1.340   0.086   8.052 -0.1796 -0.3248  0.1471
 5921TIP3    H139398   1.417   0.096   8.107  0.9881 -2.2271 -1.0323
 5921TIP3    H239399   1.375   0.064   7.965 -2.0275 -1.2179 -0.4273
 5922TIP3   OH239400   4.809   0.838   0.335 -0.1223 -0.0771 -0.3410
 5922TIP3    H139401   4.726   0.883   0.353  0.8536  2.0023 -0.7344
 5922TIP3    H239402   4.811   0.766   0.398 -1.7983  0.3923  0.3135
 5923TIP3   OH239403   4.205   1.955   0.971  0.1605 -0.7189  0.3408
 5923TIP3    H139404   4.184   1.904   1.049 -1.1892 -0.3450  0.2514
 5923TIP3    H239405   4.300   1.945   0.960  0.1114 -2.2110  1.0071
 5924TIP3   OH239406   1.762   6.250   0.784  0.4573  0.3341 -0.0227
 5924TIP3    H139407   1.674   6.214   0.769 -1.6297  4.5747  0.3786
 5924TIP3    H239408   1.797   6.200   0.858 -2.7601  0.0446  1.4809
 5925TIP3   OH239409   3.427   3.809   6.941  0.0546 -0.5455 -0.3306
 5925TIP3    H139410   3.469   3.775   7.020  0.0155 -0.3916 -0.2445
 5925TIP3    H239411   3.500   3.830   6.883  0.2943  2.5791  0.9390
 5926TIP3   OH239412   0.067   0.131   2.027 -0.0760  0.2017  0.3372
 5926TIP3    H139413   0.037   0.222   2.030 -0.8730 -0.0541  0.3342
 5926TIP3    H239414   0.158   0.137   1.998 -0.5110  0.9315 -0.9930
 5927TIP3   OH239415   4.328   5.010   8.571 -0.5291 -0.5640 -0.2351
 5927TIP3    H139416   4.418   5.004   8.542 -0.8803 -0.3758 -1.3995
 5927TIP3    H239417   4.328   4.968   8.657  0.6245 -0.7275 -0.3020
 5928TIP3   OH239418   0.354   1.068   8.298 -0.1638  0.1709 -0.3255
 5928TIP3    H139419   0.321   1.028   8.379 -0.3036  0.6860 -0.1196
 5928TIP3    H239420   0.438   1.026   8.283  0.1822  0.5517  0.4691
 5929TIP3   OH239421   2.286   5.636   8.036 -0.0378 -0.0249  0.2341
 5929TIP3    H139422   2.194   5.660   8.021  0.1379  1.5609  1.2972
 5929TIP3    H239423   2.286   5.541   8.037 -2.0568 -0.1130  2.0329
 5930TIP3   OH239424   2.715   2.632   8.215  0.0718 -1.2952 -0.2102
 5930TIP3    H139425   2.634   2.600   8.177 -0.1360 -0.0999 -0.8122
 5930TIP3    H239426   2.688   2.697   8.280  0.5178 -1.6424  0.3390
 5931TIP3   OH239427   0.820   0.122   7.267 -0.2441 -0.4638  0.1008
 5931TIP3    H139428   0.802   0.160   7.180  0.1459 -2.8111 -1.0739
 5931TIP3    H239429   0.898   0.168   7.297 -0.0319 -0.0145 -1.0678
 5932TIP3   OH239430   6.343   6.761   7.753  0.4598 -0.0646 -0.3008
 5932TIP3    H139431   6.304   6.843   7.783 -0.4725 -1.4040  2.5380
 5932TIP3    H239432   6.416   6.788   7.697  0.0928  2.6819  0.3837
 5933TIP3   OH239433   1.103   1.421   0.443 -0.0520 -0.2475  0.1944
 5933TIP3    H139434   1.140   1.333   0.438  0.4531 -0.0828  0.9085
 5933TIP3    H239435   1.148   1.470   0.375  2.3582  0.4030  2.1312
 5934TIP3   OH239436   5.093   1.859   1.355 -0.2703  0.2760  0.2405
 5934TIP3    H139437   5.038   1.800   1.407 -1.9426  0.8793 -0.7329
 5934TIP3    H239438   5.057   1.852   1.267  2.1761 -0.3551 -0.7765
 5935TIP3   OH239439   0.392   3.565   8.021 -0.0797  0.9208  0.1172
 5935TIP3    H139440   0.334   3.489   8.024  0.5344  0.3648 -1.1535
 5935TIP3    H239441   0.424   3.566   7.931  2.7611  0.5145  1.0183
 5936TIP3   OH239442   2.427   1.733   7.099  0.1758 -0.4418 -0.0636
 5936TIP3    H139443   2.485   1.694   7.165 -0.9656  1.4215  2.1795
 5936TIP3    H239444   2.481   1.800   7.056 -0.3664  1.8599  2.5803
 5937TIP3   OH239445   3.885   0.221   8.427 -0.3506  0.5025  0.5156
 5937TIP3    H139446   3.867   0.165   8.502 -2.7859 -0.6299 -0.8149
 5937TIP3    H239447   3.804   0.222   8.376  1.0997  1.4168 -1.9968
 5938TIP3   OH239448   5.735   5.920   1.204  0.5790  0.0160  0.7264
 5938TIP3    H139449   5.675   5.846   1.196  1.6645 -0.8543  0.3626
 5938TIP3    H239450   5.686   5.985   1.253 -0.0425 -1.3604  2.0175
 5939TIP3   OH239451   5.983   6.304   7.650 -0.3491  0.5153 -0.2583
 5939TIP3    H139452   6.075   6.298   7.624 -0.4931  1.0707 -0.9535
 5939TIP3    H239453   5.984   6.297   7.745  0.3030 -0.6604 -0.3304
 5940TIP3   OH239454   4.331   0.239   0.522  0.0705 -0.2748 -0.1121
 5940TIP3    H139455   4.313   0.264   0.431 -0.8077  0.0822  0.1480
 5940TIP3    H239456   4.424   0.215   0.522  0.1762  0.0694 -1.0245
 5941TIP3   OH239457   5.252   3.471   0.876  0.0652  0.0360 -0.0156
 5941TIP3    H139458   5.255   3.376   0.862  2.0076  0.2182 -1.1987
 5941TIP3    H239459   5.165   3.497   0.845 -0.7767 -1.4125  0.9905
 5942TIP3   OH239460   1.299   6.052   7.889  0.2760  0.1282  0.3113
 5942TIP3    H139461   1.324   6.105   7.814 -1.9628  1.5866  0.4845
 5942TIP3    H239462   1.204   6.064   7.896 -0.1683 -2.9674  1.1303
 5943TIP3   OH239463   4.918   0.777   7.672  0.8626  0.2432  0.1873
 5943TIP3    H139464   4.841   0.813   7.628  0.6933  0.9528  1.0252
 5943TIP3    H239465   4.903   0.682   7.674  0.1697  0.3464  0.0316
 5944TIP3   OH239466   1.201   0.457   7.400  0.0339  0.5908  0.5333
 5944TIP3    H139467   1.189   0.370   7.440 -1.8990 -0.0789 -1.3026
 5944TIP3    H239468   1.264   0.501   7.457  1.5479 -2.2121  1.2100
 5945TIP3   OH239469   2.272   5.708   6.769 -0.7499 -0.7363  0.3105
 5945TIP3    H139470   2.349   5.766   6.771 -3.1091  2.7372  0.4462
 5945TIP3    H239471   2.258   5.690   6.676 -0.0684 -1.0091  0.2529
 5946TIP3   OH239472   5.348   4.361   7.029  0.1464  0.0352  0.3838
 5946TIP3    H139473   5.422   4.314   6.992 -0.1735  1.6218 -2.5672
 5946TIP3    H239474   5.274   4.337   6.973 -0.6196  1.7650  0.5880
 5947TIP3   OH239475   2.078   0.630   8.222 -0.6264  0.5828  0.2916
 5947TIP3    H139476   2.129   0.612   8.144 -2.9806  0.4707 -1.3222
 5947TIP3    H239477   2.137   0.610   8.295  1.1143 -0.9004 -1.4271
 5948TIP3   OH239478   4.234   1.804   8.495 -0.2460 -0.3197  0.2925
 5948TIP3    H139479   4.240   1.739   8.565  1.2721 -1.9545 -1.2304
 5948TIP3    H239480   4.302   1.868   8.515  0.3150 -0.8868  0.2316
 5949TIP3   OH239481   1.031   1.121   7.519 -0.1649 -0.1455  0.2963
 5949TIP3    H139482   1.080   1.181   7.463  0.4269 -0.9280 -0.0462
 5949TIP3    H239483   1.097   1.061   7.553 -0.7969 -0.8404  0.3251
 5950TIP3   OH239484   5.742   2.418   0.623 -0.9238  0.0732 -0.4695
 5950TIP3    H139485   5.769   2.347   0.564 -1.2434  0.9501 -1.7069
 5950TIP3    H239486   5.825   2.453   0.658 -0.6654  0.2459 -1.2421
 5951TIP3   OH239487   2.655   4.273   8.111  0.2313 -0.3659 -0.4804
 5951TIP3    H139488   2.628   4.293   8.021 -0.7604  1.2165  0.1199
 5951TIP3    H239489   2.748   4.294   8.114  0.3144 -0.6041 -1.1742
 5952TIP3   OH239490   2.855   0.381   1.425 -0.0012 -0.0058  0.5743
 5952TIP3    H139491   2.854   0.420   1.338  1.2460 -0.1213  0.5018
 5952TIP3    H239492   2.783   0.424   1.471  0.1454  0.9898 -0.1062
 5953TIP3   OH239493   6.648   2.648   6.912 -0.2525  0.0697 -0.9959
 5953TIP3    H139494   6.666   2.575   6.971 -0.8662 -0.6003 -1.6304
 5953TIP3    H239495   6.690   2.623   6.830 -0.9517  0.1587 -1.3878
 5954TIP3   OH239496   6.230   5.743   0.885  0.1628 -0.1822  0.2353
 5954TIP3    H139497   6.210   5.665   0.834 -1.1762  0.5183 -0.3732
 5954TIP3    H239498   6.231   5.815   0.821  0.4144  0.4356  0.9111
 5955TIP3   OH239499   5.865   6.256   1.001  0.5778 -0.0076  0.2249
 5955TIP3    H139500   5.932   6.200   0.962 -0.1919 -0.3089 -0.6992
 5955TIP3    H239501   5.792   6.254   0.939 -0.8805 -0.8827  1.8633
 5956TIP3   OH239502   5.022   5.130   7.036  0.5731 -0.4050  0.1509
 5956TIP3    H139503   5.026   5.113   7.130  1.7348  1.0935  0.4299
 5956TIP3    H239504   4.979   5.054   6.999  1.4157 -1.7206  1.7334
 5957TIP3   OH239505   1.039   6.135   7.958 -0.1242  0.3698 -0.2889
 5957TIP3    H139506   1.037   6.131   8.053  3.3006  1.3784 -0.0067
 5957TIP3    H239507   1.035   6.229   7.938 -0.4693  0.1875 -1.1147
 5958TIP3   OH239508   1.324   0.681   7.834 -0.1158  0.3374 -0.0956
 5958TIP3    H139509   1.300   0.770   7.861  0.3906  0.0462  1.4119
 5958TIP3    H239510   1.397   0.657   7.891 -0.0859 -0.9607 -0.6432
 5959TIP3   OH239511   3.125   2.123   1.385  0.1031 -0.3616 -0.0389
 5959TIP3    H139512   3.122   2.042   1.335  0.2074  0.8106 -2.0481
 5959TIP3    H239513   3.210   2.162   1.362 -0.0910  0.4907  0.6245
 5960TIP3   OH239514   1.542   5.686   8.188 -0.2536 -0.3171 -0.3144
 5960TIP3    H139515   1.542   5.595   8.159 -1.2606  0.0856 -1.6348
 5960TIP3    H239516   1.451   5.715   8.178  0.3261  1.2649 -1.3471
 5961TIP3   OH239517   2.255   6.369   1.818  0.1452  0.0437 -0.0982
 5961TIP3    H139518   2.298   6.419   1.887  0.5756 -0.5056  0.0400
 5961TIP3    H239519   2.326   6.318   1.777 -0.3739 -0.9326  0.1893
 5962TIP3   OH239520   2.150   3.204   8.309  0.7914  0.0274  0.4342
 5962TIP3    H139521   2.088   3.133   8.325 -0.3683  0.9002 -0.0683
 5962TIP3    H239522   2.233   3.160   8.292  0.2119 -1.1836  0.6472
 5963TIP3   OH239523   2.544   1.925   6.922  0.0422  0.4981  0.0017
 5963TIP3    H139524   2.547   1.884   6.836 -2.3293 -0.2187  0.1730
 5963TIP3    H239525   2.482   1.997   6.912  1.1744  1.5834  0.6734
 5964TIP3   OH239526   3.842   4.451   0.273 -0.3580 -0.4242 -0.2399
 5964TIP3    H139527   3.752   4.462   0.244 -0.6378 -0.8433  0.4484
 5964TIP3    H239528   3.893   4.505   0.213 -1.1203  0.2683 -0.2798
 5965TIP3   OH239529   5.241   1.088   8.188 -0.3627 -0.5195 -0.0325
 5965TIP3    H139530   5.270   1.179   8.200 -1.3395 -0.1703 -0.1548
 5965TIP3    H239531   5.163   1.081   8.243 -2.0939 -0.3251 -2.2696
 5966TIP3   OH239532   3.472   4.808   6.148 -0.2778 -0.1320 -0.2722
 5966TIP3    H139533   3.396   4.762   6.112 -0.2784 -0.6763  0.3898
 5966TIP3    H239534   3.451   4.900   6.139 -0.7252 -0.2706 -0.7011
 5967TIP3   OH239535   5.677   4.358   6.383 -0.0467 -0.3013  0.2467
 5967TIP3    H139536   5.740   4.300   6.426  0.8465  0.1380 -0.4200
 5967TIP3    H239537   5.732   4.423   6.339 -0.9734  0.0714 -0.3813
 5968TIP3   OH239538   6.139   6.569   8.297 -0.2114 -0.4564 -0.0700
 5968TIP3    H139539   6.125   6.662   8.276 -1.6735 -0.6759 -0.1422
 5968TIP3    H239540   6.053   6.529   8.287  0.1551 -1.6045  1.1285
 5969TIP3   OH239541   5.162   3.596   8.275 -0.4223  0.5821  0.3786
 5969TIP3    H139542   5.226   3.637   8.217  0.6498  0.9226  1.7644
 5969TIP3    H239543   5.154   3.506   8.241  0.7828  0.5390  0.1546
 5970TIP3   OH239544   6.698   2.435   7.064  0.1513  0.4535 -0.6246
 5970TIP3    H139545   6.736   2.361   7.017  0.2140  0.5959 -0.7982
 5970TIP3    H239546   6.752   2.442   7.143 -0.1800 -0.0118 -0.3492
 5971TIP3   OH239547   3.221   2.076   0.177  0.8980  0.1621  0.3473
 5971TIP3    H139548   3.141   2.111   0.216  0.9000  0.6777 -0.0994
 5971TIP3    H239549   3.201   1.985   0.158  1.0143 -0.2080  1.8791
 5972TIP3   OH239550   4.806   0.534   7.698  0.6100  0.4137  0.6225
 5972TIP3    H139551   4.811   0.568   7.787 -2.0195 -0.1202  1.0526
 5972TIP3    H239552   4.822   0.440   7.706 -0.6349  0.1914  0.7266
 5973TIP3   OH239553   3.576   5.678   1.230  0.7290 -0.3584 -0.2191
 5973TIP3    H139554   3.531   5.760   1.249  1.6344 -0.1495  1.1777
 5973TIP3    H239555   3.547   5.618   1.299 -0.1668 -1.3325 -1.4034
 5974TIP3   OH239556   4.669   6.736   6.660  0.1104 -0.1324  0.1709
 5974TIP3    H139557   4.665   6.707   6.751  2.5954 -0.0978  0.3792
 5974TIP3    H239558   4.603   6.685   6.615 -0.6075 -0.7527  1.8521
 5975TIP3   OH239559   3.688   4.999   8.647 -0.1110 -0.0259 -0.3656
 5975TIP3    H139560   3.744   5.064   8.689  1.6118 -0.9981 -1.0872
 5975TIP3    H239561   3.646   5.047   8.575 -0.1308  0.6761  0.1051
 5976TIP3   OH239562   5.205   0.324   8.518 -0.4067 -0.3054  0.1106
 5976TIP3    H139563   5.280   0.381   8.534 -0.2753 -0.7191  1.0378
 5976TIP3    H239564   5.135   0.383   8.488 -0.0224  0.2252  0.2462
 5977TIP3   OH239565   6.004   2.499   1.563  0.0505 -0.5693 -0.3223
 5977TIP3    H139566   5.960   2.461   1.639 -0.7541  0.3364 -0.3230
 5977TIP3    H239567   6.094   2.516   1.593 -0.7568  1.6133  1.1054
 5978TIP3   OH239568   0.573   4.378   6.848  0.6745  0.5811  0.3710
 5978TIP3    H139569   0.665   4.353   6.839  0.4420  0.1420 -0.8829
 5978TIP3    H239570   0.550   4.420   6.766 -0.2131  0.8236  0.7247
 5979TIP3   OH239571   0.246   5.211   7.955 -0.2686  0.6650  1.1189
 5979TIP3    H139572   0.267   5.248   8.040  0.8732 -0.7910  1.5172
 5979TIP3    H239573   0.151   5.215   7.949 -0.3427  1.0045  2.3618
 5980TIP3   OH239574   3.522   0.542   7.323 -0.1032  0.0452 -0.3300
 5980TIP3    H139575   3.573   0.496   7.257 -0.8649  0.0377 -0.9257
 5980TIP3    H239576   3.518   0.481   7.397  1.1501  0.2405 -0.0759
 5981TIP3   OH239577   1.597   0.709   6.460  0.5323 -0.0534  0.2162
 5981TIP3    H139578   1.663   0.639   6.459 -0.6391 -1.2253  1.4677
 5981TIP3    H239579   1.611   0.753   6.544 -0.0897 -0.1462  0.3746
 5982TIP3   OH239580   6.233   4.928   1.814  0.1265  0.2782  0.5404
 5982TIP3    H139581   6.209   4.997   1.875 -0.0345  0.0109  0.7789
 5982TIP3    H239582   6.150   4.892   1.783  0.0205  2.8384 -2.6739
 5983TIP3   OH239583   5.636   5.472   8.570 -0.1546 -0.1551  0.7004
 5983TIP3    H139584   5.710   5.523   8.604  0.8427 -0.9028 -0.2658
 5983TIP3    H239585   5.626   5.399   8.632  0.2620 -0.3323  0.5642
 5984TIP3   OH239586   4.569   4.754   6.382 -0.4618 -0.7091  0.1100
 5984TIP3    H139587   4.635   4.818   6.410  0.3479 -1.9089  1.0355
 5984TIP3    H239588   4.486   4.800   6.393  0.0890  0.1273  0.9613
 5985TIP3   OH239589   1.836   3.482   1.395 -0.4753  0.3398  0.3048
 5985TIP3    H139590   1.836   3.533   1.314 -1.8812  0.1596  0.1723
 5985TIP3    H239591   1.856   3.392   1.367 -1.8378  0.1032  0.0082
 5986TIP3   OH239592   1.734   4.160   7.032  0.1901  0.2516 -0.2115
 5986TIP3    H139593   1.792   4.231   7.007  1.5233 -0.9016 -0.5380
 5986TIP3    H239594   1.665   4.202   7.083  1.6778  1.6165  0.7977
 5987TIP3   OH239595   1.797   6.496   7.362 -0.4045  0.0570  0.1215
 5987TIP3    H139596   1.816   6.454   7.446  0.3894 -0.1972 -0.1724
 5987TIP3    H239597   1.706   6.472   7.343  0.2267 -2.1758 -0.3730
 5988TIP3   OH239598   4.233   5.375   6.809  0.3363  0.4477  0.6903
 5988TIP3    H139599   4.174   5.308   6.774 -0.9119  1.0774  1.5378
 5988TIP3    H239600   4.263   5.424   6.731  0.8771 -0.7528  0.1213
 5989TIP3   OH239601   6.743   5.489   6.689 -0.0721 -0.2294 -0.3449
 5989TIP3    H139602   6.778   5.543   6.618  0.3813 -0.9560 -0.6898
 5989TIP3    H239603   6.782   5.524   6.769 -0.4250  0.4663 -0.4754
 5990TIP3   OH239604   0.775   0.748   7.872 -0.4269 -0.3273  0.4837
 5990TIP3    H139605   0.825   0.690   7.930 -0.3874  0.2226  1.0115
 5990TIP3    H239606   0.837   0.816   7.846  0.2027 -1.7511 -2.0193
 5991TIP3   OH239607   1.947   6.032   1.920 -0.0296  0.1291  0.5204
 5991TIP3    H139608   2.006   6.090   1.873  1.4367 -1.8460 -0.2381
 5991TIP3    H239609   1.859   6.060   1.894  0.6035  1.9169  0.1559
 5992TIP3   OH239610   2.728   4.116   0.805  0.0475  0.1772 -0.1173
 5992TIP3    H139611   2.714   4.148   0.716 -1.5416  1.6085  0.5915
 5992TIP3    H239612   2.640   4.103   0.839  0.6207 -2.8174  0.4494
 5993TIP3   OH239613   5.167   0.451   7.179  0.2630  0.4991  0.0140
 5993TIP3    H139614   5.170   0.356   7.193  1.2757  0.6174  0.7022
 5993TIP3    H239615   5.087   0.479   7.223 -0.4143 -0.1135 -0.7877
 5994TIP3   OH239616   1.052   1.712   7.307 -0.2487 -0.3081  0.0125
 5994TIP3    H139617   0.999   1.790   7.294 -0.0847 -0.2821 -0.5567
 5994TIP3    H239618   1.053   1.698   7.401 -1.0014 -0.1236  0.0563
 5995TIP3   OH239619   3.210   6.082   1.132  0.2508  0.5966  0.0145
 5995TIP3    H139620   3.265   6.129   1.069  1.2280 -0.9159 -0.3209
 5995TIP3    H239621   3.268   6.064   1.206 -0.0747 -0.1375  0.0982
 5996TIP3   OH239622   1.064   5.735   7.063  0.3356 -0.2110  0.1727
 5996TIP3    H139623   1.057   5.678   6.987  0.3290 -1.2095  0.8986
 5996TIP3    H239624   0.989   5.711   7.118  0.5646  0.2148  0.6818
 5997TIP3   OH239625   0.134   0.721   1.752 -0.2330  0.2829 -0.1434
 5997TIP3    H139626   0.112   0.631   1.731 -2.8855  0.7892  0.1588
 5997TIP3    H239627   0.139   0.723   1.848 -0.2157  0.4643 -0.1467
 5998TIP3   OH239628   4.422   1.065   7.317  0.4028 -0.6925 -0.4255
 5998TIP3    H139629   4.465   1.147   7.339 -1.0592 -0.2044  0.7771
 5998TIP3    H239630   4.402   1.025   7.402 -2.0566 -0.5693 -0.8620
 5999TIP3   OH239631   3.479   3.885   8.587 -0.1330  0.7605  0.2295
 5999TIP3    H139632   3.561   3.836   8.577 -0.1261  0.7618  0.2843
 5999TIP3    H239633   3.423   3.850   8.517 -0.3412  0.2426  0.6459
 6000TIP3   OH239634   3.864   4.486   0.540 -0.0946  0.9328 -0.6343
 6000TIP3    H139635   3.954   4.475   0.570 -0.8798 -2.5460  1.0074
 6000TIP3    H239636   3.868   4.475   0.445  1.1287  0.0148 -0.4969
 6001TIP3   OH239637   5.747   4.207   8.434  0.0928  0.0224  0.2500
 6001TIP3    H139638   5.743   4.294   8.472  2.2128  0.5250 -0.4962
 6001TIP3    H239639   5.753   4.222   8.339  0.9952 -0.8729  0.1382
 6002TIP3   OH239640   2.400   5.154   7.395  0.4157 -0.0441  0.1737
 6002TIP3    H139641   2.400   5.207   7.315  0.0635 -0.9637 -0.4709
 6002TIP3    H239642   2.373   5.067   7.365  0.1381 -0.3753  1.3301
 6003TIP3   OH239643   4.075   6.590   6.884 -0.4824 -0.6570  0.3562
 6003TIP3    H139644   4.166   6.579   6.858 -0.8050 -0.0691 -1.1699
 6003TIP3    H239645   4.076   6.651   6.957  0.2671  0.5563 -0.6251
 6004TIP3   OH239646   3.756   4.252   1.503  0.6524  0.3165  0.0905
 6004TIP3    H139647   3.825   4.227   1.564  0.2794 -1.3938 -0.1391
 6004TIP3    H239648   3.696   4.305   1.555 -0.4612 -2.3325  1.7459
 6005TIP3   OH239649   1.080   4.567   1.911  0.4049  0.4256 -0.1976
 6005TIP3    H139650   1.136   4.497   1.945 -0.1958 -0.3350 -0.7160
 6005TIP3    H239651   1.135   4.613   1.848  0.8323  0.4565  0.2012
 6006TIP3   OH239652   6.154   2.070   0.956  0.0985 -0.4111  0.0654
 6006TIP3    H139653   6.133   2.135   1.024 -0.5841 -1.0934  0.5233
 6006TIP3    H239654   6.237   2.099   0.920 -0.2396  0.7778  0.1980
 6007TIP3   OH239655   5.746   0.631   1.580  0.5699 -0.1245  0.1147
 6007TIP3    H139656   5.798   0.703   1.615 -0.3385  0.7971 -0.3890
 6007TIP3    H239657   5.740   0.568   1.651  2.1382 -0.1322  0.2684
 6008TIP3   OH239658   1.256   6.458   7.417 -0.1067 -0.0533  0.4424
 6008TIP3    H139659   1.215   6.439   7.333 -0.7830  1.5566  0.3572
 6008TIP3    H239660   1.183   6.464   7.479 -0.0679  2.3775  0.3810
 6009TIP3   OH239661   3.849   1.479   2.154 -0.0597  0.5115  0.6102
 6009TIP3    H139662   3.916   1.485   2.222 -0.8381 -1.1536  1.6055
 6009TIP3    H239663   3.777   1.534   2.185  0.6109  1.8993 -0.2156
 6010TIP3   OH239664   3.581   4.496   7.988  0.4816 -0.0850  0.1923
 6010TIP3    H139665   3.674   4.513   8.001  0.5303  1.4243 -1.8004
 6010TIP3    H239666   3.537   4.558   8.047  0.6975 -0.4672  0.7732
 6011TIP3   OH239667   4.443   3.368   8.503 -0.2741  0.1993 -0.2187
 6011TIP3    H139668   4.369   3.307   8.496  1.5684 -1.9552 -2.6439
 6011TIP3    H239669   4.502   3.326   8.565  0.6764 -0.1688 -1.3441
 6012TIP3   OH239670   6.083   0.040   0.833 -0.6168  0.1969 -0.3069
 6012TIP3    H139671   6.006  -0.001   0.874  1.1172 -1.5293  1.4472
 6012TIP3    H239672   6.138  -0.034   0.807  0.6252  1.3912 -1.1828
 6013TIP3   OH239673   3.848   6.300   1.515 -0.4419 -0.4296 -0.1470
 6013TIP3    H139674   3.886   6.227   1.564 -1.7518 -1.8038 -1.1092
 6013TIP3    H239675   3.824   6.263   1.431 -1.6051  1.0063 -0.4896
 6014TIP3   OH239676   4.243   0.594   1.155 -0.0668  0.1033 -0.1602
 6014TIP3    H139677   4.244   0.518   1.097 -1.2595 -0.0007 -0.0738
 6014TIP3    H239678   4.289   0.662   1.106  2.2249 -0.9940  0.2911
 6015TIP3   OH239679   3.053   1.497   7.524 -0.6239 -0.1133  0.1152
 6015TIP3    H139680   3.138   1.468   7.491  0.4650 -1.0024  3.3500
 6015TIP3    H239681   2.994   1.424   7.507  0.0333 -0.7550  0.5291
 6016TIP3   OH239682   5.467   5.525   6.517 -0.7215  0.5420 -0.5114
 6016TIP3    H139683   5.524   5.549   6.444 -0.2252  2.2947  0.3902
 6016TIP3    H239684   5.410   5.457   6.482  0.5495  0.2193 -2.0461
 6017TIP3   OH239685   2.775   5.082   7.650  0.0756  0.3250  0.1191
 6017TIP3    H139686   2.826   5.040   7.581  0.8697  0.0087  0.8750
 6017TIP3    H239687   2.713   5.014   7.678 -1.2384  0.9090 -1.2284
 6018TIP3   OH239688   4.874   1.995   7.461  0.7130 -0.1376 -0.8619
 6018TIP3    H139689   4.937   2.040   7.404  0.8176 -0.8500 -1.3250
 6018TIP3    H239690   4.804   1.968   7.402  0.5071 -0.3076 -0.5362
 6019TIP3   OH239691   6.713   0.162   0.155 -0.2719 -0.1675  0.2492
 6019TIP3    H139692   6.755   0.248   0.150 -0.3291 -0.1345  0.3326
 6019TIP3    H239693   6.781   0.105   0.190  0.6084 -0.7138 -2.1420
 6020TIP3   OH239694   2.516   1.783   0.008  0.3053 -0.0221 -0.0090
 6020TIP3    H139695   2.533   1.823   0.093  2.0247 -0.6369 -0.0282
 6020TIP3    H239696   2.523   1.855  -0.054  1.9021 -0.0540  0.1033
 6021TIP3   OH239697   5.659   6.438   1.256 -0.3661  0.2618 -0.0598
 6021TIP3    H139698   5.700   6.375   1.316 -0.0572  0.5800  0.0656
 6021TIP3    H239699   5.573   6.454   1.293  0.2306  1.3222  0.9505
 6022TIP3   OH239700   4.624   0.034   8.666  0.1300  0.2666  0.0796
 6022TIP3    H139701   4.665  -0.049   8.690 -1.3880 -0.0540  1.8152
 6022TIP3    H239702   4.566   0.012   8.593 -1.2696 -0.5539  1.3729
 6023TIP3   OH239703   2.332   5.698   0.987 -0.0655 -0.1779  0.3784
 6023TIP3    H139704   2.344   5.741   0.902 -1.2384 -2.4353 -1.0553
 6023TIP3    H239705   2.268   5.752   1.033 -2.0194 -0.6590 -1.6234
 6024TIP3   OH239706   3.280   4.706   0.188 -0.0229  0.0460 -0.3752
 6024TIP3    H139707   3.288   4.635   0.124  1.2901 -0.7298  0.6089
 6024TIP3    H239708   3.280   4.662   0.273  1.2601  1.2440  0.2771
 6025TIP3   OH239709   3.163   6.733   1.977  0.1402  0.2443  0.1816
 6025TIP3    H139710   3.106   6.712   2.050 -0.5250  1.5176  0.0543
 6025TIP3    H239711   3.246   6.757   2.018 -0.2665  1.0694  0.5349
 6026TIP3   OH239712   2.669   6.636   8.773 -0.2318 -0.0567 -0.2094
 6026TIP3    H139713   2.750   6.660   8.729 -0.0943  0.7160  0.4439
 6026TIP3    H239714   2.696   6.580   8.845 -0.5603 -2.3456 -1.7754
 6027TIP3   OH239715   1.253   2.477   7.861 -0.5934 -0.1559 -0.0583
 6027TIP3    H139716   1.271   2.516   7.775  4.9448 -0.0678  0.7825
 6027TIP3    H239717   1.265   2.550   7.922 -3.6146 -0.4280  1.0607
 6028TIP3   OH239718   2.958   5.654   6.352  1.0414  0.4097  0.5413
 6028TIP3    H139719   2.990   5.603   6.278  1.7054  0.7247  0.6040
 6028TIP3    H239720   2.881   5.607   6.382  0.8793  0.1669 -0.2219
 6029TIP3   OH239721   3.425   5.527   7.361  0.4428  0.0540  0.0607
 6029TIP3    H139722   3.355   5.590   7.371  0.3328 -0.2113  1.0315
 6029TIP3    H239723   3.398   5.472   7.288 -1.1383 -1.0193  1.3853
 6030TIP3   OH239724   2.527   0.162   7.062  0.1374  0.3060  0.2763
 6030TIP3    H139725   2.439   0.168   7.026  0.0311 -0.0143  0.4798
 6030TIP3    H239726   2.516   0.117   7.146  0.6434 -0.8496 -0.2476
 6031TIP3   OH239727   1.762   2.509   1.689  0.5803  0.3652  0.0479
 6031TIP3    H139728   1.700   2.475   1.754  0.9642 -0.0625  0.1995
 6031TIP3    H239729   1.745   2.603   1.686  0.9799  0.4950  1.2393
 6032TIP3   OH239730   1.444   2.986   1.593  0.1776  0.0475 -0.1444
 6032TIP3    H139731   1.529   3.006   1.554  0.9288  0.5384  1.6224
 6032TIP3    H239732   1.450   2.894   1.618 -0.9406 -0.7676 -2.6162
 6033TIP3   OH239733   2.703   1.340   0.601  0.2280  0.1228 -0.1953
 6033TIP3    H139734   2.668   1.253   0.583  1.2886 -0.2389 -0.5645
 6033TIP3    H239735   2.749   1.331   0.684 -1.3174  0.8390  0.7997
 6034TIP3   OH239736   1.687   4.116   1.997  0.1906 -0.1607  0.9249
 6034TIP3    H139737   1.708   4.175   1.924 -2.6287  0.4212  0.4801
 6034TIP3    H239738   1.660   4.174   2.068 -0.4786 -0.8354  1.2302
 6035TIP3   OH239739   5.162   2.905   0.717  0.0971  0.1495 -0.0936
 6035TIP3    H139740   5.123   2.868   0.796  1.0773 -0.8238 -0.0488
 6035TIP3    H239741   5.091   2.956   0.678 -0.0316  1.7487  2.0721
 6036TIP3   OH239742   2.347   1.460   1.091  0.2577 -0.3115  0.5390
 6036TIP3    H139743   2.298   1.379   1.080 -1.1571  0.7637 -1.8674
 6036TIP3    H239744   2.327   1.488   1.181  0.2213 -2.2377  1.1625
 6037TIP3   OH239745   3.379   3.125   1.159 -0.5093  0.5930  0.2953
 6037TIP3    H139746   3.362   3.093   1.248  1.4405  0.6523  0.7488
 6037TIP3    H239747   3.322   3.074   1.103 -1.0971 -0.1186  1.5008
 6038TIP3   OH239748   6.209   6.519   7.698 -0.1644 -0.3048  0.3918
 6038TIP3    H139749   6.187   6.521   7.791  0.1752  0.7370  0.4670
 6038TIP3    H239750   6.244   6.606   7.680  2.1645 -1.2735 -0.1297
 6039TIP3   OH239751   0.505   0.193   2.290  0.3266  0.3078 -0.0746
 6039TIP3    H139752   0.576   0.225   2.346  0.4461  2.2934 -1.2339
 6039TIP3    H239753   0.425   0.221   2.336  0.2621 -1.3354  0.8926
 6040TIP3   OH239754   3.593   0.967   1.060 -0.3885 -0.4087  0.3254
 6040TIP3    H139755   3.673   0.988   1.108 -1.2824 -0.0615  1.7182
 6040TIP3    H239756   3.546   0.905   1.117 -0.4955 -1.6862 -1.0871
 6041TIP3   OH239757   1.471   4.074   6.371  0.5904 -0.1539 -0.1603
 6041TIP3    H139758   1.450   4.143   6.307  0.3626  1.1597  1.2785
 6041TIP3    H239759   1.549   4.106   6.416  0.6689 -0.9941  0.3067
 6042TIP3   OH239760   3.876   6.710   1.250 -0.1589 -0.1626  0.0791
 6042TIP3    H139761   3.909   6.726   1.339  0.6978 -0.3293 -0.2002
 6042TIP3    H239762   3.901   6.787   1.200  0.9282 -0.8323 -0.4348
 6043TIP3   OH239763   5.038   6.688   2.046  0.0268  0.1147  0.0110
 6043TIP3    H139764   4.956   6.708   2.092 -0.7239  0.1236 -1.2725
 6043TIP3    H239765   5.010   6.651   1.963  1.3545 -0.4051 -0.2240
 6044TIP3   OH239766   2.505   3.901   8.711 -0.1472  0.0830 -0.9788
 6044TIP3    H139767   2.483   3.866   8.625  2.0064 -1.1180 -1.1219
 6044TIP3    H239768   2.550   3.983   8.693 -0.7686  0.4432 -0.9145
 6045TIP3   OH239769   2.879   1.693   7.672 -0.6496 -0.0914  0.4058
 6045TIP3    H139770   2.856   1.667   7.761 -0.3525 -1.4707  0.0958
 6045TIP3    H239771   2.949   1.633   7.646 -0.0109  0.9496 -0.3955
 6046TIP3   OH239772   3.474   0.482   0.152  0.5514 -0.3712 -0.0659
 6046TIP3    H139773   3.510   0.537   0.221  1.1888 -0.0731 -0.6214
 6046TIP3    H239774   3.381   0.474   0.173  0.3846  1.1346 -0.1119
 6047TIP3   OH239775   3.995   1.682   8.563 -0.2887  0.1899  0.4028
 6047TIP3    H139776   4.060   1.744   8.532  0.4117 -1.5463 -1.8858
 6047TIP3    H239777   4.046   1.605   8.589 -1.3083 -0.7377 -0.2270
 6048TIP3   OH239778   2.939   0.209   6.463 -0.5919  0.4533  0.1234
 6048TIP3    H139779   2.889   0.219   6.382  1.9292  0.6620 -1.5255
 6048TIP3    H239780   2.994   0.288   6.467  1.7480 -1.0676  0.1749
 6049TIP3   OH239781   1.162   4.889   6.692  0.5566 -0.6168  0.3000
 6049TIP3    H139782   1.131   4.931   6.773  1.1513  0.0500  0.1884
 6049TIP3    H239783   1.139   4.797   6.703  0.6016 -0.5284  1.2232
 6050TIP3   OH239784   1.179   2.082   0.458 -0.0159  0.7440 -0.8343
 6050TIP3    H139785   1.127   2.002   0.453  0.4730  0.3255  0.3688
 6050TIP3    H239786   1.115   2.152   0.448 -0.5407  0.2179 -1.2856
 6051TIP3   OH239787   1.721   6.234   1.680  0.0576  0.1427  0.2382
 6051TIP3    H139788   1.667   6.297   1.728  1.5913  1.9401 -0.2823
 6051TIP3    H239789   1.802   6.227   1.732  1.1139  0.9494 -1.2287
 6052TIP3   OH239790   1.697   5.682   7.280  0.8516  0.1836  0.9991
 6052TIP3    H139791   1.691   5.755   7.342 -0.8329  1.1058 -0.1594
 6052TIP3    H239792   1.746   5.717   7.206 -1.7829  0.9832 -0.5177
 6053TIP3   OH239793   3.426   4.980   7.059 -0.0512 -0.8714  0.3729
 6053TIP3    H139794   3.375   5.060   7.047  0.1742 -1.0457 -2.7508
 6053TIP3    H239795   3.452   4.981   7.151 -2.2478  1.2660  1.0798
 6054TIP3   OH239796   5.878   4.007   0.235 -0.0037 -0.1533 -0.2728
 6054TIP3    H139797   5.863   3.923   0.279 -0.2809  0.6550  1.2548
 6054TIP3    H239798   5.829   4.070   0.287 -0.6957  0.8291 -2.0317
 6055TIP3   OH239799   2.484   4.810   7.484 -0.4185 -0.4598  0.2638
 6055TIP3    H139800   2.528   4.874   7.539  1.1422 -0.9861 -0.3152
 6055TIP3    H239801   2.405   4.855   7.452  0.3404  0.9500  0.3326
 6056TIP3   OH239802   6.242   3.667   7.081  0.2406 -0.0686  0.0673
 6056TIP3    H139803   6.329   3.671   7.042  1.1685 -1.1078  1.9114
 6056TIP3    H239804   6.238   3.741   7.141  0.3802 -0.7363  0.9333
 6057TIP3   OH239805   1.489   1.704   8.143 -0.0532  0.2763 -0.4175
 6057TIP3    H139806   1.552   1.655   8.197  0.9596  1.4596 -0.4739
 6057TIP3    H239807   1.537   1.722   8.062 -0.3051  1.5687 -0.2907
 6058TIP3   OH239808   6.490   6.224   0.888 -0.5063 -0.0053 -0.3226
 6058TIP3    H139809   6.466   6.295   0.947  3.4842  2.3901 -1.2748
 6058TIP3    H239810   6.563   6.180   0.931  0.8964  0.2620 -2.3329
 6059TIP3   OH239811   2.933   4.514   7.657  0.8283  0.5982 -0.2456
 6059TIP3    H139812   2.930   4.503   7.752 -1.3965  0.6848 -0.2709
 6059TIP3    H239813   2.948   4.608   7.644  0.6558  0.6593  0.0065
 6060TIP3   OH239814   2.184   3.337   1.441  0.1593  0.2784  0.1130
 6060TIP3    H139815   2.132   3.258   1.428  1.7017 -1.1720  2.1020
 6060TIP3    H239816   2.267   3.319   1.395  0.4534  0.8317  0.4091
 6061TIP3   OH239817   5.458   4.844   1.363 -0.2032  0.3371  0.1405
 6061TIP3    H139818   5.509   4.772   1.400 -0.1404  1.6297  2.7191
 6061TIP3    H239819   5.372   4.837   1.405 -0.4779  1.2725 -0.2381
 6062TIP3   OH239820   6.774   5.438   1.939  0.0447 -0.3519 -0.4820
 6062TIP3    H139821   6.713   5.398   1.877 -1.6063  2.1200 -0.5964
 6062TIP3    H239822   6.807   5.515   1.893  0.0811  0.6106  1.0940
 6063TIP3   OH239823   1.713   5.314   1.400 -0.4857  0.5283  0.2261
 6063TIP3    H139824   1.667   5.232   1.418 -0.4951  0.3335 -0.6784
 6063TIP3    H239825   1.661   5.381   1.446 -0.6527  0.0770  0.7033
 6064TIP3   OH239826   4.242   5.636   0.809  0.6067 -0.2024  0.4911
 6064TIP3    H139827   4.233   5.557   0.755  1.1381  0.2579 -0.2840
 6064TIP3    H239828   4.274   5.604   0.894 -1.8836 -1.1429  1.1657
 6065TIP3   OH239829   3.644   0.357   7.737 -0.8426  0.0940  0.6374
 6065TIP3    H139830   3.563   0.352   7.788 -0.6900  1.0491  0.9883
 6065TIP3    H239831   3.616   0.390   7.651 -0.9879 -0.7340  0.3640
 6066TIP3   OH239832   0.402   1.051   1.355 -0.1646  1.0498  0.3085
 6066TIP3    H139833   0.358   1.007   1.428 -1.3330 -0.2096 -1.0844
 6066TIP3    H239834   0.341   1.044   1.282 -0.3573  4.8569 -0.1326
 6067TIP3   OH239835   2.498   6.125   7.828 -0.0475  0.6515 -0.1288
 6067TIP3    H139836   2.432   6.093   7.766 -0.9940 -0.7254  1.4901
 6067TIP3    H239837   2.465   6.211   7.855 -0.5835  0.4709 -0.1912
 6068TIP3   OH239838   5.998   0.003   1.452  0.6447 -0.4746  0.0176
 6068TIP3    H139839   5.990  -0.092   1.449  0.1563 -0.5771  2.4767
 6068TIP3    H239840   6.080   0.019   1.499  0.3954  0.2823  0.2160
 6069TIP3   OH239841   6.825   4.508   7.564 -0.5670  0.1064 -0.1128
 6069TIP3    H139842   6.855   4.508   7.654 -1.4162 -1.6743  0.2148
 6069TIP3    H239843   6.738   4.547   7.567  0.3186  2.2542 -0.5702
 6070TIP3   OH239844   0.073   5.679   2.617 -0.0754 -0.2222 -0.3891
 6070TIP3    H139845   0.118   5.748   2.666 -0.2181  0.1934 -0.8350
 6070TIP3    H239846   0.014   5.639   2.681 -0.2129  0.2725 -0.2014
 6071TIP3   OH239847   2.440   6.396   7.904 -0.1874 -0.1726  0.1174
 6071TIP3    H139848   2.381   6.471   7.909 -1.5522 -1.1918 -0.0783
 6071TIP3    H239849   2.464   6.390   7.812  0.4067  0.3707  0.2319
 6072TIP3   OH239850   6.145   4.217   6.981  0.1012  0.4136 -0.1321
 6072TIP3    H139851   6.201   4.237   6.906  0.0564 -1.7481 -0.8025
 6072TIP3    H239852   6.205   4.185   7.049 -0.0905  0.2492 -0.0375
 6073TIP3   OH239853   2.962   6.033   2.124 -0.3043 -0.1517 -0.2538
 6073TIP3    H139854   2.975   6.089   2.048  0.4789  1.2291  0.8545
 6073TIP3    H239855   2.882   6.066   2.166  0.7041  0.8728  0.9616
 6074TIP3   OH239856   1.452   2.025   0.548  0.7548  0.0841  0.3931
 6074TIP3    H139857   1.479   1.956   0.489  0.5776  1.1909 -1.0382
 6074TIP3    H239858   1.363   2.047   0.521  0.0112 -0.5434  2.2044
 6075TIP3   OH239859   4.941   1.383   8.115  0.9108  0.5428  0.0181
 6075TIP3    H139860   4.931   1.320   8.044  1.0147 -2.2395  2.2819
 6075TIP3    H239861   4.856   1.383   8.160  1.3952  0.8281  0.9743
 6076TIP3   OH239862   4.438   6.045   0.698  0.0512  0.3653  0.0919
 6076TIP3    H139863   4.416   6.025   0.607 -0.7651 -0.8370  0.5212
 6076TIP3    H239864   4.383   6.120   0.720 -0.1797  0.3018 -0.2544
 6077TIP3   OH239865   1.547   6.183   8.381 -0.1943  0.0064 -0.5882
 6077TIP3    H139866   1.509   6.136   8.307 -1.0110  0.0593 -0.2117
 6077TIP3    H239867   1.631   6.139   8.396  0.9384  1.2601 -2.7904
 6078TIP3   OH239868   2.703   5.759   0.234  0.4881  0.0293 -0.3949
 6078TIP3    H139869   2.677   5.750   0.142  0.0117  0.0576 -0.2696
 6078TIP3    H239870   2.696   5.670   0.269  1.6875 -0.1683 -0.6393
 6079TIP3   OH239871   4.194   1.988   0.709  0.4589 -0.2466 -0.2519
 6079TIP3    H139872   4.274   2.038   0.727 -1.1034  1.6404  2.0376
 6079TIP3    H239873   4.183   1.933   0.787 -0.9792  0.2553 -0.0860
 6080TIP3   OH239874   5.331   6.133   7.143  0.3574 -0.2069 -0.1841
 6080TIP3    H139875   5.284   6.212   7.118 -0.4861 -0.7586 -0.3737
 6080TIP3    H239876   5.263   6.065   7.150  1.2258 -1.2865 -1.5319
 6081TIP3   OH239877   1.554   1.396   2.557  0.7280  0.2977  0.3545
 6081TIP3    H139878   1.612   1.326   2.586 -1.0883 -1.0199  1.0108
 6081TIP3    H239879   1.613   1.462   2.520  2.4999 -2.0231 -1.3444
 6082TIP3   OH239880   5.804   0.207   7.600  0.4559 -0.0874  0.8981
 6082TIP3    H139881   5.897   0.195   7.622  0.4382 -1.1738  0.4530
 6082TIP3    H239882   5.773   0.118   7.580 -0.3917  0.4248 -0.1070
 6083TIP3   OH239883   0.088   1.921   7.709 -0.2573  0.0211 -0.2318
 6083TIP3    H139884   0.098   1.848   7.649 -0.1543  1.1199 -1.6023
 6083TIP3    H239885  -0.005   1.944   7.704 -0.0692  0.7005 -0.6903
 6084TIP3   OH239886   6.240   3.839   0.336 -0.4527 -0.4905  0.4328
 6084TIP3    H139887   6.176   3.783   0.379  0.3721 -1.9980 -0.2303
 6084TIP3    H239888   6.267   3.901   0.403 -1.6397 -0.6664  1.0906
 6085TIP3   OH239889   5.166   1.245   6.814  0.4697 -0.0726  0.1019
 6085TIP3    H139890   5.117   1.250   6.896  1.8516  0.9636  0.9098
 6085TIP3    H239891   5.245   1.197   6.836  1.6698  1.6965 -0.1658
 6086TIP3   OH239892   4.357   2.917   8.325 -0.6558  0.0242  0.0753
 6086TIP3    H139893   4.434   2.943   8.375  1.0977 -0.3007 -2.2638
 6086TIP3    H239894   4.307   2.998   8.314  0.0729  0.5403  0.4978
 6087TIP3   OH239895   4.707   3.441   7.587 -0.2254 -0.1819  0.4174
 6087TIP3    H139896   4.796   3.475   7.595 -0.6233  0.5686  2.1060
 6087TIP3    H239897   4.709   3.388   7.507  1.0900  1.7797 -0.9512
 6088TIP3   OH239898   5.267   6.269   8.586  0.2658 -0.1305  0.1424
 6088TIP3    H139899   5.174   6.289   8.575  0.8906  3.7722  0.3453
 6088TIP3    H239900   5.287   6.302   8.674  1.8475 -0.8690  0.0744
 6089TIP3   OH239901   4.448   3.181   7.365  0.2529  0.0714  0.6269
 6089TIP3    H139902   4.478   3.091   7.373  2.2567  0.7548  1.5972
 6089TIP3    H239903   4.369   3.186   7.419  0.5350 -0.9302  1.1479
 6090TIP3   OH239904   6.559   2.135   6.957  0.0922  0.3150  0.3466
 6090TIP3    H139905   6.650   2.137   6.986  0.1384 -0.4587  0.2735
 6090TIP3    H239906   6.563   2.151   6.862  0.1897 -0.1578  0.2702
 6091TIP3   OH239907   0.971   1.834   0.332 -0.2088 -0.4740  0.5376
 6091TIP3    H139908   0.957   1.832   0.426 -0.8303 -2.1314  0.4591
 6091TIP3    H239909   0.883   1.831   0.294  0.0430 -2.6339 -0.0356
 6092TIP3   OH239910   0.902   3.555   8.536 -0.3311 -0.0857  0.2833
 6092TIP3    H139911   0.839   3.597   8.477  0.3340 -0.8885 -1.0670
 6092TIP3    H239912   0.854   3.540   8.616 -1.4554  0.5294 -0.2486
 6093TIP3   OH239913   4.841   1.559   0.415  0.1110 -0.4645  0.0713
 6093TIP3    H139914   4.751   1.550   0.382 -0.8102 -0.0602  2.3034
 6093TIP3    H239915   4.876   1.635   0.369 -1.1825  0.1951  0.1440
 6094TIP3   OH239916   2.684   5.610   8.803  0.1441 -0.1034  0.2062
 6094TIP3    H139917   2.599   5.568   8.787  0.9693 -0.9930 -2.2480
 6094TIP3    H239918   2.733   5.546   8.855 -0.8661  0.7337  2.3263
 6095TIP3   OH239919   1.960   5.449   8.736 -0.1973  0.9020  0.0150
 6095TIP3    H139920   1.914   5.398   8.670 -0.4784 -0.1740  0.9974
 6095TIP3    H239921   1.904   5.526   8.751 -0.8055  0.4694 -0.0331
 6096TIP3   OH239922   2.639   4.030   8.232 -0.2246  0.2208  0.2759
 6096TIP3    H139923   2.550   4.049   8.262 -0.3079  1.1176 -0.4941
 6096TIP3    H239924   2.649   4.082   8.153  0.6719 -0.5897 -0.1587
 6097TIP3   OH239925   3.009   3.305   0.881 -0.3651  0.0047  0.0893
 6097TIP3    H139926   3.048   3.225   0.846 -0.3281 -0.0184  0.1838
 6097TIP3    H239927   3.025   3.301   0.975 -0.2373  0.1934  0.0749
 6098TIP3   OH239928   1.495   6.557   1.168 -0.5772  0.6190  0.7580
 6098TIP3    H139929   1.526   6.468   1.150 -1.9102  0.0533  1.1217
 6098TIP3    H239930   1.450   6.551   1.252  0.7625  2.0204  1.6222
 6099TIP3   OH239931   6.042   3.911   8.773 -0.0692 -0.3036  0.3146
 6099TIP3    H139932   6.065   4.000   8.801 -0.2733 -0.1038 -0.1487
 6099TIP3    H239933   5.946   3.909   8.776 -0.1704  0.1003 -1.4915
 6100TIP3   OH239934   0.265   3.427   2.480  0.2246  0.6387 -0.7345
 6100TIP3    H139935   0.186   3.377   2.466  1.3246 -1.3595 -0.1370
 6100TIP3    H239936   0.299   3.398   2.564  1.8072  1.1251 -1.1489
 6101TIP3   OH239937   3.140   3.698   1.852  0.3992  0.3505 -0.4884
 6101TIP3    H139938   3.202   3.661   1.915 -0.6393  2.2304  1.7713
 6101TIP3    H239939   3.055   3.692   1.895 -0.4485  1.1966 -1.9538
 6102TIP3   OH239940   0.679   5.501   1.666  0.2781  0.1192  0.0847
 6102TIP3    H139941   0.726   5.514   1.748 -2.1723  1.2780  1.4420
 6102TIP3    H239942   0.720   5.561   1.605 -0.1907  2.0981  1.5964
 6103TIP3   OH239943   2.750   5.093   1.136  0.1470 -0.4364 -0.3365
 6103TIP3    H139944   2.784   5.179   1.111  0.7986 -0.6696 -0.2505
 6103TIP3    H239945   2.808   5.031   1.093 -0.3848 -0.8416 -0.4834
 6104TIP3   OH239946   4.960   1.226   7.902 -0.6402 -0.0910  0.2554
 6104TIP3    H139947   4.979   1.286   7.830 -0.1490 -0.1606  0.3259
 6104TIP3    H239948   4.894   1.166   7.867 -0.4823 -0.0554 -0.0996
 6105TIP3   OH239949   6.593   3.193   7.233  0.0572  0.1100  0.1595
 6105TIP3    H139950   6.670   3.202   7.290  0.0041 -2.4256  0.7468
 6105TIP3    H239951   6.522   3.170   7.293 -0.5915 -0.0169 -0.6447
 6106TIP3   OH239952   1.290   4.395   7.821 -0.3680 -0.4611 -0.5444
 6106TIP3    H139953   1.366   4.448   7.844 -0.8272  0.5490 -1.2689
 6106TIP3    H239954   1.294   4.388   7.725 -0.9467 -0.7614 -0.5495
 6107TIP3   OH239955   1.791   1.087   8.092  0.0217 -0.3268 -0.3728
 6107TIP3    H139956   1.877   1.056   8.065  0.8957 -0.1273  1.9534
 6107TIP3    H239957   1.809   1.165   8.145 -1.6513  0.1964 -0.5235
 6108TIP3   OH239958   0.620   4.826   0.191 -0.1851 -0.0099  0.4160
 6108TIP3    H139959   0.617   4.734   0.216  0.6452 -0.1181  0.1503
 6108TIP3    H239960   0.534   4.860   0.214 -0.2206 -0.6570  1.2663
 6109TIP3   OH239961   2.823   3.535   1.332 -0.1764 -0.0979  0.3027
 6109TIP3    H139962   2.806   3.536   1.426  0.8586 -3.1154  0.6385
 6109TIP3    H239963   2.890   3.602   1.319  1.4981 -1.2960  2.2109
 6110TIP3   OH239964   4.908   0.739   7.069  0.2727  0.2325 -0.1543
 6110TIP3    H139965   4.965   0.815   7.065 -1.6374  1.7845  0.3507
 6110TIP3    H239966   4.870   0.733   6.981  1.2789 -0.8925 -0.5402
 6111TIP3   OH239967   0.872   0.468   1.258  0.7542  0.3329  0.2526
 6111TIP3    H139968   0.820   0.388   1.261  0.0578  0.7333 -0.5785
 6111TIP3    H239969   0.961   0.438   1.239  0.6066 -0.2803  0.5163
 6112TIP3   OH239970   2.254   6.596   7.848 -0.3266 -0.3362 -0.5675
 6112TIP3    H139971   2.279   6.600   7.756 -0.2577  1.3934 -0.4915
 6112TIP3    H239972   2.159   6.607   7.848 -0.2051  0.8038 -0.3775
 6113TIP3   OH239973   0.581   0.305   2.068 -0.1025  0.3675  0.0468
 6113TIP3    H139974   0.589   0.396   2.097 -0.4361 -0.1048  1.7255
 6113TIP3    H239975   0.528   0.263   2.136  0.5005 -1.2100 -0.4202
 6114TIP3   OH239976   5.222   6.336   1.071  0.3406 -0.1284  0.0760
 6114TIP3    H139977   5.230   6.351   0.977 -1.3203 -0.4638 -0.1518
 6114TIP3    H239978   5.173   6.411   1.103  1.5209  0.3474  0.8226
 6115TIP3   OH239979   4.225   1.677   8.740  0.8944 -0.0543  0.1834
 6115TIP3    H139980   4.206   1.599   8.793 -0.5852 -2.1845 -3.1237
 6115TIP3    H239981   4.320   1.677   8.730  0.8934 -1.8738 -0.2280
 6116TIP3   OH239982   0.313   5.399   6.081  0.0282  0.0418 -0.6554
 6116TIP3    H139983   0.326   5.424   5.989  2.7432  1.9749  0.1024
 6116TIP3    H239984   0.340   5.477   6.130 -0.2400 -1.3314  1.7978
 6117TIP3   OH239985   4.277   1.288   6.878 -0.1225  0.2587 -0.0535
 6117TIP3    H139986   4.326   1.278   6.796  0.1794  0.2988  0.1212
 6117TIP3    H239987   4.196   1.239   6.863  0.6454 -1.1326  0.2169
 6118TIP3   OH239988   5.545   2.824   1.750 -0.0159 -0.1278  0.2424
 6118TIP3    H139989   5.588   2.747   1.786  0.7081  0.3573  0.4415
 6118TIP3    H239990   5.452   2.811   1.769  0.2775 -0.1655  1.8010
 6119TIP3   OH239991   1.558   4.791   1.869  0.5389  0.0252 -0.0351
 6119TIP3    H139992   1.543   4.704   1.906  1.0020 -0.0191  0.0467
 6119TIP3    H239993   1.652   4.795   1.852  0.7096  0.9131  1.0144
 6120TIP3   OH239994   2.783   3.828   7.089  0.5093  0.4675  0.5457
 6120TIP3    H139995   2.825   3.866   7.013  1.5438 -0.4319  0.6318
 6120TIP3    H239996   2.840   3.754   7.113 -1.6486 -1.4649  0.0587
 6121TIP3   OH239997   4.411   5.805   0.489  0.4805  0.2549  0.3012
 6121TIP3    H139998   4.320   5.773   0.494  0.3266  0.2473 -1.6849
 6121TIP3    H239999   4.442   5.803   0.580 -1.5150  0.2969  1.0371
 6122TIP3   OH240000   3.925   0.962   7.266  1.0144 -0.1923 -0.4346
 6122TIP3    H140001   3.954   0.888   7.320 -0.7830  0.1300  1.0897
 6122TIP3    H240002   3.830   0.961   7.274  0.6600  0.0504 -3.4870
 6123TIP3   OH240003   4.087   0.195   8.177  0.0751  0.4908 -0.2211
 6123TIP3    H140004   4.017   0.134   8.154 -0.4981  0.4517  1.5175
 6123TIP3    H240005   4.098   0.250   8.099  0.3897 -1.5763 -1.7283
 6124TIP3   OH240006   3.845   5.803   1.253  0.7259 -0.0990 -0.1610
 6124TIP3    H140007   3.843   5.862   1.329  1.3099 -0.8750  0.4716
 6124TIP3    H240008   3.753   5.780   1.239  0.1723  2.5730 -1.7571
 6125TIP3   OH240009   2.586   4.026   1.307 -0.0452  0.3362 -0.3886
 6125TIP3    H140010   2.516   4.026   1.372  0.1037  2.2223 -0.1712
 6125TIP3    H240011   2.542   4.004   1.225 -1.1793  2.5273 -0.4578
 6126TIP3   OH240012   3.691   5.584   0.981 -0.4245 -0.1263  0.0930
 6126TIP3    H140013   3.649   5.611   1.062  1.1967  1.8343  0.3527
 6126TIP3    H240014   3.623   5.591   0.915 -0.6600  2.7553  0.5247
 6127TIP3   OH240015   6.205   3.068   8.160 -0.2186  0.0971  0.4437
 6127TIP3    H140016   6.200   3.009   8.085 -0.0399  0.0324  0.4823
 6127TIP3    H240017   6.263   3.024   8.222 -1.3802 -0.4397  1.1619
 6128TIP3   OH240018   0.563   4.811   7.653  0.2071 -0.4378 -0.2645
 6128TIP3    H140019   0.595   4.792   7.565 -0.7091 -1.3084 -0.4315
 6128TIP3    H240020   0.521   4.897   7.645  1.6003  0.2745 -0.2573
 6129TIP3   OH240021   1.478   0.965   7.723  0.2845  0.2392  0.2384
 6129TIP3    H140022   1.512   0.888   7.768  1.9269  1.1755  0.6730
 6129TIP3    H240023   1.543   1.034   7.740 -1.0732  1.6993 -0.2099
 6130TIP3   OH240024   0.473   1.712   0.389  0.8128 -0.6098 -0.3402
 6130TIP3    H140025   0.489   1.748   0.476 -0.5933  2.1748 -1.1283
 6130TIP3    H240026   0.530   1.763   0.331 -0.6309 -0.1557 -1.4130
 6131TIP3   OH240027   2.207   0.724   1.551 -0.1723 -0.5774 -0.2858
 6131TIP3    H140028   2.235   0.649   1.603  0.7904  0.0225  0.0963
 6131TIP3    H240029   2.238   0.706   1.462  0.5833 -0.3679 -0.0691
 6132TIP3   OH240030   4.285   4.154   1.279  0.1257 -0.6375 -0.0820
 6132TIP3    H140031   4.291   4.215   1.353  0.3504  0.6094 -1.0889
 6132TIP3    H240032   4.352   4.088   1.297  1.1043  0.3982  0.1622
 6133TIP3   OH240033   1.996   1.496   6.654  0.6022 -0.5088  0.3414
 6133TIP3    H140034   1.919   1.459   6.611  0.8940 -1.1071  0.3358
 6133TIP3    H240035   2.070   1.457   6.609  0.9455  1.0978 -0.5676
 6134TIP3   OH240036   0.798   3.879   1.397 -0.7044  0.1714 -0.2200
 6134TIP3    H140037   0.857   3.947   1.365 -0.5982  0.3842  0.4129
 6134TIP3    H240038   0.717   3.894   1.349 -0.6417  0.6630 -0.1820
 6135TIP3   OH240039   1.254   3.981   0.366  0.4653  0.0950 -0.0354
 6135TIP3    H140040   1.293   4.040   0.301  1.6102  1.2263  1.5701
 6135TIP3    H240041   1.318   3.980   0.437 -0.5017 -1.5076  0.8552
 6136TIP3   OH240042   3.587   0.231   6.172 -0.0562 -0.0301  0.4938
 6136TIP3    H140043   3.595   0.141   6.201 -0.5169  0.1907  1.3431
 6136TIP3    H240044   3.548   0.225   6.085  0.2246 -0.6572  0.4083
 6137TIP3   OH240045   6.128   4.921   0.949  0.2179  0.1160  0.2617
 6137TIP3    H140046   6.150   5.008   0.914 -1.9937  0.0942 -1.3943
 6137TIP3    H240047   6.131   4.863   0.872  0.4970 -1.0460  1.1280
 6138TIP3   OH240048   3.864   4.990   7.733  0.5329 -0.2170  0.3193
 6138TIP3    H140049   3.880   5.044   7.811  2.3024 -1.7026  1.0653
 6138TIP3    H240050   3.942   5.001   7.679  0.3892 -1.0846 -0.0874
 6139TIP3   OH240051   2.806   4.765   1.636 -0.1157 -0.1486 -0.2176
 6139TIP3    H140052   2.782   4.816   1.558 -0.6343  1.7000  1.0952
 6139TIP3    H240053   2.881   4.811   1.672  0.4347 -1.2855  0.1233
 6140TIP3   OH240054   6.112   3.585   0.380  0.2389 -0.0024 -0.7857
 6140TIP3    H140055   6.188   3.601   0.324  0.8987  1.2305  0.4131
 6140TIP3    H240056   6.042   3.562   0.319  1.2309  0.1236 -2.0120
 6141TIP3   OH240057   0.430   5.306   1.337 -0.0845 -0.0421  0.4523
 6141TIP3    H140058   0.498   5.312   1.404 -1.7527 -0.5133  2.2841
 6141TIP3    H240059   0.455   5.230   1.284 -0.5871 -2.0163  2.8675
 6142TIP3   OH240060   0.864   6.608   6.439 -0.4990 -0.1644 -0.2442
 6142TIP3    H140061   0.848   6.518   6.408  2.5569 -0.7010 -0.5282
 6142TIP3    H240062   0.886   6.598   6.532 -1.6572  0.5323  0.1353
 6143TIP3   OH240063   4.076   5.151   8.586  0.0589 -0.1835  0.3063
 6143TIP3    H140064   4.095   5.213   8.515  0.5482 -0.1876  0.4291
 6143TIP3    H240065   4.102   5.066   8.551 -1.8942 -0.5425 -0.3747
 6144TIP3   OH240066   1.739   2.810   1.717  0.4797  0.6355 -1.0146
 6144TIP3    H140067   1.769   2.809   1.808  0.0267 -0.4676 -0.8625
 6144TIP3    H240068   1.805   2.861   1.671  0.8605  0.9776 -0.1142
 6145TIP3   OH240069   0.761   3.279   6.948  0.2608 -0.4063 -0.1480
 6145TIP3    H140070   0.714   3.207   6.906  2.1237 -0.9295 -1.4459
 6145TIP3    H240071   0.732   3.276   7.040 -2.1481 -0.6921 -0.8542
 6146TIP3   OH240072   4.701   5.631   1.077  0.9900 -0.0965 -0.4422
 6146TIP3    H140073   4.627   5.661   1.023  1.4085  0.8602 -0.4940
 6146TIP3    H240074   4.760   5.589   1.015  0.6779 -0.5352 -0.4547
 6147TIP3   OH240075   1.162   5.259   0.287 -0.7705  0.4031 -0.3514
 6147TIP3    H140076   1.158   5.219   0.373  1.0222  0.0779 -0.3687
 6147TIP3    H240077   1.122   5.345   0.298 -0.0900  0.5750  0.9485
 6148TIP3   OH240078   0.375   1.139   0.197  0.1146  0.1156 -0.2777
 6148TIP3    H140079   0.331   1.067   0.151  0.5998 -0.5012  0.1971
 6148TIP3    H240080   0.325   1.149   0.278  0.4946 -0.1983 -0.0014
 6149TIP3   OH240081   3.880   5.982   6.064  0.2448  0.0871  0.0646
 6149TIP3    H140082   3.867   5.954   6.154 -0.6274  0.4221  0.0527
 6149TIP3    H240083   3.907   5.903   6.017  1.1322  0.0034  0.6952
 6150TIP3   OH240084   6.675   2.749   7.343  0.2083 -0.4989  0.2374
 6150TIP3    H140085   6.606   2.684   7.327 -1.2274  1.1936 -0.7494
 6150TIP3    H240086   6.652   2.823   7.288  3.3191 -0.1581 -0.8348
 6151TIP3   OH240087   3.186   3.194   2.252  0.2905 -0.2299  0.0555
 6151TIP3    H140088   3.226   3.223   2.333  2.6224  1.9471 -1.7203
 6151TIP3    H240089   3.234   3.115   2.228  0.2847 -0.3027  0.2853
 6152TIP3   OH240090   0.070   4.479   1.179 -0.3720 -0.2673 -0.6959
 6152TIP3    H140091   0.044   4.545   1.244  1.0589 -0.1535 -0.2090
 6152TIP3    H240092   0.050   4.395   1.221 -2.3817 -0.1911 -1.3943
 6153TIP3   OH240093   4.636   3.245   8.708 -0.2960  0.0330  0.3336
 6153TIP3    H140094   4.688   3.182   8.758  0.3596  0.7425  0.5699
 6153TIP3    H240095   4.698   3.284   8.646 -0.7249  0.3478  0.0963
 6154TIP3   OH240096   6.631   6.535   2.424 -0.1446  0.3970 -0.1686
 6154TIP3    H140097   6.705   6.522   2.365  0.7805 -1.2452  1.2882
 6154TIP3    H240098   6.668   6.527   2.512 -1.6177  2.0623  0.6821
 6155TIP3   OH240099   0.799   2.968   5.951  0.3502 -0.0132  0.4251
 6155TIP3    H140100   0.804   2.895   5.889 -1.1295 -1.2908  1.7050
 6155TIP3    H240101   0.890   2.985   5.975  0.8717 -0.1720 -1.2660
 6156TIP3   OH240102   5.132   6.567   7.684 -0.5540  0.1607 -0.5642
 6156TIP3    H140103   5.135   6.475   7.659  1.6185  0.1706 -0.4533
 6156TIP3    H240104   5.181   6.571   7.766 -1.4319  1.2990 -0.0598
 6157TIP3   OH240105   6.078   5.004   7.496 -0.0748  0.1236 -0.2114
 6157TIP3    H140106   6.135   4.986   7.421  1.1121  0.4962  0.5808
 6157TIP3    H240107   6.107   5.090   7.528 -0.1978 -0.2785  1.0061
 6158TIP3   OH240108   5.231   0.685   2.270 -0.5699  0.9667  0.9407
 6158TIP3    H140109   5.227   0.618   2.338 -0.6515 -1.3813 -1.2571
 6158TIP3    H240110   5.278   0.758   2.312  0.8710 -0.9889  2.9925
 6159TIP3   OH240111   1.904   6.517   8.672 -0.2980 -0.2464  0.1723
 6159TIP3    H140112   1.830   6.492   8.616 -1.5807 -0.0020  1.6724
 6159TIP3    H240113   1.876   6.599   8.714  1.1566  0.2688  0.2057
 6160TIP3   OH240114   4.645   2.636   0.943  0.0925  0.2210  0.1296
 6160TIP3    H140115   4.596   2.644   0.861  0.7809 -1.7162 -0.5175
 6160TIP3    H240116   4.607   2.703   0.999 -0.6670  1.3534 -1.6229
 6161TIP3   OH240117   5.051   3.823   6.596 -0.0157  0.5900 -0.2553
 6161TIP3    H140118   5.130   3.858   6.555 -0.9109  2.1279 -0.7564
 6161TIP3    H240119   5.035   3.740   6.552  1.1897  0.3730 -0.3007
 6162TIP3   OH240120   5.047   1.416   7.708  0.0632  0.1364 -0.4584
 6162TIP3    H140121   5.030   1.441   7.618  0.8695  0.8930 -0.4217
 6162TIP3    H240122   5.136   1.448   7.725 -0.2565  0.4377  0.7446
 6163TIP3   OH240123   3.251   6.802   0.735 -0.5801 -0.0157 -0.0383
 6163TIP3    H140124   3.185   6.743   0.771 -0.2231  0.4644  1.4841
 6163TIP3    H240125   3.329   6.785   0.789 -0.5539  2.0382  0.6510
 6164TIP3   OH240126   3.333   4.102   7.115  0.2804  0.0215  0.0926
 6164TIP3    H140127   3.282   4.082   7.037 -0.7929  1.0344  0.5057
 6164TIP3    H240128   3.409   4.043   7.110 -0.5657 -1.0305 -0.8835
 6165TIP3   OH240129   3.354   4.180   8.204 -0.1779  0.2312 -0.3507
 6165TIP3    H140130   3.416   4.185   8.130 -0.1731  1.7998 -0.2703
 6165TIP3    H240131   3.371   4.094   8.243  2.6335  0.9452  0.2315
 6166TIP3   OH240132   5.915   6.209   7.155  0.5170 -0.1643 -0.0587
 6166TIP3    H140133   5.864   6.256   7.221 -1.0913 -1.5345 -0.2727
 6166TIP3    H240134   5.946   6.130   7.200  0.1252 -0.6878 -0.7036
 6167TIP3   OH240135   5.996   2.436   0.464 -0.3528 -0.1803  0.0618
 6167TIP3    H140136   6.021   2.367   0.404  0.5100 -0.2125  0.4463
 6167TIP3    H240137   6.078   2.480   0.486 -0.7473  0.2764  0.6592
 6168TIP3   OH240138   2.689   5.074   7.953 -0.5516  0.4240  0.2910
 6168TIP3    H140139   2.702   5.115   8.039  0.3799  1.9716 -0.5358
 6168TIP3    H240140   2.684   5.148   7.892 -1.7033 -0.6184 -0.9455
 6169TIP3   OH240141   2.372   0.719   2.596 -0.2750 -0.4472 -0.4717
 6169TIP3    H140142   2.412   0.679   2.518  0.2690  0.7330 -0.8226
 6169TIP3    H240143   2.389   0.813   2.586  2.7752 -0.4624  2.6678
 6170TIP3   OH240144   1.259   0.041   7.319  0.2631  0.1654 -0.2344
 6170TIP3    H140145   1.306   0.103   7.374 -0.0350 -0.0518  0.2792
 6170TIP3    H240146   1.273   0.072   7.230  1.6097 -0.0489 -0.1271
 6171TIP3   OH240147   3.544   6.330   7.814  0.2554 -0.1459  0.3136
 6171TIP3    H140148   3.550   6.422   7.789 -1.0163 -0.0772  0.1763
 6171TIP3    H240149   3.606   6.285   7.756  0.9818  0.6308  0.4720
 6172TIP3   OH240150   2.194   0.344   0.885 -0.1090  0.0915  0.5873
 6172TIP3    H140151   2.265   0.320   0.826 -0.1337  1.2789  0.0455
 6172TIP3    H240152   2.114   0.311   0.842 -0.0575  0.3074  0.3275
 6173TIP3   OH240153   4.687   6.684   1.871 -0.1144 -0.0795 -0.3260
 6173TIP3    H140154   4.705   6.738   1.948  2.3451  1.7279 -2.0249
 6173TIP3    H240155   4.606   6.718   1.836 -0.9941 -0.5905  1.1230
 6174TIP3   OH240156   5.962   6.188   1.245  0.0975  0.0785 -0.1560
 6174TIP3    H140157   5.906   6.223   1.314 -0.2328  2.0333 -1.3291
 6174TIP3    H240158   5.906   6.188   1.167 -0.0545 -3.5831 -0.2300
 6175TIP3   OH240159   6.697   1.216   7.206 -0.7647 -0.4299  0.2850
 6175TIP3    H140160   6.644   1.137   7.204 -1.8939  0.3103 -0.0648
 6175TIP3    H240161   6.659   1.269   7.275 -0.5911  0.1833 -0.0830
 6176TIP3   OH240162   3.548   6.041   0.094 -0.1546 -0.3678 -0.1577
 6176TIP3    H140163   3.472   6.071   0.044  1.1248  1.1625 -1.3274
 6176TIP3    H240164   3.523   6.051   0.185 -1.3313  0.1736 -0.5220
 6177TIP3   OH240165   0.068   4.581   0.616  0.2240 -0.6198  0.1368
 6177TIP3    H140166   0.038   4.526   0.688 -0.5405  0.8655  0.9915
 6177TIP3    H240167   0.157   4.607   0.642 -0.0023 -0.1910  0.4935
 6178TIP3   OH240168   6.373   6.181   1.762 -0.1517  0.5418 -0.4552
 6178TIP3    H140169   6.453   6.149   1.721  0.5735  1.9452 -0.2154
 6178TIP3    H240170   6.353   6.262   1.715 -1.0397  0.5698 -0.0434
 6179TIP3   OH240171   3.143   1.025   8.128 -0.2575 -0.4191  0.2488
 6179TIP3    H140172   3.114   1.075   8.052 -0.6003 -1.2117 -0.1645
 6179TIP3    H240173   3.237   1.041   8.133 -0.2594 -0.2399 -0.2629
 6180TIP3   OH240174   6.257   3.432   0.805  0.2789 -0.3291  0.1448
 6180TIP3    H140175   6.207   3.406   0.728  0.2823 -1.7928  0.5930
 6180TIP3    H240176   6.210   3.507   0.841 -1.4712 -1.4691  0.3745
 6181TIP3   OH240177   0.483   1.106   0.850 -0.2885  0.3261 -0.3339
 6181TIP3    H140178   0.529   1.137   0.772  0.5665 -2.3243 -1.0079
 6181TIP3    H240179   0.494   1.176   0.914  0.2603  1.9446 -2.1121
 6182TIP3   OH240180   2.466   1.295   2.401  0.5654  0.2625  0.4571
 6182TIP3    H140181   2.525   1.255   2.465 -1.0956 -1.8130  0.7865
 6182TIP3    H240182   2.390   1.322   2.453 -0.7754 -1.3853 -0.5683
 6183TIP3   OH240183   6.707   2.103   1.439  0.0710 -0.3764  0.3661
 6183TIP3    H140184   6.621   2.120   1.400  0.3657 -0.2793 -0.2531
 6183TIP3    H240185   6.763   2.172   1.404  0.6630 -1.0889 -0.1193
 6184TIP3   OH240186   5.017   5.408   7.385  0.0251  0.2347  0.5844
 6184TIP3    H140187   4.989   5.446   7.301 -0.3442 -0.6394  0.3056
 6184TIP3    H240188   5.111   5.424   7.388  0.0011  0.4799  0.1117
 6185TIP3   OH240189   2.584   1.354   0.979  0.0505 -0.2010 -0.1965
 6185TIP3    H140190   2.552   1.308   0.901 -0.6577  1.0389 -0.6736
 6185TIP3    H240191   2.505   1.371   1.031 -0.0907  2.3694 -1.1017
 6186TIP3   OH240192   6.619   4.466   1.397  0.1832 -0.1992  0.0296
 6186TIP3    H140193   6.589   4.486   1.308  1.7329  0.2211 -0.4239
 6186TIP3    H240194   6.547   4.496   1.453  0.1783  1.8038 -0.9399
 6187TIP3   OH240195   6.176   1.460   0.982 -0.6270 -0.3402  0.2303
 6187TIP3    H140196   6.113   1.442   1.052  0.1511  1.1248  1.3683
 6187TIP3    H240197   6.259   1.475   1.028  0.5140 -1.8921 -1.1975
 6188TIP3   OH240198   3.021   3.489   8.136 -0.2146  0.3488  0.6641
 6188TIP3    H140199   2.965   3.492   8.058 -1.0733 -1.6042  1.1426
 6188TIP3    H240200   2.994   3.409   8.182  1.0500  0.8480  2.3888
 6189TIP3   OH240201   0.390   4.686   0.391 -0.0421  0.6280  0.2701
 6189TIP3    H140202   0.331   4.629   0.342 -1.1075  0.1492  1.9772
 6189TIP3    H240203   0.475   4.643   0.388  0.2203  1.2227 -2.0792
 6190TIP3   OH240204   5.779   4.799   0.076 -0.1588  0.0112 -0.2211
 6190TIP3    H140205   5.797   4.723   0.020 -1.7974 -0.4881 -0.1283
 6190TIP3    H240206   5.798   4.875   0.020  3.3843 -0.3655  0.2998
 6191TIP3   OH240207   0.288   3.972   7.259 -0.0712 -0.8672 -0.1159
 6191TIP3    H140208   0.257   3.929   7.179  0.2334  0.1443 -0.7847
 6191TIP3    H240209   0.208   3.984   7.311 -0.4871 -0.2709 -0.8725
 6192TIP3   OH240210   3.456   0.085   8.441 -0.9100  0.1228  0.6385
 6192TIP3    H140211   3.363   0.086   8.460 -1.4763 -2.5604 -1.4278
 6192TIP3    H240212   3.484  -0.005   8.458  0.7014  0.2095 -1.1872
 6193TIP3   OH240213   6.439   0.892   7.456 -0.3299 -0.3992  0.2193
 6193TIP3    H140214   6.358   0.844   7.474 -0.8716 -0.1479 -1.4053
 6193TIP3    H240215   6.418   0.947   7.381  1.0494  0.4664  0.4350
 6194TIP3   OH240216   4.007   3.286   0.831  0.5362  0.7912  0.1526
 6194TIP3    H140217   4.082   3.288   0.891  0.1142  1.6094  0.6691
 6194TIP3    H240218   4.046   3.286   0.744  1.1578 -0.3116  0.4045
 6195TIP3   OH240219   6.807   5.846   7.034 -0.3405  0.1008 -0.5764
 6195TIP3    H140220   6.873   5.914   7.019 -0.5195  0.5557  0.5742
 6195TIP3    H240221   6.741   5.888   7.089  0.2593 -1.3751  1.3765
 6196TIP3   OH240222   3.229   5.705   7.278  0.4975 -0.2792  0.3095
 6196TIP3    H140223   3.235   5.694   7.183 -0.3170 -0.5120  0.2796
 6196TIP3    H240224   3.158   5.767   7.290  0.7552 -0.0699  0.7638
 6197TIP3   OH240225   3.459   2.169   0.250 -0.0933 -0.5339  0.3034
 6197TIP3    H140226   3.429   2.259   0.233  1.1820 -0.0405  0.5089
 6197TIP3    H240227   3.381   2.115   0.240 -1.3117  0.8035  2.0410
 6198TIP3   OH240228   3.807   1.581   7.406  0.2471  0.1762  0.0920
 6198TIP3    H140229   3.893   1.564   7.367 -0.2274  1.1000 -1.4129
 6198TIP3    H240230   3.823   1.648   7.472  0.6832  0.2904 -0.1290
 6199TIP3   OH240231   4.250   6.241   0.723 -0.3578 -0.3372 -0.1691
 6199TIP3    H140232   4.204   6.251   0.807  2.4369  1.0979  1.3333
 6199TIP3    H240233   4.187   6.270   0.658 -1.9284  0.5624  1.6491
 6200TIP3   OH240234   2.953   5.553   8.107  0.5944 -0.1422  1.1651
 6200TIP3    H140235   2.987   5.535   8.019  1.1076 -1.1668  1.5627
 6200TIP3    H240236   2.902   5.634   8.097  0.2709 -0.4914 -0.1635
 6201TIP3   OH240237   3.737   3.556   1.519  0.1028 -0.0433 -0.2647
 6201TIP3    H140238   3.795   3.565   1.595  1.2914  1.3631 -1.2892
 6201TIP3    H240239   3.731   3.462   1.505  0.1484 -0.3163  1.3464
 6202TIP3   OH240240   1.506   1.275   1.936  0.0808 -0.0674 -0.3448
 6202TIP3    H140241   1.586   1.222   1.932  1.0204  1.2653  0.0481
 6202TIP3    H240242   1.472   1.259   2.024 -0.0874 -0.6250 -0.5055
 6203TIP3   OH240243   2.658   6.394   7.654 -0.6147  0.6082 -0.7639
 6203TIP3    H140244   2.720   6.324   7.675 -0.4543  0.7428 -0.7831
 6203TIP3    H240245   2.573   6.352   7.654 -0.5263  0.4296 -0.6928
 6204TIP3   OH240246   1.786   3.015   1.160 -0.6339 -0.3212  0.2510
 6204TIP3    H140247   1.763   2.956   1.088 -1.1174 -0.1492  0.2581
 6204TIP3    H240248   1.716   3.081   1.160 -0.7947 -0.4805  1.0579
 6205TIP3   OH240249   1.071   2.919   1.729  1.1099  0.0050  0.2411
 6205TIP3    H140250   1.052   2.940   1.821 -0.1394 -0.8800  0.2126
 6205TIP3    H240251   1.010   2.974   1.680  1.9009  0.6114 -0.0856
 6206TIP3   OH240252   1.602   2.422   6.700 -0.0544 -1.0002 -0.0864
 6206TIP3    H140253   1.654   2.356   6.655  0.0691 -0.8208 -0.2094
 6206TIP3    H240254   1.523   2.432   6.646 -0.8156 -2.1712  0.7520
 6207TIP3   OH240255   3.940   5.947   7.358  0.0977 -0.4259  0.4479
 6207TIP3    H140256   3.922   5.875   7.419 -0.9429 -0.5172  0.0475
 6207TIP3    H240257   3.928   5.910   7.271  0.2991  0.0400  0.2150
 6208TIP3   OH240258   6.839   4.996   0.413 -0.2570 -0.1051 -0.2974
 6208TIP3    H140259   6.772   4.948   0.461  2.4437 -2.7680  1.1431
 6208TIP3    H240260   6.880   4.931   0.357  2.5975  0.7491  0.5948
 6209TIP3   OH240261   1.697   5.996   7.363  0.2156 -0.1880 -0.1640
 6209TIP3    H140262   1.633   6.021   7.430  1.7156  1.7978  0.6192
 6209TIP3    H240263   1.647   5.999   7.281 -0.7286  1.3713  0.4204
 6210TIP3   OH240264   2.622   6.230   2.035  0.3920  0.2471 -0.5720
 6210TIP3    H140265   2.528   6.231   2.054  0.4003  0.8506 -0.5472
 6210TIP3    H240266   2.664   6.225   2.121  0.3993  1.2908 -0.5014
 6211TIP3   OH240267   5.423   5.951   8.372  0.0564 -1.0022 -0.3447
 6211TIP3    H140268   5.488   5.951   8.302  0.7484  0.0920  0.2670
 6211TIP3    H240269   5.462   5.898   8.441 -0.6187 -2.0665 -0.7579
 6212TIP3   OH240270   6.134   0.564   0.773 -0.0554  0.2343 -0.3219
 6212TIP3    H140271   6.156   0.471   0.779  0.8934  0.4724  0.2084
 6212TIP3    H240272   6.073   0.578   0.845  1.3499  0.4085  0.8931
 6213TIP3   OH240273   3.616   0.968   0.308  0.2533 -0.2816 -0.2457
 6213TIP3    H140274   3.526   0.986   0.334  0.4707 -0.5197  0.6931
 6213TIP3    H240275   3.617   0.986   0.214 -0.0053  2.7976  0.2480
 6214TIP3   OH240276   1.651   5.223   7.652  0.0920 -0.2830 -0.4492
 6214TIP3    H140277   1.568   5.270   7.665 -0.2320 -1.3018  1.5554
 6214TIP3    H240278   1.716   5.279   7.694  0.1195 -0.3716 -0.3735
 6215TIP3   OH240279   4.895   2.191   1.731  0.5834 -0.2263 -0.2484
 6215TIP3    H140280   4.986   2.164   1.743  0.4389 -0.4765  0.3163
 6215TIP3    H240281   4.844   2.130   1.785  0.1438  0.4022  0.0531
 6216TIP3   OH240282   3.338   4.968   0.324 -0.5351  0.0216  0.2478
 6216TIP3    H140283   3.279   4.920   0.266  1.0294  0.5445 -1.9078
 6216TIP3    H240284   3.414   4.911   0.333 -0.1107  0.6160  0.5066
 6217TIP3   OH240285   4.859   0.179   1.160 -0.1029  0.4450 -0.2490
 6217TIP3    H140286   4.810   0.122   1.220 -1.6671  0.3386 -1.5479
 6217TIP3    H240287   4.872   0.260   1.209 -1.8780  0.5831  0.0665
 6218TIP3   OH240288   5.422   5.503   0.819 -0.1439 -0.3809  0.2956
 6218TIP3    H140289   5.386   5.546   0.742  2.3727 -0.0302 -0.7637
 6218TIP3    H240290   5.405   5.564   0.891 -1.7723 -0.3364 -0.0953
 6219TIP3   OH240291   2.789   3.676   0.020 -0.2835 -0.7876 -0.2560
 6219TIP3    H140292   2.783   3.756  -0.031  1.1592 -0.2456  0.3809
 6219TIP3    H240293   2.727   3.616  -0.022  0.9743 -0.4523 -2.8158
 6220TIP3   OH240294   6.237   0.277   1.037  0.0704 -0.5560  0.4026
 6220TIP3    H140295   6.178   0.231   1.097  0.9502 -0.8856  1.0235
 6220TIP3    H240296   6.267   0.353   1.086  1.2602 -1.1450  0.6080
 6221TIP3   OH240297   5.680   5.523   2.728  0.0763  0.3197 -0.0564
 6221TIP3    H140298   5.774   5.512   2.740 -0.2608 -2.6870  0.6098
 6221TIP3    H240299   5.670   5.541   2.635  1.2396 -1.0512 -0.4860
 6222TIP3   OH240300   0.590   4.781   0.864  0.1826 -0.0918  0.6737
 6222TIP3    H140301   0.674   4.812   0.897 -0.2241  1.6790  0.1697
 6222TIP3    H240302   0.600   4.781   0.769 -0.3517  0.0651  0.6123
 6223TIP3   OH240303   0.486   0.437   8.741 -0.4373  0.1182  0.1085
 6223TIP3    H140304   0.466   0.427   8.648 -1.1820 -1.7455  0.4238
 6223TIP3    H240305   0.455   0.356   8.781 -0.6286  1.1002  2.0764
 6224TIP3   OH240306   2.671   6.661   7.554 -0.0383 -0.2800  0.1981
 6224TIP3    H140307   2.725   6.713   7.614  0.6446  1.5398 -1.8339
 6224TIP3    H240308   2.669   6.574   7.593  0.1220  0.8347  2.9572
 6225TIP3   OH240309   5.993   6.507   1.714  0.2445  0.0806 -0.2437
 6225TIP3    H140310   6.088   6.502   1.708  0.3677  2.0574 -0.5993
 6225TIP3    H240311   5.975   6.521   1.807  0.3486  0.5315 -0.2933
 6226TIP3   OH240312   0.525   3.225   2.740 -0.4921  0.3533 -0.3530
 6226TIP3    H140313   0.606   3.270   2.716 -1.0929  0.6771 -1.8919
 6226TIP3    H240314   0.521   3.149   2.682 -1.4713  0.5542 -0.5698
 6227TIP3   OH240315   0.760   2.332   8.735  0.2341 -0.4303 -0.1412
 6227TIP3    H140316   0.727   2.375   8.814  0.9519  2.0095 -1.0741
 6227TIP3    H240317   0.755   2.399   8.667 -2.4018 -3.0330 -2.8352
 6228TIP3   OH240318   6.583   4.865   7.390  0.1839 -0.4934 -0.0155
 6228TIP3    H140319   6.672   4.839   7.368  0.3947 -1.2587  1.5643
 6228TIP3    H240320   6.592   4.956   7.420  0.5288 -0.7160  0.5822
 6229TIP3   OH240321   6.029   4.232   1.638 -0.0863 -0.3111 -0.0071
 6229TIP3    H140322   6.025   4.206   1.546  1.7776  1.0850 -0.5554
 6229TIP3    H240323   6.019   4.327   1.636  1.7002 -0.0596  1.0177
 6230TIP3   OH240324   4.466   3.837   1.922 -0.1983 -0.0276 -0.3431
 6230TIP3    H140325   4.510   3.799   1.846  1.3225 -0.4351  0.6905
 6230TIP3    H240326   4.474   3.932   1.909  0.9869 -0.0955 -0.1918
 6231TIP3   OH240327   5.806   6.486   7.517 -0.3191 -0.3542 -0.2374
 6231TIP3    H140328   5.722   6.467   7.559 -0.8562 -0.2862 -1.2479
 6231TIP3    H240329   5.867   6.422   7.555 -0.9418 -0.7339  0.1406
 6232TIP3   OH240330   0.817   1.542   7.836  0.2449 -0.2523 -0.2090
 6232TIP3    H140331   0.798   1.574   7.925  1.7880 -1.8774  0.7865
 6232TIP3    H240332   0.889   1.598   7.806 -0.8686  0.8951 -0.8682
 6233TIP3   OH240333   4.295   0.482   7.116 -0.2296  0.7974 -0.0454
 6233TIP3    H140334   4.316   0.418   7.048 -0.5097 -0.9151  1.4049
 6233TIP3    H240335   4.226   0.536   7.078 -2.1407 -1.6684 -0.3172
 6234TIP3   OH240336   4.849   1.121   7.577 -0.2231 -0.0273 -0.3171
 6234TIP3    H140337   4.801   1.042   7.551  0.2542 -0.0697 -1.0854
 6234TIP3    H240338   4.841   1.180   7.502  0.3462  0.2298 -0.1765
 6235TIP3   OH240339   3.058   5.889   0.617  0.6604  0.4803  0.2674
 6235TIP3    H140340   3.056   5.844   0.532 -0.4346  1.5633 -0.3197
 6235TIP3    H240341   2.973   5.933   0.622  1.4141  1.8810  1.1443
 6236TIP3   OH240342   5.955   3.193   1.574 -0.1201 -0.3701 -0.0676
 6236TIP3    H140343   5.905   3.213   1.654  1.5147 -0.2450  0.9602
 6236TIP3    H240344   5.970   3.279   1.534  1.4278 -0.1117  0.9868
 6237TIP3   OH240345   4.557   1.633   8.222 -0.0195  0.0173  0.4962
 6237TIP3    H140346   4.466   1.610   8.202  0.4684 -2.1384  0.4827
 6237TIP3    H240347   4.603   1.625   8.138  0.3995 -0.2269  0.7418
 6238TIP3   OH240348   1.029   5.610   1.218 -0.2833 -0.3265  0.1774
 6238TIP3    H140349   1.097   5.624   1.284 -0.1287  1.2477 -0.2956
 6238TIP3    H240350   1.028   5.690   1.166 -0.7149 -1.3544 -1.4675
 6239TIP3   OH240351   2.482   5.509   7.561  0.4420  0.0895 -0.1291
 6239TIP3    H140352   2.531   5.429   7.578  0.3418  0.2878  1.2458
 6239TIP3    H240353   2.424   5.518   7.638  0.5447  1.5310 -0.2002
 6240TIP3   OH240354   4.176   4.657   7.741 -0.5578 -0.3420 -0.1276
 6240TIP3    H140355   4.150   4.745   7.768  1.8738  0.3319  0.2445
 6240TIP3    H240356   4.181   4.608   7.823 -4.3988 -1.6768 -0.5164
 6241TIP3   OH240357   2.385   1.593   0.837  0.3485 -0.0779  0.3880
 6241TIP3    H140358   2.396   1.544   0.918  1.2547  0.2929  0.5035
 6241TIP3    H240359   2.422   1.679   0.856  1.1133 -0.1626 -0.5796
 6242TIP3   OH240360   1.590   2.062   8.036  0.0185 -0.4805 -0.1772
 6242TIP3    H140361   1.685   2.067   8.035 -0.0076  0.1701  0.2376
 6242TIP3    H240362   1.561   2.152   8.046 -0.6355 -0.7188  0.1290
 6243TIP3   OH240363   1.259   4.638   6.442 -0.0182 -0.2431 -0.2385
 6243TIP3    H140364   1.292   4.654   6.353  1.4281  0.3593  0.3758
 6243TIP3    H240365   1.318   4.687   6.498 -1.9085  0.7743  0.9639
 6244TIP3   OH240366   6.340   6.391   8.387 -0.2454 -0.0604  0.1067
 6244TIP3    H140367   6.269   6.447   8.355  0.8446  0.2205 -1.9980
 6244TIP3    H240368   6.368   6.342   8.309  1.2761 -0.8141  1.0954
 6245TIP3   OH240369   3.305   3.330   0.707 -0.0141 -0.2586 -0.2418
 6245TIP3    H140370   3.369   3.300   0.772 -0.6470 -0.1379  0.4604
 6245TIP3    H240371   3.227   3.276   0.724 -0.6059  0.6253 -0.0696
 6246TIP3   OH240372   5.517   2.431   2.597  0.0904 -0.0736  0.4009
 6246TIP3    H140373   5.515   2.527   2.601  2.2312  0.1291 -1.4902
 6246TIP3    H240374   5.550   2.405   2.683  4.2526  1.2958 -0.5482
 6247TIP3   OH240375   1.478   5.392   8.114  0.0659  0.0159 -0.5779
 6247TIP3    H140376   1.410   5.453   8.086 -0.5759 -0.4099  0.0337
 6247TIP3    H240377   1.458   5.310   8.069 -2.3075 -1.3798  2.6133
 6248TIP3   OH240378   1.860   4.305   7.259 -0.2291 -0.2045 -0.3136
 6248TIP3    H140379   1.907   4.253   7.194 -0.3895 -0.7272 -0.0149
 6248TIP3    H240380   1.778   4.329   7.216 -0.8394 -1.5045  0.0751
 6249TIP3   OH240381   6.334   5.905   8.320 -0.0495 -0.7418  0.0377
 6249TIP3    H140382   6.285   5.830   8.355 -0.7783 -0.6570 -0.7853
 6249TIP3    H240383   6.388   5.934   8.394 -1.0682 -0.9702  0.9007
 6250TIP3   OH240384   0.611   6.244   2.339 -0.0190 -0.7543  0.1582
 6250TIP3    H140385   0.658   6.292   2.270  0.2209 -1.8942 -0.4936
 6250TIP3    H240386   0.532   6.212   2.296 -0.6041 -0.2247  0.8224
 6251TIP3   OH240387   5.225   0.675   1.368 -1.1193 -0.0814  0.1010
 6251TIP3    H140388   5.216   0.664   1.463 -1.0505  1.8616  0.3723
 6251TIP3    H240389   5.320   0.679   1.353 -1.1135 -0.8673 -0.1384
 6252TIP3   OH240390   4.613   0.502   0.632  0.7517  0.0261 -0.3463
 6252TIP3    H140391   4.672   0.426   0.635  0.3993 -0.3002 -1.1956
 6252TIP3    H240392   4.586   0.507   0.540 -2.1011 -1.0606  0.3263
 6253TIP3   OH240393   1.089   3.323   8.257  0.1590 -0.0611  0.3583
 6253TIP3    H140394   1.029   3.304   8.185  1.5400 -0.6615 -0.6786
 6253TIP3    H240395   1.060   3.265   8.328 -1.1653  0.4758  0.2814
 6254TIP3   OH240396   6.808   5.034   6.894  1.1810  0.0917  0.5172
 6254TIP3    H140397   6.804   5.019   6.988 -0.5680 -0.8006  0.3250
 6254TIP3    H240398   6.899   5.061   6.878  1.5199  0.1928  2.4287
 6255TIP3   OH240399   4.152   0.777   1.321 -0.1453  0.1437 -0.4347
 6255TIP3    H140400   4.170   0.691   1.283  0.5222  0.1060 -0.0531
 6255TIP3    H240401   4.161   0.838   1.248  0.0562 -0.0404 -0.5647
 6256TIP3   OH240402   2.821   6.838   0.816 -0.5354  0.4831  0.2297
 6256TIP3    H140403   2.807   6.916   0.870 -0.5241  0.8121 -0.2410
 6256TIP3    H240404   2.908   6.850   0.779 -0.7193  0.4724 -0.2146
 6257TIP3   OH240405   0.014   3.588   7.665 -0.5142 -0.6514 -0.2908
 6257TIP3    H140406  -0.055   3.527   7.639 -0.5018 -0.8221  0.0628
 6257TIP3    H240407   0.095   3.543   7.640 -0.3367 -2.0886  2.4408
 6258TIP3   OH240408   4.172   3.230   7.603 -0.1643  0.2920 -0.3501
 6258TIP3    H140409   4.148   3.262   7.690  1.5005  0.8330 -0.0375
 6258TIP3    H240410   4.212   3.306   7.561 -0.1209 -0.2220 -1.2493
 6259TIP3   OH240411   5.828   5.716   8.552 -0.1733  0.3380 -0.2772
 6259TIP3    H140412   5.878   5.668   8.618  1.4990  1.9468 -0.2657
 6259TIP3    H240413   5.878   5.703   8.471  0.7355  2.4697 -0.1482
 6260TIP3   OH240414   5.101   2.895   6.969  0.7394  0.2346 -0.2126
 6260TIP3    H140415   5.072   2.897   7.060  1.7828  1.3190  0.1206
 6260TIP3    H240416   5.196   2.893   6.974  0.7992 -1.1642 -1.2884
 6261TIP3   OH240417   2.530   3.727   8.201 -0.3359 -0.0157 -0.1832
 6261TIP3    H140418   2.498   3.639   8.217  0.6403 -0.2184  0.7917
 6261TIP3    H240419   2.489   3.753   8.118  1.1159 -2.2699 -1.7323
 6262TIP3   OH240420   6.628   1.045   8.108  0.2294 -0.1238  0.4457
 6262TIP3    H140421   6.718   1.039   8.075 -0.1431 -0.6762 -0.5138
 6262TIP3    H240422   6.628   0.990   8.187  0.7859  0.0764  0.5926
 6263TIP3   OH240423   4.820   2.379   7.436  0.2431 -0.0466  0.0099
 6263TIP3    H140424   4.886   2.371   7.368  0.5951  4.3123 -0.3850
 6263TIP3    H240425   4.755   2.439   7.401 -2.1124 -1.3518  1.7967
 6264TIP3   OH240426   1.009   2.882   0.428  0.3806 -0.2092 -0.2729
 6264TIP3    H140427   0.916   2.899   0.441  0.0331 -0.2643 -2.2683
 6264TIP3    H240428   1.027   2.917   0.340  2.2374 -0.2285  0.0600
 6265TIP3   OH240429   2.707   3.277   7.537 -0.3049 -0.2447  0.1827
 6265TIP3    H140430   2.707   3.279   7.442 -2.1775  0.0374  0.1540
 6265TIP3    H240431   2.630   3.225   7.560  0.9446 -1.6110  1.5586
 6266TIP3   OH240432   5.836   0.447   1.813  0.4340 -0.2680 -0.4429
 6266TIP3    H140433   5.903   0.490   1.866  0.7854 -1.9218  0.5560
 6266TIP3    H240434   5.874   0.362   1.790 -1.2765 -1.2770  0.1762
 6267TIP3   OH240435   1.163   6.671   8.757  0.4657  0.4372 -0.0975
 6267TIP3    H140436   1.160   6.766   8.761  1.3237  0.5097 -0.8276
 6267TIP3    H240437   1.120   6.649   8.674 -0.4506  0.1296  0.4459
 6268TIP3   OH240438   2.284   2.996   0.883  0.2706 -0.0446  0.4559
 6268TIP3    H140439   2.343   3.015   0.956  1.1492  0.8826 -0.4413
 6268TIP3    H240440   2.342   2.963   0.814 -0.3639  0.1616 -0.1924
 6269TIP3   OH240441   5.690   6.799   7.798  0.2399  0.3082  0.5175
 6269TIP3    H140442   5.615   6.855   7.818 -0.9878 -1.0029 -0.1763
 6269TIP3    H240443   5.671   6.717   7.845 -0.3303 -1.1260 -2.0153
 6270TIP3   OH240444   4.089   2.372   0.798  1.0169  0.5674 -0.0979
 6270TIP3    H140445   4.044   2.304   0.747 -2.1796  1.9605  0.6519
 6270TIP3    H240446   4.142   2.323   0.861 -2.5122 -1.4104  1.6010
 6271TIP3   OH240447   6.826   3.798   6.471  0.3207  0.0047  0.1091
 6271TIP3    H140448   6.762   3.867   6.455  0.2295 -0.5701 -2.2401
 6271TIP3    H240449   6.782   3.738   6.532 -0.8976  0.2492 -0.5140
 6272TIP3   OH240450   4.402   2.646   2.226 -0.7374 -0.0330  0.8389
 6272TIP3    H140451   4.447   2.730   2.213 -0.1785 -0.4700 -0.1698
 6272TIP3    H240452   4.466   2.580   2.199 -1.9421 -0.6879 -0.5546
 6273TIP3   OH240453   4.657   5.067   8.346  0.6866 -0.1250  0.1132
 6273TIP3    H140454   4.620   5.143   8.391  1.5368 -0.7517  1.9930
 6273TIP3    H240455   4.659   4.998   8.413  0.9061 -1.5032 -1.2417
 6274TIP3   OH240456   5.599   4.705   0.389  0.0198  0.1798  0.7727
 6274TIP3    H140457   5.580   4.718   0.482 -1.4921  0.4800  0.4479
 6274TIP3    H240458   5.513   4.708   0.347  0.8667  2.4959 -0.9281
 6275TIP3   OH240459   0.985   4.371   1.290  0.2843 -0.3011 -0.3333
 6275TIP3    H140460   1.010   4.377   1.382  1.1087  0.7869 -0.5969
 6275TIP3    H240461   0.939   4.453   1.272 -0.1865 -0.6624 -0.7984
 6276TIP3   OH240462   4.187   4.967   8.326 -0.4603 -0.0328 -0.2539
 6276TIP3    H140463   4.151   4.925   8.404 -1.6016 -3.0886 -2.2398
 6276TIP3    H240464   4.282   4.959   8.336 -0.6070 -1.1038  0.4614
 6277TIP3   OH240465   5.448   1.639   0.817  0.1831  0.0827  0.2466
 6277TIP3    H140466   5.403   1.644   0.732 -0.2301  0.1206  0.4633
 6277TIP3    H240467   5.541   1.639   0.795  0.0772 -1.0466 -0.2734
 6278TIP3   OH240468   1.617   4.501   2.402 -0.0677 -0.0387 -0.0193
 6278TIP3    H140469   1.568   4.458   2.473  1.0074  0.8941  1.3519
 6278TIP3    H240470   1.611   4.595   2.422 -0.0192  0.2757 -1.3702
 6279TIP3   OH240471   5.111   0.015   1.273 -0.8758  0.1759 -0.7924
 6279TIP3    H140472   5.059   0.052   1.344 -1.6735 -1.9941 -0.1672
 6279TIP3    H240473   5.046  -0.018   1.210 -0.2024  0.4052 -1.6286
 6280TIP3   OH240474   4.008   4.550   7.186  0.4224 -0.1880 -0.0031
 6280TIP3    H140475   4.060   4.628   7.167 -0.2557  0.2933  0.0997
 6280TIP3    H240476   3.917   4.577   7.171  0.2233 -1.1722 -0.7395
 6281TIP3   OH240477   1.412   5.748   1.042 -0.0172  0.4895 -0.2478
 6281TIP3    H140478   1.388   5.818   0.981  3.3808 -0.6964 -3.2526
 6281TIP3    H240479   1.352   5.676   1.020  0.5481  0.4003 -1.5902
 6282TIP3   OH240480   3.944   0.379   1.152  0.0752  0.5407 -0.3292
 6282TIP3    H140481   3.869   0.362   1.095  0.2930  1.2700 -0.8422
 6282TIP3    H240482   4.020   0.374   1.094  0.2929  1.3584 -0.1276
 6283TIP3   OH240483   0.073   4.582   2.148  0.1955  0.2757  0.2972
 6283TIP3    H140484   0.056   4.675   2.141 -2.1072 -0.1691 -0.7337
 6283TIP3    H240485   0.003   4.548   2.204  0.5763 -0.9519  0.0731
 6284TIP3   OH240486   3.967   0.638   0.958 -0.4440  0.0910  0.2889
 6284TIP3    H140487   4.003   0.576   1.022 -0.3428 -1.1884 -0.9482
 6284TIP3    H240488   3.872   0.628   0.965 -0.5223  1.5638  1.7386
 6285TIP3   OH240489   5.342   5.900   1.783  0.2770 -0.0274 -0.5327
 6285TIP3    H140490   5.318   5.991   1.801  0.3781 -0.1749  0.4316
 6285TIP3    H240491   5.277   5.870   1.720  0.9458  1.0611 -1.7915
 6286TIP3   OH240492   4.811   5.141   1.574  0.1407  0.2706  0.0237
 6286TIP3    H140493   4.786   5.081   1.644 -0.7888  0.2548 -0.3094
 6286TIP3    H240494   4.737   5.140   1.514 -0.4101  2.5943  0.5576
 6287TIP3   OH240495   5.464   0.522   0.458  0.0709  0.1646  0.2053
 6287TIP3    H140496   5.558   0.506   0.465  0.2335  1.0495  0.0346
 6287TIP3    H240497   5.446   0.588   0.525 -0.1779  1.0618 -0.7384
 6288TIP3   OH240498   0.676   3.032   6.871 -0.4731 -0.2047 -0.3380
 6288TIP3    H140499   0.690   2.961   6.809  0.8954  0.4889 -0.8601
 6288TIP3    H240500   0.586   3.061   6.855  0.0615  0.4191 -2.5080
 6289TIP3   OH240501   6.430   2.594   0.289  0.0973 -0.4023  0.0600
 6289TIP3    H140502   6.512   2.546   0.279 -0.3398 -0.8698 -1.3307
 6289TIP3    H240503   6.437   2.667   0.227  0.1407  0.5441  1.1233
 6290TIP3   OH240504   4.190   4.770   0.841  0.3721 -0.8512  0.5141
 6290TIP3    H140505   4.203   4.859   0.874  2.8884 -0.2862 -1.5885
 6290TIP3    H240506   4.104   4.772   0.800  0.6218  0.8602 -0.0256
 6291TIP3   OH240507   2.974   6.159   1.035 -0.0981 -0.2867 -0.4160
 6291TIP3    H140508   2.929   6.089   0.987 -0.1579 -0.4838 -0.0734
 6291TIP3    H240509   3.057   6.120   1.063 -0.4019 -0.4267  0.3195
 6292TIP3   OH240510   1.539   2.793   1.349 -0.4377 -0.2968  0.2478
 6292TIP3    H140511   1.607   2.813   1.285 -0.3783  2.3885  1.0455
 6292TIP3    H240512   1.577   2.724   1.403  1.0268  0.0565 -0.2712
 6293TIP3   OH240513   1.431   2.876   6.387 -0.1023 -0.2544 -0.2112
 6293TIP3    H140514   1.450   2.966   6.361 -0.9450  0.3022  0.9901
 6293TIP3    H240515   1.515   2.840   6.414  0.0202  0.6887  0.7552
 6294TIP3   OH240516   2.304   0.562   1.280 -0.3117 -0.1429 -0.1250
 6294TIP3    H140517   2.392   0.582   1.313  0.1060 -0.0267 -1.2440
 6294TIP3    H240518   2.316   0.483   1.227 -0.8100  0.0837 -0.5812
 6295TIP3   OH240519   0.314   0.261   7.986  0.3587  0.1613 -0.0016
 6295TIP3    H140520   0.345   0.175   7.956  0.3006 -0.0849  0.6302
 6295TIP3    H240521   0.294   0.248   8.078  0.6086  0.9265  0.1656
 6296TIP3   OH240522   1.772   6.745   8.765 -0.2328  0.1872  0.4939
 6296TIP3    H140523   1.835   6.814   8.790 -1.8431  1.4830  1.1688
 6296TIP3    H240524   1.748   6.765   8.675  0.2007 -0.2183  0.2863
 6297TIP3   OH240525   1.099   3.000   1.029 -0.0634 -0.3908 -0.4594
 6297TIP3    H140526   1.111   2.909   1.000  1.9598  0.1485 -1.5370
 6297TIP3    H240527   1.187   3.030   1.052 -0.7406  1.1961  0.2582
 6298TIP3   OH240528   0.516   3.658   1.021 -0.0215 -0.2577  0.3699
 6298TIP3    H140529   0.527   3.570   1.055  0.9858 -0.6180 -0.8231
 6298TIP3    H240530   0.601   3.700   1.034 -0.1317  0.1441 -0.1745
 6299TIP3   OH240531   5.931   3.013   2.418 -0.1697 -0.1592 -0.2787
 6299TIP3    H140532   6.003   3.051   2.468 -1.9591  2.7443  0.3306
 6299TIP3    H240533   5.971   2.985   2.336  1.5014  2.4557 -0.4691
 6300TIP3   OH240534   1.028   3.558   7.246  0.3848 -0.2017  0.6040
 6300TIP3    H140535   1.102   3.618   7.258 -0.6047  1.0331  0.7237
 6300TIP3    H240536   0.997   3.576   7.157  1.5302 -2.2501 -0.2770
 6301TIP3   OH240537   2.773   1.062   7.238 -0.8654 -0.2410  0.2376
 6301TIP3    H140538   2.684   1.025   7.244 -0.9796  0.2307  1.8730
 6301TIP3    H240539   2.826   1.004   7.293 -0.6605  0.8735  1.2425
 6302TIP3   OH240540   6.218   1.193   0.146 -0.0989 -0.6854  0.1232
 6302TIP3    H140541   6.208   1.249   0.069  0.8238  0.2151  0.6293
 6302TIP3    H240542   6.151   1.125   0.135 -1.5438  0.7389 -0.3078
 6303TIP3   OH240543   2.186   5.508   0.062 -0.0609  0.2405 -0.0697
 6303TIP3    H140544   2.106   5.462   0.037 -0.7642  1.5456 -0.3010
 6303TIP3    H240545   2.156   5.592   0.097  1.0995 -0.0678  1.8245
 6304TIP3   OH240546   0.439   5.827   0.907 -0.6309  0.0245  0.3781
 6304TIP3    H140547   0.421   5.780   0.826 -1.1735 -2.6323  1.9386
 6304TIP3    H240548   0.530   5.806   0.929 -0.3901  0.9620  0.3605
 6305TIP3   OH240549   2.868   2.742   2.132  0.3349 -0.0896 -0.2908
 6305TIP3    H140550   2.892   2.675   2.197  1.1503  0.1160 -0.3696
 6305TIP3    H240551   2.918   2.819   2.158  0.4531  0.0787 -1.0065
 6306TIP3   OH240552   5.849   1.831   8.557 -0.2514 -0.0589  0.3559
 6306TIP3    H140553   5.830   1.745   8.594 -1.2216 -0.2871 -0.6089
 6306TIP3    H240554   5.944   1.839   8.563 -0.2277 -0.8068  1.2776
 6307TIP3   OH240555   3.600   3.287   8.531 -0.2796 -0.2207 -0.1206
 6307TIP3    H140556   3.527   3.300   8.470 -2.0169  0.8949  2.0493
 6307TIP3    H240557   3.584   3.200   8.569 -1.0708  0.4011  1.0286
 6308TIP3   OH240558   3.411   2.763   1.521  0.0182 -0.1774  0.3890
 6308TIP3    H140559   3.495   2.807   1.530  0.2609 -0.7275  0.8323
 6308TIP3    H240560   3.384   2.743   1.610 -0.8727  0.5245  0.2890
 6309TIP3   OH240561   0.746   0.681   7.006 -0.5085 -0.3915  0.6180
 6309TIP3    H140562   0.765   0.663   6.914  0.2669  1.0203  0.4703
 6309TIP3    H240563   0.715   0.771   7.007  1.6777  0.4226  1.9716
 6310TIP3   OH240564   5.925   3.956   1.409  0.8421  0.2213 -0.0504
 6310TIP3    H140565   5.847   3.904   1.389  1.2722  0.3096 -2.1583
 6310TIP3    H240566   5.997   3.893   1.410  0.9761  0.3745  0.2932
 6311TIP3   OH240567   0.067   3.583   6.681  0.6241 -0.3006 -0.1674
 6311TIP3    H140568   0.066   3.523   6.755  0.4952 -1.3323 -0.9908
 6311TIP3    H240569  -0.021   3.620   6.679  0.4825 -0.6320 -0.0953
 6312TIP3   OH240570   4.797   0.919   1.174 -0.3236 -0.7403 -0.4228
 6312TIP3    H140571   4.838   0.996   1.214 -0.0537 -1.3039  0.3894
 6312TIP3    H240572   4.707   0.946   1.158 -1.0844 -1.1754  2.5787
 6313TIP3   OH240573   4.211   1.003   7.981 -0.4172  0.0248  0.5359
 6313TIP3    H140574   4.180   1.070   7.920  1.0516 -0.5150 -0.9091
 6313TIP3    H240575   4.214   0.923   7.928  0.4565 -0.5677  1.4405
 6314TIP3   OH240576   2.154   3.439   7.294  0.1806  0.0910 -0.3364
 6314TIP3    H140577   2.144   3.416   7.387 -1.6466  0.4243 -0.4060
 6314TIP3    H240578   2.248   3.438   7.279  0.4461 -1.9077  1.0302
 6315TIP3   OH240579   0.898   1.873   7.685  0.9824 -0.0506  0.3889
 6315TIP3    H140580   0.891   1.965   7.661  1.5932 -0.2146 -0.4859
 6315TIP3    H240581   0.831   1.860   7.752 -0.5040  0.5677 -0.8900
 6316TIP3   OH240582   6.118   3.765   2.328 -0.0242  0.2801  0.3203
 6316TIP3    H140583   6.086   3.675   2.331  1.2844 -0.2236 -0.1101
 6316TIP3    H240584   6.072   3.805   2.255 -1.8888  0.4997  1.5500
 6317TIP3   OH240585   6.367   0.414   7.528 -0.0588  0.1999 -0.6911
 6317TIP3    H140586   6.285   0.441   7.570 -0.6901 -0.7717 -1.2870
 6317TIP3    H240587   6.400   0.495   7.488 -0.8426  0.5498 -0.6547
 6318TIP3   OH240588   6.316   1.726   8.286  0.1053  0.2920 -0.1485
 6318TIP3    H140589   6.230   1.768   8.280  0.5016  1.0492 -0.7129
 6318TIP3    H240590   6.301   1.638   8.252 -0.3695  0.5478 -0.6290
 6319TIP3   OH240591   5.595   5.553   0.469  0.2018  0.5574  0.1001
 6319TIP3    H140592   5.577   5.605   0.391  0.9120  0.1909 -0.3120
 6319TIP3    H240593   5.601   5.463   0.438 -0.3814  0.2958  0.7118
 6320TIP3   OH240594   4.132   2.400   7.173  0.0049 -0.2227 -0.6892
 6320TIP3    H140595   4.042   2.374   7.192 -0.0233  0.0585 -0.4441
 6320TIP3    H240596   4.172   2.321   7.136 -0.4940 -0.1927 -1.3178
 6321TIP3   OH240597   6.745   5.267   8.529 -0.1401  0.2687  0.4489
 6321TIP3    H140598   6.689   5.279   8.606  0.7563 -0.7275  1.3024
 6321TIP3    H240599   6.690   5.291   8.455 -1.2073  0.7501  1.3625
 6322TIP3   OH240600   6.521   0.729   0.864  0.6313  0.7060 -0.2638
 6322TIP3    H140601   6.533   0.780   0.944  3.2185  1.3730 -0.9645
 6322TIP3    H240602   6.519   0.638   0.894  0.9904  0.9778  0.6078
 6323TIP3   OH240603   1.536   1.972   0.154 -0.0217  0.4957  0.1761
 6323TIP3    H140604   1.593   2.033   0.108 -0.5452  1.0076  0.1883
 6323TIP3    H240605   1.525   1.899   0.093 -0.2161  0.8861 -0.2678
 6324TIP3   OH240606   2.343   5.055   1.700 -0.1047 -0.4840  0.5590
 6324TIP3    H140607   2.266   5.083   1.651  1.3716  0.5907 -1.2865
 6324TIP3    H240608   2.357   5.124   1.764 -1.5340 -1.4620  1.9981
 6325TIP3   OH240609   4.086   5.668   8.012 -0.5416 -0.0711  0.0134
 6325TIP3    H140610   4.151   5.673   8.082 -0.1195  0.7318 -0.4174
 6325TIP3    H240611   4.008   5.711   8.047 -0.1738  0.7714 -0.1543
 6326TIP3   OH240612   0.573   3.925   1.694  0.2421  0.7092  0.2634
 6326TIP3    H140613   0.579   4.004   1.641  0.0603  0.5597  0.0174
 6326TIP3    H240614   0.591   3.955   1.783 -0.8436  1.2218  0.3263
 6327TIP3   OH240615   3.076   5.551   0.262  0.0469  0.3894  0.3583
 6327TIP3    H140616   3.151   5.540   0.203  1.1891  0.8228  1.6706
 6327TIP3    H240617   3.115   5.552   0.349 -1.5968 -0.2195  1.1321
 6328TIP3   OH240618   2.107   3.851   7.492  0.5089  0.1013  0.0517
 6328TIP3    H140619   2.012   3.839   7.493  0.5233  0.0158  0.4879
 6328TIP3    H240620   2.121   3.926   7.434  0.2490 -0.4972 -0.7994
 6329TIP3   OH240621   1.532   5.108   0.274  0.1223  0.4669 -0.4428
 6329TIP3    H140622   1.525   5.116   0.179  1.0161 -1.3445 -0.6937
 6329TIP3    H240623   1.461   5.048   0.298  0.4637  0.2042 -0.0849
 6330TIP3   OH240624   6.322   6.676   1.769 -0.3179  0.0605 -0.0056
 6330TIP3    H140625   6.299   6.632   1.851 -2.2308  0.6216 -0.1955
 6330TIP3    H240626   6.364   6.757   1.796 -0.0210 -0.2139  0.3864
 6331TIP3   OH240627   3.863   4.372   8.778 -0.6058 -0.0119  0.1005
 6331TIP3    H140628   3.883   4.465   8.787  0.8259  0.0916 -3.0383
 6331TIP3    H240629   3.767   4.370   8.768 -0.6168  1.1864 -0.2524
 6332TIP3   OH240630   0.545   2.208   8.654 -0.2385  0.0815  0.2918
 6332TIP3    H140631   0.623   2.246   8.693  0.5113 -1.1614  0.0686
 6332TIP3    H240632   0.505   2.279   8.605 -0.4512  1.3242  2.1622
 6333TIP3   OH240633   3.531   3.691   7.441 -0.3735  0.2323 -0.2714
 6333TIP3    H140634   3.444   3.677   7.476  0.7775 -1.1845  2.2589
 6333TIP3    H240635   3.577   3.740   7.508  1.4025 -0.9653 -0.5422
 6334TIP3   OH240636   5.386   3.752   6.632 -0.0151 -0.0150  0.0458
 6334TIP3    H140637   5.350   3.835   6.600 -1.0647 -0.0185  1.1569
 6334TIP3    H240638   5.454   3.778   6.694 -1.0260  0.0538  1.1574
 6335TIP3   OH240639   5.098   4.423   1.643  0.1998  0.1885 -0.3447
 6335TIP3    H140640   5.032   4.354   1.651  1.2505 -0.8272  0.0131
 6335TIP3    H240641   5.143   4.404   1.561  0.5674  0.3742 -0.1894
 6336TIP3   OH240642   0.895   4.051   1.618 -0.1424 -0.5247 -0.3933
 6336TIP3    H140643   0.915   4.129   1.670 -0.3160 -1.8406  1.7979
 6336TIP3    H240644   0.800   4.058   1.602  0.1801  0.6985 -2.0414
 6337TIP3   OH240645   1.452   1.966   2.133  0.2779 -0.0322  0.3968
 6337TIP3    H140646   1.544   1.987   2.149  0.2875  0.3618 -0.1450
 6337TIP3    H240647   1.406   2.049   2.141  0.0587 -0.1152  0.0496
 6338TIP3   OH240648   0.931   0.747   1.753 -0.0887  0.0079  0.0274
 6338TIP3    H140649   0.942   0.802   1.675 -1.7798  0.1075 -0.1718
 6338TIP3    H240650   1.019   0.743   1.791  0.6992  0.2698 -1.6594
 6339TIP3   OH240651   2.664   3.367   0.373  0.8988 -0.5803 -0.8803
 6339TIP3    H140652   2.677   3.407   0.459 -1.3375 -2.5564  0.5101
 6339TIP3    H240653   2.733   3.404   0.318  2.2201  0.9923  1.6607
 6340TIP3   OH240654   1.892   2.354   7.291 -0.1245 -0.1836  0.7364
 6340TIP3    H140655   1.851   2.345   7.205 -0.8215  1.4559  0.8574
 6340TIP3    H240656   1.819   2.363   7.352  0.3560 -1.5175  1.5592
 6341TIP3   OH240657   3.904   0.475   6.660 -0.3442 -0.3651 -0.1564
 6341TIP3    H140658   3.972   0.542   6.671 -1.1317  0.5182 -0.5382
 6341TIP3    H240659   3.847   0.487   6.737 -0.5277 -0.5500 -0.2644
 6342TIP3   OH240660   5.354   3.137   2.708  0.1099  0.3762  0.0585
 6342TIP3    H140661   5.321   3.220   2.741 -0.6663 -0.0964  0.4913
 6342TIP3    H240662   5.442   3.157   2.678  1.7895  0.4204  4.3449
 6343TIP3   OH240663   6.305   4.540   6.636 -0.5350  0.9706 -0.4050
 6343TIP3    H140664   6.348   4.577   6.558 -0.2747  2.5798  0.4463
 6343TIP3    H240665   6.353   4.579   6.710 -0.6154 -0.7118  0.5851
 6344TIP3   OH240666   6.218   0.794   7.892 -0.4621  0.2595 -0.2572
 6344TIP3    H140667   6.277   0.856   7.936  0.4568  1.8395 -3.4282
 6344TIP3    H240668   6.276   0.732   7.849 -1.2020  0.2441 -1.2684
 6345TIP3   OH240669   1.265   6.300   1.317  0.0098 -0.5700 -0.0366
 6345TIP3    H140670   1.222   6.270   1.397  1.1140 -1.0322  0.4045
 6345TIP3    H240671   1.298   6.220   1.276 -1.8969 -0.5167 -1.7987
 6346TIP3   OH240672   6.404   1.561   0.016  0.1132 -0.8178  0.1989
 6346TIP3    H140673   6.498   1.545   0.023  0.1625 -1.9779 -2.2113
 6346TIP3    H240674   6.392   1.598  -0.071 -1.5203  1.0123  1.0964
 6347TIP3   OH240675   1.380   2.757   6.676  0.2356 -0.0255 -0.3332
 6347TIP3    H140676   1.395   2.770   6.582 -2.5052 -1.0237 -1.0103
 6347TIP3    H240677   1.379   2.846   6.712 -0.6975  0.5463 -1.6530
 6348TIP3   OH240678   0.122   3.655   8.095  0.1008  0.3339 -0.4163
 6348TIP3    H140679   0.212   3.662   8.129 -0.1472 -0.4415  0.4564
 6348TIP3    H240680   0.084   3.584   8.146 -0.3202 -0.8684 -2.3128
 6349TIP3   OH240681   4.875   6.320   8.286 -0.2970 -0.7918 -0.0109
 6349TIP3    H140682   4.936   6.391   8.268 -0.5691  0.1975  2.5429
 6349TIP3    H240683   4.850   6.287   8.200  0.0009  2.0738 -1.2980
 6350TIP3   OH240684   4.293   6.320   6.630 -0.1828 -0.3531 -0.0623
 6350TIP3    H140685   4.335   6.404   6.610 -1.4352  0.3027 -0.0264
 6350TIP3    H240686   4.269   6.285   6.545 -0.4315 -0.2653 -0.0281
 6351TIP3   OH240687   1.244   5.721   8.708  0.1820  0.1650 -0.4312
 6351TIP3    H140688   1.205   5.635   8.691  0.5684  0.0596 -0.7719
 6351TIP3    H240689   1.300   5.707   8.785 -0.4643  0.3240  0.0818
 6352TIP3   OH240690   2.656   6.320   1.766  0.4647  0.8633  0.5897
 6352TIP3    H140691   2.649   6.307   1.860  1.0635  1.3243  0.7073
 6352TIP3    H240692   2.576   6.283   1.730  1.1312 -1.1844  1.0840
 6353TIP3   OH240693   3.096   0.788   6.932  0.6086 -0.0636  0.0309
 6353TIP3    H140694   3.059   0.707   6.969 -0.3733  0.4733  0.2493
 6353TIP3    H240695   3.077   0.781   6.838  2.2104 -0.9543 -0.2646
 6354TIP3   OH240696   5.224   6.232   7.688  0.2719 -0.2969 -0.5375
 6354TIP3    H140697   5.171   6.154   7.703 -0.3037  0.4088  1.5396
 6354TIP3    H240698   5.207   6.257   7.597 -0.6766 -1.7350 -0.7808
 6355TIP3   OH240699   0.043   5.724   8.689 -0.1387  0.0174  0.1238
 6355TIP3    H140700   0.090   5.750   8.610 -0.6029 -1.3834 -0.6512
 6355TIP3    H240701   0.070   5.788   8.755  1.7978  0.0550 -0.6342
 6356TIP3   OH240702   0.123   5.883   0.147  0.2153 -0.2211  0.1719
 6356TIP3    H140703   0.128   5.975   0.121  0.8329 -0.2187  0.2944
 6356TIP3    H240704   0.040   5.877   0.195 -1.2763 -0.3551 -2.2583
 6357TIP3   OH240705   4.548   2.420   0.570 -0.4970 -0.8078  0.0786
 6357TIP3    H140706   4.544   2.515   0.561  0.0117 -0.8280 -0.4493
 6357TIP3    H240707   4.615   2.393   0.507 -1.4997 -1.6336 -0.6791
 6358TIP3   OH240708   5.798   5.486   7.307  0.1041  0.3932 -0.1630
 6358TIP3    H140709   5.831   5.507   7.394  1.2972 -1.7039 -0.0484
 6358TIP3    H240710   5.824   5.395   7.293 -0.7459  0.4419 -2.4068
 6359TIP3   OH240711   4.787   4.627   6.783 -0.4515 -0.1601  0.5558
 6359TIP3    H140712   4.814   4.558   6.723 -2.1985  0.2456 -0.7780
 6359TIP3    H240713   4.816   4.708   6.741 -2.2762  0.1764 -0.1759
 6360TIP3   OH240714   6.821   4.513   1.602  0.1330  0.3776  0.5160
 6360TIP3    H140715   6.766   4.572   1.550 -0.3888 -0.8291 -0.3403
 6360TIP3    H240716   6.761   4.443   1.630  1.4130 -1.6431 -1.4752
 6361TIP3   OH240717   0.530   2.343   2.029 -0.4502 -0.3010  0.3420
 6361TIP3    H140718   0.480   2.266   2.055 -0.1908  0.0467  1.9803
 6361TIP3    H240719   0.621   2.313   2.027 -0.5937 -0.8045 -2.1419
 6362TIP3   OH240720   4.894   3.672   0.951  0.3845  0.2524  0.4266
 6362TIP3    H140721   4.895   3.764   0.926  1.7649 -0.2241 -1.5710
 6362TIP3    H240722   4.926   3.626   0.873 -2.2684 -2.1319  0.5669
 6363TIP3   OH240723   3.247   4.365   1.588  0.4396 -0.6074 -0.7725
 6363TIP3    H140724   3.173   4.335   1.534  0.4092  0.8052 -1.5574
 6363TIP3    H240725   3.219   4.348   1.678 -0.6422 -0.5430 -1.0826
 6364TIP3   OH240726   2.225   2.388   8.433 -0.1871  0.2780 -0.3510
 6364TIP3    H140727   2.290   2.321   8.413  1.3142  1.3218  0.8198
 6364TIP3    H240728   2.148   2.339   8.461  0.6443 -0.9679 -0.1729
 6365TIP3   OH240729   0.804   0.338   6.265 -0.0840 -0.9526 -0.2710
 6365TIP3    H140730   0.795   0.244   6.282  0.2227 -0.8528  0.4874
 6365TIP3    H240731   0.898   0.353   6.264 -0.1383 -0.4198  1.0103
 6366TIP3   OH240732   5.496   3.114   1.827  0.3898  0.2587  0.7262
 6366TIP3    H140733   5.556   3.045   1.798  1.1240 -0.0738  2.8575
 6366TIP3    H240734   5.542   3.196   1.806  0.5288  0.0596  0.2391
 6367TIP3   OH240735   4.861   1.195   6.631 -0.3312  0.5214 -0.0551
 6367TIP3    H140736   4.872   1.113   6.583 -2.0741  1.0566 -1.4858
 6367TIP3    H240737   4.816   1.253   6.569 -0.4820  2.0595  1.4256
 6368TIP3   OH240738   4.399   5.559   6.674 -0.8485  0.2074 -0.3830
 6368TIP3    H140739   4.328   5.620   6.691  0.4425  1.5508  0.5081
 6368TIP3    H240740   4.451   5.600   6.605 -0.2774 -0.1457 -0.1774
 6369TIP3   OH240741   2.523   1.660   7.539  0.6165  0.7478  0.7997
 6369TIP3    H140742   2.608   1.680   7.578 -0.3607  3.2566  1.8670
 6369TIP3    H240743   2.544   1.627   7.452  2.7280 -1.1324  1.8915
 6370TIP3   OH240744   4.083   1.889   0.391  0.0446  0.3928  0.0165
 6370TIP3    H140745   4.016   1.894   0.459 -0.0831  0.3368 -0.1050
 6370TIP3    H240746   4.107   1.981   0.375 -1.9579  0.6749 -1.8661
 6371TIP3   OH240747   0.317   5.553   7.283  0.3189 -0.2189  0.2867
 6371TIP3    H140748   0.232   5.582   7.317 -0.3146  0.6269 -1.8014
 6371TIP3    H240749   0.295   5.482   7.223  1.2689 -1.0512  0.9081
 6372TIP3   OH240750   1.024   2.586   8.441  0.3301  0.5130  0.4767
 6372TIP3    H140751   1.059   2.514   8.388 -1.9138 -0.1698 -0.1960
 6372TIP3    H240752   1.009   2.548   8.527  0.8274  0.6961  0.6486
 6373TIP3   OH240753   1.432   3.169   6.523  0.4502 -0.2670  0.0129
 6373TIP3    H140754   1.508   3.173   6.581 -0.3902  1.9779  1.0781
 6373TIP3    H240755   1.469   3.177   6.434  1.4864  0.7572  0.5081
 6374TIP3   OH240756   5.468   0.232   7.298 -0.4230  0.0961  0.2895
 6374TIP3    H140757   5.563   0.234   7.292 -0.2257 -0.4002  2.2796
 6374TIP3    H240758   5.443   0.322   7.320 -0.3880  0.1641  0.0511
 6375TIP3   OH240759   1.979   3.054   2.415  0.5561  0.8635  0.4163
 6375TIP3    H140760   2.062   3.068   2.369 -0.7149  0.2601 -2.2536
 6375TIP3    H240761   1.968   2.959   2.416 -1.2088  0.9733 -1.5696
 6376TIP3   OH240762   4.939   0.579   8.692  0.6440 -0.0915  0.5446
 6376TIP3    H140763   4.993   0.652   8.723  0.4898  0.7221 -0.9883
 6376TIP3    H240764   4.850   0.604   8.716  0.3240  1.3272 -1.8269
 6377TIP3   OH240765   2.631   6.169   7.228  0.0428 -0.4842  0.0960
 6377TIP3    H140766   2.569   6.228   7.270 -0.5681 -0.9870 -0.0818
 6377TIP3    H240767   2.576   6.110   7.175  0.7631  0.0691 -1.3325
 6378TIP3   OH240768   6.477   1.783   7.367 -0.7510  0.9558  0.0994
 6378TIP3    H140769   6.398   1.732   7.350 -1.2427  1.7127  0.0919
 6378TIP3    H240770   6.500   1.822   7.283  0.5859 -0.5494 -0.2948
 6379TIP3   OH240771   0.208   2.310   8.714 -0.6497  0.4291 -0.0462
 6379TIP3    H140772   0.259   2.371   8.661  0.4653 -1.6370 -1.4775
 6379TIP3    H240773   0.168   2.365   8.782  0.8588  2.6066 -0.8168
 6380TIP3   OH240774   2.622   4.670   8.606 -0.5688  0.4499  0.1513
 6380TIP3    H140775   2.645   4.647   8.516 -2.0830  0.8002 -0.3651
 6380TIP3    H240776   2.660   4.600   8.659 -1.5200 -1.0033 -0.9855
 6381TIP3   OH240777   6.184   4.443   7.553 -0.0998 -0.1689  0.2625
 6381TIP3    H140778   6.273   4.474   7.568 -1.1612  2.5681  1.7106
 6381TIP3    H240779   6.149   4.505   7.489 -0.7434 -1.7223 -0.9340
 6382TIP3   OH240780   3.446   5.796   7.661  0.2726  0.7391  0.2581
 6382TIP3    H140781   3.500   5.856   7.712 -0.4530  1.3514  0.3171
 6382TIP3    H240782   3.374   5.850   7.628 -0.2545 -0.0394  0.1070
 6383TIP3   OH240783   2.133   3.531   8.296 -0.0852  0.4542 -0.4240
 6383TIP3    H140784   2.043   3.531   8.264  0.9140  0.6260 -3.6025
 6383TIP3    H240785   2.155   3.439   8.305 -0.3391  0.3910 -0.4423
 6384TIP3   OH240786   3.106   5.260   7.241 -0.0655  0.2400 -0.3274
 6384TIP3    H140787   3.135   5.244   7.151  0.0115 -2.5567  0.0989
 6384TIP3    H240788   3.048   5.187   7.260  1.2251 -0.1769  2.4411
 6385TIP3   OH240789   6.552   5.285   1.103  0.5843 -0.4645  0.1104
 6385TIP3    H140790   6.557   5.339   1.024  1.0920 -0.3563  0.2117
 6385TIP3    H240791   6.472   5.232   1.092  0.8302 -0.6915 -0.6287
 6386TIP3   OH240792   4.239   0.510   1.813 -0.0178  0.2835 -0.0087
 6386TIP3    H140793   4.235   0.471   1.900  1.1782 -0.2862 -0.1926
 6386TIP3    H240794   4.175   0.582   1.817 -1.5090 -0.9963  0.6633
 6387TIP3   OH240795   1.102   3.320   7.378  0.1281 -0.0662  0.1333
 6387TIP3    H140796   1.061   3.399   7.342  0.7924 -0.0878 -0.7221
 6387TIP3    H240797   1.122   3.343   7.469 -0.3274  0.5031  0.0976
 6388TIP3   OH240798   6.739   5.937   0.371  0.0177 -0.3395 -0.0393
 6388TIP3    H140799   6.650   5.944   0.406  0.8599  0.7922  2.0047
 6388TIP3    H240800   6.756   5.843   0.369 -0.6760 -0.5123  1.0223
 6389TIP3   OH240801   6.773   3.439   6.921 -0.5696 -0.0040  0.3950
 6389TIP3    H140802   6.773   3.355   6.875  0.9629 -1.1704  2.3432
 6389TIP3    H240803   6.682   3.451   6.948 -0.6015 -1.8030  1.2871
 6390TIP3   OH240804   3.336   4.800   7.855 -0.2727  0.0885  0.6377
 6390TIP3    H140805   3.298   4.883   7.828  0.4752  0.8905  1.9330
 6390TIP3    H240806   3.430   4.814   7.850 -0.0311 -1.6865 -1.9867
 6391TIP3   OH240807   1.346   6.493   6.492 -0.1201  0.5029 -0.7496
 6391TIP3    H140808   1.301   6.411   6.513 -0.6216  0.3483 -2.2865
 6391TIP3    H240809   1.277   6.560   6.496  0.1379  0.7416 -0.2112
 6392TIP3   OH240810   0.533   0.188   0.475  0.2123 -0.0756  0.1325
 6392TIP3    H140811   0.532   0.113   0.533 -0.7748 -1.1109 -1.1380
 6392TIP3    H240812   0.442   0.195   0.444  0.5860  0.7569 -0.8427
 6393TIP3   OH240813   4.482   0.612   8.484  0.0903 -0.4234 -0.6496
 6393TIP3    H140814   4.412   0.629   8.421  0.1538  0.8026 -0.4194
 6393TIP3    H240815   4.440   0.624   8.570  0.7587  1.1684 -0.5182
 6394TIP3   OH240816   2.068   6.744   0.183  0.1909 -0.3178  0.0693
 6394TIP3    H140817   2.037   6.816   0.237  0.9213 -1.2321  1.7913
 6394TIP3    H240818   2.003   6.675   0.194  0.9705 -0.9599  0.8417
 6395TIP3   OH240819   6.149   2.307   1.109  0.1108  0.0217  0.3947
 6395TIP3    H140820   6.218   2.373   1.110  0.2045 -0.0369 -0.9753
 6395TIP3    H240821   6.069   2.356   1.092  0.1425 -0.1669 -0.3409
 6396TIP3   OH240822   4.037   3.318   0.175 -0.3980 -0.5974  0.1048
 6396TIP3    H140823   4.108   3.281   0.121 -1.0984  1.2108 -2.2042
 6396TIP3    H240824   3.975   3.246   0.185  1.2511 -1.9215  1.3334
 6397TIP3   OH240825   1.996   5.451   1.596 -0.0856 -0.4822  0.1837
 6397TIP3    H140826   1.941   5.507   1.651  1.0744  1.3021 -0.3947
 6397TIP3    H240827   1.938   5.425   1.524 -0.3020  1.2014 -0.3138
 6398TIP3   OH240828   0.469   4.364   7.685  0.0820 -0.9800 -0.5312
 6398TIP3    H140829   0.408   4.435   7.705  0.8178 -0.5139  0.1316
 6398TIP3    H240830   0.456   4.347   7.591 -0.5739 -0.4325 -0.5514
 6399TIP3   OH240831   6.154   3.090   2.539 -0.1719  0.3173  0.3906
 6399TIP3    H140832   6.221   3.057   2.479 -0.4165 -0.6993  0.6700
 6399TIP3    H240833   6.204   3.136   2.607  0.1097  1.4554 -0.5540
 6400TIP3   OH240834   3.168   3.574   1.401  0.1716 -0.8114 -0.0815
 6400TIP3    H140835   3.246   3.544   1.448 -0.3902 -1.8569  0.2027
 6400TIP3    H240836   3.131   3.643   1.457  0.5828 -0.6989  0.0533
 6401TIP3   OH240837   5.042   2.165   2.551 -0.6441 -0.2733  0.7893
 6401TIP3    H140838   5.034   2.153   2.456  0.1290 -0.7245  0.7717
 6401TIP3    H240839   5.040   2.077   2.587  0.4376 -0.2048  1.0603
 6402TIP3   OH240840   6.242   5.493   2.217  0.1773  0.0698 -0.2033
 6402TIP3    H140841   6.294   5.452   2.286  1.1741  1.0598 -0.3407
 6402TIP3    H240842   6.211   5.575   2.255 -1.2898 -0.4931 -0.1378
 6403TIP3   OH240843   6.692   1.582   1.979 -0.0864  0.6363  0.6137
 6403TIP3    H140844   6.711   1.634   1.900 -2.2599 -1.8757 -1.7463
 6403TIP3    H240845   6.617   1.627   2.019 -0.6200  0.5241 -0.2293
 6404TIP3   OH240846   3.574   6.053   8.512 -0.0393 -0.1566  0.2655
 6404TIP3    H140847   3.639   5.988   8.539 -0.5847 -0.8977 -0.1640
 6404TIP3    H240848   3.491   6.018   8.544 -0.2535  0.7217  0.6987
 6405TIP3   OH240849   4.636   2.694   8.296 -0.1246  0.1860 -0.3196
 6405TIP3    H140850   4.592   2.623   8.341  0.9007 -0.4830 -0.3403
 6405TIP3    H240851   4.594   2.774   8.330 -0.9062 -0.4008  0.1123
 6406TIP3   OH240852   4.181   0.118   7.238 -0.7346 -0.3665  0.0818
 6406TIP3    H140853   4.239   0.178   7.190 -0.2217 -0.1705  0.9157
 6406TIP3    H240854   4.237   0.081   7.306 -1.2323 -1.2776  0.0078
 6407TIP3   OH240855   1.375   4.923   2.279 -0.3262 -0.0112  0.6248
 6407TIP3    H140856   1.413   5.006   2.250 -3.3306  0.6266 -1.9625
 6407TIP3    H240857   1.301   4.949   2.334 -1.6958 -0.8637 -0.7337
 6408TIP3   OH240858   2.414   1.919   1.624  0.1068  0.0928  0.4622
 6408TIP3    H140859   2.499   1.910   1.581 -1.0828 -1.3400 -1.7750
 6408TIP3    H240860   2.401   1.837   1.671  0.1045  0.4668  1.1384
 6409TIP3   OH240861   4.736   6.073   0.644 -0.1778 -0.5406 -0.0699
 6409TIP3    H140862   4.649   6.070   0.686 -0.9160 -1.5782 -1.5597
 6409TIP3    H240863   4.738   6.157   0.599 -1.6544 -1.6107 -2.3589
 6410TIP3   OH240864   6.251   2.755   0.696  0.3151 -0.0411  0.4314
 6410TIP3    H140865   6.308   2.832   0.698  2.0759 -1.2372 -1.0527
 6410TIP3    H240866   6.213   2.751   0.783  1.2586  1.7177  0.9699
 6411TIP3   OH240867   1.167   4.136   1.621 -0.1842  0.5859 -0.7572
 6411TIP3    H140868   1.107   4.179   1.682 -1.5153  0.7396 -2.1029
 6411TIP3    H240869   1.168   4.045   1.648  0.5301  0.9352  0.4613
 6412TIP3   OH240870   4.734   1.376   8.300  0.0785  0.0486  0.1047
 6412TIP3    H140871   4.682   1.446   8.263 -1.0159  0.7058  2.6472
 6412TIP3    H240872   4.671   1.312   8.331  0.9812 -1.1399 -0.4332
 6413TIP3   OH240873   0.577   5.991   7.214 -0.2668 -0.1667 -0.0884
 6413TIP3    H140874   0.594   6.076   7.255 -1.4746 -0.1606  0.4505
 6413TIP3    H240875   0.526   5.943   7.280  0.6595 -1.4313 -0.2619
 6414TIP3   OH240876   3.450   4.328   7.244  0.4798  0.0835  0.0167
 6414TIP3    H140877   3.379   4.392   7.253  1.2605  0.7761  1.7358
 6414TIP3    H240878   3.411   4.255   7.196 -1.1496  0.8046  0.1820
 6415TIP3   OH240879   5.706   5.637   6.437 -0.2123  0.0402  0.4601
 6415TIP3    H140880   5.694   5.697   6.511  0.7257  1.3872 -0.4230
 6415TIP3    H240881   5.780   5.582   6.463  1.5242  1.9169 -0.2707
 6416TIP3   OH240882   5.027   5.840   6.586 -0.5992 -0.6315  0.6067
 6416TIP3    H140883   5.096   5.810   6.527 -0.3499 -0.3658  0.7597
 6416TIP3    H240884   4.951   5.787   6.563 -0.4379 -0.6930  0.2071
 6417TIP3   OH240885   1.301   5.122   8.530  0.6581  0.0764 -0.0554
 6417TIP3    H140886   1.216   5.122   8.487  0.9866  1.1286 -0.7246
 6417TIP3    H240887   1.354   5.061   8.479  0.3444 -0.5054  0.3051
 6418TIP3   OH240888   2.340   2.620   1.053  0.0593 -0.5085  0.0850
 6418TIP3    H140889   2.401   2.592   1.121 -1.3724  2.0111  2.6225
 6418TIP3    H240890   2.388   2.607   0.971  2.1555 -3.0267  1.5352
 6419TIP3   OH240891   4.290   6.498   0.048 -0.6716 -0.1234 -0.4377
 6419TIP3    H140892   4.273   6.409   0.019 -1.4648  0.5757 -2.2488
 6419TIP3    H240893   4.291   6.550  -0.032  2.9402  1.0623  0.1830
 6420TIP3   OH240894   0.584   6.129   6.947 -0.6534  0.9384 -0.3214
 6420TIP3    H140895   0.524   6.064   6.910  2.0735 -1.0387 -1.5566
 6420TIP3    H240896   0.590   6.106   7.040  1.9178 -2.2236 -1.0781
 6421TIP3   OH240897   3.077   3.459   8.788  0.1447  0.2414  0.1142
 6421TIP3    H140898   3.171   3.444   8.798  0.2038  0.1941 -0.4421
 6421TIP3    H240899   3.071   3.540   8.738 -0.1347  0.7510  0.9613
 6422TIP3   OH240900   1.188   4.745   7.771 -0.9216 -0.9725 -0.6185
 6422TIP3    H140901   1.169   4.781   7.685  1.1950 -0.1108 -0.8019
 6422TIP3    H240902   1.278   4.713   7.763 -0.2925  0.0760  1.5393
 6423TIP3   OH240903   0.679   3.506   7.914  0.2832  0.3921 -0.4195
 6423TIP3    H140904   0.735   3.519   7.838  0.2152  3.2654 -0.0615
 6423TIP3    H240905   0.687   3.586   7.964 -1.6982 -0.3935  1.2931
 6424TIP3   OH240906   3.938   5.864   7.083  0.6040 -0.4631 -0.0777
 6424TIP3    H140907   3.972   5.943   7.040  0.2095 -0.4971 -0.4542
 6424TIP3    H240908   3.848   5.856   7.052  0.1125 -0.1628  1.1994
 6425TIP3   OH240909   6.067   1.669   8.644 -0.6096 -0.1035  0.2199
 6425TIP3    H140910   6.048   1.726   8.719 -0.3014 -0.5207  0.6192
 6425TIP3    H240911   5.985   1.622   8.628 -0.5956 -0.2162  0.4752
 6426TIP3   OH240912   1.410   3.538   8.689  0.0731  0.3712  0.0553
 6426TIP3    H140913   1.467   3.494   8.751  0.3559 -0.7964 -0.9882
 6426TIP3    H240914   1.425   3.493   8.606 -1.7275  0.5977 -0.4487
 6427TIP3   OH240915   4.169   6.088   0.095  0.0128  0.5650  0.8365
 6427TIP3    H140916   4.177   6.162   0.034  0.5880 -0.2120 -0.0721
 6427TIP3    H240917   4.258   6.053   0.101 -0.1194  0.3733  1.8210
 6428TIP3   OH240918   3.726   3.164   0.455 -1.0317 -0.0171 -0.1558
 6428TIP3    H140919   3.727   3.248   0.501  1.1960 -0.6074  1.0325
 6428TIP3    H240920   3.780   3.180   0.377  0.9775 -0.7463  1.0137
 6429TIP3   OH240921   3.025   0.915   0.335 -0.2253  0.4616  0.2518
 6429TIP3    H140922   2.952   0.888   0.279 -0.1195  0.6630  0.0107
 6429TIP3    H240923   3.082   0.839   0.339 -0.1689  0.4852 -0.0269
 6430TIP3   OH240924   6.265   4.178   7.742  0.2226  0.5356  0.4762
 6430TIP3    H140925   6.237   4.268   7.758 -0.2709  0.0693  2.5994
 6430TIP3    H240926   6.359   4.178   7.757  0.1610  0.6341  0.8753
 6431TIP3   OH240927   0.002   4.595   7.299 -0.4713 -0.0647  0.2751
 6431TIP3    H140928   0.079   4.642   7.331  2.5740 -1.9137 -3.4694
 6431TIP3    H240929  -0.029   4.545   7.375  1.4607  1.3652  2.1290
 6432TIP3   OH240930   4.310   1.569   8.128 -0.2083  0.1402  0.3702
 6432TIP3    H140931   4.288   1.531   8.214  2.3369  0.9564  1.4673
 6432TIP3    H240932   4.267   1.654   8.128 -0.8320 -0.1621  0.4898
 6433TIP3   OH240933   4.655   0.995   8.127  0.0189  0.3332 -0.0605
 6433TIP3    H140934   4.656   0.962   8.038  0.4638  0.2114 -0.0124
 6433TIP3    H240935   4.569   1.036   8.137 -1.2393 -2.2725  0.4141
 6434TIP3   OH240936   1.198   1.416   1.014  0.0221 -0.7695  0.3906
 6434TIP3    H140937   1.223   1.454   0.930  0.7591  1.9874  1.7616
 6434TIP3    H240938   1.252   1.337   1.021  3.7278  1.5343  0.3700
 6435TIP3   OH240939   4.506   5.175   0.062  0.8054 -0.2100 -0.3306
 6435TIP3    H140940   4.411   5.187   0.059  0.8136  0.2933  0.8501
 6435TIP3    H240941   4.521   5.090   0.020 -0.2580 -0.6929  0.2294
 6436TIP3   OH240942   5.209   0.957   2.426  0.5971  0.4508 -0.2149
 6436TIP3    H140943   5.251   1.027   2.477  1.2508  0.0654 -0.2118
 6436TIP3    H240944   5.176   0.896   2.492 -1.3341  1.4896 -0.1580
 6437TIP3   OH240945   4.239   2.130   0.370  0.1580 -0.3088  0.0717
 6437TIP3    H140946   4.301   2.104   0.439 -1.9357  0.1612  2.2836
 6437TIP3    H240947   4.215   2.219   0.393 -2.3648 -0.9470  0.1344
 6438TIP3   OH240948   3.328   3.637   0.254  0.3972 -0.2006 -0.4204
 6438TIP3    H140949   3.409   3.687   0.266 -1.1822  2.2992  0.7961
 6438TIP3    H240950   3.292   3.668   0.171  0.1868 -0.5409 -0.4585
 6439TIP3   OH240951   6.636   0.284   6.865  0.2731  0.1691 -0.0670
 6439TIP3    H140952   6.541   0.296   6.857  0.3906  2.0541  0.8593
 6439TIP3    H240953   6.648   0.245   6.951  0.3653  0.4416  0.0451
 6440TIP3   OH240954   3.068   2.734   0.854 -0.0245 -0.3548  0.0177
 6440TIP3    H140955   3.142   2.678   0.831  0.1661 -0.1727  0.1845
 6440TIP3    H240956   2.997   2.705   0.796 -0.0603 -1.0736  0.4221
 6441TIP3   OH240957   2.653   2.727   8.624 -0.2678 -0.8399  0.4957
 6441TIP3    H140958   2.658   2.769   8.538 -0.3992  1.4629  1.5377
 6441TIP3    H240959   2.596   2.651   8.610 -0.1267 -0.6417 -1.4766
 6442TIP3   OH240960   2.421   3.213   2.129  0.7314  0.3545  0.3121
 6442TIP3    H140961   2.453   3.155   2.060  2.1179 -0.6192  1.7061
 6442TIP3    H240962   2.416   3.299   2.089  0.5021 -0.3608 -1.2672
 6443TIP3   OH240963   3.197   4.210   7.517  0.3456 -0.5939  0.0604
 6443TIP3    H140964   3.234   4.276   7.576  1.0991  0.4435 -1.4826
 6443TIP3    H240965   3.103   4.215   7.532  0.5248 -0.4106  1.2132
 6444TIP3   OH240966   3.322   2.257   8.741  0.4384 -0.3485  0.3406
 6444TIP3    H140967   3.308   2.165   8.765 -0.1179 -0.2544  0.3775
 6444TIP3    H240968   3.234   2.292   8.728  0.6647 -0.8345 -3.5700
 6445TIP3   OH240969   3.369   0.787   1.210 -0.3511 -0.0283 -0.0546
 6445TIP3    H140970   3.360   0.750   1.298 -1.3214  1.1453  0.3609
 6445TIP3    H240971   3.358   0.881   1.222  2.4230  0.5284 -1.0259
 6446TIP3   OH240972   4.000   4.037   6.956  0.1114  0.1001  0.5735
 6446TIP3    H140973   4.041   4.122   6.944  0.9479 -0.3344  0.3037
 6446TIP3    H240974   4.046   3.979   6.895  0.6888 -0.9157  1.9155
 6447TIP3   OH240975   0.906   3.761   0.522  0.2752 -0.4644  0.1017
 6447TIP3    H140976   0.887   3.704   0.596  2.1687 -0.3129  0.7453
 6447TIP3    H240977   0.859   3.842   0.541  1.3011 -0.1755  1.5028
 6448TIP3   OH240978   0.450   4.925   1.558 -0.3328 -0.0633 -0.4656
 6448TIP3    H140979   0.413   4.899   1.474  1.4089 -1.5891 -0.8142
 6448TIP3    H240980   0.521   4.863   1.574 -0.8875 -0.1133  2.3601
 6449TIP3   OH240981   2.325   5.194   0.356  0.0270  0.3662  0.0035
 6449TIP3    H140982   2.400   5.253   0.358  1.4169 -1.2845 -0.4012
 6449TIP3    H240983   2.285   5.207   0.271  0.9751 -0.0080 -0.5150
 6450TIP3   OH240984   6.029   5.184   7.067  0.0268 -0.0070  0.2594
 6450TIP3    H140985   5.975   5.172   7.146  1.9276 -0.4553  1.5728
 6450TIP3    H240986   6.078   5.265   7.084  0.4774 -0.1204 -0.4662
 6451TIP3   OH240987   3.714   3.737   1.868  0.6164 -0.2775 -0.1156
 6451TIP3    H140988   3.667   3.735   1.951  2.3998 -2.7267  0.9710
 6451TIP3    H240989   3.752   3.824   1.864 -2.8489  1.3650 -0.4735
 6452TIP3   OH240990   3.865   5.003   6.839  0.2997 -0.4667  0.2596
 6452TIP3    H140991   3.828   4.993   6.927 -0.5137 -4.9430 -0.3640
 6452TIP3    H240992   3.790   4.991   6.780  1.0656  1.0773 -1.0902
 6453TIP3   OH240993   1.602   3.961   6.875 -0.3647  0.4093  0.5446
 6453TIP3    H140994   1.691   3.995   6.875  0.2250 -0.9903 -1.0233
 6453TIP3    H240995   1.546   4.039   6.871  0.5995  1.4657  3.8741
 6454TIP3   OH240996   6.316   4.853   8.136  0.1569  0.2511 -0.2871
 6454TIP3    H140997   6.347   4.912   8.204 -1.1849 -0.3341  0.8678
 6454TIP3    H240998   6.254   4.795   8.180  0.5674 -1.2874 -1.6345
 6455TIP3   OH240999   5.711   6.278   1.732 -0.1807  0.2455  0.3281
 6455TIP3    H141000   5.660   6.312   1.806  1.0385  0.2716  1.1803
 6455TIP3    H241001   5.799   6.265   1.767  0.8024  1.5852 -1.4627
 6456TIP3   OH241002   5.684   4.017   7.988 -0.4652 -0.2260 -0.5667
 6456TIP3    H141003   5.724   4.039   7.903  2.2217  0.1418  0.6747
 6456TIP3    H241004   5.654   3.927   7.978  0.1345 -0.3123 -1.7970
 6457TIP3   OH241005   1.333   3.298   1.575  0.2149  0.3160  0.0500
 6457TIP3    H141006   1.401   3.357   1.542 -0.8580  1.5609 -0.0113
 6457TIP3    H241007   1.327   3.319   1.669 -0.3179  0.4626 -0.0130
 6458TIP3   OH241008   5.461   4.105   0.548 -0.8299 -0.8485  0.1643
 6458TIP3    H141009   5.393   4.172   0.556 -0.6659 -0.8215  1.5992
 6458TIP3    H241010   5.431   4.034   0.605  0.8753 -0.3530  1.7922
 6459TIP3   OH241011   3.955   2.568   1.677 -0.1185 -0.5693 -0.9327
 6459TIP3    H141012   3.921   2.553   1.765  0.7515  1.4840 -0.1683
 6459TIP3    H241013   3.879   2.599   1.627 -0.4536 -1.0110 -0.7062
 6460TIP3   OH241014   4.551   4.320   6.979 -0.2889 -0.3875  0.0032
 6460TIP3    H141015   4.591   4.241   6.943  1.5145  1.2589 -1.8634
 6460TIP3    H241016   4.625   4.374   7.007 -1.3423  1.4268 -0.5434
 6461TIP3   OH241017   1.023   1.902   2.095 -0.2012 -0.2359 -0.1243
 6461TIP3    H141018   1.010   1.858   2.179  1.0597 -0.9375 -0.2602
 6461TIP3    H241019   1.038   1.993   2.118  1.6768 -0.6737  0.5921
 6462TIP3   OH241020   1.333   1.429   1.729 -0.0528  0.2047 -0.2365
 6462TIP3    H141021   1.367   1.370   1.797  0.0562  0.4911 -0.0412
 6462TIP3    H241022   1.365   1.391   1.647 -0.9428 -0.6542 -0.2017
 6463TIP3   OH241023   5.323   5.514   8.582  0.1926 -0.5045  0.1065
 6463TIP3    H141024   5.370   5.565   8.516 -1.5671 -0.1547 -0.9550
 6463TIP3    H241025   5.367   5.429   8.583  0.7043 -0.2734 -1.0173
 6464TIP3   OH241026   1.557   3.381   1.419 -0.3926  0.1768  0.2416
 6464TIP3    H141027   1.645   3.370   1.454  0.7890 -2.3922 -2.9744
 6464TIP3    H241028   1.559   3.466   1.375  1.2988 -0.7439 -1.6043
 6465TIP3   OH241029   2.632   0.208   8.247 -0.0486  0.0281  0.3140
 6465TIP3    H141030   2.680   0.286   8.276  0.2369 -0.5898  1.5762
 6465TIP3    H241031   2.695   0.137   8.253 -0.0030 -0.1846 -1.8067
 6466TIP3   OH241032   4.886   4.208   8.542  0.2045  0.7943  0.6675
 6466TIP3    H141033   4.801   4.166   8.528  1.2900 -1.6361  0.9066
 6466TIP3    H241034   4.891   4.222   8.637  0.6486 -0.4983  0.8600
 6467TIP3   OH241035   6.449   5.704   1.558 -0.1990  0.4396  0.1046
 6467TIP3    H141036   6.422   5.746   1.640  0.9994  0.5563  0.4612
 6467TIP3    H241037   6.384   5.733   1.494 -0.2724  1.5961  0.6789
 6468TIP3   OH241038   6.744   0.160   7.782 -0.1125 -0.0605 -0.4952
 6468TIP3    H141039   6.700   0.197   7.705 -2.5960  2.2856  1.8527
 6468TIP3    H241040   6.779   0.235   7.829  0.2634 -1.2910  1.3264
 6469TIP3   OH241041   4.654   2.224   0.790 -0.0573  0.6453 -0.3042
 6469TIP3    H141042   4.749   2.232   0.780 -0.0850  1.7273  0.1620
 6469TIP3    H241043   4.618   2.274   0.716 -0.2570  0.8854 -0.0467
 6470TIP3   OH241044   2.595   5.541   8.306 -0.0749  0.0355  0.0877
 6470TIP3    H141045   2.593   5.519   8.213 -1.5908 -0.6836  0.2630
 6470TIP3    H241046   2.557   5.629   8.310  1.6100  0.8179 -0.1178
 6471TIP3   OH241047   3.876   3.574   8.678 -0.0719  0.5786  0.1745
 6471TIP3    H141048   3.903   3.627   8.753 -2.8241  0.5550  1.2998
 6471TIP3    H241049   3.947   3.510   8.667  1.3914  1.9206  1.3603
 6472TIP3   OH241050   2.487   4.588   6.431  0.3247  0.2454  0.2238
 6472TIP3    H141051   2.573   4.621   6.459  0.0331 -0.4647  2.0659
 6472TIP3    H241052   2.489   4.495   6.453 -0.2889 -0.1949 -1.3969
 6473TIP3   OH241053   1.210   3.575   7.848 -0.2686 -0.3333  0.8714
 6473TIP3    H141054   1.231   3.520   7.924  0.6201  1.6924  2.1594
 6473TIP3    H241055   1.153   3.643   7.883 -2.7214 -1.2481 -1.0252
 6474TIP3   OH241056   2.117   4.062   0.290  0.0317  0.1783  0.3350
 6474TIP3    H141057   2.125   3.967   0.284  0.9682  0.2165  0.7654
 6474TIP3    H241058   2.024   4.080   0.276  0.0766 -0.6826 -1.1970
 6475TIP3   OH241059   2.546   0.077   1.017  0.0091 -0.1577  0.4754
 6475TIP3    H141060   2.600   0.008   1.056  3.0413  1.2624 -0.9213
 6475TIP3    H241061   2.516   0.129   1.092  2.3716  0.2054  1.2421
 6476TIP3   OH241062   5.261   2.087   8.681 -0.8304 -0.4702  0.3124
 6476TIP3    H141063   5.254   1.997   8.714 -0.1286 -0.7276 -0.2232
 6476TIP3    H241064   5.227   2.141   8.753 -1.7373 -1.1868  0.4474
 6477TIP3   OH241065   0.170   5.728   1.469  0.2532 -0.1511  0.0079
 6477TIP3    H141066   0.092   5.752   1.421  0.5926 -0.0128 -0.4829
 6477TIP3    H241067   0.219   5.671   1.409  1.3337  1.1049 -0.3605
 6478TIP3   OH241068   1.348   0.628   8.663  0.5379 -0.2098  0.0577
 6478TIP3    H141069   1.266   0.641   8.616  0.5589  1.2809  0.3900
 6478TIP3    H241070   1.350   0.534   8.683 -1.4936 -0.1459  0.7624
 6479TIP3   OH241071   3.053   6.391   1.200  0.1469 -0.4162 -0.6783
 6479TIP3    H141072   3.016   6.303   1.195  1.0184 -0.7862 -0.7716
 6479TIP3    H241073   3.085   6.409   1.112  0.0620 -0.0364 -0.6368
 6480TIP3   OH241074   4.971   3.068   1.042  0.2393  0.4737 -0.3705
 6480TIP3    H141075   4.980   3.111   1.127 -0.8739  0.8436 -0.4153
 6480TIP3    H241076   5.016   2.985   1.052  1.3291  1.1015  0.1297
 6481TIP3   OH241077   2.534   2.919   8.070  0.3858 -0.5636 -0.5958
 6481TIP3    H141078   2.568   2.871   7.995 -0.2656 -0.9187 -0.6631
 6481TIP3    H241079   2.440   2.920   8.059  0.2719 -0.6663  0.2404
 6482TIP3   OH241080   0.593   6.397   2.773 -0.0183  0.6675 -0.5138
 6482TIP3    H141081   0.634   6.428   2.692  1.5211  0.5739  0.1995
 6482TIP3    H241082   0.632   6.312   2.789 -0.2854  0.6994  0.3473
 6483TIP3   OH241083   4.588   6.654   1.505 -0.1200 -0.0093 -0.5693
 6483TIP3    H141084   4.544   6.696   1.578 -0.3519 -0.1920 -0.6013
 6483TIP3    H241085   4.615   6.569   1.539  2.2547  0.9488  0.1653
 6484TIP3   OH241086   5.537   5.716   1.526  0.7932  0.6051  0.0632
 6484TIP3    H141087   5.582   5.632   1.539  0.1137  0.3942  1.2711
 6484TIP3    H241088   5.556   5.766   1.606 -1.8121  0.1414  1.0693
 6485TIP3   OH241089   2.049   6.534   6.528  0.0946  0.4272 -0.0573
 6485TIP3    H141090   2.036   6.627   6.548 -1.6688  0.1059  0.5086
 6485TIP3    H241091   2.025   6.489   6.608  0.8155 -0.5318 -0.3692
 6486TIP3   OH241092   5.089   5.639   0.981 -0.0175  0.4333  0.2288
 6486TIP3    H141093   5.183   5.637   1.002  0.1020  0.4472 -0.2872
 6486TIP3    H241094   5.049   5.584   1.048  0.4086  0.1217  0.2354
 6487TIP3   OH241095   3.240   2.584   0.694  0.1006  0.8460 -0.3045
 6487TIP3    H141096   3.204   2.530   0.624 -0.5273  0.9907 -0.0968
 6487TIP3    H241097   3.335   2.574   0.685  0.0529 -2.2434  1.1934
 6488TIP3   OH241098   2.468   3.125   1.082  0.1512  0.0414 -0.2478
 6488TIP3    H141099   2.459   3.206   1.031 -0.9981 -1.3309 -2.3864
 6488TIP3    H241100   2.562   3.107   1.083  0.3246  0.8931 -0.5905
 6489TIP3   OH241101   5.036   0.403   7.924  0.1626  0.3750  0.7883
 6489TIP3    H141102   4.987   0.370   7.849  1.6712 -0.7549  0.2547
 6489TIP3    H241103   5.097   0.467   7.886  0.6735  0.0829  1.1093
 6490TIP3   OH241104   3.007   3.834   0.169 -0.1319  0.2572  0.3113
 6490TIP3    H141105   3.057   3.780   0.108 -1.3055  1.6776 -2.0267
 6490TIP3    H241106   2.932   3.779   0.194 -0.8879  0.4569 -1.4103
 6491TIP3   OH241107   1.710   2.145   8.465 -0.0505 -0.3091 -0.4940
 6491TIP3    H141108   1.801   2.116   8.470  0.2491  0.2751 -1.9123
 6491TIP3    H241109   1.671   2.089   8.398  0.0034  1.1111 -1.7807
 6492TIP3   OH241110   0.195   5.707   0.535 -0.2818 -0.0078 -0.1915
 6492TIP3    H141111   0.260   5.683   0.601 -0.7588 -1.1581 -0.1094
 6492TIP3    H241112   0.244   5.757   0.470  0.9846 -1.8680 -0.7676
 6493TIP3   OH241113   3.343   0.636   8.700 -0.3768 -0.0479  0.2138
 6493TIP3    H141114   3.336   0.718   8.750 -0.5560 -1.2513  2.2700
 6493TIP3    H241115   3.430   0.639   8.661  0.1171  0.5618  1.3217
 6494TIP3   OH241116   1.640   5.803   1.779 -1.0289 -0.2163  0.2549
 6494TIP3    H141117   1.617   5.737   1.844  2.3523 -0.8537  1.0185
 6494TIP3    H241118   1.620   5.886   1.822  0.9060 -0.6239  2.1946
 6495TIP3   OH241119   1.649   0.007   0.997  0.0573  0.0900 -0.3059
 6495TIP3    H141120   1.712  -0.065   0.996  0.1441  0.1563  0.1306
 6495TIP3    H241121   1.666   0.055   0.916 -0.2147 -0.5640 -0.7509
 6496TIP3   OH241122   5.235   4.373   0.296  0.2488 -0.2387 -0.1873
 6496TIP3    H141123   5.223   4.358   0.389 -0.7995 -0.6424 -0.3667
 6496TIP3    H241124   5.206   4.292   0.254  0.9134 -0.1440 -0.8590
 6497TIP3   OH241125   5.674   6.202   0.825  0.0809  0.8845  0.5522
 6497TIP3    H141126   5.582   6.178   0.838 -0.0031 -0.8821 -2.4541
 6497TIP3    H241127   5.720   6.119   0.815  1.3095  1.7437 -1.7915
 6498TIP3   OH241128   6.503   6.373   7.678  0.1680  0.1541  0.2777
 6498TIP3    H141129   6.535   6.436   7.744  2.4129 -0.1465 -0.4411
 6498TIP3    H241130   6.488   6.426   7.600  3.3034 -0.2416 -0.7311
 6499TIP3   OH241131   1.848   1.956   0.171 -0.4737 -0.0858  0.0325
 6499TIP3    H141132   1.782   2.025   0.173 -0.1768  0.2040 -0.0892
 6499TIP3    H241133   1.836   1.914   0.086 -0.6795 -0.2122  0.1225
 6500TIP3   OH241134   4.827   5.864   7.601 -0.7341  0.5163  0.0872
 6500TIP3    H141135   4.810   5.772   7.619 -0.3325  0.7365  1.7635
 6500TIP3    H241136   4.767   5.912   7.659 -2.1384  1.3623 -1.9440
 6501TIP3   OH241137   4.580   1.191   0.896  0.2860 -0.0733 -0.1720
 6501TIP3    H141138   4.661   1.140   0.900  1.3073  1.4670 -0.4752
 6501TIP3    H241139   4.549   1.180   0.806  0.4996 -0.1603 -0.2358
 6502TIP3   OH241140   6.537   1.482   0.521  0.1166 -0.3526  0.1974
 6502TIP3    H141141   6.456   1.484   0.470 -0.4944 -0.1206  1.1376
 6502TIP3    H241142   6.516   1.425   0.596  0.9604 -0.6303  0.2321
 6503TIP3   OH241143   2.926   4.493   0.574  0.1022  0.3992  0.6137
 6503TIP3    H141144   2.927   4.548   0.652 -0.1643 -0.3444  1.1601
 6503TIP3    H241145   2.835   4.464   0.566  0.0655  0.7089 -0.1532
 6504TIP3   OH241146   6.020   6.611   7.264  0.3470  0.0484  0.2431
 6504TIP3    H141147   6.109   6.645   7.273  0.2944  0.2807 -0.0781
 6504TIP3    H241148   6.026   6.519   7.288  0.8704 -0.1898 -0.7394
 6505TIP3   OH241149   3.183   3.141   6.649 -0.1166 -0.3432 -0.4754
 6505TIP3    H141150   3.255   3.103   6.599  0.5048  1.9824 -1.4693
 6505TIP3    H241151   3.104   3.106   6.606  0.3630 -2.1327  0.0043
 6506TIP3   OH241152   0.140   2.650   0.630  0.0931 -0.8932  0.0504
 6506TIP3    H141153   0.222   2.605   0.609  1.1954  1.8421 -2.1260
 6506TIP3    H241154   0.100   2.668   0.545 -0.2293  2.1835  0.7330
 6507TIP3   OH241155   2.869   0.065   0.242  0.0031  0.0724  0.2038
 6507TIP3    H141156   2.905  -0.021   0.261 -0.8177 -0.7834 -1.7927
 6507TIP3    H241157   2.781   0.048   0.208  0.1283  1.6038 -1.0467
 6508TIP3   OH241158   2.709   6.177   0.185  0.5034  0.0217 -0.1484
 6508TIP3    H141159   2.640   6.242   0.193  0.3457 -0.1021 -0.5030
 6508TIP3    H241160   2.667   6.103   0.140  0.7295 -0.2492  0.0812
 6509TIP3   OH241161   4.393   1.899   0.508  0.3380 -0.2864 -0.0583
 6509TIP3    H141162   4.302   1.900   0.535  0.5604  0.8692  0.7587
 6509TIP3    H241163   4.436   1.840   0.570  0.2875 -0.1409  0.1184
 6510TIP3   OH241164   4.822   4.938   6.897 -0.1328  0.0213 -0.9136
 6510TIP3    H141165   4.728   4.926   6.885 -0.1604  0.0329 -0.7177
 6510TIP3    H241166   4.860   4.914   6.813 -0.3253  0.1937 -1.0526
 6511TIP3   OH241167   0.319   2.896   1.566  0.5161 -0.4065  0.0171
 6511TIP3    H141168   0.283   2.819   1.610 -0.9526  0.0948 -0.2499
 6511TIP3    H241169   0.407   2.906   1.603 -0.0616 -0.9572  1.6345
 6512TIP3   OH241170   6.341   3.519   7.794  0.4312  0.2588  0.8170
 6512TIP3    H141171   6.331   3.428   7.823  0.8811 -0.8358 -2.1171
 6512TIP3    H241172   6.252   3.552   7.789  0.2115 -0.2459  1.2411
 6513TIP3   OH241173   4.812   6.206   7.540 -0.4820  0.8200  0.1423
 6513TIP3    H141174   4.756   6.140   7.499  1.3005 -0.1553 -0.8292
 6513TIP3    H241175   4.817   6.277   7.476 -1.7468  1.6006  0.8542
 6514TIP3   OH241176   0.316   1.293   8.125 -0.3536 -0.3324 -0.0702
 6514TIP3    H141177   0.395   1.296   8.070 -0.1624 -0.1498  0.2094
 6514TIP3    H241178   0.342   1.239   8.200 -0.2006  0.4702  0.4685
 6515TIP3   OH241179   4.806   5.718   8.161  0.0455  0.2089 -0.0805
 6515TIP3    H141180   4.768   5.715   8.073  0.0925 -1.6337 -0.0937
 6515TIP3    H241181   4.867   5.792   8.159 -0.4147  0.5734 -1.3995
 6516TIP3   OH241182   0.641   4.589   0.531 -0.5271  0.7573  0.2129
 6516TIP3    H141183   0.694   4.562   0.606 -0.3731 -1.8249 -0.7242
 6516TIP3    H241184   0.701   4.588   0.457 -1.0655  1.5268 -0.2513
 6517TIP3   OH241185   2.332   5.714   8.539 -0.2049  0.2340  0.2096
 6517TIP3    H141186   2.348   5.757   8.623  0.0333 -1.7412  1.2242
 6517TIP3    H241187   2.273   5.774   8.493 -0.2242  1.4397  1.7171
 6518TIP3   OH241188   4.868   0.689   7.943 -0.1417 -0.9601 -0.2987
 6518TIP3    H141189   4.908   0.759   7.891 -0.8517 -0.2873  0.0442
 6518TIP3    H241190   4.940   0.629   7.962  0.7597  0.3328  0.5050
 6519TIP3   OH241191   5.803   6.288   8.651  0.2306  0.2459  0.0133
 6519TIP3    H141192   5.881   6.305   8.599 -1.8363 -1.8414 -4.2827
 6519TIP3    H241193   5.785   6.195   8.638 -2.4404  0.4240  1.6755
 6520TIP3   OH241194   3.260   5.739   1.157 -0.1588  1.2199  0.1577
 6520TIP3    H141195   3.277   5.664   1.215 -0.5964  0.8610 -0.1718
 6520TIP3    H241196   3.169   5.727   1.129 -0.2046  1.8363  0.0418
 6521TIP3   OH241197   5.203   1.661   0.960  0.0183  0.2952  0.2638
 6521TIP3    H141198   5.246   1.635   1.042  1.3713  1.2212 -0.1205
 6521TIP3    H241199   5.263   1.630   0.891 -0.6899  0.2714 -0.3565
 6522TIP3   OH241200   1.257   5.353   7.464 -0.6086  0.7107  0.2428
 6522TIP3    H141201   1.189   5.399   7.415 -0.5728 -0.1618 -0.6440
 6522TIP3    H241202   1.335   5.358   7.408 -0.5981 -0.4016  0.1420
 6523TIP3   OH241203   6.161   1.246   0.661  0.1465 -0.5265  0.3164
 6523TIP3    H141204   6.091   1.216   0.603  1.0169 -0.6498 -0.7051
 6523TIP3    H241205   6.241   1.210   0.622  0.6714 -1.4145  2.1401
 6524TIP3   OH241206   5.102   4.734   7.890  0.4876  0.3973  0.3322
 6524TIP3    H141207   5.056   4.725   7.974  1.5484 -1.4905  0.7819
 6524TIP3    H241208   5.034   4.723   7.824  0.1260 -1.9742  0.9861
 6525TIP3   OH241209   4.831   0.262   7.721  0.1586  0.6330  0.0219
 6525TIP3    H141210   4.767   0.223   7.780 -1.3198 -0.4796 -2.1540
 6525TIP3    H241211   4.840   0.199   7.650  0.1175  2.7873 -2.0426
 6526TIP3   OH241212   4.967   3.741   8.038 -0.3339  0.0973 -0.2200
 6526TIP3    H141213   4.887   3.789   8.058 -1.6084 -1.6937 -0.6541
 6526TIP3    H241214   5.003   3.716   8.123  0.4278  1.8687  0.0102
 6527TIP3   OH241215   3.060   3.880   2.407 -0.0864  0.6696 -0.1571
 6527TIP3    H141216   3.021   3.965   2.386 -2.5981  0.1005  1.7349
 6527TIP3    H241217   2.985   3.819   2.409  1.3992 -1.2508  0.2225
 6528TIP3   OH241218   4.451   3.196   0.777  0.0161 -0.7069 -0.1765
 6528TIP3    H141219   4.452   3.289   0.755 -0.1917 -1.1221 -2.1338
 6528TIP3    H241220   4.529   3.160   0.733 -1.7643 -2.0145 -2.5194
 6529TIP3   OH241221   6.268   6.383   1.604 -0.6292 -0.6062 -0.3301
 6529TIP3    H141222   6.339   6.445   1.589  0.1031 -0.7546  2.1459
 6529TIP3    H241223   6.278   6.318   1.534 -1.1210  1.6763 -2.7101
 6530TIP3   OH241224   6.303   5.107   8.730 -0.7319  0.0326  0.0966
 6530TIP3    H141225   6.276   5.015   8.733 -1.4425  0.2083 -0.3784
 6530TIP3    H241226   6.318   5.131   8.821  1.2796 -1.0528  0.0969
 6531TIP3   OH241227   4.379   5.342   1.854 -0.1343  0.4309  0.0615
 6531TIP3    H141228   4.355   5.352   1.947 -1.9022 -0.7011 -0.2184
 6531TIP3    H241229   4.312   5.283   1.819  0.3391  1.0675 -2.0158
 6532TIP3   OH241230   3.149   1.822   2.191 -0.3568  0.0970 -0.0584
 6532TIP3    H141231   3.139   1.835   2.285 -1.6125  0.5069 -0.2344
 6532TIP3    H241232   3.110   1.900   2.152 -0.6571 -0.4804 -0.9408
 6533TIP3   OH241233   2.258   5.924   7.888  0.2199  0.2552 -0.0578
 6533TIP3    H141234   2.192   5.867   7.848 -0.7102 -0.1151  1.8814
 6533TIP3    H241235   2.335   5.869   7.898  0.9264  0.6989 -2.3699
 6534TIP3   OH241236   5.246   3.188   6.713 -0.6094  0.0397  0.4821
 6534TIP3    H141237   5.234   3.277   6.747 -1.4846  0.1432 -0.0678
 6534TIP3    H241238   5.222   3.194   6.621  2.1227 -0.1391 -0.3472
 6535TIP3   OH241239   3.213   2.641   8.326  0.0169  0.0926  0.8358
 6535TIP3    H141240   3.117   2.640   8.327 -0.0953  1.2768 -1.6130
 6535TIP3    H241241   3.238   2.549   8.318 -0.9896 -0.1159 -0.1135
 6536TIP3   OH241242   3.662   2.478   8.753  0.2355 -0.0251  0.2610
 6536TIP3    H141243   3.575   2.493   8.789  0.8940  1.1058  1.4772
 6536TIP3    H241244   3.648   2.464   8.660 -1.2331  0.2966  0.4190
 6537TIP3   OH241245   4.457   1.947   8.569  0.1533  0.1642  0.4967
 6537TIP3    H141246   4.509   1.867   8.570 -0.6547 -0.3682  0.8360
 6537TIP3    H241247   4.511   2.010   8.522  0.4455 -0.8139 -0.5157
 6538TIP3   OH241248   5.550   2.332   7.201 -0.3903  0.0443  0.2332
 6538TIP3    H141249   5.588   2.248   7.173 -2.0347 -0.9292  0.7959
 6538TIP3    H241250   5.493   2.358   7.129  0.5066  0.9799 -0.1651
 6539TIP3   OH241251   0.696   3.979   8.566 -0.6775  0.6145 -0.4441
 6539TIP3    H141252   0.601   3.984   8.558 -0.7216  0.5360 -0.0360
 6539TIP3    H241253   0.728   3.968   8.477 -0.9720  1.8013 -0.7151
 6540TIP3   OH241254   1.945   3.516   2.295 -0.2042  0.0372 -0.2298
 6540TIP3    H141255   1.906   3.443   2.343  2.4600 -0.6554  1.0960
 6540TIP3    H241256   1.900   3.593   2.329  0.0614 -0.6406  1.8155
 6541TIP3   OH241257   5.831   2.244   1.101 -0.7290  0.6469 -0.1071
 6541TIP3    H141258   5.898   2.175   1.107 -0.2937  0.9895 -0.9028
 6541TIP3    H241259   5.765   2.208   1.041  0.2429  1.4892 -1.7591
 6542TIP3   OH241260   5.978   0.447   1.208 -0.1869  0.1076  0.6399
 6542TIP3    H141261   5.975   0.472   1.116 -1.1525  0.5368  0.7743
 6542TIP3    H241262   5.891   0.469   1.242  0.6490  1.4568  2.0517
 6543TIP3   OH241263   2.321   0.637   0.834 -0.2448  0.6631 -0.4667
 6543TIP3    H141264   2.360   0.657   0.919  1.0661 -0.1050 -0.8597
 6543TIP3    H241265   2.252   0.574   0.854  0.5761 -0.1269 -0.0265
 6544TIP3   OH241266   3.276   1.249   2.022  0.6386 -0.3070  0.2986
 6544TIP3    H141267   3.195   1.206   1.996 -0.4863  1.8287  0.0113
 6544TIP3    H241268   3.288   1.225   2.114 -1.0327  0.2907  0.7187
 6545TIP3   OH241269   0.960   1.928   1.823 -0.0689 -0.3875 -0.0905
 6545TIP3    H141270   1.026   1.996   1.809  0.8593 -1.3170 -0.4168
 6545TIP3    H241271   0.969   1.905   1.915  0.3334 -0.7657 -0.2186
 6546TIP3   OH241272   4.376   3.305   7.112 -0.0591  0.9104 -0.0120
 6546TIP3    H141273   4.433   3.381   7.103  0.7041  0.2943 -0.5088
 6546TIP3    H241274   4.403   3.263   7.194 -0.2595  0.9827  0.0939
 6547TIP3   OH241275   1.204   5.540   0.981 -0.5662  0.2347 -0.4872
 6547TIP3    H141276   1.143   5.550   1.054  1.2444  1.7030  0.9148
 6547TIP3    H241277   1.225   5.446   0.981 -2.7896 -0.3081 -1.0351
 6548TIP3   OH241278   5.683   6.837   7.494 -0.3417 -0.3764 -0.2699
 6548TIP3    H141279   5.688   6.811   7.586  0.3546 -0.3245 -0.2879
 6548TIP3    H241280   5.589   6.836   7.474 -0.7998  2.3127  1.2195
 6549TIP3   OH241281   3.477   5.794   8.525 -0.1230  0.3461 -0.4943
 6549TIP3    H141282   3.545   5.800   8.458 -1.1331 -0.1303 -1.6083
 6549TIP3    H241283   3.400   5.834   8.485 -0.6689  0.3344  0.5057
 6550TIP3   OH241284   3.803   1.820   0.153 -0.1572 -0.5705  0.0834
 6550TIP3    H141285   3.809   1.904   0.108  1.4613 -0.7410 -0.0694
 6550TIP3    H241286   3.854   1.760   0.100  2.1089 -0.7186  2.2385
 6551TIP3   OH241287   4.643   4.748   8.092  0.0837 -0.0049  0.2496
 6551TIP3    H141288   4.615   4.678   8.150  2.1010 -0.9297  0.1775
 6551TIP3    H241289   4.566   4.766   8.037 -1.3166 -0.2784  2.0168
 6552TIP3   OH241290   2.781   3.468   0.872 -0.1254  0.0162 -0.0940
 6552TIP3    H141291   2.867   3.427   0.874  0.0824  0.4483  0.1642
 6552TIP3    H241292   2.784   3.533   0.943 -0.2614  0.8139 -0.8012
 6553TIP3   OH241293   0.114   3.093   7.732 -0.3948 -0.5860  0.0211
 6553TIP3    H141294   0.167   3.015   7.746 -2.3068 -2.0293 -0.4030
 6553TIP3    H241295   0.084   3.087   7.642 -3.4073 -1.3007  0.9439
 6554TIP3   OH241296   0.385   6.821   0.118 -0.0857 -0.3342 -0.2020
 6554TIP3    H141297   0.348   6.907   0.099  1.4565 -0.0922 -2.4746
 6554TIP3    H241298   0.350   6.763   0.050 -0.6959 -1.4326  0.9911
 6555TIP3   OH241299   4.430   2.903   8.063  0.2731 -0.4248 -0.1432
 6555TIP3    H141300   4.416   2.945   8.147  0.6743  1.7260 -1.0608
 6555TIP3    H241301   4.519   2.929   8.038 -0.4421  0.5149 -1.9760
 6556TIP3   OH241302   3.007   6.847   1.271  0.1492 -0.1932  0.0943
 6556TIP3    H141303   3.078   6.838   1.334 -0.0638 -0.6006  0.2825
 6556TIP3    H241304   3.037   6.797   1.194  0.0582 -0.3900  0.1848
 6557TIP3   OH241305   2.402   3.989   7.446 -0.3456 -0.2033  0.2198
 6557TIP3    H141306   2.474   3.971   7.386  0.0051 -0.2594  0.6541
 6557TIP3    H241307   2.366   4.072   7.417  0.2769  0.1238  0.3659
 6558TIP3   OH241308   4.835   4.581   8.351  0.7387  0.3950  0.1572
 6558TIP3    H141309   4.871   4.493   8.343 -0.0073 -0.1431  2.2759
 6558TIP3    H241310   4.747   4.568   8.384  1.1946  1.9703  2.1623
 6559TIP3   OH241311   3.752   6.817   7.681  0.3911 -0.6449 -0.2905
 6559TIP3    H141312   3.836   6.852   7.709 -0.3090  0.6999  0.2618
 6559TIP3    H241313   3.690   6.845   7.749 -0.5030 -1.6066 -0.6722
 6560TIP3   OH241314   4.487   5.200   0.971 -0.2631  0.0145 -0.0800
 6560TIP3    H141315   4.405   5.231   1.008 -0.0952 -1.3160  1.5459
 6560TIP3    H241316   4.494   5.244   0.887 -0.6458  3.2985  1.4715
 6561TIP3   OH241317   3.693   2.926   0.586  0.1913  0.9581 -1.0434
 6561TIP3    H141318   3.773   2.919   0.637 -0.5388 -0.1588  0.0091
 6561TIP3    H241319   3.707   3.000   0.527  1.2604  1.9401  0.4169
 6562TIP3   OH241320   5.758   1.842   2.035  0.0692  0.4613 -0.4372
 6562TIP3    H141321   5.761   1.777   1.965  1.0853 -0.9429  0.8470
 6562TIP3    H241322   5.716   1.797   2.109  0.0286  1.5394  0.2254
 6563TIP3   OH241323   6.663   5.533   6.266  0.4160  0.1742  0.3488
 6563TIP3    H141324   6.681   5.619   6.228 -1.5805  1.8796  2.9518
 6563TIP3    H241325   6.736   5.519   6.326  0.7495  0.0009 -0.0854
 6564TIP3   OH241326   3.674   5.228   1.898  0.0422 -0.8544 -0.4139
 6564TIP3    H141327   3.589   5.186   1.907  0.5000 -1.6518  0.2188
 6564TIP3    H241328   3.736   5.167   1.937  0.7554  0.2659  0.2712
 6565TIP3   OH241329   5.008   1.286   7.032  0.1335  0.1673  0.2770
 6565TIP3    H141330   4.928   1.290   6.980 -0.3000 -0.7723  0.8478
 6565TIP3    H241331   4.999   1.359   7.095 -0.3600 -0.0400  0.4530
 6566TIP3   OH241332   1.405   5.671   1.660 -0.1175  0.2353 -0.1077
 6566TIP3    H141333   1.402   5.764   1.638 -0.8603  0.4777  0.9358
 6566TIP3    H241334   1.424   5.669   1.754  1.4347 -0.7201 -0.4026
 6567TIP3   OH241335   4.318   1.752   1.476  0.1999 -0.1822 -0.2964
 6567TIP3    H141336   4.363   1.784   1.554  3.1494 -0.3242 -1.7632
 6567TIP3    H241337   4.296   1.661   1.495 -0.7868  0.2994  0.9744
 6568TIP3   OH241338   4.618   5.216   0.358  0.1865 -0.1525 -0.3107
 6568TIP3    H141339   4.582   5.193   0.273  0.9770  0.6806 -0.8840
 6568TIP3    H241340   4.541   5.233   0.413 -0.3214  0.3665 -1.1621
 6569TIP3   OH241341   0.521   6.370   1.215 -0.1078 -0.3199  0.3732
 6569TIP3    H141342   0.503   6.301   1.279 -0.4708 -0.5063  0.0753
 6569TIP3    H241343   0.450   6.362   1.151 -0.2182  0.4002  0.3958
 6570TIP3   OH241344   6.530   3.987   2.450 -0.1290 -0.3637  0.0473
 6570TIP3    H141345   6.503   3.898   2.473  0.6460 -0.5315  0.3364
 6570TIP3    H241346   6.451   4.040   2.464 -0.2613 -0.7997  1.1028
 6571TIP3   OH241347   4.902   4.308   8.281 -0.1971  0.4289  0.3279
 6571TIP3    H141348   4.913   4.221   8.243  2.2527  0.9947 -0.4524
 6571TIP3    H241349   4.893   4.292   8.375 -2.3520 -0.7591 -0.0286
 6572TIP3   OH241350   1.267   5.494   8.444  0.1529 -0.1373 -0.3883
 6572TIP3    H141351   1.353   5.460   8.417 -0.0601 -0.3389 -0.8198
 6572TIP3    H241352   1.229   5.423   8.496  0.9571  0.6095  1.2935
 6573TIP3   OH241353   1.196   5.884   8.469 -0.0714 -0.4393  0.1089
 6573TIP3    H141354   1.220   5.970   8.504  3.8830 -0.5734 -1.7117
 6573TIP3    H241355   1.221   5.823   8.538  0.1864 -0.2646  0.1746
 6574TIP3   OH241356   0.514   0.658   0.081  0.4429 -0.1470  0.1942
 6574TIP3    H141357   0.508   0.576   0.032 -0.3262 -0.1062  0.2025
 6574TIP3    H241358   0.431   0.702   0.063  1.2020  1.0329 -0.5212
 6575TIP3   OH241359   4.600   6.032   8.000  0.5932  0.0978  0.0536
 6575TIP3    H141360   4.683   6.014   8.044 -0.0435  0.5964  1.5352
 6575TIP3    H241361   4.606   5.985   7.917  1.9191 -0.7543  0.5968
 6576TIP3   OH241362   6.649   3.014   0.736 -0.3951  0.0918 -0.4945
 6576TIP3    H141363   6.592   3.087   0.757  0.6256  0.2166  2.2424
 6576TIP3    H241364   6.591   2.947   0.700 -1.8313  1.1124 -0.1441
 6577TIP3   OH241365   4.312   4.526   6.995  0.0237  0.0998  0.0865
 6577TIP3    H141366   4.390   4.494   7.039  0.3681  1.2069  0.3010
 6577TIP3    H241367   4.264   4.447   6.971  1.4297 -0.6166 -0.4791
 6578TIP3   OH241368   4.716   6.648   8.792 -0.1374  0.1306  0.5259
 6578TIP3    H141369   4.677   6.646   8.879  0.3013  2.7480  0.8608
 6578TIP3    H241370   4.809   6.662   8.808 -0.3712  3.4195 -0.2722
 6579TIP3   OH241371   0.433   3.487   0.795  0.2073 -0.7462  0.0641
 6579TIP3    H141372   0.455   3.534   0.875  1.0023 -1.3627  0.2288
 6579TIP3    H241373   0.339   3.501   0.783  0.2396  0.0294  0.6502
 6580TIP3   OH241374   5.577   4.982   2.206  0.3891 -0.8172  0.2903
 6580TIP3    H141375   5.609   5.055   2.259  0.1631 -0.7209  0.2955
 6580TIP3    H241376   5.543   4.919   2.269 -0.6648 -0.3339  0.2396
 6581TIP3   OH241377   1.457   1.876   6.653  0.5456  0.4008  0.0638
 6581TIP3    H141378   1.547   1.905   6.637  1.6070 -0.9948  2.7174
 6581TIP3    H241379   1.418   1.945   6.706  0.4317  0.5023 -0.1524
 6582TIP3   OH241380   0.913   4.962   0.791 -0.1561 -0.4825  0.2759
 6582TIP3    H141381   0.853   4.927   0.725 -0.8792 -1.9061  1.6315
 6582TIP3    H241382   0.996   4.916   0.775  0.8917  1.9256 -1.9911
 6583TIP3   OH241383   1.126   3.052   7.899  0.4668 -0.3351  0.4294
 6583TIP3    H141384   1.200   3.098   7.939  0.5484 -0.4807  0.4477
 6583TIP3    H241385   1.082   3.118   7.846  0.9580 -0.3930 -0.0504
 6584TIP3   OH241386   4.796   4.467   8.716 -0.1492  0.1003  0.5584
 6584TIP3    H141387   4.762   4.420   8.792 -1.9433  0.2654 -0.1072
 6584TIP3    H241388   4.886   4.435   8.707 -0.8535 -2.1693  0.9583
 6585TIP3   OH241389   1.067   0.002   7.727 -0.1581 -0.7101 -0.1594
 6585TIP3    H141390   1.048   0.080   7.675 -1.8569  0.0132  1.4433
 6585TIP3    H241391   1.156  -0.022   7.702 -0.5330  0.1778 -2.6194
 6586TIP3   OH241392   0.774   0.887   7.577  0.1997 -0.3870  0.7802
 6586TIP3    H141393   0.789   0.980   7.597  0.3352 -0.0659 -0.7018
 6586TIP3    H241394   0.688   0.868   7.616 -1.3189  1.2511 -1.5300
 6587TIP3   OH241395   4.325   4.057   0.342 -0.4510 -0.7421 -0.2178
 6587TIP3    H141396   4.272   3.979   0.360  0.1816 -0.4124  4.1026
 6587TIP3    H241397   4.275   4.129   0.381 -0.0334  0.7349 -2.2823
 6588TIP3   OH241398   1.642   0.959   8.649 -0.2039  0.5755  0.4326
 6588TIP3    H141399   1.639   0.936   8.556  1.3661 -1.7724  0.8642
 6588TIP3    H241400   1.560   0.926   8.684 -0.3813  0.5959  0.0486
 6589TIP3   OH241401   3.407   2.925   6.408  0.1178 -0.3497  0.8549
 6589TIP3    H141402   3.372   2.912   6.319  1.9658 -0.8154  0.1568
 6589TIP3    H241403   3.404   2.838   6.448  1.5168 -0.6529  0.3616
 6590TIP3   OH241404   0.130   5.485   8.797  0.1951 -0.0499 -0.1623
 6590TIP3    H141405   0.103   5.563   8.749 -2.1277 -1.7417 -1.7821
 6590TIP3    H241406   0.125   5.511   8.889  2.1011  2.4391 -0.6464
 6591TIP3   OH241407   1.390   3.665   0.827 -0.4197 -0.3525 -0.0964
 6591TIP3    H141408   1.466   3.670   0.885 -0.3654 -1.2539 -0.0808
 6591TIP3    H241409   1.329   3.729   0.863  1.0340  1.7799 -1.2138
 6592TIP3   OH241410   1.389   1.343   8.241 -0.0870  0.0910 -0.6497
 6592TIP3    H141411   1.393   1.313   8.332 -0.1815  0.4675 -0.5166
 6592TIP3    H241412   1.357   1.268   8.192 -1.0388  0.2041 -0.2153
 6593TIP3   OH241413   2.678   2.078   1.707  0.2264 -0.5259 -0.1740
 6593TIP3    H141414   2.659   2.099   1.799 -0.0197 -0.6729 -0.1893
 6593TIP3    H241415   2.716   1.990   1.710 -0.3493 -0.7824 -0.2662
 6594TIP3   OH241416   6.577   4.349   0.158 -0.0197 -0.3105 -0.1799
 6594TIP3    H141417   6.579   4.432   0.109  1.5919  0.8752  1.7335
 6594TIP3    H241418   6.552   4.374   0.247 -1.1483 -2.1520  0.0645
 6595TIP3   OH241419   3.559   4.496   0.247  0.1074  0.0479  0.0495
 6595TIP3    H141420   3.487   4.436   0.267  0.0166  0.0927 -0.1362
 6595TIP3    H241421   3.541   4.574   0.299 -0.8662  0.7005 -1.1948
 6596TIP3   OH241422   0.581   6.780   8.393 -0.8075  0.3020 -0.0094
 6596TIP3    H141423   0.537   6.695   8.397 -1.3439  0.3185 -3.3313
 6596TIP3    H241424   0.667   6.762   8.356 -0.9953  1.1989 -0.9371
 6597TIP3   OH241425   2.470   4.688   1.497  0.2947 -0.2175 -0.2064
 6597TIP3    H141426   2.486   4.771   1.453  1.9311  0.1963  1.0660
 6597TIP3    H241427   2.527   4.626   1.452  2.3301  0.3035  1.4898
 6598TIP3   OH241428   0.370   1.543   0.176 -0.0868  0.7556 -0.0165
 6598TIP3    H141429   0.434   1.598   0.222  1.0800 -0.1037 -0.5611
 6598TIP3    H241430   0.314   1.508   0.246  1.0787  0.2119  0.6883
 6599TIP3   OH241431   1.394   5.100   1.570  0.4012  0.4606  0.0495
 6599TIP3    H141432   1.466   5.088   1.631  0.1286  1.1583  0.5248
 6599TIP3    H241433   1.371   5.012   1.541  0.3153  0.0878  1.2053
 6600TIP3   OH241434   1.413   0.099   8.454  0.1703  0.1329  0.1092
 6600TIP3    H141435   1.465   0.019   8.445  1.7191  1.0341  0.5760
 6600TIP3    H241436   1.459   0.149   8.521 -0.4277  1.6795 -0.5944
 6601TIP3   OH241437   0.186   5.713   0.971  0.0635  0.1519  0.1358
 6601TIP3    H141438   0.266   5.761   0.949  0.3098  0.1770  1.0409
 6601TIP3    H241439   0.122   5.742   0.906  0.8825 -0.1431 -0.8246
 6602TIP3   OH241440   0.957   6.501   7.410 -0.3506  0.1822  0.1070
 6602TIP3    H141441   0.964   6.521   7.503  0.3634  1.1242 -0.1340
 6602TIP3    H241442   0.970   6.585   7.366 -0.5678 -0.2664 -0.8478
 6603TIP3   OH241443   5.427   2.570   7.803  0.4764 -0.0348 -0.3201
 6603TIP3    H141444   5.387   2.523   7.730 -0.3787  1.8123 -1.1142
 6603TIP3    H241445   5.428   2.662   7.774 -1.0187  0.9583  2.4472
 6604TIP3   OH241446   5.560   5.318   7.345  0.0558  0.0779  0.4312
 6604TIP3    H141447   5.645   5.343   7.310 -0.0015  0.1184  0.3200
 6604TIP3    H241448   5.520   5.266   7.276 -0.8234  1.7062 -0.3396
 6605TIP3   OH241449   3.308   2.470   7.231 -0.2116  0.0157 -0.2237
 6605TIP3    H141450   3.339   2.383   7.206 -1.0378 -0.6407  1.0044
 6605TIP3    H241451   3.254   2.498   7.157 -3.5714 -2.3832  1.0890
 6606TIP3   OH241452   3.362   2.708   7.819  0.1261  0.3648 -0.8495
 6606TIP3    H141453   3.344   2.701   7.725 -0.8051  1.4690 -0.7607
 6606TIP3    H241454   3.309   2.639   7.859  0.5582 -0.1375 -1.1268
 6607TIP3   OH241455   3.709   2.039   1.415  0.5050 -0.3512 -0.2428
 6607TIP3    H141456   3.772   1.991   1.468  0.4907 -0.2164 -0.1019
 6607TIP3    H241457   3.666   1.972   1.362  0.7460 -0.4458 -0.3195
 6608TIP3   OH241458   4.509   6.075   6.630  0.1461 -0.3039  0.1725
 6608TIP3    H141459   4.440   6.113   6.576 -1.1433 -0.9306  1.3367
 6608TIP3    H241460   4.540   6.148   6.683 -1.2009 -0.4708  1.2425
 6609TIP3   OH241461   3.369   2.687   8.548  0.3422 -0.0044  0.0549
 6609TIP3    H141462   3.407   2.774   8.539  1.2597 -0.4707 -0.7049
 6609TIP3    H241463   3.326   2.671   8.464  1.1696 -0.7366 -0.2462
 6610TIP3   OH241464   4.958   0.707   1.347 -0.4249 -0.3250  0.2379
 6610TIP3    H141465   4.968   0.757   1.266  0.5508  0.0959  0.6022
 6610TIP3    H241466   5.048   0.685   1.373 -0.7372 -0.6484  1.0823
 6611TIP3   OH241467   0.404   2.020   1.376  0.4621  0.7878  0.9511
 6611TIP3    H141468   0.402   2.040   1.283 -2.2858 -2.7159  0.0050
 6611TIP3    H241469   0.479   1.962   1.387  0.2845  0.5164  0.7330
 6612TIP3   OH241470   0.099   0.654   7.349  0.2311  0.4471  0.9641
 6612TIP3    H141471   0.173   0.713   7.358  0.2750  0.6206 -0.3016
 6612TIP3    H241472   0.134   0.578   7.302 -0.3193  0.3938  0.6279
 6613TIP3   OH241473   0.662   6.227   0.176  0.0774  0.1810 -0.2467
 6613TIP3    H141474   0.642   6.318   0.198  1.3981  0.2848  0.6253
 6613TIP3    H241475   0.752   6.228   0.144  0.1829 -0.8448 -0.0410
 6614TIP3   OH241476   0.144   6.549   0.143 -0.1902 -0.7074 -0.2209
 6614TIP3    H141477   0.225   6.525   0.098 -0.7403 -1.4655 -0.8419
 6614TIP3    H241478   0.089   6.586   0.074 -0.6662 -0.9514  0.0221
 6615TIP3   OH241479   2.388   0.527   0.196 -0.2046 -0.4255  0.4027
 6615TIP3    H141480   2.466   0.506   0.145 -0.9420 -1.8972 -0.1782
 6615TIP3    H241481   2.338   0.586   0.138 -0.0954 -0.4736  0.2579
 6616TIP3   OH241482   1.907   2.592   7.638  0.0430 -0.4176  0.1373
 6616TIP3    H141483   1.904   2.587   7.542  1.1183  2.0344 -0.0895
 6616TIP3    H241484   1.940   2.506   7.664  0.2419 -0.9677 -1.7180
 6617TIP3   OH241485   0.711   0.794   1.537 -0.1276 -0.3391 -0.1714
 6617TIP3    H141486   0.744   0.883   1.552 -0.9739 -0.4431  2.8461
 6617TIP3    H241487   0.726   0.779   1.443  1.8867  2.1946 -0.3745
 6618TIP3   OH241488   6.541   2.667   2.108  0.4174 -0.4102 -0.1989
 6618TIP3    H141489   6.625   2.645   2.068  0.5348 -2.5696  1.1081
 6618TIP3    H241490   6.544   2.762   2.120  2.0706 -0.2617 -1.4389
 6619TIP3   OH241491   6.409   4.473   7.021 -0.3124 -0.0209 -0.5853
 6619TIP3    H141492   6.356   4.438   7.093 -0.0376  0.5707 -0.0758
 6619TIP3    H241493   6.359   4.548   6.989  0.3553  0.7779  0.1519
 6620TIP3   OH241494   6.079   2.937   6.727 -0.6727  0.0080 -0.0870
 6620TIP3    H141495   6.154   2.945   6.667 -1.0965 -0.2569 -0.6591
 6620TIP3    H241496   6.098   3.000   6.796  0.2811 -0.3408 -0.0077
 6621TIP3   OH241497   1.177   4.894   1.414  0.4597  0.2974  0.1269
 6621TIP3    H141498   1.131   4.872   1.496  1.3765  0.1459  0.6101
 6621TIP3    H241499   1.132   4.972   1.382  0.6995  0.9433  1.2987
 6622TIP3   OH241500   1.851   1.385   8.087  0.0979 -0.0530 -0.2855
 6622TIP3    H141501   1.903   1.342   8.018 -0.6534  0.0470 -0.9270
 6622TIP3    H241502   1.905   1.378   8.165  0.8798 -0.3590 -0.8389
 6623TIP3   OH241503   1.063   1.672   7.597 -0.0243 -0.3809  0.3182
 6623TIP3    H141504   1.000   1.743   7.612  0.9366  0.5443  0.0774
 6623TIP3    H241505   1.086   1.641   7.685 -1.8806 -1.7354  0.3935
 6624TIP3   OH241506   6.159   2.117   0.450 -0.3793 -0.0589  0.5912
 6624TIP3    H141507   6.098   2.163   0.392  1.5770 -0.9920 -2.4467
 6624TIP3    H241508   6.116   2.033   0.467 -0.0263 -0.7816 -1.6559
 6625TIP3   OH241509   4.945   2.536   7.904 -0.0381 -0.2385 -0.6328
 6625TIP3    H141510   4.999   2.461   7.880  0.0328  0.4147 -2.7077
 6625TIP3    H241511   4.865   2.525   7.853 -0.2731  0.7829 -0.5109
 6626TIP3   OH241512   0.404   2.884   7.735  0.0005 -0.1161 -0.3792
 6626TIP3    H141513   0.466   2.845   7.795  1.2437  0.4151 -1.2694
 6626TIP3    H241514   0.458   2.919   7.664 -1.4025 -0.6635 -1.7756
 6627TIP3   OH241515   3.116   6.727   1.041  0.0252 -0.0450  0.5472
 6627TIP3    H141516   3.194   6.781   1.053 -0.3473  1.8186 -3.6927
 6627TIP3    H241517   3.150   6.640   1.020  1.2355  1.0025 -2.4120
 6628TIP3   OH241518   5.649   5.724   8.230 -0.5194  0.3188 -0.5843
 6628TIP3    H141519   5.731   5.749   8.272  0.8650 -0.5939 -2.5888
 6628TIP3    H241520   5.620   5.802   8.183  0.2101  0.1407 -1.3579
 6629TIP3   OH241521   4.220   5.045   0.317  0.1606  0.1129 -0.4705
 6629TIP3    H141522   4.195   4.973   0.260 -1.2018  0.6755 -0.6098
 6629TIP3    H241523   4.138   5.074   0.357  0.4676  2.4208 -1.3792
 6630TIP3   OH241524   6.167   5.333   8.752 -0.1477  0.0525 -0.0013
 6630TIP3    H141525   6.084   5.291   8.775  0.1928 -0.8284 -0.3476
 6630TIP3    H241526   6.228   5.261   8.739  0.3396  0.6240 -1.0478
 6631TIP3   OH241527   6.447   1.874   6.843 -0.3315 -0.2107 -0.1694
 6631TIP3    H141528   6.460   1.943   6.779 -0.9288 -0.2577 -0.3518
 6631TIP3    H241529   6.403   1.804   6.794  0.9379 -1.0293 -0.1760
 6632TIP3   OH241530   2.585   5.590   6.765  0.1154  0.2395 -0.2729
 6632TIP3    H141531   2.533   5.671   6.768  0.6790  0.6352 -0.9521
 6632TIP3    H241532   2.541   5.531   6.827 -1.5160  0.3503 -1.2653
 6633TIP3   OH241533   4.954   5.617   2.157  0.0886  0.2694  0.5743
 6633TIP3    H141534   4.956   5.662   2.241  0.2232 -0.9135  1.2228
 6633TIP3    H241535   5.002   5.536   2.172  0.3796  0.1744 -0.7305
 6634TIP3   OH241536   3.374   5.908   1.369  0.5192  0.8635 -0.4228
 6634TIP3    H141537   3.322   5.881   1.293 -1.5731  0.0213  1.1905
 6634TIP3    H241538   3.331   5.986   1.402 -0.1171 -0.1200  1.2379
 6635TIP3   OH241539   0.591   6.245   7.265 -0.4751  0.2520 -0.4925
 6635TIP3    H141540   0.559   6.289   7.344 -1.0930 -0.0642 -0.5631
 6635TIP3    H241541   0.640   6.312   7.218 -0.1535  0.4566  0.1333
 6636TIP3   OH241542   0.320   1.908   0.567  0.5117 -0.2756 -0.5409
 6636TIP3    H141543   0.412   1.904   0.593  1.4442  0.6120 -3.3746
 6636TIP3    H241544   0.294   1.998   0.586  2.3006  1.5955 -5.4414
 6637TIP3   OH241545   1.141   4.359   8.044 -0.1609 -0.1109 -0.1709
 6637TIP3    H141546   1.074   4.327   7.983 -0.6813  1.0706 -0.2358
 6637TIP3    H241547   1.222   4.358   7.992 -0.1890 -1.1146 -0.2268
 6638TIP3   OH241548   3.505   3.307   1.548 -0.0773 -0.1850 -0.4866
 6638TIP3    H141549   3.480   3.251   1.621 -0.7612  0.1505 -0.4613
 6638TIP3    H241550   3.503   3.249   1.472 -1.3661 -0.0681 -0.5535
 6639TIP3   OH241551   5.031   3.663   6.850 -0.1716  0.1213 -0.7175
 6639TIP3    H141552   5.052   3.729   6.784 -0.8587  0.3899 -0.6705
 6639TIP3    H241553   5.116   3.642   6.890 -0.0043  1.3610 -0.3704
 6640TIP3   OH241554   4.332   4.384   7.430 -0.2988 -0.1480 -0.2419
 6640TIP3    H141555   4.254   4.345   7.391 -0.5243 -0.0907  0.1439
 6640TIP3    H241556   4.388   4.310   7.452 -1.2225 -0.3698  1.5567
 6641TIP3   OH241557   3.814   4.666   0.931  0.0806 -0.4297 -0.1186
 6641TIP3    H141558   3.864   4.585   0.939  1.6679  0.5066 -0.0873
 6641TIP3    H241559   3.864   4.718   0.867 -1.3756  0.1848 -0.7881
 6642TIP3   OH241560   2.234   3.501   1.845 -0.1416 -0.1373  0.1665
 6642TIP3    H141561   2.288   3.493   1.923  0.1761 -1.7382 -0.1857
 6642TIP3    H241562   2.260   3.427   1.790 -1.2200  0.2591 -0.9173
 6643TIP3   OH241563   3.584   6.376   6.515 -0.0115 -0.5345  0.3722
 6643TIP3    H141564   3.513   6.314   6.532 -2.5542  2.2734  0.8424
 6643TIP3    H241565   3.556   6.456   6.560  2.1698  1.5427 -1.7379
 6644TIP3   OH241566   4.805   3.649   0.634  0.1953 -0.2380 -0.2532
 6644TIP3    H141567   4.729   3.675   0.686  0.6620 -0.6343  0.6443
 6644TIP3    H241568   4.844   3.576   0.682  0.4998 -0.7881 -1.2959
 6645TIP3   OH241569   1.648   0.770   8.295  0.1293 -0.1599 -0.0733
 6645TIP3    H141570   1.558   0.737   8.299  0.4729 -1.2789 -1.2085
 6645TIP3    H241571   1.639   0.865   8.310 -0.9369 -0.5841  2.6889
 6646TIP3   OH241572   0.414   3.080   6.795  0.2280  0.3804 -0.3101
 6646TIP3    H141573   0.367   3.075   6.878 -1.3671  0.1287 -1.1932
 6646TIP3    H241574   0.356   3.038   6.732  1.5372  0.3077 -1.5073
 6647TIP3   OH241575   0.545   4.453   0.795 -0.1132 -0.4947  0.1674
 6647TIP3    H141576   0.611   4.455   0.726 -0.9097 -1.2453 -0.6295
 6647TIP3    H241577   0.486   4.525   0.774  0.1387 -0.1534  0.5912
 6648TIP3   OH241578   4.910   3.995   0.894  0.2436  0.1284 -0.5127
 6648TIP3    H141579   4.890   4.069   0.952  0.4692  0.2603 -0.6007
 6648TIP3    H241580   4.856   4.011   0.816  0.3725  0.2600 -0.5765
 6649TIP3   OH241581   6.093   2.857   0.986 -0.3131 -0.0913  0.0479
 6649TIP3    H141582   6.038   2.869   1.064  0.4884  0.8049  0.4899
 6649TIP3    H241583   6.084   2.939   0.937  1.6426  0.6212  0.7925
 6650TIP3   OH241584   6.796   6.369   0.231 -0.5557  0.5274  0.7666
 6650TIP3    H141585   6.754   6.436   0.284 -1.2423  0.5668  0.1851
 6650TIP3    H241586   6.860   6.416   0.178 -1.6799  0.8877 -0.3196
 6651TIP3   OH241587   4.887   6.778   8.072  0.3539 -0.0100 -0.7288
 6651TIP3    H141588   4.954   6.785   8.141 -0.0020 -0.1437 -0.3667
 6651TIP3    H241589   4.876   6.868   8.040  0.3938  0.0809 -0.4895
 6652TIP3   OH241590   1.385   2.010   1.194  0.4101  0.6171  0.7154
 6652TIP3    H141591   1.399   1.931   1.247 -2.1178 -1.4265 -1.3682
 6652TIP3    H241592   1.322   2.062   1.243 -1.4325 -0.9593  0.1395
 6653TIP3   OH241593   4.694   0.103   1.656 -0.8741  0.6859  0.2323
 6653TIP3    H141594   4.624   0.040   1.675 -1.1810  0.8431 -0.3325
 6653TIP3    H241595   4.773   0.050   1.652 -0.8796  0.5741  1.3578
 6654TIP3   OH241596   0.908   6.573   6.731 -0.0224 -0.4309  0.6133
 6654TIP3    H141597   0.870   6.597   6.815 -2.1720 -1.7458  0.1135
 6654TIP3    H241598   0.989   6.527   6.753  0.5868  1.1184  1.8181
 6655TIP3   OH241599   3.262   6.758   7.329  0.1149 -0.1516  0.1941
 6655TIP3    H141600   3.269   6.802   7.245 -0.1236 -0.9572 -0.2530
 6655TIP3    H241601   3.353   6.738   7.353  0.0499 -3.0275 -1.5629
 6656TIP3   OH241602   3.218   2.947   8.364  0.2750  0.1012  0.4012
 6656TIP3    H141603   3.151   2.932   8.431  1.0567 -0.4494  1.0783
 6656TIP3    H241604   3.250   2.860   8.342 -0.0041  0.2719 -0.7503
 6657TIP3   OH241605   3.766   0.531   7.148 -0.6210 -1.0108 -0.4227
 6657TIP3    H141606   3.857   0.560   7.161 -1.0327  0.3597 -0.4100
 6657TIP3    H241607   3.758   0.522   7.053 -0.5439 -0.8857 -0.4421
 6658TIP3   OH241608   6.789   1.199   0.665  0.7783  0.4428 -0.5669
 6658TIP3    H141609   6.787   1.277   0.610  0.1262  0.7976 -0.0609
 6658TIP3    H241610   6.853   1.218   0.733  1.1327  0.2526 -0.8458
 6659TIP3   OH241611   0.895   5.957   2.065  0.1100  0.3031  0.5422
 6659TIP3    H141612   0.959   5.886   2.069  0.5427  0.7394  2.2642
 6659TIP3    H241613   0.948   6.037   2.069 -0.3999  0.7461 -0.8783
 6660TIP3   OH241614   2.359   2.842   0.066  0.2331  0.4385  0.4720
 6660TIP3    H141615   2.342   2.777  -0.003  1.3450  1.8065 -1.1845
 6660TIP3    H241616   2.286   2.903   0.060  0.7609  1.0333 -0.1288
 6661TIP3   OH241617   1.929   1.626   1.096  0.5044  0.1882 -0.4537
 6661TIP3    H141618   1.845   1.655   1.131  0.7993 -1.3929  1.7829
 6661TIP3    H241619   1.955   1.696   1.036 -2.1534  0.9424 -0.8703
 6662TIP3   OH241620   2.448   0.218   0.754 -0.1925 -0.2243  0.5170
 6662TIP3    H141621   2.462   0.138   0.705  1.1940  0.4575 -0.2500
 6662TIP3    H241622   2.458   0.193   0.846  1.8796 -0.6486  0.2165
 6663TIP3   OH241623   3.614   5.887   1.012  0.3520  0.5650  0.0500
 6663TIP3    H141624   3.540   5.834   0.983 -0.7958  1.3779  1.3841
 6663TIP3    H241625   3.669   5.827   1.062 -1.5260  0.7517  2.5559
 6664TIP3   OH241626   4.997   1.760   7.527 -0.8004 -0.0462 -0.6908
 6664TIP3    H141627   5.033   1.791   7.610  0.3174 -1.2767 -0.6959
 6664TIP3    H241628   4.932   1.827   7.503  0.6341  1.6367 -0.0928
 6665TIP3   OH241629   6.797   2.245   0.737  0.6034  0.3343 -0.5671
 6665TIP3    H141630   6.733   2.252   0.667 -0.5674 -1.6608  0.2182
 6665TIP3    H241631   6.749   2.207   0.811  2.8874 -2.5656 -0.3610
 6666TIP3   OH241632   0.612   6.729   7.268 -0.0690 -0.2917 -0.2454
 6666TIP3    H141633   0.603   6.746   7.174 -1.0507 -0.2654 -0.1533
 6666TIP3    H241634   0.692   6.776   7.293  0.4569 -0.6864 -1.1552
 6667TIP3   OH241635   6.741   3.605   0.925 -0.8009 -0.0664  0.0906
 6667TIP3    H141636   6.663   3.582   0.874 -1.2849  0.5314  0.5473
 6667TIP3    H241637   6.778   3.680   0.879 -0.1923 -0.6663 -0.4203
 6668TIP3   OH241638   3.508   0.851   8.449 -0.0820  0.0737  0.0023
 6668TIP3    H141639   3.576   0.884   8.390 -1.5134 -0.1050 -1.8830
 6668TIP3    H241640   3.552   0.788   8.505  1.8953  2.1661  0.9342
 6669TIP3   OH241641   5.194   4.128   0.169  0.1446  0.2032 -0.0782
 6669TIP3    H141642   5.184   4.055   0.230  0.7898 -0.7359 -1.0675
 6669TIP3    H241643   5.227   4.088   0.088  1.6055  1.7474 -0.2894
 6670TIP3   OH241644   0.384   3.652   8.280  0.2608 -0.2431 -0.1714
 6670TIP3    H141645   0.346   3.582   8.334  2.5160 -0.8626  0.7308
 6670TIP3    H241646   0.426   3.606   8.207  1.4574  0.1725  0.2375
 6671TIP3   OH241647   5.894   5.554   1.734 -0.0427 -0.2452 -0.4423
 6671TIP3    H141648   5.980   5.526   1.702 -1.0618 -1.1709 -2.6238
 6671TIP3    H241649   5.907   5.643   1.765  1.6549 -0.2883 -0.9480
 6672TIP3   OH241650   3.783   3.118   7.231 -0.2944  0.2735 -0.2291
 6672TIP3    H141651   3.842   3.191   7.212 -0.0989  0.4318  0.8621
 6672TIP3    H241652   3.835   3.060   7.287 -1.2650  0.5995  1.0663
 6673TIP3   OH241653   6.776   2.863   1.587 -0.0668 -0.1744  0.2214
 6673TIP3    H141654   6.698   2.845   1.534 -1.0338  2.9254  0.3867
 6673TIP3    H241655   6.848   2.864   1.524 -0.4985 -0.8187 -0.2986
 6674TIP3   OH241656   4.406   0.788   0.991 -0.2105  0.1097  0.0359
 6674TIP3    H141657   4.472   0.735   0.947  1.9099  1.1731  1.7438
 6674TIP3    H241658   4.456   0.848   1.046 -2.6149  0.9187  1.5083
 6675TIP3   OH241659   5.721   1.818   1.477  0.3857  0.3030  0.0611
 6675TIP3    H141660   5.648   1.806   1.538  1.4146 -0.4823  1.1791
 6675TIP3    H241661   5.712   1.908   1.447 -1.2182  0.1272 -0.0626
 6676TIP3   OH241662   3.149   3.395   6.470 -0.0747 -0.0766  0.5985
 6676TIP3    H141663   3.203   3.339   6.526 -1.1436 -0.9949  0.7398
 6676TIP3    H241664   3.096   3.334   6.419 -3.0432  0.7130  2.4419
 6677TIP3   OH241665   2.205   0.060   8.499 -0.2321  0.0444  0.3292
 6677TIP3    H141666   2.218   0.020   8.585  0.7500 -0.9942 -0.2767
 6677TIP3    H241667   2.293   0.078   8.467 -0.5173 -0.7699 -0.9928
 6678TIP3   OH241668   1.366   2.032   7.885  0.0805 -0.2580  0.2684
 6678TIP3    H141669   1.388   1.998   7.798 -0.4933 -1.9978  0.7563
 6678TIP3    H241670   1.450   2.034   7.931  0.1600 -0.8767  0.1666
 6679TIP3   OH241671   1.151   0.733   1.962  0.2391  0.3744  0.0102
 6679TIP3    H141672   1.165   0.746   2.056  2.4431 -1.3550  0.0083
 6679TIP3    H241673   1.225   0.779   1.921  0.3515 -0.4507 -0.7355
 6680TIP3   OH241674   1.895   4.969   0.669  0.3745  0.2769 -0.1174
 6680TIP3    H141675   1.975   5.013   0.699  1.7226 -1.2241 -1.3165
 6680TIP3    H241676   1.857   5.030   0.606  2.1559 -0.1347 -1.6828
 6681TIP3   OH241677   5.180   4.808   8.452  0.2849  0.0286  0.2118
 6681TIP3    H141678   5.104   4.757   8.479 -0.4715 -0.2100 -2.1808
 6681TIP3    H241679   5.144   4.891   8.422  0.6807 -0.6959 -2.5455
 6682TIP3   OH241680   1.475   2.367   8.052  0.1426 -0.3002  0.3777
 6682TIP3    H141681   1.453   2.351   8.144  1.6165  0.2609  0.8566
 6682TIP3    H241682   1.522   2.450   8.053  1.7735 -1.1656 -0.6121
 6683TIP3   OH241683   2.039   5.496   7.486 -0.3136 -0.0473  0.4072
 6683TIP3    H141684   2.003   5.578   7.521  1.4140  0.8184  0.2560
 6683TIP3    H241685   1.962   5.441   7.472 -1.7641  2.1837 -1.1816
 6684TIP3   OH241686   5.925   4.648   0.285  0.3440  0.1254 -0.5003
 6684TIP3    H141687   5.968   4.602   0.213 -0.0265  1.4679 -1.6213
 6684TIP3    H241688   5.955   4.602   0.364  3.1337  0.4513 -1.2818
 6685TIP3   OH241689   0.799   4.935   2.056 -0.1518  0.2547 -0.3058
 6685TIP3    H141690   0.845   5.007   2.013  1.1024  0.6625  1.5883
 6685TIP3    H241691   0.723   4.976   2.097 -0.0340  0.3204 -0.1485
 6686TIP3   OH241692   6.089   1.841   0.440  0.3140 -0.3285 -0.2092
 6686TIP3    H141693   6.073   1.748   0.453 -0.8644  0.1242  1.8917
 6686TIP3    H241694   6.004   1.877   0.414  1.0006  0.0297 -2.1484
 6687TIP3   OH241695   0.510   1.961   8.528  0.4265  0.1232 -0.6742
 6687TIP3    H141696   0.581   1.910   8.568 -0.4730  0.2889  1.2667
 6687TIP3    H241697   0.519   2.048   8.566 -1.0575  0.0252 -0.0377
 6688TIP3   OH241698   2.216   3.701   6.485  0.0627  0.3995  0.3896
 6688TIP3    H141699   2.279   3.720   6.415 -0.8166  1.2646 -0.1870
 6688TIP3    H241700   2.199   3.607   6.478  0.8138  0.2761  0.1581
 6689TIP3   OH241701   5.574   3.994   8.506 -0.5559 -0.2093 -0.2119
 6689TIP3    H141702   5.636   4.066   8.502  1.3468 -1.7005  0.9418
 6689TIP3    H241703   5.551   3.987   8.599 -1.8139 -0.2522 -0.4980
 6690TIP3   OH241704   6.847   5.320   0.753  0.0993 -0.2544  0.4619
 6690TIP3    H141705   6.884   5.301   0.839  2.7488  1.7369 -0.1229
 6690TIP3    H241706   6.761   5.360   0.773  0.7643  0.4329  2.2143
 6691TIP3   OH241707   3.487   6.273   0.349  0.3596  0.7385  0.0064
 6691TIP3    H141708   3.539   6.259   0.428  0.3179  0.8462  0.0529
 6691TIP3    H241709   3.397   6.266   0.379  0.3519 -0.0461 -0.1839
 6692TIP3   OH241710   5.862   4.969   1.932  0.1666 -0.1396 -0.1303
 6692TIP3    H141711   5.835   5.059   1.948  2.0770  0.5030 -0.2261
 6692TIP3    H241712   5.786   4.916   1.957 -0.4209  1.3870  1.5549
 6693TIP3   OH241713   1.780   0.689   6.182  0.2674 -0.2930  0.1809
 6693TIP3    H141714   1.730   0.768   6.203  0.3779 -0.0947 -0.2853
 6693TIP3    H241715   1.866   0.704   6.222  0.1970 -0.2964  0.3315
 6694TIP3   OH241716   3.685   0.176   8.204  0.0796  0.2742  0.0032
 6694TIP3    H141717   3.594   0.149   8.209  0.6546 -1.6165  2.0638
 6694TIP3    H241718   3.682   0.271   8.192 -2.1615  0.3049  0.5151
 6695TIP3   OH241719   1.966   6.160   1.537  0.2025  0.3055  0.1541
 6695TIP3    H141720   1.871   6.170   1.544  0.1728 -0.4398  1.2253
 6695TIP3    H241721   2.001   6.215   1.607  0.3932 -1.2839  1.3846
 6696TIP3   OH241722   6.075   1.773   7.545  0.1227 -0.4573  0.1588
 6696TIP3    H141723   6.026   1.753   7.465  2.3312  1.4446 -1.8000
 6696TIP3    H241724   6.166   1.762   7.521  0.9012  0.6395  2.3192
 6697TIP3   OH241725   4.762   3.388   7.318 -0.5067 -0.0781  0.2207
 6697TIP3    H141726   4.740   3.348   7.234 -1.8879 -0.5345  0.7728
 6697TIP3    H241727   4.796   3.475   7.296  0.7776 -0.8280 -0.8854
 6698TIP3   OH241728   5.679   5.690   0.788 -0.0533  0.0131 -0.5878
 6698TIP3    H141729   5.734   5.767   0.776 -1.5323  1.1107 -0.5408
 6698TIP3    H241730   5.591   5.718   0.761 -0.7008 -1.5392 -0.2116
 6699TIP3   OH241731   5.444   4.375   7.996 -0.1876 -0.6011 -0.3018
 6699TIP3    H141732   5.536   4.401   8.007  0.1213 -2.2302  1.5245
 6699TIP3    H241733   5.395   4.457   8.004  1.0394  0.1718 -0.4176
 6700TIP3   OH241734   3.412   2.655   6.420  0.0419 -0.4516  0.4184
 6700TIP3    H141735   3.374   2.593   6.358  1.2995 -0.2990 -0.5319
 6700TIP3    H241736   3.482   2.606   6.462  0.8610  0.2314 -0.1351
 6701TIP3   OH241737   2.643   3.398   1.148 -0.4528  0.0074  0.0857
 6701TIP3    H141738   2.684   3.312   1.154 -0.7329 -0.1917 -0.7965
 6701TIP3    H241739   2.703   3.456   1.196  0.7915 -0.3130 -0.9972
 6702TIP3   OH241740   0.803   6.261   1.107 -0.3614  0.1393  0.3008
 6702TIP3    H141741   0.715   6.258   1.143 -1.0612  1.4892 -1.1618
 6702TIP3    H241742   0.832   6.170   1.105 -1.0885 -0.1733  2.2436
 6703TIP3   OH241743   6.225   6.586   0.825 -0.4493 -0.1831  0.6898
 6703TIP3    H141744   6.201   6.493   0.823  0.9504 -0.5655  0.3630
 6703TIP3    H241745   6.190   6.621   0.743  1.4963 -1.1308 -0.6261
 6704TIP3   OH241746   2.717   1.395   7.693 -0.0096  0.1507  0.2189
 6704TIP3    H141747   2.786   1.334   7.666 -0.9458 -1.5354  1.4282
 6704TIP3    H241748   2.663   1.406   7.615 -0.4788 -1.5502  0.2511
 6705TIP3   OH241749   2.173   1.894   0.421 -0.2462  0.2716  0.0748
 6705TIP3    H141750   2.172   1.887   0.326 -0.7340 -1.6916  0.1825
 6705TIP3    H241751   2.087   1.864   0.449 -0.0211  0.5722  1.1471
 6706TIP3   OH241752   2.131   3.379   0.550  0.3523  0.5380 -0.2991
 6706TIP3    H141753   2.039   3.354   0.557  0.6250 -0.1436  1.0248
 6706TIP3    H241754   2.171   3.349   0.631  1.6304  1.3600 -0.5975
 6707TIP3   OH241755   1.384   4.361   0.110 -0.1550 -0.0110 -0.6256
 6707TIP3    H141756   1.376   4.393   0.020 -1.6410  1.6479  0.0292
 6707TIP3    H241757   1.357   4.435   0.164  0.5379 -1.0261  1.2011
 6708TIP3   OH241758   2.837   0.460   1.150 -0.1027 -0.6147 -0.4487
 6708TIP3    H141759   2.923   0.422   1.167  0.0438 -0.6523 -1.2100
 6708TIP3    H241760   2.857   0.544   1.108 -0.3939  0.7548  1.9738
 6709TIP3   OH241761   3.240   5.446   0.059 -0.3057 -0.2811  0.3843
 6709TIP3    H141762   3.308   5.506   0.029 -1.6877  1.3951  0.4388
 6709TIP3    H241763   3.239   5.376  -0.006  0.6554  0.2814 -0.2594
 6710TIP3   OH241764   4.985   1.790   8.750  0.4822 -0.2920  0.2691
 6710TIP3    H141765   4.969   1.885   8.749  0.7458 -0.2485 -0.0244
 6710TIP3    H241766   5.054   1.777   8.684  0.9909 -0.5962  0.8557
 6711TIP3   OH241767   3.996   5.188   7.866 -0.1200  0.6368  0.3211
 6711TIP3    H141768   4.030   5.176   7.955  0.9542  1.2792  0.0111
 6711TIP3    H241769   3.952   5.273   7.868 -0.2869  0.5518  0.2923
 6712TIP3   OH241770   0.706   2.307   7.444  0.1883  0.0804  0.0364
 6712TIP3    H141771   0.717   2.218   7.476 -2.5334  0.1044  1.3268
 6712TIP3    H241772   0.628   2.304   7.390  1.6142  1.1930 -2.2310
 6713TIP3   OH241773   1.058   2.770   0.875 -0.6018 -0.2084  0.0981
 6713TIP3    H141774   1.102   2.769   0.790 -1.2946 -0.9154 -0.2720
 6713TIP3    H241775   1.016   2.684   0.881 -1.7447  0.3523  0.5157
 6714TIP3   OH241776   1.394   4.082   2.371 -0.0154  0.2015 -0.0601
 6714TIP3    H141777   1.307   4.043   2.366  0.7891 -1.5853 -1.7327
 6714TIP3    H241778   1.384   4.169   2.332 -1.1323  0.1914  0.1851
 6715TIP3   OH241779   4.538   0.572   0.369 -0.3855 -0.4485  0.4697
 6715TIP3    H141780   4.490   0.521   0.303  1.0985 -1.0898 -0.1474
 6715TIP3    H241781   4.511   0.663   0.354 -0.5653 -0.6699 -0.5908
 6716TIP3   OH241782   6.068   6.437   7.038  0.2817  0.3435 -0.3447
 6716TIP3    H141783   6.029   6.501   7.098  0.8468 -0.4055  0.8631
 6716TIP3    H241784   6.012   6.360   7.045 -0.3638  0.6568 -1.7548
 6717TIP3   OH241785   2.251   1.913   1.110  0.3719  0.0858  0.6919
 6717TIP3    H141786   2.258   1.985   1.048  0.5498 -1.0905 -0.7056
 6717TIP3    H241787   2.174   1.934   1.162 -1.0408  0.1472 -1.2899
 6718TIP3   OH241788   6.107   3.202   7.403  0.3855 -0.4011  1.1026
 6718TIP3    H141789   6.119   3.293   7.430  3.2421 -0.4229  0.2328
 6718TIP3    H241790   6.099   3.207   7.307 -1.7715 -0.9287  1.2156
 6719TIP3   OH241791   5.742   2.813   2.462 -0.5645  0.4160 -0.2363
 6719TIP3    H141792   5.798   2.886   2.489  0.5929 -1.0948  1.7791
 6719TIP3    H241793   5.800   2.737   2.461 -2.3269 -1.0448  0.9497
 6720TIP3   OH241794   1.119   3.213   7.123 -0.1091  0.0212  0.3350
 6720TIP3    H141795   1.066   3.134   7.134  1.2406 -0.9017  0.5647
 6720TIP3    H241796   1.125   3.250   7.211  0.7918 -0.6841  0.5880
 6721TIP3   OH241797   4.233   2.762   7.779 -0.4194  0.8772  0.3490
 6721TIP3    H141798   4.214   2.770   7.873  1.8237 -1.4622  1.1296
 6721TIP3    H241799   4.313   2.813   7.767  0.8487 -1.0077  0.3813
 6722TIP3   OH241800   6.732   0.812   1.613 -0.0549  0.1722 -0.1842
 6722TIP3    H141801   6.753   0.780   1.526  0.6819 -2.5475  0.8832
 6722TIP3    H241802   6.817   0.823   1.656 -0.2690  3.7051 -0.4126
 6723TIP3   OH241803   1.555   6.184   6.926  0.2552  0.6729  0.0733
 6723TIP3    H141804   1.602   6.125   6.985  0.4318 -1.0290 -1.6949
 6723TIP3    H241805   1.463   6.173   6.951  0.2342 -0.7547 -0.5253
 6724TIP3   OH241806   1.204   4.811   0.708 -0.6021  0.2076  0.0724
 6724TIP3    H141807   1.121   4.804   0.660 -1.7175 -1.9931  2.0745
 6724TIP3    H241808   1.268   4.769   0.650 -1.0323  1.1788 -1.1497
 6725TIP3   OH241809   0.482   6.218   6.611  0.6375 -0.6542 -0.6053
 6725TIP3    H141810   0.473   6.311   6.630 -0.3088 -0.5520 -1.5159
 6725TIP3    H241811   0.552   6.214   6.545  3.4991 -0.9617  2.1932
 6726TIP3   OH241812   5.072   4.959   8.124 -0.1726  0.0764  0.3269
 6726TIP3    H141813   5.042   4.869   8.114  0.1180 -0.0715  0.7361
 6726TIP3    H241814   5.038   5.005   8.048 -0.4178 -0.3563  0.1755
 6727TIP3   OH241815   4.461   5.271   8.482  0.9274  0.0746 -0.0453
 6727TIP3    H141816   4.385   5.239   8.532  2.1813 -1.0376  1.2625
 6727TIP3    H241817   4.520   5.307   8.549  3.4239 -2.9681 -0.3495
 6728TIP3   OH241818   1.749   4.517   7.779  0.2214 -0.1746 -0.2836
 6728TIP3    H141819   1.789   4.570   7.710  0.8029 -0.0186  0.1645
 6728TIP3    H241820   1.798   4.435   7.777 -0.9644 -0.8941 -1.2726
 6729TIP3   OH241821   3.117   5.489   1.062 -0.4050 -0.6810 -0.0394
 6729TIP3    H141822   3.083   5.462   1.147 -0.1717 -0.1152  0.2346
 6729TIP3    H241823   3.130   5.407   1.015  0.7042 -1.0834  0.9334
 6730TIP3   OH241824   0.953   0.215   8.229 -0.2553  0.2312 -0.6662
 6730TIP3    H141825   1.008   0.174   8.295 -1.3223 -0.3202 -0.0851
 6730TIP3    H241826   0.981   0.177   8.146  0.6775  0.4637 -0.4619
 6731TIP3   OH241827   6.466   4.457   1.144  0.3086 -0.0598 -0.4152
 6731TIP3    H141828   6.475   4.548   1.115  1.7472  0.3685  1.2136
 6731TIP3    H241829   6.372   4.446   1.159  0.0727  1.0079 -1.0208
 6732TIP3   OH241830   2.153   5.936   0.557  0.2742  0.0572  0.0348
 6732TIP3    H141831   2.217   5.985   0.506 -2.4173  2.2300 -1.4792
 6732TIP3    H241832   2.086   5.910   0.494 -0.3417 -2.3023  1.5196
 6733TIP3   OH241833   3.173   4.531   8.574 -0.0358  0.2132  0.8248
 6733TIP3    H141834   3.234   4.603   8.593 -0.7806  0.9264  0.5753
 6733TIP3    H241835   3.224   4.471   8.519  0.6353  0.4869  1.1305
 6734TIP3   OH241836   6.691   2.388   6.715  0.2083  0.0779 -0.0089
 6734TIP3    H141837   6.726   2.302   6.736  0.5812  0.3174  0.3829
 6734TIP3    H241838   6.769   2.441   6.696  0.1282  0.8018  1.5547
 6735TIP3   OH241839   3.024   4.873   8.697 -0.3514  0.0012 -0.0383
 6735TIP3    H141840   3.101   4.850   8.645  0.3861  0.3385  0.8621
 6735TIP3    H241841   3.039   4.830   8.781 -0.3436  1.3901  0.7047
 6736TIP3   OH241842   4.565   4.081   7.190 -0.6260 -0.4129 -0.3609
 6736TIP3    H141843   4.538   4.135   7.264 -1.3241 -1.5194  0.2123
 6736TIP3    H241844   4.535   3.993   7.212 -1.1917 -0.7005 -2.1414
 6737TIP3   OH241845   1.054   5.392   8.583  0.3197  0.2910 -0.3618
 6737TIP3    H141846   1.006   5.341   8.519 -0.2022  0.1121  0.1643
 6737TIP3    H241847   1.018   5.481   8.576  0.9978  0.5229 -1.0461
 6738TIP3   OH241848   0.064   0.350   1.037 -0.3781 -0.5313 -0.1248
 6738TIP3    H141849   0.007   0.420   1.071 -0.0042 -0.6896  0.8779
 6738TIP3    H241850   0.127   0.395   0.982 -1.3774 -0.3351 -1.1395
 6739TIP3   OH241851   5.371   1.748   8.034  0.3185 -0.3615  0.5345
 6739TIP3    H141852   5.338   1.783   7.951 -1.7163 -1.4121  0.8300
 6739TIP3    H241853   5.356   1.819   8.097 -1.1028 -0.6668  0.5785
 6740TIP3   OH241854   1.600   6.548   7.610 -0.2028 -0.6574  0.4868
 6740TIP3    H141855   1.576   6.528   7.519 -0.7916 -0.6883  0.6406
 6740TIP3    H241856   1.672   6.488   7.630  0.1094 -0.4656 -0.0453
 6741TIP3   OH241857   1.962   6.411   7.636 -1.1484 -0.2338  0.0226
 6741TIP3    H141858   2.038   6.394   7.580 -0.8831 -0.5052  0.4561
 6741TIP3    H241859   1.973   6.501   7.666 -0.1454 -0.7759  1.3580
 6742TIP3   OH241860   0.667   1.637   6.423 -0.5309 -0.7893 -0.5795
 6742TIP3    H141861   0.666   1.723   6.384 -1.9651  0.2588  1.5396
 6742TIP3    H241862   0.748   1.634   6.473 -1.8641  0.6895  1.8798
 6743TIP3   OH241863   2.229   6.503   0.127  0.7044 -0.0997  0.0304
 6743TIP3    H141864   2.156   6.452   0.092  1.0182  1.2786 -2.9164
 6743TIP3    H241865   2.194   6.592   0.134  0.6710 -0.2396  3.4722
 6744TIP3   OH241866   3.945   0.133   0.095 -0.1191  0.0810  0.0039
 6744TIP3    H141867   3.877   0.075   0.130  0.0154 -0.1247 -0.0714
 6744TIP3    H241868   4.024   0.079   0.096 -0.0009  0.2535 -0.1028
 6745TIP3   OH241869   3.960   2.119   6.992  0.0772  0.2148 -0.1213
 6745TIP3    H141870   4.034   2.171   7.023 -1.8652  3.0429  0.2632
 6745TIP3    H241871   3.900   2.116   7.068 -0.8633 -0.6368 -0.8673
 6746TIP3   OH241872   3.279   1.097   1.233  0.2071  0.6672  0.3648
 6746TIP3    H141873   3.361   1.145   1.217  1.0589 -1.5323 -2.9320
 6746TIP3    H241874   3.221   1.124   1.162 -0.5742 -0.5150  0.5206
 6747TIP3   OH241875   0.633   3.530   8.433  0.3119 -0.4308  0.3210
 6747TIP3    H141876   0.604   3.448   8.474  0.7588 -0.5713  0.3640
 6747TIP3    H241877   0.627   3.513   8.339 -3.1893  0.7375  0.1753
 6748TIP3   OH241878   2.944   1.842   6.752  0.4067  0.1841 -0.2305
 6748TIP3    H141879   2.888   1.794   6.691  0.6458  0.4337 -0.6461
 6748TIP3    H241880   3.031   1.802   6.742  0.7952  1.2014 -1.1548
 6749TIP3   OH241881   1.633   1.462   8.543 -0.1146  0.3130 -0.5345
 6749TIP3    H141882   1.584   1.449   8.462 -0.4347  0.9981 -0.4586
 6749TIP3    H241883   1.724   1.444   8.520 -0.4868 -1.8304 -0.4732
 6750TIP3   OH241884   3.877   4.435   8.009 -0.0788 -0.3293  0.1294
 6750TIP3    H141885   3.904   4.428   7.917  0.9528 -0.7942  0.4663
 6750TIP3    H241886   3.932   4.505   8.045  0.7978 -1.3647  0.8472
 6751TIP3   OH241887   1.248   4.257   0.604 -0.2749 -0.0724 -0.1827
 6751TIP3    H141888   1.271   4.245   0.696  3.1456  0.6636 -0.8054
 6751TIP3    H241889   1.296   4.189   0.558 -0.6767  0.5371 -1.5733
 6752TIP3   OH241890   0.816   3.780   6.432 -0.2542  0.4239 -0.3540
 6752TIP3    H141891   0.784   3.870   6.439  0.2269  0.5212  0.8831
 6752TIP3    H241892   0.909   3.786   6.452 -0.5642 -0.5715  1.6085
 6753TIP3   OH241893   1.607   1.751   7.256  0.0007  0.1381 -0.8633
 6753TIP3    H141894   1.516   1.779   7.261 -0.1135  0.0258 -2.0903
 6753TIP3    H241895   1.619   1.694   7.333 -0.2974  1.9028  0.5653
 6754TIP3   OH241896   4.542   3.355   0.206  0.0357  0.1345 -0.5309
 6754TIP3    H141897   4.637   3.368   0.204  0.0794 -0.2310 -0.8855
 6754TIP3    H241898   4.532   3.261   0.223 -0.2623  0.1332 -0.7234
 6755TIP3   OH241899   0.157   1.513   1.654 -0.0917 -0.0172  0.0508
 6755TIP3    H141900   0.187   1.479   1.738  0.8707  1.5361  0.3720
 6755TIP3    H241901   0.196   1.454   1.589  0.3092 -0.4082  0.6386
 6756TIP3   OH241902   5.904   0.019   1.046 -0.0786 -0.1103 -0.1649
 6756TIP3    H141903   5.855   0.012   1.128  0.6571 -0.8252  0.2247
 6756TIP3    H241904   5.987   0.060   1.072 -0.5341  1.3201 -0.8565
 6757TIP3   OH241905   6.847   2.932   0.924  0.1378 -0.0977  0.4137
 6757TIP3    H141906   6.913   2.994   0.955  1.4664 -1.6346  0.8061
 6757TIP3    H241907   6.811   2.973   0.845  0.0981  1.6918  1.3114
 6758TIP3   OH241908   3.323   0.531   7.576 -0.2106 -0.1019 -0.7824
 6758TIP3    H141909   3.365   0.587   7.642 -2.0781 -0.3718  0.7314
 6758TIP3    H241910   3.384   0.458   7.564  1.1904  1.0581 -1.0724
 6759TIP3   OH241911   6.637   6.472   0.438  0.1215  0.2090 -0.7206
 6759TIP3    H141912   6.593   6.556   0.424 -2.2130 -0.7464  0.3627
 6759TIP3    H241913   6.567   6.407   0.427  1.6053 -1.5078 -0.3485
 6760TIP3   OH241914   2.978   3.721   0.850 -0.3144  0.2048 -0.3252
 6760TIP3    H141915   3.042   3.786   0.879 -0.3453 -0.4313  1.2441
 6760TIP3    H241916   3.026   3.666   0.788  0.0463  0.9888 -0.7565
 6761TIP3   OH241917   2.996   2.242   6.236 -0.7048 -0.1182 -0.2608
 6761TIP3    H141918   2.965   2.167   6.287  0.8932  0.4160  1.6553
 6761TIP3    H241919   3.080   2.265   6.276 -0.5375  1.9047 -1.6103
 6762TIP3   OH241920   1.895   6.690   6.949 -0.7184  0.0638  0.3197
 6762TIP3    H141921   1.886   6.618   6.886 -1.0848 -1.0902  1.6177
 6762TIP3    H241922   1.989   6.703   6.958 -0.5886 -1.2589  1.1158
 6763TIP3   OH241923   6.466   0.786   2.072  0.2023  0.3957 -0.0441
 6763TIP3    H141924   6.446   0.697   2.045  0.5702 -0.2465  1.6643
 6763TIP3    H241925   6.381   0.821   2.102 -0.2700  1.2161 -2.1777
 6764TIP3   OH241926   5.720   3.362   0.516  0.0659  0.2603  0.2924
 6764TIP3    H141927   5.813   3.358   0.491  0.5943  0.1589  2.1338
 6764TIP3    H241928   5.701   3.274   0.549 -1.4837 -0.5669 -2.4780
 6765TIP3   OH241929   0.695   6.055   2.510  0.3006  0.2323  0.1492
 6765TIP3    H141930   0.626   6.037   2.574  0.7956 -0.7795  0.4187
 6765TIP3    H241931   0.669   6.138   2.469 -0.7056  0.2171  0.7294
 6766TIP3   OH241932   1.645   1.339   7.748  0.0439  0.0136 -0.0196
 6766TIP3    H141933   1.664   1.433   7.739 -1.3027  0.5107  1.7471
 6766TIP3    H241934   1.705   1.297   7.687  1.2874  1.9699 -0.2457
 6767TIP3   OH241935   1.745   5.691   0.446 -0.1517 -0.2978  0.1104
 6767TIP3    H141936   1.727   5.723   0.358  0.0310  0.1671  0.2404
 6767TIP3    H241937   1.834   5.720   0.465 -0.0019 -0.8422  0.2508
 6768TIP3   OH241938   4.857   6.024   6.670 -0.0575  0.0670 -0.2483
 6768TIP3    H141939   4.799   5.960   6.712  0.0512  0.0357 -0.1429
 6768TIP3    H241940   4.926   5.971   6.630  0.7310  0.1651  0.9069
 6769TIP3   OH241941   5.045   4.417   1.001  0.0491 -0.1376  0.3412
 6769TIP3    H141942   5.118   4.447   0.948 -0.0241  0.4882  0.5831
 6769TIP3    H241943   5.074   4.428   1.091 -0.8449  1.4594  0.4639
 6770TIP3   OH241944   1.568   4.853   0.478  0.2495  0.3549  0.1277
 6770TIP3    H141945   1.476   4.830   0.489 -0.0215  1.2264 -0.2255
 6770TIP3    H241946   1.579   4.865   0.383  1.3650 -2.2501 -0.1494
 6771TIP3   OH241947   3.038   2.639   1.185  0.2464  0.6049 -0.3671
 6771TIP3    H141948   2.951   2.671   1.209  0.1355  1.4179 -1.7313
 6771TIP3    H241949   3.059   2.573   1.251 -1.2206  0.7074  0.2292
 6772TIP3   OH241950   1.597   3.314   8.182  0.2361  0.4700 -0.4674
 6772TIP3    H141951   1.611   3.380   8.249  0.0756  0.9479 -0.9005
 6772TIP3    H241952   1.526   3.260   8.217 -0.1238  0.9613 -0.4326
 6773TIP3   OH241953   4.658   5.436   6.429 -0.4539 -0.3355  0.1585
 6773TIP3    H141954   4.599   5.388   6.370 -0.8943  0.1001  0.2445
 6773TIP3    H241955   4.645   5.528   6.407  0.6829 -0.2587 -0.2843
 6774TIP3   OH241956   1.107   1.848   1.121  0.3344 -0.1972  0.1596
 6774TIP3    H141957   1.013   1.861   1.107  0.2696 -0.3305  0.4738
 6774TIP3    H241958   1.112   1.787   1.194  0.6772  0.8802  1.0535
 6775TIP3   OH241959   3.090   0.622   1.254  0.7030 -0.1085 -0.1537
 6775TIP3    H141960   3.110   0.529   1.247 -0.0478 -0.3024  0.1905
 6775TIP3    H241961   3.166   0.660   1.299  0.3417 -0.8128  1.0959
 6776TIP3   OH241962   4.207   2.838   0.145 -0.3826 -0.0731  0.0230
 6776TIP3    H141963   4.153   2.844   0.066  0.8221  0.7116 -0.7664
 6776TIP3    H241964   4.184   2.752   0.182  0.1826 -1.2126 -2.0714
 6777TIP3   OH241965   3.590   2.237   0.910  0.5015 -0.6600  0.7169
 6777TIP3    H141966   3.566   2.326   0.934  0.2244 -0.4892 -0.1710
 6777TIP3    H241967   3.668   2.218   0.962  1.9678  0.9475 -0.8047
 6778TIP3   OH241968   2.838   2.705   7.099  0.5399  0.0039  0.0282
 6778TIP3    H141969   2.923   2.739   7.070  0.9867  0.2866  1.5426
 6778TIP3    H241970   2.857   2.661   7.182 -0.8976  0.6939  0.7625
 6779TIP3   OH241971   5.088   1.878   1.900  0.1431 -0.4030 -0.2509
 6779TIP3    H141972   5.026   1.892   1.972  1.2585 -0.3179  0.7330
 6779TIP3    H241973   5.034   1.880   1.821 -0.8544  1.6261  0.4090
 6780TIP3   OH241974   2.510   2.604   0.601  0.2599  0.4004 -0.4894
 6780TIP3    H141975   2.488   2.692   0.571  1.3502  0.8088 -0.1210
 6780TIP3    H241976   2.451   2.547   0.552 -0.0559  1.2857 -1.1632
 6781TIP3   OH241977   0.189   2.769   7.609 -0.0449 -0.5382  0.3482
 6781TIP3    H141978   0.269   2.804   7.648  0.8200 -0.9793 -0.9790
 6781TIP3    H241979   0.219   2.717   7.534 -1.5636 -0.8499 -0.0772
 6782TIP3   OH241980   3.509   4.608   7.469  0.0140 -0.2262 -0.2995
 6782TIP3    H141981   3.472   4.523   7.445  0.1044 -0.6228  0.9186
 6782TIP3    H241982   3.474   4.626   7.555 -0.1205  1.0599 -0.6062
 6783TIP3   OH241983   6.063   2.197   2.174 -0.6630  0.0748 -0.7251
 6783TIP3    H141984   6.045   2.259   2.244  2.7670 -0.2876  0.6395
 6783TIP3    H241985   6.068   2.112   2.218  1.6975 -0.1418 -1.2683
 6784TIP3   OH241986   5.532   0.046   1.875  0.3863  0.2026 -0.0978
 6784TIP3    H141987   5.508   0.095   1.954  1.0820 -0.2533  0.4025
 6784TIP3    H241988   5.627   0.050   1.872  0.3744  0.0487 -0.8092
 6785TIP3   OH241989   4.518   2.268   1.018 -0.0367  0.2649 -0.2571
 6785TIP3    H141990   4.587   2.239   1.078 -0.4817  0.4780  0.3640
 6785TIP3    H241991   4.555   2.254   0.931 -0.4136 -2.6844 -0.0476
 6786TIP3   OH241992   3.199   6.460   8.032  0.3393 -0.3028  0.7322
 6786TIP3    H141993   3.155   6.439   8.115 -0.4890 -1.3532  0.0434
 6786TIP3    H241994   3.274   6.400   8.029  0.8007  0.2365  1.0370
 6787TIP3   OH241995   5.969   1.222   0.920  0.1770  0.3481  0.0398
 6787TIP3    H141996   6.030   1.245   0.850  2.0570 -2.5148  0.5806
 6787TIP3    H241997   5.992   1.132   0.945 -2.9935 -0.1828  1.6815
 6788TIP3   OH241998   3.113   3.313   1.470  0.0756  0.1004 -0.3548
 6788TIP3    H141999   3.091   3.312   1.564  1.6873 -2.3262  0.0875
 6788TIP3    H242000   3.158   3.396   1.457  0.4995  0.1520  1.2296
 6789TIP3   OH242001   6.340   2.312   0.552 -0.4597 -0.3304  0.2782
 6789TIP3    H142002   6.271   2.253   0.521  0.0651 -0.8800  0.1313
 6789TIP3    H242003   6.317   2.397   0.516 -0.4932 -0.7168 -0.6494
 6790TIP3   OH242004   6.650   1.896   6.499 -0.3576 -0.0413  0.0170
 6790TIP3    H142005   6.599   1.816   6.513 -0.4431  0.2456  1.5266
 6790TIP3    H242006   6.632   1.921   6.409 -2.4775 -0.2479  0.3373
 6791TIP3   OH242007   5.013   6.008   0.668  1.1222  0.4569 -0.0055
 6791TIP3    H142008   4.985   5.967   0.750  1.6355  0.2782  0.0849
 6791TIP3    H242009   4.934   6.049   0.634  0.3146 -1.4517 -0.6110
 6792TIP3   OH242010   3.655   0.485   0.647  0.2141  0.5005 -0.1320
 6792TIP3    H142011   3.721   0.421   0.619 -1.0010 -0.3478 -1.1428
 6792TIP3    H242012   3.598   0.436   0.706 -1.6984  0.1152 -2.1814
 6793TIP3   OH242013   4.516   2.135   7.503 -0.1280 -0.4086  0.7277
 6793TIP3    H142014   4.547   2.044   7.505  1.5196  0.1205  0.7941
 6793TIP3    H242015   4.510   2.156   7.410 -2.2003 -1.0938  0.6641
 6794TIP3   OH242016   4.565   4.349   0.516 -0.1452 -0.2099 -0.6111
 6794TIP3    H142017   4.545   4.309   0.601 -1.1727 -0.6903 -1.0638
 6794TIP3    H242018   4.601   4.435   0.538  0.6530 -0.7630  0.3389
 6795TIP3   OH242019   1.487   5.426   7.257  0.0084 -0.0990  0.0662
 6795TIP3    H142020   1.550   5.410   7.187 -1.8893 -1.7809 -1.4314
 6795TIP3    H242021   1.530   5.486   7.316  2.5851 -0.3758 -1.3877
 6796TIP3   OH242022   4.542   6.251   0.964 -0.4266 -0.1553 -0.3277
 6796TIP3    H142023   4.558   6.160   0.939 -0.3851 -0.6060  1.1886
 6796TIP3    H242024   4.526   6.296   0.882  0.9253 -1.2502 -1.2525
 6797TIP3   OH242025   4.084   1.028   0.386  0.1090  0.0416 -0.0202
 6797TIP3    H142026   3.996   1.010   0.420 -0.4064 -0.8097 -1.7065
 6797TIP3    H242027   4.074   1.107   0.334  0.2046 -0.3970 -0.7077
 6798TIP3   OH242028   0.350   0.558   8.462 -0.4925 -0.4681  0.2616
 6798TIP3    H142029   0.412   0.620   8.498 -0.3464 -2.1552  3.2206
 6798TIP3    H242030   0.401   0.504   8.401 -0.0396  0.5947 -0.3190
 6799TIP3   OH242031   6.536   3.747   8.318  0.2859 -0.1867  0.0007
 6799TIP3    H142032   6.602   3.793   8.266  0.7817  1.5382  2.0613
 6799TIP3    H242033   6.496   3.814   8.373 -1.3157 -1.6665  0.7577
 6800TIP3   OH242034   2.446   5.432   1.511 -0.4773  0.1887  0.2508
 6800TIP3    H142035   2.392   5.480   1.574  0.4508  1.4564  0.1110
 6800TIP3    H242036   2.382   5.383   1.458 -1.5250  1.7515 -0.0043
 6801TIP3   OH242037   0.521   4.824   8.728  0.5274  0.4793 -0.0020
 6801TIP3    H142038   0.525   4.736   8.691 -0.0318  0.5897 -0.3511
 6801TIP3    H242039   0.582   4.823   8.801 -0.8682 -0.7912  1.2261
 6802TIP3   OH242040   1.498   3.530   8.355 -0.0391 -0.5947  0.2336
 6802TIP3    H142041   1.417   3.558   8.396 -0.4162 -1.6545  0.2343
 6802TIP3    H242042   1.509   3.588   8.280 -0.2528  0.2189  0.8242
 6803TIP3   OH242043   6.516   3.421   0.312  0.1448  0.5425  0.0570
 6803TIP3    H142044   6.459   3.418   0.235  1.8290 -2.7240 -1.2234
 6803TIP3    H242045   6.578   3.491   0.293 -0.4779  0.8899 -0.7531
 6804TIP3   OH242046   3.210   5.250   8.667 -0.6099  0.4195 -0.2474
 6804TIP3    H142047   3.278   5.223   8.605 -2.2960 -1.3801 -1.4544
 6804TIP3    H242048   3.162   5.319   8.621  0.0995  1.3758  0.4206
 6805TIP3   OH242049   1.491   4.261   1.717 -0.2016 -0.3895  0.7604
 6805TIP3    H142050   1.433   4.208   1.772  0.2537  0.4652  2.1396
 6805TIP3    H242051   1.572   4.268   1.768  0.2842  0.3271 -0.0820
 6806TIP3   OH242052   3.588   2.084   0.013  0.5043 -0.2422  0.3590
 6806TIP3    H142053   3.681   2.085   0.036  0.4465 -2.0899  0.8569
 6806TIP3    H242054   3.543   2.110   0.094  0.4644 -3.2530  1.4170
 6807TIP3   OH242055   3.509   6.558   8.193 -0.6624 -0.1298  0.0341
 6807TIP3    H142056   3.562   6.510   8.130 -1.8019 -1.1148 -0.2093
 6807TIP3    H242057   3.536   6.523   8.278  0.0388  0.3612  0.0227
 6808TIP3   OH242058   1.136   6.853   1.669  0.2174 -0.3675 -0.0288
 6808TIP3    H142059   1.156   6.932   1.619 -1.8683 -0.2107 -0.7077
 6808TIP3    H242060   1.064   6.812   1.621 -1.4827 -0.5268  2.4459
 6809TIP3   OH242061   4.643   3.735   0.239 -0.3556 -0.2792  0.3692
 6809TIP3    H142062   4.612   3.772   0.156 -1.4908 -2.2129 -0.1262
 6809TIP3    H242063   4.564   3.729   0.293 -0.0062 -0.9637  0.8145
 6810TIP3   OH242064   2.230   1.254   7.516 -0.1893 -0.2954  0.0166
 6810TIP3    H142065   2.172   1.178   7.526 -0.4971 -0.0875 -0.1642
 6810TIP3    H242066   2.284   1.252   7.595 -0.2980 -0.6166  0.0876
 6811TIP3   OH242067   4.378   5.847   8.554  0.4745 -0.2678 -0.2603
 6811TIP3    H142068   4.330   5.883   8.479  1.1057 -0.2525 -0.6626
 6811TIP3    H242069   4.469   5.844   8.525  0.6508 -0.7468  0.3244
 6812TIP3   OH242070   5.617   0.662   8.698  0.0279 -0.4580  0.1517
 6812TIP3    H142071   5.528   0.639   8.727  0.5570 -0.1293  2.1403
 6812TIP3    H242072   5.608   0.673   8.603 -2.0923 -0.2853  0.3073
 6813TIP3   OH242073   6.212   4.516   1.922 -0.1059  0.0965 -0.0349
 6813TIP3    H142074   6.132   4.543   1.967 -0.5710  0.1842 -0.8906
 6813TIP3    H242075   6.279   4.577   1.952 -1.0734  2.1237 -1.7425
 6814TIP3   OH242076   0.288   3.356   2.770 -0.5865  1.0183 -0.4249
 6814TIP3    H142077   0.372   3.313   2.760 -0.6585  0.8882 -0.4683
 6814TIP3    H242078   0.224   3.285   2.769 -0.6262  1.0298  0.5956
 6815TIP3   OH242079   2.863   0.908   6.452 -0.7736  0.3530 -0.6777
 6815TIP3    H142080   2.820   0.896   6.368 -2.4045 -0.1263  0.1932
 6815TIP3    H242081   2.792   0.913   6.516  0.4486 -0.9820  0.8813
 6816TIP3   OH242082   6.410   4.438   7.771  0.9031 -0.1855 -0.4211
 6816TIP3    H142083   6.483   4.499   7.765  0.6640  0.0285 -1.1894
 6816TIP3    H242084   6.405   4.417   7.864  1.0049  0.9444 -0.1437
 6817TIP3   OH242085   4.636   3.645   6.774  0.1373  0.3835 -0.5843
 6817TIP3    H142086   4.632   3.708   6.846 -0.0028 -0.2420 -0.0449
 6817TIP3    H242087   4.719   3.665   6.730  0.6134  0.2468  0.2284
 6818TIP3   OH242088   1.847   0.403   0.287  0.5372 -0.1919  0.3270
 6818TIP3    H142089   1.872   0.439   0.203  0.3399 -1.6674 -0.4006
 6818TIP3    H242090   1.752   0.413   0.291  0.5319 -0.2373  0.3168
 6819TIP3   OH242091   2.060   0.003   0.877 -0.7471 -0.4403 -0.3956
 6819TIP3    H142092   2.112  -0.076   0.862  0.1703  0.0375  0.1835
 6819TIP3    H242093   2.096   0.067   0.816 -0.6892 -0.1190 -0.0267
 6820TIP3   OH242094   6.353   5.660   0.489  0.3760 -0.1447  0.7123
 6820TIP3    H142095   6.329   5.578   0.534 -1.4483 -0.5265 -0.8500
 6820TIP3    H242096   6.269   5.700   0.466  1.1100 -0.3755 -2.9924
 6821TIP3   OH242097   5.883   4.905   7.261  0.2005  0.4628 -0.1639
 6821TIP3    H142098   5.799   4.868   7.288 -0.0697 -1.4460 -3.1957
 6821TIP3    H242099   5.929   4.922   7.344 -2.6310  0.4212  1.5544
 6822TIP3   OH242100   1.693   6.804   7.556  0.5369  0.1917  0.0099
 6822TIP3    H142101   1.642   6.793   7.476  2.2438 -0.6057 -1.0201
 6822TIP3    H242102   1.692   6.718   7.597  0.4504  0.3563  0.3514
 6823TIP3   OH242103   6.386   5.145   8.016  0.4856  0.5179 -0.3151
 6823TIP3    H142104   6.299   5.183   8.023  0.0790 -0.5548  0.5196
 6823TIP3    H242105   6.446   5.219   8.031 -0.2837  0.9657  0.6073
 6824TIP3   OH242106   3.264   4.149   0.895  0.0615 -0.2421 -0.7015
 6824TIP3    H142107   3.213   4.227   0.876 -0.3170 -0.3543 -0.1727
 6824TIP3    H242108   3.355   4.176   0.887 -0.0368  0.5986  0.8071
 6825TIP3   OH242109   0.156   1.615   8.342 -0.1967 -0.1448  0.1651
 6825TIP3    H142110   0.103   1.691   8.317  0.0797 -0.6848 -2.3240
 6825TIP3    H242111   0.239   1.652   8.370 -1.1116  0.5902  2.1333
 6826TIP3   OH242112   0.143   3.958   7.636  0.0545  0.1554  0.7484
 6826TIP3    H142113   0.197   3.995   7.707 -0.4940  0.1512  1.1723
 6826TIP3    H242114   0.089   3.891   7.679 -1.8724  1.6422  0.7891
 6827TIP3   OH242115   2.822   5.065   6.304  0.3389  0.1741 -0.5107
 6827TIP3    H142116   2.914   5.042   6.319  0.1498 -2.1090 -2.3241
 6827TIP3    H242117   2.824   5.128   6.232  0.5111  0.9581  0.1663
 6828TIP3   OH242118   2.408   3.483   8.233 -0.0613  0.3657  0.5111
 6828TIP3    H142119   2.320   3.478   8.196  0.6304 -0.0290 -1.1768
 6828TIP3    H242120   2.397   3.456   8.324 -1.6117 -0.1054  0.2209
 6829TIP3   OH242121   3.293   5.220   6.984 -0.0346  0.3605 -0.1790
 6829TIP3    H142122   3.334   5.306   6.984  1.0592 -0.1505 -0.7434
 6829TIP3    H242123   3.294   5.193   6.892 -0.0100 -0.4198  0.0471
 6830TIP3   OH242124   0.427   3.982   8.538 -0.0004  0.0150 -0.0049
 6830TIP3    H142125   0.345   3.935   8.556 -0.1507 -0.8638 -2.4585
 6830TIP3    H242126   0.404   4.041   8.466  1.1135  1.0670  0.4910
 6831TIP3   OH242127   2.000   2.659   0.096  0.2619  0.1863  0.1161
 6831TIP3    H142128   2.033   2.574   0.066  0.8292  0.3735  0.2066
 6831TIP3    H242129   2.026   2.721   0.028  0.7515  0.4571  0.5406
 6832TIP3   OH242130   2.597   5.228   0.084  0.0608  0.1153 -0.1872
 6832TIP3    H142131   2.563   5.293   0.023 -1.6143 -0.1929  0.3506
 6832TIP3    H242132   2.677   5.267   0.120  0.9113  0.4438 -2.2831
 6833TIP3   OH242133   0.481   0.682   6.502  0.6047 -0.2833  0.0651
 6833TIP3    H142134   0.528   0.638   6.431  0.1428 -0.0864 -0.3670
 6833TIP3    H242135   0.432   0.613   6.545 -0.2129 -0.1837 -0.6862
 6834TIP3   OH242136   4.285   4.411   2.269 -0.3736 -0.1820 -0.6232
 6834TIP3    H142137   4.291   4.316   2.263 -0.5861 -0.2691  0.2885
 6834TIP3    H242138   4.201   4.427   2.313 -0.2564  0.4110 -0.6053
 6835TIP3   OH242139   2.031   1.744   1.778  0.1583 -0.0208 -0.1476
 6835TIP3    H142140   2.103   1.683   1.794  0.0597 -0.2982 -0.7460
 6835TIP3    H242141   2.051   1.784   1.694  0.2730  0.8581  0.2847
 6836TIP3   OH242142   6.081   6.459   8.649  0.3285  0.0352  0.0023
 6836TIP3    H142143   6.154   6.403   8.676 -0.5544  0.3370  3.5406
 6836TIP3    H242144   6.034   6.407   8.585  1.5943 -1.7341  0.4135
 6837TIP3   OH242145   2.546   3.951   0.212 -0.2859  0.1221 -0.0366
 6837TIP3    H142146   2.634   3.916   0.201  1.0291  3.1097 -0.1023
 6837TIP3    H242147   2.517   3.973   0.123 -0.4271  0.5691  0.1135
 6838TIP3   OH242148   0.181   6.255   1.847 -0.1628  0.6783 -0.8638
 6838TIP3    H142149   0.155   6.277   1.936 -1.2147 -0.9611 -0.7288
 6838TIP3    H242150   0.149   6.166   1.834  0.7627  0.5632 -2.5778
 6839TIP3   OH242151   0.679   0.191   8.525  0.0177 -0.0356 -0.4375
 6839TIP3    H142152   0.668   0.150   8.439  0.5604  0.4680 -0.7529
 6839TIP3    H242153   0.704   0.119   8.583  0.6916 -0.2000 -0.9263
 6840TIP3   OH242154   4.015   0.658   7.802  0.1864  0.5116  0.5295
 6840TIP3    H142155   4.030   0.603   7.725  1.1223  0.4200  0.7738
 6840TIP3    H242156   3.929   0.629   7.835  0.5378 -0.6195  0.5003
 6841TIP3   OH242157   0.102   5.356   6.220 -0.2646  0.1586  0.2876
 6841TIP3    H142158   0.156   5.360   6.298 -0.8818  1.3499  0.6686
 6841TIP3    H242159   0.164   5.348   6.148  0.2743 -2.3029  0.9459
 6842TIP3   OH242160   1.118   1.599   1.315  0.0032  0.4077 -0.4697
 6842TIP3    H142161   1.170   1.522   1.337  0.2819  0.2434 -1.6015
 6842TIP3    H242162   1.042   1.564   1.268 -0.1559  0.7797 -0.4942
 6843TIP3   OH242163   0.094   4.493   8.142 -0.3926  0.1106  0.4066
 6843TIP3    H142164   0.054   4.574   8.172  1.3768  0.7868  1.0302
 6843TIP3    H242165   0.169   4.480   8.199  0.0850 -1.3110 -0.4881
 6844TIP3   OH242166   3.784   0.560   8.383  0.1472  0.4657 -0.1812
 6844TIP3    H142167   3.781   0.465   8.384  1.7626  0.3516  2.0001
 6844TIP3    H242168   3.706   0.588   8.431 -0.1387  0.2464 -0.5150
 6845TIP3   OH242169   2.805   5.980   0.894  0.0147  0.5287  0.3985
 6845TIP3    H142170   2.735   6.000   0.955 -0.0307  0.9783  0.2023
 6845TIP3    H242171   2.818   5.885   0.902  0.4966  0.6832  1.6187
 6846TIP3   OH242172   1.365   0.855   1.522  0.1711  0.4639 -0.0472
 6846TIP3    H142173   1.399   0.915   1.589 -0.8526  0.8264  0.1631
 6846TIP3    H242174   1.347   0.911   1.447  3.2716 -0.2247 -1.4441
 6847TIP3   OH242175   3.008   1.422   1.980  0.0149  0.0604 -0.0734
 6847TIP3    H142176   2.926   1.467   2.002  0.1113  0.4732 -0.5558
 6847TIP3    H242177   2.981   1.332   1.963 -0.4660  0.3851 -1.0574
 6848TIP3   OH242178   1.352   2.465   1.365  0.1254  0.0868  0.8122
 6848TIP3    H142179   1.316   2.553   1.351 -1.2717 -0.8036 -2.3625
 6848TIP3    H242180   1.441   2.469   1.329 -0.0007  0.2042  0.5044
 6849TIP3   OH242181   1.034   5.836   1.070 -0.0029  0.3595 -0.5347
 6849TIP3    H142182   0.974   5.889   1.122  1.0173 -0.1055  1.1880
 6849TIP3    H242183   1.002   5.845   0.980 -1.7568  1.2872  0.1338
 6850TIP3   OH242184   1.522   5.651   8.450 -0.2304 -0.1102  0.2350
 6850TIP3    H142185   1.535   5.684   8.361 -1.5231  2.1014  0.7796
 6850TIP3    H242186   1.427   5.641   8.458 -0.0711 -1.0712  1.1043
 6851TIP3   OH242187   4.023   3.612   7.959 -0.3211  0.5465 -0.0649
 6851TIP3    H142188   3.976   3.559   8.023 -1.2329  2.2035  0.6929
 6851TIP3    H242189   4.046   3.550   7.889  0.6664 -1.2889  1.7924
 6852TIP3   OH242190   4.604   2.484   8.741  0.5924 -0.7784 -0.5370
 6852TIP3    H142191   4.615   2.459   8.649  0.3672 -0.3363 -0.6873
 6852TIP3    H242192   4.548   2.561   8.738 -0.9753 -1.8499  0.0904
 6853TIP3   OH242193   4.409   1.127   7.729 -0.1606  0.2012  0.0499
 6853TIP3    H142194   4.387   1.066   7.658  1.3680  1.0105 -1.1697
 6853TIP3    H242195   4.368   1.209   7.704 -0.2724  0.2960  0.5250
 6854TIP3   OH242196   6.041   6.330   0.092 -0.3362 -0.3055 -0.0273
 6854TIP3    H142197   6.025   6.386   0.016  0.7212  0.0653  0.0061
 6854TIP3    H242198   6.077   6.249   0.056  2.0788  0.6057  0.1469
 6855TIP3   OH242199   5.902   5.162   0.747 -0.1834  0.5529  0.4234
 6855TIP3    H142200   5.877   5.253   0.731 -0.7441 -0.1838 -3.9280
 6855TIP3    H242201   5.988   5.154   0.707 -1.1745 -1.3074 -1.5042
 6856TIP3   OH242202   4.693   6.710   7.570 -0.5775  0.2539 -0.0374
 6856TIP3    H142203   4.756   6.730   7.639  1.0913 -2.1959 -0.7006
 6856TIP3    H242204   4.705   6.781   7.507  1.4466 -0.0044 -0.0338
 6857TIP3   OH242205   5.154   2.659   7.513 -0.5676 -0.1231 -0.1568
 6857TIP3    H142206   5.157   2.674   7.607 -1.8089 -2.4743  0.3409
 6857TIP3    H242207   5.063   2.676   7.489 -0.9223 -2.1057 -0.3771
 6858TIP3   OH242208   1.305   0.566   0.436 -0.1169 -0.0164 -0.2647
 6858TIP3    H142209   1.228   0.583   0.490 -1.1848 -2.2441 -0.9697
 6858TIP3    H242210   1.288   0.610   0.353 -0.5480 -0.3043 -0.3312
 6859TIP3   OH242211   0.734   0.917   2.398 -0.7699  0.0875 -0.3823
 6859TIP3    H142212   0.808   0.964   2.437 -1.2115  1.4171 -1.0782
 6859TIP3    H242213   0.697   0.867   2.471 -0.9309  1.6942  0.6942
 6860TIP3   OH242214   3.063   6.679   7.024 -0.2003 -0.0164  0.5256
 6860TIP3    H142215   3.023   6.762   7.050 -1.9459 -0.9900  1.1281
 6860TIP3    H242216   2.988   6.623   7.001  0.9840 -1.0582 -1.0004
 6861TIP3   OH242217   4.548   1.777   0.978  0.7105  0.4416 -0.2704
 6861TIP3    H142218   4.594   1.790   1.061 -0.5336  1.0443  0.3510
 6861TIP3    H242219   4.557   1.683   0.960 -1.0570 -0.2179  1.8359
 6862TIP3   OH242220   3.078   6.400   8.265  0.0692  0.3325  0.2748
 6862TIP3    H142221   3.001   6.416   8.321 -0.6819  2.1142 -1.1760
 6862TIP3    H242222   3.150   6.445   8.311 -0.6999  2.4808 -0.4792
 6863TIP3   OH242223   3.302   0.627   7.938 -0.1749  0.6157 -0.1456
 6863TIP3    H142224   3.255   0.679   8.003 -0.3883  0.4481 -0.1667
 6863TIP3    H242225   3.237   0.568   7.903 -0.0260  0.6122 -0.4159
 6864TIP3   OH242226   5.428   1.889   1.288 -0.1323  0.7817  0.0999
 6864TIP3    H142227   5.352   1.841   1.320  2.0461 -1.1364  2.9596
 6864TIP3    H242228   5.414   1.979   1.316 -1.0356  0.3064  1.2546
 6865TIP3   OH242229   6.602   0.946   6.418  0.3832  0.3566  0.3055
 6865TIP3    H142230   6.682   0.968   6.370  1.3413 -1.8534  0.7979
 6865TIP3    H242231   6.592   0.852   6.407 -0.9178  0.2306  2.1220
 6866TIP3   OH242232   0.771   3.603   1.383 -0.6436  0.0808  0.3222
 6866TIP3    H142233   0.840   3.573   1.324 -1.3964  1.2625 -1.2177
 6866TIP3    H242234   0.772   3.698   1.375 -2.7925  0.1046 -0.1574
 6867TIP3   OH242235   4.805   2.249   1.479 -0.3330 -0.2535 -0.2203
 6867TIP3    H142236   4.824   2.228   1.571 -0.3631  0.7509  0.0254
 6867TIP3    H242237   4.891   2.255   1.438 -0.1410  1.9837  0.3735
 6868TIP3   OH242238   0.775   1.891   6.343 -0.3024 -0.0002 -0.2523
 6868TIP3    H142239   0.730   1.975   6.345 -1.0301 -0.3950  1.9491
 6868TIP3    H242240   0.841   1.902   6.274  0.9761  3.0915  1.2486
 6869TIP3   OH242241   3.527   2.506   0.971  0.2457  0.3632  0.0502
 6869TIP3    H142242   3.522   2.474   1.061 -3.1616 -0.8202 -0.3964
 6869TIP3    H242243   3.490   2.594   0.975  2.9466  1.5758  0.1758
 6870TIP3   OH242244   4.507   0.257   7.150 -0.2724 -0.3969  0.4689
 6870TIP3    H142245   4.470   0.238   7.236 -0.7435 -0.8949  0.1691
 6870TIP3    H242246   4.564   0.182   7.131 -1.2873 -1.0262 -0.2509
 6871TIP3   OH242247   6.130   6.067   8.283 -0.0446  0.1034  0.5831
 6871TIP3    H142248   6.111   6.068   8.189 -2.0743 -0.2260  0.9289
 6871TIP3    H242249   6.207   6.012   8.293 -0.8184 -1.2969 -0.7568
 6872TIP3   OH242250   2.658   2.011   1.051 -0.0183  0.2321 -0.0081
 6872TIP3    H142251   2.678   2.101   1.028 -1.3031  0.7150  0.6772
 6872TIP3    H242252   2.736   1.981   1.099  0.1152  1.2145  0.4061
 6873TIP3   OH242253   1.370   6.273   0.828 -0.8265 -0.0552  0.0410
 6873TIP3    H142254   1.408   6.344   0.880  0.1665 -0.1808 -0.4800
 6873TIP3    H242255   1.351   6.313   0.743  0.4347 -0.5646 -0.5062
 6874TIP3   OH242256   0.452   0.511   2.492  0.0895  0.1410  0.1574
 6874TIP3    H142257   0.390   0.577   2.463  1.0464  2.2947  2.5898
 6874TIP3    H242258   0.416   0.428   2.460 -1.7929  1.6836 -2.0143
 6875TIP3   OH242259   0.510   4.227   5.739 -0.2307 -0.1188  0.0490
 6875TIP3    H142260   0.590   4.202   5.786  0.2315  1.9767  0.5070
 6875TIP3    H242261   0.508   4.323   5.746 -2.5455 -0.0936 -0.3716
 6876TIP3   OH242262   5.876   4.324   8.214  0.5630 -0.4509  0.8715
 6876TIP3    H142263   5.891   4.386   8.285  1.5406 -0.4399  0.6641
 6876TIP3    H242264   5.954   4.330   8.159  0.0699 -0.8775  0.1069
 6877TIP3   OH242265   2.026   6.026   0.217  0.3213 -0.2234 -0.1315
 6877TIP3    H142266   1.946   6.054   0.262 -0.9368 -1.4756 -1.4542
 6877TIP3    H242267   2.069   6.107   0.192  0.3719  0.5017  2.0460
 6878TIP3   OH242268   4.791   2.874   8.635 -0.2445  0.7869 -0.2481
 6878TIP3    H142269   4.803   2.789   8.678 -0.3793  0.3537 -1.0468
 6878TIP3    H242270   4.793   2.937   8.707  0.1413  0.1372  0.3324
 6879TIP3   OH242271   1.055   4.081   0.836 -0.0071 -0.2364 -0.1256
 6879TIP3    H142272   1.013   4.162   0.804 -1.3868 -1.1283 -0.6651
 6879TIP3    H242273   1.070   4.097   0.929 -1.0663  0.3267 -0.0346
 6880TIP3   OH242274   0.976   2.572   7.616  0.5065 -0.2346 -0.5963
 6880TIP3    H142275   1.005   2.486   7.585 -1.0519 -1.1212  0.2868
 6880TIP3    H242276   0.983   2.628   7.539 -2.2233 -2.1099 -2.3795
 6881TIP3   OH242277   1.550   0.525   6.207  1.1827 -0.0928  0.2219
 6881TIP3    H142278   1.639   0.558   6.204  1.4201 -0.7493 -0.3160
 6881TIP3    H242279   1.538   0.480   6.123 -0.6550  2.5267 -1.0606
 6882TIP3   OH242280   3.394   1.515   0.546  0.0115 -0.4178 -0.0099
 6882TIP3    H142281   3.426   1.599   0.513  0.0658 -0.9586 -1.4209
 6882TIP3    H242282   3.311   1.536   0.590 -0.6342  0.2319 -1.4643
 6883TIP3   OH242283   5.347   1.577   2.022  0.6075  0.5232 -0.8080
 6883TIP3    H142284   5.255   1.594   2.043  0.9372  1.5350 -0.1559
 6883TIP3    H242285   5.380   1.529   2.098  0.7421  0.5585 -0.8447
 6884TIP3   OH242286   1.418   5.837   0.422 -0.2757 -0.6507 -0.7821
 6884TIP3    H142287   1.404   5.815   0.330  0.0178 -1.7461 -0.5785
 6884TIP3    H242288   1.498   5.790   0.446 -0.0105  0.1162 -0.1247
 6885TIP3   OH242289   1.188   5.730   1.426 -0.4338 -0.4647 -0.1846
 6885TIP3    H142290   1.127   5.682   1.483 -0.4181 -1.1178 -0.6988
 6885TIP3    H242291   1.265   5.673   1.421 -0.2312 -0.1669 -0.4376
 6886TIP3   OH242292   0.508   4.191   7.894  0.1474 -0.6013 -0.6716
 6886TIP3    H142293   0.489   4.104   7.860 -0.1286 -0.9597  0.3659
 6886TIP3    H242294   0.487   4.250   7.822  0.1345 -1.3772 -1.3139
 6887TIP3   OH242295   5.323   2.838   8.347 -0.1805  0.3844  0.1418
 6887TIP3    H142296   5.258   2.859   8.280 -0.0374  1.4382  0.3177
 6887TIP3    H242297   5.334   2.919   8.397  1.1220  0.1720  0.2387
 6888TIP3   OH242298   3.632   0.111   0.451 -0.1151 -0.5573  0.1868
 6888TIP3    H142299   3.663   0.145   0.367  0.0558 -1.9628 -0.3559
 6888TIP3    H242300   3.618   0.018   0.435 -2.3451 -0.4249  1.0954
 6889TIP3   OH242301   6.542   0.282   8.079 -0.3028  0.4048 -0.2488
 6889TIP3    H142302   6.637   0.293   8.078 -0.3154  0.6213 -2.0916
 6889TIP3    H242303   6.529   0.187   8.074 -0.1938  0.3581  0.2927
 6890TIP3   OH242304   4.493   6.365   0.746  0.2602  0.0107 -0.5056
 6890TIP3    H142305   4.498   6.460   0.733  0.2089  0.3650  1.6208
 6890TIP3    H242306   4.401   6.343   0.730  0.2004  0.3859 -0.6804
 6891TIP3   OH242307   3.732   6.548   8.673 -0.5278 -0.1785  0.5958
 6891TIP3    H142308   3.828   6.544   8.671 -0.5243 -0.2758 -2.0806
 6891TIP3    H242309   3.707   6.475   8.730  0.9699 -1.2234 -0.0064
 6892TIP3   OH242310   4.706   3.127   0.695  0.5404  0.6258 -0.6028
 6892TIP3    H142311   4.783   3.071   0.684  1.0291  1.3458 -0.9482
 6892TIP3    H242312   4.693   3.167   0.609  0.8349  1.8244 -0.1098
 6893TIP3   OH242313   6.493   0.122   0.357 -0.7375  0.5136  0.2865
 6893TIP3    H142314   6.573   0.149   0.312  0.0194 -0.3824  1.0646
 6893TIP3    H242315   6.498   0.027   0.361 -0.9327  0.5473  1.9828
 6894TIP3   OH242316   3.829   1.690   6.771 -0.0385 -0.0904  0.0287
 6894TIP3    H142317   3.762   1.629   6.740  1.1596 -1.0063 -0.8934
 6894TIP3    H242318   3.904   1.634   6.791  1.0734  1.0701 -0.7797
 6895TIP3   OH242319   6.719   2.243   7.529 -0.0263 -0.1574 -0.1580
 6895TIP3    H142320   6.637   2.290   7.514  0.0789 -0.4981 -2.0919
 6895TIP3    H242321   6.757   2.233   7.442  1.5703 -0.9355  0.5795
 6896TIP3   OH242322   2.138   1.155   1.862  0.2871  0.7062 -0.3796
 6896TIP3    H142323   2.095   1.174   1.945  2.0164 -1.3130  1.0980
 6896TIP3    H242324   2.134   1.060   1.854  1.9712  0.6909 -1.5407
 6897TIP3   OH242325   1.781   2.857   0.960  0.6528  0.3404  0.2116
 6897TIP3    H142326   1.692   2.885   0.941  0.7124  0.6960  0.4443
 6897TIP3    H242327   1.797   2.784   0.900  0.4279  0.6822 -0.2630
 6898TIP3   OH242328   5.067   4.094   6.353 -0.1936 -0.0814 -0.7312
 6898TIP3    H142329   4.976   4.076   6.377 -0.1840 -0.4068 -0.9420
 6898TIP3    H242330   5.067   4.187   6.328 -0.2586  0.1893  0.2520
 6899TIP3   OH242331   2.812   6.175   8.169 -0.0874 -0.0273  0.0939
 6899TIP3    H142332   2.755   6.104   8.139  0.5402 -1.0365  1.2001
 6899TIP3    H242333   2.836   6.222   8.089 -1.1780 -0.5389 -0.5664
 6900TIP3   OH242334   5.994   6.587   0.627 -0.3378  1.1177 -0.0433
 6900TIP3    H142335   6.041   6.665   0.598 -0.8330  0.7930 -1.8751
 6900TIP3    H242336   5.939   6.617   0.699  1.9195  1.7041  1.5338
 6901TIP3   OH242337   3.318   5.021   1.657 -0.7800 -0.2234 -0.0364
 6901TIP3    H142338   3.235   5.069   1.653 -1.2108 -0.8123  1.4570
 6901TIP3    H242339   3.368   5.065   1.726 -0.5614 -0.9552  0.2793
 6902TIP3   OH242340   1.644   0.540   7.623  0.2338  0.0695  0.5534
 6902TIP3    H142341   1.617   0.449   7.637  0.1207  0.2536  1.6996
 6902TIP3    H242342   1.703   0.537   7.548  1.5868 -1.2229  1.6116
 6903TIP3   OH242343   4.312   0.088   0.933  0.0590  0.5464 -0.2838
 6903TIP3    H142344   4.403   0.081   0.903  0.1209  0.0511  0.0167
 6903TIP3    H242345   4.265   0.119   0.855  0.2511 -0.5415 -0.8523
 6904TIP3   OH242346   2.925   3.774   7.625 -0.8625 -0.6714 -0.2376
 6904TIP3    H142347   2.832   3.754   7.612 -0.8950  0.0003 -1.1491
 6904TIP3    H242348   2.941   3.852   7.572  0.7979 -2.2002 -2.1496
 6905TIP3   OH242349   3.917   3.495   8.174  0.2938 -0.1543  0.5470
 6905TIP3    H142350   3.885   3.421   8.225 -1.2197 -2.4871 -3.3599
 6905TIP3    H242351   3.846   3.558   8.175  1.0141  0.7085  2.6860
 6906TIP3   OH242352   6.014   3.025   1.364 -0.1810 -0.6796 -0.5007
 6906TIP3    H142353   5.928   3.006   1.327  0.8253  0.1229 -3.5808
 6906TIP3    H242354   6.000   3.100   1.422 -1.4740 -0.0401 -1.5873
 6907TIP3   OH242355   4.770   2.432   7.697 -0.1812 -0.4472 -0.1512
 6907TIP3    H142356   4.712   2.506   7.681  1.2114  0.7786  0.2145
 6907TIP3    H242357   4.775   2.387   7.612 -0.5796  0.2208 -0.5401
 6908TIP3   OH242358   6.560   3.705   7.639  0.2659  0.0283 -0.0583
 6908TIP3    H142359   6.556   3.613   7.612 -1.5970  0.4058 -1.2326
 6908TIP3    H242360   6.470   3.727   7.662 -0.0299  2.4112 -2.8755
 6909TIP3   OH242361   0.337   5.791   0.010 -0.4364  0.1273 -0.1299
 6909TIP3    H142362   0.319   5.786  -0.084 -1.0084 -2.4238  0.0274
 6909TIP3    H242363   0.251   5.798   0.050 -0.3168 -0.4631  0.2405
 6910TIP3   OH242364   0.549   1.980   6.071  0.1970 -0.2781  0.5499
 6910TIP3    H142365   0.566   2.072   6.089  2.2271 -0.5306  0.1181
 6910TIP3    H242366   0.468   1.961   6.119 -0.2961  1.7189  0.5994
 6911TIP3   OH242367   5.031   2.042   7.233  0.3023 -0.6063  0.1237
 6911TIP3    H142368   5.060   1.953   7.213  1.3219  0.1784 -2.2664
 6911TIP3    H242369   5.112   2.092   7.242 -0.2593  0.4063 -0.3122
 6912TIP3   OH242370   2.828   6.702   6.708 -0.6365 -0.2518  0.1892
 6912TIP3    H142371   2.784   6.668   6.787 -1.6768  0.1783 -0.1942
 6912TIP3    H242372   2.821   6.631   6.645 -0.7512 -0.1915  0.1352
 6913TIP3   OH242373   1.378   1.386   7.687  0.0269 -0.4172  0.2154
 6913TIP3    H142374   1.474   1.379   7.691 -0.1148 -2.4894  1.2573
 6913TIP3    H242375   1.350   1.393   7.778 -0.8128  0.9900 -0.1169
 6914TIP3   OH242376   4.442   5.631   7.999 -0.0794  0.2778 -0.0107
 6914TIP3    H142377   4.373   5.660   8.059  1.2166  2.2205  0.6490
 6914TIP3    H242378   4.495   5.571   8.051 -1.6201 -1.8829 -0.7633
 6915TIP3   OH242379   4.855   3.841   7.535  0.5217  0.8271 -0.2307
 6915TIP3    H142380   4.903   3.826   7.453 -0.4178 -0.8185 -0.5258
 6915TIP3    H242381   4.917   3.817   7.604  0.0639 -1.8105 -0.6194
 6916TIP3   OH242382   5.475   0.065   0.465 -0.3020 -0.2704 -0.2853
 6916TIP3    H142383   5.472   0.009   0.388  0.4843 -1.1227  0.2730
 6916TIP3    H242384   5.531   0.138   0.440 -0.8876 -0.0045 -0.8450
 6917TIP3   OH242385   5.407   2.986   1.064  0.3591 -0.2629  1.0245
 6917TIP3    H142386   5.385   3.075   1.093  1.8186  0.1000  1.0696
 6917TIP3    H242387   5.431   2.940   1.144  0.6967 -0.3657  0.8656
 6918TIP3   OH242388   3.758   1.045   8.163  0.5035  0.0453  0.3258
 6918TIP3    H142389   3.763   1.116   8.227 -1.7341  1.7998 -1.3046
 6918TIP3    H242390   3.666   1.042   8.137  0.8300 -2.4412 -0.8509
 6919TIP3   OH242391   1.165   3.291   6.273  0.0487 -0.0182 -0.0213
 6919TIP3    H142392   1.166   3.337   6.358  1.0593  0.1093 -0.0876
 6919TIP3    H242393   1.229   3.339   6.220 -0.4587 -0.1980 -0.8118
 6920TIP3   OH242394   3.052   1.136   0.007  0.4550 -0.1053  0.1953
 6920TIP3    H142395   3.112   1.161   0.077 -0.6121 -1.6844  1.7552
 6920TIP3    H242396   2.971   1.184   0.025 -0.6960 -2.3981  1.6507
 6921TIP3   OH242397   4.963   5.622   0.760 -0.0884  0.5315  0.1205
 6921TIP3    H142398   5.019   5.591   0.688  0.0574  0.1113  0.4055
 6921TIP3    H242399   5.024   5.647   0.829 -0.2462  0.1744  0.3933
 6922TIP3   OH242400   2.364   1.991   0.185 -0.3599  0.0983  0.5509
 6922TIP3    H142401   2.355   2.084   0.164 -1.9486 -0.3540 -1.0367
 6922TIP3    H242402   2.284   1.951   0.151 -0.2035 -1.7206  2.1154
 6923TIP3   OH242403   2.511   0.714   1.067 -0.2724 -0.1260  0.0887
 6923TIP3    H142404   2.592   0.706   1.015 -0.7253  0.8703 -0.8083
 6923TIP3    H242405   2.530   0.667   1.148  1.5995  0.9970  0.3618
 6924TIP3   OH242406   3.736   3.771   8.535  0.1459  0.6450  0.3412
 6924TIP3    H142407   3.812   3.816   8.498  0.3303 -0.6516 -0.9832
 6924TIP3    H242408   3.773   3.696   8.582 -0.2358  0.7659  0.8331
 6925TIP3   OH242409   2.275   5.033   8.705  0.2711  0.2632 -0.1048
 6925TIP3    H142410   2.367   5.018   8.683  0.3444  0.9644 -0.3149
 6925TIP3    H242411   2.240   5.082   8.630 -0.7555 -1.5720 -0.8803
 6926TIP3   OH242412   5.886   4.271   0.075  0.1496 -0.1827 -0.2407
 6926TIP3    H142413   5.811   4.213   0.060  2.2204 -3.1419 -0.1283
 6926TIP3    H242414   5.887   4.330  -0.000 -0.2208 -2.5584 -2.2238
 6927TIP3   OH242415   1.682   4.375   1.129 -0.1229 -0.1718 -0.2209
 6927TIP3    H142416   1.650   4.369   1.219 -1.9116 -0.7024 -0.8514
 6927TIP3    H242417   1.612   4.419   1.081  1.7678  2.2448 -0.9574
 6928TIP3   OH242418   1.864   0.702   6.736  0.1262 -0.4960  0.3110
 6928TIP3    H142419   1.783   0.752   6.745  0.1812 -0.5705  1.3650
 6928TIP3    H242420   1.837   0.611   6.742  0.2943 -0.5183  0.7810
 6929TIP3   OH242421   3.734   6.249   8.569 -0.2543 -0.6514 -0.2206
 6929TIP3    H142422   3.722   6.261   8.664 -1.8251 -1.2560 -0.3089
 6929TIP3    H242423   3.693   6.164   8.551 -1.5137  0.2287 -1.7069
 6930TIP3   OH242424   3.001   3.468   6.754 -0.4631  0.5316  0.3512
 6930TIP3    H142425   3.052   3.417   6.690 -2.0282 -0.3572 -0.2406
 6930TIP3    H242426   2.915   3.428   6.753 -0.5583  0.5065  3.0556
 6931TIP3   OH242427   5.025   4.235   7.370 -0.1476 -0.4846  0.4041
 6931TIP3    H142428   4.932   4.256   7.380 -0.6693 -1.0296 -2.2801
 6931TIP3    H242429   5.059   4.306   7.316  0.4910 -1.3082 -0.3033
 6932TIP3   OH242430   6.781   2.849   7.614 -0.5094  0.3608 -0.2641
 6932TIP3    H142431   6.762   2.843   7.521 -1.0838  1.7477 -0.2469
 6932TIP3    H242432   6.875   2.831   7.620 -0.5447 -0.1418 -1.0482
 6933TIP3   OH242433   0.017   0.447   6.881 -0.4346  0.3775  0.1459
 6933TIP3    H142434   0.044   0.488   6.799 -0.4706  0.4491  0.1702
 6933TIP3    H242435  -0.059   0.393   6.858  0.4412 -0.7642 -0.1591
 6934TIP3   OH242436   4.947   2.999   8.418  0.4152  0.2261  0.4167
 6934TIP3    H142437   4.890   2.949   8.476  1.5174 -0.5905  0.8406
 6934TIP3    H242438   4.978   2.934   8.354 -0.0421  0.9118 -0.5248
 6935TIP3   OH242439   3.954   3.907   7.374 -0.3257  0.0238  0.0925
 6935TIP3    H142440   3.934   3.814   7.381  0.2261 -0.1585 -0.7426
 6935TIP3    H242441   3.870   3.951   7.393 -1.0601 -0.6812 -1.3691
 6936TIP3   OH242442   0.969   0.244   1.112 -0.3496  0.2932  0.2499
 6936TIP3    H142443   0.897   0.233   1.174  0.5111 -0.4997  1.1538
 6936TIP3    H242444   1.047   0.245   1.167  0.3123  1.5734 -0.6727
 6937TIP3   OH242445   4.216   6.522   0.327  0.5576 -0.0963 -0.1813
 6937TIP3    H142446   4.293   6.466   0.331 -0.0385 -0.9479 -0.3144
 6937TIP3    H242447   4.190   6.521   0.235 -0.1909 -0.6391  0.0214
 6938TIP3   OH242448   5.099   0.062   2.290  0.1756  0.3265 -0.1465
 6938TIP3    H142449   5.008   0.079   2.266 -0.4627 -0.3903  1.6202
 6938TIP3    H242450   5.102  -0.033   2.301  0.7026  0.5106  1.4416
 6939TIP3   OH242451   2.057   0.857   6.908  0.2525 -0.0524 -0.1399
 6939TIP3    H142452   2.068   0.933   6.851 -0.8792  0.9045  0.8644
 6939TIP3    H242453   2.011   0.793   6.853  0.9017  0.1061 -0.8858
 6940TIP3   OH242454   2.947   6.575   8.743 -0.2942  0.7144 -0.1677
 6940TIP3    H142455   2.900   6.555   8.824  1.1070 -0.5502  0.3790
 6940TIP3    H242456   2.951   6.492   8.696  0.9187  0.9108 -0.4378
 6941TIP3   OH242457   0.442   4.140   6.909 -0.1826 -0.3790  0.2486
 6941TIP3    H142458   0.348   4.154   6.907  0.0429  1.1435 -0.9466
 6941TIP3    H242459   0.480   4.227   6.901  1.3340 -1.0008  0.3401
 6942TIP3   OH242460   0.495   1.497   6.233  0.8098 -0.2978  0.8890
 6942TIP3    H142461   0.544   1.535   6.306  0.9540  2.0384 -0.3407
 6942TIP3    H242462   0.509   1.558   6.160 -1.6304 -1.0424 -0.3001
 6943TIP3   OH242463   6.821   5.539   7.937  0.1983 -0.4552 -0.0362
 6943TIP3    H142464   6.909   5.561   7.968  0.0397 -0.6361  0.5681
 6943TIP3    H242465   6.810   5.589   7.857  0.5906  0.1115  0.2579
 6944TIP3   OH242466   6.565   3.145   0.103 -0.1628  0.1815  0.0211
 6944TIP3    H142467   6.478   3.121   0.072 -0.2722  0.4250  0.1331
 6944TIP3    H242468   6.573   3.102   0.188 -0.7263  1.2743  0.6508
 6945TIP3   OH242469   4.220   5.759   6.727  0.3073  0.0174  0.1309
 6945TIP3    H142470   4.160   5.744   6.800  1.3953  0.4067  1.1553
 6945TIP3    H242471   4.218   5.854   6.714  1.0701  0.1010  0.5348
 6946TIP3   OH242472   5.596   5.548   0.181  0.8879 -0.2014 -0.3284
 6946TIP3    H142473   5.608   5.464   0.138  0.9222  0.6308 -2.0081
 6946TIP3    H242474   5.505   5.573   0.161  1.2996  0.7862 -1.0294
 6947TIP3   OH242475   3.653   6.552   7.649 -0.5755  0.7273 -0.2509
 6947TIP3    H142476   3.698   6.636   7.663 -1.2705  0.9408  0.8159
 6947TIP3    H242477   3.561   6.576   7.636 -0.7410  0.1528 -0.1751
 6948TIP3   OH242478   2.939   2.271   1.705  0.3454 -0.1266 -0.1246
 6948TIP3    H142479   2.857   2.223   1.717 -1.5647  3.2049  1.6829
 6948TIP3    H242480   2.959   2.308   1.791  2.4968  1.0348 -1.0326
 6949TIP3   OH242481   5.014   0.277   0.475 -0.6081 -0.1249  0.5984
 6949TIP3    H142482   4.998   0.290   0.382 -0.5900 -1.6250  0.3724
 6949TIP3    H242483   5.109   0.271   0.482 -0.4733  1.7856  0.9900
 6950TIP3   OH242484   2.507   0.249   8.629 -0.0486 -0.1613 -0.1522
 6950TIP3    H142485   2.501   0.181   8.562  0.4434 -0.0811 -0.2797
 6950TIP3    H242486   2.554   0.321   8.586 -0.6988  0.3193 -0.0662
 6951TIP3   OH242487   6.713   0.622   2.008  0.1417  0.3749  0.0867
 6951TIP3    H142488   6.703   0.708   2.048  1.2119 -0.5233  2.5022
 6951TIP3    H242489   6.632   0.575   2.029  0.6075 -0.0179  1.0950
 6952TIP3   OH242490   4.851   6.522   1.322  0.1131  0.0133 -0.1662
 6952TIP3    H142491   4.882   6.581   1.391  0.5343 -1.5382  1.0394
 6952TIP3    H242492   4.893   6.439   1.342 -2.6758 -1.4786 -0.0939
 6953TIP3   OH242493   3.569   2.930   7.147  0.3100  0.0821 -0.2592
 6953TIP3    H142494   3.615   2.994   7.201  2.5481 -1.4989 -0.1487
 6953TIP3    H242495   3.584   2.846   7.191 -0.9475 -0.7942 -1.3895
 6954TIP3   OH242496   2.212   2.845   1.123  0.4232 -0.4843 -0.7272
 6954TIP3    H142497   2.183   2.869   1.035 -1.3718 -1.6550 -0.5041
 6954TIP3    H242498   2.242   2.755   1.114  0.8860 -0.3825 -0.2461
 6955TIP3   OH242499   6.587   4.341   6.795  0.6154  0.2684  0.0127
 6955TIP3    H142500   6.626   4.427   6.780  1.9253 -0.2293  0.4438
 6955TIP3    H242501   6.628   4.285   6.730  2.6250 -0.8320  2.1190
 6956TIP3   OH242502   4.311   1.489   1.456 -0.7289 -0.6089 -0.1866
 6956TIP3    H142503   4.236   1.464   1.402 -0.2960  1.4820 -1.9340
 6956TIP3    H242504   4.387   1.462   1.404 -0.2785 -0.4094  0.3571
 6957TIP3   OH242505   0.330   1.443   0.414 -0.7395  0.4753  0.3068
 6957TIP3    H142506   0.337   1.384   0.488 -0.3253  0.2025  0.0545
 6957TIP3    H242507   0.376   1.522   0.442 -1.4759  0.7670  0.7235
 6958TIP3   OH242508   2.977   3.484   7.615 -0.1995  0.6370 -0.9708
 6958TIP3    H142509   2.927   3.565   7.608 -1.7832 -0.2024 -0.0307
 6958TIP3    H242510   3.017   3.472   7.529 -3.0810  0.4717 -2.3947
 6959TIP3   OH242511   5.328   4.832   0.473 -0.2632  0.9432  0.3542
 6959TIP3    H142512   5.310   4.833   0.379  0.2544  0.0054  0.2246
 6959TIP3    H242513   5.354   4.921   0.494  0.8767  0.8638 -0.6543
 6960TIP3   OH242514   0.531   2.533   1.243  0.3267  0.7085  0.1836
 6960TIP3    H142515   0.529   2.567   1.333 -1.5623  0.2324  0.3639
 6960TIP3    H242516   0.614   2.564   1.208 -0.3187  3.6623  1.0108
 6961TIP3   OH242517   2.485   4.410   2.505  0.0880 -0.0663 -0.1191
 6961TIP3    H142518   2.519   4.482   2.559 -0.3612  0.1411 -0.1082
 6961TIP3    H242519   2.546   4.405   2.431  0.3392  0.0762  0.0789
 6962TIP3   OH242520   1.565   2.565   7.107 -0.4358  0.1513 -0.4845
 6962TIP3    H142521   1.498   2.558   7.039  0.1017  3.7981 -1.6294
 6962TIP3    H242522   1.609   2.480   7.106 -0.7007 -0.1592 -4.5047
 6963TIP3   OH242523   1.959   1.202   0.169  0.0744 -0.1728 -0.0919
 6963TIP3    H142524   1.874   1.194   0.126  0.1539  2.4079 -0.8739
 6963TIP3    H242525   1.951   1.280   0.225  2.0826  0.4875 -0.6489
 6964TIP3   OH242526   4.064   6.772   7.698 -0.3353 -0.2244  0.4649
 6964TIP3    H142527   4.093   6.695   7.748  2.8425 -0.8534 -1.9825
 6964TIP3    H242528   4.129   6.839   7.719 -0.1279  0.1294 -1.1893
 6965TIP3   OH242529   6.757   0.928   1.871  0.3985 -0.4822  0.3513
 6965TIP3    H142530   6.806   0.861   1.918 -0.2526 -0.5911  0.8925
 6965TIP3    H242531   6.715   0.882   1.799 -0.5572 -0.8040  1.0858
 6966TIP3   OH242532   5.830   6.676   0.821 -1.1352 -0.2814  0.7801
 6966TIP3    H142533   5.839   6.661   0.915 -1.3815  1.2731  1.0821
 6966TIP3    H242534   5.736   6.681   0.806 -1.2270 -2.6864  0.0236
 6967TIP3   OH242535   5.717   3.699   0.482 -0.0117  0.3965 -0.2443
 6967TIP3    H142536   5.795   3.648   0.459 -0.3671 -0.1973 -0.1623
 6967TIP3    H242537   5.708   3.688   0.577 -0.0628  0.6546 -0.2177
 6968TIP3   OH242538   2.883   3.757   0.513  0.2707 -0.3732 -0.2174
 6968TIP3    H142539   2.837   3.725   0.435  2.6847 -0.8532 -1.5388
 6968TIP3    H242540   2.943   3.687   0.536  1.2965  0.7474  0.6233
 6969TIP3   OH242541   1.672   1.131   2.380  0.4136 -0.0932  0.7794
 6969TIP3    H142542   1.626   1.047   2.381  0.9949 -0.4143  1.3354
 6969TIP3    H242543   1.694   1.147   2.471  2.2385 -0.4226  0.4315
 6970TIP3   OH242544   2.044   4.945   1.759 -0.1719 -0.4416  0.1126
 6970TIP3    H142545   2.098   4.916   1.685  0.5569 -0.5541  0.6799
 6970TIP3    H242546   2.041   5.041   1.749  2.0109 -0.1815  1.2928
 6971TIP3   OH242547   1.939   2.617   8.482  0.1978  0.4194 -0.2668
 6971TIP3    H142548   1.945   2.615   8.387  0.6639  0.0314 -0.2374
 6971TIP3    H242549   1.880   2.544   8.504  0.2788  0.3588 -0.2487
 6972TIP3   OH242550   0.673   6.457   2.520  0.1587  0.3807 -0.0496
 6972TIP3    H142551   0.728   6.510   2.462 -0.8053  0.1116 -1.2297
 6972TIP3    H242552   0.638   6.388   2.465 -2.0610  1.0350  0.4536
 6973TIP3   OH242553   3.793   1.581   1.121  0.0663  0.3689 -0.2512
 6973TIP3    H142554   3.737   1.558   1.195 -0.0112 -0.7913 -0.6423
 6973TIP3    H242555   3.810   1.497   1.077  1.7322  0.7493 -0.4041
 6974TIP3   OH242556   4.385   2.599   6.528 -0.2858 -0.7463 -0.1452
 6974TIP3    H142557   4.331   2.611   6.607 -0.6210  0.6457 -0.5583
 6974TIP3    H242558   4.433   2.518   6.544  0.0948 -0.1994  1.7532
 6975TIP3   OH242559   0.939   5.642   8.582  0.2410  0.0405 -0.3554
 6975TIP3    H142560   0.987   5.696   8.519  1.1598 -1.2072 -0.7805
 6975TIP3    H242561   0.960   5.680   8.667  1.6659 -0.1928 -0.5655
 6976TIP3   OH242562   2.449   2.494   1.502  0.3991  0.3586  0.0675
 6976TIP3    H142563   2.373   2.437   1.497  0.2522  0.6436 -1.8961
 6976TIP3    H242564   2.445   2.533   1.589 -0.0619 -1.8162  1.0738
 6977TIP3   OH242565   3.235   3.918   1.245  0.1407 -0.0741 -0.7433
 6977TIP3    H142566   3.278   4.003   1.238  0.6570 -0.3955 -1.7114
 6977TIP3    H242567   3.288   3.869   1.308 -0.6343  0.5829  0.4537
 6978TIP3   OH242568   6.442   4.055   2.134 -0.3916 -0.5835  0.3044
 6978TIP3    H142569   6.372   4.048   2.069  0.0355  0.6976 -0.3145
 6978TIP3    H242570   6.472   4.146   2.127  0.8851 -0.9356  1.0252
 6979TIP3   OH242571   0.295   2.612   0.085 -0.3424 -0.5027  0.1799
 6979TIP3    H142572   0.271   2.704   0.082 -0.9633 -0.6815 -1.6237
 6979TIP3    H242573   0.217   2.568   0.119 -0.7970 -0.5615 -0.9137
 6980TIP3   OH242574   5.828   5.221   2.049 -0.4726 -0.6312 -0.0546
 6980TIP3    H142575   5.887   5.291   2.025  1.1871 -2.0658 -0.3478
 6980TIP3    H242576   5.821   5.227   2.145  0.2207 -0.4934 -0.0097
 6981TIP3   OH242577   6.846   4.603   6.180 -0.6919 -0.4031  0.1378
 6981TIP3    H142578   6.853   4.692   6.146  0.8219 -1.1393 -1.6709
 6981TIP3    H242579   6.840   4.548   6.102  1.1041 -2.0494  1.0748
 6982TIP3   OH242580   4.752   6.513   6.154  0.5704  0.4142  0.0536
 6982TIP3    H142581   4.804   6.534   6.232  0.6128 -0.9970  0.4263
 6982TIP3    H242582   4.807   6.452   6.104  0.4032  1.0393 -0.9245
 6983TIP3   OH242583   6.472   1.784   7.647  0.3572 -0.1881 -0.1005
 6983TIP3    H142584   6.496   1.744   7.564 -0.7038  1.2116 -1.1341
 6983TIP3    H242585   6.540   1.849   7.663 -0.0904  0.3919 -0.5198
 6984TIP3   OH242586   5.248   5.115   1.295  0.7228 -0.0506  0.4553
 6984TIP3    H142587   5.162   5.129   1.334  0.2636  0.2981 -0.6685
 6984TIP3    H242588   5.267   5.022   1.312 -0.1452 -0.2893  0.1766
 6985TIP3   OH242589   4.672   4.426   0.165  0.2110 -0.4481  0.2495
 6985TIP3    H142590   4.583   4.406   0.137  0.7097 -3.5871  0.6375
 6985TIP3    H242591   4.665   4.512   0.207 -2.1355  0.4513 -1.7465
 6986TIP3   OH242592   5.246   5.583   1.574 -0.9095 -0.1331 -0.7193
 6986TIP3    H142593   5.306   5.658   1.570 -0.0389 -0.7256  0.4349
 6986TIP3    H242594   5.192   5.591   1.496  0.3023  0.7545 -1.5074
 6987TIP3   OH242595   0.566   5.117   6.496 -0.2443  0.1483  0.2010
 6987TIP3    H142596   0.660   5.133   6.497 -0.1616 -0.3440  0.7849
 6987TIP3    H242597   0.555   5.041   6.439 -0.3018  0.3026  0.0076
 6988TIP3   OH242598   5.136   3.511   0.192 -0.0746  0.2126  0.3804
 6988TIP3    H142599   5.187   3.434   0.165 -0.2275  0.0971  0.4199
 6988TIP3    H242600   5.201   3.569   0.233  0.1764  0.4328 -0.3160
 6989TIP3   OH242601   3.407   0.285   6.958 -0.1086 -0.0566 -0.1989
 6989TIP3    H142602   3.440   0.205   6.917 -1.1580 -1.3781  1.4276
 6989TIP3    H242603   3.470   0.304   7.027 -0.3564 -0.0124  0.0155
 6990TIP3   OH242604   4.313   6.081   8.358  0.0953  0.3989  0.1073
 6990TIP3    H142605   4.245   6.134   8.315  1.5898  2.3647  0.0387
 6990TIP3    H242606   4.370   6.052   8.286  0.7006  0.8311  0.4088
 6991TIP3   OH242607   4.322   3.982   7.939 -0.7347  0.1228  0.4347
 6991TIP3    H142608   4.377   4.023   7.872  0.2340 -3.4370 -1.1532
 6991TIP3    H242609   4.247   4.041   7.947  0.4333  2.0671 -1.7597
 6992TIP3   OH242610   1.292   5.541   6.333  0.4488 -0.5935 -0.0790
 6992TIP3    H142611   1.354   5.517   6.264  1.0517  0.4104  0.0992
 6992TIP3    H242612   1.240   5.612   6.295 -0.7471 -1.5337 -0.2900
 6993TIP3   OH242613   2.659   4.566   8.363  0.4690  0.4472  0.6396
 6993TIP3    H142614   2.739   4.514   8.357 -0.5697 -1.2564  0.6863
 6993TIP3    H242615   2.664   4.627   8.289  0.8739 -1.0230 -0.6023
 6994TIP3   OH242616   3.132   2.593   7.937 -0.5023 -0.2557 -0.2598
 6994TIP3    H142617   3.107   2.675   7.979 -1.5338 -0.5102 -0.3557
 6994TIP3    H242618   3.062   2.575   7.874 -1.1328 -1.9949  0.8597
 6995TIP3   OH242619   4.045   2.151   7.436 -0.6084 -0.1404 -0.1407
 6995TIP3    H142620   4.121   2.166   7.492 -0.0902  1.4593 -1.1831
 6995TIP3    H242621   3.999   2.235   7.435 -1.3259 -0.5181 -1.0443
 6996TIP3   OH242622   1.988   2.174   8.490 -0.2768 -0.2892 -0.1896
 6996TIP3    H142623   2.027   2.119   8.423 -1.1589 -0.8505 -0.2536
 6996TIP3    H242624   2.040   2.156   8.569 -0.1225 -0.6813 -0.3779
 6997TIP3   OH242625   1.021   2.713   7.370  0.2077 -0.3849 -0.5401
 6997TIP3    H142626   0.982   2.797   7.396  1.3214  0.3198 -1.0766
 6997TIP3    H242627   0.971   2.686   7.293  1.1958  0.8722 -1.6683
 6998TIP3   OH242628   0.033   3.894   1.581  0.1379  0.3439 -0.3467
 6998TIP3    H142629   0.036   3.989   1.587 -1.1400  0.3921 -0.0752
 6998TIP3    H242630   0.120   3.865   1.608  0.2471  1.3975  0.4950
 6999TIP3   OH242631   1.412   4.826   1.501  0.2598  0.6435 -0.0370
 6999TIP3    H142632   1.454   4.742   1.482 -1.9588 -0.6644  0.4131
 6999TIP3    H242633   1.334   4.827   1.446  0.7966  2.9679 -0.8707
 7000TIP3   OH242634   4.334   1.012   0.820 -0.1806  0.6093  0.0147
 7000TIP3    H142635   4.269   0.949   0.790  0.2284  0.2573 -0.1368
 7000TIP3    H242636   4.386   0.965   0.884  0.6309  0.5406 -0.6816
 7001TIP3   OH242637   0.965   2.165   8.652  0.0084 -0.1148  0.6092
 7001TIP3    H142638   0.931   2.078   8.673 -0.7462  0.1452  0.4906
 7001TIP3    H242639   0.896   2.226   8.679 -0.8095  0.2709 -1.9746
 7002TIP3   OH242640   4.711   3.182   0.432 -0.3677 -0.5820 -1.1131
 7002TIP3    H142641   4.661   3.140   0.362  0.6141 -0.5420 -1.8415
 7002TIP3    H242642   4.755   3.256   0.391  0.1444 -0.4967 -0.4382
 7003TIP3   OH242643   3.858   1.265   0.426  0.0329  0.0293  0.1250
 7003TIP3    H142644   3.927   1.292   0.487 -0.2305  0.2799  0.3119
 7003TIP3    H242645   3.782   1.251   0.482 -0.4003  0.9194 -0.2285
 7004TIP3   OH242646   6.201   4.479   1.156  0.4536  0.0636 -0.3446
 7004TIP3    H142647   6.218   4.574   1.157  0.3074  0.1241 -1.5837
 7004TIP3    H242648   6.171   4.462   1.067  2.3013 -1.4574 -0.7439
 7005TIP3   OH242649   0.428   5.645   6.457  0.1516  0.3155 -0.2398
 7005TIP3    H142650   0.514   5.611   6.432 -0.3663 -1.3562  0.1041
 7005TIP3    H242651   0.440   5.673   6.548  1.1946  3.3991 -1.2192
 7006TIP3   OH242652   2.968   2.931   6.607 -0.5067  0.3515 -0.1254
 7006TIP3    H142653   3.015   2.855   6.573 -1.2239 -0.2470  0.1892
 7006TIP3    H242654   2.979   2.998   6.539  1.7929  0.6494  0.4752
 7007TIP3   OH242655   3.050   2.929   2.142  0.0719 -0.1398  0.1187
 7007TIP3    H142656   3.048   3.024   2.130 -0.0681 -0.3230 -1.5155
 7007TIP3    H242657   3.140   2.911   2.169 -0.0915  0.5085  1.1692
 7008TIP3   OH242658   2.505   2.968   6.881 -0.0072 -0.3330 -0.4956
 7008TIP3    H142659   2.531   3.050   6.921 -2.7041  1.5600 -2.2168
 7008TIP3    H242660   2.484   2.910   6.954 -1.1073  1.6605  0.8575
 7009TIP3   OH242661   4.455   5.071   0.689  0.7373  0.7688  0.1242
 7009TIP3    H142662   4.401   5.073   0.610 -1.1467 -0.4223  1.3138
 7009TIP3    H242663   4.480   5.163   0.702 -0.8212  1.3442 -0.6152
 7010TIP3   OH242664   0.381   2.139   2.166 -0.2116 -0.3999 -0.0842
 7010TIP3    H142665   0.445   2.111   2.232 -0.6724 -1.3771 -0.0239
 7010TIP3    H242666   0.297   2.110   2.201 -0.3933 -1.5894 -1.4082
 7011TIP3   OH242667   3.699   2.567   6.920  0.6257 -0.1493 -0.0807
 7011TIP3    H142668   3.699   2.493   6.859  1.8689 -1.7732  1.7796
 7011TIP3    H242669   3.611   2.567   6.958  0.1954  0.2080 -1.0186
 7012TIP3   OH242670   6.341   5.425   7.165 -0.6262  0.1257  0.4480
 7012TIP3    H142671   6.260   5.466   7.195 -0.8960  0.1185 -0.2368
 7012TIP3    H242672   6.343   5.443   7.071  0.5040  0.6942  0.5644
 7013TIP3   OH242673   5.981   5.492   1.392  0.2009  0.1546  0.2376
 7013TIP3    H142674   6.022   5.551   1.328 -0.4981 -0.3184 -0.6684
 7013TIP3    H242675   6.030   5.507   1.473  0.4744  1.4727 -0.1505
 7014TIP3   OH242676   6.088   2.193   7.751 -0.3588 -0.0924 -0.1735
 7014TIP3    H142677   6.051   2.221   7.667 -0.2973 -0.8610 -0.4644
 7014TIP3    H242678   6.157   2.131   7.727  0.7453  0.8709  0.3863
 7015TIP3   OH242679   2.872   5.542   0.674  0.0106 -0.2479  0.4848
 7015TIP3    H142680   2.918   5.606   0.728 -0.1223  1.0148 -0.8355
 7015TIP3    H242681   2.788   5.583   0.655 -0.1260 -0.8636 -0.2870
 7016TIP3   OH242682   4.900   2.754   1.259 -0.0129  0.4845 -0.0483
 7016TIP3    H142683   4.879   2.685   1.322  2.3867  0.1699  0.4959
 7016TIP3    H242684   4.995   2.766   1.267  0.2203  1.1449 -2.9212
 7017TIP3   OH242685   3.021   0.189   7.930  0.1793 -0.5369 -0.3637
 7017TIP3    H142686   3.061   0.102   7.921 -2.5091 -2.0923  1.3052
 7017TIP3    H242687   2.942   0.184   7.877  0.2597  1.1505 -0.6874
 7018TIP3   OH242688   2.714   0.872   8.751  0.4982 -0.0456 -0.8350
 7018TIP3    H142689   2.703   0.908   8.839 -2.1932  0.9603 -1.5171
 7018TIP3    H242690   2.776   0.931   8.709  0.6414  0.3426 -0.0975
 7019TIP3   OH242691   5.883   3.967   8.469  0.0889  0.2356 -0.1822
 7019TIP3    H142692   5.854   4.056   8.448  0.1437  0.1620 -0.5715
 7019TIP3    H242693   5.821   3.937   8.535 -2.2181 -0.7972 -2.6460
 7020TIP3   OH242694   2.940   0.963   0.623 -0.3132 -0.4406 -0.2085
 7020TIP3    H142695   2.996   0.975   0.547 -1.1891  0.1492 -0.7809
 7020TIP3    H242696   2.926   0.869   0.628 -0.6725 -0.4498 -1.1088
 7021TIP3   OH242697   5.503   0.977   1.603  0.3670  0.5614  0.4331
 7021TIP3    H142698   5.490   0.920   1.679 -0.2252 -0.3586 -0.3352
 7021TIP3    H242699   5.505   1.066   1.640 -0.6021  0.1849  1.4616
 7022TIP3   OH242700   0.393   0.391   0.752  0.0036  0.1100  0.1022
 7022TIP3    H142701   0.415   0.419   0.663 -1.4190  1.4845  0.1213
 7022TIP3    H242702   0.405   0.470   0.804 -1.2129 -0.1114  0.7389
 7023TIP3   OH242703   4.941   3.991   6.761 -0.2901  0.3918 -0.5884
 7023TIP3    H142704   4.981   3.935   6.694 -0.3831  1.5544 -1.6540
 7023TIP3    H242705   4.947   3.940   6.842 -2.1055 -2.0037 -1.8189
 7024TIP3   OH242706   0.056   5.553   8.394 -0.3408 -0.2590 -0.2720
 7024TIP3    H142707   0.092   5.607   8.323 -0.6221 -0.5172 -0.6193
 7024TIP3    H242708  -0.030   5.526   8.361 -0.9487  0.5160  0.6189
 7025TIP3   OH242709   3.408   1.520   7.376 -0.0077  0.1738  0.3323
 7025TIP3    H142710   3.337   1.457   7.372  0.6204 -0.5411  0.3356
 7025TIP3    H242711   3.487   1.469   7.359  0.4415  1.0880 -0.4400
 7026TIP3   OH242712   5.406   3.966   1.252  0.0743 -0.0672  0.4349
 7026TIP3    H142713   5.334   3.985   1.192  0.5419  0.4170  0.0195
 7026TIP3    H242714   5.368   3.907   1.317 -0.8571  0.6677  0.5714
 7027TIP3   OH242715   1.761   1.602   7.724  0.3350 -0.0453  0.3129
 7027TIP3    H142716   1.847   1.566   7.744  0.3791 -0.1109  0.0167
 7027TIP3    H242717   1.774   1.696   7.720  0.7880 -0.1514 -1.5158
 7028TIP3   OH242718   5.603   6.091   7.134  0.2507  0.3046 -0.4618
 7028TIP3    H142719   5.611   6.182   7.159 -0.1470 -0.5651  3.4407
 7028TIP3    H242720   5.510   6.080   7.114  0.0886  0.5283  0.1563
 7029TIP3   OH242721   2.078   1.537   8.234  0.3444  0.0215  0.0147
 7029TIP3    H142722   2.080   1.626   8.198 -1.1637  0.5353  1.1286
 7029TIP3    H242723   2.136   1.487   8.177 -0.3479  1.2617 -1.8503
 7030TIP3   OH242724   6.846   6.388   0.602  0.1667  0.1370  0.1596
 7030TIP3    H142725   6.777   6.423   0.545  0.4805  1.1832  0.3974
 7030TIP3    H242726   6.866   6.302   0.565 -1.2483 -0.1870  0.0780
 7031TIP3   OH242727   5.664   1.398   0.299  0.3125  0.0989  0.8051
 7031TIP3    H142728   5.606   1.323   0.298  1.3136 -0.6982  1.0439
 7031TIP3    H242729   5.662   1.430   0.389 -0.0242  0.3042  0.7287
 7032TIP3   OH242730   5.181   5.075   1.615 -0.7330 -0.1556 -0.9127
 7032TIP3    H142731   5.104   5.115   1.576  0.1369  0.4116 -2.1069
 7032TIP3    H242732   5.245   5.146   1.622  0.0408 -0.8285 -0.9298
 7033TIP3   OH242733   3.045   5.245   8.043  0.4923  0.2253 -0.1171
 7033TIP3    H142734   3.011   5.241   7.954  1.3633  0.0354 -0.4473
 7033TIP3    H242735   2.984   5.304   8.089 -0.8865 -0.9094 -0.4007
 7034TIP3   OH242736   2.203   0.965   2.212 -0.4840  0.1941 -0.1720
 7034TIP3    H142737   2.290   0.934   2.239 -0.6543  0.6177  0.9268
 7034TIP3    H242738   2.146   0.888   2.220  0.1709 -0.7400 -3.1464
 7035TIP3   OH242739   6.797   4.926   0.840 -0.1124  0.1326 -0.1419
 7035TIP3    H142740   6.852   4.936   0.762  0.6158  0.6293  0.4167
 7035TIP3    H242741   6.736   4.855   0.817  1.1276 -0.8359 -0.5973
 7036TIP3   OH242742   4.138   0.206   1.359 -0.1477  0.2277  0.2912
 7036TIP3    H142743   4.156   0.249   1.443  0.3225  1.0027 -0.1952
 7036TIP3    H242744   4.076   0.265   1.315  1.6980  1.2892 -1.0457
 7037TIP3   OH242745   2.075   2.077   7.608  0.4309  0.0704 -0.4118
 7037TIP3    H142746   2.048   2.037   7.691 -0.2581 -0.6202 -0.9483
 7037TIP3    H242747   2.094   2.003   7.550  2.2929  0.5382 -0.4610
 7038TIP3   OH242748   3.127   0.874   8.744 -0.3005  0.1585 -0.0220
 7038TIP3    H142749   3.220   0.880   8.765  0.2427  1.0947 -2.4577
 7038TIP3    H242750   3.092   0.959   8.769 -0.4423 -0.0563  0.5289
 7039TIP3   OH242751   4.891   2.060   8.539 -0.0963 -0.0231  0.4955
 7039TIP3    H142752   4.958   2.040   8.474  1.2804  0.4703  1.7245
 7039TIP3    H242753   4.809   2.056   8.490  0.7224 -1.4977 -0.8651
 7040TIP3   OH242754   6.526   3.282   1.584 -0.2286  0.2324 -0.1311
 7040TIP3    H142755   6.485   3.330   1.655 -2.4572  1.1900 -1.9254
 7040TIP3    H242756   6.610   3.326   1.570  0.1763  0.1318  1.7140
 7041TIP3   OH242757   4.187   6.547   1.032 -0.7549 -0.4027 -0.2058
 7041TIP3    H142758   4.111   6.493   1.056 -2.1004  1.9332  1.2547
 7041TIP3    H242759   4.158   6.594   0.953 -0.5334 -0.0752 -0.0916
 7042TIP3   OH242760   6.287   2.790   8.552 -0.1681 -0.1819  0.0134
 7042TIP3    H142761   6.299   2.865   8.493  0.1220 -0.3974 -0.2044
 7042TIP3    H242762   6.192   2.776   8.554 -0.2811  0.6065  0.5820
 7043TIP3   OH242763   6.684   3.808   7.421 -0.2802 -0.3664 -0.2047
 7043TIP3    H142764   6.659   3.796   7.513  2.5809 -0.7055  0.6231
 7043TIP3    H242765   6.701   3.719   7.390 -0.8684 -0.2157 -0.9660
 7044TIP3   OH242766   3.716   6.194   7.597  0.0304  0.3665 -0.2003
 7044TIP3    H142767   3.690   6.141   7.522 -0.5392  2.5294 -1.6184
 7044TIP3    H242768   3.799   6.233   7.572  1.4749 -1.3200  1.6483
 7045TIP3   OH242769   4.569   4.988   7.637  0.0351 -0.0654 -0.1500
 7045TIP3    H142770   4.567   4.892   7.642  0.4897 -0.2431 -2.3367
 7045TIP3    H242771   4.662   5.010   7.640 -0.1248  0.5240  2.4721
 7046TIP3   OH242772   0.688   2.707   2.118  0.3013  0.7006 -0.4144
 7046TIP3    H142773   0.597   2.679   2.130  0.0941  1.7037  0.5399
 7046TIP3    H242774   0.735   2.626   2.100 -0.0797 -0.5412  3.3077
 7047TIP3   OH242775   1.160   1.524   0.177  0.6022  0.1025 -0.1438
 7047TIP3    H142776   1.187   1.606   0.134 -0.5470  0.7561  0.3342
 7047TIP3    H242777   1.170   1.457   0.109  1.6805  0.6007 -0.5066
 7048TIP3   OH242778   2.810   1.589   0.402 -0.0165  0.1277 -0.1167
 7048TIP3    H142779   2.786   1.580   0.309  1.2632 -0.8126 -0.3887
 7048TIP3    H242780   2.761   1.519   0.446 -1.4027  1.1929  0.1115
 7049TIP3   OH242781   5.096   0.174   7.236 -0.2869  0.4136  0.1395
 7049TIP3    H142782   5.182   0.143   7.205  0.3573  1.3014  0.9832
 7049TIP3    H242783   5.037   0.157   7.162 -0.1117 -3.1304  0.6426
 7050TIP3   OH242784   6.799   6.724   0.888 -0.0523 -0.0388  0.0039
 7050TIP3    H142785   6.735   6.691   0.825  1.1624 -0.9591 -0.8165
 7050TIP3    H242786   6.797   6.819   0.877 -1.9621  0.0270  0.7197
 7051TIP3   OH242787   5.102   2.448   1.031  0.4489  0.1058 -0.1696
 7051TIP3    H142788   5.055   2.365   1.027  0.2496  0.2670 -1.5907
 7051TIP3    H242789   5.085   2.480   1.120 -0.3724 -0.8435  0.0394
 7052TIP3   OH242790   6.851   4.284   1.337  0.0543 -0.0894  0.3622
 7052TIP3    H142791   6.822   4.308   1.425 -1.3471 -2.2829  0.5636
 7052TIP3    H242792   6.878   4.192   1.345  0.8183 -0.0456 -1.3074
 7053TIP3   OH242793   4.726   6.344   7.777 -0.4781  0.0223  0.4300
 7053TIP3    H142794   4.756   6.325   7.687 -0.5735 -2.9375  0.9234
 7053TIP3    H242795   4.645   6.393   7.765 -0.6374 -0.5521 -1.1298
 7054TIP3   OH242796   6.728   5.053   1.103  0.2822  0.2062 -0.1823
 7054TIP3    H142797   6.681   5.136   1.114 -1.5124 -0.6058 -1.2734
 7054TIP3    H242798   6.742   5.045   1.009  0.1102 -0.8710 -0.1334
 7055TIP3   OH242799   2.339   5.161   0.647 -0.3567 -0.2472 -0.1442
 7055TIP3    H142800   2.378   5.147   0.561 -0.8746  0.9575 -0.6066
 7055TIP3    H242801   2.276   5.233   0.633  0.9277  1.3262  1.6313
 7056TIP3   OH242802   5.843   6.214   1.478 -0.5149  0.2082  0.7034
 7056TIP3    H142803   5.792   6.244   1.553 -0.7309 -1.3329  1.1903
 7056TIP3    H242804   5.801   6.133   1.450  0.4888 -0.0531 -0.1105
 7057TIP3   OH242805   3.256   1.249   0.951  0.1835  0.2781 -0.9179
 7057TIP3    H142806   3.349   1.273   0.947 -0.0094  0.9295 -3.9544
 7057TIP3    H242807   3.251   1.168   0.900 -1.0127  0.7381 -1.5588
 7058TIP3   OH242808   2.057   5.315   0.971 -0.4151 -0.0296 -0.4435
 7058TIP3    H142809   2.010   5.393   0.940  0.3484  0.8296  0.4777
 7058TIP3    H242810   2.113   5.348   1.042 -0.0825 -1.4298 -0.0337
 7059TIP3   OH242811   2.181   2.495   7.867  0.2171  0.5133  0.0918
 7059TIP3    H142812   2.195   2.404   7.894  0.0318  0.5656  0.3800
 7059TIP3    H242813   2.095   2.494   7.825  0.2926  0.5222 -0.0619
 7060TIP3   OH242814   5.245   5.230   8.143 -0.3879 -0.0265 -0.3505
 7060TIP3    H142815   5.194   5.150   8.151 -1.6097  0.7040 -0.4759
 7060TIP3    H242816   5.310   5.211   8.076 -0.2430 -1.1065  0.0791
 7061TIP3   OH242817   5.730   2.479   0.977 -0.3729  0.1926 -0.2999
 7061TIP3    H142818   5.784   2.477   0.898  0.4226  1.7753  0.1576
 7061TIP3    H242819   5.766   2.412   1.033 -0.8307 -0.8297 -1.1939
 7062TIP3   OH242820   1.912   1.358   1.467 -0.2097 -0.2560 -0.5467
 7062TIP3    H142821   1.993   1.337   1.420 -0.8255 -0.8086 -1.3804
 7062TIP3    H242822   1.925   1.319   1.554  0.1082 -1.0230 -0.9238
 7063TIP3   OH242823   4.220   4.318   8.149  0.6260  0.4602 -0.3992
 7063TIP3    H142824   4.221   4.222   8.144 -0.5508  0.4297 -0.3250
 7063TIP3    H242825   4.219   4.337   8.243  2.8077  0.6085 -0.3638
 7064TIP3   OH242826   1.791   1.860   7.718 -0.0468  0.1510  0.2292
 7064TIP3    H142827   1.765   1.938   7.668  1.6278  1.7266  1.6610
 7064TIP3    H242828   1.870   1.887   7.765  0.0154 -2.1185  1.5818
 7065TIP3   OH242829   6.294   3.284   7.992 -0.6535  0.1455 -0.0729
 7065TIP3    H142830   6.234   3.255   7.922  0.2461  0.3513 -0.9426
 7065TIP3    H242831   6.267   3.233   8.068 -0.6385 -1.2677 -0.9700
 7066TIP3   OH242832   3.619   4.217   8.040  0.0002 -0.2806  0.4887
 7066TIP3    H142833   3.624   4.307   8.007 -1.9291 -0.7961 -1.3581
 7066TIP3    H242834   3.707   4.181   8.024  0.3373  0.7986 -0.1780
 7067TIP3   OH242835   2.797   6.022   0.604 -0.0843  0.0201 -0.1912
 7067TIP3    H142836   2.702   6.021   0.594 -0.3025  1.0669  1.3623
 7067TIP3    H242837   2.810   6.031   0.698  1.5607 -0.0040 -0.3967
 7068TIP3   OH242838   1.795   6.619   1.269 -0.0826  0.4458 -0.5383
 7068TIP3    H142839   1.736   6.641   1.197 -1.1313  2.1153  0.7613
 7068TIP3    H242840   1.737   6.595   1.341  0.8819  0.6707  0.3332
 7069TIP3   OH242841   0.763   1.250   2.677  0.1944  0.4835 -0.0539
 7069TIP3    H142842   0.710   1.315   2.631 -1.1094 -0.3660  0.1930
 7069TIP3    H242843   0.804   1.300   2.748  0.0664  1.2528 -0.5037
 7070TIP3   OH242844   0.314   2.341   0.220 -0.6576 -0.8466 -0.1980
 7070TIP3    H142845   0.310   2.432   0.191 -1.9124 -0.5720  0.7383
 7070TIP3    H242846   0.334   2.347   0.314 -2.2436 -1.4450  0.2015
 7071TIP3   OH242847   4.875   2.826   0.434 -0.0570  0.0615  0.1180
 7071TIP3    H142848   4.803   2.834   0.496 -0.3161  0.9259 -0.2778
 7071TIP3    H242849   4.942   2.776   0.481 -0.4459  0.2692  0.9095
 7072TIP3   OH242850   4.306   0.939   7.536  0.0352 -0.3040 -0.0631
 7072TIP3    H142851   4.342   0.851   7.542  1.6824  0.4415  2.1467
 7072TIP3    H242852   4.227   0.937   7.590 -0.8344 -0.7588 -1.2818
 7073TIP3   OH242853   1.148   5.692   6.177  0.3771  0.0943  0.1123
 7073TIP3    H142854   1.128   5.785   6.187 -1.1204 -0.3273  1.4079
 7073TIP3    H242855   1.063   5.648   6.184  0.8980 -1.3246 -1.5771
 7074TIP3   OH242856   2.935   1.978   0.746  1.4176  0.0870  0.3263
 7074TIP3    H142857   2.947   2.028   0.827  1.8310 -0.3302  0.5306
 7074TIP3    H242858   2.874   2.030   0.694  0.8204  0.1469  1.0811
 7075TIP3   OH242859   2.322   2.346   1.116 -0.1916 -0.0034  0.0764
 7075TIP3    H142860   2.370   2.294   1.180 -1.4081 -0.7532  0.4136
 7075TIP3    H242861   2.370   2.333   1.034 -0.6412 -1.9666  0.0773
 7076TIP3   OH242862   1.216   3.696   1.377  0.0934  0.8266 -0.0326
 7076TIP3    H142863   1.185   3.609   1.353  0.6548  0.8425 -0.8535
 7076TIP3    H242864   1.146   3.732   1.433 -1.2755  0.7841 -1.6364
 7077TIP3   OH242865   4.399   5.610   1.453  0.0418  0.1417 -0.3673
 7077TIP3    H142866   4.410   5.607   1.548 -0.8083 -2.5167 -0.2847
 7077TIP3    H242867   4.364   5.697   1.436 -2.0755 -0.1262  2.0540
 7078TIP3   OH242868   3.883   4.234   8.235 -0.2474  0.0241 -0.0723
 7078TIP3    H142869   3.876   4.167   8.166  0.7186 -0.5823  0.4003
 7078TIP3    H242870   3.899   4.315   8.187 -0.2973 -0.2679 -0.5999
 7079TIP3   OH242871   2.654   0.568   8.053 -0.3606  0.3626  0.5949
 7079TIP3    H142872   2.746   0.546   8.065 -0.4549  0.3068  1.2716
 7079TIP3    H242873   2.614   0.551   8.139 -0.9876  0.4306  0.3213
 7080TIP3   OH242874   5.596   4.995   0.230  0.1478 -0.3601  0.0188
 7080TIP3    H142875   5.545   4.957   0.159  0.3154  0.8564 -0.7906
 7080TIP3    H242876   5.635   5.073   0.192 -0.8330  1.0952  1.8298
 7081TIP3   OH242877   1.327   4.643   6.188  0.2381  0.1224  0.1487
 7081TIP3    H142878   1.416   4.645   6.152  0.3840  1.7547  0.5428
 7081TIP3    H242879   1.286   4.723   6.155 -0.9844 -0.4436  0.2475
 7082TIP3   OH242880   4.809   0.347   6.307  0.2797 -0.0822 -0.3204
 7082TIP3    H142881   4.880   0.369   6.367  0.4589 -0.0285 -0.5526
 7082TIP3    H242882   4.759   0.279   6.353 -1.0203  1.6448  0.9693
 7083TIP3   OH242883   2.522   5.031   0.798 -0.9456  0.8148  0.3208
 7083TIP3    H142884   2.435   5.064   0.775 -1.5330 -0.3118  0.7947
 7083TIP3    H242885   2.509   4.990   0.884  0.6166  2.7482  1.5658
 7084TIP3   OH242886   3.898   4.851   1.109  1.0604 -0.7131  0.0296
 7084TIP3    H142887   3.852   4.810   1.037  2.1940 -0.4373 -0.8812
 7084TIP3    H242888   3.831   4.903   1.154 -0.0622 -2.3300  0.3090
 7085TIP3   OH242889   0.991   0.273   6.666 -0.1945 -0.1840  0.1330
 7085TIP3    H142890   0.913   0.307   6.710 -0.1095  0.6010 -0.3197
 7085TIP3    H242891   1.031   0.349   6.625  1.3436 -0.4089  1.1469
 7086TIP3   OH242892   5.476   0.728   1.434 -0.1192  0.5991  0.2433
 7086TIP3    H142893   5.537   0.682   1.491  1.0691 -0.3019 -1.6729
 7086TIP3    H242894   5.531   0.787   1.382 -0.9590  0.3030 -1.0153
 7087TIP3   OH242895   0.843   2.712   6.520 -0.1388 -0.1047  0.2385
 7087TIP3    H142896   0.909   2.649   6.490 -0.2984  0.3511 -1.1203
 7087TIP3    H242897   0.872   2.796   6.485 -2.0666 -0.0730 -1.4832
 7088TIP3   OH242898   5.540   3.845   0.351 -1.0600  0.3054 -0.4193
 7088TIP3    H142899   5.550   3.937   0.375 -0.5917  0.1040  0.1937
 7088TIP3    H242900   5.593   3.797   0.416 -0.1057 -0.2980 -1.6004
 7089TIP3   OH242901   6.773   1.854   0.878 -0.0866  0.5306  0.1559
 7089TIP3    H142902   6.764   1.911   0.801 -2.4063  1.2324  0.8643
 7089TIP3    H242903   6.735   1.771   0.851 -2.5491  1.3065  0.9894
 7090TIP3   OH242904   4.951   6.044   7.884  0.0490  0.0551 -0.0991
 7090TIP3    H142905   4.922   6.092   7.806  2.1397  0.4393 -0.6853
 7090TIP3    H242906   5.006   5.974   7.851  0.0428 -0.4938  0.9916
 7091TIP3   OH242907   3.520   5.453   1.611 -0.4782 -0.2478  0.4025
 7091TIP3    H142908   3.441   5.434   1.560  1.1683 -2.0231 -1.7194
 7091TIP3    H242909   3.534   5.547   1.598 -2.6026  0.2746  1.4855
 7092TIP3   OH242910   5.493   2.968   2.230  0.4074 -0.2482 -0.4924
 7092TIP3    H142911   5.424   2.928   2.283 -0.7542  1.4092 -0.6614
 7092TIP3    H242912   5.518   2.899   2.168 -1.3092 -0.8218 -0.6051
 7093TIP3   OH242913   6.300   4.372   0.032 -0.6747 -0.4530  0.1141
 7093TIP3    H142914   6.390   4.339   0.037 -0.8381 -1.2055 -1.4423
 7093TIP3    H242915   6.307   4.454  -0.017 -0.7360 -0.0552  0.7616
 7094TIP3   OH242916   1.292   1.197   2.170 -0.2976 -0.2884 -0.0400
 7094TIP3    H142917   1.212   1.206   2.222 -0.1724  0.5338  0.0201
 7094TIP3    H242918   1.292   1.273   2.112  0.3153 -0.4120 -0.2125
 7095TIP3   OH242919   2.082   5.627   7.221 -0.6971 -0.3354 -0.0443
 7095TIP3    H142920   2.104   5.627   7.315  0.9035  0.6796 -0.3881
 7095TIP3    H242921   2.057   5.536   7.203  0.1552 -0.8393  1.1200
 7096TIP3   OH242922   3.680   0.645   0.302  0.4002  0.3715 -0.0398
 7096TIP3    H142923   3.645   0.720   0.351 -1.9682 -1.3245  1.0033
 7096TIP3    H242924   3.748   0.610   0.358 -1.0987 -0.4986  1.2990
 7097TIP3   OH242925   6.113   2.749   1.285  0.4786  0.0027 -0.0376
 7097TIP3    H142926   6.206   2.725   1.291  1.1859  2.1881 -1.3328
 7097TIP3    H242927   6.110   2.839   1.318 -1.3523 -0.3147  0.7521
 7098TIP3   OH242928   3.671   5.801   0.008  0.2735 -0.1132  0.2138
 7098TIP3    H142929   3.616   5.867   0.049 -0.7501 -1.8729  1.8610
 7098TIP3    H242930   3.697   5.840  -0.075 -1.6637  1.6725  0.3455
 7099TIP3   OH242931   1.474   3.280   7.702  0.4200  0.0640  0.6010
 7099TIP3    H142932   1.401   3.222   7.681 -1.0116  2.4281 -1.5238
 7099TIP3    H242933   1.551   3.237   7.666 -0.6626 -0.3610 -1.2933
 7100TIP3   OH242934   3.487   4.626   2.198  0.1183  0.2743 -0.3011
 7100TIP3    H142935   3.408   4.575   2.214  0.9772 -1.3012 -0.7762
 7100TIP3    H242936   3.480   4.654   2.107 -0.2292  0.7905 -0.1200
 7101TIP3   OH242937   2.571   0.287   0.336 -0.4028  0.6079  0.1342
 7101TIP3    H142938   2.653   0.294   0.287 -0.7260 -1.7062 -0.8570
 7101TIP3    H242939   2.594   0.239   0.415 -0.8757 -0.7266 -0.5011
 7102TIP3   OH242940   6.595   6.414   8.500  0.1727 -0.0773 -0.7088
 7102TIP3    H142941   6.515   6.432   8.451  0.3511  1.9806 -0.3192
 7102TIP3    H242942   6.633   6.500   8.516  1.6610 -0.9136  0.4682
 7103TIP3   OH242943   3.895   6.813   7.438 -0.4685  0.2133 -0.0234
 7103TIP3    H142944   3.969   6.789   7.493 -0.4213 -0.0513 -0.1975
 7103TIP3    H242945   3.825   6.836   7.499 -0.0172  1.1780  0.1403
 7104TIP3   OH242946   4.613   5.965   5.943  0.1565  0.4035  0.2661
 7104TIP3    H142947   4.616   6.049   5.990  1.3925  1.4753 -1.5848
 7104TIP3    H242948   4.706   5.942   5.931 -0.1183  0.0476 -1.3796
 7105TIP3   OH242949   5.969   2.568   6.855 -0.5998  0.5366 -0.3089
 7105TIP3    H142950   5.880   2.587   6.825 -0.5018  1.3374 -0.1298
 7105TIP3    H242951   6.000   2.651   6.891  0.7338  0.6794 -1.6705
 7106TIP3   OH242952   3.195   2.041   0.717  0.0719 -0.3289 -0.6368
 7106TIP3    H142953   3.262   2.060   0.782  0.7077 -0.7301 -1.1625
 7106TIP3    H242954   3.113   2.040   0.767  0.6032 -1.1104  0.2481
 7107TIP3   OH242955   1.080   0.874   0.091 -0.0174  0.0819 -0.3284
 7107TIP3    H142956   1.069   0.952   0.036  0.4234  0.4126  0.0386
 7107TIP3    H242957   1.043   0.900   0.176  0.2403 -0.0712 -0.1699
 7108TIP3   OH242958   4.790   4.727   0.993 -0.2350 -0.7411 -0.3074
 7108TIP3    H142959   4.750   4.641   1.005  1.7703 -1.6033  0.5465
 7108TIP3    H242960   4.835   4.745   1.076 -0.1406  0.8897 -0.6711
 7109TIP3   OH242961   6.048   4.882   7.049 -0.1534  0.0355 -0.0976
 7109TIP3    H142962   6.001   4.949   6.999  0.0384 -0.8217 -1.4874
 7109TIP3    H242963   5.989   4.860   7.121 -0.3862  1.4049  0.1587
 7110TIP3   OH242964   6.548   4.662   7.622 -0.5456  0.3684  0.5221
 7110TIP3    H142965   6.559   4.714   7.542 -0.3465 -2.7873 -1.6767
 7110TIP3    H242966   6.454   4.643   7.625 -0.6790  1.0691  1.5405
 7111TIP3   OH242967   4.119   2.683   6.494 -0.0043 -0.0130 -0.0709
 7111TIP3    H142968   4.087   2.745   6.428  0.2563  0.4521  0.2377
 7111TIP3    H242969   4.212   2.675   6.476  0.5264  1.8253  1.6062
 7112TIP3   OH242970   4.464   0.111   1.413  0.1764 -0.3556 -0.1461
 7112TIP3    H142971   4.414   0.110   1.331  0.6257 -0.5714 -0.4197
 7112TIP3    H242972   4.397   0.115   1.482 -0.2184 -0.6956 -0.5054
 7113TIP3   OH242973   3.458   3.164   6.954  0.0983 -0.3105  0.1268
 7113TIP3    H142974   3.550   3.146   6.933  0.1238  1.2765 -1.3364
 7113TIP3    H242975   3.410   3.142   6.874 -0.5536  0.5595  0.2554
 7114TIP3   OH242976   1.820   0.569   8.234  0.4827  0.9867 -0.8662
 7114TIP3    H142977   1.773   0.649   8.257  0.0803  0.9156 -1.4094
 7114TIP3    H242978   1.912   0.595   8.230  0.5983  0.9840  0.8676
 7115TIP3   OH242979   1.338   0.973   1.263  0.3507  0.3421  0.0624
 7115TIP3    H142980   1.411   1.033   1.273  1.9401 -1.5193  0.3462
 7115TIP3    H242981   1.365   0.914   1.192 -0.4441 -0.9433  0.7922
 7116TIP3   OH242982   5.646   1.773   0.983  0.2410  0.2516 -0.2519
 7116TIP3    H142983   5.630   1.740   1.071  2.0473  0.0660  0.0440
 7116TIP3    H242984   5.727   1.730   0.955  0.8250  1.8532 -1.1852
 7117TIP3   OH242985   1.943   3.457   7.985 -0.4519  0.5365 -0.0734
 7117TIP3    H142986   1.890   3.514   7.930 -0.4462 -0.2098 -0.8764
 7117TIP3    H242987   2.031   3.461   7.946 -0.8016 -1.2749 -1.1791
 7118TIP3   OH242988   6.001   2.572   1.093  0.5748 -0.4971  0.1480
 7118TIP3    H142989   6.075   2.622   1.128  0.1447  0.3389 -0.1109
 7118TIP3    H242990   5.931   2.637   1.084 -0.2534 -1.3183  0.5824
 7119TIP3   OH242991   4.652   3.075   8.039 -0.0491  0.1183 -0.5754
 7119TIP3    H142992   4.613   3.160   8.060  0.0092  0.2383 -0.9445
 7119TIP3    H242993   4.709   3.092   7.964 -1.0157 -0.4678 -1.4966
 7120TIP3   OH242994   2.300   1.160   7.262  0.0880  0.1258 -0.2379
 7120TIP3    H142995   2.287   1.188   7.353  0.0066 -1.0138  0.1138
 7120TIP3    H242996   2.374   1.099   7.266 -1.2192 -1.5250 -0.6061
 7121TIP3   OH242997   4.902   2.677   1.967  0.7980  0.1300 -0.3701
 7121TIP3    H142998   4.870   2.659   1.879  1.5447  2.5178 -1.2088
 7121TIP3    H242999   4.990   2.639   1.969  0.6148 -0.3000 -0.5014
 7122TIP3   OH243000   3.971   6.645   8.572  0.0181  0.0209 -0.3537
 7122TIP3    H143001   3.958   6.737   8.594 -1.3923 -0.5208  1.4020
 7122TIP3    H243002   3.917   6.631   8.495 -1.1692  0.3114  0.3952
 7123TIP3   OH243003   5.828   3.966   7.393 -0.2259  0.4660 -0.0893
 7123TIP3    H143004   5.896   3.972   7.460 -0.6283 -0.7588  0.4586
 7123TIP3    H243005   5.851   3.890   7.341 -0.6677  0.5933 -0.4796
 7124TIP3   OH243006   1.736   3.951   1.123  0.1379  0.0227  0.2687
 7124TIP3    H143007   1.741   3.970   1.030 -0.8111  0.5524  0.3174
 7124TIP3    H243008   1.685   4.023   1.160 -0.7168 -0.9133  0.9724
 7125TIP3   OH243009   2.620   1.129   7.792 -0.2721  0.1850  0.2489
 7125TIP3    H143010   2.697   1.124   7.848  0.0713  2.2317  0.0481
 7125TIP3    H243011   2.654   1.121   7.703 -0.8060 -2.9761  0.2083
 7126TIP3   OH243012   4.777   2.198   1.113  0.1215  0.4451 -0.2252
 7126TIP3    H143013   4.777   2.272   1.051  0.4380  1.0069  0.4279
 7126TIP3    H243014   4.859   2.207   1.161  0.7416 -1.0477 -0.9362
 7127TIP3   OH243015   0.845   1.897   1.075  0.3905  0.0525  0.3528
 7127TIP3    H143016   0.760   1.939   1.090  0.6204  0.1126  1.5916
 7127TIP3    H243017   0.832   1.807   1.104  0.8946  0.2002  1.0517
 7128TIP3   OH243018   6.156   1.187   1.663  0.0245  0.3864  0.2073
 7128TIP3    H143019   6.083   1.130   1.689  0.3730 -1.2086 -2.0069
 7128TIP3    H243020   6.234   1.143   1.698  0.4100 -1.2997 -2.5020
 7129TIP3   OH243021   2.435   0.919   7.550  0.2265  0.1842  0.1127
 7129TIP3    H143022   2.365   0.877   7.500  0.6582 -1.7862  1.0570
 7129TIP3    H243023   2.390   0.961   7.623 -0.0489 -0.3274  0.2395
 7130TIP3   OH243024   6.854   3.437   8.223  0.1804  0.0858 -0.0760
 7130TIP3    H143025   6.782   3.409   8.167  0.2204 -1.1556  0.4537
 7130TIP3    H243026   6.812   3.465   8.305  0.2046  0.7389 -0.2846
 7131TIP3   OH243027   6.260   4.709   6.987  0.7627  0.3057  0.0360
 7131TIP3    H143028   6.306   4.713   7.071  0.7285 -1.5120  0.1855
 7131TIP3    H243029   6.175   4.749   7.005  1.0012  0.5500  0.6778
 7132TIP3   OH243030   0.982   6.323   8.536  0.1686  0.6077  0.2430
 7132TIP3    H143031   0.921   6.386   8.575 -0.4196  1.2635 -1.6384
 7132TIP3    H243032   1.043   6.376   8.485 -0.0532 -0.2953 -1.0087
 7133TIP3   OH243033   5.338   1.382   0.967 -0.1097 -0.4256 -0.0681
 7133TIP3    H143034   5.411   1.433   0.932  0.8616 -1.4638  0.3543
 7133TIP3    H243035   5.300   1.438   1.035 -0.2603  0.4733 -0.8718
 7134TIP3   OH243036   3.450   6.413   0.120  0.0042  0.3049 -0.2564
 7134TIP3    H143037   3.443   6.503   0.152  1.1353 -0.5533  2.7274
 7134TIP3    H243038   3.459   6.360   0.199  0.5962 -2.3342 -1.9690
 7135TIP3   OH243039   0.286   6.360   1.613  0.4685  0.7550 -0.1940
 7135TIP3    H143040   0.273   6.308   1.693  2.0128  1.5416  0.6231
 7135TIP3    H243041   0.238   6.442   1.630  0.3561  0.7103 -0.2968
 7136TIP3   OH243042   2.208   1.278   1.609 -0.0825 -0.2266 -0.6095
 7136TIP3    H143043   2.208   1.209   1.543  1.0481 -0.6109 -0.2430
 7136TIP3    H243044   2.173   1.235   1.688  0.2746 -0.2861 -0.4811
 7137TIP3   OH243045   2.396   4.470   8.013 -0.2140  0.1200 -0.5313
 7137TIP3    H143046   2.445   4.389   8.031  0.2159  0.5814  0.4114
 7137TIP3    H243047   2.454   4.521   7.956 -0.6012 -0.3316 -1.3605
 7138TIP3   OH243048   5.190   1.647   6.561 -0.4916  0.7535  0.3683
 7138TIP3    H143049   5.149   1.561   6.573 -3.1581  1.8747  0.0493
 7138TIP3    H243050   5.215   1.648   6.468  1.5783 -0.4222  0.8543
 7139TIP3   OH243051   1.793   0.478   0.813  0.1947 -0.5098  0.0764
 7139TIP3    H143052   1.856   0.407   0.805  0.8703 -0.0713  1.2977
 7139TIP3    H243053   1.825   0.546   0.753 -0.1282 -0.9936 -0.6523
 7140TIP3   OH243054   1.923   6.497   0.262 -0.1374  0.4821 -0.3911
 7140TIP3    H143055   1.924   6.415   0.311  2.4450  0.6067 -0.0915
 7140TIP3    H243056   1.830   6.521   0.256 -1.1061 -3.0311 -1.5448
 7141TIP3   OH243057   2.776   0.560   0.690 -0.0025 -0.0539 -0.1688
 7141TIP3    H143058   2.690   0.528   0.665 -0.5529  1.2760 -0.0366
 7141TIP3    H243059   2.831   0.544   0.613 -0.7172  0.4139 -0.7814
 7142TIP3   OH243060   6.022   1.081   7.496 -0.3086  0.0619  0.1398
 7142TIP3    H143061   6.092   1.137   7.529 -0.4639  0.0348  0.5150
 7142TIP3    H243062   5.985   1.130   7.422 -0.9264  0.7926  0.9197
 7143TIP3   OH243063   0.970   3.860   8.288 -0.3243  0.0998 -0.1866
 7143TIP3    H143064   0.882   3.823   8.292 -0.2971  0.0999  0.7401
 7143TIP3    H243065   1.012   3.832   8.370  0.4782  0.2475 -0.5315
 7144TIP3   OH243066   3.547   6.619   6.663  0.2371  0.4428 -0.2833
 7144TIP3    H143067   3.576   6.699   6.618 -1.4870  3.0834  2.8361
 7144TIP3    H243068   3.454   6.634   6.681  0.2180 -1.5454  1.8225
 7145TIP3   OH243069   4.949   5.089   7.893  0.0928 -0.2042 -0.4552
 7145TIP3    H143070   4.937   5.054   7.804  0.3816  0.3131 -0.7034
 7145TIP3    H243071   4.860   5.093   7.928 -0.2096  1.0925 -1.3091
 7146TIP3   OH243072   5.049   2.994   0.315  0.0068  0.5408  0.1798
 7146TIP3    H143073   4.974   2.945   0.347  0.0182  0.4808  0.1137
 7146TIP3    H243074   5.117   2.929   0.302 -0.4670  0.3296 -1.4385
 7147TIP3   OH243075   6.606   3.965   1.345  0.3347 -0.2777  0.1034
 7147TIP3    H143076   6.539   3.906   1.312  1.1271  0.4322 -3.0863
 7147TIP3    H243077   6.567   4.052   1.337  0.6146 -0.0600  0.9929
 7148TIP3   OH243078   2.408   4.179   0.731  0.5110 -0.7248 -0.0645
 7148TIP3    H143079   2.399   4.099   0.680  1.2175 -0.1533 -1.1217
 7148TIP3    H243080   2.473   4.231   0.684 -2.0033  1.7666 -1.1140
 7149TIP3   OH243081   0.837   0.942   2.130  0.1263 -0.4059 -0.2640
 7149TIP3    H143082   0.833   0.960   2.224  0.5215 -0.0745 -0.3094
 7149TIP3    H243083   0.866   0.851   2.124 -1.0956 -0.8250 -0.0471
 7150TIP3   OH243084   0.887   1.936   0.007 -0.0078  0.4935  0.1071
 7150TIP3    H143085   0.975   1.946   0.043  0.2001  0.7397 -0.4570
 7150TIP3    H243086   0.829   1.979   0.070  0.3988  1.3051 -0.0705
 7151TIP3   OH243087   3.166   5.019   7.820 -0.4238 -0.3884 -0.1069
 7151TIP3    H143088   3.099   5.066   7.770 -0.2418  0.4957  0.4563
 7151TIP3    H243089   3.119   4.984   7.896 -0.0569  1.1865  0.8771
 7152TIP3   OH243090   0.393   3.740   6.966 -0.0545  0.0325 -0.4068
 7152TIP3    H143091   0.399   3.664   7.024  2.5404  1.0106  0.7700
 7152TIP3    H243092   0.327   3.716   6.902 -0.5739 -2.4998  0.9433
 7153TIP3   OH243093   0.332   3.385   8.521 -0.5758  0.4261  0.3131
 7153TIP3    H143094   0.243   3.384   8.558 -0.9104  0.7056 -0.4640
 7153TIP3    H243095   0.389   3.376   8.597 -1.2531  0.7845  0.8798
 7154TIP3   OH243096   3.469   0.737   7.734 -0.1399  0.6467 -0.0989
 7154TIP3    H143097   3.416   0.817   7.737 -2.4855 -0.7610 -1.0934
 7154TIP3    H243098   3.433   0.682   7.804  1.4147  0.4092  0.5444
 7155TIP3   OH243099   2.505   5.855   6.749  0.2862 -0.1305 -0.2262
 7155TIP3    H143100   2.597   5.873   6.726  0.3097  1.7893  1.1483
 7155TIP3    H243101   2.465   5.942   6.757 -1.7802 -0.9349 -1.1842
 7156TIP3   OH243102   6.035   3.781   0.704  0.1590  0.4525  0.4599
 7156TIP3    H143103   5.966   3.748   0.762  2.7842  0.2054  3.7286
 7156TIP3    H243104   6.111   3.725   0.723  1.5781  1.2953 -2.2760
 7157TIP3   OH243105   1.741   3.828   8.545  0.1921  0.2308  0.1423
 7157TIP3    H143106   1.754   3.795   8.456 -1.5772 -0.1615 -0.0117
 7157TIP3    H243107   1.819   3.880   8.563 -0.1240  1.6948 -2.2691
 7158TIP3   OH243108   3.037   4.206   0.553 -0.2004  0.2971  0.3668
 7158TIP3    H143109   3.008   4.294   0.574 -1.3881  0.8493 -2.9898
 7158TIP3    H243110   3.082   4.214   0.468  0.1265 -2.2219  0.2045
 7159TIP3   OH243111   0.086   6.730   6.300  0.4538  0.5176 -0.0823
 7159TIP3    H143112   0.051   6.791   6.235 -2.5086 -0.9171 -0.0200
 7159TIP3    H243113   0.149   6.677   6.251  0.5393  1.4271 -0.9882
 7160TIP3   OH243114   2.896   1.157   8.325  0.0119  0.3025 -0.4811
 7160TIP3    H143115   2.816   1.108   8.305  0.2256 -0.3610  0.2576
 7160TIP3    H243116   2.915   1.204   8.244 -1.4742  0.9713 -0.4786
 7161TIP3   OH243117   1.685   5.370   0.310  0.0998  0.1330 -0.4512
 7161TIP3    H143118   1.772   5.397   0.283  1.3187 -1.6296  1.3725
 7161TIP3    H243119   1.658   5.305   0.245 -0.5565  1.7217 -1.8415
 7162TIP3   OH243120   2.927   3.942   2.026 -0.3422  1.1040  0.4288
 7162TIP3    H143121   2.924   3.945   2.121 -1.3934  1.2572  0.4046
 7162TIP3    H243122   3.008   3.988   2.002  0.8770 -0.4958  1.2919
 7163TIP3   OH243123   4.002   2.396   7.869 -0.5106  0.4416 -0.7223
 7163TIP3    H143124   4.071   2.427   7.810 -1.1117  1.1919 -1.0530
 7163TIP3    H243125   3.994   2.465   7.934  0.4296 -0.5712  0.5070
 7164TIP3   OH243126   5.829   3.505   1.612 -0.0041  0.3897 -0.2957
 7164TIP3    H143127   5.783   3.558   1.547  0.6216  0.5177 -0.6493
 7164TIP3    H243128   5.795   3.534   1.696 -1.3706 -0.2957 -0.5919
 7165TIP3   OH243129   6.185   3.195   0.299  0.0720 -0.1328 -0.7493
 7165TIP3    H143130   6.152   3.115   0.258  2.9589 -1.1974 -1.2005
 7165TIP3    H243131   6.210   3.250   0.225 -0.5942  0.6385 -0.4142
 7166TIP3   OH243132   4.332   3.039   1.738  0.2509 -0.2810 -0.4959
 7166TIP3    H143133   4.415   2.996   1.756  1.0436  1.6858  0.8866
 7166TIP3    H243134   4.296   3.060   1.824 -1.3040 -0.3903 -1.0878
 7167TIP3   OH243135   3.851   3.098   0.203  0.6779 -0.4838 -0.1210
 7167TIP3    H143136   3.822   3.029   0.144  0.7448 -0.4934 -0.1426
 7167TIP3    H243137   3.909   3.054   0.265  1.0084 -0.3801 -0.3546
 7168TIP3   OH243138   0.607   1.043   1.739  0.2104 -0.1503 -0.2205
 7168TIP3    H143139   0.701   1.041   1.757  0.4147  1.1165 -1.0338
 7168TIP3    H243140   0.569   0.984   1.804  1.4089  0.5089  1.1348
 7169TIP3   OH243141   2.038   6.493   0.849  0.0089 -0.0727  0.2343
 7169TIP3    H143142   2.053   6.509   0.942 -0.5255 -0.1131  0.3276
 7169TIP3    H243143   1.944   6.504   0.837  0.1731  0.6632 -0.4462
 7170TIP3   OH243144   0.410   1.427   7.221 -0.4663 -0.9135 -0.0791
 7170TIP3    H143145   0.476   1.484   7.182  1.7503 -2.0447  1.7948
 7170TIP3    H243146   0.367   1.384   7.146 -0.6853  1.4919 -1.4157
 7171TIP3   OH243147   2.613   4.576   7.497 -0.3292 -0.0276  0.0205
 7171TIP3    H143148   2.568   4.657   7.520 -0.5896 -0.5218  1.3206
 7171TIP3    H243149   2.702   4.587   7.530 -0.5824 -0.5701  0.9111
 7172TIP3   OH243150   3.004   2.495   7.694  0.3157  0.1125 -0.5845
 7172TIP3    H143151   3.047   2.493   7.609 -0.4293 -1.1474 -0.9766
 7172TIP3    H243152   2.993   2.402   7.717  1.3833  0.4130  1.3629
 7173TIP3   OH243153   5.962   2.702   0.660 -0.3540  0.2845 -0.5357
 7173TIP3    H143154   5.938   2.697   0.567 -0.3234  1.6635 -0.6409
 7173TIP3    H243155   6.053   2.732   0.659  0.4522 -1.9543 -0.0807
 7174TIP3   OH243156   6.089   0.188   1.232  0.3889  0.1076  0.0576
 7174TIP3    H143157   6.086   0.140   1.314  0.9423 -0.4323 -0.2313
 7174TIP3    H243158   6.031   0.263   1.246 -0.3850 -0.5622  0.5652
 7175TIP3   OH243159   4.748   3.599   6.019  0.6590 -0.6823 -0.0145
 7175TIP3    H143160   4.794   3.520   5.990 -1.7927 -1.6148 -1.6841
 7175TIP3    H243161   4.680   3.567   6.078 -0.8087  0.0206 -1.2487
 7176TIP3   OH243162   2.013   5.288   0.198  0.3736  0.1758 -0.1794
 7176TIP3    H143163   2.101   5.258   0.173  0.4508 -0.4206  0.7720
 7176TIP3    H243164   2.008   5.273   0.292 -0.7553  0.2058 -0.2169
 7177TIP3   OH243165   6.488   3.643   6.935  0.0029 -0.4115 -0.1216
 7177TIP3    H143166   6.516   3.553   6.950 -1.2983 -0.9463 -0.8208
 7177TIP3    H243167   6.468   3.648   6.842  1.7922  1.1272 -0.4937
 7178TIP3   OH243168   2.229   5.865   7.429 -0.7353  0.2663  0.5690
 7178TIP3    H143169   2.179   5.889   7.351 -0.7892 -0.7047  0.2925
 7178TIP3    H243170   2.193   5.920   7.498 -1.2974  0.4983  0.1003
 7179TIP3   OH243171   4.375   6.498   7.729 -0.1712 -0.0992 -0.3553
 7179TIP3    H143172   4.373   6.532   7.639 -1.8644 -0.0582 -0.3295
 7179TIP3    H243173   4.381   6.577   7.784 -0.7003 -0.0200 -0.4015
 7180TIP3   OH243174   6.177   5.661   2.515 -0.1881 -0.5460 -0.0141
 7180TIP3    H143175   6.125   5.699   2.586  1.6831 -1.0091  1.6948
 7180TIP3    H243176   6.214   5.582   2.552  2.0392 -0.0390 -1.0140
 7181TIP3   OH243177   4.702   4.147   6.781 -0.1262  0.4457  0.1358
 7181TIP3    H143178   4.711   4.226   6.728  0.9166 -1.1724 -2.3154
 7181TIP3    H243179   4.791   4.111   6.785 -0.3370  0.0419  2.3240
 7182TIP3   OH243180   4.071   1.073   8.557 -0.0798 -0.0391  0.6779
 7182TIP3    H143181   4.005   1.011   8.525 -1.5031  1.4072  0.7086
 7182TIP3    H243182   4.048   1.088   8.649 -1.2439  2.2658  0.0973
 7183LIG      O43183   0.316   3.826   2.021  0.1058 -0.2468 -0.4855
 7183LIG     C143184   0.276   3.913   1.923  0.0336 -0.4790 -0.1829
 7183LIG     C243185   0.129   3.901   1.901 -0.1493  0.7813 -0.0097
 7183LIG     C343186   0.326   4.056   1.957 -0.2642  0.0224 -0.0558
 7183LIG     H143187   0.325   3.898   1.825  2.7072  0.3304  0.9452
 7183LIG     H243188   0.104   3.800   1.864 -1.9968  0.5891  1.5847
 7183LIG     H343189   0.096   3.977   1.826  1.0153  1.0910 -0.2281
 7183LIG     H443190   0.077   3.915   1.998 -1.3528 -0.4284 -0.4501
 7183LIG     H543191   0.312   4.132   1.877  0.5107 -0.3540 -0.5585
 7183LIG     H643192   0.435   4.059   1.976  0.3875 -2.1812 -2.7132
 7183LIG     H743193   0.274   4.093   2.048  1.7680  2.5022  0.1841
 7183LIG     H843194   0.412   3.829   2.020  0.2304  4.9552  0.1112
   6.85500   6.85500   8.80592
