Title
43194
    1CHL1    C3    1   3.785   5.559   6.062 -0.1563  0.0744 -0.1948
    1CHL1    H3    2   3.685   5.604   6.080  0.0421 -0.4072  2.4941
    1CHL1    O3    3   3.848   5.555   6.194 -0.2975  0.3263 -0.2258
    1CHL1   H3'    4   3.927   5.502   6.180 -1.2333 -0.8923 -1.0936
    1CHL1    C4    5   3.788   5.422   5.995 -0.2222  0.1389  0.4385
    1CHL1   H4A    6   3.894   5.387   5.994  0.2054  1.3807  0.5018
    1CHL1   H4B    7   3.735   5.351   6.062  0.3665 -0.0419  0.7219
    1CHL1    C5    8   3.729   5.433   5.856  0.4384 -0.5743 -0.3820
    1CHL1    C6    9   3.614   5.370   5.830  0.2290 -0.2679 -0.0131
    1CHL1    H6   10   3.562   5.306   5.903 -0.0823 -2.2492 -1.8625
    1CHL1    C7   11   3.558   5.354   5.691  0.7752  0.0401  0.0455
    1CHL1   H7A   12   3.533   5.249   5.667 -0.8611  0.5672 -0.6860
    1CHL1   H7B   13   3.469   5.419   5.675  0.1851 -0.6062  0.6469
    1CHL1    C8   14   3.669   5.407   5.587  0.5128  0.2342 -0.0607
    1CHL1    H8   15   3.754   5.336   5.580  1.7935  1.1667  3.6427
    1CHL1   C14   16   3.589   5.423   5.459 -0.1336 -0.0665 -0.1627
    1CHL1   H14   17   3.521   5.509   5.477  0.9484  0.5033  1.4188
    1CHL1   C15   18   3.493   5.318   5.399  0.5127 -0.3013  0.2644
    1CHL1  H15A   19   3.542   5.219   5.408 -0.9576 -1.0331  0.6402
    1CHL1  H15B   20   3.393   5.301   5.445  0.7569  0.4527  1.0979
    1CHL1   C16   21   3.483   5.359   5.247 -0.3049  0.2461 -0.0472
    1CHL1  H16A   22   3.526   5.269   5.196 -0.2119 -0.3268  1.0223
    1CHL1  H16B   23   3.381   5.386   5.210 -0.2786  1.3028  0.6245
    1CHL1   C17   24   3.579   5.479   5.225  0.4611  0.5063  0.4488
    1CHL1   H17   25   3.509   5.564   5.236 -0.3059  0.4930 -3.1966
    1CHL1   C13   26   3.677   5.476   5.344 -0.4904 -0.4135  0.5911
    1CHL1   C18   27   3.796   5.380   5.316  0.4785  0.1826 -0.3233
    1CHL1  H18A   28   3.870   5.433   5.252  2.1027 -0.6261  0.7890
    1CHL1  H18B   29   3.854   5.355   5.407  1.5080  0.5472 -0.8642
    1CHL1  H18C   30   3.773   5.289   5.257  1.1762  1.1474 -2.1933
    1CHL1   C12   31   3.725   5.619   5.379 -0.3386 -0.3308  0.2116
    1CHL1  H12A   32   3.792   5.658   5.300  0.2476  1.5294  1.5542
    1CHL1  H12B   33   3.636   5.685   5.380  1.9759  3.0828 -1.7643
    1CHL1   C11   34   3.798   5.622   5.511  1.3994 -0.3407  0.1825
    1CHL1  H11A   35   3.902   5.588   5.493  1.9736  2.3831 -2.6611
    1CHL1  H11B   36   3.804   5.729   5.542 -1.3707  0.1710 -0.7686
    1CHL1    C9   37   3.718   5.543   5.629 -0.0363 -0.4969 -0.1755
    1CHL1    H9   38   3.631   5.609   5.649 -1.0549 -2.2796  1.7917
    1CHL1   C10   39   3.800   5.532   5.762  0.3694  0.6812 -0.0731
    1CHL1   C19   40   3.945   5.479   5.729  0.5564  0.4179  0.2888
    1CHL1  H19A   41   4.002   5.463   5.823  2.1426  1.5153 -0.4600
    1CHL1  H19B   42   3.930   5.385   5.670 -2.4689 -0.3194  1.9818
    1CHL1  H19C   43   4.004   5.555   5.675  0.0377  0.0762 -0.7959
    1CHL1    C1   44   3.813   5.668   5.833  0.0916  0.3410 -0.1965
    1CHL1   H1A   45   3.871   5.734   5.765 -0.3550  0.9012 -0.0487
    1CHL1   H1B   46   3.713   5.717   5.837  0.4576  1.2678 -1.5058
    1CHL1    C2   47   3.864   5.657   5.975  0.2331  0.1705 -0.1317
    1CHL1   H2A   48   3.849   5.757   6.022 -1.5148  0.3973 -1.0998
    1CHL1   H2B   49   3.971   5.628   5.966 -0.8126 -4.8796  0.8483
    1CHL1   C20   50   3.637   5.502   5.083 -0.6265 -0.7315  0.3346
    1CHL1   H20   51   3.715   5.581   5.087 -2.0983  0.7185  2.6066
    1CHL1   C21   52   3.514   5.559   5.003 -0.4555  0.1475 -0.3654
    1CHL1  H21A   53   3.421   5.497   5.002 -0.5309  0.2621 -1.1171
    1CHL1  H21B   54   3.547   5.576   4.898  2.2886  1.6470  0.6515
    1CHL1  H21C   55   3.501   5.660   5.047 -0.2502  0.3578 -0.7784
    1CHL1   C22   56   3.693   5.388   5.001 -0.5400  0.4777 -0.2409
    1CHL1  H22A   57   3.763   5.325   5.061 -0.5145 -0.6603 -1.4207
    1CHL1  H22B   58   3.609   5.328   4.963 -0.8541  0.6745  0.1312
    1CHL1   C23   59   3.774   5.446   4.883 -0.6867  0.2770 -0.6518
    1CHL1  H23A   60   3.698   5.485   4.812  0.4204  2.6830 -0.6360
    1CHL1  H23B   61   3.837   5.532   4.915 -0.0999  0.0849 -1.2603
    1CHL1   C24   62   3.860   5.328   4.827 -0.0570  0.6829  0.5592
    1CHL1  H24A   63   3.940   5.299   4.899  1.5472  0.4306 -1.2568
    1CHL1  H24B   64   3.790   5.241   4.827  1.1527 -0.3340  1.4210
    1CHL1   C25   65   3.916   5.348   4.684  0.8714 -0.2668  0.3829
    1CHL1   H25   66   3.828   5.365   4.618  1.4078  0.7172 -0.1078
    1CHL1   C26   67   4.007   5.470   4.674  0.1912  0.8044  0.0669
    1CHL1  H26A   68   4.030   5.485   4.566 -0.7810 -0.1881 -0.3022
    1CHL1  H26B   69   3.959   5.564   4.709  0.9262  1.3013 -0.2212
    1CHL1  H26C   70   4.102   5.445   4.725  1.1883  1.0088 -1.6022
    1CHL1   C27   71   3.989   5.221   4.632  0.8189 -0.7097 -0.2186
    1CHL1  H27A   72   4.027   5.239   4.529 -0.9586 -1.4944 -1.0591
    1CHL1  H27B   73   4.078   5.189   4.690  1.1398 -1.4908 -1.1117
    1CHL1  H27C   74   3.921   5.134   4.628  2.5048 -2.0694 -0.4916
    2CHL1    C3   75   2.422   1.812   5.755  0.1058  0.1336  0.1474
    2CHL1    H3   76   2.346   1.732   5.739 -0.9757  1.0341  0.6086
    2CHL1    O3   77   2.440   1.818   5.901 -0.6861  0.0108 -0.3086
    2CHL1   H3'   78   2.520   1.869   5.909 -0.2577 -0.3363 -1.9284
    2CHL1    C4   79   2.555   1.771   5.688 -0.9511  0.7820 -0.1685
    2CHL1   H4A   80   2.626   1.854   5.706 -0.4778  0.0490  1.4481
    2CHL1   H4B   81   2.586   1.674   5.732 -1.1931  1.4369  1.5279
    2CHL1    C5   82   2.535   1.751   5.538 -0.1965 -0.2603 -0.3319
    2CHL1    C6   83   2.548   1.627   5.476 -0.7601 -0.4510 -0.5214
    2CHL1    H6   84   2.573   1.540   5.539  0.1662  0.9797  1.2011
    2CHL1    C7   85   2.524   1.610   5.331  0.2270  0.2697  0.5973
    2CHL1   H7A   86   2.588   1.529   5.291 -0.0464  0.0599  0.5762
    2CHL1   H7B   87   2.431   1.551   5.316  0.6049 -0.3620  0.6762
    2CHL1    C8   88   2.514   1.734   5.242 -0.2031 -0.4178 -0.1409
    2CHL1    H8   89   2.616   1.776   5.225 -0.2065 -0.6962 -0.9063
    2CHL1   C14   90   2.456   1.701   5.107  0.2269 -0.0922  0.6851
    2CHL1   H14   91   2.361   1.650   5.131  0.2764 -1.2281 -1.3234
    2CHL1   C15   92   2.536   1.598   5.019  0.5441 -0.6578 -0.1381
    2CHL1  H15A   93   2.645   1.615   5.012  0.6279 -1.3015 -0.4797
    2CHL1  H15B   94   2.492   1.499   5.041 -1.1724  0.1528  0.2589
    2CHL1   C16   95   2.489   1.635   4.878  0.4909  0.5186 -0.1015
    2CHL1  H16A   96   2.573   1.679   4.820  2.9749 -2.0099  1.2722
    2CHL1  H16B   97   2.453   1.551   4.815  0.8220 -0.2015  0.6333
    2CHL1   C17   98   2.377   1.741   4.896 -0.7294  0.6258  0.3725
    2CHL1   H17   99   2.292   1.673   4.921 -0.5331  0.1017 -0.3387
    2CHL1   C13  100   2.429   1.821   5.021 -0.3139 -0.0111  0.3100
    2CHL1   C18  101   2.554   1.904   4.978 -0.3906  0.3570  0.5180
    2CHL1  H18A  102   2.528   1.987   4.908 -0.5826  1.2970  1.6644
    2CHL1  H18B  103   2.608   1.949   5.064 -0.3469 -0.9966  1.2204
    2CHL1  H18C  104   2.629   1.843   4.923 -1.0551 -2.4112  2.4722
    2CHL1   C12  105   2.330   1.911   5.086 -0.2977  0.8463 -0.7180
    2CHL1  H12A  106   2.306   1.996   5.018 -1.0062  1.1543 -0.0921
    2CHL1  H12B  107   2.236   1.859   5.113  0.2815  0.7320  1.2853
    2CHL1   C11  108   2.384   1.960   5.226  0.7282  0.0616 -0.1154
    2CHL1  H11A  109   2.469   2.031   5.216  0.4968  0.2083 -1.1951
    2CHL1  H11B  110   2.308   2.021   5.279 -1.2891 -3.0434  0.8395
    2CHL1    C9  111   2.426   1.835   5.317  0.6020 -0.4472 -0.5114
    2CHL1    H9  112   2.327   1.784   5.322 -0.6022  1.7593 -0.5582
    2CHL1   C10  113   2.475   1.872   5.457  0.9857  0.1498 -0.0395
    2CHL1   C19  114   2.578   1.984   5.451 -0.6807  0.4645 -0.3230
    2CHL1  H19A  115   2.540   2.075   5.399 -0.3901  0.6554 -0.1969
    2CHL1  H19B  116   2.612   2.029   5.547 -0.9510  1.6405 -0.7547
    2CHL1  H19C  117   2.670   1.945   5.403 -0.0374  0.6515  0.7274
    2CHL1    C1  118   2.353   1.923   5.540 -0.6467 -0.4930 -0.3555
    2CHL1   H1A  119   2.304   2.014   5.499  2.2006  0.1613 -2.6849
    2CHL1   H1B  120   2.271   1.849   5.525  1.4831 -2.8977 -0.8814
    2CHL1    C2  121   2.369   1.941   5.690 -0.0628 -0.4022 -0.3969
    2CHL1   H2A  122   2.277   1.974   5.743  1.5881  1.3031  1.5621
    2CHL1   H2B  123   2.434   2.027   5.715  1.8681 -1.7336 -0.6057
    2CHL1   C20  124   2.327   1.819   4.771  0.1467  0.2991 -1.0409
    2CHL1   H20  125   2.393   1.908   4.775 -1.0184  1.1295  0.5264
    2CHL1   C21  126   2.184   1.874   4.796 -0.3950  0.0131 -0.4633
    2CHL1  H21A  127   2.171   1.945   4.880  1.4315  0.4183 -0.4985
    2CHL1  H21B  128   2.119   1.784   4.798  0.4874 -0.6249 -0.0412
    2CHL1  H21C  129   2.153   1.929   4.704  2.9529 -4.5172 -4.9256
    2CHL1   C22  130   2.347   1.744   4.631  0.6364  0.1264 -0.0082
    2CHL1  H22A  131   2.453   1.711   4.624  0.9039  1.0952 -0.6272
    2CHL1  H22B  132   2.275   1.658   4.630 -0.2280  0.8201 -1.7452
    2CHL1   C23  133   2.320   1.827   4.504  0.4706  0.0794 -0.9062
    2CHL1  H23A  134   2.281   1.765   4.421 -1.1702 -1.9203  1.2001
    2CHL1  H23B  135   2.230   1.891   4.513  0.0923 -0.5013 -0.4035
    2CHL1   C24  136   2.435   1.918   4.461  0.4986 -0.4335  0.1571
    2CHL1  H24A  137   2.408   1.976   4.370 -0.5505 -2.2460 -0.7367
    2CHL1  H24B  138   2.451   1.993   4.542 -0.2877 -1.4820  1.3129
    2CHL1   C25  139   2.562   1.847   4.414  0.3370  0.2173 -0.7778
    2CHL1   H25  140   2.584   1.766   4.488 -1.7940 -0.1671 -0.4870
    2CHL1   C26  141   2.532   1.761   4.288 -0.4987  0.0507 -0.1523
    2CHL1  H26A  142   2.459   1.682   4.312  0.5320 -0.6118  0.9097
    2CHL1  H26B  143   2.485   1.828   4.212  0.6415  0.6965 -0.3176
    2CHL1  H26C  144   2.625   1.710   4.253  0.7776 -0.3445  3.3939
    2CHL1   C27  145   2.671   1.946   4.406 -0.4093 -0.2969  0.0647
    2CHL1  H27A  146   2.638   2.019   4.329  1.9293  0.2570 -0.5039
    2CHL1  H27B  147   2.705   2.003   4.495 -2.5594  0.3338  0.5393
    2CHL1  H27C  148   2.751   1.888   4.356 -2.6229 -1.0279 -2.9182
    3CHL1    C3  149   6.110   3.376   6.521 -0.4816 -0.1027  0.3066
    3CHL1    H3  150   6.203   3.372   6.461 -0.5733  1.3618  0.0253
    3CHL1    O3  151   6.133   3.386   6.657  0.1774 -0.0369 -0.3853
    3CHL1   H3'  152   6.166   3.303   6.692  0.6530  0.6175  0.7889
    3CHL1    C4  153   6.036   3.512   6.474  0.0835  0.5687 -0.8043
    3CHL1   H4A  154   5.945   3.523   6.537 -0.7127  1.1758 -2.0164
    3CHL1   H4B  155   6.107   3.593   6.498 -1.0386  0.9755  1.4037
    3CHL1    C5  156   5.984   3.503   6.332  0.2142 -0.3730 -0.1371
    3CHL1    C6  157   6.022   3.595   6.240 -0.2015  0.2395 -0.0431
    3CHL1    H6  158   6.083   3.681   6.271  0.3981 -0.4491  0.7010
    3CHL1    C7  159   5.961   3.606   6.106  0.0353 -0.2082  0.2023
    3CHL1   H7A  160   5.937   3.715   6.103  1.1234  0.0356 -0.1420
    3CHL1   H7B  161   6.038   3.595   6.027 -0.3561 -0.3296 -0.1628
    3CHL1    C8  162   5.846   3.511   6.078 -0.2601  0.6202 -0.2129
    3CHL1    H8  163   5.753   3.553   6.122 -1.3825 -0.0714 -1.8279
    3CHL1   C14  164   5.821   3.493   5.926  0.2396  0.4293 -0.3333
    3CHL1   H14  165   5.908   3.434   5.890 -0.4812 -2.2224  1.8657
    3CHL1   C15  166   5.800   3.615   5.844 -0.3675  0.1990 -0.1875
    3CHL1  H15A  167   5.734   3.694   5.887 -0.1483  0.1206  0.2971
    3CHL1  H15B  168   5.899   3.661   5.824  0.4734 -1.9472 -1.3341
    3CHL1   C16  169   5.744   3.565   5.707 -0.3475  0.1625 -0.2576
    3CHL1  H16A  170   5.650   3.617   5.680 -1.9441 -1.6685  1.4836
    3CHL1  H16B  171   5.822   3.576   5.629  1.6178 -0.7230  1.4910
    3CHL1   C17  172   5.704   3.419   5.731  0.3760  0.1856 -0.3928
    3CHL1   H17  173   5.798   3.368   5.699  0.7752  0.1789  0.7122
    3CHL1   C13  174   5.705   3.406   5.883 -0.0336 -0.0697  0.0139
    3CHL1   C18  175   5.575   3.469   5.938  0.0872 -0.2062  0.4803
    3CHL1  H18A  176   5.570   3.474   6.049  0.2535 -1.4022  0.5489
    3CHL1  H18B  177   5.540   3.569   5.905  1.2550  0.5634  1.4496
    3CHL1  H18C  178   5.492   3.401   5.912  0.7376 -0.1956 -1.8471
    3CHL1   C12  179   5.724   3.266   5.946  0.2532  0.0675  0.2185
    3CHL1  H12A  180   5.631   3.206   5.932  0.6319 -0.2258 -1.2195
    3CHL1  H12B  181   5.799   3.203   5.894  0.2636 -1.4532  1.9871
    3CHL1   C11  182   5.758   3.266   6.098 -0.3103 -0.3686  0.7884
    3CHL1  H11A  183   5.663   3.284   6.154 -0.3853 -3.6780  1.9028
    3CHL1  H11B  184   5.780   3.163   6.134  0.0115 -0.0784  1.4632
    3CHL1    C9  185   5.863   3.372   6.139 -0.5227 -0.8694 -0.0099
    3CHL1    H9  186   5.960   3.336   6.099 -0.1412 -2.3762  2.0667
    3CHL1   C10  187   5.897   3.386   6.301  0.0971  0.2608  0.1787
    3CHL1   C19  188   5.760   3.399   6.370 -0.6877 -0.0547  0.9937
    3CHL1  H19A  189   5.683   3.472   6.338 -1.2705 -1.4202 -0.9009
    3CHL1  H19B  190   5.709   3.301   6.370  0.8249 -0.8793  0.5640
    3CHL1  H19C  191   5.768   3.425   6.478 -2.0127 -1.7091  1.5273
    3CHL1    C1  192   5.977   3.258   6.340  0.4180 -0.2026  0.0931
    3CHL1   H1A  193   5.906   3.176   6.315  1.1215 -0.3481 -1.5591
    3CHL1   H1B  194   6.068   3.246   6.278  0.4373 -0.3107  0.1436
    3CHL1    C2  195   6.026   3.256   6.488  0.1728  0.1872 -0.3989
    3CHL1   H2A  196   6.085   3.163   6.498 -0.9553 -0.5979 -0.7934
    3CHL1   H2B  197   5.943   3.256   6.561  0.3127  0.1927 -0.2397
    3CHL1   C20  198   5.585   3.369   5.645 -0.1074 -0.4913  1.0861
    3CHL1   H20  199   5.492   3.418   5.680 -1.4976 -0.7220 -1.9663
    3CHL1   C21  200   5.556   3.217   5.664 -0.1686  0.2294  0.4522
    3CHL1  H21A  201   5.524   3.192   5.767  0.8381 -0.1611  0.6810
    3CHL1  H21B  202   5.653   3.165   5.647 -1.0171 -1.2551 -0.0637
    3CHL1  H21C  203   5.481   3.203   5.583 -2.1218  3.9549  1.4113
    3CHL1   C22  204   5.611   3.399   5.495 -0.9331  0.6072  0.2571
    3CHL1  H22A  205   5.653   3.501   5.486  1.8458 -0.4944 -0.1718
    3CHL1  H22B  206   5.692   3.332   5.460 -1.4553 -0.1507  0.4738
    3CHL1   C23  207   5.493   3.375   5.390 -0.1213  0.1780 -0.2995
    3CHL1  H23A  208   5.449   3.274   5.400  2.7678 -1.0818  0.9014
    3CHL1  H23B  209   5.413   3.449   5.410  0.3868  0.8572 -0.7326
    3CHL1   C24  210   5.540   3.387   5.246 -0.3655  0.5365  0.1441
    3CHL1  H24A  211   5.446   3.408   5.191 -1.5822 -1.9668  1.0895
    3CHL1  H24B  212   5.599   3.480   5.231  1.4615 -0.8572 -1.8812
    3CHL1   C25  213   5.624   3.276   5.171  1.0706  0.2216 -0.2609
    3CHL1   H25  214   5.662   3.321   5.077  1.5564  0.7053  0.1659
    3CHL1   C26  215   5.751   3.233   5.239 -0.3578 -0.7334  0.3901
    3CHL1  H26A  216   5.818   3.174   5.172  1.2608 -0.1179  1.4190
    3CHL1  H26B  217   5.807   3.323   5.270 -1.2562 -0.1235  0.2972
    3CHL1  H26C  218   5.742   3.165   5.327  3.3401 -0.5183  1.1030
    3CHL1   C27  219   5.529   3.155   5.130 -0.6960 -0.1500 -1.2179
    3CHL1  H27A  220   5.481   3.099   5.213 -1.9640  2.0267 -0.3808
    3CHL1  H27B  221   5.449   3.196   5.064 -1.2842  1.1127  0.1933
    3CHL1  H27C  222   5.586   3.089   5.062  1.4286 -0.8595  1.0881
    4CHL1    C3  223   1.038   0.036   5.435 -0.3838 -0.1440 -0.0090
    4CHL1    H3  224   1.117  -0.024   5.384  0.4142  0.6979  0.2204
    4CHL1    O3  225   1.098   0.078   5.556 -0.0124 -0.3982  0.3463
    4CHL1   H3'  226   1.090  -0.001   5.611 -1.5874 -0.0146  0.7105
    4CHL1    C4  227   1.004   0.153   5.340 -0.2786  0.3273 -1.0819
    4CHL1   H4A  228   0.940   0.228   5.391 -1.5918 -2.6760  2.0415
    4CHL1   H4B  229   1.105   0.198   5.323  0.1249 -0.2823 -0.3419
    4CHL1    C5  230   0.921   0.110   5.217  0.3011  0.7035 -1.0246
    4CHL1    C6  231   0.966   0.144   5.099  0.3870  0.2680  0.6296
    4CHL1    H6  232   1.056   0.208   5.096 -0.0929  1.0231  2.0022
    4CHL1    C7  233   0.885   0.111   4.973  0.2084  0.3283 -0.6235
    4CHL1   H7A  234   0.889   0.192   4.897  0.2902  0.5790 -0.3547
    4CHL1   H7B  235   0.931   0.022   4.925 -0.2202 -1.1889  1.6225
    4CHL1    C8  236   0.733   0.069   4.999 -0.4068 -0.1360 -0.3210
    4CHL1    H8  237   0.683   0.164   5.025 -0.9224 -0.3655 -0.4543
    4CHL1   C14  238   0.662   0.014   4.876  0.5350  0.4406 -0.3253
    4CHL1   H14  239   0.714  -0.083   4.860 -2.6033 -1.1925 -1.2874
    4CHL1   C15  240   0.665   0.092   4.740 -0.0199 -0.4238 -0.5287
    4CHL1  H15A  241   0.651   0.200   4.762 -1.4762 -1.3977  4.6880
    4CHL1  H15B  242   0.758   0.074   4.682  0.9745  0.0936  0.8521
    4CHL1   C16  243   0.535   0.054   4.667 -0.5287  0.1800 -0.4807
    4CHL1  H16A  244   0.464   0.135   4.638  0.1738  0.0043 -2.8938
    4CHL1  H16B  245   0.582   0.012   4.576  0.2066  1.5970 -0.7812
    4CHL1   C17  246   0.468  -0.058   4.754 -0.3966 -0.1827  0.1671
    4CHL1   H17  247   0.509  -0.154   4.716  1.6520  0.7655 -0.1560
    4CHL1   C13  248   0.519  -0.032   4.898  0.3829 -0.5122 -0.4938
    4CHL1   C18  249   0.434   0.087   4.968 -0.3737  0.2553  0.2099
    4CHL1  H18A  250   0.327   0.061   4.957 -0.7553  1.9597 -0.4019
    4CHL1  H18B  251   0.465   0.096   5.074 -1.1671  2.9802  0.2828
    4CHL1  H18C  252   0.462   0.180   4.914  2.1454 -0.5035  0.0540
    4CHL1   C12  253   0.515  -0.147   5.003 -1.1577 -0.6219 -0.4921
    4CHL1  H12A  254   0.411  -0.177   5.028 -0.2603 -1.0305  3.4175
    4CHL1  H12B  255   0.571  -0.232   4.959 -0.1403 -0.0382 -0.3706
    4CHL1   C11  256   0.596  -0.112   5.134 -0.1573  0.0685  0.0659
    4CHL1  H11A  257   0.528  -0.057   5.202 -2.0319 -1.2796 -0.6154
    4CHL1  H11B  258   0.618  -0.209   5.183 -0.0765 -0.1779 -0.4476
    4CHL1    C9  259   0.734  -0.036   5.121 -0.1229  0.2718  0.0460
    4CHL1    H9  260   0.805  -0.116   5.093 -1.4770 -0.9647  0.0265
    4CHL1   C10  261   0.802   0.022   5.253  0.0465  0.1468  1.3739
    4CHL1   C19  262   0.690   0.113   5.317  0.5008 -0.1042 -0.2899
    4CHL1  H19A  263   0.657   0.180   5.236  0.3462 -1.3737 -1.3113
    4CHL1  H19B  264   0.606   0.045   5.344  1.0123 -0.2249  1.1185
    4CHL1  H19C  265   0.722   0.153   5.416  2.5271 -3.1863  0.4690
    4CHL1    C1  266   0.836  -0.091   5.352 -0.1008 -0.4980  0.1730
    4CHL1   H1A  267   0.739  -0.130   5.391  0.6531 -1.6035  1.0155
    4CHL1   H1B  268   0.900  -0.161   5.294  0.3879  0.6897 -0.7542
    4CHL1    C2  269   0.921  -0.051   5.472  0.7329 -0.5245  0.1924
    4CHL1   H2A  270   0.971  -0.133   5.527  1.6235 -0.7030 -0.8371
    4CHL1   H2B  271   0.858   0.011   5.539  2.3346  0.1523  1.1205
    4CHL1   C20  272   0.320  -0.067   4.736  0.1796  0.1796 -0.4616
    4CHL1   H20  273   0.277   0.024   4.781 -1.8906 -0.3537 -1.2652
    4CHL1   C21  274   0.252  -0.179   4.830  0.5116 -0.4737 -0.5466
    4CHL1  H21A  275   0.225  -0.128   4.924 -0.3719  0.7998 -1.4633
    4CHL1  H21B  276   0.310  -0.273   4.821  0.9838 -0.3165  0.6731
    4CHL1  H21C  277   0.151  -0.211   4.795 -0.5532 -0.7870  2.5127
    4CHL1   C22  278   0.265  -0.068   4.588 -0.1487 -0.0775 -0.5218
    4CHL1  H22A  279   0.155  -0.074   4.598 -0.2883 -0.9034 -2.1272
    4CHL1  H22B  280   0.289   0.029   4.539 -1.0131  0.5702  0.3231
    4CHL1   C23  281   0.314  -0.197   4.512  0.2897 -0.2085 -0.6523
    4CHL1  H23A  282   0.423  -0.186   4.496  0.5944  2.1520  2.2106
    4CHL1  H23B  283   0.310  -0.291   4.572 -0.5323  1.5543  2.2342
    4CHL1   C24  284   0.230  -0.213   4.387  0.1294 -0.2285  0.0528
    4CHL1  H24A  285   0.275  -0.296   4.329  2.2744  0.0496  1.2144
    4CHL1  H24B  286   0.123  -0.235   4.407  0.1101  1.6671  2.6200
    4CHL1   C25  287   0.241  -0.080   4.307  0.0579  0.4146  0.1257
    4CHL1   H25  288   0.206   0.015   4.354  3.1206  2.2627 -1.0509
    4CHL1   C26  289   0.394  -0.060   4.260 -0.0453  0.7200  0.7895
    4CHL1  H26A  290   0.416  -0.135   4.181  0.3787  2.5344 -0.8902
    4CHL1  H26B  291   0.405   0.039   4.210  3.1830 -0.6093 -1.4827
    4CHL1  H26C  292   0.464  -0.056   4.345  1.8511  0.5670 -0.7073
    4CHL1   C27  293   0.165  -0.084   4.172  0.3445 -0.2267 -0.3844
    4CHL1  H27A  294   0.057  -0.111   4.184  0.5083 -0.5684  0.3763
    4CHL1  H27B  295   0.173   0.014   4.120  1.2632  0.4708  1.0160
    4CHL1  H27C  296   0.208  -0.163   4.106  0.4316  0.0858 -0.7045
    5CHL1    C3  297   3.415   6.569   5.645 -0.3392  0.1340  0.7203
    5CHL1    H3  298   3.311   6.608   5.654  0.3341  2.0036  0.8249
    5CHL1    O3  299   3.453   6.576   5.783  0.3932  0.0796  0.2174
    5CHL1   H3'  300   3.421   6.661   5.814  2.1977  0.7302  0.4300
    5CHL1    C4  301   3.434   6.428   5.584 -0.9305  0.2032 -0.9121
    5CHL1   H4A  302   3.544   6.412   5.577 -0.9696  0.3183 -1.9232
    5CHL1   H4B  303   3.399   6.356   5.662 -0.0255  0.4284 -0.2724
    5CHL1    C5  304   3.377   6.419   5.449 -0.9522 -1.2251  0.2943
    5CHL1    C6  305   3.281   6.330   5.428  0.0817  0.1579  0.4663
    5CHL1    H6  306   3.256   6.255   5.505 -0.9981  0.9828  0.9542
    5CHL1    C7  307   3.208   6.312   5.297 -0.1791  0.0704  0.0702
    5CHL1   H7A  308   3.207   6.204   5.272  3.4909  0.3159 -1.7161
    5CHL1   H7B  309   3.099   6.326   5.316  0.1394  0.0749  2.1402
    5CHL1    C8  310   3.271   6.393   5.174 -0.4111  0.1005 -0.8836
    5CHL1    H8  311   3.354   6.333   5.131 -1.6291 -0.8117 -2.0360
    5CHL1   C14  312   3.169   6.422   5.067 -0.3373 -0.0840  0.2979
    5CHL1   H14  313   3.083   6.473   5.114  1.9188  2.4389  1.9792
    5CHL1   C15  314   3.104   6.295   4.997 -0.2548  0.1649 -0.0942
    5CHL1  H15A  315   3.183   6.222   4.970 -0.3739 -0.1157  0.3166
    5CHL1  H15B  316   3.045   6.246   5.077  0.3060 -0.8324 -0.2784
    5CHL1   C16  317   3.037   6.355   4.880  0.1365 -0.5932  0.0234
    5CHL1  H16A  318   3.061   6.288   4.795  3.0147  0.1327  0.1854
    5CHL1  H16B  319   2.926   6.351   4.890  0.1388 -0.8177 -0.0263
    5CHL1   C17  320   3.077   6.507   4.872 -0.0187 -0.1381  0.7684
    5CHL1   H17  321   3.003   6.562   4.934 -1.9475 -0.8295 -0.8004
    5CHL1   C13  322   3.215   6.511   4.946 -0.5054 -0.8651 -0.3416
    5CHL1   C18  323   3.325   6.443   4.855 -0.1809 -0.3413 -0.3526
    5CHL1  H18A  324   3.299   6.362   4.784 -2.4169  1.1021 -1.2831
    5CHL1  H18B  325   3.364   6.524   4.789  0.9930  0.2717  1.0189
    5CHL1  H18C  326   3.414   6.407   4.911  0.0811  0.0177 -0.5320
    5CHL1   C12  327   3.267   6.646   5.000  0.0272  0.3909  0.1329
    5CHL1  H12A  328   3.307   6.709   4.918  2.2202 -0.1757  0.6848
    5CHL1  H12B  329   3.172   6.691   5.036 -0.9993 -2.2341  0.9216
    5CHL1   C11  330   3.363   6.625   5.116  0.2271  0.5308  0.2059
    5CHL1  H11A  331   3.455   6.588   5.066  0.6804 -0.3303  1.6068
    5CHL1  H11B  332   3.396   6.725   5.152  3.0040  0.1801 -1.0668
    5CHL1    C9  333   3.326   6.531   5.228  0.6881  0.3540  0.2732
    5CHL1    H9  334   3.238   6.582   5.273 -0.4099 -0.3252 -1.0449
    5CHL1   C10  335   3.428   6.526   5.342  0.3050  0.2842 -0.0022
    5CHL1   C19  336   3.568   6.485   5.293  0.8412 -0.4916 -0.0905
    5CHL1  H19A  337   3.557   6.398   5.225 -0.4319 -0.1253 -0.4013
    5CHL1  H19B  338   3.609   6.565   5.228  0.9670 -0.3925  0.1115
    5CHL1  H19C  339   3.638   6.445   5.369  0.3250  0.7027  1.0516
    5CHL1    C1  340   3.445   6.673   5.415 -0.0302 -0.3818 -0.1435
    5CHL1   H1A  341   3.526   6.728   5.361  1.2917  0.3763  2.4298
    5CHL1   H1B  342   3.358   6.741   5.408 -1.6273 -2.3126  0.2400
    5CHL1    C2  343   3.496   6.667   5.563 -0.4423  0.1233 -0.7521
    5CHL1   H2A  344   3.477   6.764   5.612 -1.6315 -1.0177  1.2041
    5CHL1   H2B  345   3.604   6.642   5.562 -0.5234 -0.4193  1.0386
    5CHL1   C20  346   3.065   6.571   4.729  0.2842  1.1208  0.8918
    5CHL1   H20  347   3.156   6.549   4.669 -1.6363 -1.0155 -1.4577
    5CHL1   C21  348   3.046   6.722   4.753 -0.0798  0.1959 -0.4186
    5CHL1  H21A  349   2.958   6.742   4.819  1.2283  2.6077  0.7061
    5CHL1  H21B  350   3.035   6.790   4.666 -0.8629  0.6251 -0.0026
    5CHL1  H21C  351   3.134   6.766   4.805  0.7782  0.0813 -1.7278
    5CHL1   C22  352   2.949   6.506   4.642  0.0449  0.2506 -0.3827
    5CHL1  H22A  353   2.943   6.396   4.635 -2.0042  0.3756 -1.1528
    5CHL1  H22B  354   2.861   6.535   4.702  0.9816  2.4574  0.0265
    5CHL1   C23  355   2.917   6.565   4.508  0.3281 -0.7499 -0.1579
    5CHL1  H23A  356   2.973   6.661   4.498  0.9234 -1.0889 -0.1503
    5CHL1  H23B  357   2.965   6.507   4.426 -0.6454 -1.9194  0.0683
    5CHL1   C24  358   2.764   6.583   4.472 -0.6352 -0.5241 -0.4509
    5CHL1  H24A  359   2.717   6.483   4.488  1.6431 -1.5664  0.0661
    5CHL1  H24B  360   2.721   6.654   4.547 -0.9604  0.2380 -1.3332
    5CHL1   C25  361   2.734   6.641   4.329 -0.7850 -0.6200  1.1160
    5CHL1   H25  362   2.784   6.735   4.295  0.5250 -1.6140  0.1850
    5CHL1   C26  363   2.780   6.542   4.223 -0.2718  0.2977  0.1412
    5CHL1  H26A  364   2.717   6.450   4.224  0.1617  0.0015  0.3204
    5CHL1  H26B  365   2.775   6.582   4.119 -0.5943 -1.1004 -0.4162
    5CHL1  H26C  366   2.887   6.515   4.233 -0.5320 -0.9100 -0.1212
    5CHL1   C27  367   2.577   6.657   4.318  0.1537 -0.5608 -0.2975
    5CHL1  H27A  368   2.547   6.697   4.219 -2.6348  1.2810  1.1562
    5CHL1  H27B  369   2.528   6.558   4.331 -2.0992  0.2504 -1.9969
    5CHL1  H27C  370   2.538   6.726   4.396  1.8249 -2.4802  2.4213
    6CHL1    C3  371   0.689   3.697   5.523 -0.2627 -0.0564  0.7556
    6CHL1    H3  372   0.600   3.632   5.509 -0.2839  0.2947 -0.9561
    6CHL1    O3  373   0.711   3.726   5.660 -0.5292 -0.2054  0.4887
    6CHL1   H3'  374   0.766   3.653   5.690  0.0412  1.0120  2.6729
    6CHL1    C4  375   0.804   3.602   5.470  0.5473 -0.5644  0.1695
    6CHL1   H4A  376   0.900   3.659   5.476  0.3983 -0.1386 -1.1643
    6CHL1   H4B  377   0.811   3.516   5.539  1.0464 -0.9780 -0.3826
    6CHL1    C5  378   0.775   3.557   5.321  0.0532 -0.0012 -0.6260
    6CHL1    C6  379   0.789   3.426   5.286 -0.4892 -0.3243  0.6872
    6CHL1    H6  380   0.816   3.354   5.365 -1.1475 -0.1373  1.0897
    6CHL1    C7  381   0.794   3.377   5.137 -0.0770  0.4108 -0.5154
    6CHL1   H7A  382   0.887   3.323   5.111  0.2292  0.4907  0.3872
    6CHL1   H7B  383   0.700   3.319   5.124  0.0817  0.1275 -0.3828
    6CHL1    C8  384   0.777   3.497   5.034  0.3361 -0.2205 -0.4676
    6CHL1    H8  385   0.878   3.538   5.015 -0.0095  0.3291 -1.1670
    6CHL1   C14  386   0.734   3.447   4.898  0.5211  0.2408  0.0311
    6CHL1   H14  387   0.630   3.422   4.927 -0.4976  4.1251  0.2577
    6CHL1   C15  388   0.794   3.324   4.845 -0.3597  0.5421 -0.4140
    6CHL1  H15A  389   0.905   3.328   4.854 -0.3157 -0.8714 -0.0401
    6CHL1  H15B  390   0.758   3.237   4.904 -1.4771  2.0159  1.1522
    6CHL1   C16  391   0.761   3.331   4.691 -0.4097  0.5910 -0.3048
    6CHL1  H16A  392   0.854   3.332   4.630  0.4320  0.7755  0.9230
    6CHL1  H16B  393   0.698   3.248   4.652 -0.8626 -0.2784  2.0722
    6CHL1   C17  394   0.687   3.462   4.664 -0.4994 -0.3482 -0.0947
    6CHL1   H17  395   0.578   3.445   4.679 -0.5028 -0.1096  0.1598
    6CHL1   C13  396   0.720   3.550   4.784 -0.0597  0.4423 -0.7161
    6CHL1   C18  397   0.860   3.609   4.752  0.7787  0.3421 -0.5020
    6CHL1  H18A  398   0.922   3.529   4.706 -1.3806 -1.6209 -0.1670
    6CHL1  H18B  399   0.837   3.686   4.675 -0.8678 -1.4245 -1.8730
    6CHL1  H18C  400   0.911   3.650   4.842 -0.2935 -0.2715  0.4169
    6CHL1   C12  401   0.629   3.661   4.840 -0.6883  0.4006  0.2277
    6CHL1  H12A  402   0.625   3.749   4.773 -0.9403 -0.7280 -1.2846
    6CHL1  H12B  403   0.524   3.629   4.854 -0.7617  0.9307  0.9327
    6CHL1   C11  404   0.679   3.717   4.976 -0.0322  0.0925  0.5323
    6CHL1  H11A  405   0.780   3.761   4.963  0.2970  0.0433  2.5690
    6CHL1  H11B  406   0.605   3.796   5.000 -0.3781  0.1170 -0.5500
    6CHL1    C9  407   0.693   3.614   5.088 -0.5312 -0.2817  0.6977
    6CHL1    H9  408   0.590   3.576   5.106 -1.5470  2.4179  0.9106
    6CHL1   C10  409   0.744   3.667   5.219  0.5243  0.2760 -0.6887
    6CHL1   C19  410   0.877   3.747   5.200  0.3440 -0.3634  0.0474
    6CHL1  H19A  411   0.865   3.833   5.131  0.4333  1.0992  1.7843
    6CHL1  H19B  412   0.929   3.784   5.290  0.4378 -0.2031 -0.0730
    6CHL1  H19C  413   0.949   3.684   5.143 -0.7404 -0.8212 -0.8622
    6CHL1    C1  414   0.629   3.761   5.287 -0.2998  0.1574  0.0869
    6CHL1   H1A  415   0.618   3.850   5.221 -0.5619  1.6253  2.0299
    6CHL1   H1B  416   0.535   3.701   5.284  0.0876 -0.5123  0.9369
    6CHL1    C2  417   0.666   3.811   5.429  0.6232  0.2216 -0.1898
    6CHL1   H2A  418   0.575   3.862   5.466 -0.5089 -2.5470  1.1113
    6CHL1   H2B  419   0.752   3.882   5.433 -0.8006  2.0005  2.5171
    6CHL1   C20  420   0.705   3.512   4.516 -0.2074 -0.0359 -0.6381
    6CHL1   H20  421   0.808   3.555   4.515 -0.7170  1.2012 -0.8694
    6CHL1   C21  422   0.612   3.627   4.481  0.3731 -0.0206 -0.2333
    6CHL1  H21A  423   0.664   3.712   4.530  1.6493 -0.8990  0.0120
    6CHL1  H21B  424   0.519   3.599   4.535  1.3058  0.3963  1.7045
    6CHL1  H21C  425   0.591   3.644   4.374 -1.4883 -3.0046 -0.4570
    6CHL1   C22  426   0.699   3.397   4.417 -0.1158  0.2983  0.3417
    6CHL1  H22A  427   0.767   3.312   4.440 -0.6560 -0.3251 -0.3198
    6CHL1  H22B  428   0.600   3.349   4.406 -0.5879  1.6595 -2.0896
    6CHL1   C23  429   0.731   3.433   4.264 -0.2254 -0.7467 -0.6181
    6CHL1  H23A  430   0.659   3.506   4.222 -1.7953 -2.4891 -1.0941
    6CHL1  H23B  431   0.836   3.469   4.265 -0.2430 -0.6957 -0.6221
    6CHL1   C24  432   0.720   3.312   4.166  0.1429  0.1019  0.0390
    6CHL1  H24A  433   0.790   3.237   4.208 -0.3782 -0.4375 -0.0376
    6CHL1  H24B  434   0.611   3.290   4.170  0.1554  0.2109  1.5684
    6CHL1   C25  435   0.765   3.333   4.025 -0.3960 -0.0334  0.4683
    6CHL1   H25  436   0.729   3.433   3.993  0.7931  0.9365  2.0088
    6CHL1   C26  437   0.915   3.343   4.004  0.2472  0.8344 -0.1556
    6CHL1  H26A  438   0.959   3.422   4.069  1.6708 -1.6416  2.0922
    6CHL1  H26B  439   0.958   3.247   4.040 -0.1439  0.2465 -1.2160
    6CHL1  H26C  440   0.937   3.353   3.895  1.8000  0.2869  0.0701
    6CHL1   C27  441   0.720   3.236   3.925  0.0406  0.1779 -0.2570
    6CHL1  H27A  442   0.611   3.228   3.904  0.3064 -1.8619 -1.0575
    6CHL1  H27B  443   0.758   3.266   3.825 -0.3436 -1.4812 -0.9241
    6CHL1  H27C  444   0.759   3.135   3.951  0.2675  0.9894  2.9840
    7CHL1    C3  445   2.756   5.821   5.482  0.1480  0.5387  0.6152
    7CHL1    H3  446   2.814   5.739   5.434  0.7262  1.3019 -0.0421
    7CHL1    O3  447   2.758   5.824   5.622  0.0317  0.2935 -0.0046
    7CHL1   H3'  448   2.807   5.898   5.657  1.1540 -1.1909  1.7449
    7CHL1    C4  449   2.812   5.945   5.413  0.4721  0.1047 -0.3440
    7CHL1   H4A  450   2.755   6.036   5.442  0.6596 -0.1442  0.8655
    7CHL1   H4B  451   2.910   5.963   5.463  0.7505  0.9240 -1.1489
    7CHL1    C5  452   2.812   5.942   5.258  0.2432  0.3425  0.3339
    7CHL1    C6  453   2.922   5.951   5.181 -0.6311 -0.3150 -0.4622
    7CHL1    H6  454   3.015   5.975   5.235 -2.1961 -0.3750  2.4154
    7CHL1    C7  455   2.924   5.936   5.031 -0.0296 -0.4704 -0.5382
    7CHL1   H7A  456   3.010   5.994   4.990  0.5920  0.2696  1.6902
    7CHL1   H7B  457   2.951   5.829   5.015 -1.4079 -1.2799  1.9890
    7CHL1    C8  458   2.785   5.962   4.970  0.7083  0.4922  0.0290
    7CHL1    H8  459   2.772   6.072   4.969  2.2798  0.7265  1.3236
    7CHL1   C14  460   2.788   5.912   4.831 -0.6320 -0.0369  0.5192
    7CHL1   H14  461   2.824   5.807   4.838  1.7863  0.7585  1.1174
    7CHL1   C15  462   2.885   5.982   4.729  0.0481 -0.6080 -0.6398
    7CHL1  H15A  463   2.891   6.090   4.758  1.8055 -1.2488  1.6539
    7CHL1  H15B  464   2.994   5.965   4.747  0.5281  1.9387 -0.7077
    7CHL1   C16  465   2.827   5.948   4.594 -0.0728  0.3705  0.4315
    7CHL1  H16A  466   2.817   6.039   4.530 -1.7149  0.4207  0.7092
    7CHL1  H16B  467   2.876   5.868   4.535 -1.4072 -2.4878  2.9419
    7CHL1   C17  468   2.691   5.883   4.614  0.3395 -0.6159  0.2349
    7CHL1   H17  469   2.699   5.772   4.614 -0.8077 -0.7502 -1.7529
    7CHL1   C13  470   2.646   5.916   4.758  0.5351 -0.5664  0.0704
    7CHL1   C18  471   2.592   6.060   4.755  0.1703 -0.1712  0.2476
    7CHL1  H18A  472   2.580   6.100   4.858  0.0586  0.2627  0.0704
    7CHL1  H18B  473   2.659   6.128   4.700 -0.4280 -0.7066 -1.1968
    7CHL1  H18C  474   2.492   6.060   4.706 -0.1242 -2.4256  0.7012
    7CHL1   C12  475   2.538   5.828   4.827  0.7414  0.6744 -0.5649
    7CHL1  H12A  476   2.438   5.848   4.783  0.1334  0.5140  0.7003
    7CHL1  H12B  477   2.564   5.720   4.815 -1.9662  0.1379 -2.6566
    7CHL1   C11  478   2.529   5.871   4.977 -0.5573 -0.3712  0.0535
    7CHL1  H11A  479   2.458   5.957   4.976 -0.4255 -0.2294  1.5325
    7CHL1  H11B  480   2.476   5.785   5.021  0.0512 -0.9751 -0.3759
    7CHL1    C9  481   2.673   5.888   5.045  0.3825 -0.0827 -0.0453
    7CHL1    H9  482   2.700   5.781   5.043 -0.0142 -0.1954  0.5564
    7CHL1   C10  483   2.675   5.917   5.197  0.2002 -0.2388 -0.0620
    7CHL1   C19  484   2.585   6.044   5.218  0.3292  0.5505 -0.2792
    7CHL1  H19A  485   2.480   6.023   5.189 -0.0969 -1.7859  2.5079
    7CHL1  H19B  486   2.590   6.067   5.326 -1.5364 -1.3398  0.2824
    7CHL1  H19C  487   2.622   6.121   5.147 -0.2291 -0.7133 -2.0113
    7CHL1    C1  488   2.602   5.799   5.273 -0.1407  0.2335 -0.5884
    7CHL1   H1A  489   2.496   5.776   5.249  0.1241 -3.4505  1.0235
    7CHL1   H1B  490   2.657   5.709   5.236 -1.3441 -0.8622  0.1908
    7CHL1    C2  491   2.611   5.807   5.426  1.0749  0.2004  0.0805
    7CHL1   H2A  492   2.563   5.719   5.475 -0.7817  0.2302 -1.5839
    7CHL1   H2B  493   2.549   5.897   5.445 -0.6973 -0.7125 -1.1774
    7CHL1   C20  494   2.587   5.904   4.503  0.0111 -0.4778  0.0475
    7CHL1   H20  495   2.489   5.881   4.549 -0.1047 -0.2038 -0.0627
    7CHL1   C21  496   2.611   5.799   4.391  0.5013 -0.8960 -0.0178
    7CHL1  H21A  497   2.709   5.826   4.347  0.3283 -1.4029 -0.7289
    7CHL1  H21B  498   2.529   5.806   4.316 -0.4777 -1.8827  0.9279
    7CHL1  H21C  499   2.618   5.694   4.426 -0.2946 -0.8939  0.1788
    7CHL1   C22  500   2.570   6.047   4.441 -0.3026 -0.7352  0.3331
    7CHL1  H22A  501   2.603   6.124   4.513 -0.6383  0.0630 -0.3370
    7CHL1  H22B  502   2.629   6.056   4.347 -0.7847 -1.3822 -0.0409
    7CHL1   C23  503   2.425   6.063   4.389 -0.2467  0.3494 -0.2144
    7CHL1  H23A  504   2.406   5.988   4.309 -1.6664  0.2257  0.2119
    7CHL1  H23B  505   2.347   6.048   4.466  1.5975  1.8370  2.0603
    7CHL1   C24  506   2.414   6.204   4.338 -0.1251  0.1909  0.6461
    7CHL1  H24A  507   2.429   6.277   4.420  0.8644  0.6344  0.0953
    7CHL1  H24B  508   2.491   6.210   4.258  1.0702 -2.9552  1.4294
    7CHL1   C25  509   2.283   6.241   4.268  0.5140  0.0940  0.6222
    7CHL1   H25  510   2.294   6.334   4.207 -1.7444  1.0791  1.6113
    7CHL1   C26  511   2.231   6.133   4.169  1.2815  0.4557  0.2954
    7CHL1  H26A  512   2.130   6.161   4.134  0.7266 -0.2679  1.2851
    7CHL1  H26B  513   2.303   6.111   4.088 -2.2613  0.4991 -3.1387
    7CHL1  H26C  514   2.208   6.041   4.228 -0.0290  1.3015  1.1591
    7CHL1   C27  515   2.175   6.275   4.366  0.4048  0.3807 -0.3934
    7CHL1  H27A  516   2.080   6.307   4.318 -0.2338 -0.6113  0.1549
    7CHL1  H27B  517   2.164   6.190   4.438  4.2255  0.5563  0.5898
    7CHL1  H27C  518   2.208   6.363   4.425 -0.4813  2.0280 -2.2706
    8CHL1    C3  519   2.890   3.997   6.021 -0.2407 -0.3160 -0.0900
    8CHL1    H3  520   2.796   3.939   6.012 -0.7837  0.5955 -0.4591
    8CHL1    O3  521   2.915   3.999   6.164  0.5912 -0.2367  0.1517
    8CHL1   H3'  522   2.952   3.914   6.190 -0.6219 -1.2171 -1.1766
    8CHL1    C4  523   3.001   3.921   5.955 -0.7131 -0.1443 -0.6175
    8CHL1   H4A  524   3.100   3.971   5.966 -1.2781  1.6225 -2.8491
    8CHL1   H4B  525   3.009   3.817   5.993  0.6572  0.4118  0.7177
    8CHL1    C5  526   2.972   3.923   5.804 -1.0071  0.5238 -0.5547
    8CHL1    C6  527   2.978   3.810   5.737 -0.1029  0.2267  0.0473
    8CHL1    H6  528   2.991   3.709   5.780 -1.0690  0.0341 -0.0827
    8CHL1    C7  529   2.967   3.796   5.587  0.1431  0.2688 -0.1692
    8CHL1   H7A  530   3.053   3.739   5.546  0.7129 -0.0993  1.4494
    8CHL1   H7B  531   2.873   3.746   5.557 -1.4936  0.4189  4.0376
    8CHL1    C8  532   2.978   3.936   5.508  0.7542 -0.0507  0.2333
    8CHL1    H8  533   3.088   3.950   5.497  1.0798 -2.9831 -1.4593
    8CHL1   C14  534   2.917   3.928   5.366 -0.2930  0.3191  0.0137
    8CHL1   H14  535   2.808   3.908   5.380 -0.5964  0.3856 -2.0142
    8CHL1   C15  536   2.951   3.810   5.273 -0.0564 -0.4339  0.8927
    8CHL1  H15A  537   3.060   3.791   5.284 -0.0602 -0.3107  1.1781
    8CHL1  H15B  538   2.883   3.723   5.281 -0.3687 -0.3903 -0.9163
    8CHL1   C16  539   2.919   3.870   5.126  0.5814  0.3249  0.4052
    8CHL1  H16A  540   3.011   3.866   5.064  0.7553  1.5283  0.5556
    8CHL1  H16B  541   2.831   3.813   5.091  0.0168  0.6306  1.2840
    8CHL1   C17  542   2.874   4.022   5.153 -0.4301 -0.4788  0.1607
    8CHL1   H17  543   2.763   4.019   5.163 -0.4986 -1.3573 -0.7115
    8CHL1   C13  544   2.932   4.065   5.285  1.2769 -0.5525 -0.5507
    8CHL1   C18  545   3.078   4.101   5.266  0.4680  0.0565 -0.3826
    8CHL1  H18A  546   3.124   4.009   5.224 -0.0735 -1.5778  2.4221
    8CHL1  H18B  547   3.103   4.182   5.193 -0.4336  0.5129 -0.1947
    8CHL1  H18C  548   3.130   4.132   5.359 -0.5478 -0.7867  0.4915
    8CHL1   C12  549   2.862   4.177   5.367  0.4748 -0.1176 -1.1072
    8CHL1  H12A  550   2.885   4.280   5.331  0.6446 -0.0899 -0.9264
    8CHL1  H12B  551   2.755   4.152   5.358  0.4818 -1.5838  1.8031
    8CHL1   C11  552   2.907   4.183   5.514 -0.4832  0.0647  0.3811
    8CHL1  H11A  553   3.008   4.229   5.521 -0.6762  0.8800 -1.5074
    8CHL1  H11B  554   2.848   4.252   5.578 -0.7124 -0.6327  0.9391
    8CHL1    C9  555   2.906   4.048   5.587  0.3179 -0.1525  0.1518
    8CHL1    H9  556   2.798   4.022   5.593  0.1927  0.4093  0.3123
    8CHL1   C10  557   2.957   4.058   5.736 -0.7737  0.0377  0.1654
    8CHL1   C19  558   3.094   4.131   5.730 -0.4237  0.5785 -0.3035
    8CHL1  H19A  559   3.143   4.102   5.634  1.9725  0.0062  1.0219
    8CHL1  H19B  560   3.072   4.240   5.722  0.6710  0.9725  1.4270
    8CHL1  H19C  561   3.164   4.115   5.814 -0.6466 -3.4384 -0.6833
    8CHL1    C1  562   2.839   4.129   5.816 -0.4221  0.3670 -0.3247
    8CHL1   H1A  563   2.835   4.234   5.781 -2.4328  0.5427  0.3312
    8CHL1   H1B  564   2.739   4.083   5.806 -0.3305 -0.1515  0.9176
    8CHL1    C2  565   2.859   4.137   5.966 -0.1945  0.2559 -0.0210
    8CHL1   H2A  566   2.775   4.175   6.029  0.3890  0.0857  0.8710
    8CHL1   H2B  567   2.950   4.197   5.988  0.5616 -0.7816 -0.2712
    8CHL1   C20  568   2.901   4.111   5.027  0.3071 -0.7010  0.5245
    8CHL1   H20  569   3.008   4.137   5.014 -0.0705 -0.3306 -2.5582
    8CHL1   C21  570   2.811   4.239   5.037 -0.6786 -0.9628 -0.1789
    8CHL1  H21A  571   2.816   4.294   4.941  1.9604  1.2883  1.1046
    8CHL1  H21B  572   2.849   4.297   5.124 -0.2035  0.0589 -1.0451
    8CHL1  H21C  573   2.708   4.203   5.056 -0.1713 -1.7100  1.3246
    8CHL1   C22  574   2.868   4.043   4.889  0.0604  0.7184  0.0433
    8CHL1  H22A  575   2.930   3.951   4.895 -1.6233 -0.3671  1.9431
    8CHL1  H22B  576   2.761   4.015   4.881  0.3859 -1.1832  1.5675
    8CHL1   C23  577   2.920   4.129   4.774  0.1631  1.0385 -0.4669
    8CHL1  H23A  578   2.859   4.221   4.760 -0.2696  0.8832  0.3245
    8CHL1  H23B  579   3.026   4.148   4.800  0.7907 -2.0621 -0.3973
    8CHL1   C24  580   2.925   4.045   4.650 -0.4360 -0.5341  0.0637
    8CHL1  H24A  581   3.010   3.974   4.657  0.8304  0.8709 -0.5141
    8CHL1  H24B  582   2.828   3.999   4.624 -0.0129  0.0167 -2.9104
    8CHL1   C25  583   2.952   4.140   4.531  0.3928 -0.3212 -0.4431
    8CHL1   H25  584   2.880   4.225   4.529 -1.9609 -1.9768  3.2037
    8CHL1   C26  585   3.099   4.195   4.538  0.6951 -0.6571 -0.2531
    8CHL1  H26A  586   3.162   4.103   4.543  2.0147  0.2575  0.5006
    8CHL1  H26B  587   3.127   4.248   4.444 -0.4719  0.8670  0.2260
    8CHL1  H26C  588   3.118   4.257   4.628 -2.2303 -0.3743  0.2590
    8CHL1   C27  589   2.920   4.075   4.401 -0.2624  0.0381  0.4278
    8CHL1  H27A  590   3.008   4.014   4.373 -0.2751  0.4256 -0.5084
    8CHL1  H27B  591   2.832   4.007   4.406 -0.1421 -0.0700  1.3474
    8CHL1  H27C  592   2.911   4.142   4.313 -1.4739 -0.1676  0.3861
    9CHL1    C3  593   4.028   4.911   6.167 -0.1819  0.3925 -0.3649
    9CHL1    H3  594   4.103   4.985   6.132  1.0863 -0.4888  0.4306
    9CHL1    O3  595   4.022   4.908   6.311 -0.0919 -0.1203  0.4653
    9CHL1   H3'  596   3.951   4.850   6.339  0.8151 -0.2436  2.6549
    9CHL1    C4  597   3.887   4.962   6.113  0.2232  0.0010  0.4440
    9CHL1   H4A  598   3.800   4.909   6.157  1.8075 -1.8082  1.5179
    9CHL1   H4B  599   3.875   5.065   6.153 -0.2806  1.0125 -2.1183
    9CHL1    C5  600   3.869   4.962   5.961 -0.5045  0.3737 -0.4421
    9CHL1    C6  601   3.829   5.066   5.888  0.1027 -0.2573 -0.0828
    9CHL1    H6  602   3.801   5.163   5.929  0.5674  0.1144 -0.6246
    9CHL1    C7  603   3.809   5.054   5.737 -0.2282  0.1828  0.4057
    9CHL1   H7A  604   3.714   5.105   5.708 -1.0348 -1.2074  0.5232
    9CHL1   H7B  605   3.896   5.109   5.696  0.2776 -0.3027  0.8198
    9CHL1    C8  606   3.806   4.914   5.681 -0.5492  0.2813 -0.0339
    9CHL1    H8  607   3.709   4.869   5.711 -0.1306 -1.8890 -1.6450
    9CHL1   C14  608   3.826   4.922   5.537 -0.4974 -0.0885 -0.3447
    9CHL1   H14  609   3.925   4.970   5.525 -0.1585 -0.7285 -0.1977
    9CHL1   C15  610   3.739   5.016   5.452  0.1040  0.2150 -0.1518
    9CHL1  H15A  611   3.629   5.003   5.456  0.0002  0.7359 -0.9115
    9CHL1  H15B  612   3.765   5.123   5.470  1.7497  0.0049 -1.0395
    9CHL1   C16  613   3.778   4.975   5.304  0.2170 -0.0725 -1.1260
    9CHL1  H16A  614   3.697   4.984   5.229 -0.7351  3.6915  0.1464
    9CHL1  H16B  615   3.865   5.034   5.267 -0.1227 -0.1195 -2.0259
    9CHL1   C17  616   3.839   4.829   5.313 -0.2669  0.9195  0.2285
    9CHL1   H17  617   3.947   4.843   5.293  0.0639 -1.2788  0.2575
    9CHL1   C13  618   3.823   4.787   5.462  0.1127  0.0100 -0.2729
    9CHL1   C18  619   3.674   4.724   5.471 -0.3430 -0.0764  0.1576
    9CHL1  H18A  620   3.654   4.625   5.425 -0.4827 -1.2722  2.6108
    9CHL1  H18B  621   3.637   4.728   5.576  0.6064  2.1539  0.4736
    9CHL1  H18C  622   3.597   4.797   5.437 -1.1423 -0.5654  0.8729
    9CHL1   C12  623   3.930   4.698   5.528 -0.4373  0.3059  0.5753
    9CHL1  H12A  624   3.920   4.594   5.489 -2.7457 -0.6397  3.3414
    9CHL1  H12B  625   4.026   4.745   5.500 -1.1669  1.1750 -0.5818
    9CHL1   C11  626   3.921   4.688   5.681  0.1458  0.3042 -0.0200
    9CHL1  H11A  627   3.820   4.644   5.699 -0.1095  1.6009  2.2402
    9CHL1  H11B  628   3.991   4.620   5.733 -1.3400 -0.5061  0.9999
    9CHL1    C9  629   3.911   4.828   5.744  0.3934 -0.3114 -0.4739
    9CHL1    H9  630   4.007   4.878   5.717 -0.9484  3.1589  0.7544
    9CHL1   C10  631   3.905   4.824   5.898 -0.1339  0.1288 -0.1035
    9CHL1   C19  632   3.793   4.723   5.939  0.0506 -0.2923 -0.6625
    9CHL1  H19A  633   3.762   4.747   6.043 -0.4929  0.8571 -1.0694
    9CHL1  H19B  634   3.696   4.731   5.885 -0.4068 -0.3044  0.1385
    9CHL1  H19C  635   3.830   4.618   5.937  1.8307  0.3134 -1.0152
    9CHL1    C1  636   4.044   4.777   5.959 -0.7819 -0.1255  0.7743
    9CHL1   H1A  637   4.072   4.678   5.916  1.0101  0.8130 -0.3029
    9CHL1   H1B  638   4.116   4.854   5.925  0.1660 -1.2561  0.1589
    9CHL1    C2  639   4.043   4.767   6.112  0.3532  0.1852  0.3163
    9CHL1   H2A  640   4.138   4.729   6.156  1.2648  0.7394 -1.1116
    9CHL1   H2B  641   3.957   4.700   6.134 -0.1801  1.0154  0.8282
    9CHL1   C20  642   3.794   4.736   5.199  0.4700  0.0729 -0.4204
    9CHL1   H20  643   3.687   4.705   5.208  0.8464 -0.7625  1.6659
    9CHL1   C21  644   3.876   4.610   5.204 -0.0764  0.0361 -0.0049
    9CHL1  H21A  645   3.834   4.546   5.284  0.8425 -1.7237 -0.8641
    9CHL1  H21B  646   3.980   4.637   5.232  0.4698 -1.7513 -0.1864
    9CHL1  H21C  647   3.868   4.557   5.106  0.3395 -0.5506  0.2729
    9CHL1   C22  648   3.810   4.793   5.057  0.0113  0.0367  0.4706
    9CHL1  H22A  649   3.775   4.898   5.046 -0.2533  0.1197  1.9492
    9CHL1  H22B  650   3.915   4.781   5.023  0.0245 -1.4674  0.9631
    9CHL1   C23  651   3.724   4.729   4.945 -0.0676 -0.0887  0.4056
    9CHL1  H23A  652   3.732   4.618   4.946  1.2987 -0.0084  0.0923
    9CHL1  H23B  653   3.616   4.752   4.960 -0.3089  0.7720 -2.0727
    9CHL1   C24  654   3.768   4.767   4.802 -0.4020  0.0645  0.5477
    9CHL1  H24A  655   3.739   4.873   4.785  0.7460  0.2588 -0.3662
    9CHL1  H24B  656   3.879   4.771   4.806 -0.3330 -1.9323  2.7420
    9CHL1   C25  657   3.716   4.685   4.680  0.6261  0.3607  0.0791
    9CHL1   H25  658   3.779   4.595   4.666  0.6927 -0.0461  2.5741
    9CHL1   C26  659   3.565   4.643   4.704 -0.8986  0.4729  1.0196
    9CHL1  H26A  660   3.510   4.731   4.746  0.9603  1.5184  1.3817
    9CHL1  H26B  661   3.518   4.617   4.607 -1.7295  2.5067  0.8106
    9CHL1  H26C  662   3.556   4.562   4.779 -1.3067  1.5396  2.1576
    9CHL1   C27  663   3.725   4.759   4.545  0.6116 -0.3685 -0.2685
    9CHL1  H27A  664   3.825   4.793   4.513  0.5331 -2.1766 -2.7441
    9CHL1  H27B  665   3.688   4.694   4.462  0.4310  1.3730 -1.5990
    9CHL1  H27C  666   3.663   4.850   4.560 -0.9667 -1.4157 -0.1412
   10CHL1    C3  667   5.784   6.126   6.028 -0.3482 -0.3184 -0.3650
   10CHL1    H3  668   5.855   6.211   6.021  0.8632 -0.6627  4.2264
   10CHL1    O3  669   5.736   6.102   6.161 -0.3157 -0.4388  0.2314
   10CHL1   H3'  670   5.648   6.068   6.144  0.4430 -2.3088 -0.2551
   10CHL1    C4  671   5.659   6.145   5.930 -1.1566  0.3321  0.3476
   10CHL1   H4A  672   5.597   6.055   5.949 -1.3776  0.4830  0.3413
   10CHL1   H4B  673   5.614   6.245   5.947  2.8972  2.5537 -0.8207
   10CHL1    C5  674   5.715   6.156   5.787  0.0752  0.8943 -0.0032
   10CHL1    C6  675   5.703   6.273   5.717  0.2886 -0.4808 -0.5578
   10CHL1    H6  676   5.656   6.357   5.771  0.3372 -0.6029 -0.3221
   10CHL1    C7  677   5.751   6.297   5.578 -0.2644  0.8118  0.6584
   10CHL1   H7A  678   5.675   6.341   5.510 -0.1509  1.8201  1.1710
   10CHL1   H7B  679   5.836   6.369   5.577  0.1114  0.3845 -0.2306
   10CHL1    C8  680   5.799   6.161   5.514 -0.0580 -1.2090  1.2903
   10CHL1    H8  681   5.704   6.104   5.499 -1.0604  0.7440 -0.3666
   10CHL1   C14  682   5.863   6.181   5.376 -0.1046 -0.5933 -0.2503
   10CHL1   H14  683   5.951   6.244   5.398 -1.4343  1.2611 -0.0381
   10CHL1   C15  684   5.783   6.252   5.272  0.4499 -0.4950 -0.8438
   10CHL1  H15A  685   5.676   6.223   5.276  0.4879 -0.5126  0.4456
   10CHL1  H15B  686   5.797   6.360   5.295 -1.0185 -0.4559 -0.0291
   10CHL1   C16  687   5.863   6.231   5.143 -0.2000  0.6016 -0.7372
   10CHL1  H16A  688   5.792   6.214   5.059 -1.0617 -0.0886  0.1162
   10CHL1  H16B  689   5.919   6.326   5.125  0.7097  0.4823  1.2269
   10CHL1   C17  690   5.965   6.110   5.171  0.4623  0.0018 -0.1420
   10CHL1   H17  691   6.058   6.168   5.191 -0.4189  0.4870  3.0249
   10CHL1   C13  692   5.920   6.051   5.302 -0.5120 -0.1726 -0.8138
   10CHL1   C18  693   5.809   5.944   5.276  0.3279 -0.0462 -0.2745
   10CHL1  H18A  694   5.748   5.920   5.366 -1.1118  0.8219 -0.9889
   10CHL1  H18B  695   5.744   5.983   5.195 -2.0388  1.3028  2.1139
   10CHL1  H18C  696   5.859   5.856   5.230  1.1143  0.2588 -0.0113
   10CHL1   C12  697   6.023   6.003   5.410 -0.6049  0.1692 -0.2739
   10CHL1  H12A  698   6.094   5.926   5.375  0.8122  0.0737  2.5004
   10CHL1  H12B  699   6.083   6.095   5.429 -1.0885  0.2516  0.9447
   10CHL1   C11  700   5.964   5.961   5.545 -0.5647  0.1077  0.6747
   10CHL1  H11A  701   5.899   5.874   5.523  0.5518 -0.3025 -1.1880
   10CHL1  H11B  702   6.050   5.933   5.610  2.9041  0.0135 -3.4785
   10CHL1    C9  703   5.883   6.079   5.610 -0.3509  0.1230  0.1481
   10CHL1    H9  704   5.967   6.147   5.638  0.3815  0.2122 -2.0951
   10CHL1   C10  705   5.803   6.040   5.741  0.4913  0.8950  0.5149
   10CHL1   C19  706   5.704   5.915   5.707  0.7729 -0.0019 -0.2816
   10CHL1  H19A  707   5.762   5.821   5.691  0.2093 -0.3368 -0.3693
   10CHL1  H19B  708   5.633   5.909   5.792  1.8741  0.7224  0.7229
   10CHL1  H19C  709   5.642   5.934   5.617  0.8501 -0.4039 -0.4231
   10CHL1    C1  710   5.913   6.002   5.849  0.2056 -0.3358 -0.3475
   10CHL1   H1A  711   5.967   5.910   5.818 -0.8163 -0.2511 -2.5960
   10CHL1   H1B  712   5.987   6.084   5.837 -0.6612  0.2906 -1.7005
   10CHL1    C2  713   5.863   5.988   5.993  0.3384 -0.1651  1.4060
   10CHL1   H2A  714   5.940   5.967   6.069  0.1403 -0.5092  1.5127
   10CHL1   H2B  715   5.786   5.908   5.994 -0.2086  0.2491 -1.0564
   10CHL1   C20  716   5.998   6.018   5.050  0.7683 -0.7608  0.2362
   10CHL1   H20  717   5.902   5.967   5.027  0.3158  0.7230 -1.3455
   10CHL1   C21  718   6.099   5.908   5.081  0.3879  0.0800 -0.3552
   10CHL1  H21A  719   6.199   5.953   5.097 -0.1268  1.5034 -0.9880
   10CHL1  H21B  720   6.116   5.829   5.004 -1.6713 -0.9906  0.1944
   10CHL1  H21C  721   6.081   5.851   5.175 -0.8332 -0.7335 -1.0451
   10CHL1   C22  722   6.053   6.103   4.932  0.0172  0.2674 -0.3005
   10CHL1  H22A  723   5.973   6.167   4.888  0.3642  0.1834 -1.0640
   10CHL1  H22B  724   6.144   6.159   4.961 -0.8016  1.5245 -0.0494
   10CHL1   C23  725   6.095   6.019   4.811  0.0160 -0.5013 -0.2389
   10CHL1  H23A  726   6.178   5.949   4.834 -1.3351 -1.6195  1.5009
   10CHL1  H23B  727   6.014   5.949   4.785 -1.0999  0.0700  1.5166
   10CHL1   C24  728   6.115   6.102   4.686 -0.2554  0.5586  0.6164
   10CHL1  H24A  729   6.024   6.164   4.667 -0.6676 -1.0286 -3.9741
   10CHL1  H24B  730   6.204   6.165   4.705  0.1767  0.5343 -1.1293
   10CHL1   C25  731   6.129   6.023   4.557 -0.0380  0.2791 -1.1380
   10CHL1   H25  732   6.028   5.982   4.537  0.1945 -0.5545 -0.6692
   10CHL1   C26  733   6.154   6.119   4.435  0.0086 -0.3913 -0.4521
   10CHL1  H26A  734   6.162   6.058   4.343 -0.9543 -1.4419  0.1310
   10CHL1  H26B  735   6.068   6.189   4.425 -1.2661 -1.8237  0.0453
   10CHL1  H26C  736   6.242   6.185   4.449 -0.4491  0.0127  0.6318
   10CHL1   C27  737   6.236   5.913   4.562 -0.0217  0.1891 -0.7268
   10CHL1  H27A  738   6.211   5.833   4.635 -1.1415 -0.8487 -2.1986
   10CHL1  H27B  739   6.246   5.854   4.469  0.9900  0.7439 -0.9888
   10CHL1  H27C  740   6.334   5.960   4.588 -0.9496  0.5291  2.7017
   11CHL1    C3  741   3.585   3.308   5.758  0.2133  0.1356  0.0331
   11CHL1    H3  742   3.482   3.274   5.780  0.7573 -1.7039 -0.0174
   11CHL1    O3  743   3.638   3.373   5.878 -0.0064  0.1976 -0.3698
   11CHL1   H3'  744   3.723   3.415   5.858  0.7130 -0.5793  0.9293
   11CHL1    C4  745   3.664   3.174   5.726 -0.2563 -0.9250  0.6625
   11CHL1   H4A  746   3.772   3.188   5.703 -0.8878 -0.2606 -2.2912
   11CHL1   H4B  747   3.658   3.117   5.821  0.1690  0.7369  1.7475
   11CHL1    C5  748   3.596   3.119   5.604  0.1703  0.4584  0.4071
   11CHL1    C6  749   3.545   2.997   5.606  0.0849 -0.4581 -0.0217
   11CHL1    H6  750   3.551   2.945   5.703  0.3504  0.9850  0.7610
   11CHL1    C7  751   3.480   2.924   5.497  0.1178 -0.7230  1.1187
   11CHL1   H7A  752   3.521   2.824   5.474 -0.5364 -0.5424 -1.1097
   11CHL1   H7B  753   3.370   2.921   5.514 -0.0530 -0.2377  0.1864
   11CHL1    C8  754   3.497   2.999   5.358 -0.1166  0.0365  0.1806
   11CHL1    H8  755   3.593   2.973   5.309  1.4261  4.4408  0.4973
   11CHL1   C14  756   3.386   2.963   5.265  0.3065  0.8399 -0.5788
   11CHL1   H14  757   3.294   2.997   5.318  0.0156 -0.2115 -0.3869
   11CHL1   C15  758   3.359   2.815   5.243  0.1052 -0.2507 -0.3027
   11CHL1  H15A  759   3.461   2.777   5.218  1.5653  2.0607  1.7561
   11CHL1  H15B  760   3.329   2.752   5.329  1.2049 -2.2346 -1.2926
   11CHL1   C16  761   3.261   2.810   5.123 -0.5976 -0.6327 -0.6742
   11CHL1  H16A  762   3.294   2.737   5.047  2.0564 -1.8627  1.4715
   11CHL1  H16B  763   3.156   2.795   5.158 -1.0382  0.4908 -1.4539
   11CHL1   C17  764   3.265   2.953   5.061  0.0866  0.5378  0.2480
   11CHL1   H17  765   3.173   3.006   5.092  0.0477  0.9893 -0.6271
   11CHL1   C13  766   3.388   3.031   5.129  0.6074  0.1741 -0.1658
   11CHL1   C18  767   3.519   2.998   5.052 -0.2704  0.0624  0.3017
   11CHL1  H18A  768   3.536   2.888   5.055  0.0425  0.1292  2.1290
   11CHL1  H18B  769   3.510   3.031   4.946 -1.0753 -0.2620  0.2634
   11CHL1  H18C  770   3.608   3.044   5.100  0.0318 -0.3529  0.1510
   11CHL1   C12  771   3.374   3.185   5.152 -0.2507 -0.0978  0.3643
   11CHL1  H12A  772   3.396   3.233   5.054 -1.0600  0.0428  0.2464
   11CHL1  H12B  773   3.270   3.203   5.184 -1.0575 -3.4210 -0.0933
   11CHL1   C11  774   3.485   3.235   5.251 -0.5609 -0.0917  0.3891
   11CHL1  H11A  775   3.579   3.236   5.191 -1.0634 -0.4358 -0.4220
   11CHL1  H11B  776   3.459   3.341   5.271 -1.6257 -0.2711  0.0545
   11CHL1    C9  777   3.490   3.152   5.382  0.3068 -0.0195  0.1818
   11CHL1    H9  778   3.385   3.175   5.411 -0.0722 -2.0589  0.6334
   11CHL1   C10  779   3.588   3.210   5.481 -0.3359  0.8026  0.0423
   11CHL1   C19  780   3.728   3.223   5.426 -0.1518  0.3363  0.1748
   11CHL1  H19A  781   3.727   3.311   5.357 -0.1070 -0.1316 -0.4326
   11CHL1  H19B  782   3.806   3.250   5.500 -1.3853  1.0738  1.2514
   11CHL1  H19C  783   3.764   3.140   5.362  2.4607  1.2959  0.2729
   11CHL1    C1  784   3.539   3.349   5.523  0.1206 -0.1806 -0.6870
   11CHL1   H1A  785   3.556   3.414   5.434 -1.2729 -0.9063 -1.5120
   11CHL1   H1B  786   3.430   3.352   5.546  0.3438 -0.0914  0.4227
   11CHL1    C2  787   3.605   3.411   5.648  0.6992 -0.4297  0.7198
   11CHL1   H2A  788   3.567   3.512   5.675  0.4301 -0.1466 -0.6474
   11CHL1   H2B  789   3.714   3.422   5.629  1.6424 -1.7577  4.4763
   11CHL1   C20  790   3.266   2.941   4.905  0.0153 -0.3062  0.6857
   11CHL1   H20  791   3.363   2.904   4.867 -0.6708  0.0659 -1.5263
   11CHL1   C21  792   3.260   3.085   4.844 -0.0798 -0.1365 -0.4086
   11CHL1  H21A  793   3.353   3.143   4.867 -0.5550  0.7723 -0.7026
   11CHL1  H21B  794   3.174   3.139   4.889 -0.8191 -1.4793 -0.1890
   11CHL1  H21C  795   3.243   3.088   4.734 -1.3686 -0.9567 -0.2493
   11CHL1   C22  796   3.145   2.855   4.859  0.5404 -0.4873 -0.0821
   11CHL1  H22A  797   3.175   2.752   4.890 -0.0228 -0.3573  0.9204
   11CHL1  H22B  798   3.060   2.884   4.923  1.1695  1.6288 -0.1284
   11CHL1   C23  799   3.101   2.843   4.710  0.0181 -0.2638 -0.1982
   11CHL1  H23A  800   3.074   2.943   4.669 -2.2516 -0.7839 -0.0902
   11CHL1  H23B  801   3.191   2.804   4.658  0.9014 -0.5523  1.4707
   11CHL1   C24  802   2.983   2.751   4.697  0.1299  0.3230  0.3290
   11CHL1  H24A  803   3.002   2.650   4.739 -0.6486  0.3757  0.8337
   11CHL1  H24B  804   2.903   2.796   4.760 -0.5193 -1.2255  0.6530
   11CHL1   C25  805   2.925   2.736   4.558 -0.0793  0.1387  0.8114
   11CHL1   H25  806   2.905   2.839   4.521 -0.6807 -0.8357 -1.8030
   11CHL1   C26  807   3.026   2.675   4.466  0.7242 -0.8139  0.3074
   11CHL1  H26A  808   3.002   2.699   4.360 -0.0148  0.1016  0.6685
   11CHL1  H26B  809   3.128   2.719   4.468 -0.4895  2.4074 -1.4197
   11CHL1  H26C  810   3.026   2.568   4.495 -1.5207 -0.9184  0.0985
   11CHL1   C27  811   2.792   2.660   4.552  0.2151  0.2552  0.9274
   11CHL1  H27A  812   2.707   2.720   4.590 -0.3232  0.8739 -1.1527
   11CHL1  H27B  813   2.781   2.622   4.448  1.6215 -4.7675  2.3184
   11CHL1  H27C  814   2.803   2.567   4.613  1.8923 -0.3745 -0.2603
   12CHL1    C3  815   5.074   5.212   5.754 -0.2160 -0.0800  0.1911
   12CHL1    H3  816   4.994   5.267   5.700 -0.6505 -0.3030  0.5970
   12CHL1    O3  817   5.115   5.280   5.874  0.1156  0.2062 -0.3654
   12CHL1   H3'  818   5.199   5.243   5.902  1.4003  1.0769 -2.7942
   12CHL1    C4  819   5.007   5.070   5.791  0.8613  0.0766  0.2890
   12CHL1   H4A  820   5.075   5.006   5.851  0.1850  1.0320  2.1521
   12CHL1   H4B  821   4.919   5.107   5.848 -0.3372 -0.4288 -1.1721
   12CHL1    C5  822   4.967   5.005   5.662 -0.4280  0.5560 -0.9176
   12CHL1    C6  823   4.842   4.968   5.631 -0.1307 -0.1024 -0.9095
   12CHL1    H6  824   4.763   4.977   5.707  0.1062  1.5633 -0.8123
   12CHL1    C7  825   4.809   4.891   5.503 -0.0393 -0.4502  0.3887
   12CHL1   H7A  826   4.745   4.805   5.531  0.2110 -0.4919  0.8545
   12CHL1   H7B  827   4.762   4.956   5.426  0.9408  0.3786  0.4593
   12CHL1    C8  828   4.934   4.824   5.439 -0.4413  0.1418  0.8163
   12CHL1    H8  829   4.981   4.743   5.498  2.4615  0.5059 -0.8017
   12CHL1   C14  830   4.901   4.769   5.300 -0.4245  1.0309 -0.1115
   12CHL1   H14  831   4.862   4.853   5.239  1.3602  0.8560 -1.5834
   12CHL1   C15  832   4.791   4.663   5.301 -0.4400  0.8749  0.4114
   12CHL1  H15A  833   4.802   4.590   5.384 -1.4688  0.9146  0.5947
   12CHL1  H15B  834   4.684   4.692   5.312 -1.5556 -2.1096 -1.4026
   12CHL1   C16  835   4.811   4.597   5.167  0.7420  0.6781 -0.0731
   12CHL1  H16A  836   4.814   4.488   5.183 -0.1063  0.6780  0.1155
   12CHL1  H16B  837   4.723   4.611   5.100  1.2618  2.0894 -0.5050
   12CHL1   C17  838   4.943   4.658   5.100 -0.1015  0.3478 -0.6620
   12CHL1   H17  839   4.899   4.743   5.045  1.2349  2.1334  0.9239
   12CHL1   C13  840   5.017   4.714   5.219  0.4540  0.2100 -0.2196
   12CHL1   C18  841   5.086   4.600   5.292  0.6931 -0.6823 -0.1505
   12CHL1  H18A  842   5.130   4.642   5.384 -1.4446  1.5614 -0.0683
   12CHL1  H18B  843   5.008   4.527   5.321  0.6324 -1.0734 -1.2327
   12CHL1  H18C  844   5.163   4.551   5.227  0.6725 -0.0539 -0.6656
   12CHL1   C12  845   5.116   4.837   5.199  0.3036  0.3450  0.4912
   12CHL1  H12A  846   5.207   4.793   5.153  0.5318  0.4949  0.7890
   12CHL1  H12B  847   5.059   4.899   5.127 -0.7306  0.6604  1.5435
   12CHL1   C11  848   5.156   4.906   5.329 -0.4708  0.0575 -0.3004
   12CHL1  H11A  849   5.233   4.842   5.376 -0.1079  0.3192 -0.5262
   12CHL1  H11B  850   5.197   5.008   5.313  0.5311 -0.1533  0.7832
   12CHL1    C9  851   5.039   4.938   5.430  1.2966 -0.3504 -0.4166
   12CHL1    H9  852   4.990   5.028   5.386 -0.2041 -0.8687  0.1278
   12CHL1   C10  853   5.085   4.991   5.564  0.0629 -0.5143 -0.1846
   12CHL1   C19  854   5.192   4.897   5.618  0.4360  0.0332  0.1299
   12CHL1  H19A  855   5.293   4.917   5.577 -0.7902 -0.3454 -3.3774
   12CHL1  H19B  856   5.217   4.906   5.726  2.0481 -0.9651 -0.1373
   12CHL1  H19C  857   5.162   4.792   5.594  1.1242  0.2161 -1.6818
   12CHL1    C1  858   5.158   5.129   5.538 -0.5420  0.4628  0.4395
   12CHL1   H1A  859   5.249   5.114   5.476 -1.3183  1.8960 -1.1519
   12CHL1   H1B  860   5.094   5.197   5.478 -1.0116  0.0600  0.4830
   12CHL1    C2  861   5.195   5.196   5.663 -0.4474 -1.1274  0.1318
   12CHL1   H2A  862   5.247   5.293   5.649 -1.2408 -0.6571  0.3973
   12CHL1   H2B  863   5.268   5.128   5.712 -1.3972 -2.1407  0.1797
   12CHL1   C20  864   5.007   4.551   5.018 -0.4077 -0.4075  0.1555
   12CHL1   H20  865   5.039   4.465   5.080  1.2643 -0.0174 -0.1240
   12CHL1   C21  866   5.128   4.612   4.945 -0.0900 -0.6229 -0.0882
   12CHL1  H21A  867   5.214   4.624   5.014  1.0083 -1.0247 -1.3360
   12CHL1  H21B  868   5.109   4.714   4.907  1.6156 -1.0646 -2.4269
   12CHL1  H21C  869   5.164   4.545   4.863 -1.6620  0.0490 -1.3889
   12CHL1   C22  870   4.925   4.474   4.913 -0.0089  0.0877 -0.4571
   12CHL1  H22A  871   4.990   4.410   4.851  0.0031 -3.0544  2.5239
   12CHL1  H22B  872   4.849   4.416   4.970  1.3837  0.0306  1.4380
   12CHL1   C23  873   4.837   4.561   4.809  0.4881  0.0000  0.1493
   12CHL1  H23A  874   4.773   4.621   4.877  0.1264 -0.2112 -0.0059
   12CHL1  H23B  875   4.903   4.627   4.749  1.5708  0.1490  1.4349
   12CHL1   C24  876   4.753   4.484   4.702  0.2150 -0.2607 -0.0056
   12CHL1  H24A  877   4.727   4.553   4.618 -1.2601  1.0352  1.4481
   12CHL1  H24B  878   4.821   4.410   4.655  1.9098  0.5740  1.0462
   12CHL1   C25  879   4.612   4.444   4.751  0.5240  0.5624 -0.1198
   12CHL1   H25  880   4.624   4.376   4.838 -0.1523 -1.4728 -1.5463
   12CHL1   C26  881   4.525   4.561   4.784  0.4947 -0.2089 -0.0605
   12CHL1  H26A  882   4.571   4.633   4.856  1.9536 -0.7853 -0.3829
   12CHL1  H26B  883   4.500   4.610   4.688  0.3387 -0.7016 -0.2736
   12CHL1  H26C  884   4.426   4.530   4.823  0.5582 -1.4509 -0.8432
   12CHL1   C27  885   4.537   4.349   4.657  0.2719  0.2181  0.6042
   12CHL1  H27A  886   4.509   4.399   4.562 -0.9160 -0.2563  0.6799
   12CHL1  H27B  887   4.595   4.257   4.634  0.0657  0.3808 -0.6403
   12CHL1  H27C  888   4.443   4.318   4.709 -1.0354  2.5332 -0.2231
   13CHL1    C3  889   2.152   1.440   5.973  0.2459  0.2452  0.1274
   13CHL1    H3  890   2.071   1.513   5.952 -1.6025 -1.7546 -0.0724
   13CHL1    O3  891   2.187   1.440   6.111  0.2001  0.0974  0.1400
   13CHL1   H3'  892   2.256   1.507   6.118  0.2668 -0.0706  1.2751
   13CHL1    C4  893   2.107   1.295   5.950  0.0066 -0.2298  0.3120
   13CHL1   H4A  894   2.189   1.222   5.964 -1.9612 -2.5361  0.4803
   13CHL1   H4B  895   2.027   1.255   6.017 -0.6556 -1.1902 -1.0085
   13CHL1    C5  896   2.070   1.295   5.799  0.1049  0.0853 -0.0654
   13CHL1    C6  897   1.944   1.267   5.761  0.1952 -0.1118  0.0807
   13CHL1    H6  898   1.871   1.246   5.841  2.3542 -0.0813  2.2074
   13CHL1    C7  899   1.892   1.260   5.621  0.1932 -0.5231 -0.4064
   13CHL1   H7A  900   1.824   1.174   5.606  0.2105 -0.4633 -0.8554
   13CHL1   H7B  901   1.844   1.358   5.595  1.5966 -0.0061 -1.1885
   13CHL1    C8  902   2.010   1.241   5.518  0.0104 -0.1419  0.1842
   13CHL1    H8  903   2.058   1.141   5.528  0.4146  0.0900  0.5877
   13CHL1   C14  904   1.949   1.261   5.382  0.2802  0.0208 -0.2350
   13CHL1   H14  905   1.906   1.363   5.377  0.8580  0.3242  0.8310
   13CHL1   C15  906   1.829   1.176   5.331 -1.0585 -0.6851  0.0495
   13CHL1  H15A  907   1.862   1.070   5.328  0.1533 -0.3105 -1.9299
   13CHL1  H15B  908   1.737   1.177   5.394 -2.6923 -1.0595 -2.1629
   13CHL1   C16  909   1.819   1.218   5.181 -0.2065  0.3439 -0.7883
   13CHL1  H16A  910   1.782   1.134   5.118  1.0724  0.8661 -2.2994
   13CHL1  H16B  911   1.733   1.288   5.175 -0.3278  0.0977 -2.1344
   13CHL1   C17  912   1.955   1.284   5.147  0.4177  0.4883  0.7471
   13CHL1   H17  913   1.941   1.394   5.152 -0.4589  0.4458 -0.3286
   13CHL1   C13  914   2.050   1.251   5.264 -0.7832 -0.1667  0.1748
   13CHL1   C18  915   2.113   1.109   5.252  0.5579  0.2413 -0.3501
   13CHL1  H18A  916   2.173   1.089   5.343  0.2948 -1.6670 -0.5361
   13CHL1  H18B  917   2.046   1.020   5.258  3.0518 -1.7480  0.1109
   13CHL1  H18C  918   2.182   1.094   5.166  0.3515  0.9673 -0.6453
   13CHL1   C12  919   2.165   1.351   5.294 -0.8542 -0.3199  0.0471
   13CHL1  H12A  920   2.244   1.346   5.217 -1.2107 -1.5417 -0.2748
   13CHL1  H12B  921   2.125   1.451   5.269  0.3929  0.1435 -0.1505
   13CHL1   C11  922   2.229   1.352   5.444 -0.4455  0.1667  0.0464
   13CHL1  H11A  923   2.304   1.270   5.441 -0.2454  0.1794  2.4882
   13CHL1  H11B  924   2.288   1.445   5.464  3.2899 -1.5562 -1.8825
   13CHL1    C9  925   2.122   1.342   5.554 -0.0836 -0.6091  0.6200
   13CHL1    H9  926   2.075   1.442   5.543  1.7088  0.0801 -1.3727
   13CHL1   C10  927   2.182   1.328   5.699  0.2563  0.0837  0.0497
   13CHL1   C19  928   2.291   1.217   5.699 -0.3652 -0.2448  0.5904
   13CHL1  H19A  929   2.380   1.247   5.640 -0.3815  0.0868  0.7355
   13CHL1  H19B  930   2.334   1.194   5.799  3.1165 -3.5303 -1.3808
   13CHL1  H19C  931   2.257   1.120   5.657  1.1984 -0.9748  0.9253
   13CHL1    C1  932   2.238   1.464   5.739 -0.2132  0.0675  0.1506
   13CHL1   H1A  933   2.333   1.494   5.691 -0.0898  0.6830  0.7666
   13CHL1   H1B  934   2.161   1.541   5.720 -0.7555 -1.0222 -2.4791
   13CHL1    C2  935   2.281   1.469   5.889 -0.1184  0.1168  0.0544
   13CHL1   H2A  936   2.312   1.574   5.912  3.1432 -0.9569  1.3026
   13CHL1   H2B  937   2.359   1.399   5.926 -0.9025 -1.1190 -0.5897
   13CHL1   C20  938   2.012   1.251   5.010 -0.4384 -0.1365 -0.0446
   13CHL1   H20  939   2.065   1.154   5.008 -0.0447  0.0870 -1.7424
   13CHL1   C21  940   2.124   1.352   4.974 -0.2933 -0.4190 -0.3912
   13CHL1  H21A  941   2.220   1.322   5.021  1.0250  0.3547 -2.4564
   13CHL1  H21B  942   2.102   1.457   5.002  0.3302  0.0104 -1.4541
   13CHL1  H21C  943   2.156   1.359   4.868  1.7589 -0.7407  0.1723
   13CHL1   C22  944   1.913   1.245   4.895 -0.0564 -0.2413 -0.0177
   13CHL1  H22A  945   1.971   1.226   4.802 -0.4853  0.7557 -0.5114
   13CHL1  H22B  946   1.842   1.161   4.910  0.1666 -0.3981  0.1617
   13CHL1   C23  947   1.832   1.375   4.866 -0.1665  0.5402 -0.3196
   13CHL1  H23A  948   1.761   1.399   4.948 -0.9041  1.4323 -1.1925
   13CHL1  H23B  949   1.906   1.458   4.863  0.5556 -0.0507  0.3884
   13CHL1   C24  950   1.759   1.361   4.727  0.6851  0.0370  0.6212
   13CHL1  H24A  951   1.828   1.302   4.663 -0.5205 -0.0976 -0.6079
   13CHL1  H24B  952   1.671   1.296   4.747  1.5844 -1.7677 -1.0019
   13CHL1   C25  953   1.713   1.488   4.649 -0.6630  0.3443 -0.5087
   13CHL1   H25  954   1.648   1.562   4.702 -2.2964  1.4121 -3.6898
   13CHL1   C26  955   1.830   1.563   4.600 -0.1066  0.4603 -0.1005
   13CHL1  H26A  956   1.860   1.537   4.497 -0.6681  1.0063 -0.4115
   13CHL1  H26B  957   1.822   1.674   4.597  0.6690  0.5447  0.5024
   13CHL1  H26C  958   1.917   1.550   4.667  1.0822 -4.0567 -2.1708
   13CHL1   C27  959   1.618   1.442   4.534 -0.0993 -0.0886 -0.7193
   13CHL1  H27A  960   1.670   1.358   4.482  0.2806  0.5216 -1.3350
   13CHL1  H27B  961   1.515   1.422   4.570  0.0127 -1.9040 -1.2805
   13CHL1  H27C  962   1.608   1.523   4.459  0.8782  0.4280 -0.3205
   14CHL1    C3  963   0.552   1.091   5.599 -0.2862  0.5403  0.0970
   14CHL1    H3  964   0.575   1.197   5.572  1.5397 -0.1462 -1.2181
   14CHL1    O3  965   0.529   1.087   5.740 -0.1244 -0.3770 -0.4524
   14CHL1   H3'  966   0.434   1.085   5.748 -0.1792  0.8575 -0.5657
   14CHL1    C4  967   0.438   1.025   5.530 -0.0273 -1.2166  0.1613
   14CHL1   H4A  968   0.418   0.921   5.562 -0.8111 -2.1585 -3.0605
   14CHL1   H4B  969   0.345   1.080   5.559 -0.3777 -0.9034 -1.4427
   14CHL1    C5  970   0.457   1.035   5.381  0.0058 -0.9924  0.3043
   14CHL1    C6  971   0.363   1.095   5.305 -0.4086 -0.0142  0.4703
   14CHL1    H6  972   0.275   1.141   5.352 -0.9883 -1.1530  0.5295
   14CHL1    C7  973   0.369   1.107   5.154  0.6147 -0.1547 -0.0425
   14CHL1   H7A  974   0.275   1.074   5.104  0.8650 -0.3579 -0.3790
   14CHL1   H7B  975   0.378   1.216   5.139 -3.2363  0.4835  1.2039
   14CHL1    C8  976   0.485   1.017   5.100 -0.3751  0.1063  0.6629
   14CHL1    H8  977   0.463   0.908   5.101 -1.4765  0.2915 -0.5729
   14CHL1   C14  978   0.511   1.070   4.964  0.0973  0.1449  0.1451
   14CHL1   H14  979   0.535   1.178   4.977 -1.4467  0.4833  0.3908
   14CHL1   C15  980   0.394   1.091   4.860  0.1208  0.0008 -0.0392
   14CHL1  H15A  981   0.336   0.996   4.863 -0.7619  0.4974 -0.6221
   14CHL1  H15B  982   0.334   1.174   4.903  1.4563 -0.3394  2.6903
   14CHL1   C16  983   0.462   1.105   4.721 -0.7370 -0.2677  0.1501
   14CHL1  H16A  984   0.407   1.036   4.652  0.6765 -0.6627 -0.6140
   14CHL1  H16B  985   0.447   1.212   4.694  1.7963  0.5436  1.6505
   14CHL1   C17  986   0.619   1.079   4.752  0.7855 -0.1392  0.1551
   14CHL1   H17  987   0.652   1.178   4.790  0.1236  0.4904 -0.8731
   14CHL1   C13  988   0.622   1.000   4.884 -0.3532  0.6639 -0.7178
   14CHL1   C18  989   0.592   0.852   4.853  0.5146  0.2039  0.7680
   14CHL1  H18A  990   0.509   0.840   4.780 -0.3846  0.0394  1.7990
   14CHL1  H18B  991   0.681   0.799   4.815 -0.7002 -0.5203 -1.2083
   14CHL1  H18C  992   0.558   0.794   4.941 -1.4872 -1.0449 -0.7393
   14CHL1   C12  993   0.753   1.015   4.962 -0.5176  0.2777 -0.7362
   14CHL1  H12A  994   0.837   0.965   4.907 -0.3725 -0.2674 -0.0392
   14CHL1  H12B  995   0.771   1.124   4.974  2.7691  0.0671 -2.4752
   14CHL1   C11  996   0.740   0.968   5.109 -0.2180 -0.3160 -0.0364
   14CHL1  H11A  997   0.737   0.858   5.093  1.8604 -0.3789 -0.3195
   14CHL1  H11B  998   0.835   0.995   5.160  0.4205  2.6008 -2.4718
   14CHL1    C9  999   0.614   1.030   5.180 -0.2302 -0.2454  0.1331
   14CHL1    H9 1000   0.632   1.140   5.181  1.6432 -0.4986 -0.5587
   14CHL1   C10 1001   0.591   0.984   5.329 -0.3836 -0.9825 -0.0962
   14CHL1   C19 1002   0.589   0.836   5.340 -0.4298  0.2658  0.4278
   14CHL1  H19A 1003   0.570   0.803   5.445 -1.1316 -2.2611 -0.4197
   14CHL1  H19B 1004   0.518   0.778   5.277 -1.1500  1.1768  0.3742
   14CHL1  H19C 1005   0.690   0.798   5.316  0.6462  2.9596  0.3268
   14CHL1    C1 1006   0.709   1.038   5.420  0.6002  1.0887  0.5789
   14CHL1   H1A 1007   0.807   1.003   5.380 -1.1102 -2.5715 -0.9050
   14CHL1   H1B 1008   0.712   1.147   5.401 -3.0071  1.0090 -1.3536
   14CHL1    C2 1009   0.688   1.031   5.570  0.0156 -0.2518  0.4955
   14CHL1   H2A 1010   0.770   1.088   5.620  0.9053  1.8484 -3.0000
   14CHL1   H2B 1011   0.675   0.925   5.600 -1.2261 -0.2064  0.1468
   14CHL1   C20 1012   0.705   1.049   4.634 -0.1206 -0.1653 -0.2121
   14CHL1   H20 1013   0.782   0.975   4.666  0.0391  0.5610  1.1373
   14CHL1   C21 1014   0.777   1.179   4.589 -0.4061  0.0925  0.0535
   14CHL1  H21A 1015   0.853   1.204   4.666  0.9168 -0.0990 -1.1544
   14CHL1  H21B 1016   0.699   1.257   4.577 -1.5007 -1.4401 -6.6156
   14CHL1  H21C 1017   0.827   1.168   4.490 -1.3146 -1.7716 -0.2379
   14CHL1   C22 1018   0.625   0.990   4.516 -0.2176 -1.2033 -0.2070
   14CHL1  H22A 1019   0.549   0.914   4.543 -0.1624 -2.1300 -2.4850
   14CHL1  H22B 1020   0.584   1.077   4.461  0.0214 -1.4699 -0.8169
   14CHL1   C23 1021   0.715   0.910   4.429 -0.8229  0.0341  0.9136
   14CHL1  H23A 1022   0.796   0.980   4.403 -0.1779  0.4834  3.8045
   14CHL1  H23B 1023   0.766   0.823   4.475 -0.7809 -0.6934 -0.4461
   14CHL1   C24 1024   0.650   0.875   4.296 -0.2130  0.7669 -0.3878
   14CHL1  H24A 1025   0.555   0.825   4.326  0.5107 -0.8287 -0.6579
   14CHL1  H24B 1026   0.624   0.964   4.235 -1.9191  1.8969  1.8275
   14CHL1   C25 1027   0.736   0.779   4.216 -1.2562 -0.0725 -0.3099
   14CHL1   H25 1028   0.755   0.682   4.267  2.0416  0.1505 -0.8574
   14CHL1   C26 1029   0.668   0.743   4.083 -0.5479  0.6964  0.9830
   14CHL1  H26A 1030   0.741   0.694   4.015 -0.9627  1.8602 -0.3528
   14CHL1  H26B 1031   0.581   0.676   4.097  0.1705 -0.8313 -1.3303
   14CHL1  H26C 1032   0.633   0.834   4.030 -0.9598  0.3477  0.6480
   14CHL1   C27 1033   0.882   0.826   4.192  0.5545 -0.0095 -0.2698
   14CHL1  H27A 1034   0.941   0.735   4.169 -1.8653 -1.7854  0.1084
   14CHL1  H27B 1035   0.892   0.898   4.108  0.5471  2.2618  1.5527
   14CHL1  H27C 1036   0.924   0.871   4.285 -2.3539  1.1058  0.6297
   15CHL1    C3 1037   0.240   0.537   5.538 -0.4762 -0.1510  0.5234
   15CHL1    H3 1038   0.339   0.502   5.501 -0.8636  1.0340 -1.8701
   15CHL1    O3 1039   0.241   0.569   5.672 -0.6940 -0.0876  0.0369
   15CHL1   H3' 1040   0.253   0.483   5.713 -0.0195 -0.2206 -0.4121
   15CHL1    C4 1041   0.201   0.657   5.456  0.4590  0.5037 -0.2273
   15CHL1   H4A 1042   0.097   0.689   5.482  0.7675  2.2828 -1.0223
   15CHL1   H4B 1043   0.274   0.737   5.479  0.2109  0.4128  0.9281
   15CHL1    C5 1044   0.187   0.639   5.307  0.1070 -0.2179 -0.0640
   15CHL1    C6 1045   0.257   0.723   5.224  1.0052  0.2666 -0.2560
   15CHL1    H6 1046   0.310   0.813   5.259  0.2714  0.7952 -0.4800
   15CHL1    C7 1047   0.246   0.708   5.074  0.4165  0.1923 -0.4012
   15CHL1   H7A 1048   0.210   0.797   5.018  2.6818  2.1953  1.1483
   15CHL1   H7B 1049   0.347   0.685   5.033  0.3248  0.8797 -1.0368
   15CHL1    C8 1050   0.151   0.593   5.025  0.1779  0.2520  0.0436
   15CHL1    H8 1051   0.047   0.631   5.032 -0.0489 -0.2770 -0.3294
   15CHL1   C14 1052   0.174   0.559   4.878  0.2711  0.3565  0.4400
   15CHL1   H14 1053   0.282   0.532   4.872  1.1242  3.1022  1.6547
   15CHL1   C15 1054   0.168   0.681   4.777 -0.2297  0.6135 -0.1922
   15CHL1  H15A 1055   0.075   0.739   4.794 -2.1325 -1.9533 -1.1111
   15CHL1  H15B 1056   0.258   0.745   4.781  0.3453 -0.2471  2.2318
   15CHL1   C16 1057   0.159   0.607   4.641 -0.7360  0.3838 -0.1129
   15CHL1  H16A 1058   0.077   0.657   4.585 -1.6382 -2.1999 -1.2369
   15CHL1  H16B 1059   0.250   0.612   4.577 -0.5949 -2.5660 -0.2444
   15CHL1   C17 1060   0.132   0.451   4.670 -0.6569  0.2635 -0.2354
   15CHL1   H17 1061   0.226   0.392   4.664  0.2357  1.5942  0.2437
   15CHL1   C13 1062   0.084   0.453   4.819 -0.0368 -0.2437  0.3574
   15CHL1   C18 1063  -0.068   0.502   4.830 -0.3256  0.4156  0.1725
   15CHL1  H18A 1064  -0.089   0.602   4.787 -0.7044 -0.1217 -0.9247
   15CHL1  H18B 1065  -0.141   0.436   4.778 -2.4757  3.4830 -0.9833
   15CHL1  H18C 1066  -0.087   0.493   4.939 -2.2029 -2.8720 -0.2998
   15CHL1   C12 1067   0.108   0.328   4.906  0.6832  0.0706  0.1143
   15CHL1  H12A 1068   0.028   0.259   4.872 -1.0684  0.3072  3.4390
   15CHL1  H12B 1069   0.213   0.293   4.894  1.4834  2.7236 -1.8862
   15CHL1   C11 1070   0.089   0.351   5.063 -0.0751 -0.1473  0.7680
   15CHL1  H11A 1071  -0.021   0.357   5.075 -0.0701  2.3668  0.0597
   15CHL1  H11B 1072   0.125   0.260   5.115 -1.6572 -2.4296 -1.8216
   15CHL1    C9 1073   0.158   0.474   5.117 -0.1684  0.3890 -0.1793
   15CHL1    H9 1074   0.266   0.449   5.123 -0.3364 -0.3241 -0.0098
   15CHL1   C10 1075   0.115   0.517   5.264  0.9236  0.5247 -0.5544
   15CHL1   C19 1076  -0.039   0.545   5.266  0.1673 -0.4608 -0.5229
   15CHL1  H19A 1077  -0.073   0.568   5.370 -0.7893  0.2320 -0.9725
   15CHL1  H19B 1078  -0.058   0.643   5.217  0.3648  1.3603  2.7225
   15CHL1  H19C 1079  -0.103   0.467   5.221 -1.8231  1.6551 -1.5357
   15CHL1    C1 1080   0.146   0.399   5.354  0.6008  1.1121  0.3184
   15CHL1   H1A 1081   0.064   0.328   5.330 -0.4712  2.8326 -1.3707
   15CHL1   H1B 1082   0.240   0.341   5.338 -0.6904 -0.7648 -0.8588
   15CHL1    C2 1083   0.143   0.425   5.508 -0.9510  0.3600 -0.1576
   15CHL1   H2A 1084   0.158   0.332   5.568 -0.8199  1.2659  1.2718
   15CHL1   H2B 1085   0.046   0.460   5.548  0.5731  1.7773  2.5710
   15CHL1   C20 1086   0.033   0.384   4.574 -0.4031 -0.2788 -0.4250
   15CHL1   H20 1087  -0.060   0.445   4.575  0.1160  0.5324 -0.7489
   15CHL1   C21 1088   0.008   0.232   4.607 -0.1418  0.4971 -0.3572
   15CHL1  H21A 1089  -0.018   0.181   4.511  0.5225 -1.0990  0.2675
   15CHL1  H21B 1090  -0.076   0.215   4.677 -0.4649 -0.8110 -1.0210
   15CHL1  H21C 1091   0.099   0.184   4.650 -1.3590 -1.5625  0.0724
   15CHL1   C22 1092   0.081   0.395   4.427  0.1046 -0.2603 -0.1203
   15CHL1  H22A 1093   0.014   0.340   4.357  2.2696 -1.9702 -0.9638
   15CHL1  H22B 1094   0.067   0.503   4.403  0.5794 -0.0322  0.6194
   15CHL1   C23 1095   0.220   0.349   4.388 -0.4623  0.0280 -1.0017
   15CHL1  H23A 1096   0.289   0.406   4.453  0.3390 -1.1707 -0.7641
   15CHL1  H23B 1097   0.234   0.242   4.416 -0.4488 -0.7030 -3.5149
   15CHL1   C24 1098   0.259   0.360   4.236  0.0833 -0.0372 -0.8470
   15CHL1  H24A 1099   0.358   0.311   4.223 -0.1157 -0.9952  0.8873
   15CHL1  H24B 1100   0.186   0.294   4.183  0.8573 -1.3726 -0.3195
   15CHL1   C25 1101   0.255   0.505   4.183 -0.4461 -0.3312  0.1042
   15CHL1   H25 1102   0.150   0.540   4.187 -0.3286 -0.0539  1.2345
   15CHL1   C26 1103   0.345   0.589   4.275 -0.1791 -0.3609  0.0050
   15CHL1  H26A 1104   0.284   0.651   4.344 -0.1471  0.1652 -0.4264
   15CHL1  H26B 1105   0.403   0.512   4.330 -0.2659  1.4411  2.7922
   15CHL1  H26C 1106   0.413   0.662   4.226  0.5720  2.5717  4.7787
   15CHL1   C27 1107   0.313   0.507   4.033 -0.0378  0.0614 -0.0776
   15CHL1  H27A 1108   0.308   0.609   3.988 -0.6045  1.0268  2.0428
   15CHL1  H27B 1109   0.421   0.486   4.027  0.9833  4.3298 -0.2056
   15CHL1  H27C 1110   0.251   0.437   3.972 -1.5698  1.1219  0.1814
   16CHL1    C3 1111   5.996   6.478   5.881 -1.0751 -0.0626  0.0289
   16CHL1    H3 1112   5.934   6.402   5.829 -0.1698 -0.9012  0.1359
   16CHL1    O3 1113   5.975   6.473   6.025  0.0001  0.3087  0.0567
   16CHL1   H3' 1114   5.883   6.490   6.046  0.3330 -0.6519  2.5800
   16CHL1    C4 1115   6.145   6.452   5.851 -0.6169 -0.0633 -1.3886
   16CHL1   H4A 1116   6.205   6.523   5.912 -2.1435 -1.6604  2.2606
   16CHL1   H4B 1117   6.179   6.357   5.897 -0.3689  1.6213  2.3482
   16CHL1    C5 1118   6.184   6.443   5.709 -0.7644  0.0961 -0.0389
   16CHL1    C6 1119   6.239   6.340   5.649 -0.7087 -0.0118  0.5964
   16CHL1    H6 1120   6.268   6.253   5.710 -0.5628 -0.7487 -0.4931
   16CHL1    C7 1121   6.284   6.344   5.504 -0.1497  1.1328 -1.2531
   16CHL1   H7A 1122   6.387   6.302   5.493 -1.1314 -1.7276 -0.4647
   16CHL1   H7B 1123   6.208   6.286   5.447 -1.5543 -0.1443  1.6701
   16CHL1    C8 1124   6.270   6.489   5.437 -0.3499  0.6597  0.5228
   16CHL1    H8 1125   6.364   6.541   5.464  1.3620 -1.4538 -1.0171
   16CHL1   C14 1126   6.262   6.475   5.279  0.8785  0.6457 -0.0740
   16CHL1   H14 1127   6.167   6.418   5.273  0.5898  1.1762 -0.5815
   16CHL1   C15 1128   6.358   6.388   5.201  0.1361  0.5324 -0.2756
   16CHL1  H15A 1129   6.457   6.408   5.248 -0.0416  0.3036  0.2106
   16CHL1  H15B 1130   6.331   6.281   5.213 -2.3368  0.5774 -3.9395
   16CHL1   C16 1131   6.351   6.435   5.054 -0.4903  0.2769  0.4267
   16CHL1  H16A 1132   6.445   6.478   5.013 -0.3818 -1.6254 -1.5062
   16CHL1  H16B 1133   6.328   6.358   4.977 -0.7312  0.7468  0.0206
   16CHL1   C17 1134   6.239   6.543   5.058 -0.4458  0.6674  0.2230
   16CHL1   H17 1135   6.145   6.486   5.044 -0.9013  1.1560  1.2521
   16CHL1   C13 1136   6.233   6.600   5.197 -1.0545  0.8282  0.5580
   16CHL1   C18 1137   6.360   6.685   5.217  0.0936 -0.1819 -0.7372
   16CHL1  H18A 1138   6.344   6.783   5.167  0.4300  0.4467  0.3625
   16CHL1  H18B 1139   6.377   6.696   5.326  0.4776 -0.8464 -0.7230
   16CHL1  H18C 1140   6.451   6.635   5.179 -0.5898 -1.0802 -1.2507
   16CHL1   C12 1141   6.104   6.656   5.254  0.6552 -0.4474 -0.9399
   16CHL1  H12A 1142   6.064   6.754   5.219 -1.2938 -0.0143  2.0612
   16CHL1  H12B 1143   6.018   6.591   5.228  0.1479 -0.7467  1.2842
   16CHL1   C11 1144   6.117   6.683   5.410  0.0470 -0.0064 -0.0536
   16CHL1  H11A 1145   6.191   6.765   5.422 -1.9373  2.0456 -1.1365
   16CHL1  H11B 1146   6.014   6.711   5.441 -0.4884 -2.5310  0.6639
   16CHL1    C9 1147   6.146   6.558   5.484 -0.4082 -0.9981  0.4150
   16CHL1    H9 1148   6.066   6.487   5.456 -0.2735 -1.8703  2.1204
   16CHL1   C10 1149   6.139   6.578   5.636 -0.3821 -0.2548 -0.2895
   16CHL1   C19 1150   6.242   6.682   5.678 -0.1691  0.3973 -0.4100
   16CHL1  H19A 1151   6.348   6.658   5.658  0.1033  1.9578 -0.9315
   16CHL1  H19B 1152   6.214   6.776   5.625 -2.7330  0.4728  0.8995
   16CHL1  H19C 1153   6.231   6.696   5.788  2.3039 -2.3303  0.3054
   16CHL1    C1 1154   6.000   6.631   5.683  0.0508  0.5438 -0.4469
   16CHL1   H1A 1155   5.982   6.736   5.650  1.5523  1.6082  1.8444
   16CHL1   H1B 1156   5.931   6.558   5.636  2.3568 -1.9346 -0.2054
   16CHL1    C2 1157   5.967   6.620   5.834  0.3156  0.5260  0.1707
   16CHL1   H2A 1158   5.860   6.633   5.859  0.1305  1.3340 -0.9593
   16CHL1   H2B 1159   6.023   6.693   5.897  2.1308 -0.4575 -0.2113
   16CHL1   C20 1160   6.255   6.643   4.935  0.5085 -0.5024  0.1436
   16CHL1   H20 1161   6.352   6.697   4.947  1.0226 -0.9878 -1.5519
   16CHL1   C21 1162   6.149   6.750   4.938 -0.0130  0.0790  0.0956
   16CHL1  H21A 1163   6.173   6.832   4.867  0.1998 -0.1813 -0.1304
   16CHL1  H21B 1164   6.144   6.798   5.038 -1.7804 -0.9863  0.5715
   16CHL1  H21C 1165   6.043   6.724   4.914 -0.3425  1.2007  0.2472
   16CHL1   C22 1166   6.265   6.566   4.795 -0.1055 -0.0059 -0.1807
   16CHL1  H22A 1167   6.291   6.646   4.723 -0.7428  2.1793  1.8776
   16CHL1  H22B 1168   6.350   6.494   4.799 -0.4090 -0.3251  0.7455
   16CHL1   C23 1169   6.136   6.485   4.763 -0.4462  0.6405  0.3490
   16CHL1  H23A 1170   6.149   6.395   4.826  2.1882  2.0858  2.0293
   16CHL1  H23B 1171   6.044   6.543   4.785  1.6220  2.9851  3.6905
   16CHL1   C24 1172   6.141   6.433   4.617  0.5336 -0.0118  0.1819
   16CHL1  H24A 1173   6.244   6.395   4.604  0.5128  0.4134 -1.4926
   16CHL1  H24B 1174   6.066   6.356   4.589  1.5356 -1.0321  0.2132
   16CHL1   C25 1175   6.129   6.541   4.512 -0.1054  0.2645  0.1676
   16CHL1   H25 1176   6.088   6.628   4.569  1.1572 -1.0534  3.2976
   16CHL1   C26 1177   6.267   6.571   4.444 -0.4789  0.3436 -0.3594
   16CHL1  H26A 1178   6.319   6.479   4.411  0.7198  1.0172 -0.4072
   16CHL1  H26B 1179   6.265   6.632   4.350 -0.5874 -0.1521 -0.6826
   16CHL1  H26C 1180   6.337   6.622   4.513  3.2091 -2.5234 -1.6444
   16CHL1   C27 1181   6.035   6.500   4.393 -0.2983 -0.1623  0.0023
   16CHL1  H27A 1182   6.041   6.576   4.313 -1.5094  0.2851  0.3135
   16CHL1  H27B 1183   6.072   6.407   4.345  0.2281  1.7151 -3.5235
   16CHL1  H27C 1184   5.931   6.481   4.426  0.5085 -2.5847  1.3905
   17CHL1    C3 1185   2.205   3.119   6.163  0.5409  0.4995  0.2275
   17CHL1    H3 1186   2.105   3.075   6.184 -0.2147  3.3077  3.2639
   17CHL1    O3 1187   2.249   3.164   6.288  0.1219 -0.0755 -0.3015
   17CHL1   H3' 1188   2.184   3.130   6.349 -0.5917  1.8694  0.0855
   17CHL1    C4 1189   2.303   3.021   6.102 -0.0686 -0.1584  0.1607
   17CHL1   H4A 1190   2.404   3.066   6.087 -0.9605  1.4289 -1.4197
   17CHL1   H4B 1191   2.318   2.940   6.176  0.5954 -1.4197 -1.3030
   17CHL1    C5 1192   2.255   2.972   5.965  0.1067 -0.5242 -0.6136
   17CHL1    C6 1193   2.244   2.837   5.949 -0.0431 -0.1896  0.2726
   17CHL1    H6 1194   2.273   2.775   6.035 -0.5639  1.4303  1.6835
   17CHL1    C7 1195   2.185   2.783   5.818 -0.1922 -0.7125  0.6778
   17CHL1   H7A 1196   2.225   2.682   5.796  0.1895  0.1141 -2.9770
   17CHL1   H7B 1197   2.075   2.779   5.827 -0.3888  1.9082  0.3132
   17CHL1    C8 1198   2.211   2.879   5.696  0.1669  0.4793 -0.6803
   17CHL1    H8 1199   2.320   2.885   5.677  0.2076  1.5798 -0.1923
   17CHL1   C14 1200   2.132   2.842   5.572  0.2495  0.1286 -0.5193
   17CHL1   H14 1201   2.022   2.841   5.590  0.4926 -0.0476  1.0720
   17CHL1   C15 1202   2.153   2.698   5.527  0.0931  0.6146  0.2892
   17CHL1  H15A 1203   2.254   2.662   5.557 -0.6600 -2.5685 -0.5372
   17CHL1  H15B 1204   2.078   2.635   5.581 -0.5199 -0.5699 -1.8399
   17CHL1   C16 1205   2.126   2.697   5.378  0.3210  0.4166 -0.0059
   17CHL1  H16A 1206   2.222   2.669   5.329 -1.1317 -2.4315 -1.4876
   17CHL1  H16B 1207   2.047   2.627   5.343  0.3131  0.9004 -0.9790
   17CHL1   C17 1208   2.087   2.847   5.346  0.8905  0.5282  0.2129
   17CHL1   H17 1209   1.979   2.857   5.370 -0.1399 -3.9218 -1.6459
   17CHL1   C13 1210   2.160   2.924   5.451 -0.4859 -0.0180 -0.4852
   17CHL1   C18 1211   2.306   2.926   5.407  0.0638 -0.6355  0.2250
   17CHL1  H18A 1212   2.370   2.965   5.490  0.9402  0.3844 -0.8733
   17CHL1  H18B 1213   2.358   2.830   5.392  1.8472  0.6536 -2.7151
   17CHL1  H18C 1214   2.333   2.992   5.322  2.4331 -1.6654  0.0977
   17CHL1   C12 1215   2.100   3.062   5.478  0.1871 -0.2167 -0.4027
   17CHL1  H12A 1216   2.106   3.135   5.395  0.0952  1.3234  0.8897
   17CHL1  H12B 1217   1.990   3.051   5.490  0.0204  1.5969  0.0918
   17CHL1   C11 1218   2.168   3.121   5.607  0.0152  0.2786 -0.4537
   17CHL1  H11A 1219   2.273   3.151   5.584  0.3883 -0.0692  0.7092
   17CHL1  H11B 1220   2.111   3.211   5.638  1.4014  0.9616  0.2536
   17CHL1    C9 1221   2.162   3.022   5.729  0.1500 -0.9612  0.5313
   17CHL1    H9 1222   2.054   3.017   5.753 -0.0282  0.7005  0.2225
   17CHL1   C10 1223   2.229   3.078   5.856  0.1721  0.6373 -0.5541
   17CHL1   C19 1224   2.366   3.141   5.818  1.4093 -0.0462 -0.3852
   17CHL1  H19A 1225   2.345   3.239   5.770 -2.5971  0.6310  2.2891
   17CHL1  H19B 1226   2.428   3.171   5.906  1.7278  3.0752 -1.5466
   17CHL1  H19C 1227   2.420   3.069   5.754 -0.9168 -3.4709  1.2539
   17CHL1    C1 1228   2.138   3.183   5.923 -0.4968 -0.2910 -0.6472
   17CHL1   H1A 1229   2.130   3.277   5.863  1.2393  1.2172  1.3303
   17CHL1   H1B 1230   2.036   3.142   5.932 -1.9677  2.9019 -1.2825
   17CHL1    C2 1231   2.175   3.235   6.062 -0.1733 -0.4898 -0.1951
   17CHL1   H2A 1232   2.094   3.298   6.105  0.6226 -0.3856  1.2196
   17CHL1   H2B 1233   2.274   3.286   6.059  0.5676 -1.9075 -1.0983
   17CHL1   C20 1234   2.097   2.888   5.198 -0.4163 -0.3276  0.3873
   17CHL1   H20 1235   2.197   2.927   5.170 -1.6039  2.6574 -0.0947
   17CHL1   C21 1236   1.996   3.005   5.161 -0.1936 -0.1094  0.3057
   17CHL1  H21A 1237   2.003   3.094   5.227 -2.4331 -0.1366  0.6576
   17CHL1  H21B 1238   1.894   2.963   5.148 -0.1447  0.0034 -0.5078
   17CHL1  H21C 1239   2.036   3.042   5.064  1.8554 -0.3402  1.0342
   17CHL1   C22 1240   2.069   2.772   5.099 -0.3292 -0.2506 -0.2577
   17CHL1  H22A 1241   2.154   2.701   5.100 -0.8744 -0.9072 -0.3782
   17CHL1  H22B 1242   1.973   2.722   5.126 -0.7968  0.6154 -0.2608
   17CHL1   C23 1243   2.061   2.812   4.947  0.5388  0.3862 -1.0076
   17CHL1  H23A 1244   1.982   2.887   4.928  1.7694  2.0356  0.1467
   17CHL1  H23B 1245   2.162   2.856   4.933  1.1292 -0.6371 -0.1568
   17CHL1   C24 1246   2.029   2.686   4.872 -0.2294 -0.7358 -0.4628
   17CHL1  H24A 1247   2.123   2.628   4.881  0.1905 -0.0438 -0.3887
   17CHL1  H24B 1248   1.946   2.623   4.911 -2.2553  1.1113 -1.5744
   17CHL1   C25 1249   1.979   2.704   4.726 -0.5050 -0.5458 -0.2290
   17CHL1   H25 1250   2.059   2.756   4.670 -1.0744 -0.3188 -0.8446
   17CHL1   C26 1251   1.946   2.563   4.663 -0.2480 -0.1809 -0.4325
   17CHL1  H26A 1252   2.034   2.496   4.666 -0.7168 -0.7754  0.9442
   17CHL1  H26B 1253   1.878   2.509   4.733  1.1341 -1.4401 -0.0234
   17CHL1  H26C 1254   1.912   2.565   4.557  2.0768  3.2233 -1.2732
   17CHL1   C27 1255   1.850   2.781   4.711  0.7001  0.1881  0.9670
   17CHL1  H27A 1256   1.835   2.800   4.602 -0.7513 -0.7681  0.9763
   17CHL1  H27B 1257   1.765   2.725   4.754 -0.6836  1.3965 -0.0901
   17CHL1  H27C 1258   1.855   2.877   4.768 -0.2180  0.8317  0.0064
   18CHL1    C3 1259   4.409   3.890   5.924  0.2310  0.3314  0.6504
   18CHL1    H3 1260   4.395   4.000   5.913  0.8086  0.3526 -0.0361
   18CHL1    O3 1261   4.428   3.870   6.064  0.0359 -0.7328  0.1062
   18CHL1   H3' 1262   4.451   3.777   6.073 -1.1967 -1.0939 -0.1547
   18CHL1    C4 1263   4.302   3.799   5.869 -0.0970 -0.3726 -0.6245
   18CHL1   H4A 1264   4.321   3.693   5.896 -1.8518 -0.5338  0.1569
   18CHL1   H4B 1265   4.206   3.828   5.917 -0.0591  0.9740 -1.3149
   18CHL1    C5 1266   4.284   3.819   5.716  0.0432  0.5270  0.2366
   18CHL1    C6 1267   4.167   3.866   5.673 -0.4611  0.4767  0.2427
   18CHL1    H6 1268   4.078   3.873   5.737 -2.7244  0.8129 -2.7106
   18CHL1    C7 1269   4.140   3.904   5.528  0.3847  0.0147 -0.1135
   18CHL1   H7A 1270   4.035   3.873   5.512  0.9689 -1.2345 -1.8149
   18CHL1   H7B 1271   4.130   4.010   5.496 -0.1577 -0.2724 -0.9236
   18CHL1    C8 1272   4.238   3.834   5.430 -0.0546  0.0960  0.0212
   18CHL1    H8 1273   4.224   3.724   5.436  3.2334 -0.3510  2.0127
   18CHL1   C14 1274   4.230   3.901   5.289 -0.2133  0.0999  0.1155
   18CHL1   H14 1275   4.266   4.004   5.306  2.6655 -0.7480 -0.2948
   18CHL1   C15 1276   4.090   3.909   5.223  0.0567  0.0052 -0.5226
   18CHL1  H15A 1277   4.028   3.824   5.260 -0.8168  1.2570  1.0085
   18CHL1  H15B 1278   4.032   3.996   5.261 -1.4062  0.3134 -3.2235
   18CHL1   C16 1279   4.118   3.925   5.079 -0.3122 -0.0778  0.1110
   18CHL1  H16A 1280   4.077   3.836   5.026  1.3746 -0.3283 -0.8486
   18CHL1  H16B 1281   4.068   4.014   5.035  0.1775  0.2393  0.1951
   18CHL1   C17 1282   4.273   3.928   5.072  0.1723 -0.0708 -0.2661
   18CHL1   H17 1283   4.300   4.033   5.096 -0.5487  1.0546 -3.8405
   18CHL1   C13 1284   4.329   3.846   5.192 -0.1409  0.4387 -1.4419
   18CHL1   C18 1285   4.297   3.695   5.185 -0.3749  0.4079 -0.2226
   18CHL1  H18A 1286   4.195   3.669   5.151  0.3900 -0.8693 -1.6750
   18CHL1  H18B 1287   4.362   3.647   5.109 -1.4760  0.0470 -0.9503
   18CHL1  H18C 1288   4.331   3.638   5.274 -3.7013  0.7812  1.4178
   18CHL1   C12 1289   4.471   3.884   5.248 -0.0309 -0.0997  0.2933
   18CHL1  H12A 1290   4.547   3.840   5.179  2.3722  1.3595  1.8531
   18CHL1  H12B 1291   4.474   3.994   5.243 -0.7698 -0.0958 -0.2043
   18CHL1   C11 1292   4.502   3.831   5.386  0.5360 -0.7427 -0.5693
   18CHL1  H11A 1293   4.509   3.720   5.374 -4.8139 -1.2025 -2.0525
   18CHL1  H11B 1294   4.596   3.880   5.420  0.4210 -1.0769  0.2427
   18CHL1    C9 1295   4.383   3.856   5.486 -0.0757 -0.0720 -0.0211
   18CHL1    H9 1296   4.383   3.967   5.499 -2.5742 -0.1596  1.2897
   18CHL1   C10 1297   4.414   3.802   5.632  0.0961 -0.8175  0.2929
   18CHL1   C19 1298   4.443   3.654   5.615  0.0377  0.0454 -0.0405
   18CHL1  H19A 1299   4.478   3.616   5.713  1.1717  0.5956 -0.2132
   18CHL1  H19B 1300   4.358   3.596   5.575 -0.9054  1.0963  0.3891
   18CHL1  H19C 1301   4.534   3.637   5.553  0.1887 -1.8022  0.6499
   18CHL1    C1 1302   4.524   3.886   5.706  0.6523  0.2472  0.2365
   18CHL1   H1A 1303   4.619   3.875   5.649 -0.4664 -2.1387 -1.3245
   18CHL1   H1B 1304   4.481   3.988   5.696 -1.2461 -0.3079  2.1295
   18CHL1    C2 1305   4.546   3.862   5.856  0.3456 -0.1696  0.1790
   18CHL1   H2A 1306   4.622   3.928   5.903  0.6391  0.0004 -0.5168
   18CHL1   H2B 1307   4.584   3.758   5.872 -0.2268 -0.4611 -0.2875
   18CHL1   C20 1308   4.350   3.917   4.943  0.4162  0.1893 -0.3893
   18CHL1   H20 1309   4.459   3.918   4.966  0.2684  0.8709  0.3448
   18CHL1   C21 1310   4.328   4.048   4.865  0.5791 -0.0193 -0.5363
   18CHL1  H21A 1311   4.398   4.045   4.779  1.8944  1.4593  0.4347
   18CHL1  H21B 1312   4.362   4.132   4.929  2.6299 -1.9821  1.1578
   18CHL1  H21C 1313   4.228   4.072   4.824  1.4534  2.1317 -1.5255
   18CHL1   C22 1314   4.325   3.791   4.855  0.0523  0.1152  0.4375
   18CHL1  H22A 1315   4.315   3.698   4.913  0.4850  0.0387  0.3931
   18CHL1  H22B 1316   4.234   3.791   4.791  1.5327 -0.4525 -1.7891
   18CHL1   C23 1317   4.439   3.763   4.752 -0.1135 -0.0602 -0.1133
   18CHL1  H23A 1318   4.474   3.852   4.695 -0.0616 -0.5894 -0.9182
   18CHL1  H23B 1319   4.525   3.750   4.821  1.5002 -0.0834 -2.0440
   18CHL1   C24 1320   4.417   3.637   4.669 -0.5869  0.3946 -0.0960
   18CHL1  H24A 1321   4.379   3.554   4.732 -1.2844  0.4352 -0.4547
   18CHL1  H24B 1322   4.337   3.650   4.593 -1.4859 -0.2555  0.7059
   18CHL1   C25 1323   4.536   3.596   4.575 -0.4743 -0.7507 -0.1644
   18CHL1   H25 1324   4.552   3.678   4.502  0.2876  0.9654  1.8362
   18CHL1   C26 1325   4.662   3.576   4.651  0.1627  0.7012  0.0454
   18CHL1  H26A 1326   4.657   3.499   4.731  2.2450  3.0994  2.7491
   18CHL1  H26B 1327   4.739   3.535   4.583 -1.0794 -2.8395  0.5832
   18CHL1  H26C 1328   4.698   3.667   4.706  0.4414 -0.2750  1.5458
   18CHL1   C27 1329   4.501   3.471   4.484  0.4318 -0.3459 -0.0942
   18CHL1  H27A 1330   4.462   3.388   4.547  0.4967 -0.5712 -0.3491
   18CHL1  H27B 1331   4.420   3.498   4.413 -0.4903 -0.3899  0.9086
   18CHL1  H27C 1332   4.592   3.446   4.425  0.4273 -0.2838 -0.1275
   19CHL1    C3 1333   2.178   3.613   5.708  0.2921 -0.6733 -0.0206
   19CHL1    H3 1334   2.275   3.630   5.656  0.6907 -0.0341  0.9006
   19CHL1    O3 1335   2.206   3.592   5.845 -0.6696  0.1410 -0.0640
   19CHL1   H3' 1336   2.128   3.577   5.900  0.0633 -1.7050  0.5474
   19CHL1    C4 1337   2.078   3.726   5.703  0.4490  0.0847  0.0269
   19CHL1   H4A 1338   1.986   3.689   5.752 -0.4230  0.3620 -1.3538
   19CHL1   H4B 1339   2.107   3.812   5.767  0.1133  3.5847 -4.1034
   19CHL1    C5 1340   2.046   3.758   5.560  0.0230 -0.2997 -0.3425
   19CHL1    C6 1341   2.063   3.884   5.504  0.2076  0.5721  0.0639
   19CHL1    H6 1342   2.107   3.962   5.568  0.7690 -0.2336  0.6879
   19CHL1    C7 1343   2.023   3.908   5.361 -0.3503 -0.2909 -0.3293
   19CHL1   H7A 1344   1.972   4.005   5.341  1.1287  1.3606  3.0790
   19CHL1   H7B 1345   2.122   3.904   5.313  1.7172 -1.7760  3.5903
   19CHL1    C8 1346   1.947   3.801   5.286  0.7225 -0.2933  0.8254
   19CHL1    H8 1347   1.840   3.817   5.313  0.8666 -1.1784  2.0018
   19CHL1   C14 1348   1.973   3.823   5.142 -0.3768 -0.4564 -1.0214
   19CHL1   H14 1349   2.083   3.823   5.128 -0.3435 -1.5349 -0.8422
   19CHL1   C15 1350   1.939   3.959   5.095  0.6736  0.3181  0.1103
   19CHL1  H15A 1351   1.832   3.968   5.121 -0.0877  0.8564 -2.8171
   19CHL1  H15B 1352   1.992   4.048   5.136  0.7798  0.2491  0.1231
   19CHL1   C16 1353   1.948   3.947   4.941  0.0592  0.0292 -0.4280
   19CHL1  H16A 1354   1.859   3.993   4.892  1.0196  0.4804 -1.8008
   19CHL1  H16B 1355   2.043   3.995   4.908 -0.5765  1.4525 -0.2650
   19CHL1   C17 1356   1.965   3.795   4.913 -0.1219  0.4838 -0.2917
   19CHL1   H17 1357   2.072   3.767   4.909 -0.2584 -0.4096  1.5162
   19CHL1   C13 1358   1.915   3.725   5.044  0.0738  0.1110 -0.8135
   19CHL1   C18 1359   1.759   3.728   5.055  0.1617 -0.2682 -0.1669
   19CHL1  H18A 1360   1.719   3.827   5.026  0.4879 -0.1156 -0.0989
   19CHL1  H18B 1361   1.725   3.650   4.983 -0.2613 -0.3773  0.1444
   19CHL1  H18C 1362   1.733   3.698   5.159 -0.3003  0.3470 -0.1013
   19CHL1   C12 1363   1.978   3.589   5.087 -0.4080  0.9321 -0.4991
   19CHL1  H12A 1364   1.933   3.508   5.025  0.3683  0.4492 -0.4439
   19CHL1  H12B 1365   2.089   3.587   5.084 -0.3376  1.6430  0.8745
   19CHL1   C11 1366   1.947   3.551   5.233  0.6430  0.0024  0.1028
   19CHL1  H11A 1367   1.839   3.536   5.251  0.8677 -0.2312  1.3443
   19CHL1  H11B 1368   1.994   3.453   5.253  0.5463  0.0438  0.5394
   19CHL1    C9 1369   1.998   3.662   5.327 -0.2396  0.3907  0.0084
   19CHL1    H9 1370   2.106   3.668   5.301  0.3670  2.1562  2.5155
   19CHL1   C10 1371   1.997   3.627   5.473  0.1029  0.2965  0.5693
   19CHL1   C19 1372   1.851   3.591   5.517  0.1059  0.1935  0.6311
   19CHL1  H19A 1373   1.776   3.673   5.511 -2.4643 -1.9506  1.1568
   19CHL1  H19B 1374   1.816   3.498   5.468  0.7372 -0.6675  1.7502
   19CHL1  H19C 1375   1.845   3.558   5.623  1.3980 -0.6812  0.4524
   19CHL1    C1 1376   2.093   3.507   5.507 -0.0152  0.0870  0.1462
   19CHL1   H1A 1377   2.048   3.418   5.459 -1.9059  0.6949  0.6933
   19CHL1   H1B 1378   2.182   3.525   5.443  0.3866  0.5854  0.8284
   19CHL1    C2 1379   2.125   3.485   5.652  0.0202 -0.2141 -0.2976
   19CHL1   H2A 1380   2.203   3.407   5.664 -0.7828 -1.4130 -2.2750
   19CHL1   H2B 1381   2.031   3.460   5.705  0.2639 -0.2634  0.1121
   19CHL1   C20 1382   1.906   3.754   4.780  0.1377 -0.3353 -0.0756
   19CHL1   H20 1383   1.800   3.787   4.781 -0.7814 -3.0588  0.8230
   19CHL1   C21 1384   1.904   3.603   4.754 -0.3855 -0.1527  0.5954
   19CHL1  H21A 1385   1.872   3.545   4.843  2.9433 -0.5690  1.6841
   19CHL1  H21B 1386   2.010   3.576   4.733 -1.1357 -1.5407 -1.7502
   19CHL1  H21C 1387   1.848   3.570   4.664  0.8429  1.3579 -0.8032
   19CHL1   C22 1388   1.990   3.816   4.661 -0.2684  0.0393 -0.3677
   19CHL1  H22A 1389   2.024   3.920   4.681  1.6013 -0.8784  1.6277
   19CHL1  H22B 1390   2.076   3.748   4.645 -0.7625 -1.5067  2.6587
   19CHL1   C23 1391   1.909   3.817   4.532  0.6937  0.3788  0.2261
   19CHL1  H23A 1392   1.862   3.717   4.528 -1.3374  1.2706  0.5072
   19CHL1  H23B 1393   1.818   3.880   4.542 -0.4646 -1.4936  2.5354
   19CHL1   C24 1394   1.979   3.855   4.402  0.1832 -0.5620  0.1290
   19CHL1  H24A 1395   1.918   3.836   4.311  1.0772  1.0774 -0.8666
   19CHL1  H24B 1396   1.997   3.965   4.395 -0.6228 -0.4395 -0.1168
   19CHL1   C25 1397   2.111   3.779   4.379 -0.4494  0.0368 -0.6861
   19CHL1   H25 1398   2.190   3.804   4.453 -0.2533  0.6891 -1.1074
   19CHL1   C26 1399   2.098   3.632   4.368 -0.1586 -0.1306  0.3303
   19CHL1  H26A 1400   2.196   3.583   4.354 -0.4799 -0.3142 -1.4257
   19CHL1  H26B 1401   2.046   3.601   4.462  1.3118  0.7567  1.4728
   19CHL1  H26C 1402   2.037   3.604   4.280 -0.7516  0.5807  0.5055
   19CHL1   C27 1403   2.168   3.817   4.245  0.1333  0.3529  0.3426
   19CHL1  H27A 1404   2.084   3.794   4.176  0.1508  3.1757 -0.7328
   19CHL1  H27B 1405   2.190   3.925   4.232 -1.0963  0.3974 -1.7743
   19CHL1  H27C 1406   2.260   3.760   4.222  0.3082  0.4010  0.9042
   20CHL1    C3 1407   6.597   4.469   6.184  0.4361 -0.1878 -0.4397
   20CHL1    H3 1408   6.682   4.525   6.138 -0.0184  0.9384  0.0431
   20CHL1    O3 1409   6.587   4.500   6.317 -0.4420 -0.3452  0.2284
   20CHL1   H3' 1410   6.628   4.587   6.318 -0.3785 -0.3785  0.6283
   20CHL1    C4 1411   6.458   4.503   6.111 -0.4259 -0.1256  0.1160
   20CHL1   H4A 1412   6.389   4.439   6.169  0.2923 -1.3122 -0.2956
   20CHL1   H4B 1413   6.432   4.610   6.125  0.1526 -0.0282  0.4940
   20CHL1    C5 1414   6.467   4.468   5.966  0.1839 -0.1057 -0.2399
   20CHL1    C6 1415   6.456   4.563   5.873 -0.9110 -0.0776  0.3430
   20CHL1    H6 1416   6.428   4.665   5.902 -1.4304  0.9555 -3.2032
   20CHL1    C7 1417   6.463   4.533   5.722  0.1492 -0.4147 -0.3031
   20CHL1   H7A 1418   6.388   4.581   5.655  0.6046  1.7426  0.6396
   20CHL1   H7B 1419   6.558   4.582   5.693  1.4449 -2.8212 -0.3300
   20CHL1    C8 1420   6.462   4.379   5.690  0.1372  0.5986 -0.3639
   20CHL1    H8 1421   6.369   4.319   5.705  1.1583 -0.8815  0.4264
   20CHL1   C14 1422   6.521   4.352   5.550 -0.5228 -0.0273 -0.0146
   20CHL1   H14 1423   6.626   4.386   5.557 -0.6707  0.1484  1.6433
   20CHL1   C15 1424   6.461   4.428   5.423  0.0336 -0.0684  0.7836
   20CHL1  H15A 1425   6.350   4.423   5.421  0.0234 -0.3464  1.7262
   20CHL1  H15B 1426   6.500   4.532   5.421 -0.2889  0.0513  0.1002
   20CHL1   C16 1427   6.497   4.347   5.294  0.5344  0.1877  0.0872
   20CHL1  H16A 1428   6.403   4.307   5.250  1.7208 -0.4098 -2.0692
   20CHL1  H16B 1429   6.548   4.402   5.211 -1.2906  1.2330 -0.3959
   20CHL1   C17 1430   6.572   4.228   5.348  0.4013  0.3936 -0.1688
   20CHL1   H17 1431   6.678   4.263   5.350  0.9384 -1.1053 -0.7518
   20CHL1   C13 1432   6.529   4.202   5.500  0.4299  0.0834 -0.5382
   20CHL1   C18 1433   6.388   4.137   5.506 -0.1890  0.0010  0.4384
   20CHL1  H18A 1434   6.359   4.125   5.613  0.2780 -0.8583  0.4699
   20CHL1  H18B 1435   6.310   4.195   5.451  0.3529 -0.2990 -0.6570
   20CHL1  H18C 1436   6.385   4.040   5.452  0.3238  0.3522 -0.2195
   20CHL1   C12 1437   6.634   4.136   5.596  0.0089  0.2058 -0.7323
   20CHL1  H12A 1438   6.649   4.027   5.580  2.5893  0.6051 -1.5589
   20CHL1  H12B 1439   6.727   4.190   5.567 -0.9209  2.8024  0.7842
   20CHL1   C11 1440   6.608   4.162   5.748  0.2567  0.0272  0.5774
   20CHL1  H11A 1441   6.536   4.083   5.780 -1.1884  0.3968 -1.5260
   20CHL1  H11B 1442   6.709   4.148   5.791  0.3460  0.0782  0.3825
   20CHL1    C9 1443   6.560   4.307   5.789 -0.2552 -0.1920  0.8603
   20CHL1    H9 1444   6.652   4.369   5.777 -0.7190  0.1770 -1.3547
   20CHL1   C10 1445   6.514   4.323   5.934  0.7263  0.7957 -0.8138
   20CHL1   C19 1446   6.391   4.231   5.961 -0.2413 -0.1797  0.2953
   20CHL1  H19A 1447   6.413   4.130   5.923  2.0670  0.3335  0.1009
   20CHL1  H19B 1448   6.384   4.226   6.072  0.4286  1.5715  0.4515
   20CHL1  H19C 1449   6.302   4.270   5.907 -0.2703 -0.3746  0.2011
   20CHL1    C1 1450   6.631   4.271   6.032  0.5171  0.0351 -0.1125
   20CHL1   H1A 1451   6.642   4.161   6.039 -0.8458 -0.0250  1.8896
   20CHL1   H1B 1452   6.725   4.308   5.984  1.6532 -4.5322 -1.9692
   20CHL1    C2 1453   6.626   4.324   6.176 -0.4546  0.3765  0.1284
   20CHL1   H2A 1454   6.724   4.304   6.225  0.3045  0.6327 -1.2382
   20CHL1   H2B 1455   6.544   4.266   6.222  1.4117 -3.5084 -0.9694
   20CHL1   C20 1456   6.568   4.100   5.255  0.4887 -0.2314 -0.0094
   20CHL1   H20 1457   6.463   4.067   5.239 -0.4647  1.7829  1.7006
   20CHL1   C21 1458   6.654   3.978   5.294 -0.1941 -0.7182  0.0900
   20CHL1  H21A 1459   6.601   3.917   5.370 -3.3862  0.8107 -0.7469
   20CHL1  H21B 1460   6.754   4.015   5.324  0.2279 -0.7366 -1.2270
   20CHL1  H21C 1461   6.667   3.908   5.208  1.5661  2.0778 -2.0962
   20CHL1   C22 1462   6.632   4.131   5.109  0.5831  0.0877 -0.2031
   20CHL1  H22A 1463   6.608   4.236   5.083 -1.6511 -0.3244  0.0362
   20CHL1  H22B 1464   6.743   4.120   5.113  0.5673  0.2370  1.0514
   20CHL1   C23 1465   6.596   4.037   4.993  0.3238  0.4235 -0.1218
   20CHL1  H23A 1466   6.634   3.934   5.006  0.4740 -0.0750 -3.6007
   20CHL1  H23B 1467   6.485   4.034   4.993  0.1061  1.4120  4.2042
   20CHL1   C24 1468   6.631   4.094   4.854 -0.3027  0.7122 -0.3926
   20CHL1  H24A 1469   6.604   4.202   4.864  2.2890  1.2455  2.0558
   20CHL1  H24B 1470   6.740   4.084   4.834 -0.1969  0.8760  0.0869
   20CHL1   C25 1471   6.563   4.019   4.738  0.4347 -0.2632  0.8832
   20CHL1   H25 1472   6.453   4.029   4.750  0.3096 -0.4321 -0.0428
   20CHL1   C26 1473   6.600   4.081   4.607 -0.6836  0.1816 -0.3614
   20CHL1  H26A 1474   6.557   4.184   4.605  1.3151  1.1042 -3.1158
   20CHL1  H26B 1475   6.710   4.090   4.592 -0.8009  1.8213 -0.4882
   20CHL1  H26C 1476   6.563   4.017   4.524  2.4284 -2.1760 -0.0876
   20CHL1   C27 1477   6.593   3.872   4.738 -0.0164 -0.2799  0.5880
   20CHL1  H27A 1478   6.536   3.831   4.651 -0.6697 -0.0744  0.9147
   20CHL1  H27B 1479   6.702   3.859   4.719  0.5030  0.3487  2.8959
   20CHL1  H27C 1480   6.563   3.807   4.823  2.3721 -1.3140  0.7288
   21CHL1    C3 1481   6.170   2.312   5.768  0.5054 -0.6717  0.1353
   21CHL1    H3 1482   6.218   2.404   5.725 -0.8757 -1.3722 -3.2860
   21CHL1    O3 1483   6.202   2.282   5.902  0.3012 -0.6562  0.2838
   21CHL1   H3' 1484   6.130   2.222   5.922  0.4147 -1.0451 -0.4443
   21CHL1    C4 1485   6.017   2.314   5.745  0.2403  0.1093 -0.2847
   21CHL1   H4A 1486   5.971   2.220   5.783  0.0742  0.6945  0.9988
   21CHL1   H4B 1487   5.966   2.387   5.811  0.6035 -0.8151  1.0621
   21CHL1    C5 1488   5.977   2.332   5.607 -1.0490 -0.5941 -0.3762
   21CHL1    C6 1489   5.909   2.436   5.566 -0.1837  0.0792 -0.0071
   21CHL1    H6 1490   5.885   2.514   5.640  0.9332  0.2720  0.1731
   21CHL1    C7 1491   5.860   2.473   5.433  0.4867  0.6229  0.5212
   21CHL1   H7A 1492   5.755   2.509   5.436 -0.8145 -2.6784 -0.1871
   21CHL1   H7B 1493   5.919   2.561   5.402 -1.8811  1.9999 -0.3480
   21CHL1    C8 1494   5.877   2.354   5.338  0.6785  0.6422 -0.2803
   21CHL1    H8 1495   5.792   2.286   5.358  1.3230 -0.1025 -0.0343
   21CHL1   C14 1496   5.871   2.400   5.191 -0.3168 -0.1224 -0.0128
   21CHL1   H14 1497   5.951   2.473   5.166 -2.1968  1.6587 -1.1544
   21CHL1   C15 1498   5.739   2.476   5.153 -0.4630 -0.1625 -0.7140
   21CHL1  H15A 1499   5.647   2.442   5.205 -0.5919  0.9788 -0.1722
   21CHL1  H15B 1500   5.751   2.585   5.169 -1.4169 -0.2455  0.8021
   21CHL1   C16 1501   5.739   2.459   5.006  0.6559  0.0406 -0.4970
   21CHL1  H16A 1502   5.636   2.420   4.992 -0.8758  2.9137  1.8621
   21CHL1  H16B 1503   5.744   2.555   4.950 -1.3137  0.2191 -0.4301
   21CHL1   C17 1504   5.855   2.358   4.968  0.7143  0.4625  1.0405
   21CHL1   H17 1505   5.948   2.415   4.944  1.0629 -0.2765  0.5819
   21CHL1   C13 1506   5.881   2.282   5.094  0.1548 -0.2133  0.5616
   21CHL1   C18 1507   5.773   2.181   5.120 -0.2403  0.6770 -0.0976
   21CHL1  H18A 1508   5.673   2.224   5.098  0.7724  2.9557 -0.5605
   21CHL1  H18B 1509   5.793   2.088   5.062 -0.2928 -0.0154  0.9683
   21CHL1  H18C 1510   5.785   2.140   5.222  1.5121  1.3925  0.0155
   21CHL1   C12 1511   6.028   2.218   5.111 -0.2737 -0.0409  0.4003
   21CHL1  H12A 1512   6.032   2.145   5.028 -4.6364  0.3200 -0.3724
   21CHL1  H12B 1513   6.096   2.304   5.091 -0.7287  0.3958  0.6937
   21CHL1   C11 1514   6.042   2.166   5.250  0.0255  0.1436 -0.5457
   21CHL1  H11A 1515   5.981   2.074   5.257 -1.9239  1.5044  2.8862
   21CHL1  H11B 1516   6.146   2.128   5.264  0.2636  0.4223 -1.4831
   21CHL1    C9 1517   6.010   2.276   5.359 -0.2968  0.1282 -0.0676
   21CHL1    H9 1518   6.084   2.357   5.340  0.4815 -0.2157  1.2894
   21CHL1   C10 1519   6.031   2.229   5.509 -0.1458 -0.4929  0.3496
   21CHL1   C19 1520   5.960   2.093   5.522 -0.1837 -0.5842  0.1370
   21CHL1  H19A 1521   5.850   2.110   5.514 -0.3434 -1.0054  1.1528
   21CHL1  H19B 1522   6.007   2.027   5.446  1.7556 -0.5318  1.2201
   21CHL1  H19C 1523   5.969   2.049   5.624  1.3114  0.9157  0.6836
   21CHL1    C1 1524   6.185   2.219   5.539  0.2600  0.0912 -0.1417
   21CHL1   H1A 1525   6.224   2.148   5.463 -3.9362 -0.6298 -1.9208
   21CHL1   H1B 1526   6.225   2.321   5.521  1.2760 -0.3245 -0.2543
   21CHL1    C2 1527   6.224   2.195   5.687  0.5217 -0.0553  0.4891
   21CHL1   H2A 1528   6.333   2.202   5.702  0.5827 -2.2367  1.2868
   21CHL1   H2B 1529   6.192   2.094   5.721  2.4515 -0.9412 -0.1831
   21CHL1   C20 1530   5.813   2.274   4.839 -0.5679  0.0069  0.9235
   21CHL1   H20 1531   5.722   2.226   4.880 -2.0472  2.2834  0.4701
   21CHL1   C21 1532   5.915   2.171   4.790 -0.3849  0.3488 -1.1096
   21CHL1  H21A 1533   5.872   2.130   4.696 -2.8068  0.7323 -0.2499
   21CHL1  H21B 1534   5.932   2.084   4.857 -2.3081 -0.5378 -1.7006
   21CHL1  H21C 1535   6.010   2.217   4.758  0.4041  0.4491  1.2424
   21CHL1   C22 1536   5.762   2.367   4.720 -0.2414  0.2490  0.4303
   21CHL1  H22A 1537   5.703   2.303   4.651  0.5509  1.5692 -1.5581
   21CHL1  H22B 1538   5.700   2.454   4.751 -1.7318  0.1145 -1.9413
   21CHL1   C23 1539   5.868   2.437   4.632 -0.2306  0.0372  0.2503
   21CHL1  H23A 1540   5.931   2.495   4.704 -0.1517 -1.0711  1.1193
   21CHL1  H23B 1541   5.936   2.363   4.585  1.7994  0.2364  2.6624
   21CHL1   C24 1542   5.812   2.534   4.527  0.5198  0.2860 -0.0245
   21CHL1  H24A 1543   5.748   2.469   4.464 -1.4204  1.3446  0.7612
   21CHL1  H24B 1544   5.747   2.607   4.580  1.1760  0.8727 -0.0189
   21CHL1   C25 1545   5.912   2.611   4.435 -0.9030  0.2028  0.2647
   21CHL1   H25 1546   5.970   2.535   4.379 -1.6661  0.9178 -1.5751
   21CHL1   C26 1547   5.842   2.702   4.337  0.2144 -0.3014  0.2368
   21CHL1  H26A 1548   5.766   2.635   4.291 -1.9535  2.1352  0.0228
   21CHL1  H26B 1549   5.789   2.780   4.396 -1.5942 -1.0765 -0.3063
   21CHL1  H26C 1550   5.903   2.749   4.257 -0.7545 -0.5245 -0.6523
   21CHL1   C27 1551   6.009   2.697   4.515  0.0977 -0.2576 -0.0655
   21CHL1  H27A 1552   5.948   2.774   4.566  0.3972 -0.2040  0.2184
   21CHL1  H27B 1553   6.075   2.638   4.582 -1.3140  0.3285  1.9391
   21CHL1  H27C 1554   6.075   2.748   4.441 -1.1408  0.5097 -0.6641
   22CHL1    C3 1555   0.797   6.054   5.865  0.1531 -0.0633 -0.5777
   22CHL1    H3 1556   0.793   6.159   5.827  0.9654 -0.4594 -1.8093
   22CHL1    O3 1557   0.805   6.046   6.003  0.0358 -0.4260 -0.5650
   22CHL1   H3' 1558   0.900   6.052   6.012  0.0314  1.7944 -1.2080
   22CHL1    C4 1559   0.660   5.999   5.822 -0.4867  0.1884 -0.6983
   22CHL1   H4A 1560   0.632   5.896   5.852  1.5510 -0.5550 -1.2251
   22CHL1   H4B 1561   0.589   6.073   5.866 -1.2906 -0.8914 -0.1296
   22CHL1    C5 1562   0.653   5.993   5.666 -0.1585  0.4225  0.0817
   22CHL1    C6 1563   0.555   6.047   5.596  0.4720 -0.1981  0.1561
   22CHL1    H6 1564   0.474   6.097   5.650  0.6755  0.2418  0.0593
   22CHL1    C7 1565   0.541   6.047   5.452  1.0443 -0.3473 -0.1516
   22CHL1   H7A 1566   0.434   6.028   5.433  0.5363  2.4017 -0.4526
   22CHL1   H7B 1567   0.562   6.151   5.419 -0.8177  0.0737 -0.1221
   22CHL1    C8 1568   0.635   5.939   5.383  0.0385 -0.1193 -0.1427
   22CHL1    H8 1569   0.592   5.838   5.399 -1.0395  0.4942  0.9325
   22CHL1   C14 1570   0.636   5.958   5.235 -0.0357  0.0869 -0.0363
   22CHL1   H14 1571   0.683   6.056   5.212  0.0344 -0.2005 -1.1867
   22CHL1   C15 1572   0.500   5.956   5.170 -0.1702 -0.3472  0.2273
   22CHL1  H15A 1573   0.439   5.871   5.208  0.2408 -0.2714  1.0843
   22CHL1  H15B 1574   0.459   6.059   5.182 -0.1283 -0.4878  1.7731
   22CHL1   C16 1575   0.534   5.940   5.020 -0.3037  0.1092 -0.1636
   22CHL1  H16A 1576   0.469   5.857   4.984 -0.8664  0.2694  0.4826
   22CHL1  H16B 1577   0.502   6.029   4.963 -0.0205  1.6265  1.9355
   22CHL1   C17 1578   0.694   5.900   5.010  0.6716 -0.1931  0.3169
   22CHL1   H17 1579   0.744   5.993   4.975  1.7118  0.0261  2.2729
   22CHL1   C13 1580   0.717   5.862   5.156  0.6882 -0.0660 -0.4381
   22CHL1   C18 1581   0.671   5.710   5.175  0.6582  0.1885 -0.6137
   22CHL1  H18A 1582   0.673   5.693   5.285 -0.2589  2.7565 -0.1408
   22CHL1  H18B 1583   0.572   5.689   5.130  0.1692  0.8028  0.1501
   22CHL1  H18C 1584   0.745   5.636   5.137  0.2121 -1.5197  1.6251
   22CHL1   C12 1585   0.862   5.873   5.198  0.4776  0.5171 -0.0478
   22CHL1  H12A 1586   0.921   5.797   5.144 -5.4986 -2.1037 -3.9477
   22CHL1  H12B 1587   0.890   5.976   5.167  1.0064  0.4816  0.2909
   22CHL1   C11 1588   0.885   5.857   5.356  0.2615 -0.2431 -0.5062
   22CHL1  H11A 1589   0.884   5.751   5.389 -0.4657 -0.0917 -0.0189
   22CHL1  H11B 1590   0.987   5.898   5.378 -0.5590  0.8778  1.5329
   22CHL1    C9 1591   0.784   5.948   5.434  0.4015 -0.0821 -0.6360
   22CHL1    H9 1592   0.808   6.054   5.410 -3.0145  1.5272  2.0636
   22CHL1   C10 1593   0.776   5.928   5.595  0.2964  0.5220  0.4147
   22CHL1   C19 1594   0.753   5.770   5.624 -0.2744  0.0572 -0.6988
   22CHL1  H19A 1595   0.748   5.761   5.735 -0.0063 -4.1336 -0.8720
   22CHL1  H19B 1596   0.663   5.726   5.576 -1.0298  1.3675 -0.5268
   22CHL1  H19C 1597   0.842   5.722   5.577  0.5472  0.7705  0.0862
   22CHL1    C1 1598   0.905   5.974   5.658 -0.8377  0.2467  0.1598
   22CHL1   H1A 1599   0.992   5.920   5.616 -1.0482 -0.6580  0.8555
   22CHL1   H1B 1600   0.918   6.079   5.622 -0.2361  0.7662  1.7913
   22CHL1    C2 1601   0.916   5.976   5.809  0.5040  0.1522 -0.0993
   22CHL1   H2A 1602   1.012   6.025   5.835  1.2510 -0.2122 -1.9890
   22CHL1   H2B 1603   0.920   5.871   5.844 -1.1610  0.5213  1.3144
   22CHL1   C20 1604   0.717   5.801   4.897  0.0643  0.1448 -0.3470
   22CHL1   H20 1605   0.671   5.702   4.917 -1.5327  0.9151  0.0115
   22CHL1   C21 1606   0.867   5.767   4.876 -0.0945 -0.8475 -0.5725
   22CHL1  H21A 1607   0.933   5.855   4.861 -0.1286 -0.7791 -0.3180
   22CHL1  H21B 1608   0.880   5.691   4.796  1.4484 -0.1855 -0.9802
   22CHL1  H21C 1609   0.906   5.711   4.963  2.7527  2.1707  0.2689
   22CHL1   C22 1610   0.665   5.859   4.761 -0.0640  0.3537 -0.6322
   22CHL1  H22A 1611   0.557   5.883   4.763 -0.5142 -1.4945 -1.1317
   22CHL1  H22B 1612   0.725   5.952   4.746  1.0635 -0.0444  1.0374
   22CHL1   C23 1613   0.693   5.768   4.635 -0.5130 -0.2857 -1.3060
   22CHL1  H23A 1614   0.802   5.772   4.613 -0.6672  2.8857 -1.8808
   22CHL1  H23B 1615   0.654   5.665   4.649  0.1967 -0.5989 -1.6049
   22CHL1   C24 1616   0.625   5.814   4.500  0.0560  0.6723 -0.6851
   22CHL1  H24A 1617   0.625   5.738   4.419 -1.7098 -0.5390  0.3973
   22CHL1  H24B 1618   0.517   5.830   4.519 -0.2689 -1.6062 -0.2835
   22CHL1   C25 1619   0.685   5.947   4.442 -0.0397  0.7168 -0.2666
   22CHL1   H25 1620   0.690   6.012   4.532  0.2004 -2.6806  2.3703
   22CHL1   C26 1621   0.826   5.932   4.391 -0.6349  0.0714  0.0582
   22CHL1  H26A 1622   0.899   5.906   4.470 -1.2397 -2.0505 -0.0356
   22CHL1  H26B 1623   0.832   5.866   4.302  0.7574  1.3485 -0.8621
   22CHL1  H26C 1624   0.863   6.029   4.351  0.2736  0.7677  2.4332
   22CHL1   C27 1625   0.592   6.018   4.346 -0.1351  0.0137 -0.7412
   22CHL1  H27A 1626   0.488   6.000   4.381  0.0159 -3.4041 -1.6169
   22CHL1  H27B 1627   0.611   6.127   4.342 -0.7097  0.3631  2.8142
   22CHL1  H27C 1628   0.600   5.977   4.242  0.8971 -0.6316 -0.4244
   23CHL1    C3 1629   4.956   3.484   6.066  0.2077 -0.3927  0.4358
   23CHL1    H3 1630   4.965   3.378   6.035  1.4259 -0.0630 -0.4298
   23CHL1    O3 1631   4.951   3.469   6.208  0.8654  0.2107 -0.4087
   23CHL1   H3' 1632   4.886   3.536   6.231  0.1274 -0.3718 -0.7501
   23CHL1    C4 1633   5.079   3.570   6.027  0.1043 -0.2308 -0.0353
   23CHL1   H4A 1634   5.060   3.665   6.081 -0.1416 -0.6212  0.5824
   23CHL1   H4B 1635   5.166   3.521   6.076  1.7365  2.8902  0.4472
   23CHL1    C5 1636   5.091   3.598   5.875 -0.1633 -0.5615  0.0441
   23CHL1    C6 1637   5.211   3.596   5.812 -0.2091 -0.7215 -0.3971
   23CHL1    H6 1638   5.299   3.555   5.864  0.1514  2.7578  2.0813
   23CHL1    C7 1639   5.227   3.624   5.667 -1.0533  0.7680  0.3366
   23CHL1   H7A 1640   5.317   3.686   5.647 -0.8358  0.1774 -0.5515
   23CHL1   H7B 1641   5.263   3.529   5.622 -1.6870  1.3564 -1.5231
   23CHL1    C8 1642   5.107   3.683   5.600 -0.1378  0.2354  0.1076
   23CHL1    H8 1643   5.107   3.790   5.627  2.9506  0.2711  0.3394
   23CHL1   C14 1644   5.109   3.676   5.446 -0.6216  0.6426  0.4584
   23CHL1   H14 1645   5.099   3.566   5.433  0.5729  0.5271  0.4147
   23CHL1   C15 1646   5.238   3.717   5.366  0.3502 -0.2192  0.5820
   23CHL1  H15A 1647   5.264   3.822   5.393  0.7410 -0.1966  0.1263
   23CHL1  H15B 1648   5.322   3.645   5.381 -0.1310 -0.8381  0.3483
   23CHL1   C16 1649   5.200   3.717   5.214 -0.1740 -0.5690 -0.2167
   23CHL1  H16A 1650   5.245   3.799   5.154 -2.0153 -0.3531 -1.3598
   23CHL1  H16B 1651   5.243   3.623   5.173  0.2693 -0.3740 -0.2054
   23CHL1   C17 1652   5.038   3.714   5.227 -0.5827  0.0323  0.6615
   23CHL1   H17 1653   5.015   3.606   5.217  0.0139 -0.1998  1.6354
   23CHL1   C13 1654   4.995   3.741   5.373  0.4124  0.2577  0.3216
   23CHL1   C18 1655   4.999   3.895   5.395 -0.2221  0.9276  0.6364
   23CHL1  H18A 1656   4.921   3.949   5.335  0.7686  0.9057 -0.7226
   23CHL1  H18B 1657   4.983   3.916   5.503  2.0959  4.0107  0.5046
   23CHL1  H18C 1658   5.093   3.933   5.350 -0.1593 -0.4414 -0.4391
   23CHL1   C12 1659   4.860   3.672   5.421  0.3352 -0.3342 -0.8943
   23CHL1  H12A 1660   4.771   3.728   5.385  0.5013  0.7912  0.3610
   23CHL1  H12B 1661   4.853   3.565   5.391 -0.7898 -1.1890  2.0406
   23CHL1   C11 1662   4.851   3.674   5.574  1.1909  0.8401  0.1390
   23CHL1  H11A 1663   4.829   3.779   5.600  1.1326  0.8679 -0.0187
   23CHL1  H11B 1664   4.758   3.621   5.602  2.0921 -1.3847 -0.7745
   23CHL1    C9 1665   4.969   3.623   5.654 -0.2147 -0.1073  0.1784
   23CHL1    H9 1666   4.967   3.513   5.645 -2.0955 -0.4604  3.4482
   23CHL1   C10 1667   4.953   3.636   5.808 -0.2588 -0.3701  0.0138
   23CHL1   C19 1668   4.936   3.784   5.842  0.4605  0.1241 -0.3874
   23CHL1  H19A 1669   4.928   3.798   5.952  1.6338 -2.3418  0.0955
   23CHL1  H19B 1670   5.029   3.836   5.812  1.5573 -1.6930 -0.3096
   23CHL1  H19C 1671   4.842   3.834   5.810  1.1365  1.1822 -0.7786
   23CHL1    C1 1672   4.828   3.565   5.862  0.0817  0.8636  0.1281
   23CHL1   H1A 1673   4.741   3.630   5.838  0.8712  1.9111  0.0436
   23CHL1   H1B 1674   4.826   3.462   5.820  3.0390  0.0122  1.8093
   23CHL1    C2 1675   4.825   3.554   6.016  0.2077  0.4939 -0.0695
   23CHL1   H2A 1676   4.730   3.504   6.045 -0.1480  0.5851 -1.0233
   23CHL1   H2B 1677   4.822   3.656   6.060  1.3050 -0.0197  1.2508
   23CHL1   C20 1678   4.972   3.771   5.099  0.1495 -0.2167  0.1471
   23CHL1   H20 1679   4.999   3.879   5.093  2.9593 -0.9229 -1.9066
   23CHL1   C21 1680   4.820   3.762   5.115  0.1182 -0.6622 -0.6941
   23CHL1  H21A 1681   4.801   3.659   5.152  0.1472 -0.1385  0.8652
   23CHL1  H21B 1682   4.770   3.796   5.022  0.3428 -0.6447 -0.8106
   23CHL1  H21C 1683   4.786   3.842   5.184  2.4050  1.8590 -2.2672
   23CHL1   C22 1684   5.022   3.712   4.960  0.6198  0.1530  0.3701
   23CHL1  H22A 1685   4.947   3.750   4.888 -0.2816 -2.8588 -0.3973
   23CHL1  H22B 1686   5.120   3.760   4.935 -0.4102  1.8408 -0.6595
   23CHL1   C23 1687   5.018   3.562   4.952 -0.6691 -0.1022  0.6323
   23CHL1  H23A 1688   5.104   3.513   5.002  0.4516  0.3124 -0.8266
   23CHL1  H23B 1689   4.921   3.529   4.996 -1.8021  0.5511 -1.2782
   23CHL1   C24 1690   5.029   3.503   4.813  0.3096  0.1229 -0.1403
   23CHL1  H24A 1691   4.999   3.397   4.824 -0.3491  0.0766 -2.0479
   23CHL1  H24B 1692   4.950   3.544   4.746  0.9998 -0.1857 -1.1747
   23CHL1   C25 1693   5.166   3.508   4.747 -0.7725 -0.3209 -0.3714
   23CHL1   H25 1694   5.188   3.616   4.736 -2.4444  0.0008 -0.7896
   23CHL1   C26 1695   5.277   3.432   4.816  0.1220  0.1945  0.0532
   23CHL1  H26A 1696   5.295   3.483   4.913 -1.6745 -0.0706  0.5575
   23CHL1  H26B 1697   5.254   3.324   4.825 -1.6098  0.5534  0.1717
   23CHL1  H26C 1698   5.369   3.454   4.757  0.0476  0.2993 -0.0262
   23CHL1   C27 1699   5.155   3.453   4.605 -0.1648  0.1717 -1.0929
   23CHL1  H27A 1700   5.118   3.350   4.622 -0.9058  0.5073 -0.6136
   23CHL1  H27B 1701   5.079   3.501   4.539  0.5970  1.5891 -0.9759
   23CHL1  H27C 1702   5.254   3.444   4.556  0.4060  0.4441 -0.0232
   24CHL1    C3 1703   1.751   2.923   6.246 -0.5841 -0.3738 -0.0669
   24CHL1    H3 1704   1.731   3.023   6.201  0.0841 -0.4210 -0.4940
   24CHL1    O3 1705   1.793   2.934   6.382  0.8726  0.7385 -0.1397
   24CHL1   H3' 1706   1.858   2.864   6.393  2.1290  1.2824 -3.1818
   24CHL1    C4 1707   1.617   2.845   6.229  0.0860 -0.0750 -0.4811
   24CHL1   H4A 1708   1.627   2.745   6.277  0.5745 -0.0538 -0.5419
   24CHL1   H4B 1709   1.541   2.905   6.284  0.6466  0.6140 -0.4463
   24CHL1    C5 1710   1.570   2.831   6.084 -0.0995  0.7062  0.4406
   24CHL1    C6 1711   1.442   2.852   6.043 -0.2256 -0.8107  0.0390
   24CHL1    H6 1712   1.367   2.873   6.121 -0.6967  0.6333 -0.7582
   24CHL1    C7 1713   1.395   2.834   5.903  0.1839  0.9644  0.0822
   24CHL1   H7A 1714   1.293   2.794   5.890  0.4387 -0.1537  1.3677
   24CHL1   H7B 1715   1.387   2.940   5.871 -0.6138  0.9952  0.3629
   24CHL1    C8 1716   1.494   2.773   5.803 -0.4864 -0.4138  0.2931
   24CHL1    H8 1717   1.485   2.663   5.817 -2.2100  0.0436  3.8276
   24CHL1   C14 1718   1.449   2.811   5.661 -0.2240  0.7126  0.5479
   24CHL1   H14 1719   1.445   2.922   5.661  2.1588  1.0358 -3.8793
   24CHL1   C15 1720   1.306   2.775   5.606 -0.3127 -0.4880 -0.5956
   24CHL1  H15A 1721   1.296   2.667   5.631  2.8759 -0.5053  1.1758
   24CHL1  H15B 1722   1.220   2.838   5.641 -1.1261 -2.2070  0.6608
   24CHL1   C16 1723   1.326   2.789   5.453  0.0647  0.7259 -0.0653
   24CHL1  H16A 1724   1.287   2.696   5.404  1.1246 -0.2327  0.8703
   24CHL1  H16B 1725   1.279   2.881   5.412  1.3707  0.9765 -1.0605
   24CHL1   C17 1726   1.486   2.800   5.431 -0.3664 -0.6313 -0.1941
   24CHL1   H17 1727   1.500   2.910   5.423  1.2826 -0.8839 -1.2171
   24CHL1   C13 1728   1.548   2.753   5.565 -0.0477 -0.4560  0.6381
   24CHL1   C18 1729   1.556   2.598   5.551 -0.0316 -0.2807  0.0912
   24CHL1  H18A 1730   1.450   2.571   5.529 -0.7050  2.1450  0.0878
   24CHL1  H18B 1731   1.633   2.572   5.475  0.6554 -0.8591  0.9692
   24CHL1  H18C 1732   1.582   2.563   5.653 -0.3545  2.9456  1.4052
   24CHL1   C12 1733   1.684   2.820   5.596  0.4882 -0.6190 -0.0970
   24CHL1  H12A 1734   1.762   2.795   5.521 -1.1397 -0.1525 -2.0585
   24CHL1  H12B 1735   1.687   2.930   5.583  0.1338 -0.7789 -1.8057
   24CHL1   C11 1736   1.738   2.781   5.735  0.2272 -0.2010 -0.6370
   24CHL1  H11A 1737   1.755   2.671   5.736 -0.2426 -0.2961  1.3816
   24CHL1  H11B 1738   1.837   2.831   5.738  0.9681 -1.6581  1.5846
   24CHL1    C9 1739   1.637   2.822   5.838 -0.0116  0.9078  0.1910
   24CHL1    H9 1740   1.631   2.933   5.828 -1.1168  0.6713 -2.3646
   24CHL1   C10 1741   1.678   2.788   5.985 -0.1503  0.7638  0.6918
   24CHL1   C19 1742   1.691   2.633   6.002 -0.1767 -1.1608 -0.0136
   24CHL1  H19A 1743   1.598   2.579   5.974  0.1757 -1.3104 -0.9130
   24CHL1  H19B 1744   1.769   2.594   5.934 -1.7845  0.5923 -3.1076
   24CHL1  H19C 1745   1.719   2.606   6.106 -3.0507  0.7657  1.4084
   24CHL1    C1 1746   1.809   2.867   6.015  0.2447 -0.1608  0.3642
   24CHL1   H1A 1747   1.898   2.847   5.953  1.9812  2.3420  1.8527
   24CHL1   H1B 1748   1.779   2.973   5.997  0.0283 -0.0227  1.4154
   24CHL1    C2 1749   1.855   2.857   6.166 -0.4759 -0.4166  0.1595
   24CHL1   H2A 1750   1.952   2.910   6.165 -1.3801  1.3008 -0.6936
   24CHL1   H2B 1751   1.875   2.752   6.195  1.0375  0.0579  0.9005
   24CHL1   C20 1752   1.543   2.744   5.293 -0.1602 -0.1718  0.0715
   24CHL1   H20 1753   1.533   2.634   5.293 -0.6324 -0.1302 -0.3751
   24CHL1   C21 1754   1.689   2.777   5.274  0.0647 -0.2726 -0.0075
   24CHL1  H21A 1755   1.724   2.764   5.169 -1.3492 -2.3135 -0.2805
   24CHL1  H21B 1756   1.750   2.710   5.338  0.2097 -0.2924 -0.1676
   24CHL1  H21C 1757   1.713   2.883   5.298  0.8425  0.3442 -3.0953
   24CHL1   C22 1758   1.444   2.800   5.185  0.5923  0.3184  0.3571
   24CHL1  H22A 1759   1.339   2.774   5.210  0.1747 -0.8560 -2.2619
   24CHL1  H22B 1760   1.453   2.911   5.191  1.7958  0.1590  4.2768
   24CHL1   C23 1761   1.477   2.755   5.038 -0.0096 -0.0624 -0.1336
   24CHL1  H23A 1762   1.581   2.792   5.024 -1.3771  4.1723 -0.4312
   24CHL1  H23B 1763   1.475   2.644   5.049 -1.0257  0.1824  3.7816
   24CHL1   C24 1764   1.390   2.825   4.923 -0.3569 -0.4381 -0.1325
   24CHL1  H24A 1765   1.284   2.794   4.936 -2.4016  5.0409 -1.3774
   24CHL1  H24B 1766   1.387   2.935   4.932 -0.3113 -0.4293 -0.2291
   24CHL1   C25 1767   1.449   2.799   4.783  0.3627  0.4865  0.0986
   24CHL1   H25 1768   1.546   2.853   4.785  0.1746  0.9139 -1.1555
   24CHL1   C26 1769   1.482   2.654   4.763  0.2000 -0.3688 -0.4405
   24CHL1  H26A 1770   1.538   2.640   4.668  0.0324 -1.4442 -0.3866
   24CHL1  H26B 1771   1.557   2.617   4.837  0.5154 -0.7749 -0.9642
   24CHL1  H26C 1772   1.392   2.591   4.776 -1.0082  0.9345 -2.0752
   24CHL1   C27 1773   1.352   2.845   4.666 -0.5822 -0.1727  0.3659
   24CHL1  H27A 1774   1.416   2.854   4.575  0.9556  1.8923  1.5738
   24CHL1  H27B 1775   1.266   2.779   4.641 -0.0042 -0.2989 -1.4891
   24CHL1  H27C 1776   1.316   2.948   4.686  1.6477  0.3276  2.2619
   25CHL1    C3 1777   3.561   3.809   6.064  0.0995  0.3749  0.0611
   25CHL1    H3 1778   3.585   3.705   6.030  2.6576  0.9672 -0.1294
   25CHL1    O3 1779   3.583   3.804   6.205 -0.4006  0.4309 -0.2302
   25CHL1   H3' 1780   3.547   3.717   6.226 -1.1882  0.5640 -0.9607
   25CHL1    C4 1781   3.658   3.911   5.997 -0.1283  1.1656 -0.0905
   25CHL1   H4A 1782   3.634   4.017   6.018  2.9222  2.7744 -3.7523
   25CHL1   H4B 1783   3.762   3.896   6.033  0.5954  1.4464 -1.9555
   25CHL1    C5 1784   3.644   3.900   5.845 -0.2216  0.0893 -0.0544
   25CHL1    C6 1785   3.759   3.870   5.779  0.7341 -0.4375 -0.9441
   25CHL1    H6 1786   3.855   3.862   5.833 -0.4383 -1.8644  1.0556
   25CHL1    C7 1787   3.751   3.834   5.637 -0.2147  0.4829 -0.1938
   25CHL1   H7A 1788   3.834   3.883   5.581 -0.3817  3.5073  1.9596
   25CHL1   H7B 1789   3.755   3.723   5.642  2.7028  0.4407 -1.2345
   25CHL1    C8 1790   3.621   3.864   5.561 -0.0309 -0.0574  0.3334
   25CHL1    H8 1791   3.625   3.970   5.528 -2.6669  0.4272  1.3719
   25CHL1   C14 1792   3.611   3.782   5.439 -1.0154 -0.8963  0.4237
   25CHL1   H14 1793   3.612   3.675   5.470 -0.3890 -1.2756 -0.8460
   25CHL1   C15 1794   3.727   3.813   5.349  0.2856 -0.2939  0.8007
   25CHL1  H15A 1795   3.741   3.913   5.304 -0.9827 -1.2901 -2.0481
   25CHL1  H15B 1796   3.820   3.768   5.391  0.4626  0.2264  0.9686
   25CHL1   C16 1797   3.679   3.744   5.219  0.3522 -0.9162  0.4584
   25CHL1  H16A 1798   3.697   3.816   5.137  0.6119  0.6764  1.8616
   25CHL1  H16B 1799   3.734   3.651   5.196  0.4889 -0.8161  0.3786
   25CHL1   C17 1800   3.528   3.722   5.239  0.0754  0.5777 -0.1503
   25CHL1   H17 1801   3.513   3.621   5.282  2.2094  1.0814  1.9913
   25CHL1   C13 1802   3.489   3.812   5.357  0.0017 -0.5087 -0.4811
   25CHL1   C18 1803   3.480   3.961   5.305  0.1175  0.0392 -0.1884
   25CHL1  H18A 1804   3.557   3.991   5.231  0.1264  0.8323  0.1270
   25CHL1  H18B 1805   3.383   3.987   5.257 -0.8528 -0.1489  1.5816
   25CHL1  H18C 1806   3.495   4.027   5.393  0.6574  0.5778 -0.6755
   25CHL1   C12 1807   3.364   3.771   5.440  0.0805 -0.4149 -0.5615
   25CHL1  H12A 1808   3.276   3.801   5.379  0.1071  0.4775 -0.1808
   25CHL1  H12B 1809   3.349   3.662   5.454 -1.2163 -0.4101 -1.6928
   25CHL1   C11 1810   3.368   3.844   5.577 -0.0311  0.3401  0.0579
   25CHL1  H11A 1811   3.360   3.949   5.542  1.2336  0.7576  0.9581
   25CHL1  H11B 1812   3.279   3.828   5.642  1.2317 -2.7093  1.2408
   25CHL1    C9 1813   3.499   3.832   5.651 -0.2986 -0.5394 -0.3545
   25CHL1    H9 1814   3.510   3.725   5.682 -0.3164  0.3727  3.2583
   25CHL1   C10 1815   3.505   3.912   5.788 -0.1719 -0.6197  0.0856
   25CHL1   C19 1816   3.474   4.064   5.764 -0.9540 -0.5009  0.1333
   25CHL1  H19A 1817   3.366   4.074   5.738 -0.2884  2.0182 -2.1503
   25CHL1  H19B 1818   3.495   4.115   5.860  0.2940 -2.1532  0.7750
   25CHL1  H19C 1819   3.539   4.102   5.682 -0.9695 -0.0569  0.3259
   25CHL1    C1 1820   3.397   3.843   5.880  0.0637  0.5427 -0.0744
   25CHL1   H1A 1821   3.304   3.902   5.863  1.2552  2.1449 -1.5349
   25CHL1   H1B 1822   3.395   3.742   5.834  4.3621  2.3670 -5.4169
   25CHL1    C2 1823   3.420   3.847   6.030  0.2958  0.0502  0.7879
   25CHL1   H2A 1824   3.350   3.777   6.080  0.5896 -2.5167 -2.1250
   25CHL1   H2B 1825   3.403   3.952   6.064 -0.1035  0.3315 -0.2652
   25CHL1   C20 1826   3.460   3.729   5.099 -0.4460  0.0413  0.2204
   25CHL1   H20 1827   3.454   3.837   5.073  2.9524  0.0521 -1.0964
   25CHL1   C21 1828   3.319   3.665   5.114 -0.7116 -1.1013 -0.2324
   25CHL1  H21A 1829   3.306   3.557   5.134 -1.3144 -0.9891 -0.0034
   25CHL1  H21B 1830   3.262   3.691   5.022 -0.7612  0.6769  0.2676
   25CHL1  H21C 1831   3.265   3.727   5.188 -0.0842  0.7853 -1.2840
   25CHL1   C22 1832   3.539   3.661   4.980  0.2024 -0.3994 -0.6942
   25CHL1  H22A 1833   3.476   3.655   4.889  1.0576 -0.4293 -1.2988
   25CHL1  H22B 1834   3.629   3.721   4.954  1.1265  0.3278  3.4915
   25CHL1   C23 1835   3.577   3.513   5.005  0.7232 -0.4942 -0.2995
   25CHL1  H23A 1836   3.635   3.505   5.100  0.0113  0.5962  0.2553
   25CHL1  H23B 1837   3.483   3.459   5.028  0.3087 -0.2505 -1.3609
   25CHL1   C24 1838   3.649   3.444   4.891 -0.0777  0.4907 -0.4727
   25CHL1  H24A 1839   3.665   3.336   4.915  2.6298  0.5072 -1.8924
   25CHL1  H24B 1840   3.586   3.466   4.802 -0.4782 -0.5785 -0.4738
   25CHL1   C25 1841   3.792   3.486   4.858  0.4599  0.1212  0.5425
   25CHL1   H25 1842   3.788   3.594   4.833 -2.7633  0.0008  0.1468
   25CHL1   C26 1843   3.898   3.472   4.973 -1.3726 -0.6388  0.3864
   25CHL1  H26A 1844   3.890   3.381   5.035  1.0182  1.4491  4.1898
   25CHL1  H26B 1845   3.996   3.486   4.921 -2.2377 -0.1190 -1.1638
   25CHL1  H26C 1846   3.901   3.553   5.050  1.4027 -0.3127  0.0365
   25CHL1   C27 1847   3.840   3.422   4.722  0.1469 -0.1422  1.0128
   25CHL1  H27A 1848   3.938   3.465   4.691  0.1320 -0.7075  0.1569
   25CHL1  H27B 1849   3.842   3.311   4.718 -1.5188 -0.1591 -0.1490
   25CHL1  H27C 1850   3.764   3.447   4.645  0.0330 -0.7311  0.9336
   26CHL1    C3 1851   1.080   0.842   5.716  0.1197  0.0253 -0.0612
   26CHL1    H3 1852   0.970   0.833   5.707  0.0801  1.0558 -0.8494
   26CHL1    O3 1853   1.126   0.859   5.850  0.2172 -0.0320 -0.5608
   26CHL1   H3' 1854   1.095   0.949   5.863 -0.4790 -0.1257 -1.4853
   26CHL1    C4 1855   1.139   0.706   5.668 -0.2870  0.0019  0.0752
   26CHL1   H4A 1856   1.249   0.717   5.682  0.1350 -1.0489 -2.0464
   26CHL1   H4B 1857   1.090   0.622   5.723 -0.6918  0.4168  0.3553
   26CHL1    C5 1858   1.116   0.688   5.516 -0.2690  0.2909 -0.0502
   26CHL1    C6 1859   1.063   0.581   5.463  0.1266 -0.7602 -0.2842
   26CHL1    H6 1860   1.033   0.500   5.531 -4.9147  1.6488  0.8971
   26CHL1    C7 1861   1.058   0.552   5.314 -0.1039  0.1945  0.2958
   26CHL1   H7A 1862   1.085   0.449   5.282  1.2233 -0.9687  4.5601
   26CHL1   H7B 1863   0.953   0.561   5.279 -0.4469 -0.7717  1.0183
   26CHL1    C8 1864   1.140   0.653   5.234  0.5307  0.4567 -0.6808
   26CHL1    H8 1865   1.247   0.623   5.235  0.2712 -0.5123 -0.4977
   26CHL1   C14 1866   1.088   0.650   5.088  0.6677  0.2859 -0.3188
   26CHL1   H14 1867   0.986   0.692   5.095  0.6241  0.1319 -0.0109
   26CHL1   C15 1868   1.083   0.516   5.016 -0.0461 -0.3138  0.2125
   26CHL1  H15A 1869   1.184   0.474   5.034  1.0243  2.2905  0.7926
   26CHL1  H15B 1870   1.003   0.459   5.068  0.4355 -1.5377 -0.3488
   26CHL1   C16 1871   1.080   0.550   4.871  0.3254 -0.9599 -0.4060
   26CHL1  H16A 1872   1.160   0.504   4.810  1.4725  0.5403 -0.1047
   26CHL1  H16B 1873   0.979   0.526   4.833  0.5904  1.2342 -2.7160
   26CHL1   C17 1874   1.098   0.708   4.856  0.0130  1.3986 -0.2370
   26CHL1   H17 1875   0.995   0.749   4.855 -1.0261 -1.0116  0.1355
   26CHL1   C13 1876   1.154   0.750   4.992 -0.6765  0.3379 -0.1000
   26CHL1   C18 1877   1.309   0.718   4.991  0.7987 -0.0332  1.0903
   26CHL1  H18A 1878   1.333   0.610   4.993  0.5476 -0.0880  1.2931
   26CHL1  H18B 1879   1.361   0.770   4.908 -0.7920  1.0689  0.7423
   26CHL1  H18C 1880   1.353   0.758   5.085 -1.0909 -1.0147  2.4683
   26CHL1   C12 1881   1.143   0.893   5.045  0.3539  0.2566 -0.0532
   26CHL1  H12A 1882   1.196   0.978   4.997 -2.2604  3.0183  1.6021
   26CHL1  H12B 1883   1.033   0.912   5.047  0.7383  2.7639  0.0309
   26CHL1   C11 1884   1.185   0.901   5.192  0.2697  0.1435 -0.5638
   26CHL1  H11A 1885   1.295   0.890   5.198  0.0733 -2.1005  0.1183
   26CHL1  H11B 1886   1.154   1.003   5.224  1.0453 -0.0813  1.0235
   26CHL1    C9 1887   1.120   0.794   5.285  0.2419  0.7053 -0.7008
   26CHL1    H9 1888   1.011   0.818   5.282  0.2489  2.4316  4.1639
   26CHL1   C10 1889   1.170   0.806   5.431 -0.3955 -0.3856  0.3764
   26CHL1   C19 1890   1.332   0.804   5.432 -0.1185  0.4545 -0.9686
   26CHL1  H19A 1891   1.365   0.812   5.538 -0.4414 -3.4405 -0.4453
   26CHL1  H19B 1892   1.368   0.701   5.408  0.2683 -0.0229  1.3758
   26CHL1  H19C 1893   1.388   0.874   5.366 -1.1218 -0.4794 -2.8839
   26CHL1    C1 1894   1.128   0.950   5.489  0.1911  0.3458 -0.9566
   26CHL1   H1A 1895   1.188   1.028   5.439 -0.4449  1.7942  0.4758
   26CHL1   H1B 1896   1.020   0.963   5.465 -0.2891 -1.6912 -0.1142
   26CHL1    C2 1897   1.147   0.960   5.638  0.4726  0.0806 -0.2935
   26CHL1   H2A 1898   1.088   1.047   5.674  0.0459 -0.2998 -0.0608
   26CHL1   H2B 1899   1.250   0.986   5.672 -0.2987  0.3545  2.0155
   26CHL1   C20 1900   1.169   0.742   4.726 -0.0113  0.1439 -0.4402
   26CHL1   H20 1901   1.267   0.690   4.738 -0.1544 -0.1448 -0.5242
   26CHL1   C21 1902   1.189   0.895   4.716  0.3261  0.0694  0.5327
   26CHL1  H21A 1903   1.262   0.926   4.794  1.0061  0.9183 -0.4111
   26CHL1  H21B 1904   1.097   0.956   4.710  1.0732  1.1898 -0.0838
   26CHL1  H21C 1905   1.235   0.912   4.616 -0.3364 -0.0183  0.2111
   26CHL1   C22 1906   1.096   0.680   4.603 -0.2099 -0.1494  0.3201
   26CHL1  H22A 1907   1.054   0.578   4.616  2.0813 -1.3978 -1.2327
   26CHL1  H22B 1908   1.009   0.737   4.565 -1.8228 -3.8323 -2.0258
   26CHL1   C23 1909   1.199   0.662   4.479 -0.3090 -0.2877 -0.1168
   26CHL1  H23A 1910   1.230   0.759   4.436  0.8236 -1.1503 -1.3382
   26CHL1  H23B 1911   1.288   0.600   4.501  0.1512  0.4110  0.0141
   26CHL1   C24 1912   1.126   0.587   4.364  0.0265 -0.3446 -0.2506
   26CHL1  H24A 1913   1.100   0.482   4.389 -0.0262 -0.4258 -0.6397
   26CHL1  H24B 1914   1.033   0.641   4.336 -0.2771 -0.8590 -0.2467
   26CHL1   C25 1915   1.203   0.566   4.235 -0.4178 -0.0226  0.5011
   26CHL1   H25 1916   1.135   0.547   4.150 -1.4553  2.9604  0.5341
   26CHL1   C26 1917   1.274   0.689   4.188 -0.4888 -0.2433  0.0681
   26CHL1  H26A 1918   1.310   0.670   4.085 -0.0422  3.5303 -0.6311
   26CHL1  H26B 1919   1.204   0.775   4.181  2.6738  2.4489 -1.5856
   26CHL1  H26C 1920   1.364   0.706   4.252 -0.0155 -1.8748 -0.1213
   26CHL1   C27 1921   1.299   0.441   4.251 -0.9231  0.2424  0.0974
   26CHL1  H27A 1922   1.349   0.424   4.154  1.0504  0.7330  0.9906
   26CHL1  H27B 1923   1.364   0.442   4.341 -0.7847  1.5172 -0.0071
   26CHL1  H27C 1924   1.231   0.352   4.259 -0.1138 -0.5423 -1.3321
   27CHL1    C3 1925   1.558   4.525   5.887 -0.3550  0.1639  0.6558
   27CHL1    H3 1926   1.658   4.477   5.896 -1.7808 -3.9524 -2.1531
   27CHL1    O3 1927   1.489   4.507   6.007  0.1556 -0.5295 -0.3111
   27CHL1   H3' 1928   1.430   4.583   6.008  1.2639  0.3941 -1.6621
   27CHL1    C4 1929   1.572   4.675   5.853  0.4788  0.3099 -0.4679
   27CHL1   H4A 1930   1.468   4.714   5.849 -0.4638 -1.9500  0.6232
   27CHL1   H4B 1931   1.627   4.728   5.933  1.8477  0.8140 -1.7095
   27CHL1    C5 1932   1.632   4.682   5.717 -0.7504  0.7250  0.5554
   27CHL1    C6 1933   1.746   4.757   5.711  0.6644 -0.2411  0.6737
   27CHL1    H6 1934   1.775   4.812   5.802  0.2725 -0.4196  0.9081
   27CHL1    C7 1935   1.807   4.802   5.574  0.7345 -0.6450  0.8201
   27CHL1   H7A 1936   1.835   4.909   5.587 -1.4399 -0.1220  1.6454
   27CHL1   H7B 1937   1.894   4.734   5.561  0.7421 -0.3882 -0.5562
   27CHL1    C8 1938   1.697   4.785   5.465  0.2378  1.0791 -0.0124
   27CHL1    H8 1939   1.619   4.863   5.468  0.2493  1.2914 -2.7562
   27CHL1   C14 1940   1.778   4.817   5.338 -0.4201  0.9485  0.1583
   27CHL1   H14 1941   1.862   4.745   5.331  0.1017  1.5474  0.1953
   27CHL1   C15 1942   1.847   4.955   5.317 -0.0882 -0.0842  0.5073
   27CHL1  H15A 1943   1.782   5.036   5.355  1.3338  0.1207  2.7202
   27CHL1  H15B 1944   1.947   4.951   5.364  0.9009 -3.0136 -1.5290
   27CHL1   C16 1945   1.880   4.960   5.160  0.0332 -0.0650 -0.7428
   27CHL1  H16A 1946   1.826   5.048   5.119  2.2112  1.3551 -0.7376
   27CHL1  H16B 1947   1.987   4.975   5.136  0.4236 -1.9432 -0.2728
   27CHL1   C17 1948   1.814   4.829   5.107  0.0907 -0.5278 -0.0217
   27CHL1   H17 1949   1.890   4.748   5.109 -0.6648 -1.2630 -0.4822
   27CHL1   C13 1950   1.704   4.789   5.206  0.3644  0.0723 -0.6397
   27CHL1   C18 1951   1.579   4.883   5.195  0.1326  0.4443 -0.1436
   27CHL1  H18A 1952   1.614   4.987   5.181  0.9404  0.1238 -0.5621
   27CHL1  H18B 1953   1.519   4.848   5.108 -0.1086 -0.5701  0.4140
   27CHL1  H18C 1954   1.516   4.862   5.284  0.7562 -1.4445 -0.0958
   27CHL1   C12 1955   1.658   4.638   5.212  0.2124 -0.8488 -0.0277
   27CHL1  H12A 1956   1.591   4.617   5.125  0.2318 -0.1396 -0.2179
   27CHL1  H12B 1957   1.746   4.571   5.220 -0.2270 -1.6595 -1.5372
   27CHL1   C11 1958   1.564   4.608   5.339 -0.0923  0.5059  0.4514
   27CHL1  H11A 1959   1.470   4.667   5.335 -1.6227 -1.7823  0.5486
   27CHL1  H11B 1960   1.532   4.502   5.328  0.5585  0.3499  0.0229
   27CHL1    C9 1961   1.644   4.639   5.474 -0.0757 -0.4094  0.5379
   27CHL1    H9 1962   1.722   4.560   5.479 -1.9949 -2.5715 -1.3390
   27CHL1   C10 1963   1.562   4.616   5.601  0.4090  0.4536 -0.1635
   27CHL1   C19 1964   1.422   4.676   5.579  0.2341 -0.3667  0.8554
   27CHL1  H19A 1965   1.430   4.782   5.546 -0.0252 -0.2933  1.0227
   27CHL1  H19B 1966   1.366   4.613   5.507 -0.0498 -0.0305  0.7775
   27CHL1  H19C 1967   1.359   4.672   5.670  0.9359 -0.2380  1.3486
   27CHL1    C1 1968   1.540   4.468   5.637 -0.9794  0.3348 -0.4266
   27CHL1   H1A 1969   1.491   4.415   5.553 -0.6728  0.0704 -0.4400
   27CHL1   H1B 1970   1.639   4.419   5.637 -1.0401  0.2131 -0.1198
   27CHL1    C2 1971   1.481   4.442   5.779 -0.5073 -0.1148  0.2376
   27CHL1   H2A 1972   1.473   4.331   5.791 -2.5350 -0.1851 -1.2616
   27CHL1   H2B 1973   1.378   4.483   5.794 -0.3110 -0.3213  2.5391
   27CHL1   C20 1974   1.780   4.834   4.951 -0.1192 -0.3020 -0.4403
   27CHL1   H20 1975   1.691   4.899   4.935  0.7400  1.2880  0.8768
   27CHL1   C21 1976   1.746   4.690   4.905 -0.0550 -0.0598 -0.7909
   27CHL1  H21A 1977   1.743   4.686   4.794  0.4014  1.0754 -0.8580
   27CHL1  H21B 1978   1.642   4.669   4.939 -0.2371 -0.6630 -1.6768
   27CHL1  H21C 1979   1.814   4.607   4.933  0.9806  1.1262  0.3021
   27CHL1   C22 1980   1.898   4.883   4.863 -0.3806  0.3471  1.5855
   27CHL1  H22A 1981   1.922   4.983   4.906 -1.6366  1.6636 -0.5759
   27CHL1  H22B 1982   1.994   4.828   4.862 -0.6165 -0.2429 -2.0049
   27CHL1   C23 1983   1.861   4.917   4.712 -0.3550 -0.3630 -0.6131
   27CHL1  H23A 1984   1.957   4.953   4.668  0.6137 -2.8366 -0.6933
   27CHL1  H23B 1985   1.844   4.821   4.657  1.9782 -0.6995 -0.8495
   27CHL1   C24 1986   1.748   5.010   4.684 -0.0929 -0.1263  0.6293
   27CHL1  H24A 1987   1.657   4.961   4.724 -0.9198  1.0922  0.2881
   27CHL1  H24B 1988   1.752   5.113   4.726 -2.1957  0.9099 -1.5068
   27CHL1   C25 1989   1.722   5.022   4.530  0.6530  0.0644  0.5174
   27CHL1   H25 1990   1.639   5.094   4.513  1.2645  0.9699  1.2784
   27CHL1   C26 1991   1.845   5.086   4.455  0.2122 -0.6019 -0.2845
   27CHL1  H26A 1992   1.904   5.161   4.512  1.2661 -0.8540 -1.0078
   27CHL1  H26B 1993   1.920   5.012   4.419 -0.3362 -0.8722 -0.8966
   27CHL1  H26C 1994   1.820   5.143   4.364 -0.1390  1.1515  0.8535
   27CHL1   C27 1995   1.686   4.894   4.469 -0.2756 -0.1960  1.0040
   27CHL1  H27A 1996   1.665   4.902   4.360  0.4207  2.4317  1.0002
   27CHL1  H27B 1997   1.771   4.823   4.480  1.1904  1.5245  1.0390
   27CHL1  H27C 1998   1.606   4.845   4.529  1.0562 -2.4584  1.0762
   28CHL1    C3 1999   0.929   5.312   6.034 -0.6098  0.3208 -0.3567
   28CHL1    H3 2000   1.036   5.309   6.006 -0.4065 -1.0055  0.4483
   28CHL1    O3 2001   0.925   5.335   6.170 -0.0479  0.3356  0.0102
   28CHL1   H3' 2002   0.839   5.303   6.197 -0.4010  1.1447 -0.1229
   28CHL1    C4 2003   0.867   5.427   5.952 -0.4434 -0.3953  0.0630
   28CHL1   H4A 2004   0.762   5.447   5.984  0.2494 -0.4929  2.5725
   28CHL1   H4B 2005   0.915   5.522   5.985  0.8362 -0.7874 -0.5934
   28CHL1    C5 2006   0.894   5.393   5.807  0.6217 -0.1167  0.4757
   28CHL1    C6 2007   0.968   5.479   5.733 -0.0199 -0.0156  0.1608
   28CHL1    H6 2008   0.992   5.581   5.768 -2.4523  1.1931 -1.4335
   28CHL1    C7 2009   1.000   5.454   5.584  0.0173  0.2306  0.0150
   28CHL1   H7A 2010   1.003   5.549   5.525 -1.3582 -0.1170 -0.6779
   28CHL1   H7B 2011   1.100   5.408   5.569  0.0860  0.7469 -1.2460
   28CHL1    C8 2012   0.898   5.372   5.522 -0.0585  0.2535  0.2884
   28CHL1    H8 2013   0.798   5.418   5.514  0.0658  0.5001  0.1452
   28CHL1   C14 2014   0.949   5.329   5.384  0.2577 -0.3324 -0.3301
   28CHL1   H14 2015   1.049   5.283   5.402  1.0885  1.0294 -1.3204
   28CHL1   C15 2016   0.978   5.450   5.283  0.5460 -0.4382 -1.1554
   28CHL1  H15A 2017   0.907   5.534   5.300 -0.3887 -1.6172  1.2477
   28CHL1  H15B 2018   1.078   5.495   5.301  0.0104  1.4102 -2.4851
   28CHL1   C16 2019   0.966   5.387   5.142  0.2371 -0.4317 -0.1982
   28CHL1  H16A 2020   0.894   5.443   5.078 -1.8992 -0.9481  1.6282
   28CHL1  H16B 2021   1.062   5.399   5.087  0.5741  1.1809  0.6781
   28CHL1   C17 2022   0.926   5.241   5.164 -0.2129  0.0154  0.2169
   28CHL1   H17 2023   1.023   5.186   5.167 -0.0165  0.1834 -1.8271
   28CHL1   C13 2024   0.857   5.228   5.307  0.6331 -0.1594 -0.0042
   28CHL1   C18 2025   0.721   5.288   5.293  0.6422 -0.3410  0.0245
   28CHL1  H18A 2026   0.665   5.290   5.389 -0.5047 -0.1565 -0.6274
   28CHL1  H18B 2027   0.708   5.387   5.243 -3.5752  0.3752  2.0155
   28CHL1  H18C 2028   0.655   5.229   5.226  0.3137  0.1630 -0.1039
   28CHL1   C12 2029   0.861   5.096   5.385  0.3224 -0.4299 -0.3123
   28CHL1  H12A 2030   0.794   5.022   5.336  1.6723 -1.9664  0.0678
   28CHL1  H12B 2031   0.965   5.056   5.386  0.4130 -0.3345 -2.0834
   28CHL1   C11 2032   0.807   5.113   5.529  0.3036  0.0321 -0.3607
   28CHL1  H11A 2033   0.698   5.135   5.525  0.5226  0.9522 -1.6403
   28CHL1  H11B 2034   0.823   5.023   5.593 -0.5717 -0.8194 -1.2962
   28CHL1    C9 2035   0.878   5.238   5.603  0.5489  0.7607 -0.1040
   28CHL1    H9 2036   0.974   5.184   5.603 -0.1786 -0.5851 -1.0308
   28CHL1   C10 2037   0.833   5.262   5.760 -0.0640  0.3856 -0.6877
   28CHL1   C19 2038   0.680   5.269   5.764 -0.6179  0.5963  0.7486
   28CHL1  H19A 2039   0.643   5.319   5.672 -0.6418 -0.4276  0.1875
   28CHL1  H19B 2040   0.638   5.167   5.756  0.0411  0.2190  1.7722
   28CHL1  H19C 2041   0.645   5.308   5.862 -1.0082 -0.1274  0.8986
   28CHL1    C1 2042   0.889   5.152   5.851 -0.3324 -0.5422 -0.1217
   28CHL1   H1A 2043   0.851   5.053   5.818 -1.9696 -0.5004  1.4804
   28CHL1   H1B 2044   0.997   5.148   5.827 -0.5797 -1.7104 -1.1715
   28CHL1    C2 2045   0.868   5.177   6.002 -0.1964 -0.0600 -0.8050
   28CHL1   H2A 2046   0.923   5.100   6.060  0.5971  2.2977  1.8354
   28CHL1   H2B 2047   0.760   5.169   6.024 -0.2711  1.6414 -0.3559
   28CHL1   C20 2048   0.850   5.185   5.038  0.1828  0.5132 -0.7234
   28CHL1   H20 2049   0.748   5.231   5.037 -0.1504  0.1632  2.9653
   28CHL1   C21 2050   0.828   5.036   5.062 -0.2450 -0.5450 -1.5184
   28CHL1  H21A 2051   0.804   4.988   4.964 -0.6015  0.5049 -1.9600
   28CHL1  H21B 2052   0.750   5.019   5.139 -0.1160 -1.2641 -1.5360
   28CHL1  H21C 2053   0.924   4.988   5.089 -0.8488 -0.1614  1.6652
   28CHL1   C22 2054   0.926   5.211   4.910 -0.0199 -0.2477  0.6534
   28CHL1  H22A 2055   0.864   5.183   4.823  0.6073  2.9325 -0.9606
   28CHL1  H22B 2056   0.932   5.319   4.886  0.2923 -0.9520 -3.0204
   28CHL1   C23 2057   1.058   5.127   4.896  0.1306 -0.4323 -0.3905
   28CHL1  H23A 2058   1.121   5.135   4.987  0.1658 -0.3082 -0.4256
   28CHL1  H23B 2059   1.028   5.021   4.880  0.8809 -0.6034 -0.7515
   28CHL1   C24 2060   1.133   5.188   4.776  0.2289 -0.5292  0.3192
   28CHL1  H24A 2061   1.065   5.235   4.702  0.0701 -0.6257  0.4028
   28CHL1  H24B 2062   1.187   5.276   4.815  0.2518  0.2976 -1.5055
   28CHL1   C25 2063   1.235   5.101   4.695  0.3970  0.0794  0.0552
   28CHL1   H25 2064   1.189   5.023   4.631  3.0367 -1.7663  0.2777
   28CHL1   C26 2065   1.297   5.182   4.584 -0.9830  0.0938 -0.8191
   28CHL1  H26A 2066   1.227   5.220   4.506 -2.3408 -0.2978  0.1650
   28CHL1  H26B 2067   1.369   5.261   4.613 -0.5481 -0.1284 -1.2719
   28CHL1  H26C 2068   1.363   5.110   4.531 -0.6090  0.6857 -1.1716
   28CHL1   C27 2069   1.340   5.029   4.776  0.1617  1.0511  0.4882
   28CHL1  H27A 2070   1.413   4.970   4.718  0.1026  1.6356 -0.1919
   28CHL1  H27B 2071   1.398   5.104   4.834  1.6931 -0.7351  1.3773
   28CHL1  H27C 2072   1.286   4.952   4.836  0.1177 -0.6218 -1.6169
   29CHL1    C3 2073   3.251   0.588   2.529  0.2424 -0.1809  0.4355
   29CHL1    H3 2074   3.174   0.514   2.560 -3.2710  2.5690 -1.0853
   29CHL1    O3 2075   3.251   0.600   2.386  0.1426  0.3896  0.6496
   29CHL1   H3' 2076   3.288   0.685   2.362  2.2151 -1.1014 -2.1392
   29CHL1    C4 2077   3.214   0.726   2.593  0.1166  0.1611 -1.1610
   29CHL1   H4A 2078   3.275   0.800   2.536 -0.1580  1.9020  0.6978
   29CHL1   H4B 2079   3.107   0.745   2.571 -1.1311 -1.5045  2.6185
   29CHL1    C5 2080   3.241   0.721   2.744  0.1578  1.0230 -0.1734
   29CHL1    C6 2081   3.147   0.758   2.829 -0.5413 -0.1551 -0.5796
   29CHL1    H6 2082   3.046   0.781   2.793 -0.2870 -0.0631 -1.2492
   29CHL1    C7 2083   3.172   0.774   2.975  0.3748  0.2060  0.7151
   29CHL1   H7A 2084   3.131   0.871   3.012 -1.5536 -0.1548 -0.3262
   29CHL1   H7B 2085   3.127   0.683   3.020  0.3480 -0.0743  0.1282
   29CHL1    C8 2086   3.323   0.773   3.011  0.0367  0.2901  0.0386
   29CHL1    H8 2087   3.364   0.868   2.971 -0.9765  1.2875  1.2947
   29CHL1   C14 2088   3.335   0.760   3.161  0.1245  1.1319 -0.4876
   29CHL1   H14 2089   3.307   0.655   3.184  1.5040  1.0937  1.2303
   29CHL1   C15 2090   3.244   0.839   3.251 -0.0804  0.7837 -0.3478
   29CHL1  H15A 2091   3.246   0.945   3.216 -2.0069  0.4951 -1.4794
   29CHL1  H15B 2092   3.141   0.802   3.268 -0.3846  1.2261 -1.1593
   29CHL1   C16 2093   3.309   0.830   3.389  0.5235 -0.6392 -0.2684
   29CHL1  H16A 2094   3.307   0.935   3.428  0.6742 -1.0393  0.8580
   29CHL1  H16B 2095   3.259   0.761   3.460  2.7187 -1.1184  0.9103
   29CHL1   C17 2096   3.447   0.761   3.370  0.1788  1.2955  0.3389
   29CHL1   H17 2097   3.430   0.654   3.395  3.8585 -0.4846 -3.5666
   29CHL1   C13 2098   3.477   0.769   3.219 -0.1180 -0.5664  0.3186
   29CHL1   C18 2099   3.539   0.908   3.195  0.0569 -0.3171 -0.1566
   29CHL1  H18A 2100   3.533   0.920   3.085  0.9897  0.3053 -0.1581
   29CHL1  H18B 2101   3.481   0.989   3.244  0.2527 -0.9593  1.2088
   29CHL1  H18C 2102   3.646   0.922   3.222 -0.6395  1.4316  2.0777
   29CHL1   C12 2103   3.553   0.654   3.156  0.2999 -0.2023  0.2065
   29CHL1  H12A 2104   3.661   0.646   3.179 -0.1857 -1.4888  2.2783
   29CHL1  H12B 2105   3.506   0.557   3.182 -0.2473 -1.8250 -5.4278
   29CHL1   C11 2106   3.549   0.649   2.997 -0.1761  0.3373  0.2899
   29CHL1  H11A 2107   3.608   0.736   2.961  0.6356  0.6270  2.1671
   29CHL1  H11B 2108   3.592   0.550   2.970 -0.7366  0.2724 -0.3724
   29CHL1    C9 2109   3.399   0.658   2.940  0.1133  0.3534 -0.0819
   29CHL1    H9 2110   3.341   0.571   2.979 -0.1913  1.0222  1.0014
   29CHL1   C10 2111   3.386   0.671   2.786 -0.5253  0.1215  0.0472
   29CHL1   C19 2112   3.499   0.771   2.729 -0.4054 -0.0635 -0.3218
   29CHL1  H19A 2113   3.594   0.718   2.751 -0.7704 -0.0905  1.2611
   29CHL1  H19B 2114   3.497   0.770   2.618 -1.2186  2.7563 -0.4078
   29CHL1  H19C 2115   3.521   0.871   2.772  1.3327 -0.0502 -1.1437
   29CHL1    C1 2116   3.411   0.528   2.722 -0.4394 -0.0805 -0.7290
   29CHL1   H1A 2117   3.515   0.490   2.735  0.1101 -0.0503 -4.2282
   29CHL1   H1B 2118   3.344   0.453   2.771 -1.3018  1.0855 -0.0802
   29CHL1    C2 2119   3.387   0.532   2.573 -0.5384  0.1225  0.3693
   29CHL1   H2A 2120   3.408   0.432   2.529 -1.2926 -0.2833  0.9207
   29CHL1   H2B 2121   3.474   0.593   2.539 -0.0105 -0.2951  0.9672
   29CHL1   C20 2122   3.552   0.814   3.471 -0.0428  0.7748  0.0095
   29CHL1   H20 2123   3.566   0.923   3.455  2.4312  0.7082  1.2264
   29CHL1   C21 2124   3.686   0.747   3.450  0.2972  0.2691 -0.9273
   29CHL1  H21A 2125   3.763   0.786   3.520  1.4189 -1.5677 -1.0877
   29CHL1  H21B 2126   3.721   0.760   3.346 -0.8854 -0.4822 -1.4340
   29CHL1  H21C 2127   3.677   0.642   3.484  3.1524  0.7301  1.7353
   29CHL1   C22 2128   3.502   0.793   3.618  0.6230  0.5460  0.8429
   29CHL1  H22A 2129   3.416   0.864   3.622 -1.5450 -1.8582 -0.0396
   29CHL1  H22B 2130   3.478   0.685   3.632  1.4315  0.4997  1.9844
   29CHL1   C23 2131   3.595   0.836   3.729  0.5809 -0.3596 -0.1496
   29CHL1  H23A 2132   3.688   0.775   3.724  0.3404 -0.6790 -0.9053
   29CHL1  H23B 2133   3.614   0.942   3.701 -0.2297  0.1664  1.2073
   29CHL1   C24 2134   3.538   0.806   3.873  0.1495 -0.6508  0.4323
   29CHL1  H24A 2135   3.435   0.848   3.873  1.2178  2.1992  1.1629
   29CHL1  H24B 2136   3.528   0.696   3.887  1.2306 -0.8250 -0.0585
   29CHL1   C25 2137   3.629   0.868   3.982  0.0848  0.3846 -1.2226
   29CHL1   H25 2138   3.651   0.973   3.954  2.1333  0.3957  0.1797
   29CHL1   C26 2139   3.560   0.870   4.112 -0.3974 -0.3394 -0.3657
   29CHL1  H26A 2140   3.609   0.934   4.188 -0.6141 -0.5598 -0.0359
   29CHL1  H26B 2141   3.453   0.899   4.102 -0.8224 -0.9971  1.8392
   29CHL1  H26C 2142   3.570   0.771   4.161  0.2266  0.5246  1.3331
   29CHL1   C27 2143   3.767   0.796   3.999  0.5477 -0.1262  0.1691
   29CHL1  H27A 2144   3.821   0.798   3.902 -1.1772  0.8662 -0.8275
   29CHL1  H27B 2145   3.829   0.841   4.080  0.4990 -1.0383  0.7312
   29CHL1  H27C 2146   3.746   0.688   4.015  0.3172 -0.1716 -0.4098
   30CHL1    C3 2147   2.064   5.797   2.298  0.1248  0.2159 -0.9058
   30CHL1    H3 2148   2.171   5.783   2.326 -0.6161 -1.5985  1.4399
   30CHL1    O3 2149   2.053   5.856   2.173  0.0594 -0.8659  0.6103
   30CHL1   H3' 2150   1.972   5.908   2.173  0.3113 -0.4671  0.7290
   30CHL1    C4 2151   1.996   5.656   2.294  0.2987  0.3454 -0.2532
   30CHL1   H4A 2152   1.897   5.680   2.249  0.0448  0.1742  0.2086
   30CHL1   H4B 2153   2.048   5.585   2.226 -0.9900 -2.0911  1.1211
   30CHL1    C5 2154   1.972   5.594   2.427 -0.4795  0.2126 -0.3919
   30CHL1    C6 2155   2.005   5.463   2.447  0.1065  0.8086 -0.6892
   30CHL1    H6 2156   2.058   5.407   2.368 -0.5597 -1.9532  0.6894
   30CHL1    C7 2157   1.976   5.402   2.581 -0.1368 -1.5348 -0.1480
   30CHL1   H7A 2158   1.947   5.296   2.568 -3.0129 -0.8904  0.3115
   30CHL1   H7B 2159   2.079   5.400   2.624  0.8133 -2.3205 -2.3388
   30CHL1    C8 2160   1.886   5.479   2.678  0.0847  0.3343  0.1310
   30CHL1    H8 2161   1.785   5.449   2.641  1.4363 -3.6633 -0.8852
   30CHL1   C14 2162   1.901   5.424   2.820  0.2504  1.0815 -0.1708
   30CHL1   H14 2163   2.011   5.434   2.836  0.4011  0.4524 -0.7377
   30CHL1   C15 2164   1.867   5.280   2.842  0.2916  1.2408 -0.8261
   30CHL1  H15A 2165   1.771   5.247   2.797 -1.0195 -0.8406  3.0357
   30CHL1  H15B 2166   1.940   5.205   2.807  0.3419  1.0877 -0.4012
   30CHL1   C16 2167   1.860   5.273   2.999 -0.0289  0.4699  0.3842
   30CHL1  H16A 2168   1.768   5.212   3.014  0.2559 -0.5326 -1.5782
   30CHL1  H16B 2169   1.949   5.218   3.038  0.7198  0.0874 -1.7270
   30CHL1   C17 2170   1.859   5.421   3.053 -0.1865  0.4941 -0.8352
   30CHL1   H17 2171   1.966   5.436   3.081 -0.5243  1.0158  0.2524
   30CHL1   C13 2172   1.820   5.504   2.928 -0.2426  0.7610 -0.2303
   30CHL1   C18 2173   1.671   5.474   2.898 -0.4970 -0.8173  0.0954
   30CHL1  H18A 2174   1.610   5.546   2.958 -0.9102  0.3465 -1.6597
   30CHL1  H18B 2175   1.645   5.491   2.792 -2.4705 -1.4648  0.4439
   30CHL1  H18C 2176   1.637   5.371   2.919  0.4548 -1.2296 -0.3130
   30CHL1   C12 2177   1.860   5.649   2.926 -0.2976 -0.2407  0.7414
   30CHL1  H12A 2178   1.806   5.703   3.006 -0.7349  0.6317 -0.1219
   30CHL1  H12B 2179   1.968   5.658   2.950  0.1252 -1.2592 -0.6238
   30CHL1   C11 2180   1.846   5.706   2.787 -0.3916  0.0768  0.1835
   30CHL1  H11A 2181   1.740   5.720   2.757 -0.2498 -0.4362 -0.5875
   30CHL1  H11B 2182   1.886   5.809   2.793 -1.6431  0.7153 -1.5793
   30CHL1    C9 2183   1.925   5.624   2.677 -0.5399 -0.6064 -0.1665
   30CHL1    H9 2184   2.028   5.633   2.716 -0.4242  0.9229 -0.7552
   30CHL1   C10 2185   1.918   5.688   2.534  0.8276  0.2331  0.6339
   30CHL1   C19 2186   1.763   5.713   2.503 -0.3997  0.0796  0.5012
   30CHL1  H19A 2187   1.757   5.752   2.399 -0.7101  2.0000  1.2117
   30CHL1  H19B 2188   1.692   5.628   2.494 -1.3242  1.0356 -2.0883
   30CHL1  H19C 2189   1.730   5.796   2.569 -0.0067  1.1951 -0.6630
   30CHL1    C1 2190   1.987   5.823   2.544  0.6634 -0.3102 -0.0848
   30CHL1   H1A 2191   1.938   5.894   2.615  1.6591  1.4489 -1.0696
   30CHL1   H1B 2192   2.088   5.805   2.587  1.1893  1.5964 -0.3849
   30CHL1    C2 2193   1.997   5.888   2.406  0.4201 -0.4189  0.0250
   30CHL1   H2A 2194   2.048   5.986   2.409  1.5909 -0.8795 -2.2800
   30CHL1   H2B 2195   1.893   5.912   2.373  0.3668 -1.2020 -0.4092
   30CHL1   C20 2196   1.767   5.429   3.174 -0.6718  0.5150 -0.3396
   30CHL1   H20 2197   1.659   5.403   3.162 -1.5708  2.7461  1.9699
   30CHL1   C21 2198   1.763   5.575   3.238 -0.1487  0.2683  0.5493
   30CHL1  H21A 2199   1.695   5.633   3.172 -1.1665 -0.0873  1.2602
   30CHL1  H21B 2200   1.862   5.626   3.242 -0.0515  0.4371 -2.2389
   30CHL1  H21C 2201   1.696   5.571   3.327  0.6742 -1.8131  1.1558
   30CHL1   C22 2202   1.835   5.333   3.280  0.2326 -0.2062 -0.5143
   30CHL1  H22A 2203   1.835   5.225   3.250  0.2093 -0.2730 -0.2764
   30CHL1  H22B 2204   1.944   5.349   3.285  0.3250 -0.8043 -0.5473
   30CHL1   C23 2205   1.787   5.330   3.429 -0.5785 -0.9088  0.1454
   30CHL1  H23A 2206   1.808   5.434   3.465 -1.0737 -0.8130  0.1696
   30CHL1  H23B 2207   1.676   5.321   3.435 -0.6654  0.7222  3.4216
   30CHL1   C24 2208   1.850   5.226   3.524  0.4260  0.0841  0.0925
   30CHL1  H24A 2209   1.854   5.134   3.462 -0.2123 -0.1795  0.4204
   30CHL1  H24B 2210   1.956   5.253   3.541  0.2575 -0.1031  1.5821
   30CHL1   C25 2211   1.776   5.211   3.661  0.0022  0.0070  0.2145
   30CHL1   H25 2212   1.668   5.187   3.648  0.3521 -0.8776 -1.2960
   30CHL1   C26 2213   1.824   5.079   3.729 -0.3136  0.1965 -0.3125
   30CHL1  H26A 2214   1.934   5.070   3.738 -0.3068  0.7383  0.2354
   30CHL1  H26B 2215   1.792   5.081   3.835 -0.0256  1.5317 -0.2232
   30CHL1  H26C 2216   1.789   4.987   3.678  0.8000  0.2882 -1.2791
   30CHL1   C27 2217   1.808   5.334   3.745 -0.1465 -0.0757  0.4857
   30CHL1  H27A 2218   1.753   5.329   3.841 -0.5213  0.4669  0.3077
   30CHL1  H27B 2219   1.914   5.351   3.772  0.1044  0.4326 -0.7656
   30CHL1  H27C 2220   1.767   5.425   3.696 -0.4573 -0.6689 -0.3963
   31CHL1    C3 2221   4.853   6.464   2.735  0.8246 -0.2583 -0.5180
   31CHL1    H3 2222   4.853   6.356   2.760 -0.1309 -0.0987  0.2457
   31CHL1    O3 2223   4.800   6.467   2.601 -0.5617  0.5325 -0.9125
   31CHL1   H3' 2224   4.819   6.557   2.573  3.0070 -0.2714 -1.6119
   31CHL1    C4 2225   4.756   6.535   2.835 -0.8228 -0.3422 -0.6860
   31CHL1   H4A 2226   4.739   6.636   2.790  2.2099 -0.0013 -1.3499
   31CHL1   H4B 2227   4.662   6.477   2.837 -0.1226 -1.5619 -1.7818
   31CHL1    C5 2228   4.815   6.538   2.977  0.0977 -0.0593 -0.3151
   31CHL1    C6 2229   4.740   6.483   3.078  0.1023 -0.5689 -0.4593
   31CHL1    H6 2230   4.637   6.446   3.070  0.6612 -2.4399  0.2780
   31CHL1    C7 2231   4.789   6.476   3.218  0.1957 -1.0059  0.6709
   31CHL1   H7A 2232   4.714   6.519   3.287 -0.3940 -0.2952 -0.3952
   31CHL1   H7B 2233   4.823   6.371   3.234 -2.4841 -2.0216  0.2718
   31CHL1    C8 2234   4.906   6.580   3.241 -0.4651 -0.2539 -0.2957
   31CHL1    H8 2235   4.853   6.677   3.251  1.5589  0.7574  1.9684
   31CHL1   C14 2236   4.978   6.541   3.375 -0.0191  0.3412  0.3500
   31CHL1   H14 2237   5.016   6.437   3.371  0.2919  0.4887 -0.8686
   31CHL1   C15 2238   4.893   6.555   3.501  0.2461  0.3005  0.6158
   31CHL1  H15A 2239   4.837   6.651   3.507 -1.3237 -0.4302 -1.2772
   31CHL1  H15B 2240   4.822   6.470   3.507  1.9836 -1.1234  2.4764
   31CHL1   C16 2241   4.999   6.547   3.614 -0.3700 -0.2562  0.6502
   31CHL1  H16A 2242   4.980   6.610   3.703  1.3653 -0.5779  1.3007
   31CHL1  H16B 2243   4.992   6.444   3.656  0.8591 -0.4224  0.4985
   31CHL1   C17 2244   5.141   6.568   3.548 -0.2391  0.1555 -0.6933
   31CHL1   H17 2245   5.177   6.464   3.539  0.4668 -0.0306  2.7785
   31CHL1   C13 2246   5.105   6.623   3.411 -0.3991  0.2536  0.4767
   31CHL1   C18 2247   5.070   6.773   3.422 -0.1015 -0.5961 -0.3227
   31CHL1  H18A 2248   5.009   6.807   3.335  0.1124  0.2273 -0.1618
   31CHL1  H18B 2249   5.027   6.801   3.520 -0.1501  0.0217 -0.5165
   31CHL1  H18C 2250   5.162   6.835   3.418 -0.5579  0.0565 -0.9356
   31CHL1   C12 2251   5.205   6.608   3.296 -0.1671 -0.3873 -0.2782
   31CHL1  H12A 2252   5.284   6.684   3.318 -0.9215  0.1894  0.5227
   31CHL1  H12B 2253   5.246   6.508   3.271 -0.5354  0.0307 -2.8429
   31CHL1   C11 2254   5.139   6.653   3.163  0.1882  1.0688 -0.1082
   31CHL1  H11A 2255   5.106   6.759   3.164  0.7737  1.2571  0.8952
   31CHL1  H11B 2256   5.218   6.652   3.084 -1.2958  0.2937 -1.6510
   31CHL1    C9 2257   5.007   6.574   3.134 -0.8481  0.4339  0.9003
   31CHL1    H9 2258   5.042   6.469   3.132 -0.7483  0.4449 -1.7027
   31CHL1   C10 2259   4.954   6.600   2.997  0.1694 -0.0604 -0.2533
   31CHL1   C19 2260   4.925   6.751   2.973  0.4317 -0.0568  0.4887
   31CHL1  H19A 2261   4.855   6.796   3.047 -2.5698 -1.8442 -1.0865
   31CHL1  H19B 2262   5.026   6.797   2.972  0.8514 -0.9192  1.3242
   31CHL1  H19C 2263   4.877   6.776   2.876  1.0274 -0.8714 -0.0292
   31CHL1    C1 2264   5.049   6.533   2.891  0.7622 -0.4886  0.2480
   31CHL1   H1A 2265   5.146   6.587   2.884  0.6701 -0.4064 -0.4752
   31CHL1   H1B 2266   5.063   6.426   2.916 -2.3556 -1.0884 -0.1502
   31CHL1    C2 2267   4.988   6.535   2.750  0.4069 -0.5174  0.3788
   31CHL1   H2A 2268   5.052   6.474   2.682  0.0334  0.5513 -0.9708
   31CHL1   H2B 2269   5.000   6.642   2.722  0.4311 -0.1222  1.8009
   31CHL1   C20 2270   5.232   6.645   3.651  1.2513 -0.0511 -0.6745
   31CHL1   H20 2271   5.196   6.748   3.673  0.6752 -0.2779 -0.5564
   31CHL1   C21 2272   5.367   6.676   3.592  0.3868 -0.1131 -0.5638
   31CHL1  H21A 2273   5.406   6.596   3.526 -0.3426 -0.2687 -0.8125
   31CHL1  H21B 2274   5.437   6.716   3.668 -1.8660  0.8556  1.1022
   31CHL1  H21C 2275   5.359   6.761   3.520 -0.4408  0.0273 -0.3083
   31CHL1   C22 2276   5.253   6.569   3.782 -0.1749 -0.0189  0.0557
   31CHL1  H22A 2277   5.329   6.623   3.842 -0.8822  2.5101 -1.2163
   31CHL1  H22B 2278   5.169   6.578   3.853  0.4024 -0.3109  0.7877
   31CHL1   C23 2279   5.296   6.417   3.774  0.2533 -0.4106 -0.0926
   31CHL1  H23A 2280   5.207   6.352   3.763 -0.4173  0.4016  0.3676
   31CHL1  H23B 2281   5.347   6.396   3.678 -3.8297 -1.8826 -2.2024
   31CHL1   C24 2282   5.352   6.367   3.903  0.1615  0.1873  1.3535
   31CHL1  H24A 2283   5.440   6.431   3.926  0.3706  0.2779  0.3327
   31CHL1  H24B 2284   5.277   6.392   3.981  0.1539  3.2125  0.5195
   31CHL1   C25 2285   5.383   6.218   3.898 -0.2268  0.2402 -0.3431
   31CHL1   H25 2286   5.292   6.157   3.883  0.3763 -0.7018 -0.2524
   31CHL1   C26 2287   5.476   6.168   3.783  0.1683  0.4238  0.6925
   31CHL1  H26A 2288   5.548   6.248   3.754  1.6829 -1.3974 -0.8135
   31CHL1  H26B 2289   5.529   6.077   3.819  1.3428 -0.1755 -2.2550
   31CHL1  H26C 2290   5.412   6.152   3.694  0.6399  0.9883  0.2439
   31CHL1   C27 2291   5.436   6.184   4.034 -0.0345  0.3666 -0.0132
   31CHL1  H27A 2292   5.358   6.205   4.110 -1.8515 -0.3690 -1.5768
   31CHL1  H27B 2293   5.464   6.077   4.046  1.9270  0.7440 -0.8017
   31CHL1  H27C 2294   5.529   6.244   4.048  1.0663 -1.1094 -0.7628
   32CHL1    C3 2295   2.970   2.149   2.740 -0.8045 -0.2101 -0.6420
   32CHL1    H3 2296   3.048   2.109   2.809  1.0152  2.0909 -1.2246
   32CHL1    O3 2297   3.009   2.153   2.603 -0.2046 -0.2140  0.3041
   32CHL1   H3' 2298   2.952   2.216   2.559  0.0132 -0.2632 -0.0578
   32CHL1    C4 2299   2.843   2.070   2.758  0.1595  0.5745 -0.0679
   32CHL1   H4A 2300   2.781   2.126   2.684  1.8716  1.3221 -1.0001
   32CHL1   H4B 2301   2.859   1.967   2.719 -1.0896 -0.0802  1.0525
   32CHL1    C5 2302   2.793   2.069   2.900  0.0584  0.2888  0.2203
   32CHL1    C6 2303   2.760   1.953   2.967 -0.0615 -0.4278  0.7945
   32CHL1    H6 2304   2.769   1.853   2.921  1.0104 -0.2804  0.6674
   32CHL1    C7 2305   2.698   1.953   3.103  0.0221 -0.4181 -0.5797
   32CHL1   H7A 2306   2.614   1.880   3.100  1.0195 -1.8284  2.0735
   32CHL1   H7B 2307   2.761   1.903   3.180 -0.9103  1.4092  1.4731
   32CHL1    C8 2308   2.636   2.089   3.136  0.8671 -0.3337  0.1456
   32CHL1    H8 2309   2.541   2.090   3.078  0.4539  1.2888  0.7830
   32CHL1   C14 2310   2.602   2.097   3.282  0.3854  0.0782  0.7130
   32CHL1   H14 2311   2.702   2.081   3.328  1.2538 -1.2783 -1.4728
   32CHL1   C15 2312   2.515   1.981   3.328  0.0226 -0.1911  0.3463
   32CHL1  H15A 2313   2.430   1.965   3.258  0.2865 -0.2653  0.0434
   32CHL1  H15B 2314   2.573   1.887   3.338 -0.4597 -0.4238  1.0956
   32CHL1   C16 2315   2.463   2.027   3.465  0.2485  0.0397  0.8203
   32CHL1  H16A 2316   2.353   2.008   3.469  0.2652  0.1197  2.2255
   32CHL1  H16B 2317   2.507   1.963   3.544 -0.1509 -0.5394  0.5796
   32CHL1   C17 2318   2.503   2.180   3.475 -0.7941  0.1670  1.4650
   32CHL1   H17 2319   2.601   2.178   3.527 -0.7350  1.4909  1.4423
   32CHL1   C13 2320   2.535   2.221   3.332 -0.1684  0.2247 -0.2621
   32CHL1   C18 2321   2.398   2.249   3.262  1.2059  0.5059 -0.4275
   32CHL1  H18A 2322   2.312   2.181   3.281  1.4002  0.2263 -0.5553
   32CHL1  H18B 2323   2.370   2.354   3.288  0.7737  0.4452 -0.6308
   32CHL1  H18C 2324   2.416   2.246   3.152  0.0004 -0.1543 -0.6304
   32CHL1   C12 2325   2.640   2.335   3.317  0.1159  0.1528  0.4777
   32CHL1  H12A 2326   2.601   2.436   3.341  0.0986  0.6571 -1.5098
   32CHL1  H12B 2327   2.724   2.310   3.386  1.0913 -1.9955 -1.3656
   32CHL1   C11 2328   2.690   2.344   3.175 -0.3789 -0.9219  0.8702
   32CHL1  H11A 2329   2.602   2.388   3.124  0.8635 -0.0704 -0.6269
   32CHL1  H11B 2330   2.764   2.424   3.156 -0.5541 -0.2995  2.6467
   32CHL1    C9 2331   2.730   2.210   3.106  0.6561  0.2288  0.5210
   32CHL1    H9 2332   2.821   2.175   3.160  2.2738  3.9702  0.5621
   32CHL1   C10 2333   2.769   2.214   2.958  0.5852  0.8673 -0.2196
   32CHL1   C19 2334   2.644   2.271   2.883 -0.4893 -0.3392  0.7501
   32CHL1  H19A 2335   2.657   2.272   2.773  0.6891  0.3514  0.8778
   32CHL1  H19B 2336   2.558   2.204   2.904 -0.8580  0.0465  0.5017
   32CHL1  H19C 2337   2.622   2.376   2.912 -1.3934 -0.3499  0.1455
   32CHL1    C1 2338   2.899   2.302   2.927  0.3523 -0.0284  1.2599
   32CHL1   H1A 2339   2.865   2.405   2.953 -0.6653  0.5145 -1.9010
   32CHL1   H1B 2340   2.981   2.280   2.999 -0.7284 -2.5805  1.8143
   32CHL1    C2 2341   2.947   2.296   2.778 -0.1506 -0.1891 -0.1210
   32CHL1   H2A 2342   3.042   2.346   2.749  0.7997 -1.6947  0.2651
   32CHL1   H2B 2343   2.868   2.336   2.711 -0.9114  0.7160  1.2711
   32CHL1   C20 2344   2.407   2.257   3.564 -0.3058 -0.3083  0.8278
   32CHL1   H20 2345   2.309   2.265   3.514 -0.8722  3.0052  2.2124
   32CHL1   C21 2346   2.448   2.407   3.571  0.1102 -0.1073 -1.1858
   32CHL1  H21A 2347   2.436   2.458   3.472  0.1421 -0.1428 -1.2082
   32CHL1  H21B 2348   2.554   2.411   3.604 -0.7035 -3.7927  2.7255
   32CHL1  H21C 2349   2.386   2.464   3.643  2.1422  2.0898 -1.0173
   32CHL1   C22 2350   2.401   2.197   3.706  0.6138  0.1178  0.0533
   32CHL1  H22A 2351   2.355   2.096   3.698  1.6009 -0.2827 -0.7210
   32CHL1  H22B 2352   2.504   2.192   3.748  0.6733  0.2233 -0.0791
   32CHL1   C23 2353   2.317   2.273   3.810  0.3952  0.3501  0.2590
   32CHL1  H23A 2354   2.368   2.370   3.832  2.1746 -0.6673  0.7523
   32CHL1  H23B 2355   2.215   2.278   3.765 -0.0153  0.3116  1.1583
   32CHL1   C24 2356   2.309   2.198   3.943  0.0144  0.5076  0.1952
   32CHL1  H24A 2357   2.328   2.093   3.914 -0.5291 -0.0773  1.8791
   32CHL1  H24B 2358   2.391   2.241   4.004  0.2314  0.9394 -0.3826
   32CHL1   C25 2359   2.179   2.212   4.025  0.1414 -0.1947 -0.3180
   32CHL1   H25 2360   2.101   2.193   3.948  0.6555 -0.9395 -0.6696
   32CHL1   C26 2361   2.177   2.105   4.140 -0.1031 -0.2353 -0.4182
   32CHL1  H26A 2362   2.211   2.009   4.095 -1.1346 -1.4489  1.2577
   32CHL1  H26B 2363   2.244   2.120   4.228 -1.2597 -0.9987  0.6285
   32CHL1  H26C 2364   2.071   2.099   4.173 -0.0652 -2.6762 -0.5245
   32CHL1   C27 2365   2.159   2.351   4.099  0.2486  0.3254 -0.0962
   32CHL1  H27A 2366   2.056   2.345   4.141 -0.8337 -0.2115 -2.6420
   32CHL1  H27B 2367   2.224   2.372   4.187 -0.7337 -2.7884  1.4858
   32CHL1  H27C 2368   2.167   2.437   4.029  1.6446 -0.7408 -1.3129
   33CHL1    C3 2369   2.389   6.224   2.387 -1.0620 -0.1058 -0.0071
   33CHL1    H3 2370   2.323   6.148   2.340 -0.7567 -0.1152 -0.4239
   33CHL1    O3 2371   2.472   6.284   2.285  0.2654  0.3894  0.4646
   33CHL1   H3' 2372   2.518   6.359   2.323 -0.1184  1.3451 -0.8607
   33CHL1    C4 2373   2.292   6.336   2.443  0.2225  0.1864 -1.1598
   33CHL1   H4A 2374   2.363   6.416   2.472  0.4248 -0.2860 -0.3131
   33CHL1   H4B 2375   2.231   6.390   2.368  1.6715  2.1064 -1.0226
   33CHL1    C5 2376   2.215   6.273   2.562  0.0122 -0.3319  0.3823
   33CHL1    C6 2377   2.080   6.288   2.572  0.0593 -0.0005 -0.6013
   33CHL1    H6 2378   2.023   6.344   2.496  1.6436  1.8234 -0.5233
   33CHL1    C7 2379   1.998   6.235   2.685 -0.2051 -0.5015  0.3008
   33CHL1   H7A 2380   1.920   6.308   2.714 -1.2802 -1.1766 -0.8132
   33CHL1   H7B 2381   1.948   6.141   2.654 -0.4594 -0.0182 -0.8249
   33CHL1    C8 2382   2.088   6.186   2.805  0.6464 -0.2826  0.5641
   33CHL1    H8 2383   2.126   6.278   2.853 -1.6148  1.4495 -0.7559
   33CHL1   C14 2384   1.994   6.115   2.902  0.4627 -0.3378  0.0332
   33CHL1   H14 2385   1.956   6.022   2.854  0.5018 -0.4756  0.2693
   33CHL1   C15 2386   1.875   6.187   2.955 -0.1771 -0.3182 -0.3421
   33CHL1  H15A 2387   1.906   6.290   2.984 -1.2010 -0.5415  1.7355
   33CHL1  H15B 2388   1.782   6.207   2.898 -1.4380  1.4139  2.1115
   33CHL1   C16 2389   1.835   6.110   3.080  0.1119 -1.2985 -0.2571
   33CHL1  H16A 2390   1.815   6.169   3.172  0.9690 -0.5192 -0.5510
   33CHL1  H16B 2391   1.739   6.056   3.064 -0.1491 -1.2211  0.9300
   33CHL1   C17 2392   1.951   6.013   3.117 -0.4421 -0.5957 -0.2206
   33CHL1   H17 2393   1.934   5.917   3.062 -0.2329  0.4497 -2.2195
   33CHL1   C13 2394   2.066   6.065   3.026  0.1338  0.7068 -0.0605
   33CHL1   C18 2395   2.142   6.172   3.101 -0.2176  0.7688 -0.2375
   33CHL1  H18A 2396   2.211   6.231   3.037  0.6427 -1.2962 -1.3030
   33CHL1  H18B 2397   2.062   6.240   3.137  0.3877  3.0298 -2.8330
   33CHL1  H18C 2398   2.191   6.137   3.194  0.2254  0.9686 -0.3935
   33CHL1   C12 2399   2.168   5.958   2.974 -0.2853 -0.0042  0.1146
   33CHL1  H12A 2400   2.224   5.918   3.062  1.7333 -2.0889 -1.9697
   33CHL1  H12B 2401   2.115   5.873   2.926 -0.0995  0.0670 -0.2195
   33CHL1   C11 2402   2.270   6.021   2.876  0.0013 -0.2450  0.0910
   33CHL1  H11A 2403   2.334   6.090   2.936  0.1317 -0.2929  0.0069
   33CHL1  H11B 2404   2.342   5.946   2.837 -2.7983 -2.4300 -1.2184
   33CHL1    C9 2405   2.205   6.096   2.760  0.6000  0.0756 -0.2760
   33CHL1    H9 2406   2.158   6.017   2.697  0.6822 -0.8372  0.7666
   33CHL1   C10 2407   2.292   6.183   2.664 -0.5560 -0.0460 -0.1381
   33CHL1   C19 2408   2.382   6.287   2.750 -0.1595 -0.1649 -0.0145
   33CHL1  H19A 2409   2.454   6.228   2.811  1.1320  0.6102 -0.7340
   33CHL1  H19B 2410   2.448   6.343   2.681  1.2949  0.1080  1.5277
   33CHL1  H19C 2411   2.316   6.351   2.812 -1.1629 -0.7620 -0.4305
   33CHL1    C1 2412   2.392   6.085   2.592  0.3203  0.2293 -0.4747
   33CHL1   H1A 2413   2.467   6.039   2.660  0.7630  0.1288 -1.0256
   33CHL1   H1B 2414   2.326   6.005   2.550  1.6265 -1.6169  0.8014
   33CHL1    C2 2415   2.475   6.156   2.489  0.1046  0.0698  0.5620
   33CHL1   H2A 2416   2.538   6.071   2.452  0.9777  1.0262 -0.2037
   33CHL1   H2B 2417   2.553   6.225   2.526  0.5505  0.2517 -0.6583
   33CHL1   C20 2418   1.973   5.981   3.267  0.3737  0.3184  0.3860
   33CHL1   H20 2419   1.994   6.077   3.319 -0.8992 -0.0444  1.6481
   33CHL1   C21 2420   2.083   5.881   3.295 -0.2528 -0.3325  0.0263
   33CHL1  H21A 2421   2.066   5.792   3.231 -0.7182  0.1429 -0.5299
   33CHL1  H21B 2422   2.097   5.853   3.402  2.1732  0.6471  0.0426
   33CHL1  H21C 2423   2.184   5.924   3.275 -0.7230  1.1707  0.7084
   33CHL1   C22 2424   1.839   5.945   3.328  0.9107  0.1705 -0.2648
   33CHL1  H22A 2425   1.769   6.031   3.330  1.7050  0.8788  2.4910
   33CHL1  H22B 2426   1.800   5.857   3.273  3.3460 -0.8552 -0.4933
   33CHL1   C23 2427   1.860   5.899   3.471  0.2614  0.2364  0.5209
   33CHL1  H23A 2428   1.893   5.793   3.477  1.8165  0.7451  1.2010
   33CHL1  H23B 2429   1.915   5.972   3.533 -1.1844  0.5571  1.4729
   33CHL1   C24 2430   1.723   5.895   3.539 -0.6077  0.4223 -0.5799
   33CHL1  H24A 2431   1.675   5.994   3.521  0.4373  0.8628 -1.0825
   33CHL1  H24B 2432   1.652   5.830   3.485  1.7028 -2.3864 -0.4690
   33CHL1   C25 2433   1.733   5.868   3.690  0.0973 -0.9014 -0.4190
   33CHL1   H25 2434   1.820   5.922   3.732 -0.2960 -1.7360  1.5674
   33CHL1   C26 2435   1.594   5.905   3.760  0.1650  0.1293  0.1135
   33CHL1  H26A 2436   1.509   5.867   3.700  0.1868  0.2542  0.0003
   33CHL1  H26B 2437   1.603   5.852   3.857  1.5148 -0.4483 -0.2987
   33CHL1  H26C 2438   1.587   6.016   3.771  3.2982  0.5825 -1.2683
   33CHL1   C27 2439   1.767   5.719   3.717  0.3217  0.3122 -0.4561
   33CHL1  H27A 2440   1.857   5.687   3.660  0.9857  0.9751  0.2041
   33CHL1  H27B 2441   1.775   5.687   3.823 -1.1431  1.7247  0.1262
   33CHL1  H27C 2442   1.679   5.673   3.667  0.0912  2.3212 -2.0635
   34CHL1    C3 2443   4.844   6.012   2.604 -0.2301 -0.0657 -0.6092
   34CHL1    H3 2444   4.934   6.054   2.655 -0.7872  0.3418  0.0634
   34CHL1    O3 2445   4.841   6.064   2.471 -0.0147  0.3453  0.1507
   34CHL1   H3' 2446   4.790   6.007   2.413  0.6138  1.6145 -1.7577
   34CHL1    C4 2447   4.834   5.858   2.603  0.2773 -0.2192 -0.1171
   34CHL1   H4A 2448   4.749   5.822   2.541  0.2122  1.1641 -0.8777
   34CHL1   H4B 2449   4.916   5.810   2.546  1.4729  0.1868  1.2005
   34CHL1    C5 2450   4.833   5.809   2.748  0.4626  0.4466 -0.0584
   34CHL1    C6 2451   4.932   5.741   2.805 -0.4304 -0.6092  0.1430
   34CHL1    H6 2452   5.017   5.709   2.744  0.3737 -0.2388  1.0489
   34CHL1    C7 2453   4.934   5.682   2.947 -0.2918 -0.0642  0.4106
   34CHL1   H7A 2454   4.954   5.573   2.937  1.8917  0.4726 -2.1073
   34CHL1   H7B 2455   5.021   5.733   2.994 -0.0466  0.2379 -0.3609
   34CHL1    C8 2456   4.800   5.702   3.020  0.0074  0.0580 -0.3500
   34CHL1    H8 2457   4.733   5.621   2.984 -0.1893 -0.5363  1.2644
   34CHL1   C14 2458   4.823   5.695   3.166  0.0925 -0.6536  0.3828
   34CHL1   H14 2459   4.880   5.786   3.195 -0.7458  0.1581 -0.4792
   34CHL1   C15 2460   4.910   5.584   3.213 -0.6018 -0.6984 -0.2780
   34CHL1  H15A 2461   4.882   5.487   3.167 -4.3502  0.6761 -1.2544
   34CHL1  H15B 2462   5.016   5.604   3.190 -1.1058  1.2095 -1.1708
   34CHL1   C16 2463   4.872   5.578   3.358 -0.4796  0.4122 -0.4974
   34CHL1  H16A 2464   4.827   5.480   3.382 -0.8233  1.0968  1.9162
   34CHL1  H16B 2465   4.952   5.595   3.433  0.7150 -2.4710 -0.9659
   34CHL1   C17 2466   4.762   5.686   3.383  0.7487 -0.4533  0.7284
   34CHL1   H17 2467   4.817   5.779   3.407 -0.1778 -0.0104  1.2217
   34CHL1   C13 2468   4.697   5.708   3.244  0.4956  0.6958 -0.0455
   34CHL1   C18 2469   4.596   5.583   3.218  0.2832 -0.4656 -0.0137
   34CHL1  H18A 2470   4.640   5.481   3.220  0.6450 -0.3343  2.6025
   34CHL1  H18B 2471   4.502   5.590   3.277 -0.1502 -0.2496 -0.7252
   34CHL1  H18C 2472   4.556   5.591   3.115  0.7651  1.1998 -0.1011
   34CHL1   C12 2473   4.630   5.850   3.214  0.2596  0.3910 -0.0083
   34CHL1  H12A 2474   4.551   5.875   3.288  0.1952  0.8274 -0.2250
   34CHL1  H12B 2475   4.712   5.923   3.230  1.1662 -0.6240  0.1466
   34CHL1   C11 2476   4.589   5.858   3.067 -0.0166 -1.0937 -0.1852
   34CHL1  H11A 2477   4.498   5.796   3.051 -1.5875  1.2917 -0.9217
   34CHL1  H11B 2478   4.561   5.964   3.050  0.3736 -0.7158  1.3307
   34CHL1    C9 2479   4.722   5.830   2.984  0.4424  0.8118  0.3671
   34CHL1    H9 2480   4.799   5.903   3.016  1.6992 -0.1999 -0.2978
   34CHL1   C10 2481   4.708   5.854   2.834 -0.4690  0.0415 -0.2517
   34CHL1   C19 2482   4.587   5.770   2.784  0.2935  0.6943  0.2095
   34CHL1  H19A 2483   4.602   5.661   2.787 -0.7344  0.5523  0.9728
   34CHL1  H19B 2484   4.492   5.804   2.833  0.7837  1.0483  0.9367
   34CHL1  H19C 2485   4.575   5.800   2.678  0.7216  0.6816  0.1566
   34CHL1    C1 2486   4.690   6.009   2.819 -0.6363  0.5997  0.5464
   34CHL1   H1A 2487   4.583   6.032   2.832 -1.1804 -0.7477 -1.0881
   34CHL1   H1B 2488   4.751   6.072   2.887  0.4193  0.5011 -0.2805
   34CHL1    C2 2489   4.722   6.068   2.674 -0.3969  0.3802 -0.2505
   34CHL1   H2A 2490   4.738   6.175   2.699 -0.8069  0.6653 -1.1628
   34CHL1   H2B 2491   4.630   6.049   2.614 -1.7138  0.3030  1.6948
   34CHL1   C20 2492   4.673   5.660   3.506  0.5717  0.2867 -0.0958
   34CHL1   H20 2493   4.602   5.577   3.489  0.3445  0.5578 -0.5029
   34CHL1   C21 2494   4.588   5.785   3.539 -0.7176 -0.1237  0.2200
   34CHL1  H21A 2495   4.658   5.869   3.558 -0.4800 -0.2538 -0.0703
   34CHL1  H21B 2496   4.513   5.769   3.620 -1.8967  1.2508 -0.5578
   34CHL1  H21C 2497   4.524   5.818   3.455 -2.4765  1.1069  1.9752
   34CHL1   C22 2498   4.759   5.618   3.626 -0.7345 -0.0517  0.1197
   34CHL1  H22A 2499   4.825   5.537   3.589 -0.4808  0.8216 -1.3717
   34CHL1  H22B 2500   4.827   5.698   3.662  1.2644 -2.1173  1.1589
   34CHL1   C23 2501   4.685   5.546   3.740  0.5310  0.6549 -0.2560
   34CHL1  H23A 2502   4.615   5.611   3.797  1.7976  0.9384  1.0367
   34CHL1  H23B 2503   4.625   5.462   3.698  3.2934 -0.7489 -1.7129
   34CHL1   C24 2504   4.786   5.502   3.854 -0.1401  0.2202 -0.0516
   34CHL1  H24A 2505   4.869   5.437   3.819  1.2695  1.6830  0.4820
   34CHL1  H24B 2506   4.827   5.589   3.909 -0.3554 -1.1101  2.3411
   34CHL1   C25 2507   4.716   5.409   3.960 -1.1081  0.1486  0.3242
   34CHL1   H25 2508   4.648   5.348   3.898  2.2676 -1.0327 -2.5304
   34CHL1   C26 2509   4.819   5.321   4.026 -0.1678  0.5270 -0.4757
   34CHL1  H26A 2510   4.763   5.244   4.083 -0.0626 -1.0411 -2.3853
   34CHL1  H26B 2511   4.870   5.271   3.940  1.0866  0.1623  0.4523
   34CHL1  H26C 2512   4.889   5.388   4.081  0.0163 -0.4449  0.4970
   34CHL1   C27 2513   4.644   5.497   4.061  0.0090  0.2807  0.4933
   34CHL1  H27A 2514   4.571   5.564   4.010 -0.3947 -1.1146 -0.8318
   34CHL1  H27B 2515   4.600   5.425   4.132  2.5809  0.5642  2.5212
   34CHL1  H27C 2516   4.709   5.566   4.119  0.6837  1.7324 -1.8644
   35CHL1    C3 2517   1.212   1.147   2.810 -0.5513  0.1476 -0.4553
   35CHL1    H3 2518   1.126   1.203   2.852 -1.1274 -1.9363  1.3606
   35CHL1    O3 2519   1.203   1.134   2.669  0.1373 -0.2175  0.1867
   35CHL1   H3' 2520   1.268   1.069   2.641 -1.4857 -1.8539  0.0181
   35CHL1    C4 2521   1.346   1.209   2.855  0.2529 -0.6049 -0.1622
   35CHL1   H4A 2522   1.425   1.153   2.800 -0.5575  0.1080 -2.1124
   35CHL1   H4B 2523   1.352   1.312   2.813 -1.1083 -0.5409 -0.2199
   35CHL1    C5 2524   1.362   1.218   3.004  0.1045  0.3827 -0.6122
   35CHL1    C6 2525   1.381   1.332   3.071 -0.2849  0.0588 -0.2999
   35CHL1    H6 2526   1.384   1.421   3.007  0.0263  0.2618 -0.0022
   35CHL1    C7 2527   1.409   1.341   3.219  0.5743  0.4803  0.3755
   35CHL1   H7A 2528   1.498   1.404   3.239 -0.0199  1.5240 -0.1698
   35CHL1   H7B 2529   1.318   1.391   3.258 -1.3084  0.5168 -3.6061
   35CHL1    C8 2530   1.430   1.202   3.287  0.3142 -1.3551 -0.2842
   35CHL1    H8 2531   1.531   1.159   3.271  0.6306 -0.4180 -0.8878
   35CHL1   C14 2532   1.416   1.209   3.438  0.8423 -0.0412 -0.0099
   35CHL1   H14 2533   1.310   1.240   3.447  0.2661 -1.6382 -0.9522
   35CHL1   C15 2534   1.485   1.330   3.515 -0.2532 -0.4387  0.4220
   35CHL1  H15A 2535   1.588   1.343   3.476 -0.9562  1.1707 -1.0188
   35CHL1  H15B 2536   1.437   1.427   3.490 -0.0548 -0.6847 -0.9822
   35CHL1   C16 2537   1.481   1.292   3.655  0.7449  0.9692 -0.4269
   35CHL1  H16A 2538   1.581   1.275   3.699 -0.7365 -0.0618  2.9573
   35CHL1  H16B 2539   1.427   1.365   3.719  0.7007 -0.6164  1.4391
   35CHL1   C17 2540   1.426   1.144   3.662  1.0101 -0.3897  0.5555
   35CHL1   H17 2541   1.319   1.159   3.688  1.0920 -2.0859  2.1421
   35CHL1   C13 2542   1.438   1.090   3.516  0.5722  0.0694 -0.9073
   35CHL1   C18 2543   1.580   1.036   3.490  0.5580  0.0253  0.2059
   35CHL1  H18A 2544   1.602   1.012   3.384 -1.2462  3.3482 -1.0692
   35CHL1  H18B 2545   1.659   1.104   3.530  1.0433 -1.3490  1.7412
   35CHL1  H18C 2546   1.591   0.950   3.560 -1.9636  0.6085  1.4345
   35CHL1   C12 2547   1.330   0.993   3.470  0.6973  0.2075  0.4534
   35CHL1  H12A 2548   1.340   0.889   3.509  1.4552  0.5323  1.1467
   35CHL1  H12B 2549   1.234   1.030   3.513  0.4068 -1.1542  1.0328
   35CHL1   C11 2550   1.316   0.976   3.314  0.0745 -0.1416 -0.0963
   35CHL1  H11A 2551   1.398   0.907   3.284  1.4607  2.1341 -1.8545
   35CHL1  H11B 2552   1.219   0.924   3.300 -0.5462  0.9241  0.1142
   35CHL1    C9 2553   1.324   1.107   3.236 -0.3848  0.3141 -0.2444
   35CHL1    H9 2554   1.224   1.155   3.241 -0.6686 -0.1824 -1.0773
   35CHL1   C10 2555   1.351   1.085   3.077 -0.5015  0.2535 -0.6011
   35CHL1   C19 2556   1.478   1.003   3.045  1.2150  0.5046  0.7337
   35CHL1  H19A 2557   1.469   0.896   3.072  1.3720  0.5669  1.0294
   35CHL1  H19B 2558   1.492   1.004   2.934 -0.6184  2.8180  0.4381
   35CHL1  H19C 2559   1.564   1.046   3.100  2.4595 -0.7153 -0.1903
   35CHL1    C1 2560   1.218   1.009   3.025 -1.1193 -0.3112 -0.1731
   35CHL1   H1A 2561   1.207   0.909   3.073 -1.7549  0.4396  1.2998
   35CHL1   H1B 2562   1.129   1.067   3.059  0.0737  1.5720 -0.1046
   35CHL1    C2 2563   1.199   1.003   2.872 -0.0165  0.1519 -0.3610
   35CHL1   H2A 2564   1.105   0.961   2.831  1.4448 -1.5493 -2.2561
   35CHL1   H2B 2565   1.279   0.942   2.824 -0.5191 -2.1006  1.4439
   35CHL1   C20 2566   1.482   1.047   3.772  0.1088 -0.3266  0.3101
   35CHL1   H20 2567   1.591   1.033   3.751 -0.3059 -2.0256 -0.8957
   35CHL1   C21 2568   1.415   0.910   3.780 -0.3608  0.7576  0.0544
   35CHL1  H21A 2569   1.438   0.843   3.695  0.1670  0.2392  0.5996
   35CHL1  H21B 2570   1.304   0.919   3.788 -0.3039  0.5311  1.3128
   35CHL1  H21C 2571   1.464   0.866   3.869  2.5891  0.6744 -1.4862
   35CHL1   C22 2572   1.479   1.123   3.908 -0.2256  0.1456  0.3320
   35CHL1  H22A 2573   1.557   1.069   3.967 -1.5071 -0.9575  1.1004
   35CHL1  H22B 2574   1.512   1.227   3.886 -1.9010  0.8325  0.8929
   35CHL1   C23 2575   1.344   1.124   3.980  0.5195  0.5678 -1.1299
   35CHL1  H23A 2576   1.279   1.136   3.891 -1.0715  1.6061  0.1084
   35CHL1  H23B 2577   1.317   1.030   4.034 -0.1480  1.1054 -0.5144
   35CHL1   C24 2578   1.323   1.250   4.066 -0.0015 -0.3383 -0.5120
   35CHL1  H24A 2579   1.373   1.336   4.016 -1.2496 -0.8571 -2.8238
   35CHL1  H24B 2580   1.215   1.276   4.066  0.2162  0.7228  1.2055
   35CHL1   C25 2581   1.365   1.249   4.215  0.2803 -0.5981  0.2272
   35CHL1   H25 2582   1.376   1.356   4.245  2.8331 -1.1269  1.4782
   35CHL1   C26 2583   1.245   1.187   4.292  0.6094 -0.2417 -0.4192
   35CHL1  H26A 2584   1.270   1.169   4.399  1.2008  1.4510 -0.2408
   35CHL1  H26B 2585   1.152   1.249   4.288 -1.2670 -2.9409 -1.3869
   35CHL1  H26C 2586   1.209   1.096   4.240 -0.1026  1.3351 -2.8533
   35CHL1   C27 2587   1.493   1.177   4.260 -0.0361 -0.0699  0.1771
   35CHL1  H27A 2588   1.582   1.204   4.199 -0.1862  0.0549  0.0136
   35CHL1  H27B 2589   1.503   1.203   4.368  0.0760 -1.0516  0.4134
   35CHL1  H27C 2590   1.505   1.067   4.247 -0.5730 -0.2098  0.8123
   36CHL1    C3 2591   5.377   0.491   2.556  0.2223  0.6911 -0.4496
   36CHL1    H3 2592   5.462   0.424   2.582  0.7404  1.3293 -0.4487
   36CHL1    O3 2593   5.380   0.502   2.413 -0.0220 -0.4382  0.5310
   36CHL1   H3' 2594   5.291   0.487   2.380  0.5401 -1.2565 -0.6806
   36CHL1    C4 2595   5.247   0.422   2.605 -0.3656 -0.3488  0.2742
   36CHL1   H4A 2596   5.162   0.491   2.588  0.9254  1.2768  0.1355
   36CHL1   H4B 2597   5.227   0.327   2.552 -1.6648 -0.4299  0.8694
   36CHL1    C5 2598   5.253   0.404   2.755 -0.3057 -0.0938 -0.1483
   36CHL1    C6 2599   5.240   0.278   2.802  0.3182  0.7030  0.0698
   36CHL1    H6 2600   5.225   0.200   2.726 -1.1353 -0.5433  1.5822
   36CHL1    C7 2601   5.238   0.251   2.947 -0.2618  0.2103 -0.2845
   36CHL1   H7A 2602   5.155   0.181   2.975  0.8148  0.0266  2.9695
   36CHL1   H7B 2603   5.334   0.198   2.964 -0.3843 -0.0651 -0.4362
   36CHL1    C8 2604   5.237   0.371   3.047 -0.1784 -0.6092  0.2133
   36CHL1    H8 2605   5.133   0.406   3.065  0.7471  1.7736  1.3396
   36CHL1   C14 2606   5.302   0.331   3.174 -0.1448  0.1660 -1.0141
   36CHL1   H14 2607   5.408   0.307   3.154  0.3627  3.3110 -2.7717
   36CHL1   C15 2608   5.252   0.205   3.240  0.1114 -0.2997 -1.3229
   36CHL1  H15A 2609   5.141   0.198   3.242 -0.0357  0.8529  2.1050
   36CHL1  H15B 2610   5.293   0.112   3.195  0.9043  0.1857 -1.6346
   36CHL1   C16 2611   5.292   0.209   3.390  0.2021 -0.7110  0.1193
   36CHL1  H16A 2612   5.205   0.208   3.458  0.5542  0.6052  0.6146
   36CHL1  H16B 2613   5.366   0.131   3.418  0.2913 -0.7192 -0.1370
   36CHL1   C17 2614   5.366   0.357   3.402  0.0684  0.6827 -0.2952
   36CHL1   H17 2615   5.473   0.340   3.380  0.4507  2.7187 -0.1795
   36CHL1   C13 2616   5.297   0.437   3.285 -0.2790  0.2911 -0.2334
   36CHL1   C18 2617   5.151   0.470   3.326 -0.1016  0.5938 -0.4247
   36CHL1  H18A 2618   5.105   0.541   3.254  0.1328  0.5773 -0.5900
   36CHL1  H18B 2619   5.090   0.377   3.327 -1.3621  1.3955  0.4852
   36CHL1  H18C 2620   5.143   0.514   3.428 -3.5717 -1.6916  0.4846
   36CHL1   C12 2621   5.377   0.553   3.234  0.3268 -0.1360 -0.4129
   36CHL1  H12A 2622   5.368   0.638   3.305 -2.7901  1.1667 -2.1477
   36CHL1  H12B 2623   5.487   0.541   3.235  0.4369  0.6006 -1.7307
   36CHL1   C11 2624   5.344   0.600   3.092 -0.2322 -0.1133 -1.0581
   36CHL1  H11A 2625   5.249   0.659   3.091  0.9404  2.0569  1.8205
   36CHL1  H11B 2626   5.414   0.683   3.070  1.7255 -0.0565  4.0746
   36CHL1    C9 2627   5.317   0.486   2.995 -0.6209 -0.0731  0.5876
   36CHL1    H9 2628   5.419   0.444   2.986 -0.1597  0.7924  1.6710
   36CHL1   C10 2629   5.285   0.530   2.845 -0.2884  0.3301  0.0593
   36CHL1   C19 2630   5.166   0.618   2.844  0.0506  0.0903 -0.2566
   36CHL1  H19A 2631   5.089   0.591   2.919  1.5492  1.8651  2.0906
   36CHL1  H19B 2632   5.190   0.724   2.869 -2.5710  0.5846  0.4626
   36CHL1  H19C 2633   5.120   0.610   2.744 -0.0164 -1.7502 -0.1154
   36CHL1    C1 2634   5.408   0.595   2.777  0.5967 -0.1144  0.1244
   36CHL1   H1A 2635   5.427   0.692   2.827  1.3804  0.5552 -1.3812
   36CHL1   H1B 2636   5.490   0.521   2.794  0.4332 -0.0916  1.0403
   36CHL1    C2 2637   5.397   0.625   2.624 -0.1493 -0.5987  0.9181
   36CHL1   H2A 2638   5.495   0.670   2.597 -0.8784  0.9190  0.7138
   36CHL1   H2B 2639   5.312   0.694   2.608 -0.5394 -0.6997  2.3825
   36CHL1   C20 2640   5.349   0.405   3.549  0.0939  0.2738  0.4047
   36CHL1   H20 2641   5.241   0.416   3.572 -0.2631 -1.0598 -0.4780
   36CHL1   C21 2642   5.434   0.530   3.575  0.8579  0.0882 -0.3171
   36CHL1  H21A 2643   5.544   0.523   3.588  0.7192  0.4058  1.2570
   36CHL1  H21B 2644   5.403   0.585   3.666 -0.6313  0.6233 -1.1048
   36CHL1  H21C 2645   5.411   0.598   3.490  1.0110 -0.0637 -0.4807
   36CHL1   C22 2646   5.394   0.295   3.652 -0.1762 -0.8882 -0.4783
   36CHL1  H22A 2647   5.337   0.202   3.633  0.8011 -1.1628 -2.2600
   36CHL1  H22B 2648   5.499   0.272   3.625  0.0106 -0.6748  0.0428
   36CHL1   C23 2649   5.396   0.346   3.804  0.1161  0.6812 -0.7386
   36CHL1  H23A 2650   5.442   0.447   3.808 -1.0716  1.2154  0.1410
   36CHL1  H23B 2651   5.291   0.361   3.837 -0.7617 -2.7418 -1.6171
   36CHL1   C24 2652   5.478   0.247   3.895  0.5439 -0.4156  0.3768
   36CHL1  H24A 2653   5.437   0.144   3.894  0.4388 -0.3789  0.8358
   36CHL1  H24B 2654   5.579   0.240   3.849  1.1688 -0.4005  1.6875
   36CHL1   C25 2655   5.499   0.286   4.043 -0.4045 -0.4175 -0.8683
   36CHL1   H25 2656   5.579   0.217   4.075 -2.5226 -3.3908 -1.6011
   36CHL1   C26 2657   5.532   0.435   4.057 -0.1032 -0.6027 -0.6919
   36CHL1  H26A 2658   5.450   0.505   4.032  0.2669 -0.0345 -0.3415
   36CHL1  H26B 2659   5.566   0.458   4.160  0.4678 -2.2425 -0.4839
   36CHL1  H26C 2660   5.616   0.459   3.989 -0.9562  1.6017 -1.0401
   36CHL1   C27 2661   5.371   0.248   4.123  0.2430  0.0716  0.3665
   36CHL1  H27A 2662   5.282   0.301   4.084  1.1408  0.7796 -0.8122
   36CHL1  H27B 2663   5.355   0.138   4.124 -2.5876  0.4052  1.3345
   36CHL1  H27C 2664   5.369   0.275   4.230 -2.0970 -0.1943  0.4256
   37CHL1    C3 2665   6.335   0.704   2.698 -0.0712  0.1230 -0.8593
   37CHL1    H3 2666   6.339   0.813   2.677  2.9594  0.0935 -0.8998
   37CHL1    O3 2667   6.329   0.636   2.577  0.5631 -0.4640  0.3484
   37CHL1   H3' 2668   6.407   0.656   2.526  0.4433 -3.6402 -1.2704
   37CHL1    C4 2669   6.461   0.676   2.775  0.4445  0.0059 -0.6516
   37CHL1   H4A 2670   6.456   0.565   2.785 -0.2007  0.0526 -0.3750
   37CHL1   H4B 2671   6.554   0.710   2.725  2.0485  1.8227  3.1828
   37CHL1    C5 2672   6.460   0.734   2.918  0.3969 -0.1287 -0.1717
   37CHL1    C6 2673   6.561   0.815   2.957 -0.0218  0.2086 -0.0634
   37CHL1    H6 2674   6.643   0.843   2.890 -0.0838  0.5759  0.0134
   37CHL1    C7 2675   6.573   0.867   3.090 -0.0788 -0.4345 -0.9012
   37CHL1   H7A 2676   6.662   0.820   3.139 -0.3581 -0.1637 -0.1135
   37CHL1   H7B 2677   6.574   0.977   3.081 -1.8428 -0.4756 -2.0242
   37CHL1    C8 2678   6.472   0.807   3.196 -0.7067  0.0117 -0.0297
   37CHL1    H8 2679   6.504   0.706   3.230 -2.2914 -0.3428  0.4744
   37CHL1   C14 2680   6.470   0.899   3.313  0.0286  0.0646 -0.6972
   37CHL1   H14 2681   6.434   0.993   3.265  0.8288 -0.3375 -2.1235
   37CHL1   C15 2682   6.602   0.944   3.381 -0.3990 -0.4697  0.1436
   37CHL1  H15A 2683   6.656   0.851   3.411 -1.7461 -1.3025  0.0702
   37CHL1  H15B 2684   6.677   1.001   3.323  0.5399 -1.6551  0.1376
   37CHL1   C16 2685   6.553   1.012   3.509  0.0999  0.1677 -0.0035
   37CHL1  H16A 2686   6.611   0.989   3.601 -0.4641 -0.1241  0.2845
   37CHL1  H16B 2687   6.559   1.122   3.499  3.2125  0.1451  0.4282
   37CHL1   C17 2688   6.406   0.973   3.526 -0.7789 -0.7154 -0.3328
   37CHL1   H17 2689   6.351   1.060   3.484  1.4033  0.8312 -0.1525
   37CHL1   C13 2690   6.372   0.858   3.431 -0.1872  0.0407 -0.5939
   37CHL1   C18 2691   6.417   0.725   3.492 -0.0794  0.1950  0.1185
   37CHL1  H18A 2692   6.358   0.702   3.584 -0.5961  0.7168 -0.0696
   37CHL1  H18B 2693   6.414   0.638   3.423 -2.0063  0.7182 -0.5214
   37CHL1  H18C 2694   6.525   0.719   3.514 -0.1394 -2.1170  0.0186
   37CHL1   C12 2695   6.234   0.854   3.370  0.2107 -0.3908 -0.3497
   37CHL1  H12A 2696   6.146   0.837   3.436  0.5845 -1.8526 -0.1970
   37CHL1  H12B 2697   6.225   0.954   3.323  0.1999 -0.2425 -0.0310
   37CHL1   C11 2698   6.230   0.761   3.246  0.7743  0.2665 -1.5075
   37CHL1  H11A 2699   6.262   0.664   3.290  0.3759  1.2201  1.0584
   37CHL1  H11B 2700   6.126   0.756   3.206  0.5024 -1.5151 -0.6802
   37CHL1    C9 2701   6.330   0.797   3.131 -1.2287  0.5803  0.2449
   37CHL1    H9 2702   6.301   0.897   3.092 -0.4285  0.1352 -1.5850
   37CHL1   C10 2703   6.334   0.704   3.006 -0.3116 -0.6000 -0.2020
   37CHL1   C19 2704   6.326   0.555   3.054 -0.7114  0.6670  0.3362
   37CHL1  H19A 2705   6.335   0.490   2.964 -3.8164  0.0992  0.3237
   37CHL1  H19B 2706   6.417   0.530   3.113 -0.1327 -1.7963 -1.4361
   37CHL1  H19C 2707   6.225   0.527   3.090 -2.2854  2.9229 -1.9736
   37CHL1    C1 2708   6.219   0.736   2.911 -0.1455 -0.2107  0.1702
   37CHL1   H1A 2709   6.122   0.720   2.962 -1.2019  5.4718  0.6167
   37CHL1   H1B 2710   6.211   0.845   2.891 -0.9040 -0.1281  0.8989
   37CHL1    C2 2711   6.215   0.662   2.778 -0.1466  0.4094 -0.0291
   37CHL1   H2A 2712   6.119   0.691   2.729 -0.6093 -2.4706 -1.0339
   37CHL1   H2B 2713   6.208   0.552   2.790  0.7991  0.3754  0.2429
   37CHL1   C20 2714   6.373   0.958   3.678  0.0904  0.8208 -0.7139
   37CHL1   H20 2715   6.429   0.873   3.722  0.0597  1.5306  0.7587
   37CHL1   C21 2716   6.223   0.914   3.702 -0.0615  0.3611 -0.1559
   37CHL1  H21A 2717   6.187   0.929   3.806  0.8687  0.0698  0.2246
   37CHL1  H21B 2718   6.211   0.806   3.681 -2.9229  0.1317  2.0376
   37CHL1  H21C 2719   6.160   0.975   3.634 -1.5610 -0.7610  0.1969
   37CHL1   C22 2720   6.392   1.088   3.754  0.0445 -0.1472  0.0115
   37CHL1  H22A 2721   6.498   1.123   3.752 -0.8361  2.8073 -0.1033
   37CHL1  H22B 2722   6.327   1.167   3.710 -0.2702  0.4410  1.4906
   37CHL1   C23 2723   6.360   1.101   3.906 -0.2598  0.4434  0.1575
   37CHL1  H23A 2724   6.381   1.206   3.937  1.2278 -0.2307  1.5977
   37CHL1  H23B 2725   6.253   1.090   3.931 -0.5397  0.1718 -1.1086
   37CHL1   C24 2726   6.445   1.003   3.999  0.5617 -0.0430 -0.4259
   37CHL1  H24A 2727   6.408   1.028   4.101  2.3509 -1.9570  0.7754
   37CHL1  H24B 2728   6.407   0.900   3.981 -0.6679  0.3021  0.0259
   37CHL1   C25 2729   6.597   1.008   3.997 -0.0788  0.0454 -0.1226
   37CHL1   H25 2730   6.634   0.984   3.895  1.8925  0.8047  0.3811
   37CHL1   C26 2731   6.646   1.147   4.042 -0.1250 -0.0593  1.1742
   37CHL1  H26A 2732   6.611   1.226   3.973  0.1411  1.3405  2.5829
   37CHL1  H26B 2733   6.592   1.169   4.137 -1.3401  1.2518  0.2233
   37CHL1  H26C 2734   6.755   1.151   4.061 -0.4084 -1.0947  3.3554
   37CHL1   C27 2735   6.649   0.897   4.088 -0.3296 -0.0671 -0.2318
   37CHL1  H27A 2736   6.617   0.915   4.192  1.8062 -1.3447  0.7039
   37CHL1  H27B 2737   6.615   0.796   4.055  1.9871 -1.1074  0.3609
   37CHL1  H27C 2738   6.760   0.896   4.080 -0.2319  2.3180  0.2312
   38CHL1    C3 2739   3.442   2.411   2.664 -0.0854  0.3946  0.0893
   38CHL1    H3 2740   3.552   2.419   2.645  0.7527 -0.1628  3.7826
   38CHL1    O3 2741   3.356   2.402   2.550 -0.0510 -0.3372 -0.4847
   38CHL1   H3' 2742   3.336   2.309   2.538 -0.3730 -0.5484  1.4076
   38CHL1    C4 2743   3.417   2.277   2.752  0.3090  0.3980 -0.2578
   38CHL1   H4A 2744   3.312   2.244   2.745  0.4888 -0.4657  0.8113
   38CHL1   H4B 2745   3.471   2.191   2.708  1.1993  0.0313  1.4463
   38CHL1    C5 2746   3.453   2.289   2.901 -0.3998  0.4064  0.9980
   38CHL1    C6 2747   3.517   2.184   2.957 -0.0862  0.6401  0.1955
   38CHL1    H6 2748   3.538   2.091   2.901 -3.3734 -0.6842  0.9461
   38CHL1    C7 2749   3.557   2.169   3.102 -0.0497 -0.1116  0.1533
   38CHL1   H7A 2750   3.519   2.076   3.150  1.3279 -1.6974 -1.6472
   38CHL1   H7B 2751   3.667   2.165   3.119 -0.3114 -0.0245  1.9916
   38CHL1    C8 2752   3.494   2.283   3.180  0.0133 -0.1943  0.1056
   38CHL1    H8 2753   3.391   2.253   3.210  0.3189 -1.5818 -0.1645
   38CHL1   C14 2754   3.572   2.290   3.310 -0.3215  1.0165  0.4936
   38CHL1   H14 2755   3.678   2.321   3.296  0.0411  0.1014  1.0777
   38CHL1   C15 2756   3.582   2.170   3.405 -0.6915 -0.1216  0.5678
   38CHL1  H15A 2757   3.485   2.123   3.435 -0.8546  0.7486  1.4491
   38CHL1  H15B 2758   3.655   2.091   3.375 -1.4606 -1.1547  1.3098
   38CHL1   C16 2759   3.641   2.233   3.538  0.2095  0.5279 -0.3459
   38CHL1  H16A 2760   3.596   2.193   3.631  0.7627  0.7495  0.0231
   38CHL1  H16B 2761   3.749   2.204   3.541 -0.7513 -3.5828  1.9884
   38CHL1   C17 2762   3.619   2.388   3.524  0.0942 -0.1386 -0.5070
   38CHL1   H17 2763   3.714   2.437   3.494  0.8883 -0.1723  1.7614
   38CHL1   C13 2764   3.527   2.404   3.410  0.2958  0.9146 -0.1896
   38CHL1   C18 2765   3.381   2.378   3.452 -0.4792  0.7641 -0.1235
   38CHL1  H18A 2766   3.313   2.380   3.364 -0.4549  3.3025 -0.1656
   38CHL1  H18B 2767   3.353   2.284   3.503 -0.7873  0.8222 -0.1830
   38CHL1  H18C 2768   3.338   2.463   3.510 -3.2258  0.7408 -1.9448
   38CHL1   C12 2769   3.530   2.538   3.325  0.0070 -0.1049  0.2468
   38CHL1  H12A 2770   3.485   2.621   3.383 -0.4584 -0.2561  0.1056
   38CHL1  H12B 2771   3.638   2.554   3.304 -0.5377  2.2850 -1.0741
   38CHL1   C11 2772   3.454   2.531   3.190 -0.1226  0.2775  0.7951
   38CHL1  H11A 2773   3.348   2.534   3.221 -0.5039  2.9584 -0.4940
   38CHL1  H11B 2774   3.472   2.626   3.136 -2.4037  0.5197  0.3750
   38CHL1    C9 2775   3.489   2.415   3.107 -0.4648  0.1849  0.4318
   38CHL1    H9 2776   3.594   2.434   3.075 -0.3667  2.7563  1.9637
   38CHL1   C10 2777   3.413   2.419   2.969 -0.4231  0.1053 -0.1302
   38CHL1   C19 2778   3.263   2.397   2.994  0.4491 -0.1245  0.5037
   38CHL1  H19A 2779   3.219   2.486   3.044  1.9802  0.4421  0.9042
   38CHL1  H19B 2780   3.205   2.369   2.903 -1.4236 -0.5597  1.7826
   38CHL1  H19C 2781   3.249   2.307   3.057 -0.4222 -1.4591 -1.4835
   38CHL1    C1 2782   3.445   2.541   2.893  0.2598 -0.6150  0.0577
   38CHL1   H1A 2783   3.379   2.615   2.942 -0.3627 -2.0093  1.4134
   38CHL1   H1B 2784   3.550   2.576   2.890 -0.2812  1.2162  1.0130
   38CHL1    C2 2785   3.403   2.538   2.741 -0.2723 -0.0429  0.2644
   38CHL1   H2A 2786   3.437   2.627   2.685 -0.3175  1.2751  2.2506
   38CHL1   H2B 2787   3.292   2.550   2.736 -0.2086  0.1418 -1.4377
   38CHL1   C20 2788   3.586   2.456   3.660  0.5387 -0.9425 -0.3356
   38CHL1   H20 2789   3.488   2.420   3.696 -0.3314 -0.5552 -2.2084
   38CHL1   C21 2790   3.578   2.613   3.645 -0.4306  0.1618 -0.8272
   38CHL1  H21A 2791   3.675   2.657   3.614 -0.2912  3.6128  3.4088
   38CHL1  H21B 2792   3.562   2.664   3.743  2.3700  1.5310 -0.9817
   38CHL1  H21C 2793   3.491   2.639   3.580 -1.5230 -1.3174 -0.0168
   38CHL1   C22 2794   3.691   2.426   3.771 -0.2072  0.9621  0.0073
   38CHL1  H22A 2795   3.713   2.317   3.773  0.0927  1.0307  1.0661
   38CHL1  H22B 2796   3.784   2.477   3.736 -0.0634  0.8263  0.1927
   38CHL1   C23 2797   3.669   2.476   3.910  0.0545 -0.2558 -0.8650
   38CHL1  H23A 2798   3.638   2.583   3.908 -0.7754 -0.5068 -1.9051
   38CHL1  H23B 2799   3.591   2.417   3.962 -0.4102 -0.5427 -1.8767
   38CHL1   C24 2800   3.789   2.454   4.009  0.0662  0.1294 -0.4451
   38CHL1  H24A 2801   3.796   2.343   4.020 -1.0078 -0.1345 -2.0412
   38CHL1  H24B 2802   3.888   2.487   3.972  0.8903 -0.1742  1.4154
   38CHL1   C25 2803   3.778   2.516   4.151 -0.0410  0.6499  0.5145
   38CHL1   H25 2804   3.678   2.497   4.196 -0.6787  1.9436 -0.2924
   38CHL1   C26 2805   3.891   2.469   4.238 -1.3550  0.6733 -0.2897
   38CHL1  H26A 2806   3.889   2.501   4.344 -1.5927  0.8849 -0.3559
   38CHL1  H26B 2807   3.885   2.358   4.235 -3.2398  0.7258  0.5760
   38CHL1  H26C 2808   3.984   2.496   4.183 -0.4529  1.4467  1.5245
   38CHL1   C27 2809   3.781   2.677   4.139  0.3866  0.5844 -0.2723
   38CHL1  H27A 2810   3.882   2.708   4.105  1.4659 -0.9199  1.3344
   38CHL1  H27B 2811   3.699   2.735   4.093  1.7391  2.0548 -0.8981
   38CHL1  H27C 2812   3.773   2.706   4.246 -3.7596 -0.0841 -0.2254
   39CHL1    C3 2813   3.013   4.555   2.807  0.3207  0.3118  0.9651
   39CHL1    H3 2814   3.082   4.471   2.829 -1.4714 -1.4843  0.1325
   39CHL1    O3 2815   2.954   4.529   2.678  0.3274  0.4426 -0.4612
   39CHL1   H3' 2816   2.953   4.433   2.674  3.1444  0.2771  0.3394
   39CHL1    C4 2817   2.909   4.558   2.918  0.0343  0.6016  0.2856
   39CHL1   H4A 2818   2.828   4.631   2.898 -1.6102 -0.7610  1.6398
   39CHL1   H4B 2819   2.857   4.460   2.916  0.1286  0.5548 -1.9579
   39CHL1    C5 2820   2.977   4.588   3.053  0.5014  0.3570  0.5644
   39CHL1    C6 2821   2.948   4.498   3.156  0.0277 -0.3849  0.3416
   39CHL1    H6 2822   2.874   4.417   3.148 -1.0915  0.6377 -0.0494
   39CHL1    C7 2823   3.001   4.510   3.289 -0.0862 -0.3287 -0.6401
   39CHL1   H7A 2824   2.921   4.491   3.363 -1.2802 -1.6559 -2.2056
   39CHL1   H7B 2825   3.076   4.431   3.312  3.0694  3.4020  4.1036
   39CHL1    C8 2826   3.066   4.653   3.317 -0.4565 -0.1880  0.2005
   39CHL1    H8 2827   2.977   4.720   3.311 -0.0652  0.1965 -3.0934
   39CHL1   C14 2828   3.145   4.651   3.450  0.3944 -0.2989  0.1535
   39CHL1   H14 2829   3.232   4.585   3.432  0.7944  0.6228 -1.4596
   39CHL1   C15 2830   3.072   4.595   3.579  0.4040 -0.1181  0.4139
   39CHL1  H15A 2831   2.982   4.655   3.606 -1.4731 -1.7456 -1.7869
   39CHL1  H15B 2832   3.047   4.487   3.583 -1.2140  0.2466  1.1519
   39CHL1   C16 2833   3.169   4.638   3.694 -0.2835  0.2912 -0.8451
   39CHL1  H16A 2834   3.113   4.678   3.781 -0.4247 -0.9462 -0.3438
   39CHL1  H16B 2835   3.213   4.540   3.722 -0.9807 -0.0379 -0.8752
   39CHL1   C17 2836   3.267   4.745   3.629  0.4066 -0.2102 -0.4421
   39CHL1   H17 2837   3.358   4.692   3.596  0.0900 -1.6753  0.9281
   39CHL1   C13 2838   3.209   4.782   3.491 -0.4054 -0.9290  0.4016
   39CHL1   C18 2839   3.099   4.886   3.507 -0.5069  0.2182 -0.8696
   39CHL1  H18A 2840   3.043   4.907   3.413 -1.1094  0.2106 -0.5185
   39CHL1  H18B 2841   3.023   4.863   3.584  0.3241 -0.3833 -0.2092
   39CHL1  H18C 2842   3.150   4.983   3.527  0.2873  0.5749 -4.0794
   39CHL1   C12 2843   3.305   4.815   3.376 -0.8491 -0.6302 -0.2145
   39CHL1  H12A 2844   3.349   4.916   3.386  1.6498 -1.0887 -4.3414
   39CHL1  H12B 2845   3.394   4.750   3.367  0.1978  0.0680  3.3291
   39CHL1   C11 2846   3.236   4.818   3.238  0.5674 -0.2933 -0.2143
   39CHL1  H11A 2847   3.174   4.910   3.244  3.3781  1.6689  0.3817
   39CHL1  H11B 2848   3.310   4.832   3.156 -0.7894  1.0201 -1.2690
   39CHL1    C9 2849   3.151   4.697   3.197  0.1152  0.1981  0.0438
   39CHL1    H9 2850   3.227   4.617   3.188  1.1146  1.2412 -1.1811
   39CHL1   C10 2851   3.074   4.707   3.063  0.2321  0.4171  0.0835
   39CHL1   C19 2852   2.997   4.839   3.059  0.3328 -0.1685  0.1673
   39CHL1  H19A 2853   2.927   4.843   3.146  0.6799 -0.0735  0.4462
   39CHL1  H19B 2854   3.064   4.926   3.075  0.3205 -0.4663  2.2000
   39CHL1  H19C 2855   2.945   4.859   2.963 -0.7547  4.3071  1.4562
   39CHL1    C1 2856   3.171   4.688   2.949  0.0146 -0.0180  0.1610
   39CHL1   H1A 2857   3.251   4.766   2.942 -0.4357  0.4492  0.1161
   39CHL1   H1B 2858   3.219   4.589   2.960  0.8911  0.3126 -0.5125
   39CHL1    C2 2859   3.108   4.676   2.807 -0.0136  0.7934 -0.3427
   39CHL1   H2A 2860   3.191   4.660   2.735  2.3949 -0.5465  2.4934
   39CHL1   H2B 2861   3.054   4.770   2.785 -1.3339 -0.4003 -2.5812
   39CHL1   C20 2862   3.305   4.856   3.733  0.0631  0.0537  0.2632
   39CHL1   H20 2863   3.210   4.901   3.766 -1.6846 -2.0341 -1.6232
   39CHL1   C21 2864   3.397   4.965   3.677 -0.3540  0.4979 -0.4146
   39CHL1  H21A 2865   3.491   4.916   3.643  1.1802  1.7049  1.8410
   39CHL1  H21B 2866   3.438   5.036   3.752 -0.6038  0.3289 -0.1159
   39CHL1  H21C 2867   3.350   5.024   3.595  1.1586  1.8065 -0.3841
   39CHL1   C22 2868   3.369   4.796   3.856 -0.1171 -0.0255  0.0616
   39CHL1  H22A 2869   3.370   4.685   3.863 -0.4955 -0.1820 -1.8673
   39CHL1  H22B 2870   3.474   4.832   3.868 -0.1653  0.9710 -2.0167
   39CHL1   C23 2871   3.309   4.858   3.983  0.5532 -0.3036  0.2074
   39CHL1  H23A 2872   3.292   4.968   3.978  1.4573 -0.0561  1.9158
   39CHL1  H23B 2873   3.206   4.815   3.988  0.2762  0.1288 -1.1799
   39CHL1   C24 2874   3.384   4.833   4.113 -0.0152  0.9547 -0.1245
   39CHL1  H24A 2875   3.492   4.855   4.103  0.2859 -0.0353  0.6880
   39CHL1  H24B 2876   3.369   4.911   4.190  3.2045  1.3383  0.2505
   39CHL1   C25 2877   3.365   4.692   4.170 -0.5188  0.4056  0.5259
   39CHL1   H25 2878   3.356   4.622   4.084  2.4151 -1.7565  1.8330
   39CHL1   C26 2879   3.479   4.654   4.258 -0.0442 -0.5671  0.0390
   39CHL1  H26A 2880   3.580   4.659   4.210  1.2555  0.8454  2.6623
   39CHL1  H26B 2881   3.507   4.716   4.346  1.2465 -0.9251 -0.0913
   39CHL1  H26C 2882   3.462   4.551   4.293  0.6827 -0.5680  0.4198
   39CHL1   C27 2883   3.226   4.662   4.230 -0.2683  0.7574 -0.0230
   39CHL1  H27A 2884   3.223   4.553   4.252  1.1574  0.9273  1.1277
   39CHL1  H27B 2885   3.217   4.704   4.332 -0.3660  0.9522 -0.1097
   39CHL1  H27C 2886   3.139   4.688   4.165 -2.3230 -0.4896  2.0802
   40CHL1    C3 2887   0.245   2.348   2.592  0.1833 -0.2019  0.0452
   40CHL1    H3 2888   0.216   2.452   2.620 -0.8554  0.5173 -3.2876
   40CHL1    O3 2889   0.372   2.366   2.528 -0.5924  0.8086  0.0110
   40CHL1   H3' 2890   0.355   2.370   2.434 -2.4039  1.3355  0.3084
   40CHL1    C4 2891   0.264   2.255   2.718  0.5131 -0.8896 -0.0491
   40CHL1   H4A 2892   0.315   2.165   2.679  0.7489  0.6267 -3.6321
   40CHL1   H4B 2893   0.331   2.318   2.780 -2.0595 -1.0831  3.2409
   40CHL1    C5 2894   0.133   2.224   2.796  0.4065 -0.4948  0.1502
   40CHL1    C6 2895   0.134   2.244   2.927  0.1871 -0.2581 -0.4623
   40CHL1    H6 2896   0.222   2.281   2.982  0.1229 -0.7063 -0.0483
   40CHL1    C7 2897   0.008   2.224   3.014  0.2126  0.0909 -0.3392
   40CHL1   H7A 2898   0.034   2.159   3.100 -1.3295  0.7527  0.6786
   40CHL1   H7B 2899  -0.031   2.322   3.048  1.0399  0.1866  0.3806
   40CHL1    C8 2900  -0.104   2.146   2.929  0.4300  0.6943 -0.1724
   40CHL1    H8 2901  -0.073   2.040   2.920  1.3111  1.0399 -1.4003
   40CHL1   C14 2902  -0.233   2.151   3.001  0.3940  0.1261 -0.0102
   40CHL1   H14 2903  -0.256   2.260   3.001  0.2439  0.0937  0.0747
   40CHL1   C15 2904  -0.239   2.119   3.152 -0.6503  0.0425  0.5147
   40CHL1  H15A 2905  -0.202   2.018   3.180 -0.9679 -0.1879  0.1247
   40CHL1  H15B 2906  -0.188   2.199   3.209 -1.3821  0.0873  1.1264
   40CHL1   C16 2907  -0.386   2.105   3.179  0.3747  0.4578  0.4463
   40CHL1  H16A 2908  -0.418   2.006   3.216  1.4073 -0.5085 -1.0990
   40CHL1  H16B 2909  -0.417   2.188   3.247 -1.6475 -0.1252  0.2713
   40CHL1   C17 2910  -0.461   2.139   3.048 -0.2837  0.1729  0.7718
   40CHL1   H17 2911  -0.472   2.249   3.042 -1.2973  0.0274 -0.3450
   40CHL1   C13 2912  -0.362   2.098   2.932 -0.3673  0.1409  0.3358
   40CHL1   C18 2913  -0.340   1.946   2.923 -0.5554  0.7016  0.1510
   40CHL1  H18A 2914  -0.420   1.915   2.853  1.0846  0.4999 -1.7262
   40CHL1  H18B 2915  -0.244   1.914   2.878 -1.5416 -1.2475 -0.6750
   40CHL1  H18C 2916  -0.354   1.889   3.018 -1.3254  0.2967 -0.1956
   40CHL1   C12 2917  -0.380   2.148   2.798 -0.2452 -0.4577  0.0536
   40CHL1  H12A 2918  -0.448   2.087   2.734  2.0110 -1.9443 -1.0734
   40CHL1  H12B 2919  -0.408   2.255   2.789  1.4727 -0.0127 -0.4005
   40CHL1   C11 2920  -0.250   2.143   2.714  0.0320 -0.1898 -0.7928
   40CHL1  H11A 2921  -0.231   2.037   2.686  0.2874 -0.3787  0.0854
   40CHL1  H11B 2922  -0.257   2.208   2.624 -0.7857  0.3485 -0.3586
   40CHL1    C9 2923  -0.118   2.198   2.784  0.2295 -0.0451  0.1559
   40CHL1    H9 2924  -0.145   2.305   2.794 -0.2518 -0.0870 -0.6304
   40CHL1   C10 2925   0.014   2.189   2.706  0.2845  0.2291  0.0732
   40CHL1   C19 2926   0.034   2.042   2.657 -0.1848 -0.3317 -0.6006
   40CHL1  H19A 2927  -0.043   2.008   2.585 -0.6208 -0.2389 -0.1845
   40CHL1  H19B 2928   0.126   2.041   2.596 -0.6261 -3.7783 -1.4117
   40CHL1  H19C 2929   0.050   1.959   2.729  1.9151  0.3004 -0.2901
   40CHL1    C1 2930  -0.002   2.275   2.587 -0.0268  0.5517 -0.4182
   40CHL1   H1A 2931  -0.086   2.235   2.525 -1.6036 -1.3166  2.6705
   40CHL1   H1B 2932  -0.020   2.380   2.620 -0.6198  0.3567 -0.1093
   40CHL1    C2 2933   0.133   2.289   2.501 -0.1204  0.9149 -0.1352
   40CHL1   H2A 2934   0.097   2.358   2.422 -1.2033  1.0345  0.4400
   40CHL1   H2B 2935   0.163   2.192   2.457  0.4154  2.1970 -2.7535
   40CHL1   C20 2936  -0.592   2.070   3.051 -0.3848  0.2272 -0.1903
   40CHL1   H20 2937  -0.594   1.960   3.035 -0.7894 -0.0653  1.6431
   40CHL1   C21 2938  -0.669   2.131   2.932  0.1786  0.3775  0.0201
   40CHL1  H21A 2939  -0.683   2.241   2.940 -0.7394  0.1737  1.3956
   40CHL1  H21B 2940  -0.771   2.087   2.934 -0.2388  1.3475  1.2387
   40CHL1  H21C 2941  -0.627   2.115   2.830 -0.3133 -0.6858 -0.0246
   40CHL1   C22 2942  -0.683   2.077   3.183 -0.7424 -0.2495  0.4881
   40CHL1  H22A 2943  -0.783   2.039   3.154 -1.4784 -0.1980  2.7777
   40CHL1  H22B 2944  -0.641   2.003   3.254  1.3224  1.5698  1.2992
   40CHL1   C23 2945  -0.696   2.217   3.237 -0.0294  0.2434  0.1729
   40CHL1  H23A 2946  -0.593   2.255   3.256 -0.4357  1.7040 -0.3444
   40CHL1  H23B 2947  -0.726   2.278   3.149  0.8448 -1.5493 -1.4451
   40CHL1   C24 2948  -0.805   2.226   3.348 -0.0598 -0.5206 -0.9453
   40CHL1  H24A 2949  -0.902   2.184   3.312 -0.4685 -0.7561  0.3707
   40CHL1  H24B 2950  -0.764   2.163   3.430 -0.5110 -1.0087 -1.0899
   40CHL1   C25 2951  -0.833   2.368   3.411 -0.7593 -0.3644 -0.1185
   40CHL1   H25 2952  -0.923   2.408   3.359 -0.6007 -1.7430 -1.5303
   40CHL1   C26 2953  -0.878   2.354   3.557  0.2888  0.1912 -0.5984
   40CHL1  H26A 2954  -0.905   2.452   3.602  2.1115  0.9358 -1.0623
   40CHL1  H26B 2955  -0.968   2.289   3.568 -0.2207  1.1792  1.8292
   40CHL1  H26C 2956  -0.798   2.314   3.623  0.0026 -1.2531 -1.0875
   40CHL1   C27 2957  -0.717   2.467   3.401 -0.4419  0.2073 -0.6731
   40CHL1  H27A 2958  -0.696   2.493   3.295  0.8525 -0.4313 -0.6014
   40CHL1  H27B 2959  -0.738   2.551   3.471  3.8428  0.7468  0.2834
   40CHL1  H27C 2960  -0.620   2.432   3.444 -0.2882  1.0373 -0.3257
   41CHL1    C3 2961   5.310   6.005   2.553  0.6107  0.0362  0.2860
   41CHL1    H3 2962   5.208   5.965   2.534  0.4787  0.2515  0.5346
   41CHL1    O3 2963   5.373   6.016   2.422  0.6201 -0.2269 -0.0694
   41CHL1   H3' 2964   5.401   5.926   2.407 -1.5889 -0.8933 -0.6177
   41CHL1    C4 2965   5.304   6.135   2.626  0.1371 -0.0297  0.0409
   41CHL1   H4A 2966   5.404   6.184   2.635  0.4977 -0.8677  0.7253
   41CHL1   H4B 2967   5.245   6.200   2.558  0.4164  0.4623  0.2587
   41CHL1    C5 2968   5.251   6.107   2.767 -0.7041  0.4845  0.4676
   41CHL1    C6 2969   5.131   6.158   2.804 -0.6183 -0.7102  0.2730
   41CHL1    H6 2970   5.075   6.216   2.729  0.0289 -1.7312 -1.0355
   41CHL1    C7 2971   5.068   6.126   2.937 -0.1234 -0.1170  0.0155
   41CHL1   H7A 2972   5.018   6.213   2.986  2.1192 -0.8358  3.9913
   41CHL1   H7B 2973   4.994   6.045   2.919 -2.6793  1.5959  2.0036
   41CHL1    C8 2974   5.164   6.084   3.045 -0.5396  0.3978 -0.0650
   41CHL1    H8 2975   5.233   6.168   3.070  1.1807 -1.4030  1.5233
   41CHL1   C14 2976   5.097   6.024   3.165 -0.0423 -0.3778 -0.2304
   41CHL1   H14 2977   5.036   5.938   3.129 -1.0878  0.0274  0.5106
   41CHL1   C15 2978   5.009   6.121   3.239  0.9372 -0.6693  0.1105
   41CHL1  H15A 2979   5.063   6.218   3.243  0.3862 -0.3079 -0.9083
   41CHL1  H15B 2980   4.911   6.143   3.191  0.4372 -1.6142  0.6696
   41CHL1   C16 2981   4.985   6.055   3.376 -0.1080 -0.3379 -0.6520
   41CHL1  H16A 2982   5.012   6.124   3.459  2.8712 -0.8333 -1.1031
   41CHL1  H16B 2983   4.885   6.013   3.401 -0.2182 -0.0316 -0.5702
   41CHL1   C17 2984   5.099   5.949   3.397  0.8233  0.8431 -0.7267
   41CHL1   H17 2985   5.052   5.852   3.371 -2.0846  1.4423  1.6369
   41CHL1   C13 2986   5.191   5.973   3.272 -0.1730 -0.5497 -0.2374
   41CHL1   C18 2987   5.283   6.088   3.322 -0.0133  0.3269 -0.4486
   41CHL1  H18A 2988   5.334   6.141   3.240 -1.7107  0.5741 -1.3988
   41CHL1  H18B 2989   5.217   6.158   3.377 -0.8268 -0.3332 -0.5525
   41CHL1  H18C 2990   5.359   6.058   3.397  0.7148 -3.3323 -2.3922
   41CHL1   C12 2991   5.271   5.855   3.215  0.2016 -0.0592  0.7932
   41CHL1  H12A 2992   5.345   5.798   3.274 -0.7745 -0.2771  1.8401
   41CHL1  H12B 2993   5.199   5.780   3.176  0.0701  1.2617 -1.7310
   41CHL1   C11 2994   5.349   5.915   3.092  0.4562 -0.4145  0.4957
   41CHL1  H11A 2995   5.437   5.977   3.121 -0.3199  0.3084  1.4115
   41CHL1  H11B 2996   5.395   5.825   3.048 -0.5971 -0.0808 -1.3916
   41CHL1    C9 2997   5.253   5.971   2.988  0.1597  0.2229  0.4926
   41CHL1    H9 2998   5.179   5.893   2.959  0.6535 -0.0149 -0.1530
   41CHL1   C10 2999   5.327   6.006   2.857  0.9436 -0.5018 -0.4119
   41CHL1   C19 3000   5.471   6.049   2.888  0.3402 -0.1380  0.5852
   41CHL1  H19A 3001   5.514   6.098   2.798 -2.9901  0.6997 -0.6710
   41CHL1  H19B 3002   5.466   6.132   2.961 -1.1504  1.6783 -1.4682
   41CHL1  H19C 3003   5.531   5.963   2.926 -0.7574 -3.1949 -3.7775
   41CHL1    C1 3004   5.337   5.868   2.772 -0.5958 -0.4090  0.2563
   41CHL1   H1A 3005   5.404   5.796   2.823  0.3025  0.1579 -0.1110
   41CHL1   H1B 3006   5.240   5.814   2.757 -0.9232  0.1468  0.3615
   41CHL1    C2 3007   5.393   5.894   2.627  0.2016 -0.5508 -0.7965
   41CHL1   H2A 3008   5.397   5.799   2.569 -1.7181 -0.4725 -1.1073
   41CHL1   H2B 3009   5.495   5.938   2.641  1.9080 -4.3617 -0.0346
   41CHL1   C20 3010   5.155   5.945   3.543 -0.3590  0.1045  0.3520
   41CHL1   H20 3011   5.190   6.047   3.569  1.5615 -0.8739  1.8811
   41CHL1   C21 3012   5.259   5.829   3.548 -0.3709  0.2579 -0.1533
   41CHL1  H21A 3013   5.212   5.739   3.505 -0.6092 -0.7136  2.0281
   41CHL1  H21B 3014   5.301   5.795   3.645  0.8683 -1.1241 -1.1363
   41CHL1  H21C 3015   5.356   5.849   3.497  0.9735  0.8575  2.4610
   41CHL1   C22 3016   5.040   5.912   3.646  0.2345 -0.4198  0.5118
   41CHL1  H22A 3017   4.960   5.989   3.631  1.1837  0.0850 -2.9654
   41CHL1  H22B 3018   4.993   5.814   3.623  0.6925 -0.6546  0.5847
   41CHL1   C23 3019   5.091   5.907   3.792 -0.8360  0.7170 -0.3248
   41CHL1  H23A 3020   5.152   5.815   3.807 -1.3426 -0.0053 -2.3329
   41CHL1  H23B 3021   5.149   5.997   3.817  0.2038  0.1616 -0.6840
   41CHL1   C24 3022   4.973   5.895   3.892  0.0656  0.3399  0.4435
   41CHL1  H24A 3023   4.906   5.983   3.888 -0.6355 -0.2129 -0.5696
   41CHL1  H24B 3024   4.917   5.803   3.865  0.5597  0.3528 -0.7027
   41CHL1   C25 3025   5.013   5.895   4.043 -0.7543  0.6474  0.2886
   41CHL1   H25 3026   5.084   5.978   4.063 -1.2473  0.6781  2.0837
   41CHL1   C26 3027   4.884   5.927   4.133  0.7330  0.5187  0.2520
   41CHL1  H26A 3028   4.841   6.020   4.088 -0.2318  0.2613  0.6382
   41CHL1  H26B 3029   4.806   5.850   4.115  0.2125  1.0146  0.3608
   41CHL1  H26C 3030   4.912   5.928   4.240  2.1377 -0.5366 -0.0866
   41CHL1   C27 3031   5.077   5.766   4.098  0.0868  0.2747  0.0130
   41CHL1  H27A 3032   5.017   5.677   4.067  0.0966  0.3294 -0.1663
   41CHL1  H27B 3033   5.182   5.754   4.065 -0.2650 -1.4600 -0.5866
   41CHL1  H27C 3034   5.083   5.772   4.208  2.3883  1.2751 -0.1213
   42CHL1    C3 3035   0.124   4.075   2.627  1.0401  0.4838 -0.3564
   42CHL1    H3 3036   0.210   4.007   2.642  1.3364  1.1567  1.1814
   42CHL1    O3 3037   0.102   4.120   2.492  0.3564 -0.4658  0.2051
   42CHL1   H3' 3038   0.190   4.131   2.454  0.8865 -3.2755  0.4079
   42CHL1    C4 3039  -0.007   4.005   2.684 -0.6638  0.7292  0.7016
   42CHL1   H4A 3040  -0.093   4.062   2.643 -0.8622 -0.2205 -0.2631
   42CHL1   H4B 3041  -0.005   3.903   2.639  1.0135  0.4809  1.2694
   42CHL1    C5 3042  -0.018   3.982   2.832  0.1368 -0.0989  0.1405
   42CHL1    C6 3043  -0.053   3.872   2.892 -0.4860  0.9964  0.0509
   42CHL1    H6 3044  -0.078   3.782   2.834 -0.8318  1.5754 -0.7127
   42CHL1    C7 3045  -0.062   3.857   3.037 -0.2616 -0.6875  0.6308
   42CHL1   H7A 3046  -0.138   3.780   3.060  0.1827 -0.3968  3.3826
   42CHL1   H7B 3047   0.032   3.817   3.081 -0.9498 -0.8124  2.0438
   42CHL1    C8 3048  -0.087   4.000   3.106  0.3850  0.7277  0.2360
   42CHL1    H8 3049  -0.189   4.029   3.070  0.5715 -0.6224 -1.4651
   42CHL1   C14 3050  -0.078   3.975   3.257 -0.5162  0.0121  0.7829
   42CHL1   H14 3051   0.029   3.949   3.270 -0.4280 -0.5948 -0.9126
   42CHL1   C15 3052  -0.161   3.868   3.330 -0.1017  0.4341  0.1016
   42CHL1  H15A 3053  -0.261   3.886   3.286  0.9231  3.4362 -1.2064
   42CHL1  H15B 3054  -0.126   3.763   3.323 -0.8492  0.2389 -0.9374
   42CHL1   C16 3055  -0.154   3.903   3.480 -0.1569  0.2694 -0.5138
   42CHL1  H16A 3056  -0.255   3.909   3.526  0.6097  0.5347  1.2097
   42CHL1  H16B 3057  -0.099   3.832   3.545 -0.3871 -0.1179 -0.7368
   42CHL1   C17 3058  -0.074   4.038   3.495 -0.0227 -0.0445  0.2995
   42CHL1   H17 3059   0.032   4.007   3.509  0.0375 -0.7833 -1.5711
   42CHL1   C13 3060  -0.085   4.095   3.354 -0.1962  0.1682  0.7937
   42CHL1   C18 3061  -0.220   4.158   3.336 -0.4827 -0.1390 -0.4969
   42CHL1  H18A 3062  -0.308   4.096   3.364  0.7961 -1.2386  1.2340
   42CHL1  H18B 3063  -0.239   4.248   3.399 -0.1326 -1.5378  1.6805
   42CHL1  H18C 3064  -0.238   4.173   3.227 -0.1296 -0.1962 -0.5625
   42CHL1   C12 3065   0.029   4.191   3.307  0.4557 -0.4934  0.0757
   42CHL1  H12A 3066   0.021   4.284   3.366 -2.7469 -0.1343 -0.7636
   42CHL1  H12B 3067   0.132   4.158   3.336  1.1544  2.1350  0.8337
   42CHL1   C11 3068   0.019   4.220   3.157  0.2754 -0.5416  0.0491
   42CHL1  H11A 3069  -0.078   4.273   3.143 -1.1421 -2.2547  2.6816
   42CHL1  H11B 3070   0.108   4.280   3.125  1.7431 -2.0777  1.0612
   42CHL1    C9 3071   0.016   4.099   3.063  0.5914  0.6973 -0.2884
   42CHL1    H9 3072   0.111   4.045   3.084 -0.8794 -1.6946  0.5656
   42CHL1   C10 3073   0.013   4.115   2.906  0.4313 -0.1672  0.5333
   42CHL1   C19 3074  -0.105   4.221   2.877 -0.0609  0.1761  0.1123
   42CHL1  H19A 3075  -0.205   4.191   2.916 -0.0224 -1.3524 -0.8650
   42CHL1  H19B 3076  -0.070   4.318   2.917  3.7117  0.1671 -2.6151
   42CHL1  H19C 3077  -0.121   4.217   2.767  0.1913 -2.4396  0.1032
   42CHL1    C1 3078   0.149   4.175   2.861  0.4280 -0.7695 -0.2469
   42CHL1   H1A 3079   0.177   4.267   2.915  0.6856  1.1004 -3.2940
   42CHL1   H1B 3080   0.226   4.101   2.889  1.9261  0.5703 -0.7033
   42CHL1    C2 3081   0.155   4.200   2.708  0.2980 -1.0439 -0.3054
   42CHL1   H2A 3082   0.245   4.249   2.665 -0.9556  1.0820 -0.6648
   42CHL1   H2B 3083   0.070   4.268   2.684  0.7111  0.1008  1.3522
   42CHL1   C20 3084  -0.116   4.118   3.618  0.1763  0.3712  0.9504
   42CHL1   H20 3085  -0.224   4.132   3.595 -0.0379 -3.3823 -1.0423
   42CHL1   C21 3086  -0.029   4.252   3.619  0.8905 -0.3377 -0.1459
   42CHL1  H21A 3087   0.074   4.215   3.599  0.9741  0.1684 -0.6892
   42CHL1  H21B 3088  -0.037   4.297   3.720 -0.5137 -2.3332  0.6862
   42CHL1  H21C 3089  -0.071   4.321   3.542 -1.0390 -0.7934  0.4606
   42CHL1   C22 3090  -0.107   4.028   3.748  0.5430  0.0728  0.4173
   42CHL1  H22A 3091  -0.188   3.951   3.742  0.0282  0.5709  0.8612
   42CHL1  H22B 3092  -0.005   3.986   3.758  0.5452  0.3790  1.9440
   42CHL1   C23 3093  -0.142   4.109   3.874 -0.0521  0.1337 -0.0708
   42CHL1  H23A 3094  -0.067   4.185   3.902 -1.0806  1.2005 -0.1231
   42CHL1  H23B 3095  -0.234   4.167   3.853  1.1920  2.1867 -0.0696
   42CHL1   C24 3096  -0.147   4.017   4.001  0.3337  0.3558  0.4440
   42CHL1  H24A 3097  -0.206   3.928   3.970  0.7546  0.7694 -1.7215
   42CHL1  H24B 3098  -0.045   3.979   4.020 -0.7329 -2.5695  0.7452
   42CHL1   C25 3099  -0.199   4.090   4.129  0.6688 -0.1067  0.1575
   42CHL1   H25 3100  -0.297   4.132   4.099 -0.0188 -2.2816 -0.8262
   42CHL1   C26 3101  -0.220   3.994   4.239 -0.1480  0.1954 -0.1024
   42CHL1  H26A 3102  -0.122   3.947   4.263 -0.9136  0.0763  3.1320
   42CHL1  H26B 3103  -0.247   4.044   4.334 -0.9747 -0.6305  0.1074
   42CHL1  H26C 3104  -0.300   3.920   4.217 -0.3873  0.2913  0.4358
   42CHL1   C27 3105  -0.102   4.200   4.173  0.0053 -0.2838  1.0124
   42CHL1  H27A 3106  -0.103   4.285   4.102  1.2107  0.7766  2.2046
   42CHL1  H27B 3107  -0.134   4.251   4.266  0.2628 -0.1207  1.0148
   42CHL1  H27C 3108   0.005   4.169   4.181  1.2164  2.1637 -2.7968
   43CHL1    C3 3109   2.463   5.684   2.594  0.2532 -0.0099  0.5342
   43CHL1    H3 3110   2.438   5.791   2.610  2.4511  0.5121  0.7998
   43CHL1    O3 3111   2.500   5.671   2.459  0.5056  0.3078  0.2104
   43CHL1   H3' 3112   2.587   5.712   2.456  0.2597  0.7710 -2.1553
   43CHL1    C4 3113   2.579   5.655   2.684 -0.4154 -0.1901 -0.8102
   43CHL1   H4A 3114   2.625   5.555   2.668 -1.8670 -1.2894  1.3281
   43CHL1   H4B 3115   2.663   5.724   2.660  0.5434 -0.7250  0.8295
   43CHL1    C5 3116   2.538   5.679   2.835  0.1288 -1.0431 -0.4802
   43CHL1    C6 3117   2.593   5.771   2.916 -0.3585  0.5164 -0.6388
   43CHL1    H6 3118   2.675   5.836   2.884  0.9974 -0.9079 -0.2161
   43CHL1    C7 3119   2.561   5.782   3.062  0.2646  0.1532  0.8405
   43CHL1   H7A 3120   2.652   5.789   3.126  1.4620 -2.2401 -0.4794
   43CHL1   H7B 3121   2.483   5.858   3.086 -0.5801  0.2190 -1.8265
   43CHL1    C8 3122   2.486   5.655   3.115 -0.6701 -0.5549  0.9061
   43CHL1    H8 3123   2.548   5.563   3.119 -1.1469 -0.8596  1.4737
   43CHL1   C14 3124   2.425   5.680   3.262  0.1776 -0.1034 -0.2341
   43CHL1   H14 3125   2.342   5.752   3.246 -0.4600 -0.5158  1.0614
   43CHL1   C15 3126   2.511   5.743   3.371 -0.6689  0.3064 -0.6539
   43CHL1  H15A 3127   2.602   5.681   3.386  0.6713  2.4804  0.8126
   43CHL1  H15B 3128   2.548   5.843   3.339 -2.2851  0.5251 -1.9758
   43CHL1   C16 3129   2.427   5.730   3.503  0.1166  0.2864  0.7350
   43CHL1  H16A 3130   2.496   5.682   3.576 -0.7511 -0.5184  1.0404
   43CHL1  H16B 3131   2.376   5.824   3.530 -0.8775  1.1223 -3.3805
   43CHL1   C17 3132   2.314   5.629   3.465 -0.5275 -0.9441  0.4176
   43CHL1   H17 3133   2.229   5.697   3.442  0.9565  1.6137  1.8569
   43CHL1   C13 3134   2.347   5.563   3.329  0.2971  0.0090  0.0190
   43CHL1   C18 3135   2.449   5.448   3.343  0.2109 -0.1882 -0.5707
   43CHL1  H18A 3136   2.530   5.469   3.416  0.4165  2.0826 -1.3753
   43CHL1  H18B 3137   2.402   5.354   3.379  0.0714 -0.0227 -0.3180
   43CHL1  H18C 3138   2.500   5.426   3.247 -2.4271  0.0477 -2.1203
   43CHL1   C12 3139   2.230   5.530   3.236  0.7241  0.0282 -0.8215
   43CHL1  H12A 3140   2.190   5.431   3.266  0.8251 -0.4284 -2.1225
   43CHL1  H12B 3141   2.148   5.604   3.255  1.3960  0.9549 -1.4457
   43CHL1   C11 3142   2.276   5.509   3.093  0.0091  0.0497  0.8502
   43CHL1  H11A 3143   2.328   5.411   3.086 -2.1249 -1.1375  0.9205
   43CHL1  H11B 3144   2.185   5.506   3.030 -0.6594  0.7238  1.7572
   43CHL1    C9 3145   2.367   5.615   3.027 -0.2225 -0.4448 -0.1043
   43CHL1    H9 3146   2.302   5.706   3.031  0.1910 -0.1860  1.5772
   43CHL1   C10 3147   2.419   5.588   2.882 -0.8638  0.5376  0.7299
   43CHL1   C19 3148   2.470   5.439   2.878 -0.3889  0.4686 -0.2061
   43CHL1  H19A 3149   2.493   5.411   2.773 -1.6969  0.9401 -0.6414
   43CHL1  H19B 3150   2.562   5.431   2.939 -0.4652  2.1654  0.1775
   43CHL1  H19C 3151   2.391   5.370   2.915 -1.1669  1.1845 -0.4783
   43CHL1    C1 3152   2.308   5.618   2.778  0.1313  0.6023  0.3155
   43CHL1   H1A 3153   2.220   5.556   2.803  0.6738  0.0458  0.8706
   43CHL1   H1B 3154   2.280   5.725   2.785  2.0329  1.5603 -3.5743
   43CHL1    C2 3155   2.339   5.597   2.631  0.8645 -0.0407  1.0649
   43CHL1   H2A 3156   2.253   5.632   2.571  1.7297 -0.1450 -0.2855
   43CHL1   H2B 3157   2.353   5.491   2.601 -0.4568  0.3702 -1.1737
   43CHL1   C20 3158   2.272   5.544   3.587 -0.1464 -0.3862  0.2127
   43CHL1   H20 3159   2.356   5.478   3.616 -1.5524 -3.1056 -1.4481
   43CHL1   C21 3160   2.155   5.457   3.551 -0.1322 -0.2989 -0.1077
   43CHL1  H21A 3161   2.174   5.364   3.492 -1.1109 -1.0012  0.6405
   43CHL1  H21B 3162   2.095   5.523   3.485  0.9701  1.4711  0.5883
   43CHL1  H21C 3163   2.084   5.438   3.635  2.2749 -0.1945  2.0625
   43CHL1   C22 3164   2.228   5.622   3.711  0.1643 -0.8182 -0.2740
   43CHL1  H22A 3165   2.290   5.710   3.738 -1.7955 -0.2712  2.9184
   43CHL1  H22B 3166   2.127   5.666   3.692 -0.2469 -1.1796  0.9947
   43CHL1   C23 3167   2.219   5.546   3.847  0.2149 -0.3154 -0.4873
   43CHL1  H23A 3168   2.139   5.469   3.841  0.9219 -0.9614 -2.5451
   43CHL1  H23B 3169   2.307   5.481   3.867 -0.6787 -0.7127  2.7644
   43CHL1   C24 3170   2.196   5.632   3.976 -0.2194 -0.5949  0.0395
   43CHL1  H24A 3171   2.261   5.720   3.992 -2.2397  1.3042 -1.5871
   43CHL1  H24B 3172   2.096   5.681   3.973 -1.1063 -1.8265  3.8606
   43CHL1   C25 3173   2.173   5.539   4.093 -0.3321  0.0021 -0.0097
   43CHL1   H25 3174   2.111   5.453   4.060  0.9219 -0.8774 -0.1236
   43CHL1   C26 3175   2.315   5.488   4.136  0.7297 -0.6118  0.7217
   43CHL1  H26A 3176   2.293   5.432   4.230 -1.1340 -0.9090  0.1465
   43CHL1  H26B 3177   2.368   5.423   4.063 -0.4232  1.8006 -2.4772
   43CHL1  H26C 3178   2.385   5.569   4.166 -0.8343  0.5578  1.3677
   43CHL1   C27 3179   2.102   5.610   4.214 -0.5187 -0.1788  0.9966
   43CHL1  H27A 3180   2.165   5.697   4.242  0.6426 -0.1094 -1.5767
   43CHL1  H27B 3181   2.002   5.646   4.181 -0.7386  0.0654  1.8899
   43CHL1  H27C 3182   2.082   5.537   4.296 -2.1608 -0.0609  0.7373
   44CHL1    C3 3183   1.258   4.914   2.543 -0.4487 -0.0635 -0.2153
   44CHL1    H3 3184   1.236   5.022   2.536  1.1819  0.2678 -0.7102
   44CHL1    O3 3185   1.246   4.850   2.414  0.4892  0.4087 -0.1718
   44CHL1   H3' 3186   1.153   4.833   2.402  0.4786 -2.8346  2.7457
   44CHL1    C4 3187   1.393   4.883   2.612  0.3542  0.5438 -0.1052
   44CHL1   H4A 3188   1.409   4.773   2.611 -1.1741  0.2913 -0.5464
   44CHL1   H4B 3189   1.473   4.926   2.549  0.3538 -1.2348 -1.3727
   44CHL1    C5 3190   1.402   4.936   2.754  0.6962  0.0509 -0.5680
   44CHL1    C6 3191   1.498   5.019   2.794  0.1827  0.0311  0.2027
   44CHL1    H6 3192   1.578   5.052   2.726  1.2703  1.2910  2.0039
   44CHL1    C7 3193   1.506   5.078   2.937  0.6035  1.0426  0.3746
   44CHL1   H7A 3194   1.615   5.076   2.959  0.1837 -1.0844  2.6862
   44CHL1   H7B 3195   1.455   5.176   2.930 -0.2592  0.6262  0.6865
   44CHL1    C8 3196   1.426   4.989   3.032  0.1322 -0.7692 -0.3361
   44CHL1    H8 3197   1.477   4.891   3.035 -0.9278 -1.3317 -0.1864
   44CHL1   C14 3198   1.423   5.055   3.171  0.0381  0.2598 -0.6303
   44CHL1   H14 3199   1.380   5.157   3.159 -0.3440  0.4393  1.7562
   44CHL1   C15 3200   1.557   5.088   3.237 -0.2589  0.1892 -1.0870
   44CHL1  H15A 3201   1.625   5.005   3.208  0.8940  0.7434 -0.0767
   44CHL1  H15B 3202   1.610   5.178   3.201  4.1028 -1.3195  0.8724
   44CHL1   C16 3203   1.523   5.077   3.384  0.7579  0.0501  0.4116
   44CHL1  H16A 3204   1.579   4.996   3.435 -2.2228 -1.8479  0.9591
   44CHL1  H16B 3205   1.545   5.166   3.448  2.1806 -0.4326  0.6275
   44CHL1   C17 3206   1.375   5.046   3.399  0.0875 -0.1942  0.0477
   44CHL1   H17 3207   1.325   5.145   3.392 -0.1471 -0.3075  0.1170
   44CHL1   C13 3208   1.338   4.974   3.271  0.3617 -0.0031  1.2007
   44CHL1   C18 3209   1.388   4.829   3.277 -1.0159  0.1172 -0.1610
   44CHL1  H18A 3210   1.492   4.841   3.315 -0.9626  1.2966 -0.6433
   44CHL1  H18B 3211   1.336   4.758   3.346  1.5737 -0.6827  1.0899
   44CHL1  H18C 3212   1.399   4.777   3.179  0.2652 -1.6206  0.8359
   44CHL1   C12 3213   1.193   4.984   3.217 -0.0166  0.4147 -0.1486
   44CHL1  H12A 3214   1.119   4.940   3.288 -2.3583  0.1484 -2.5695
   44CHL1  H12B 3215   1.161   5.091   3.210 -1.6896 -0.0552 -0.1309
   44CHL1   C11 3216   1.189   4.910   3.079  0.1819  0.0604 -0.1954
   44CHL1  H11A 3217   1.206   4.802   3.099  2.7232  0.1189 -1.6299
   44CHL1  H11B 3218   1.085   4.931   3.048  0.0188  3.3575  2.0098
   44CHL1    C9 3219   1.287   4.969   2.974 -0.1779  0.5173 -0.2059
   44CHL1    H9 3220   1.249   5.071   2.951  2.7046  2.0841  1.4588
   44CHL1   C10 3221   1.286   4.896   2.844 -1.3776  0.1268  0.5075
   44CHL1   C19 3222   1.304   4.739   2.872  0.0086  0.8264 -0.6430
   44CHL1  H19A 3223   1.222   4.697   2.935  2.2516 -1.4834  0.9388
   44CHL1  H19B 3224   1.316   4.678   2.780 -0.3316 -0.1801 -0.0397
   44CHL1  H19C 3225   1.388   4.722   2.942 -1.2869 -0.7110  0.6113
   44CHL1    C1 3226   1.148   4.921   2.774  0.0168 -0.2427 -0.4375
   44CHL1   H1A 3227   1.075   4.868   2.838  0.8821 -1.1221 -0.1502
   44CHL1   H1B 3228   1.115   5.027   2.776 -0.6024 -0.4359 -0.0323
   44CHL1    C2 3229   1.142   4.861   2.640 -0.2529 -0.4709  0.2685
   44CHL1   H2A 3230   1.039   4.872   2.600 -0.7756 -0.8535  1.4704
   44CHL1   H2B 3231   1.153   4.751   2.649 -3.0699 -0.9266 -0.8343
   44CHL1   C20 3232   1.337   4.979   3.536 -0.1215 -0.1641  0.5048
   44CHL1   H20 3233   1.371   4.873   3.533  1.5725  0.3604 -2.2585
   44CHL1   C21 3234   1.179   4.964   3.558  0.0139  0.1431  0.2791
   44CHL1  H21A 3235   1.123   5.056   3.531 -2.4611 -1.8178 -1.7571
   44CHL1  H21B 3236   1.149   4.935   3.661  0.8642 -3.3381 -0.3251
   44CHL1  H21C 3237   1.147   4.880   3.493 -1.6595  1.7818 -1.1207
   44CHL1   C22 3238   1.401   5.054   3.652 -0.2002 -0.5735 -0.5991
   44CHL1  H22A 3239   1.511   5.043   3.650 -0.1459 -0.2242  0.4623
   44CHL1  H22B 3240   1.364   5.158   3.646 -3.4852 -1.6304 -0.7597
   44CHL1   C23 3241   1.359   5.019   3.793 -0.0698 -0.4967  0.4304
   44CHL1  H23A 3242   1.253   5.046   3.811  0.1197  0.9257 -0.4214
   44CHL1  H23B 3243   1.376   4.910   3.799  0.9206 -0.2837  2.4796
   44CHL1   C24 3244   1.435   5.098   3.900  0.2214 -0.1161  0.3250
   44CHL1  H24A 3245   1.545   5.101   3.883  0.0288  1.2342 -0.8901
   44CHL1  H24B 3246   1.397   5.202   3.893 -1.4270 -0.7470 -0.9835
   44CHL1   C25 3247   1.405   5.029   4.037 -0.1640 -0.4729  0.1649
   44CHL1   H25 3248   1.421   4.919   4.036  1.2429 -0.3376  1.6807
   44CHL1   C26 3249   1.499   5.081   4.147 -0.2010 -1.1642  0.3515
   44CHL1  H26A 3250   1.492   5.191   4.163 -1.2976 -0.9297 -1.5107
   44CHL1  H26B 3251   1.470   5.034   4.243  0.9373  0.0680  1.3373
   44CHL1  H26C 3252   1.602   5.066   4.109  0.4229  1.0156  1.0487
   44CHL1   C27 3253   1.258   5.061   4.078  0.4111 -0.0158 -0.4171
   44CHL1  H27A 3254   1.188   4.989   4.031 -0.5061  0.5430  0.0756
   44CHL1  H27B 3255   1.249   5.063   4.189  1.7452 -2.5149 -0.1871
   44CHL1  H27C 3256   1.228   5.163   4.049 -0.1253  0.7830  2.5465
   45CHL1    C3 3257   1.911   2.083   2.636  0.0962  0.1947  0.7970
   45CHL1    H3 3258   1.806   2.049   2.646 -0.2976 -0.3147 -3.1620
   45CHL1    O3 3259   1.954   2.077   2.497 -0.1632 -0.0306 -0.1073
   45CHL1   H3' 3260   2.020   2.146   2.483 -1.1209  0.7664 -0.8559
   45CHL1    C4 3261   1.933   2.219   2.705 -0.1632 -0.3965  0.4522
   45CHL1   H4A 3262   2.039   2.252   2.696 -1.5614  4.9742  0.0989
   45CHL1   H4B 3263   1.892   2.295   2.635  1.2406  0.1011  0.1293
   45CHL1    C5 3264   1.887   2.230   2.854  0.2346  0.4696  0.5092
   45CHL1    C6 3265   1.784   2.311   2.890 -0.1178 -0.0565  0.2202
   45CHL1    H6 3266   1.723   2.352   2.808  1.1951 -2.2643 -2.0030
   45CHL1    C7 3267   1.740   2.329   3.024 -0.1356  0.1343  0.8553
   45CHL1   H7A 3268   1.718   2.436   3.042 -2.2240 -0.6820  3.9972
   45CHL1   H7B 3269   1.642   2.282   3.047 -0.2798 -0.4769 -0.8844
   45CHL1    C8 3270   1.849   2.278   3.119  0.3807 -0.4480 -0.0573
   45CHL1    H8 3271   1.933   2.349   3.127  0.0783  0.0595 -1.2718
   45CHL1   C14 3272   1.784   2.279   3.264 -0.1289 -0.0798 -0.0936
   45CHL1   H14 3273   1.707   2.199   3.256  0.2980 -0.6361  1.2038
   45CHL1   C15 3274   1.723   2.400   3.324  0.7371  0.0673 -0.5414
   45CHL1  H15A 3275   1.785   2.492   3.317  1.0800  0.0515  1.6574
   45CHL1  H15B 3276   1.627   2.437   3.282 -0.2981 -0.6621  1.0737
   45CHL1   C16 3277   1.701   2.369   3.468 -0.2962 -0.5781  0.5923
   45CHL1  H16A 3278   1.755   2.447   3.525  0.7879  0.7340 -2.0564
   45CHL1  H16B 3279   1.593   2.361   3.493 -0.0494 -0.1751  1.8846
   45CHL1   C17 3280   1.781   2.231   3.502  0.2478 -0.4469  0.2004
   45CHL1   H17 3281   1.705   2.150   3.500 -2.7892  2.2337 -0.3233
   45CHL1   C13 3282   1.874   2.221   3.373 -0.1949 -0.1765  0.5319
   45CHL1   C18 3283   2.000   2.305   3.403 -0.7178  0.4363  0.5174
   45CHL1  H18A 3284   2.075   2.262   3.474  0.6863 -0.1946 -1.2637
   45CHL1  H18B 3285   2.058   2.327   3.310  0.3109  1.6632  1.4116
   45CHL1  H18C 3286   1.971   2.404   3.443  0.5242  1.7769 -1.6927
   45CHL1   C12 3287   1.914   2.076   3.337  0.0053 -0.6408  0.0942
   45CHL1  H12A 3288   1.987   2.038   3.412  1.7306  1.2508 -0.5432
   45CHL1  H12B 3289   1.820   2.017   3.340  0.2910 -1.0562  1.5600
   45CHL1   C11 3290   1.972   2.062   3.200 -0.2122 -0.0815  0.3705
   45CHL1  H11A 3291   2.074   2.107   3.205 -0.4112  0.6856 -1.5305
   45CHL1  H11B 3292   1.985   1.954   3.178 -0.7651 -0.9639  3.7773
   45CHL1    C9 3293   1.897   2.131   3.084 -0.7538 -0.3976  0.8321
   45CHL1    H9 3294   1.802   2.074   3.073 -1.3480  0.4663  1.3356
   45CHL1   C10 3295   1.963   2.138   2.945  0.5243 -0.2442 -0.3227
   45CHL1   C19 3296   2.107   2.203   2.961 -0.1640  0.6705 -0.0426
   45CHL1  H19A 3297   2.154   2.228   2.863 -0.3107  0.4324 -0.1737
   45CHL1  H19B 3298   2.111   2.296   3.023  0.0591  1.4361 -1.1783
   45CHL1  H19C 3299   2.169   2.125   3.010 -0.2833  0.1108 -0.7668
   45CHL1    C1 3300   1.972   1.996   2.875  0.5314  0.1379  0.0096
   45CHL1   H1A 3301   2.033   1.924   2.934 -0.6369 -0.3259  0.6894
   45CHL1   H1B 3302   1.870   1.953   2.884 -1.0701  3.5432 -0.2327
   45CHL1    C2 3303   1.998   1.991   2.719 -0.0660 -0.0492 -0.2084
   45CHL1   H2A 3304   1.963   1.892   2.682 -1.6684  0.3806  0.0756
   45CHL1   H2B 3305   2.107   1.992   2.702 -0.4557 -0.2791 -3.4125
   45CHL1   C20 3306   1.844   2.238   3.639  0.1189 -0.1182 -0.2066
   45CHL1   H20 3307   1.915   2.321   3.659 -1.0109  0.5611  1.1753
   45CHL1   C21 3308   1.915   2.104   3.660  0.8767  0.2869  0.3661
   45CHL1  H21A 3309   2.010   2.100   3.603  0.5759  1.7966 -0.2774
   45CHL1  H21B 3310   1.855   2.010   3.655  0.5101  0.3610  2.3139
   45CHL1  H21C 3311   1.948   2.115   3.766  0.3107  2.8656  0.3206
   45CHL1   C22 3312   1.738   2.254   3.757 -0.6288  0.8952  0.9154
   45CHL1  H22A 3313   1.679   2.345   3.732  0.8955  1.4820 -0.7490
   45CHL1  H22B 3314   1.684   2.157   3.756  0.0228  0.5298  0.1264
   45CHL1   C23 3315   1.790   2.277   3.899 -0.0462 -0.2197 -0.2681
   45CHL1  H23A 3316   1.867   2.204   3.934  0.5626 -0.5829 -2.2481
   45CHL1  H23B 3317   1.834   2.379   3.897 -3.3154  1.3410 -2.6469
   45CHL1   C24 3318   1.668   2.276   3.993  0.2382  1.1469 -0.3488
   45CHL1  H24A 3319   1.596   2.356   3.968 -0.2475  0.6552 -0.5630
   45CHL1  H24B 3320   1.625   2.173   3.983  0.1260  1.3348 -2.3702
   45CHL1   C25 3321   1.690   2.286   4.138  0.0822  1.0606 -1.0433
   45CHL1   H25 3322   1.737   2.385   4.159 -0.1864  0.7524  1.2147
   45CHL1   C26 3323   1.557   2.293   4.219  0.6739  0.2251  0.6571
   45CHL1  H26A 3324   1.565   2.290   4.330 -0.8335  1.3717  0.8405
   45CHL1  H26B 3325   1.503   2.387   4.194  1.0574  0.0891 -0.7668
   45CHL1  H26C 3326   1.488   2.212   4.189 -1.3730  1.8753  0.6310
   45CHL1   C27 3327   1.782   2.171   4.202  0.0550 -0.1662  0.9690
   45CHL1  H27A 3328   1.810   2.205   4.303  0.2413 -0.6468  1.0796
   45CHL1  H27B 3329   1.731   2.072   4.212  0.6210 -0.3409  2.2754
   45CHL1  H27C 3330   1.880   2.159   4.152  0.1068 -2.9633  1.5796
   46CHL1    C3 3331   3.727   4.755   3.075 -0.3869 -0.3357 -0.7212
   46CHL1    H3 3332   3.619   4.740   3.097 -0.5833 -0.7579 -1.8956
   46CHL1    O3 3333   3.750   4.707   2.946  0.6877  0.5082 -0.0617
   46CHL1   H3' 3334   3.817   4.766   2.909 -1.3845  2.6175 -0.6951
   46CHL1    C4 3335   3.791   4.893   3.093  0.3071  0.3475 -0.1269
   46CHL1   H4A 3336   3.899   4.885   3.066  0.6366  2.0756  0.5278
   46CHL1   H4B 3337   3.739   4.962   3.023  1.4217  2.7233  1.2398
   46CHL1    C5 3338   3.787   4.943   3.231  0.4888 -0.1830 -0.1664
   46CHL1    C6 3339   3.727   5.065   3.259  0.3693  0.1434  0.1431
   46CHL1    H6 3340   3.692   5.131   3.177 -0.5378 -0.4777  0.0149
   46CHL1    C7 3341   3.718   5.126   3.401 -0.1962 -0.0597 -0.8821
   46CHL1   H7A 3342   3.746   5.233   3.398 -0.1425 -0.0281  0.4098
   46CHL1   H7B 3343   3.618   5.108   3.445 -0.5904  0.6172 -1.4776
   46CHL1    C8 3344   3.815   5.056   3.497 -0.0224  0.7959 -0.5453
   46CHL1    H8 3345   3.916   5.094   3.471 -0.5128  2.5449 -0.0252
   46CHL1   C14 3346   3.786   5.103   3.640  1.1054  0.2677  0.0412
   46CHL1   H14 3347   3.684   5.060   3.650  1.2607  0.2650  2.2521
   46CHL1   C15 3348   3.782   5.251   3.667  0.3340  0.7908 -0.5297
   46CHL1  H15A 3349   3.870   5.306   3.628  2.3280 -1.3599  0.6904
   46CHL1  H15B 3350   3.690   5.303   3.631 -0.9352 -0.3119  0.9885
   46CHL1   C16 3351   3.794   5.260   3.827 -0.0309  0.3672 -0.4435
   46CHL1  H16A 3352   3.885   5.320   3.848 -0.7089  1.7219 -1.2287
   46CHL1  H16B 3353   3.700   5.304   3.866 -2.1430 -0.3569 -4.2816
   46CHL1   C17 3354   3.814   5.109   3.876 -0.1079 -0.3562 -0.7237
   46CHL1   H17 3355   3.714   5.065   3.894  0.2420 -1.7035 -1.8431
   46CHL1   C13 3356   3.867   5.037   3.752 -0.4815 -0.1399 -0.3834
   46CHL1   C18 3357   4.022   5.065   3.736  1.0789  0.0702 -0.1008
   46CHL1  H18A 3358   4.054   5.054   3.630  0.0281  2.6320 -0.7431
   46CHL1  H18B 3359   4.031   5.173   3.759  0.0898 -0.2557  2.0450
   46CHL1  H18C 3360   4.084   5.010   3.811  1.3779 -0.6897 -0.8750
   46CHL1   C12 3361   3.839   4.886   3.745  0.4024  0.2296 -0.3532
   46CHL1  H12A 3362   3.894   4.829   3.823  0.0825  0.7712  0.2715
   46CHL1  H12B 3363   3.730   4.880   3.762  0.6943  0.8538  2.1456
   46CHL1   C11 3364   3.868   4.828   3.605 -0.6914  1.3245  0.2166
   46CHL1  H11A 3365   3.979   4.828   3.603 -0.6890  2.0151 -0.3671
   46CHL1  H11B 3366   3.839   4.721   3.603  0.7686  0.7891  2.8612
   46CHL1    C9 3367   3.805   4.901   3.481 -0.3528  0.1162 -0.1503
   46CHL1    H9 3368   3.697   4.879   3.490  0.2560 -3.4428 -0.3360
   46CHL1   C10 3369   3.840   4.851   3.343 -0.3365  0.7615  0.2503
   46CHL1   C19 3370   3.996   4.837   3.338  0.9195  0.4247 -0.5266
   46CHL1  H19A 3371   4.023   4.810   3.233 -0.9102  2.1769 -1.5211
   46CHL1  H19B 3372   4.044   4.935   3.356  0.6934 -0.0206  3.0487
   46CHL1  H19C 3373   4.033   4.768   3.417 -1.5425 -0.7173 -0.2682
   46CHL1    C1 3374   3.775   4.709   3.311  0.6615  0.1333  0.2885
   46CHL1   H1A 3375   3.826   4.633   3.373  0.1382 -3.2621 -3.1064
   46CHL1   H1B 3376   3.667   4.701   3.336  0.4371 -2.0557 -1.1866
   46CHL1    C2 3377   3.799   4.657   3.168  0.0210 -0.0731  0.0814
   46CHL1   H2A 3378   3.759   4.554   3.154  1.2196 -0.7700  1.4670
   46CHL1   H2B 3379   3.906   4.656   3.136  0.4104  2.3547  1.1344
   46CHL1   C20 3380   3.903   5.107   4.005 -0.2683 -0.2819 -0.3651
   46CHL1   H20 3381   3.997   5.162   3.983  0.3624 -1.3722 -0.5263
   46CHL1   C21 3382   3.937   4.967   4.051  0.1742  0.1974  0.3550
   46CHL1  H21A 3383   3.845   4.921   4.093 -0.1886  0.6452  0.0551
   46CHL1  H21B 3384   3.999   4.973   4.144 -0.9484  1.8954  1.0508
   46CHL1  H21C 3385   3.995   4.899   3.985 -1.2125 -1.6425  0.9374
   46CHL1   C22 3386   3.834   5.184   4.125  0.3828 -0.7464 -0.0343
   46CHL1  H22A 3387   3.891   5.163   4.218 -0.1733  1.3411  0.8359
   46CHL1  H22B 3388   3.845   5.293   4.104 -0.2075 -0.6726  0.0170
   46CHL1   C23 3389   3.691   5.147   4.161 -0.1310 -0.6544  0.5028
   46CHL1  H23A 3390   3.623   5.169   4.076  0.6457 -0.0991  0.0150
   46CHL1  H23B 3391   3.682   5.043   4.198  1.1262 -1.1920 -0.6272
   46CHL1   C24 3392   3.654   5.233   4.271  0.1280  0.3079  0.4682
   46CHL1  H24A 3393   3.719   5.230   4.361 -1.6964 -0.8900  1.8321
   46CHL1  H24B 3394   3.642   5.336   4.230  0.2258  0.3264  0.4871
   46CHL1   C25 3395   3.515   5.193   4.331 -0.3651  0.0812  0.2070
   46CHL1   H25 3396   3.453   5.152   4.248 -0.4729  0.8216 -0.0780
   46CHL1   C26 3397   3.541   5.093   4.441  0.0445  0.3201  0.0837
   46CHL1  H26A 3398   3.610   5.010   4.416 -1.0329 -0.4517 -0.4448
   46CHL1  H26B 3399   3.589   5.145   4.527  2.7655 -0.9443 -0.5699
   46CHL1  H26C 3400   3.441   5.058   4.476  0.0027  0.3324 -0.0230
   46CHL1   C27 3401   3.456   5.327   4.385 -0.1401 -0.3661  0.3053
   46CHL1  H27A 3402   3.536   5.388   4.432  0.6355 -0.9670 -0.2190
   46CHL1  H27B 3403   3.415   5.380   4.296  1.2533 -0.2243 -0.2797
   46CHL1  H27C 3404   3.363   5.307   4.442 -1.9880  1.4139 -1.9019
   47CHL1    C3 3405   4.135   1.405   2.557  0.1743  1.0046 -0.3179
   47CHL1    H3 3406   4.185   1.307   2.571  0.2210  0.4962 -3.3580
   47CHL1    O3 3407   4.142   1.443   2.411 -0.1908 -0.1619 -0.4317
   47CHL1   H3' 3408   4.060   1.493   2.400  0.2180  0.8005  0.6361
   47CHL1    C4 3409   3.988   1.377   2.591 -0.0194 -0.7319 -0.7309
   47CHL1   H4A 3410   3.929   1.466   2.558 -0.0559  0.2152  1.7242
   47CHL1   H4B 3411   3.946   1.301   2.522 -0.7679 -0.4086 -0.6361
   47CHL1    C5 3412   3.958   1.358   2.732 -0.3976  0.3869 -0.1667
   47CHL1    C6 3413   3.881   1.258   2.773  0.4829  0.5905 -0.1501
   47CHL1    H6 3414   3.849   1.183   2.698  2.0591 -1.1824  0.8567
   47CHL1    C7 3415   3.843   1.219   2.915  0.4233  0.5268 -1.0849
   47CHL1   H7A 3416   3.738   1.187   2.926  0.8020 -1.1048 -1.9940
   47CHL1   H7B 3417   3.898   1.130   2.953 -0.2283  1.2301  1.7045
   47CHL1    C8 3418   3.880   1.337   3.009 -0.3190  0.4508  0.1838
   47CHL1    H8 3419   3.808   1.422   3.001  0.4734  1.0186 -1.4954
   47CHL1   C14 3420   3.894   1.293   3.156  1.0323  0.2710 -0.5354
   47CHL1   H14 3421   3.978   1.221   3.165  0.2830 -0.6454 -0.5663
   47CHL1   C15 3422   3.768   1.211   3.208 -0.4796 -0.0141  0.5385
   47CHL1  H15A 3423   3.678   1.265   3.169 -0.5969 -1.0885 -0.7473
   47CHL1  H15B 3424   3.770   1.107   3.168 -1.2519  0.1339  0.0690
   47CHL1   C16 3425   3.774   1.217   3.361  0.4887 -0.2595  0.5395
   47CHL1  H16A 3426   3.678   1.271   3.377  0.2419 -0.3440 -0.5700
   47CHL1  H16B 3427   3.774   1.121   3.417 -0.2360 -0.6223 -0.0670
   47CHL1   C17 3428   3.897   1.308   3.393  0.5443  0.3909 -0.3808
   47CHL1   H17 3429   3.985   1.241   3.398  0.0913 -0.2804 -1.2188
   47CHL1   C13 3430   3.913   1.402   3.266 -0.1198  0.2342 -0.8291
   47CHL1   C18 3431   3.796   1.503   3.273  0.2627 -0.7472  0.0394
   47CHL1  H18A 3432   3.772   1.551   3.176  0.3912 -1.5255 -0.3837
   47CHL1  H18B 3433   3.705   1.462   3.322 -0.5216  2.7212  1.8559
   47CHL1  H18C 3434   3.822   1.587   3.341 -2.6588  0.3580 -0.0729
   47CHL1   C12 3435   4.055   1.459   3.239 -0.4520 -0.7209 -0.2397
   47CHL1  H12A 3436   4.103   1.543   3.293 -0.4286  1.1067 -2.9163
   47CHL1  H12B 3437   4.123   1.374   3.258 -1.6718 -1.7394 -0.2596
   47CHL1   C11 3438   4.059   1.506   3.091 -0.7165 -0.3732 -0.3565
   47CHL1  H11A 3439   3.990   1.593   3.088 -1.1143 -0.4844  2.4594
   47CHL1  H11B 3440   4.160   1.550   3.074 -1.2705  0.3607 -1.8858
   47CHL1    C9 3441   4.020   1.403   2.980  0.0828  0.1759  0.0074
   47CHL1    H9 3442   4.097   1.324   2.984 -0.7948 -0.6828  0.4527
   47CHL1   C10 3443   4.028   1.457   2.833  0.2316  0.1491  0.4619
   47CHL1   C19 3444   3.943   1.588   2.830 -0.0734 -0.4365  0.3505
   47CHL1  H19A 3445   3.837   1.568   2.857 -0.4082 -2.9060 -2.2878
   47CHL1  H19B 3446   3.988   1.666   2.895 -2.3106  0.1176  1.3513
   47CHL1  H19C 3447   3.939   1.636   2.730  0.0018 -0.3014  0.4123
   47CHL1    C1 3448   4.176   1.494   2.790  0.6156 -0.2665 -0.3670
   47CHL1   H1A 3449   4.221   1.581   2.842  1.1533  0.2674 -1.6706
   47CHL1   H1B 3450   4.235   1.404   2.819  1.0374  0.3585  0.7745
   47CHL1    C2 3451   4.202   1.518   2.644  0.1610  1.0350  0.0846
   47CHL1   H2A 3452   4.312   1.520   2.627  0.7979 -1.9895  2.8037
   47CHL1   H2B 3453   4.152   1.609   2.607 -2.2040 -0.0351  0.4845
   47CHL1   C20 3454   3.884   1.381   3.531 -0.2812  0.6267 -0.2295
   47CHL1   H20 3455   3.821   1.471   3.515  0.6493  1.6483  1.5104
   47CHL1   C21 3456   4.028   1.440   3.561  0.8285 -0.6174 -0.0398
   47CHL1  H21A 3457   4.062   1.512   3.483  1.5721 -1.0637 -0.1347
   47CHL1  H21B 3458   4.098   1.355   3.572  0.6970 -0.9607 -1.6552
   47CHL1  H21C 3459   4.026   1.490   3.661  1.1773 -1.0688  0.1962
   47CHL1   C22 3460   3.834   1.304   3.656  0.0658  0.8542  0.6469
   47CHL1  H22A 3461   3.757   1.232   3.621  1.0249  0.5129 -0.8308
   47CHL1  H22B 3462   3.918   1.244   3.697 -0.8886  0.7225  2.5245
   47CHL1   C23 3463   3.785   1.396   3.767  0.8341 -0.2273 -0.0677
   47CHL1  H23A 3464   3.868   1.442   3.826  0.4302 -0.8863  1.0478
   47CHL1  H23B 3465   3.725   1.480   3.727  1.9850  0.8710  0.4497
   47CHL1   C24 3466   3.700   1.316   3.872  0.0085  0.3242  0.5499
   47CHL1  H24A 3467   3.593   1.304   3.843  0.0176 -0.9829  0.9934
   47CHL1  H24B 3468   3.747   1.216   3.868  1.3318  0.9470 -0.4981
   47CHL1   C25 3469   3.688   1.381   4.008 -0.0582 -0.1911 -0.2217
   47CHL1   H25 3470   3.616   1.317   4.064  0.7488  0.0437  1.1369
   47CHL1   C26 3471   3.822   1.369   4.085  0.1556 -0.2654 -0.3467
   47CHL1  H26A 3472   3.903   1.425   4.033  1.8415 -1.4903  0.8335
   47CHL1  H26B 3473   3.805   1.407   4.188 -4.7381  1.3888 -1.4901
   47CHL1  H26C 3474   3.848   1.261   4.089 -0.6645 -0.5635 -2.1087
   47CHL1   C27 3475   3.630   1.527   4.012 -0.3143  0.3878 -0.2968
   47CHL1  H27A 3476   3.686   1.592   3.941  1.1872  0.7819  1.1814
   47CHL1  H27B 3477   3.526   1.521   3.975  0.0131 -0.1189 -1.1695
   47CHL1  H27C 3478   3.641   1.575   4.111  3.0587 -1.1115  0.2047
   48CHL1    C3 3479   1.711   4.423   2.559 -0.3047  0.9981 -0.4813
   48CHL1    H3 3480   1.769   4.517   2.559  0.3713  0.5908 -1.5027
   48CHL1    O3 3481   1.724   4.356   2.435  0.2878  0.2540 -0.1535
   48CHL1   H3' 3482   1.666   4.280   2.443  0.6603  0.0333  0.5164
   48CHL1    C4 3483   1.766   4.311   2.649 -0.2991  0.6079 -0.7918
   48CHL1   H4A 3484   1.708   4.218   2.632 -2.4046  1.5040  1.0142
   48CHL1   H4B 3485   1.875   4.298   2.630 -0.0396  4.2851 -2.8221
   48CHL1    C5 3486   1.727   4.348   2.797 -0.2903  0.6444  0.3639
   48CHL1    C6 3487   1.818   4.361   2.893 -0.3788  0.5643  0.5804
   48CHL1    H6 3488   1.922   4.352   2.860  0.0896 -0.0454  2.1457
   48CHL1    C7 3489   1.790   4.376   3.043  0.0562  0.2123  0.9677
   48CHL1   H7A 3490   1.863   4.316   3.102  0.3696 -2.7804 -2.1464
   48CHL1   H7B 3491   1.807   4.484   3.062  2.3591  0.3685 -1.3093
   48CHL1    C8 3492   1.637   4.342   3.078  0.1449 -0.0014  1.1063
   48CHL1    H8 3493   1.626   4.231   3.078 -0.6065  0.0628  0.1835
   48CHL1   C14 3494   1.604   4.401   3.212 -0.8793 -0.8539  0.5229
   48CHL1   H14 3495   1.626   4.509   3.198  0.2649 -0.8975  1.8933
   48CHL1   C15 3496   1.678   4.359   3.337  0.0973  0.2732  0.5419
   48CHL1  H15A 3497   1.670   4.249   3.352 -0.6758  0.2959  0.3443
   48CHL1  H15B 3498   1.784   4.393   3.338  0.3729 -0.5682  1.0807
   48CHL1   C16 3499   1.596   4.429   3.446 -0.2720  0.6570  0.1366
   48CHL1  H16A 3500   1.591   4.350   3.524  0.5267  1.3451  0.9090
   48CHL1  H16B 3501   1.644   4.512   3.502 -0.8507  0.1401  1.4561
   48CHL1   C17 3502   1.450   4.468   3.395 -0.1369  0.4689 -0.1025
   48CHL1   H17 3503   1.445   4.577   3.379  0.9937  0.7611  1.2829
   48CHL1   C13 3504   1.450   4.396   3.255  0.1351 -0.2965 -0.4134
   48CHL1   C18 3505   1.417   4.243   3.283 -0.1019 -0.3212 -0.5562
   48CHL1  H18A 3506   1.308   4.228   3.271  0.0088 -1.2151 -0.5189
   48CHL1  H18B 3507   1.443   4.182   3.194  0.9747 -0.2177 -0.3329
   48CHL1  H18C 3508   1.451   4.195   3.377 -0.2112 -1.7888 -1.2467
   48CHL1   C12 3509   1.368   4.456   3.143 -0.0633 -0.1304  0.0710
   48CHL1  H12A 3510   1.262   4.439   3.171  0.4748 -0.4421  2.1255
   48CHL1  H12B 3511   1.385   4.566   3.150  1.3434 -0.3949  1.2092
   48CHL1   C11 3512   1.396   4.401   3.003 -0.5408  0.2605  0.1415
   48CHL1  H11A 3513   1.359   4.297   3.016 -1.3429  0.4101 -0.8422
   48CHL1  H11B 3514   1.335   4.462   2.933 -0.2631  1.6886  1.1062
   48CHL1    C9 3515   1.543   4.408   2.970 -1.0584 -0.3596  0.1698
   48CHL1    H9 3516   1.570   4.516   2.973  2.8664 -1.1819 -0.3969
   48CHL1   C10 3517   1.573   4.358   2.821  0.4153  0.1085  0.6572
   48CHL1   C19 3518   1.499   4.219   2.812  0.1461 -1.1054  0.8538
   48CHL1  H19A 3519   1.389   4.237   2.817  0.4660  0.7198  2.1315
   48CHL1  H19B 3520   1.523   4.170   2.715  0.4105  0.2431  0.2094
   48CHL1  H19C 3521   1.531   4.150   2.893  0.8374 -1.1043  0.5906
   48CHL1    C1 3522   1.523   4.465   2.726  0.3001 -0.2414  1.0029
   48CHL1   H1A 3523   1.412   4.468   2.733  0.1292 -1.0529 -0.6524
   48CHL1   H1B 3524   1.555   4.566   2.756 -0.4444 -0.6811  3.4737
   48CHL1    C2 3525   1.566   4.442   2.580  0.3196 -0.2626  0.0320
   48CHL1   H2A 3526   1.541   4.525   2.510  2.8500 -1.2499 -2.2288
   48CHL1   H2B 3527   1.507   4.356   2.543  0.8410  0.0767 -1.7085
   48CHL1   C20 3528   1.338   4.441   3.499 -0.1158 -0.5460 -0.4561
   48CHL1   H20 3529   1.338   4.334   3.530 -0.4175 -0.0329  1.4526
   48CHL1   C21 3530   1.186   4.451   3.451  0.0112 -0.1261  0.1226
   48CHL1  H21A 3531   1.168   4.370   3.379  0.9837 -0.4023  0.1689
   48CHL1  H21B 3532   1.167   4.552   3.409  1.3672 -1.1252 -3.2207
   48CHL1  H21C 3533   1.119   4.442   3.539 -1.5913  0.1849 -1.0335
   48CHL1   C22 3534   1.353   4.532   3.627 -0.2849 -0.3430  0.0195
   48CHL1  H22A 3535   1.455   4.513   3.668 -1.4582  0.3663  3.6805
   48CHL1  H22B 3536   1.354   4.638   3.596  1.6100 -0.8063 -1.7995
   48CHL1   C23 3537   1.262   4.492   3.741  0.0292 -0.0627 -0.2980
   48CHL1  H23A 3538   1.161   4.530   3.715 -0.9848 -1.1968  1.7078
   48CHL1  H23B 3539   1.255   4.387   3.777  0.1038  0.9800  3.0382
   48CHL1   C24 3540   1.297   4.563   3.882  0.3030  0.4342  0.1993
   48CHL1  H24A 3541   1.389   4.514   3.920 -0.1002  0.5702  1.3647
   48CHL1  H24B 3542   1.308   4.673   3.874 -1.8719  0.8293  1.9189
   48CHL1   C25 3543   1.203   4.556   4.001 -0.4298  0.2936 -0.6189
   48CHL1   H25 3544   1.190   4.448   4.022  0.7249  0.0874 -0.9400
   48CHL1   C26 3545   1.254   4.615   4.131 -0.2983 -0.3706  0.5833
   48CHL1  H26A 3546   1.181   4.604   4.214  0.6065 -0.2360  1.4047
   48CHL1  H26B 3547   1.345   4.558   4.157 -0.5515 -0.5607  1.0571
   48CHL1  H26C 3548   1.280   4.723   4.125  1.6343 -0.8272  0.3286
   48CHL1   C27 3549   1.068   4.611   3.968 -0.3454 -0.5206 -0.2797
   48CHL1  H27A 3550   1.090   4.712   3.927  0.0956 -0.8507 -0.8584
   48CHL1  H27B 3551   1.017   4.547   3.893 -1.0532  0.1963 -0.4239
   48CHL1  H27C 3552   0.994   4.609   4.052  0.3334 -2.9238  0.3524
   49CHL1    C3 3553   0.998   2.733   2.700 -0.2850  0.0439 -0.1742
   49CHL1    H3 3554   1.078   2.664   2.734 -0.9110 -0.2675  0.7110
   49CHL1    O3 3555   1.021   2.768   2.571  0.6457  0.2118  0.4687
   49CHL1   H3' 3556   0.992   2.697   2.513 -0.1455  2.3865 -2.0025
   49CHL1    C4 3557   0.865   2.649   2.717 -0.3087 -0.1501 -0.5754
   49CHL1   H4A 3558   0.782   2.713   2.679  0.0588  0.6892  0.0026
   49CHL1   H4B 3559   0.864   2.563   2.647 -1.3421 -0.8358  0.2696
   49CHL1    C5 3560   0.844   2.598   2.858 -0.7273 -0.3014 -0.0348
   49CHL1    C6 3561   0.835   2.469   2.886  0.0170 -0.9427  1.0473
   49CHL1    H6 3562   0.842   2.405   2.796 -0.5956 -0.7180  0.8369
   49CHL1    C7 3563   0.826   2.403   3.019  0.8718  0.3150  0.4240
   49CHL1   H7A 3564   0.750   2.321   3.020 -0.6634  1.6226 -1.4195
   49CHL1   H7B 3565   0.928   2.361   3.020 -0.0391 -2.0772  0.5777
   49CHL1    C8 3566   0.800   2.513   3.126 -0.3419 -0.2233  0.1601
   49CHL1    H8 3567   0.693   2.543   3.121 -0.5733 -1.1108 -0.4868
   49CHL1   C14 3568   0.822   2.457   3.264 -0.1085  0.4345  0.4072
   49CHL1   H14 3569   0.924   2.413   3.271  0.2928  0.8716 -1.9219
   49CHL1   C15 3570   0.726   2.336   3.298  0.3790 -0.0298  0.1517
   49CHL1  H15A 3571   0.622   2.348   3.262 -0.7550 -0.8604  2.9443
   49CHL1  H15B 3572   0.767   2.238   3.266 -0.3198 -0.4553  0.5570
   49CHL1   C16 3573   0.719   2.339   3.451 -0.5166 -0.2338 -0.0598
   49CHL1  H16A 3574   0.619   2.347   3.498 -0.0792  3.0885  0.6013
   49CHL1  H16B 3575   0.765   2.245   3.489 -0.3306 -0.6055 -1.1637
   49CHL1   C17 3576   0.800   2.467   3.499 -0.4058 -0.2690 -0.8675
   49CHL1   H17 3577   0.904   2.433   3.518  0.0033  1.8076  0.9840
   49CHL1   C13 3578   0.802   2.559   3.378  0.7136  0.1625  0.0001
   49CHL1   C18 3579   0.660   2.634   3.380  0.0325  0.5523  0.1808
   49CHL1  H18A 3580   0.577   2.566   3.407  1.3309 -1.9541 -1.6665
   49CHL1  H18B 3581   0.677   2.717   3.452  1.0807 -0.2032  0.8327
   49CHL1  H18C 3582   0.636   2.670   3.278 -2.2386 -1.1464  0.0342
   49CHL1   C12 3583   0.916   2.654   3.365  0.3842 -0.1445 -0.4331
   49CHL1  H12A 3584   0.913   2.728   3.448  0.3340  0.3005 -0.8303
   49CHL1  H12B 3585   1.019   2.612   3.366  0.3620 -0.1985  0.2410
   49CHL1   C11 3586   0.910   2.732   3.229  0.0555 -0.1563  0.3433
   49CHL1  H11A 3587   0.822   2.800   3.226 -0.1858 -0.4107  1.1869
   49CHL1  H11B 3588   1.000   2.795   3.213 -0.7650  1.0816  0.4829
   49CHL1    C9 3589   0.892   2.633   3.106 -0.2673 -0.5928 -0.1486
   49CHL1    H9 3590   0.992   2.586   3.099 -0.1036 -0.2643 -0.0234
   49CHL1   C10 3591   0.865   2.699   2.968  0.6624 -0.3344 -0.5354
   49CHL1   C19 3592   0.743   2.791   2.973  0.0541  0.7937 -0.3155
   49CHL1  H19A 3593   0.701   2.797   2.870  0.3755 -0.4446 -0.5381
   49CHL1  H19B 3594   0.663   2.748   3.037  0.1959 -0.0446 -0.6916
   49CHL1  H19C 3595   0.762   2.892   3.015  1.8079  0.3370  0.0749
   49CHL1    C1 3596   0.984   2.795   2.938  0.0912 -0.2633 -0.8517
   49CHL1   H1A 3597   0.976   2.883   3.006 -0.6931 -0.7138 -0.3387
   49CHL1   H1B 3598   1.079   2.740   2.952 -0.6700 -2.0089 -2.2805
   49CHL1    C2 3599   0.987   2.852   2.795  0.1959  0.5275 -0.0360
   49CHL1   H2A 3600   1.078   2.916   2.782  0.5209  0.3500  1.2253
   49CHL1   H2B 3601   0.905   2.924   2.773  1.4363  2.2499  0.6888
   49CHL1   C20 3602   0.773   2.522   3.637 -1.2779  0.1987  0.1999
   49CHL1   H20 3603   0.825   2.621   3.634  0.7762 -0.7788  1.2757
   49CHL1   C21 3604   0.857   2.440   3.739  0.9112 -0.7544  0.1287
   49CHL1  H21A 3605   0.961   2.442   3.702  0.0860  0.3047 -2.3147
   49CHL1  H21B 3606   0.811   2.340   3.749 -2.1619  0.5113 -0.2537
   49CHL1  H21C 3607   0.858   2.493   3.838  0.3908 -1.6406  0.6199
   49CHL1   C22 3608   0.632   2.541   3.697 -0.8436 -0.3132 -0.1705
   49CHL1  H22A 3609   0.564   2.565   3.612 -1.4634 -2.5545 -0.3794
   49CHL1  H22B 3610   0.596   2.447   3.745  0.1232 -0.9023 -0.5829
   49CHL1   C23 3611   0.615   2.667   3.784 -0.0378 -0.3263 -0.2019
   49CHL1  H23A 3612   0.690   2.665   3.867 -0.9614 -1.0171  0.6467
   49CHL1  H23B 3613   0.633   2.755   3.719 -3.5036 -0.5724 -1.6890
   49CHL1   C24 3614   0.481   2.679   3.860 -0.7694 -0.0391  0.7391
   49CHL1  H24A 3615   0.397   2.705   3.792  0.3833  2.2136  0.0588
   49CHL1  H24B 3616   0.457   2.582   3.908 -3.2631 -0.3331 -0.9423
   49CHL1   C25 3617   0.484   2.805   3.951 -0.4162 -0.4916 -0.4961
   49CHL1   H25 3618   0.564   2.783   4.025 -0.2245  1.1703 -0.1700
   49CHL1   C26 3619   0.530   2.935   3.873 -0.3199  0.4190  0.2474
   49CHL1  H26A 3620   0.446   2.953   3.802 -1.1946  0.1347  1.1706
   49CHL1  H26B 3621   0.536   3.004   3.960 -1.7803 -1.6830  2.1301
   49CHL1  H26C 3622   0.624   2.926   3.816 -1.5284  2.0331 -2.1631
   49CHL1   C27 3623   0.348   2.825   4.018 -0.3240 -0.4933  0.6729
   49CHL1  H27A 3624   0.344   2.924   4.069  0.2839 -0.6391  1.0153
   49CHL1  H27B 3625   0.271   2.832   3.938 -0.1821 -1.1017  0.4781
   49CHL1  H27C 3626   0.342   2.749   4.098 -0.1849 -0.5200  0.6586
   50CHL1    C3 3627   5.100   1.399   2.799 -0.3946  0.1995  0.5229
   50CHL1    H3 3628   5.096   1.288   2.806 -0.1768  0.2250  1.0914
   50CHL1    O3 3629   5.124   1.433   2.666  0.5159  0.0021 -0.7004
   50CHL1   H3' 3630   5.041   1.470   2.637  0.0023 -1.3647 -1.0561
   50CHL1    C4 3631   4.972   1.458   2.865 -0.0085 -0.3726 -0.6959
   50CHL1   H4A 3632   4.979   1.566   2.841  1.6694 -0.3270 -0.1098
   50CHL1   H4B 3633   4.887   1.417   2.806 -2.9532 -0.3873  3.1622
   50CHL1    C5 3634   4.961   1.436   3.013  0.2115  0.6553 -0.1254
   50CHL1    C6 3635   4.849   1.388   3.067 -0.2565 -0.0123 -0.4032
   50CHL1    H6 3636   4.766   1.382   2.995  0.2077  1.2809 -1.0920
   50CHL1    C7 3637   4.832   1.343   3.208 -0.3204 -0.2614 -0.2870
   50CHL1   H7A 3638   4.746   1.381   3.267 -1.5467 -2.4145 -0.5981
   50CHL1   H7B 3639   4.828   1.233   3.220  1.5888 -0.0626  3.4171
   50CHL1    C8 3640   4.953   1.384   3.297  0.1316 -0.6672 -0.0936
   50CHL1    H8 3641   4.933   1.490   3.323  2.0052  0.2747 -2.1660
   50CHL1   C14 3642   4.963   1.306   3.428  0.2110  0.1749  0.3138
   50CHL1   H14 3643   4.977   1.202   3.390 -0.7770  0.0611  0.2263
   50CHL1   C15 3644   4.837   1.288   3.516  0.0695  0.2436  0.0217
   50CHL1  H15A 3645   4.797   1.389   3.537 -1.5416 -0.3843  0.1000
   50CHL1  H15B 3646   4.762   1.219   3.472  0.7348 -0.5463  0.0915
   50CHL1   C16 3647   4.887   1.230   3.649 -0.2877  0.4017  0.4480
   50CHL1  H16A 3648   4.848   1.300   3.727  0.4663  0.5928  0.6611
   50CHL1  H16B 3649   4.867   1.126   3.681 -0.8709  0.8191  1.5033
   50CHL1   C17 3650   5.043   1.248   3.643 -0.0826 -0.4403 -0.6561
   50CHL1   H17 3651   5.082   1.150   3.607  2.4661 -0.3227  1.5567
   50CHL1   C13 3652   5.074   1.350   3.527  0.0679 -0.3936  0.2708
   50CHL1   C18 3653   5.039   1.490   3.573  0.1846 -0.5978 -0.2237
   50CHL1  H18A 3654   4.974   1.552   3.507  0.5035  3.8405  3.1348
   50CHL1  H18B 3655   4.969   1.483   3.659 -1.9070  0.9974 -1.6798
   50CHL1  H18C 3656   5.130   1.549   3.597  0.1791  0.0088 -1.5845
   50CHL1   C12 3657   5.211   1.345   3.457  0.3936  0.8293  0.0668
   50CHL1  H12A 3658   5.282   1.400   3.523  0.8905  2.5491 -1.7846
   50CHL1  H12B 3659   5.239   1.238   3.451 -1.7716  0.1419  1.2595
   50CHL1   C11 3660   5.210   1.420   3.325  0.3516 -0.3264 -0.1331
   50CHL1  H11A 3661   5.197   1.526   3.357  2.3070 -0.3746  0.9644
   50CHL1  H11B 3662   5.307   1.407   3.272 -0.8343  1.3864 -3.0242
   50CHL1    C9 3663   5.091   1.390   3.230  0.1381 -0.0546  0.6934
   50CHL1    H9 3664   5.105   1.281   3.213  0.8602  0.1061  0.2139
   50CHL1   C10 3665   5.089   1.464   3.092 -0.0643 -0.0724 -0.2464
   50CHL1   C19 3666   5.106   1.613   3.106 -0.2286 -0.7119 -0.7092
   50CHL1  H19A 3667   5.205   1.622   3.157  0.4723 -4.6465 -1.0713
   50CHL1  H19B 3668   5.116   1.663   3.007 -1.0784 -1.9952 -1.4669
   50CHL1  H19C 3669   5.030   1.674   3.160  1.4642  1.2554 -0.3829
   50CHL1    C1 3670   5.213   1.406   3.017  0.3874 -0.5199 -0.2927
   50CHL1   H1A 3671   5.308   1.436   3.067 -0.2407 -2.1784  2.0499
   50CHL1   H1B 3672   5.219   1.295   3.029 -1.0458 -0.7612 -1.5222
   50CHL1    C2 3673   5.221   1.444   2.871  0.0458 -0.3539 -0.5631
   50CHL1   H2A 3674   5.320   1.412   2.831  0.5795 -2.2597  2.0789
   50CHL1   H2B 3675   5.244   1.553   2.858  1.2475 -0.7229 -1.8321
   50CHL1   C20 3676   5.107   1.269   3.786  0.4694  0.0207 -0.3549
   50CHL1   H20 3677   5.078   1.356   3.848  0.1726 -1.3669  1.5690
   50CHL1   C21 3678   5.259   1.290   3.781  0.1036 -0.5765  0.0180
   50CHL1  H21A 3679   5.314   1.213   3.722  0.0539  0.0167 -0.8132
   50CHL1  H21B 3680   5.317   1.296   3.876 -1.8835 -1.3411  1.3644
   50CHL1  H21C 3681   5.285   1.385   3.731  1.9980 -0.5070  1.0199
   50CHL1   C22 3682   5.064   1.159   3.886  0.3828  0.5023  0.1457
   50CHL1  H22A 3683   4.956   1.162   3.912  0.0445  0.6600 -1.2078
   50CHL1  H22B 3684   5.076   1.063   3.833  1.7446  1.6784 -1.8288
   50CHL1   C23 3685   5.123   1.157   4.023  0.3911 -0.2329  0.0519
   50CHL1  H23A 3686   5.096   1.065   4.081  0.1031 -0.1851 -0.0076
   50CHL1  H23B 3687   5.233   1.138   4.022  0.3463 -1.0162  2.3815
   50CHL1   C24 3688   5.074   1.278   4.113  0.2173 -0.1648  0.4647
   50CHL1  H24A 3689   5.118   1.373   4.076 -1.1009  0.3081  0.0714
   50CHL1  H24B 3690   4.964   1.294   4.107  0.4950  6.4010  3.5098
   50CHL1   C25 3691   5.099   1.262   4.265 -0.4967  0.4409  0.2088
   50CHL1   H25 3692   5.080   1.362   4.310 -2.0660  0.1697  0.2164
   50CHL1   C26 3693   5.006   1.158   4.320 -0.1197 -0.5694  0.0544
   50CHL1  H26A 3694   5.047   1.056   4.307 -0.9778 -0.7850 -1.1712
   50CHL1  H26B 3695   4.969   1.164   4.424 -2.6851 -0.3619 -0.7934
   50CHL1  H26C 3696   4.908   1.158   4.267  0.1097  0.1281 -0.3823
   50CHL1   C27 3697   5.244   1.225   4.299  1.0027 -0.2709 -0.5436
   50CHL1  H27A 3698   5.257   1.234   4.409 -0.5337  0.7825 -0.4276
   50CHL1  H27B 3699   5.274   1.121   4.272 -0.6565 -0.5827 -1.2640
   50CHL1  H27C 3700   5.314   1.296   4.249  0.4425  0.9325  0.3344
   51CHL1    C3 3701   1.617   1.761   2.626 -0.5796  0.3541  0.1321
   51CHL1    H3 3702   1.713   1.817   2.630 -0.5586  0.3049  0.3184
   51CHL1    O3 3703   1.579   1.735   2.496 -0.0820  0.3498  1.0797
   51CHL1   H3' 3704   1.497   1.685   2.503  1.4125 -2.2387  1.3338
   51CHL1    C4 3705   1.606   1.627   2.703 -0.0697 -0.0704  0.3630
   51CHL1   H4A 3706   1.510   1.583   2.669 -0.4869  2.1598 -1.6055
   51CHL1   H4B 3707   1.679   1.556   2.657 -0.3328  0.5280 -1.0394
   51CHL1    C5 3708   1.627   1.651   2.849 -0.0341 -0.4519  0.3926
   51CHL1    C6 3709   1.731   1.588   2.913  0.6790  0.1200 -0.2088
   51CHL1    H6 3710   1.788   1.513   2.857  2.0501  0.0304  1.2431
   51CHL1    C7 3711   1.758   1.600   3.063  0.3746 -0.4160 -0.2747
   51CHL1   H7A 3712   1.792   1.515   3.126  0.7994  0.3479  0.5589
   51CHL1   H7B 3713   1.832   1.682   3.079 -1.6726  1.3125  0.9671
   51CHL1    C8 3714   1.637   1.678   3.128 -0.4913  0.0885  0.2846
   51CHL1    H8 3715   1.556   1.603   3.141 -1.1675 -0.3374 -4.4387
   51CHL1   C14 3716   1.676   1.721   3.269  0.0687 -0.3078 -0.8886
   51CHL1   H14 3717   1.769   1.781   3.268 -0.7521  1.0691  0.2250
   51CHL1   C15 3718   1.709   1.606   3.369  0.0194  0.1946 -0.1881
   51CHL1  H15A 3719   1.627   1.532   3.361 -1.3862  1.8502 -2.0038
   51CHL1  H15B 3720   1.803   1.547   3.362 -0.0678  0.1583 -1.1512
   51CHL1   C16 3721   1.690   1.675   3.507  0.7766  0.4101  0.7469
   51CHL1  H16A 3722   1.628   1.615   3.577 -0.3227 -1.1689 -1.4642
   51CHL1  H16B 3723   1.784   1.693   3.564  0.7306 -0.6805  1.1965
   51CHL1   C17 3724   1.618   1.810   3.484  0.0511  0.3296  0.5526
   51CHL1   H17 3725   1.694   1.891   3.475  1.7160 -1.3395 -1.3812
   51CHL1   C13 3726   1.564   1.795   3.338 -0.0505 -0.2844  0.2754
   51CHL1   C18 3727   1.429   1.719   3.348 -0.0513  0.3246  0.8412
   51CHL1  H18A 3728   1.431   1.630   3.415 -1.5619 -1.4213 -1.2873
   51CHL1  H18B 3729   1.352   1.789   3.386 -0.6865  0.1438 -0.0988
   51CHL1  H18C 3730   1.387   1.681   3.253 -0.3385  2.0044  0.2694
   51CHL1   C12 3731   1.536   1.931   3.263 -0.2499  0.5951 -0.5651
   51CHL1  H12A 3732   1.460   1.982   3.326 -0.2909 -0.4915  0.2948
   51CHL1  H12B 3733   1.633   1.984   3.265  0.8713 -1.3350  2.1704
   51CHL1   C11 3734   1.491   1.898   3.121  0.3423 -0.4525  0.0139
   51CHL1  H11A 3735   1.389   1.856   3.127 -0.6991  2.0803  1.7720
   51CHL1  H11B 3736   1.466   1.989   3.063 -2.9664 -0.6498  0.9209
   51CHL1    C9 3737   1.590   1.795   3.045 -0.7907 -0.5306 -0.1874
   51CHL1    H9 3738   1.680   1.859   3.029 -0.4105 -0.7788  0.8920
   51CHL1   C10 3739   1.533   1.753   2.910  0.0777 -0.5771  0.1548
   51CHL1   C19 3740   1.389   1.701   2.917 -0.3434 -0.3238 -0.3847
   51CHL1  H19A 3741   1.398   1.618   2.990 -1.9473  0.3727  0.6609
   51CHL1  H19B 3742   1.310   1.772   2.950 -0.8341 -0.8688 -0.3792
   51CHL1  H19C 3743   1.362   1.655   2.820  0.3320 -0.2680 -0.6078
   51CHL1    C1 3744   1.531   1.884   2.821  0.2781  0.6425  0.3882
   51CHL1   H1A 3745   1.452   1.950   2.863  0.5408  1.0069  0.3124
   51CHL1   H1B 3746   1.626   1.939   2.836  0.1953  1.0757 -0.5574
   51CHL1    C2 3747   1.517   1.863   2.677 -0.6614  0.5607  0.1881
   51CHL1   H2A 3748   1.536   1.961   2.628 -0.6284  0.1829 -0.5745
   51CHL1   H2B 3749   1.420   1.821   2.643  0.8649 -3.3274  0.1301
   51CHL1   C20 3750   1.521   1.832   3.599 -0.2064  0.2796 -0.1996
   51CHL1   H20 3751   1.456   1.743   3.613 -0.4818  0.6232  0.7811
   51CHL1   C21 3752   1.430   1.958   3.586 -0.5626 -0.1556 -0.7365
   51CHL1  H21A 3753   1.408   1.986   3.691  2.4904 -3.4397  1.0159
   51CHL1  H21B 3754   1.327   1.946   3.545  0.6664 -0.0713 -4.1873
   51CHL1  H21C 3755   1.493   2.037   3.541  1.7765 -2.2302 -1.3336
   51CHL1   C22 3756   1.595   1.843   3.737 -0.1538 -0.2613 -0.7747
   51CHL1  H22A 3757   1.697   1.801   3.749  0.0326  0.6947  1.2176
   51CHL1  H22B 3758   1.617   1.952   3.740 -0.7141 -0.1451 -0.7541
   51CHL1   C23 3759   1.506   1.793   3.851 -0.6465 -0.3890 -0.1946
   51CHL1  H23A 3760   1.407   1.845   3.849 -1.0142 -0.9868  1.4211
   51CHL1  H23B 3761   1.478   1.686   3.843  0.4115 -0.7993  1.3765
   51CHL1   C24 3762   1.573   1.818   4.001 -0.1640 -0.1774  0.0107
   51CHL1  H24A 3763   1.672   1.771   3.982  0.1340  1.0088 -1.5729
   51CHL1  H24B 3764   1.597   1.926   4.008 -1.0054  0.0443 -0.2900
   51CHL1   C25 3765   1.511   1.762   4.124 -0.5532 -0.3578  0.7551
   51CHL1   H25 3766   1.496   1.653   4.112 -0.4034 -0.1086 -2.4034
   51CHL1   C26 3767   1.605   1.795   4.250  0.0316  0.4412 -0.1665
   51CHL1  H26A 3768   1.589   1.901   4.278  1.7900  0.6604  0.1563
   51CHL1  H26B 3769   1.585   1.730   4.338 -0.2307 -1.6639 -1.6998
   51CHL1  H26C 3770   1.713   1.786   4.223 -0.1850  0.6475 -1.1448
   51CHL1   C27 3771   1.370   1.818   4.158  0.2214  0.3466 -0.3197
   51CHL1  H27A 3772   1.332   1.763   4.247 -0.3412 -0.6401 -1.1452
   51CHL1  H27B 3773   1.374   1.927   4.181 -1.3701  0.7304 -1.6849
   51CHL1  H27C 3774   1.301   1.806   4.072  1.3499  1.1570 -1.3767
   52CHL1    C3 3775   0.134   3.527   3.073 -0.0894 -0.0469 -0.3150
   52CHL1    H3 3776   0.115   3.632   3.106 -2.1216 -0.1450 -1.0592
   52CHL1    O3 3777   0.131   3.535   2.929 -0.1959 -0.2920  0.4948
   52CHL1   H3' 3778   0.114   3.452   2.883  2.5419 -0.7244  0.0943
   52CHL1    C4 3779   0.266   3.472   3.136 -0.0204 -0.5345 -0.1834
   52CHL1   H4A 3780   0.286   3.371   3.096  1.7863 -0.2670 -0.0426
   52CHL1   H4B 3781   0.344   3.538   3.092 -0.8490  1.4615  1.1935
   52CHL1    C5 3782   0.258   3.477   3.283 -0.0781 -0.4620  0.4318
   52CHL1    C6 3783   0.356   3.543   3.353  0.0668 -0.6313  1.0868
   52CHL1    H6 3784   0.435   3.594   3.298 -0.0071  0.4403  1.9420
   52CHL1    C7 3785   0.359   3.561   3.502  0.2571 -0.3316 -0.5342
   52CHL1   H7A 3786   0.460   3.547   3.545  0.6165 -0.7217 -1.4949
   52CHL1   H7B 3787   0.333   3.668   3.519  1.2389 -0.3004  1.0778
   52CHL1    C8 3788   0.260   3.461   3.573 -0.1899 -0.0891 -0.2798
   52CHL1    H8 3789   0.312   3.364   3.573 -0.8059 -0.4409  0.9070
   52CHL1   C14 3790   0.247   3.491   3.724 -0.0173 -0.8987  0.3842
   52CHL1   H14 3791   0.195   3.589   3.725 -0.0650 -0.9201  0.1221
   52CHL1   C15 3792   0.376   3.515   3.802 -1.2346  0.5951  0.3766
   52CHL1  H15A 3793   0.463   3.468   3.752  1.2963  2.4807  2.7154
   52CHL1  H15B 3794   0.409   3.621   3.790  0.8606  0.0165  0.7495
   52CHL1   C16 3795   0.336   3.492   3.948 -0.3637  0.8568 -0.6447
   52CHL1  H16A 3796   0.387   3.396   3.973  0.0383  1.1043 -0.5104
   52CHL1  H16B 3797   0.384   3.561   4.020  1.7595 -1.6154  0.4788
   52CHL1   C17 3798   0.187   3.458   3.939  0.4203  0.3410 -0.3610
   52CHL1   H17 3799   0.135   3.556   3.936  1.7596  1.0695 -1.2582
   52CHL1   C13 3800   0.156   3.397   3.801  0.3670  0.3029  0.5797
   52CHL1   C18 3801   0.213   3.251   3.801  0.3725 -0.0810  0.1734
   52CHL1  H18A 3802   0.324   3.251   3.803  0.4214  2.0647  2.3323
   52CHL1  H18B 3803   0.173   3.186   3.882  3.4643 -0.2686  1.7054
   52CHL1  H18C 3804   0.185   3.209   3.703 -1.2957 -0.1855  0.6589
   52CHL1   C12 3805   0.015   3.413   3.736  0.3084 -0.3151 -0.5264
   52CHL1  H12A 3806  -0.056   3.332   3.767 -0.2121 -1.0118 -3.2786
   52CHL1  H12B 3807  -0.021   3.515   3.761  2.2580  0.0252  1.1871
   52CHL1   C11 3808   0.010   3.397   3.583  0.0931 -0.4644 -0.2383
   52CHL1  H11A 3809   0.008   3.290   3.554 -0.7789 -0.3428 -0.6536
   52CHL1  H11B 3810  -0.079   3.450   3.543  1.5450  0.9346 -1.7962
   52CHL1    C9 3811   0.122   3.459   3.502 -0.2485 -0.6181  0.1054
   52CHL1    H9 3812   0.097   3.568   3.505 -0.4790 -0.6608  2.7427
   52CHL1   C10 3813   0.129   3.422   3.352 -0.7793 -0.1213 -0.5716
   52CHL1   C19 3814   0.121   3.267   3.337  0.2798  0.5141 -0.0015
   52CHL1  H19A 3815   0.164   3.220   3.246  1.2369 -1.3592  1.3439
   52CHL1  H19B 3816   0.188   3.209   3.404  1.1143  0.2797 -1.0023
   52CHL1  H19C 3817   0.016   3.233   3.350  0.4706  0.5518  1.8748
   52CHL1    C1 3818   0.002   3.473   3.277  0.4099  0.2366 -0.6955
   52CHL1   H1A 3819  -0.093   3.431   3.317 -0.1481 -0.3248 -2.5329
   52CHL1   H1B 3820  -0.000   3.583   3.290  0.9106  0.1054  0.7219
   52CHL1    C2 3821   0.009   3.452   3.126  0.1053 -0.3326  0.4112
   52CHL1   H2A 3822  -0.084   3.499   3.087 -1.3577 -1.8633  1.8645
   52CHL1   H2B 3823   0.013   3.346   3.091 -0.5349 -0.4937  0.8118
   52CHL1   C20 3824   0.144   3.377   4.063  0.0020 -0.5540 -0.0698
   52CHL1   H20 3825   0.215   3.293   4.079 -0.8658 -0.7228  3.5733
   52CHL1   C21 3826  -0.002   3.330   4.044 -0.1694 -0.5588  0.3458
   52CHL1  H21A 3827  -0.037   3.262   4.124  0.3817  0.1642  1.2198
   52CHL1  H21B 3828  -0.023   3.270   3.953 -2.8273  0.3670  0.2421
   52CHL1  H21C 3829  -0.060   3.425   4.034 -1.2677 -1.1596  0.9066
   52CHL1   C22 3830   0.152   3.452   4.204 -0.1753 -0.4053  0.6373
   52CHL1  H22A 3831   0.244   3.513   4.214 -0.5346  0.0575  1.1785
   52CHL1  H22B 3832   0.072   3.528   4.219  0.8847  1.1272 -1.0785
   52CHL1   C23 3833   0.147   3.348   4.319 -0.4297  0.1301  0.6343
   52CHL1  H23A 3834   0.053   3.288   4.323 -1.8087  2.0908 -0.5253
   52CHL1  H23B 3835   0.223   3.269   4.298 -2.5206 -1.8056 -0.0513
   52CHL1   C24 3836   0.164   3.419   4.456  0.1673 -0.1147 -0.0230
   52CHL1  H24A 3837   0.254   3.483   4.442  0.0279  0.0156 -0.3180
   52CHL1  H24B 3838   0.079   3.489   4.471 -0.8174 -0.7735 -2.1781
   52CHL1   C25 3839   0.182   3.334   4.581  0.1014  0.2703  0.5764
   52CHL1   H25 3840   0.267   3.268   4.555  0.8281  0.9641  1.1710
   52CHL1   C26 3841   0.217   3.426   4.701  0.5754  0.5998 -0.3678
   52CHL1  H26A 3842   0.294   3.503   4.678  2.2092 -0.7987  0.1627
   52CHL1  H26B 3843   0.129   3.486   4.733 -1.2108 -1.8281 -0.4953
   52CHL1  H26C 3844   0.241   3.371   4.795  2.0275  0.0949 -1.0126
   52CHL1   C27 3845   0.058   3.254   4.618  0.0772 -0.5275  1.1571
   52CHL1  H27A 3846  -0.026   3.323   4.640 -0.0510 -0.8431  1.6776
   52CHL1  H27B 3847   0.028   3.177   4.543 -0.3042 -1.9793  2.7303
   52CHL1  H27C 3848   0.086   3.206   4.714  1.4898  0.6233  1.3584
   53CHL1    C3 3849   2.494   6.741   2.564  0.2988  0.3544 -0.8751
   53CHL1    H3 3850   2.482   6.848   2.537  2.4847  0.6267 -0.9415
   53CHL1    O3 3851   2.505   6.662   2.448 -0.1304  0.2765  0.0363
   53CHL1   H3' 3852   2.558   6.583   2.467 -0.7767 -0.1377  0.1400
   53CHL1    C4 3853   2.626   6.729   2.643  0.6727 -0.0711 -0.1083
   53CHL1   H4A 3854   2.654   6.623   2.656  0.8653  0.1014  0.9550
   53CHL1   H4B 3855   2.695   6.786   2.576  0.8821 -1.2446 -0.9232
   53CHL1    C5 3856   2.618   6.801   2.781 -0.2425 -0.5139 -0.6444
   53CHL1    C6 3857   2.701   6.897   2.807  0.1418 -0.0367 -0.2591
   53CHL1    H6 3858   2.778   6.919   2.732  0.8640 -1.7158 -0.0643
   53CHL1    C7 3859   2.714   6.963   2.939  0.2936  0.2720  0.7300
   53CHL1   H7A 3860   2.821   6.966   2.968  0.8327 -1.7522 -0.8285
   53CHL1   H7B 3861   2.677   7.068   2.928 -2.0643 -0.7261 -2.3676
   53CHL1    C8 3862   2.620   6.897   3.041  0.1325 -0.2607 -0.3885
   53CHL1    H8 3863   2.662   6.798   3.069  1.0955 -0.4038 -2.1813
   53CHL1   C14 3864   2.620   6.987   3.167  0.5342 -0.5368  0.7116
   53CHL1   H14 3865   2.565   7.079   3.139 -1.3214 -1.2995  1.6996
   53CHL1   C15 3866   2.756   7.027   3.219  0.5075  0.4648  0.1492
   53CHL1  H15A 3867   2.820   6.936   3.224 -0.1647 -0.0369 -0.3541
   53CHL1  H15B 3868   2.800   7.112   3.164  0.8882 -0.1384 -0.4936
   53CHL1   C16 3869   2.716   7.074   3.356 -0.0310 -0.0787  0.0403
   53CHL1  H16A 3870   2.789   7.028   3.426  3.7676  3.1983 -1.3809
   53CHL1  H16B 3871   2.721   7.184   3.367 -1.5892 -0.2008  2.7006
   53CHL1   C17 3872   2.572   7.029   3.397  0.7731  0.0489 -0.0993
   53CHL1   H17 3873   2.508   7.118   3.376 -0.4981 -0.5581  1.0306
   53CHL1   C13 3874   2.538   6.928   3.283  0.1262 -0.3392  0.1142
   53CHL1   C18 3875   2.578   6.787   3.326  0.6268 -0.1329  0.6371
   53CHL1  H18A 3876   2.677   6.789   3.375  0.9696 -0.5308 -0.0408
   53CHL1  H18B 3877   2.505   6.741   3.396  0.0161  0.4936  0.4331
   53CHL1  H18C 3878   2.593   6.717   3.241  0.8772  0.1452  0.4492
   53CHL1   C12 3879   2.392   6.918   3.231  0.1856 -0.8931 -0.5142
   53CHL1  H12A 3880   2.335   6.878   3.318  0.5270 -0.8045 -0.2465
   53CHL1  H12B 3881   2.359   7.023   3.215 -2.1200 -1.1715  1.7183
   53CHL1   C11 3882   2.375   6.835   3.101 -0.4180  0.2595 -0.1140
   53CHL1  H11A 3883   2.394   6.731   3.135 -0.6840 -0.2171 -1.3651
   53CHL1  H11B 3884   2.274   6.844   3.054  0.4171  0.8544 -1.8520
   53CHL1    C9 3885   2.481   6.869   2.991  0.1546 -0.8340  0.3827
   53CHL1    H9 3886   2.447   6.965   2.947  0.2864 -1.0874 -0.2896
   53CHL1   C10 3887   2.493   6.768   2.872 -0.9395  0.3323  0.0103
   53CHL1   C19 3888   2.508   6.618   2.919  0.0864  0.2325  0.2691
   53CHL1  H19A 3889   2.594   6.615   2.989 -1.1226 -3.0362  1.8164
   53CHL1  H19B 3890   2.413   6.579   2.961 -0.7684 -0.7772 -2.3844
   53CHL1  H19C 3891   2.537   6.567   2.825 -0.7569 -0.6370  0.4607
   53CHL1    C1 3892   2.370   6.780   2.783 -0.9947 -0.6171  0.1584
   53CHL1   H1A 3893   2.291   6.741   2.850 -0.3593  1.3690  2.1766
   53CHL1   H1B 3894   2.350   6.887   2.761  1.9982 -0.0791 -0.4756
   53CHL1    C2 3895   2.374   6.697   2.649 -0.0263 -0.2548  0.2976
   53CHL1   H2A 3896   2.277   6.716   2.597  0.4141  0.5236 -0.2463
   53CHL1   H2B 3897   2.379   6.588   2.671 -0.6665 -1.0094 -2.8471
   53CHL1   C20 3898   2.557   6.978   3.546 -0.0905 -0.6359  1.2017
   53CHL1   H20 3899   2.626   6.892   3.556 -0.6130 -1.4553 -1.4984
   53CHL1   C21 3900   2.406   6.948   3.566  0.0733 -0.6985 -0.3756
   53CHL1  H21A 3901   2.384   6.846   3.528 -0.3719 -0.7475  0.0035
   53CHL1  H21B 3902   2.333   7.012   3.512 -2.3504 -1.3839  1.8678
   53CHL1  H21C 3903   2.381   6.948   3.674 -2.0726  0.6404 -0.8060
   53CHL1   C22 3904   2.613   7.093   3.640  0.1289  0.2057 -0.7953
   53CHL1  H22A 3905   2.699   7.143   3.590 -0.4595  0.5130 -1.5232
   53CHL1  H22B 3906   2.539   7.176   3.644 -1.0004 -0.7799 -0.7059
   53CHL1   C23 3907   2.660   7.034   3.769 -0.4434 -0.4119  0.5963
   53CHL1  H23A 3908   2.576   6.976   3.813 -2.4184  2.6133  1.1101
   53CHL1  H23B 3909   2.738   6.957   3.753 -0.4195 -0.4838  1.0466
   53CHL1   C24 3910   2.695   7.132   3.880 -0.4539  0.4071 -0.0722
   53CHL1  H24A 3911   2.762   7.207   3.833  2.1401 -0.8777  1.3810
   53CHL1  H24B 3912   2.614   7.180   3.939 -2.1609 -3.0346  0.6274
   53CHL1   C25 3913   2.781   7.063   3.985  0.3176 -0.2842 -0.6359
   53CHL1   H25 3914   2.881   7.040   3.944  0.9204 -0.3277  0.8076
   53CHL1   C26 3915   2.826   7.168   4.092 -0.0996 -0.9643 -0.4490
   53CHL1  H26A 3916   2.856   7.112   4.183 -0.7117  0.0452  0.3984
   53CHL1  H26B 3917   2.895   7.248   4.058  0.5196 -1.4572 -0.3647
   53CHL1  H26C 3918   2.740   7.231   4.124 -1.0151 -2.0652 -0.6675
   53CHL1   C27 3919   2.700   6.951   4.055  0.1305  0.2861 -0.1741
   53CHL1  H27A 3920   2.705   6.860   3.992  1.0155 -0.5454  1.0598
   53CHL1  H27B 3921   2.737   6.914   4.153 -4.1424  0.0359  1.5428
   53CHL1  H27C 3922   2.597   6.988   4.073 -0.9169 -0.8341 -3.2782
   54CHL1    C3 3923   2.831   1.557   2.637  1.2904 -0.1310 -0.7608
   54CHL1    H3 3924   2.838   1.663   2.672  0.4711 -0.8510  1.8410
   54CHL1    O3 3925   2.850   1.557   2.500 -0.3312  0.0400  0.3237
   54CHL1   H3' 3926   2.833   1.468   2.470  0.3388 -0.0493  0.1760
   54CHL1    C4 3927   2.925   1.472   2.715  0.0882  0.5043 -0.2845
   54CHL1   H4A 3928   2.919   1.364   2.687  0.3235  0.3735  0.1544
   54CHL1   H4B 3929   3.026   1.505   2.680  0.6034  1.4178  1.8874
   54CHL1    C5 3930   2.904   1.504   2.864  0.2227 -0.1373 -0.5773
   54CHL1    C6 3931   2.998   1.549   2.943  0.4124  0.0569 -0.0130
   54CHL1    H6 3932   3.101   1.551   2.906  0.0343 -1.0803 -1.2327
   54CHL1    C7 3933   2.969   1.574   3.088  0.7195 -0.5731  0.9232
   54CHL1   H7A 3934   3.047   1.535   3.157  0.1908  1.7775  2.9545
   54CHL1   H7B 3935   2.964   1.684   3.101  0.5283 -0.1105 -2.2884
   54CHL1    C8 3936   2.840   1.515   3.145 -1.4584  0.6517 -0.0799
   54CHL1    H8 3937   2.847   1.406   3.165  1.4568  0.9892  1.2520
   54CHL1   C14 3938   2.801   1.577   3.284 -0.2931  0.3609  0.0307
   54CHL1   H14 3939   2.781   1.685   3.269 -3.9233 -0.0185  1.0153
   54CHL1   C15 3940   2.910   1.563   3.392  0.2775  0.1730 -0.1394
   54CHL1  H15A 3941   2.954   1.461   3.389  0.1123 -0.0015  2.1079
   54CHL1  H15B 3942   2.996   1.633   3.388  0.0899  0.5047  1.2530
   54CHL1   C16 3943   2.827   1.596   3.514 -0.8292 -0.2324 -0.8492
   54CHL1  H16A 3944   2.858   1.519   3.589 -0.1465  1.4556  0.6971
   54CHL1  H16B 3945   2.849   1.699   3.551 -1.8344  0.3089 -1.7253
   54CHL1   C17 3946   2.678   1.591   3.477  0.5794 -0.1650 -0.1975
   54CHL1   H17 3947   2.632   1.691   3.462  2.0230  0.5887  0.2082
   54CHL1   C13 3948   2.668   1.521   3.338 -0.3378 -0.1579  0.2914
   54CHL1   C18 3949   2.664   1.368   3.354  0.5269 -0.1834 -0.2084
   54CHL1  H18A 3950   2.562   1.332   3.377  0.2913  0.5433 -0.0941
   54CHL1  H18B 3951   2.685   1.311   3.261  1.2381  1.4924 -1.1214
   54CHL1  H18C 3952   2.736   1.329   3.430  1.7129 -0.5409 -1.4608
   54CHL1   C12 3953   2.552   1.570   3.253  0.5113 -0.4720  0.0613
   54CHL1  H12A 3954   2.461   1.510   3.275  1.3580 -1.9086 -0.2008
   54CHL1  H12B 3955   2.546   1.680   3.263  2.6918 -0.1319 -1.6260
   54CHL1   C11 3956   2.582   1.518   3.112 -0.1522  0.0806 -0.7728
   54CHL1  H11A 3957   2.569   1.407   3.111 -0.6587  0.1369 -1.1468
   54CHL1  H11B 3958   2.499   1.548   3.045  0.3850  2.1197 -0.5965
   54CHL1    C9 3959   2.718   1.553   3.055  0.1103 -0.3053  1.0408
   54CHL1    H9 3960   2.707   1.663   3.048  0.2940 -0.1428  2.8528
   54CHL1   C10 3961   2.757   1.492   2.916 -0.9010  0.4236  0.1935
   54CHL1   C19 3962   2.741   1.335   2.928  0.4218 -0.7224 -0.0525
   54CHL1  H19A 3963   2.766   1.285   2.832  3.4295 -2.4896  1.4928
   54CHL1  H19B 3964   2.812   1.284   2.997  0.7502 -0.9323 -0.5342
   54CHL1  H19C 3965   2.636   1.305   2.947  0.5347 -3.6221 -3.0176
   54CHL1    C1 3966   2.649   1.535   2.812 -0.2147 -0.5369  0.1328
   54CHL1   H1A 3967   2.558   1.477   2.836  0.3906 -1.8614 -0.6869
   54CHL1   H1B 3968   2.624   1.643   2.827 -2.4725 -1.1458  1.0640
   54CHL1    C2 3969   2.682   1.512   2.662  0.6970 -0.6690 -0.4929
   54CHL1   H2A 3970   2.607   1.577   2.612 -0.4612 -2.7255 -1.6018
   54CHL1   H2B 3971   2.656   1.407   2.637 -1.3044 -0.2187 -0.4725
   54CHL1   C20 3972   2.591   1.535   3.597  0.1232 -0.0895 -0.4392
   54CHL1   H20 3973   2.621   1.428   3.608  0.5678  0.1649  1.0177
   54CHL1   C21 3974   2.439   1.538   3.552 -0.7023 -0.0298 -0.2668
   54CHL1  H21A 3975   2.409   1.461   3.477  0.6186  0.4497 -1.3335
   54CHL1  H21B 3976   2.405   1.639   3.518 -0.8533  0.7229  1.9701
   54CHL1  H21C 3977   2.375   1.519   3.641 -0.8790 -1.2921 -0.6469
   54CHL1   C22 3978   2.618   1.610   3.730  0.2792  0.0063 -0.1044
   54CHL1  H22A 3979   2.555   1.559   3.807  0.6973 -1.6760 -0.8298
   54CHL1  H22B 3980   2.708   1.556   3.767 -0.8301 -1.4545  0.6023
   54CHL1   C23 3981   2.616   1.765   3.744  0.6700 -0.3778 -0.0720
   54CHL1  H23A 3982   2.687   1.822   3.681 -0.5213  0.6328 -0.5279
   54CHL1  H23B 3983   2.513   1.795   3.714  1.3717  0.4698 -1.7791
   54CHL1   C24 3984   2.622   1.811   3.893 -0.1172  0.5180  0.4026
   54CHL1  H24A 3985   2.526   1.782   3.940 -0.0074  1.2253  1.0794
   54CHL1  H24B 3986   2.705   1.756   3.941  1.2385  1.6497 -0.5647
   54CHL1   C25 3987   2.643   1.963   3.913 -0.5395 -0.4569  0.1771
   54CHL1   H25 3988   2.584   2.024   3.842  0.6375  1.4887  0.8019
   54CHL1   C26 3989   2.602   2.014   4.051 -0.2569  0.2868 -0.5157
   54CHL1  H26A 3990   2.607   2.125   4.054  0.4411  0.2694 -0.8665
   54CHL1  H26B 3991   2.499   1.978   4.073  0.7988 -1.8676  1.3267
   54CHL1  H26C 3992   2.671   1.977   4.130 -2.5304  0.5892  1.7638
   54CHL1   C27 3993   2.790   1.996   3.897  0.2087 -0.5185 -0.0971
   54CHL1  H27A 3994   2.807   2.103   3.921  1.1326 -0.6129 -0.2833
   54CHL1  H27B 3995   2.853   1.923   3.952  1.3774  0.2360 -0.3989
   54CHL1  H27C 3996   2.817   1.992   3.789 -0.3562 -0.6438 -0.2329
   55CHL1    C3 3997   5.322   3.340   2.610  0.2646 -0.2602  0.1405
   55CHL1    H3 3998   5.240   3.274   2.642 -0.0793 -0.7426 -1.6256
   55CHL1    O3 3999   5.325   3.361   2.469 -0.1322 -0.0315 -0.1460
   55CHL1   H3' 4000   5.324   3.272   2.430  0.6268 -0.5199  0.9097
   55CHL1    C4 4001   5.306   3.473   2.690  0.3968  0.2568  0.0701
   55CHL1   H4A 4002   5.385   3.548   2.666  0.9275  0.2685  1.7711
   55CHL1   H4B 4003   5.211   3.521   2.658  0.6142  0.7198  0.1038
   55CHL1    C5 4004   5.305   3.433   2.837  0.3572  0.5124  0.2881
   55CHL1    C6 4005   5.200   3.461   2.912 -0.0259  0.1375  0.2086
   55CHL1    H6 4006   5.114   3.507   2.862 -0.0510  0.0441  0.1654
   55CHL1    C7 4007   5.192   3.456   3.064  0.1701  0.3068 -0.4154
   55CHL1   H7A 4008   5.158   3.554   3.105 -2.3508 -1.4070  1.9635
   55CHL1   H7B 4009   5.115   3.380   3.089  2.6311 -2.0110  0.6007
   55CHL1    C8 4010   5.337   3.429   3.114  0.0215  0.6166 -0.4400
   55CHL1    H8 4011   5.394   3.524   3.120  1.6216 -0.3007 -0.3173
   55CHL1   C14 4012   5.325   3.369   3.260 -0.1725 -0.3064  0.9889
   55CHL1   H14 4013   5.266   3.277   3.240 -1.1731  0.5091  0.0572
   55CHL1   C15 4014   5.239   3.446   3.357 -0.4340 -0.3953 -0.0881
   55CHL1  H15A 4015   5.255   3.551   3.326  0.5363  0.6167  3.3788
   55CHL1  H15B 4016   5.132   3.418   3.344 -0.4078 -1.0477  0.9807
   55CHL1   C16 4017   5.283   3.387   3.486 -0.5538 -0.5084 -0.9044
   55CHL1  H16A 4018   5.299   3.454   3.573 -1.0446 -1.8851  0.2899
   55CHL1  H16B 4019   5.200   3.333   3.537  0.0362 -0.6154 -0.0314
   55CHL1   C17 4020   5.407   3.295   3.470  0.1559 -0.0696  0.2768
   55CHL1   H17 4021   5.363   3.193   3.460 -0.1228 -0.1408  1.9049
   55CHL1   C13 4022   5.459   3.332   3.332  0.0455 -0.2076 -0.4832
   55CHL1   C18 4023   5.548   3.461   3.352  0.6816 -0.8433  0.0396
   55CHL1  H18A 4024   5.544   3.514   3.255 -1.0520  1.2261  1.1771
   55CHL1  H18B 4025   5.491   3.529   3.418 -2.4158 -0.2012 -2.9893
   55CHL1  H18C 4026   5.654   3.439   3.380  1.2186  0.8734 -0.5646
   55CHL1   C12 4027   5.522   3.223   3.249  0.0979  0.4868 -0.0193
   55CHL1  H12A 4028   5.622   3.197   3.290  0.4130 -1.4475 -1.8286
   55CHL1  H12B 4029   5.454   3.135   3.255  2.1428 -1.0844  2.3762
   55CHL1   C11 4030   5.544   3.274   3.105  0.3409 -0.1049 -0.3604
   55CHL1  H11A 4031   5.614   3.361   3.102  0.4311 -0.0867  1.3183
   55CHL1  H11B 4032   5.588   3.193   3.044  1.1584  1.0017 -1.2941
   55CHL1    C9 4033   5.414   3.331   3.028 -0.3385  0.2247  1.1939
   55CHL1    H9 4034   5.355   3.237   3.020  0.6816 -0.3336 -0.1842
   55CHL1   C10 4035   5.442   3.371   2.880 -0.7216  0.2881  0.4605
   55CHL1   C19 4036   5.562   3.464   2.872 -0.6443 -0.8236 -0.3046
   55CHL1  H19A 4037   5.539   3.552   2.936 -3.1758 -1.1922 -0.6161
   55CHL1  H19B 4038   5.654   3.418   2.916 -0.4626 -1.8461 -1.6807
   55CHL1  H19C 4039   5.586   3.486   2.765 -2.3071 -1.2836 -0.7943
   55CHL1    C1 4040   5.465   3.240   2.794  0.4678  0.0184  0.1819
   55CHL1   H1A 4041   5.563   3.192   2.814  0.0623 -2.5691 -3.1102
   55CHL1   H1B 4042   5.381   3.173   2.821 -2.4723  2.8059 -1.3218
   55CHL1    C2 4043   5.450   3.270   2.645 -0.9925 -0.0714  0.2586
   55CHL1   H2A 4044   5.458   3.175   2.588  2.1241  0.1047  0.2711
   55CHL1   H2B 4045   5.531   3.339   2.613 -1.4484  0.9839  1.3481
   55CHL1   C20 4046   5.492   3.301   3.590  0.0123  0.1254  0.3929
   55CHL1   H20 4047   5.522   3.406   3.609  0.1798  0.0725  0.4222
   55CHL1   C21 4048   5.612   3.207   3.563  0.1477  0.5848 -0.2280
   55CHL1  H21A 4049   5.679   3.199   3.652 -0.2307  0.9870  0.1000
   55CHL1  H21B 4050   5.678   3.243   3.481  2.1923 -0.2802  0.9432
   55CHL1  H21C 4051   5.578   3.104   3.543  0.1932  0.7426 -1.1517
   55CHL1   C22 4052   5.422   3.261   3.725 -0.0026 -0.2910 -0.9370
   55CHL1  H22A 4053   5.333   3.322   3.751 -0.1825 -1.8447  2.6351
   55CHL1  H22B 4054   5.385   3.157   3.715  0.1605 -0.1727 -3.1858
   55CHL1   C23 4055   5.507   3.287   3.851  0.1098 -0.7968 -0.3721
   55CHL1  H23A 4056   5.584   3.208   3.863  0.1536 -0.7520 -0.3602
   55CHL1  H23B 4057   5.555   3.386   3.834 -2.1945  0.3637 -0.5776
   55CHL1   C24 4058   5.422   3.289   3.981  0.1614 -0.4578  0.7136
   55CHL1  H24A 4059   5.346   3.370   3.977  0.9202  0.2942  1.2017
   55CHL1  H24B 4060   5.370   3.191   3.979  0.0623 -0.4207 -2.4579
   55CHL1   C25 4061   5.494   3.306   4.119 -0.1580 -0.8752  0.0403
   55CHL1   H25 4062   5.578   3.232   4.121 -0.5172 -1.3972 -1.9678
   55CHL1   C26 4063   5.563   3.450   4.136 -0.4433  0.1549 -0.5960
   55CHL1  H26A 4064   5.655   3.452   4.074  0.1521  1.8637  0.2672
   55CHL1  H26B 4065   5.503   3.536   4.101  0.6938  1.5869  0.8157
   55CHL1  H26C 4066   5.595   3.462   4.242  1.3386  0.2834 -1.1210
   55CHL1   C27 4067   5.399   3.290   4.231 -0.2420  0.7584 -0.0215
   55CHL1  H27A 4068   5.455   3.275   4.326  1.9711  1.0133 -1.2235
   55CHL1  H27B 4069   5.330   3.377   4.241 -0.2167  0.8208 -0.3696
   55CHL1  H27C 4070   5.340   3.197   4.221  0.7608  0.0210  0.6933
   56CHL1    C3 4071   5.802   1.071   2.755  0.4719 -0.8625 -0.1448
   56CHL1    H3 4072   5.701   1.026   2.762  0.9095 -1.7156  0.9911
   56CHL1    O3 4073   5.842   1.070   2.624  0.0534  0.0783 -0.4757
   56CHL1   H3' 4074   5.855   1.159   2.589 -1.8133  0.8306  0.5850
   56CHL1    C4 4075   5.796   1.220   2.800  0.6770 -0.0698  0.8039
   56CHL1   H4A 4076   5.898   1.257   2.778  0.3705  0.3912  0.1414
   56CHL1   H4B 4077   5.721   1.274   2.737  1.7167  0.6060  0.1267
   56CHL1    C5 4078   5.770   1.243   2.940  0.3305 -0.5532  0.2345
   56CHL1    C6 4079   5.682   1.334   2.981  0.5125  0.0393  0.7822
   56CHL1    H6 4080   5.624   1.395   2.909  0.2648  0.5828  1.4323
   56CHL1    C7 4081   5.662   1.366   3.123 -0.2221  0.1410  0.4491
   56CHL1   H7A 4082   5.657   1.476   3.137 -0.8955  0.4768 -1.9398
   56CHL1   H7B 4083   5.555   1.343   3.138 -0.3066  0.9743  1.2021
   56CHL1    C8 4084   5.759   1.301   3.220 -0.2002 -0.1938 -0.0365
   56CHL1    H8 4085   5.853   1.360   3.227  1.5616 -3.0216  3.2485
   56CHL1   C14 4086   5.695   1.286   3.358  0.4106 -0.8045  0.8930
   56CHL1   H14 4087   5.624   1.202   3.343 -1.2534  0.5192  1.0170
   56CHL1   C15 4088   5.616   1.404   3.417  0.6646  0.8301 -0.8130
   56CHL1  H15A 4089   5.685   1.491   3.411  2.6000 -0.6698 -1.4624
   56CHL1  H15B 4090   5.522   1.436   3.368  1.3914  2.2284 -1.3710
   56CHL1   C16 4091   5.599   1.355   3.564 -1.0168 -0.2251 -0.4351
   56CHL1  H16A 4092   5.631   1.440   3.628  1.2753 -1.3865  0.0641
   56CHL1  H16B 4093   5.498   1.323   3.596  0.8101 -2.8292  3.5530
   56CHL1   C17 4094   5.699   1.240   3.598  0.6330 -0.3110 -0.0800
   56CHL1   H17 4095   5.634   1.149   3.595 -1.8173  1.3652 -3.1586
   56CHL1   C13 4096   5.789   1.235   3.475 -0.6747  0.1780  0.0868
   56CHL1   C18 4097   5.908   1.328   3.497 -0.0285  0.2901  0.3204
   56CHL1  H18A 4098   5.960   1.331   3.399  3.1674  0.8387  1.9020
   56CHL1  H18B 4099   5.888   1.435   3.522  0.7450  0.5414 -0.0789
   56CHL1  H18C 4100   5.975   1.293   3.579  1.4459  0.3793 -0.8155
   56CHL1   C12 4101   5.834   1.089   3.427 -0.9036  0.0915  0.1761
   56CHL1  H12A 4102   5.909   1.057   3.502 -0.6490  2.6717  1.1151
   56CHL1  H12B 4103   5.750   1.016   3.421 -0.9935  0.2445 -0.5170
   56CHL1   C11 4104   5.904   1.093   3.284  1.1381  0.2532  0.4368
   56CHL1  H11A 4105   5.998   1.151   3.295  2.3281 -1.7155  1.0821
   56CHL1  H11B 4106   5.925   0.987   3.257  1.5091  0.4776 -0.1852
   56CHL1    C9 4107   5.805   1.161   3.177 -0.7709  0.2387 -0.3942
   56CHL1    H9 4108   5.711   1.102   3.180 -1.9573  2.0915  2.0676
   56CHL1   C10 4109   5.860   1.160   3.033 -0.5212  0.3448  0.5223
   56CHL1   C19 4110   6.006   1.224   3.038  0.0939  0.5263  0.2154
   56CHL1  H19A 4111   6.078   1.163   3.097 -0.7437 -0.0776  0.6328
   56CHL1  H19B 4112   6.044   1.232   2.934  0.7640  1.2300  0.4985
   56CHL1  H19C 4113   6.011   1.326   3.082  1.4664  0.3258  0.5898
   56CHL1    C1 4114   5.860   1.013   2.994 -0.2058  0.0850  0.4360
   56CHL1   H1A 4115   5.929   0.952   3.055 -0.3064  0.4186  0.8873
   56CHL1   H1B 4116   5.755   0.977   2.999 -1.3146  2.9778  0.3142
   56CHL1    C2 4117   5.900   0.995   2.844  0.0420 -1.0429  0.2287
   56CHL1   H2A 4118   5.883   0.889   2.816 -2.4709 -0.5593 -0.3018
   56CHL1   H2B 4119   6.001   1.041   2.832 -1.0186  1.4754  0.3950
   56CHL1   C20 4120   5.767   1.253   3.736  0.1574  1.3946  0.1749
   56CHL1   H20 4121   5.807   1.356   3.737  0.7727  1.1834  2.6002
   56CHL1   C21 4122   5.865   1.137   3.763  0.0091  0.3646 -0.0977
   56CHL1  H21A 4123   5.906   1.155   3.864  0.3920 -2.9800  0.4406
   56CHL1  H21B 4124   5.947   1.134   3.687  1.7520  0.8617  1.6915
   56CHL1  H21C 4125   5.815   1.038   3.762 -1.9319  1.2299 -3.1815
   56CHL1   C22 4126   5.656   1.262   3.848 -0.4557  0.6966 -0.3105
   56CHL1  H22A 4127   5.563   1.311   3.811 -1.3878  0.3913  1.5031
   56CHL1  H22B 4128   5.639   1.156   3.875  1.5131 -0.3075 -2.6564
   56CHL1   C23 4129   5.701   1.351   3.961  0.4986 -1.0382  0.1131
   56CHL1  H23A 4130   5.805   1.330   3.994  0.9797  3.1412  1.9169
   56CHL1  H23B 4131   5.722   1.450   3.916 -1.8846 -1.2505 -1.6762
   56CHL1   C24 4132   5.613   1.376   4.086  0.3801  0.4795  0.4917
   56CHL1  H24A 4133   5.518   1.427   4.058  0.6114  1.0016  0.6509
   56CHL1  H24B 4134   5.578   1.285   4.139 -0.3014  0.0177 -0.7043
   56CHL1   C25 4135   5.685   1.467   4.187 -1.0835  0.5088 -0.5527
   56CHL1   H25 4136   5.742   1.544   4.130  0.4737 -1.0385 -1.2014
   56CHL1   C26 4137   5.592   1.548   4.284  0.3561  0.2426  0.1047
   56CHL1  H26A 4138   5.535   1.621   4.223 -2.3126 -1.1289  0.7831
   56CHL1  H26B 4139   5.514   1.481   4.327 -2.1360  1.6308 -1.9576
   56CHL1  H26C 4140   5.644   1.599   4.368  2.9686  1.2300 -1.9950
   56CHL1   C27 4141   5.796   1.382   4.257 -0.0270 -0.3982  0.4902
   56CHL1  H27A 4142   5.745   1.301   4.313 -1.6933  2.7241  3.9660
   56CHL1  H27B 4143   5.876   1.339   4.193  0.1671 -1.5256  1.4706
   56CHL1  H27C 4144   5.858   1.446   4.323 -0.5863  0.3999  0.2663
   57SAPC     N 4145   6.274   2.205   6.330  0.5092  0.1235 -0.4159
   57SAPC   C12 4146   6.188   2.329   6.357  0.3234 -0.6733  0.1903
   57SAPC  H12A 4147   6.246   2.420   6.366  1.9569 -1.7528  1.1119
   57SAPC  H12B 4148   6.147   2.324   6.457  1.6191  1.0215  0.8557
   57SAPC   C13 4149   6.402   2.215   6.401 -0.2975 -0.1661 -0.1196
   57SAPC  H13A 4150   6.455   2.123   6.387 -0.5273 -0.6580  1.8801
   57SAPC  H13B 4151   6.460   2.296   6.358  0.2406 -0.0783  0.7429
   57SAPC  H13C 4152   6.386   2.229   6.507  0.1481 -1.9247  0.2055
   57SAPC   C14 4153   6.204   2.086   6.374  0.3311 -0.5047  0.0704
   57SAPC  H14A 4154   6.148   2.109   6.463  1.0895  2.1801 -0.0696
   57SAPC  H14B 4155   6.135   2.062   6.295 -0.7932  0.1723  0.8189
   57SAPC  H14C 4156   6.272   2.005   6.396  3.1358  1.4906 -0.7144
   57SAPC   C15 4157   6.307   2.191   6.187  0.0757 -0.5396 -0.1991
   57SAPC  H15A 4158   6.224   2.179   6.119 -0.1410 -1.5927  0.2398
   57SAPC  H15B 4159   6.361   2.277   6.151 -1.7608  0.4048 -0.8247
   57SAPC  H15C 4160   6.361   2.101   6.161 -1.2797 -1.2807 -0.5224
   57SAPC   C11 4161   6.066   2.359   6.263 -0.2456  0.2045 -0.1590
   57SAPC  H11A 4162   6.097   2.383   6.159 -1.9293 -1.6130 -1.1445
   57SAPC  H11B 4163   6.016   2.453   6.295 -1.7077 -1.1586  1.7959
   57SAPC     P 4164   5.868   2.228   6.379 -0.2556 -0.0041  0.2861
   57SAPC   O13 4165   5.852   2.084   6.408  0.2243 -0.0360 -0.1958
   57SAPC   O14 4166   5.914   2.311   6.493 -0.0283 -0.2739  0.2870
   57SAPC   O12 4167   5.967   2.245   6.261 -0.3808 -0.5130  0.3232
   57SAPC   O11 4168   5.726   2.287   6.336 -0.8780  0.3257 -0.1815
   57SAPC    C1 4169   5.721   2.398   6.243 -0.3548 -0.1615 -0.4003
   57SAPC    HA 4170   5.689   2.487   6.300 -1.1939 -1.1485  0.7192
   57SAPC    HB 4171   5.816   2.415   6.188 -0.1931 -1.5246 -0.5716
   57SAPC    C2 4172   5.618   2.369   6.128 -0.4267 -0.5667 -0.4773
   57SAPC    HS 4173   5.606   2.465   6.072  0.1281 -0.9440 -1.2558
   57SAPC   O21 4174   5.498   2.322   6.186  0.1746 -0.3989 -0.2432
   57SAPC   C21 4175   5.407   2.412   6.229 -0.4381 -0.5079 -0.4939
   57SAPC   O22 4176   5.424   2.528   6.253 -0.4365 -0.0602  0.0810
   57SAPC   C22 4177   5.272   2.334   6.258 -0.1184 -0.6011  0.3325
   57SAPC   H2R 4178   5.295   2.233   6.299 -0.0663 -1.0594 -0.8098
   57SAPC   H2S 4179   5.212   2.393   6.331 -2.1862 -1.0169 -0.9485
   57SAPC    C3 4180   5.678   2.261   6.028 -0.0927  0.3028  0.1645
   57SAPC    HX 4181   5.701   2.163   6.076 -0.0520 -0.6258 -1.6815
   57SAPC    HY 4182   5.776   2.304   5.997 -1.3519  1.1612 -2.9003
   57SAPC   O31 4183   5.595   2.240   5.917 -0.1642 -0.7261  0.4107
   57SAPC   C31 4184   5.591   2.330   5.810 -0.1081 -0.7855  0.0122
   57SAPC   O32 4185   5.668   2.429   5.806  0.4412 -0.0354  0.8867
   57SAPC   C32 4186   5.482   2.294   5.705 -0.5079 -0.4707  0.0290
   57SAPC   H2X 4187   5.382   2.338   5.729 -0.1888 -0.6526  1.8588
   57SAPC   H2Y 4188   5.473   2.183   5.704 -0.6184 -0.4731  0.7931
   57SAPC   C23 4189   5.189   2.307   6.129  0.5846 -0.5431  0.4897
   57SAPC   H3R 4190   5.144   2.400   6.089 -0.2092 -0.4063  1.6360
   57SAPC   H3S 4191   5.104   2.239   6.154  0.5294 -1.5850 -2.2491
   57SAPC   C24 4192   5.253   2.215   6.022 -0.2779  0.5611 -0.5063
   57SAPC   H4R 4193   5.345   2.272   5.995  1.7754 -0.0203  4.2908
   57SAPC   H4S 4194   5.186   2.216   5.933  1.0425 -0.8634 -1.5548
   57SAPC   C25 4195   5.305   2.080   6.063  0.1052  0.6977 -0.4038
   57SAPC   H5R 4196   5.384   2.085   6.140 -1.4661  1.9993  1.2028
   57SAPC   C26 4197   5.279   1.966   6.000  0.3708 -0.2321 -0.1778
   57SAPC   H6R 4198   5.315   1.871   6.041 -1.8790 -0.8017  0.6153
   57SAPC   C27 4199   5.201   1.961   5.873 -0.5595 -0.2799 -0.2327
   57SAPC   H7R 4200   5.253   2.023   5.798  0.0620  1.3397  1.4554
   57SAPC   H7S 4201   5.100   2.008   5.880 -0.9895 -1.2079 -0.0188
   57SAPC   C28 4202   5.202   1.820   5.823  0.0315  0.2337 -0.1770
   57SAPC   H8R 4203   5.237   1.739   5.889  1.4622 -0.2261 -1.4404
   57SAPC   C29 4204   5.159   1.782   5.703 -0.7224  0.4612  0.1473
   57SAPC   H9R 4205   5.155   1.672   5.704 -1.7556  0.4804  1.7418
   57SAPC  C210 4206   5.121   1.852   5.579  0.3753  0.0456  1.5173
   57SAPC  H10R 4207   5.176   1.949   5.574  2.1904 -0.9966 -0.3311
   57SAPC  H10S 4208   5.012   1.869   5.572  0.4314 -0.3827 -2.0103
   57SAPC  C211 4209   5.158   1.769   5.453 -0.0068  0.9227 -1.0579
   57SAPC  H11R 4210   5.259   1.727   5.449  0.2120  0.7041  3.0202
   57SAPC  C212 4211   5.080   1.745   5.348  0.8184  0.6540 -0.3818
   57SAPC  H12R 4212   5.116   1.687   5.262 -0.1623  0.0763 -0.4268
   57SAPC  C213 4213   4.943   1.791   5.317 -0.2264  0.1528  0.5203
   57SAPC  H13R 4214   4.882   1.771   5.407 -1.4511  1.5981  0.0678
   57SAPC  H13S 4215   4.909   1.725   5.234  1.2465 -1.1412  0.9121
   57SAPC  C214 4216   4.922   1.940   5.297 -0.7658  0.4008  0.4654
   57SAPC  H14R 4217   4.967   1.993   5.383 -0.6318 -1.4387  1.5851
   57SAPC  C215 4218   4.880   2.008   5.189 -0.2789  0.1728 -0.3125
   57SAPC  H15R 4219   4.849   2.111   5.212 -0.5841 -0.1056  0.5723
   57SAPC  C216 4220   4.836   1.968   5.050  0.2967  0.3060  0.0945
   57SAPC  H16R 4221   4.736   1.919   5.057  0.6668 -0.4785  0.0583
   57SAPC  H16S 4222   4.907   1.890   5.014  2.1460  2.3948 -1.0111
   57SAPC  C217 4223   4.818   2.092   4.954  0.1343  0.1976  0.2604
   57SAPC  H17R 4224   4.828   2.047   4.853 -3.7128 -0.9301  0.2102
   57SAPC  H17S 4225   4.890   2.175   4.961  0.5725 -0.1831  0.3182
   57SAPC  C218 4226   4.676   2.145   4.975 -0.4742  0.4330 -0.2983
   57SAPC  H18R 4227   4.684   2.208   5.066 -0.2684 -1.3885  0.9923
   57SAPC  H18S 4228   4.600   2.066   4.995 -0.5938  1.0878  2.1882
   57SAPC  C219 4229   4.627   2.227   4.859 -0.4659 -0.9117 -0.1453
   57SAPC  H19R 4230   4.646   2.156   4.775  0.1870 -1.9895  0.8808
   57SAPC  H19S 4231   4.703   2.306   4.840  0.4071 -1.6967 -0.0314
   57SAPC  C220 4232   4.483   2.284   4.867  0.2349  0.0007  0.0561
   57SAPC  H20R 4233   4.409   2.216   4.913 -0.4610  0.7904  0.1361
   57SAPC  H20S 4234   4.446   2.296   4.763 -0.1590 -1.0086  0.0739
   57SAPC  H20T 4235   4.474   2.382   4.919  0.6861 -0.1489  0.4334
   57SAPC   C33 4236   5.525   2.344   5.564 -0.5197 -0.4925 -0.3720
   57SAPC   H3X 4237   5.620   2.298   5.529 -0.0781  0.0612  0.0535
   57SAPC   H3Y 4238   5.544   2.453   5.574  1.0625 -0.7918  0.1756
   57SAPC   C34 4239   5.430   2.336   5.443  0.9764 -0.0599 -0.1635
   57SAPC   H4X 4240   5.486   2.369   5.353  2.0815  0.3777  0.6693
   57SAPC   H4Y 4241   5.341   2.402   5.448  0.3632 -0.9416  1.1535
   57SAPC   C35 4242   5.385   2.190   5.429 -0.1689  1.0152  0.0875
   57SAPC   H5X 4243   5.349   2.155   5.528  0.9197 -1.2946 -0.2722
   57SAPC   H5Y 4244   5.467   2.121   5.398 -3.6097 -2.8645 -1.3339
   57SAPC   C36 4245   5.273   2.164   5.326 -0.0574  0.5417 -0.0072
   57SAPC   H6X 4246   5.187   2.229   5.352  0.7137  1.6148 -0.0571
   57SAPC   H6Y 4247   5.248   2.057   5.339  0.1033  0.6698  1.7144
   57SAPC   C37 4248   5.314   2.189   5.175 -0.5331  0.0123 -0.2310
   57SAPC   H7X 4249   5.406   2.128   5.162  0.2242  1.2867 -1.0440
   57SAPC   H7Y 4250   5.338   2.296   5.159 -2.3858  0.1637 -2.4949
   57SAPC   C38 4251   5.207   2.139   5.079  0.4512  0.5025  0.4477
   57SAPC   H8X 4252   5.123   2.213   5.075 -1.3121 -1.4227  0.0065
   57SAPC   H8Y 4253   5.167   2.039   5.108 -0.9532  0.6119 -0.9524
   57SAPC   C39 4254   5.259   2.130   4.933  0.5027 -0.0548 -0.1548
   57SAPC   H9X 4255   5.330   2.046   4.920  1.2157  0.7722 -1.8617
   57SAPC   H9Y 4256   5.329   2.215   4.915  0.8596 -0.5429 -1.1298
   57SAPC  C310 4257   5.141   2.119   4.838 -0.4321  0.0963  0.1351
   57SAPC  H10X 4258   5.073   2.205   4.857 -1.3458  0.0462 -2.5029
   57SAPC  H10Y 4259   5.086   2.026   4.866 -1.6005  0.7999  0.2131
   57SAPC  C311 4260   5.171   2.134   4.690 -0.6906  0.2462  0.4289
   57SAPC  H11X 4261   5.255   2.069   4.657 -2.3016 -1.3281 -0.6944
   57SAPC  H11Y 4262   5.197   2.241   4.672  0.9911 -0.6134 -2.9217
   57SAPC  C312 4263   5.045   2.102   4.610  0.2191  0.4415 -0.0212
   57SAPC  H12X 4264   4.977   2.190   4.620  1.2674  1.2479  0.2281
   57SAPC  H12Y 4265   5.002   2.020   4.672  2.2379  2.2313  4.1551
   57SAPC  C313 4266   5.061   2.071   4.462  0.0342 -0.4425  0.1938
   57SAPC  H13X 4267   4.955   2.060   4.429 -0.8543  1.1728  2.3223
   57SAPC  H13Y 4268   5.124   1.981   4.443 -1.8199 -2.0055  1.0298
   57SAPC  C314 4269   5.118   2.191   4.381  0.3168 -0.2284  0.1006
   57SAPC  H14X 4270   5.150   2.150   4.283 -1.2862 -0.8385 -0.1970
   57SAPC  H14Y 4271   5.198   2.234   4.444 -0.1330  1.9012 -0.6932
   57SAPC  C315 4272   5.021   2.305   4.347 -0.4875 -0.0027  0.2442
   57SAPC  H15X 4273   4.963   2.345   4.432 -0.8534  0.3561 -0.1662
   57SAPC  H15Y 4274   4.952   2.277   4.264  1.0716 -2.0542 -0.4581
   57SAPC  C316 4275   5.102   2.439   4.308  0.2690  0.3999  0.0971
   57SAPC  H16X 4276   5.178   2.402   4.235 -1.1341 -0.1458 -1.1221
   57SAPC  H16Y 4277   5.168   2.465   4.395  0.5258 -1.2900  0.4451
   57SAPC  C317 4278   5.026   2.560   4.254 -0.2629  0.0745  0.4943
   57SAPC  H17X 4279   4.944   2.581   4.326 -0.6638 -1.1382  0.4232
   57SAPC  H17Y 4280   4.976   2.548   4.156  1.3614 -0.2362 -0.3338
   57SAPC  C318 4281   5.116   2.680   4.239  0.0251 -0.4952 -0.4826
   57SAPC  H18X 4282   5.115   2.727   4.340  0.5525 -4.1461  1.4006
   57SAPC  H18Y 4283   5.083   2.762   4.171  0.3130  2.9017  3.0728
   57SAPC  H18Z 4284   5.218   2.649   4.209  0.2332  0.9387 -1.3957
   58SAPC     N 4285   4.112   3.022   6.490  0.0823 -0.6601 -0.0870
   58SAPC   C12 4286   4.007   3.132   6.475 -0.7999 -0.0689 -0.1757
   58SAPC  H12A 4287   3.920   3.111   6.537  0.5427 -1.2175  1.4356
   58SAPC  H12B 4288   3.982   3.130   6.370  3.9812 -0.1025 -1.5383
   58SAPC   C13 4289   4.156   3.006   6.639  0.0152  0.0515 -1.1471
   58SAPC  H13A 4290   4.073   2.961   6.691  0.3192 -1.3066 -1.8057
   58SAPC  H13B 4291   4.240   2.939   6.635  0.7535  0.3162  3.9872
   58SAPC  H13C 4292   4.174   3.100   6.690 -0.5171 -0.3262 -0.2507
   58SAPC   C14 4293   4.055   2.890   6.447 -0.3704  0.1768 -0.2761
   58SAPC  H14A 4294   4.067   2.879   6.340  0.5241 -0.4280 -0.1288
   58SAPC  H14B 4295   4.114   2.808   6.486 -0.2724  0.3290 -0.1083
   58SAPC  H14C 4296   3.951   2.882   6.473 -0.0874  0.8136  1.1336
   58SAPC   C15 4297   4.236   3.054   6.412 -0.5695 -0.6931 -0.7516
   58SAPC  H15A 4298   4.317   2.984   6.424 -0.3408 -0.4635 -0.9402
   58SAPC  H15B 4299   4.228   3.062   6.304  0.4204 -0.1282 -0.7957
   58SAPC  H15C 4300   4.270   3.153   6.439 -2.5345 -0.5430  1.4882
   58SAPC   C11 4301   4.058   3.275   6.523 -0.4661  0.0054  0.4972
   58SAPC  H11A 4302   4.098   3.261   6.625 -0.0457  0.2672  0.3732
   58SAPC  H11B 4303   3.963   3.333   6.526  0.3196  1.4393 -0.7441
   58SAPC     P 4304   4.115   3.399   6.294  0.1792 -0.6335  0.1962
   58SAPC   O13 4305   4.227   3.494   6.277  0.2573 -0.1855 -0.5883
   58SAPC   O14 4306   4.096   3.287   6.193  0.4204 -0.1193 -0.0848
   58SAPC   O12 4307   4.151   3.335   6.433  0.5954  0.5864  0.7398
   58SAPC   O11 4308   3.978   3.475   6.318  0.1710  0.0739  0.5081
   58SAPC    C1 4309   3.882   3.515   6.216 -0.3538  0.1012  0.2365
   58SAPC    HA 4310   3.868   3.428   6.149  2.9968  0.5038 -1.1748
   58SAPC    HB 4311   3.781   3.534   6.258 -0.7307  0.1048 -0.6493
   58SAPC    C2 4312   3.929   3.631   6.119  0.1262 -0.0222 -0.3101
   58SAPC    HS 4313   3.848   3.672   6.055 -0.4485 -0.7839 -0.0877
   58SAPC   O21 4314   4.044   3.584   6.043 -0.3712 -0.4429 -0.2564
   58SAPC   C21 4315   4.006   3.524   5.932 -0.8366  0.1799 -0.2064
   58SAPC   O22 4316   3.893   3.507   5.892  0.5783  0.0890  0.1673
   58SAPC   C22 4317   4.131   3.481   5.855  0.1614 -0.1700 -0.2124
   58SAPC   H2R 4318   4.152   3.563   5.783 -1.8473  0.8177  0.2613
   58SAPC   H2S 4319   4.216   3.471   5.926  1.7025  1.9626 -1.6308
   58SAPC    C3 4320   3.973   3.751   6.209  0.0008 -0.1390  0.4581
   58SAPC    HX 4321   4.058   3.715   6.272  1.6159  0.2948 -1.3842
   58SAPC    HY 4322   3.886   3.793   6.264  0.1623 -0.3913  0.9180
   58SAPC   O31 4323   4.027   3.853   6.126  0.6872 -0.0368  0.2377
   58SAPC   C31 4324   4.093   3.944   6.201 -0.4948 -0.7162 -0.0984
   58SAPC   O32 4325   4.108   3.933   6.321  0.0735 -0.0473  0.1735
   58SAPC   C32 4326   4.122   4.064   6.118 -0.5364 -0.2904 -0.3212
   58SAPC   H2X 4327   4.082   4.060   6.015  1.8345  1.2111 -1.3910
   58SAPC   H2Y 4328   4.233   4.057   6.111 -0.5687 -1.5226  0.1847
   58SAPC   C23 4329   4.109   3.350   5.777 -0.2231 -0.5005 -0.1190
   58SAPC   H3R 4330   4.054   3.284   5.847  1.6055 -2.7452 -0.6260
   58SAPC   H3S 4331   4.207   3.302   5.752  0.2768  0.2265  0.4117
   58SAPC   C24 4332   4.031   3.369   5.649 -0.2969 -0.0278  0.1970
   58SAPC   H4R 4333   3.929   3.405   5.670 -0.1532  0.5506 -0.0785
   58SAPC   H4S 4334   4.023   3.274   5.591  1.0353 -0.0759  0.0537
   58SAPC   C25 4335   4.097   3.467   5.549  0.3709  0.9309  0.2845
   58SAPC   H5R 4336   4.097   3.574   5.576 -0.7862  0.7792  0.9791
   58SAPC   C26 4337   4.133   3.433   5.425 -0.4567 -0.0202  0.0784
   58SAPC   H6R 4338   4.171   3.523   5.374  0.1584 -0.0769  0.4217
   58SAPC   C27 4339   4.117   3.306   5.346 -0.6723  1.1959  0.2053
   58SAPC   H7R 4340   4.076   3.328   5.245  0.7196  0.6838 -0.4995
   58SAPC   H7S 4341   4.038   3.246   5.395  1.3391 -1.7978  0.0371
   58SAPC   C28 4342   4.245   3.220   5.334  0.1206 -0.4382 -0.1992
   58SAPC   H8R 4343   4.264   3.141   5.408  1.1386 -2.4582 -2.4942
   58SAPC   C29 4344   4.337   3.223   5.236  0.2221 -1.0844 -0.3375
   58SAPC   H9R 4345   4.417   3.148   5.241  0.4887 -0.8299 -0.7690
   58SAPC  C210 4346   4.343   3.314   5.117  0.0972 -0.0874  0.8818
   58SAPC  H10R 4347   4.364   3.418   5.150  0.8393  0.0562 -0.0188
   58SAPC  H10S 4348   4.241   3.309   5.073  0.1417  1.7267  0.5021
   58SAPC  C211 4349   4.434   3.264   5.000  0.2884  0.6349 -0.3789
   58SAPC  H11R 4350   4.404   3.188   4.927  1.1225 -0.3988  0.3310
   58SAPC  C212 4351   4.567   3.281   4.997 -0.2713 -0.1093  0.8085
   58SAPC  H12R 4352   4.617   3.227   4.915  1.0677  1.5748  0.4577
   58SAPC  C213 4353   4.649   3.361   5.088 -0.1977  0.1234  0.0363
   58SAPC  H13R 4354   4.582   3.401   5.167  0.7207  0.2160  0.7863
   58SAPC  H13S 4355   4.685   3.457   5.044  0.2168  0.5939  1.3374
   58SAPC  C214 4356   4.763   3.285   5.141 -0.1284  0.5820 -0.0451
   58SAPC  H14R 4357   4.824   3.240   5.061 -0.3908 -1.1588  0.7018
   58SAPC  C215 4358   4.801   3.263   5.265 -0.4101 -0.5118  0.1619
   58SAPC  H15R 4359   4.897   3.210   5.279  0.6917  0.7570 -2.0742
   58SAPC  C216 4360   4.742   3.322   5.390  0.0433 -0.0445  0.5981
   58SAPC  H16R 4361   4.685   3.415   5.369  1.1985  0.9463  1.7487
   58SAPC  H16S 4362   4.823   3.358   5.456  1.4772 -1.0058 -0.5541
   58SAPC  C217 4363   4.652   3.220   5.460  0.0191  0.4167 -0.2496
   58SAPC  H17R 4364   4.711   3.126   5.471  0.5587  0.9220  1.4735
   58SAPC  H17S 4365   4.548   3.204   5.425  0.6766 -1.3619 -1.5668
   58SAPC  C218 4366   4.631   3.280   5.602 -0.4064  0.0174  0.6545
   58SAPC  H18R 4367   4.559   3.364   5.588  0.4417  0.5952 -0.2888
   58SAPC  H18S 4368   4.727   3.326   5.631  1.2916 -0.0843 -4.0755
   58SAPC  C219 4369   4.571   3.175   5.694 -0.4768 -0.9937 -0.7373
   58SAPC  H19R 4370   4.662   3.119   5.724 -0.2216 -2.1079 -3.2830
   58SAPC  H19S 4371   4.491   3.119   5.641 -1.1562  1.2978 -2.2726
   58SAPC  C220 4372   4.507   3.226   5.822  0.1022 -0.0559  0.1576
   58SAPC  H20R 4373   4.568   3.299   5.880  1.1959 -0.4224 -0.5059
   58SAPC  H20S 4374   4.499   3.138   5.890 -0.8055 -0.2574 -0.1948
   58SAPC  H20T 4375   4.407   3.274   5.823  0.2071  0.1820  1.3814
   58SAPC   C33 4376   4.085   4.206   6.180 -0.6518  0.3840  0.1803
   58SAPC   H3X 4377   4.129   4.290   6.123  1.1720 -0.3697  0.3840
   58SAPC   H3Y 4378   4.142   4.209   6.276  0.3241  0.2075 -0.3744
   58SAPC   C34 4379   3.939   4.228   6.200 -0.8161 -0.1952  0.3861
   58SAPC   H4X 4380   3.925   4.330   6.244  1.2041 -0.6191  2.1675
   58SAPC   H4Y 4381   3.909   4.149   6.272  1.8434 -1.7047 -0.0713
   58SAPC   C35 4382   3.844   4.205   6.077  0.3751 -0.1328 -0.6208
   58SAPC   H5X 4383   3.738   4.231   6.097 -0.0389 -1.9484 -0.2786
   58SAPC   H5Y 4384   3.843   4.095   6.059  1.9883 -0.3270  0.3282
   58SAPC   C36 4385   3.896   4.269   5.945 -0.1720  0.2668  0.0501
   58SAPC   H6X 4386   3.991   4.229   5.905 -0.3619  0.1248 -0.2651
   58SAPC   H6Y 4387   3.928   4.373   5.968  0.9687 -0.3210  1.3009
   58SAPC   C37 4388   3.798   4.269   5.822 -0.6459  0.0422  0.8730
   58SAPC   H7X 4389   3.714   4.340   5.842 -1.8382 -1.9413  3.5099
   58SAPC   H7Y 4390   3.743   4.173   5.817  0.3863 -0.5216  0.0737
   58SAPC   C38 4391   3.873   4.305   5.693 -0.3812  0.2256  0.1361
   58SAPC   H8X 4392   3.953   4.230   5.675 -0.3596 -0.7346  3.4854
   58SAPC   H8Y 4393   3.930   4.398   5.713  0.1669 -0.1533  0.3830
   58SAPC   C39 4394   3.780   4.300   5.568 -0.2683 -0.2025 -0.0066
   58SAPC   H9X 4395   3.715   4.390   5.564 -0.6999 -0.5402 -1.2299
   58SAPC   H9Y 4396   3.711   4.214   5.587  0.5990 -1.3916 -1.9018
   58SAPC  C310 4397   3.852   4.282   5.435 -0.5045  0.3178 -0.6989
   58SAPC  H10X 4398   3.905   4.184   5.442 -0.3405  0.5114  1.1691
   58SAPC  H10Y 4399   3.934   4.356   5.427 -3.0770  3.4851  0.0257
   58SAPC  C311 4400   3.753   4.275   5.317 -0.2545 -0.2008  0.2529
   58SAPC  H11X 4401   3.710   4.375   5.297 -0.5081 -0.1344  1.0909
   58SAPC  H11Y 4402   3.669   4.207   5.341 -1.7747  1.6299  0.3302
   58SAPC  C312 4403   3.817   4.230   5.186  0.2467  0.3632 -0.1870
   58SAPC  H12X 4404   3.819   4.120   5.175  0.3491  0.3357  0.0834
   58SAPC  H12Y 4405   3.920   4.272   5.186  0.7471 -0.8053  0.4347
   58SAPC  C313 4406   3.751   4.294   5.058 -0.4546  0.4371 -0.5281
   58SAPC  H13X 4407   3.823   4.275   4.975 -0.5708 -1.1233 -0.3094
   58SAPC  H13Y 4408   3.722   4.401   5.067  0.1890  0.5197  0.7897
   58SAPC  C314 4409   3.625   4.216   5.018  0.2223 -0.1230 -0.1013
   58SAPC  H14X 4410   3.553   4.242   5.098 -0.4597  0.7022 -0.9677
   58SAPC  H14Y 4411   3.643   4.107   5.033 -0.3603 -0.3248 -0.8417
   58SAPC  C315 4412   3.555   4.250   4.889 -0.8925  0.2879 -0.0855
   58SAPC  H15X 4413   3.620   4.216   4.805 -3.3668 -1.4471 -1.4293
   58SAPC  H15Y 4414   3.539   4.360   4.884  1.1407  0.6772  0.9407
   58SAPC  C316 4415   3.416   4.178   4.884  0.2176  0.0136 -0.4959
   58SAPC  H16X 4416   3.347   4.245   4.829 -0.0153  1.1505  1.1072
   58SAPC  H16Y 4417   3.378   4.160   4.986 -2.0742 -0.8190 -1.4350
   58SAPC  C317 4418   3.422   4.039   4.819 -0.8711 -0.0322 -0.3484
   58SAPC  H17X 4419   3.494   3.981   4.881 -2.4431 -2.9550 -1.0765
   58SAPC  H17Y 4420   3.462   4.040   4.716 -1.6906 -2.0258 -0.7282
   58SAPC  C318 4421   3.288   3.961   4.837 -0.2682 -0.9108 -0.4583
   58SAPC  H18X 4422   3.205   4.002   4.777 -0.6271 -0.4861  0.3231
   58SAPC  H18Y 4423   3.275   3.958   4.948  0.4683  3.9102 -0.0191
   58SAPC  H18Z 4424   3.313   3.860   4.797  1.6396 -0.5704 -0.2372
   59SAPC     N 4425   0.702   2.131   6.526 -0.5863 -0.0759 -0.3274
   59SAPC   C12 4426   0.669   2.129   6.374  0.4054 -0.3119  0.3291
   59SAPC  H12A 4427   0.736   2.059   6.327 -0.0121  0.5851 -1.6871
   59SAPC  H12B 4428   0.685   2.224   6.327 -3.7304 -0.5376 -2.0009
   59SAPC   C13 4429   0.617   2.239   6.588 -0.6648  0.2504 -0.9591
   59SAPC  H13A 4430   0.625   2.254   6.695 -0.8640 -0.7601 -0.7958
   59SAPC  H13B 4431   0.648   2.325   6.531 -1.7105  0.2747 -1.5153
   59SAPC  H13C 4432   0.512   2.217   6.577 -0.2293 -1.8805 -1.2545
   59SAPC   C14 4433   0.676   2.002   6.593 -0.0360 -0.7590  0.1506
   59SAPC  H14A 4434   0.670   2.006   6.701 -2.0075  1.4222  0.0419
   59SAPC  H14B 4435   0.591   1.952   6.548 -0.3491  0.3814 -0.5471
   59SAPC  H14C 4436   0.760   1.938   6.570 -1.3754 -2.3798 -0.4551
   59SAPC   C15 4437   0.842   2.167   6.546 -0.0018 -0.0511  0.0227
   59SAPC  H15A 4438   0.895   2.074   6.534 -2.2160 -1.3987  0.1871
   59SAPC  H15B 4439   0.878   2.243   6.479  2.6599 -1.0616  0.1877
   59SAPC  H15C 4440   0.856   2.201   6.648  0.6512  0.9006 -0.3684
   59SAPC   C11 4441   0.531   2.073   6.311  0.1918  0.4789 -0.2237
   59SAPC  H11A 4442   0.544   2.085   6.201  2.3872 -0.3872 -0.1217
   59SAPC  H11B 4443   0.453   2.143   6.348  0.2246 -0.3057  1.4043
   59SAPC     P 4444   0.576   1.820   6.258  0.7301 -0.1576  0.1477
   59SAPC   O13 4445   0.573   1.704   6.344 -0.1342 -0.3188  0.3550
   59SAPC   O14 4446   0.497   1.804   6.134  0.4596 -0.2084  0.3776
   59SAPC   O12 4447   0.519   1.940   6.348  0.3673 -0.1616 -0.1910
   59SAPC   O11 4448   0.721   1.870   6.214  1.2242  0.3273 -0.5199
   59SAPC    C1 4449   0.799   1.802   6.118  0.1081 -0.6182  0.3261
   59SAPC    HA 4450   0.858   1.721   6.167  0.3546  0.6839  2.3189
   59SAPC    HB 4451   0.730   1.771   6.037  0.5960  0.5467 -0.5630
   59SAPC    C2 4452   0.905   1.897   6.058 -0.5163 -1.7612  0.6805
   59SAPC    HS 4453   0.955   1.842   5.976  0.9817 -1.3815  1.3009
   59SAPC   O21 4454   1.012   1.919   6.161 -0.2585 -0.3568 -0.0081
   59SAPC   C21 4455   1.116   1.987   6.115  0.7655  0.3232  0.1956
   59SAPC   O22 4456   1.125   2.038   6.007 -0.0850  0.1723  0.3778
   59SAPC   C22 4457   1.214   2.007   6.228 -0.3074  0.4961 -0.2594
   59SAPC   H2R 4458   1.266   2.106   6.226 -3.3107  2.2160  0.0991
   59SAPC   H2S 4459   1.145   2.019   6.315  0.1375 -2.4401  0.5921
   59SAPC    C3 4460   0.832   2.028   6.012  0.5712 -0.1973  0.1393
   59SAPC    HX 4461   0.909   2.088   5.961  0.6843  0.0839  0.6313
   59SAPC    HY 4462   0.819   2.083   6.107  3.3456  0.6904  0.0651
   59SAPC   O31 4463   0.714   1.998   5.930  0.3526 -0.4994 -0.3653
   59SAPC   C31 4464   0.616   2.087   5.942 -0.1910 -0.0375 -0.0348
   59SAPC   O32 4465   0.614   2.201   5.986  0.3917 -0.4370 -0.0632
   59SAPC   C32 4466   0.492   2.021   5.883  0.0823  0.2284  0.0042
   59SAPC   H2X 4467   0.404   2.024   5.950  0.0736 -1.3358  0.0929
   59SAPC   H2Y 4468   0.514   1.919   5.847 -2.4058 -0.3380 -0.0542
   59SAPC   C23 4469   1.304   1.880   6.255 -0.3184 -0.2616 -0.8921
   59SAPC   H3R 4470   1.229   1.799   6.253 -0.4737 -0.1262 -0.6447
   59SAPC   H3S 4471   1.351   1.879   6.356 -2.3757  0.9085  0.1310
   59SAPC   C24 4472   1.410   1.849   6.145 -0.1785 -0.3831  0.5566
   59SAPC   H4R 4473   1.351   1.850   6.051  1.6135  3.3906 -0.7115
   59SAPC   H4S 4474   1.434   1.745   6.174 -2.6283 -2.2701 -3.3831
   59SAPC   C25 4475   1.520   1.946   6.130  0.4137  0.4770 -0.2087
   59SAPC   H5R 4476   1.509   2.043   6.182 -0.1346  0.5274 -0.4117
   59SAPC   C26 4477   1.635   1.916   6.075  0.0879 -0.1062 -0.5856
   59SAPC   H6R 4478   1.709   1.996   6.060  0.1664 -0.2420 -0.9291
   59SAPC   C27 4479   1.655   1.789   5.999 -0.3233 -0.8503 -0.1565
   59SAPC   H7R 4480   1.713   1.804   5.906 -1.2476 -0.7228 -0.7262
   59SAPC   H7S 4481   1.554   1.760   5.961 -0.7183 -0.9107  0.9149
   59SAPC   C28 4482   1.714   1.683   6.085 -0.2491  0.2272 -0.1564
   59SAPC   H8R 4483   1.757   1.711   6.182  0.0049 -1.0716  0.1242
   59SAPC   C29 4484   1.691   1.552   6.063 -0.3699  0.2142 -0.6182
   59SAPC   H9R 4485   1.749   1.489   6.133 -0.3590 -0.6494 -1.3779
   59SAPC  C210 4486   1.628   1.462   5.957  0.0847  0.0396 -0.4158
   59SAPC  H10R 4487   1.692   1.455   5.866 -1.9768  1.1967 -2.0300
   59SAPC  H10S 4488   1.541   1.519   5.918  0.4749  0.4000 -0.7799
   59SAPC  C211 4489   1.578   1.333   6.012 -0.0313  0.0160  0.1695
   59SAPC  H11R 4490   1.608   1.300   6.113 -0.1617 -0.8243 -0.0604
   59SAPC  C212 4491   1.500   1.251   5.944 -0.5811 -0.3870  0.5562
   59SAPC  H12R 4492   1.479   1.160   6.001  0.9118 -1.9272 -1.2099
   59SAPC  C213 4493   1.443   1.264   5.804  0.0360 -0.0098  0.0866
   59SAPC  H13R 4494   1.361   1.339   5.807 -0.4124 -0.4982  0.2677
   59SAPC  H13S 4495   1.396   1.167   5.777  0.9283 -0.6361  0.7679
   59SAPC  C214 4496   1.537   1.304   5.689  0.4823  0.2209 -0.1290
   59SAPC  H14R 4497   1.634   1.335   5.729 -0.7196  1.6758  1.7991
   59SAPC  C215 4498   1.520   1.284   5.555  0.5477 -0.0974 -0.0669
   59SAPC  H15R 4499   1.601   1.322   5.490 -0.6534  1.2540 -0.8448
   59SAPC  C216 4500   1.397   1.232   5.482  0.1662  0.1821  0.3595
   59SAPC  H16R 4501   1.305   1.236   5.545  0.5495  1.7701  0.8584
   59SAPC  H16S 4502   1.398   1.124   5.455 -0.8593  0.7873 -2.3604
   59SAPC  C217 4503   1.351   1.312   5.361  0.8410  0.0749  0.1890
   59SAPC  H17R 4504   1.334   1.417   5.393 -2.0843  0.1776 -1.3421
   59SAPC  H17S 4505   1.250   1.273   5.337  0.4607  0.7862  0.6125
   59SAPC  C218 4506   1.432   1.304   5.233 -0.0161  0.2660 -0.2989
   59SAPC  H18R 4507   1.492   1.211   5.246 -1.2109 -0.5042 -0.1877
   59SAPC  H18S 4508   1.508   1.385   5.228  0.5171 -0.0438  1.7156
   59SAPC  C219 4509   1.339   1.307   5.108  0.1547 -0.2087  0.5300
   59SAPC  H19R 4510   1.274   1.397   5.097 -1.1603 -1.0594  0.9709
   59SAPC  H19S 4511   1.276   1.216   5.099 -1.6677  1.0970 -0.7923
   59SAPC  C220 4512   1.423   1.308   4.982  0.1149 -0.4265  0.2268
   59SAPC  H20R 4513   1.476   1.210   4.975  0.0014 -0.3631 -2.9071
   59SAPC  H20S 4514   1.489   1.397   4.974 -0.2515 -0.2000 -0.3109
   59SAPC  H20T 4515   1.359   1.295   4.892  0.4412  1.1687 -0.2696
   59SAPC   C33 4516   0.454   2.114   5.760  0.5953 -0.4881 -0.0845
   59SAPC   H3X 4517   0.533   2.136   5.685  1.0853  0.7636  0.7531
   59SAPC   H3Y 4518   0.429   2.207   5.817 -1.2880 -1.9858  1.6811
   59SAPC   C34 4519   0.334   2.061   5.681  0.2190  0.3284  0.3621
   59SAPC   H4X 4520   0.290   2.134   5.610 -0.3021  1.8550  2.1561
   59SAPC   H4Y 4521   0.252   2.049   5.755  0.2713  1.8892  0.6999
   59SAPC   C35 4522   0.364   1.928   5.609  0.2661  0.6051 -0.1737
   59SAPC   H5X 4523   0.373   1.850   5.687 -0.6786  0.2917 -0.3638
   59SAPC   H5Y 4524   0.461   1.946   5.557 -0.1866  0.3331 -1.1442
   59SAPC   C36 4525   0.252   1.884   5.508  0.0724  0.7090  0.3201
   59SAPC   H6X 4526   0.155   1.917   5.551  0.4152  0.5099  1.2699
   59SAPC   H6Y 4527   0.256   1.776   5.482 -0.5956  0.8036 -0.2100
   59SAPC   C37 4528   0.269   1.955   5.370  0.0004  0.5091 -0.0914
   59SAPC   H7X 4529   0.366   1.914   5.335 -1.3287 -2.4692 -0.5805
   59SAPC   H7Y 4530   0.273   2.066   5.381 -0.3360  0.3749  1.7397
   59SAPC   C38 4531   0.168   1.910   5.260  0.4143  0.0186  0.6677
   59SAPC   H8X 4532   0.062   1.933   5.283  0.1552 -1.6572  1.2673
   59SAPC   H8Y 4533   0.165   1.800   5.247  0.6075  0.0741  0.1221
   59SAPC   C39 4534   0.203   1.979   5.129  0.1106  0.4667  0.1900
   59SAPC   H9X 4535   0.301   1.947   5.089 -0.2161 -0.3295 -0.0156
   59SAPC   H9Y 4536   0.206   2.088   5.149 -0.5616  0.4526  0.4046
   59SAPC  C310 4537   0.101   1.945   5.017 -0.2707  0.0569  0.2381
   59SAPC  H10X 4538   0.005   1.989   5.050 -0.5369 -0.4615  0.1725
   59SAPC  H10Y 4539   0.090   1.835   5.006 -0.1933  0.1941 -1.4764
   59SAPC  C311 4540   0.146   2.004   4.887  0.5500 -0.1347 -0.2759
   59SAPC  H11X 4541   0.229   1.941   4.849  0.8980  0.6815 -0.8914
   59SAPC  H11Y 4542   0.178   2.110   4.898 -0.3042 -0.0622  2.1478
   59SAPC  C312 4543   0.032   2.011   4.782  0.5873 -0.4251 -0.1195
   59SAPC  H12X 4544  -0.028   2.105   4.785 -2.4009 -2.2169  0.3619
   59SAPC  H12Y 4545  -0.038   1.925   4.786  0.2100 -0.1055  0.2614
   59SAPC  C313 4546   0.088   2.023   4.643 -0.2426 -0.5952  0.1138
   59SAPC  H13X 4547   0.153   1.936   4.620 -0.5869 -0.9729  0.5591
   59SAPC  H13Y 4548   0.159   2.109   4.648 -1.9960  0.8942  0.4469
   59SAPC  C314 4549  -0.024   2.033   4.540  0.3673 -0.1730  0.5515
   59SAPC  H14X 4550  -0.082   2.127   4.553  0.3507  0.0417 -0.9188
   59SAPC  H14Y 4551  -0.096   1.950   4.557  0.0260 -0.9430 -3.6013
   59SAPC  C315 4552   0.012   2.012   4.387 -0.5314  0.4329 -0.0764
   59SAPC  H15X 4553  -0.082   2.002   4.328 -0.9299  1.2399  0.4109
   59SAPC  H15Y 4554   0.074   1.920   4.376  2.0072  2.0878 -0.4813
   59SAPC  C316 4555   0.100   2.124   4.314  0.3317  1.1912 -0.8249
   59SAPC  H16X 4556   0.105   2.103   4.205  0.1795  0.8899 -0.7737
   59SAPC  H16Y 4557   0.203   2.129   4.356  0.3775  0.1670 -0.7836
   59SAPC  C317 4558   0.042   2.263   4.336  0.0029  0.1773  0.2796
   59SAPC  H17X 4559   0.022   2.289   4.442  0.4154  2.8457 -0.2198
   59SAPC  H17Y 4560  -0.057   2.269   4.285  1.3526 -1.7049 -2.9216
   59SAPC  C318 4561   0.135   2.364   4.266  0.6512  0.0527 -0.2802
   59SAPC  H18X 4562   0.240   2.371   4.302 -0.0824  2.4971  1.6798
   59SAPC  H18Y 4563   0.100   2.469   4.276 -0.0167 -0.2569  0.7129
   59SAPC  H18Z 4564   0.137   2.335   4.159 -1.5204 -0.3093 -0.2728
   60SAPC     N 4565   1.353   2.452   6.875  0.1158 -0.2660 -0.3284
   60SAPC   C12 4566   1.434   2.528   6.776 -0.4137  0.2953  0.1622
   60SAPC  H12A 4567   1.532   2.529   6.821 -0.5099 -2.1922  0.5724
   60SAPC  H12B 4568   1.402   2.631   6.772 -1.4833 -0.0239  0.2386
   60SAPC   C13 4569   1.359   2.526   7.007  0.1292 -0.0408 -0.0591
   60SAPC  H13A 4570   1.336   2.631   6.999 -1.3368 -0.2587  0.7671
   60SAPC  H13B 4571   1.294   2.495   7.087  1.0956  0.6763  1.0316
   60SAPC  H13C 4572   1.457   2.522   7.051  0.4180  0.9589 -0.5810
   60SAPC   C14 4573   1.214   2.437   6.819 -0.2734 -0.3191 -0.5092
   60SAPC  H14A 4574   1.188   2.538   6.793  1.7887 -0.0820 -1.9231
   60SAPC  H14B 4575   1.209   2.391   6.721  0.1767 -0.0919 -0.6424
   60SAPC  H14C 4576   1.145   2.396   6.891  2.2698  0.6832  2.7293
   60SAPC   C15 4577   1.413   2.316   6.898  0.2255  0.6591  0.3370
   60SAPC  H15A 4578   1.355   2.258   6.968 -2.1554  2.4038 -0.0875
   60SAPC  H15B 4579   1.405   2.261   6.806 -0.0181  0.1572  0.6512
   60SAPC  H15C 4580   1.516   2.326   6.929 -0.4350  0.8803  2.6951
   60SAPC   C11 4581   1.451   2.479   6.633 -0.1544 -0.1257  0.4272
   60SAPC  H11A 4582   1.353   2.493   6.582  0.5945 -0.5944 -1.2045
   60SAPC  H11B 4583   1.464   2.370   6.619 -0.3688 -0.1673  0.5443
   60SAPC     P 4584   1.696   2.561   6.613 -0.0317  0.7355 -0.2511
   60SAPC   O13 4585   1.723   2.695   6.650  0.3457 -0.2829  0.4129
   60SAPC   O14 4586   1.713   2.457   6.721  0.6274  0.0025  0.0426
   60SAPC   O12 4587   1.549   2.548   6.553  0.5100  0.4917 -0.8522
   60SAPC   O11 4588   1.799   2.533   6.496 -0.1853  0.2198 -0.4311
   60SAPC    C1 4589   1.752   2.433   6.405 -0.5619  0.5395 -0.0917
   60SAPC    HA 4590   1.676   2.362   6.442 -0.7173  0.2678 -0.9113
   60SAPC    HB 4591   1.711   2.484   6.315  1.3296 -0.8850 -1.8423
   60SAPC    C2 4592   1.871   2.350   6.352  0.8134  0.1521 -0.1640
   60SAPC    HS 4593   1.933   2.336   6.443 -0.0285  0.7647  0.5232
   60SAPC   O21 4594   1.950   2.411   6.250 -0.7167 -0.5409  0.1295
   60SAPC   C21 4595   2.073   2.441   6.270  0.5417  0.3884 -0.0576
   60SAPC   O22 4596   2.132   2.440   6.381  0.0000  0.5544  0.5677
   60SAPC   C22 4597   2.149   2.452   6.133 -0.6819  0.4942 -0.3337
   60SAPC   H2R 4598   2.211   2.543   6.144  0.5188 -0.2536 -0.7043
   60SAPC   H2S 4599   2.221   2.368   6.130  1.6257  2.3109  0.7480
   60SAPC    C3 4600   1.825   2.211   6.304  0.9339  0.5873  0.1757
   60SAPC    HX 4601   1.739   2.215   6.234 -0.0007 -3.5216  0.8828
   60SAPC    HY 4602   1.788   2.148   6.387 -2.4459 -0.3877 -1.8798
   60SAPC   O31 4603   1.931   2.139   6.229 -0.2854  0.0232 -0.0823
   60SAPC   C31 4604   2.029   2.092   6.285  0.6861 -0.1324  0.8569
   60SAPC   O32 4605   2.055   2.099   6.404  0.2573  0.0042 -0.1826
   60SAPC   C32 4606   2.126   2.043   6.180 -0.5677  0.5200 -0.2073
   60SAPC   H2X 4607   2.227   2.033   6.225 -1.1330 -2.5056  0.6064
   60SAPC   H2Y 4608   2.147   2.123   6.106 -0.4107  1.1435  0.5003
   60SAPC   C23 4609   2.067   2.471   6.007 -0.0209 -0.1893  0.6535
   60SAPC   H3R 4610   2.129   2.534   5.938 -1.0520  0.8006  0.5970
   60SAPC   H3S 4611   1.975   2.522   6.043 -0.4683 -1.3717  1.2153
   60SAPC   C24 4612   2.027   2.336   5.938  0.0429 -0.3944  0.0923
   60SAPC   H4R 4613   2.046   2.257   6.013 -0.1303 -0.3576  0.1752
   60SAPC   H4S 4614   2.093   2.325   5.849  0.3224 -1.1199  0.3852
   60SAPC   C25 4615   1.879   2.321   5.900  0.7408 -1.2059 -0.7670
   60SAPC   H5R 4616   1.820   2.314   5.993  2.5298 -1.7177  0.3800
   60SAPC   C26 4617   1.817   2.308   5.782  0.7803  0.2251  0.0524
   60SAPC   H6R 4618   1.707   2.301   5.780  0.8431 -0.7698 -0.1568
   60SAPC   C27 4619   1.879   2.310   5.644 -0.1034  0.4681  0.0988
   60SAPC   H7R 4620   1.951   2.395   5.636  1.0432 -0.4880  0.0147
   60SAPC   H7S 4621   1.803   2.328   5.565  1.1392 -0.5111 -1.3696
   60SAPC   C28 4622   1.957   2.188   5.611  0.5305  0.5621  0.1277
   60SAPC   H8R 4623   1.996   2.148   5.706  0.0916  1.7320  0.8256
   60SAPC   C29 4624   1.971   2.133   5.491  0.1006  0.3746 -0.2442
   60SAPC   H9R 4625   2.033   2.043   5.486 -1.4643 -0.7036 -0.7570
   60SAPC  C210 4626   1.914   2.182   5.362 -0.2253 -0.6476 -0.7781
   60SAPC  H10R 4627   1.804   2.180   5.378 -0.1222  0.4616  0.2740
   60SAPC  H10S 4628   1.948   2.112   5.284  0.6259  0.5781 -1.5386
   60SAPC  C211 4629   1.939   2.322   5.314  0.5944  1.0707 -0.1989
   60SAPC  H11R 4630   1.931   2.391   5.399  0.1408  0.2548  0.4309
   60SAPC  C212 4631   1.931   2.368   5.186 -0.3068 -0.8142  0.1366
   60SAPC  H12R 4632   1.964   2.471   5.167  1.9889 -1.4956  0.2020
   60SAPC  C213 4633   1.912   2.284   5.059 -0.6047  0.2547 -0.4752
   60SAPC  H13R 4634   1.883   2.182   5.090 -1.1787  0.9612  1.4171
   60SAPC  H13S 4635   2.004   2.274   4.996  1.3667  0.4162  2.2235
   60SAPC  C214 4636   1.804   2.331   4.969 -0.3377  0.0033  0.3723
   60SAPC  H14R 4637   1.836   2.380   4.876 -1.4092  0.2842  0.1313
   60SAPC  C215 4638   1.682   2.339   5.015 -0.4767 -0.2630  0.3148
   60SAPC  H15R 4639   1.602   2.372   4.947  0.8839  0.6839 -0.8846
   60SAPC  C216 4640   1.620   2.283   5.140  0.1358  0.7110 -0.1081
   60SAPC  H16R 4641   1.572   2.365   5.197  0.1543  0.1218  0.7846
   60SAPC  H16S 4642   1.691   2.244   5.216 -1.7965  1.0632  1.9937
   60SAPC  C217 4643   1.531   2.154   5.119  0.0039  0.0221 -0.4151
   60SAPC  H17R 4644   1.601   2.082   5.072  1.6461  1.8073 -0.8065
   60SAPC  H17S 4645   1.450   2.174   5.045 -0.8659 -0.4803  0.3839
   60SAPC  C218 4646   1.474   2.082   5.237  0.5875  0.3642  0.0362
   60SAPC  H18R 4647   1.563   2.051   5.296 -0.1600  1.7776  1.9998
   60SAPC  H18S 4648   1.412   1.994   5.208  0.1059  0.1894  1.5212
   60SAPC  C219 4649   1.385   2.165   5.332  0.5587  0.2774  0.1340
   60SAPC  H19R 4650   1.446   2.254   5.358  0.4638 -0.3544  2.8260
   60SAPC  H19S 4651   1.350   2.099   5.414 -0.0913  1.2713  0.6749
   60SAPC  C220 4652   1.261   2.226   5.265 -0.3832  0.0216  0.1870
   60SAPC  H20R 4653   1.289   2.282   5.173  1.9569  1.3411  1.5934
   60SAPC  H20S 4654   1.224   2.298   5.341 -0.4928 -1.3877  1.5340
   60SAPC  H20T 4655   1.194   2.139   5.247 -0.0130  0.4610 -4.5755
   60SAPC   C33 4656   2.089   1.916   6.110  0.1044 -0.6930 -0.4706
   60SAPC   H3X 4657   2.003   1.857   6.148  0.8565 -0.5586  1.5525
   60SAPC   H3Y 4658   2.180   1.852   6.115  0.1033 -0.6850 -0.3463
   60SAPC   C34 4659   2.067   1.947   5.960 -0.0583  0.6383  0.2179
   60SAPC   H4X 4660   2.156   2.005   5.927  0.7291  0.0213  1.1899
   60SAPC   H4Y 4661   1.979   2.012   5.939  0.0004  0.3708 -0.9363
   60SAPC   C35 4662   2.035   1.814   5.879  0.2975 -0.3674 -0.2570
   60SAPC   H5X 4663   1.958   1.759   5.937  1.7302 -1.7285  0.4403
   60SAPC   H5Y 4664   2.127   1.752   5.883  0.2707 -0.3846  0.1633
   60SAPC   C36 4665   1.967   1.837   5.742  0.5666 -0.0428  0.6690
   60SAPC   H6X 4666   2.039   1.868   5.662 -0.5924  3.0113  0.6774
   60SAPC   H6Y 4667   1.896   1.921   5.757  1.3412  0.6389  0.6213
   60SAPC   C37 4668   1.909   1.697   5.696  0.0242  0.3870  0.3587
   60SAPC   H7X 4669   1.838   1.657   5.772  0.3000 -2.4380 -0.7585
   60SAPC   H7Y 4670   1.985   1.617   5.703 -0.8641 -0.4720  0.4903
   60SAPC   C38 4671   1.846   1.701   5.561 -0.4153 -0.3446  0.6895
   60SAPC   H8X 4672   1.751   1.759   5.552 -0.2318 -0.0454  0.6939
   60SAPC   H8Y 4673   1.803   1.601   5.541  1.4057 -1.4659  2.0854
   60SAPC   C39 4674   1.937   1.743   5.447 -0.5575 -0.1830 -0.0818
   60SAPC   H9X 4675   2.024   1.674   5.454  0.2922  0.8372 -0.2552
   60SAPC   H9Y 4676   1.973   1.848   5.455 -2.3081  0.3830  0.7950
   60SAPC  C310 4677   1.878   1.727   5.308  0.4301 -0.3525 -0.6293
   60SAPC  H10X 4678   1.784   1.785   5.299  0.7776  0.6829  1.6341
   60SAPC  H10Y 4679   1.859   1.619   5.292  1.1794 -0.8051  1.3443
   60SAPC  C311 4680   1.979   1.780   5.206 -0.2074 -0.0865  0.0993
   60SAPC  H11X 4681   2.075   1.724   5.211 -0.4057 -0.7124 -2.0699
   60SAPC  H11Y 4682   2.000   1.887   5.228 -2.0015  0.5947 -1.2744
   60SAPC  C312 4683   1.932   1.780   5.061 -0.1080  0.2543 -0.1608
   60SAPC  H12X 4684   1.911   1.675   5.031 -2.7924  0.7896 -0.4182
   60SAPC  H12Y 4685   2.014   1.814   4.995 -1.2855  0.4868 -1.5728
   60SAPC  C313 4686   1.809   1.867   5.020  0.4387  0.0669  0.6695
   60SAPC  H13X 4687   1.819   1.976   5.040  1.6411 -0.1414  1.2895
   60SAPC  H13Y 4688   1.711   1.836   5.063  1.1757 -0.0362  2.3537
   60SAPC  C314 4689   1.807   1.853   4.867 -0.0098 -0.4942  0.2520
   60SAPC  H14X 4690   1.761   1.754   4.845 -0.2828 -0.6165  1.2955
   60SAPC  H14Y 4691   1.903   1.854   4.811 -0.6848 -1.6511 -0.9940
   60SAPC  C315 4692   1.720   1.964   4.799  0.6311 -0.4239  0.0647
   60SAPC  H15X 4693   1.761   2.058   4.842  1.1674 -0.7031  0.1768
   60SAPC  H15Y 4694   1.614   1.963   4.831  1.1919  1.3907  2.2333
   60SAPC  C316 4695   1.730   1.959   4.644 -0.1442  0.2355  0.0616
   60SAPC  H16X 4696   1.688   1.863   4.608 -0.1359  1.1709 -2.7068
   60SAPC  H16Y 4697   1.838   1.964   4.617  0.1735 -0.1656  1.2149
   60SAPC  C317 4698   1.663   2.083   4.575 -0.4399  0.2573 -0.0663
   60SAPC  H17X 4699   1.570   2.106   4.632 -0.8985 -0.9607 -0.2869
   60SAPC  H17Y 4700   1.638   2.070   4.468  0.6196  1.3614 -0.4628
   60SAPC  C318 4701   1.751   2.206   4.586 -0.0924  0.9273 -0.2670
   60SAPC  H18X 4702   1.716   2.304   4.548  2.2760  2.8273  2.0477
   60SAPC  H18Y 4703   1.852   2.193   4.543  0.4417  0.1483  1.1266
   60SAPC  H18Z 4704   1.774   2.222   4.694  0.9238  0.8717 -0.4684
   61SAPC     N 4705   6.031   0.701   6.918 -0.8569 -0.7303  0.3727
   61SAPC   C12 4706   5.901   0.671   6.857  0.1395 -0.3357  0.5424
   61SAPC  H12A 4707   5.903   0.711   6.757 -2.5951  2.1744  1.3576
   61SAPC  H12B 4708   5.836   0.741   6.907 -1.2095 -0.4798 -0.9216
   61SAPC   C13 4709   6.134   0.601   6.880 -0.2802  0.5415 -0.4250
   61SAPC  H13A 4710   6.092   0.502   6.889 -0.3311  0.4158 -1.8573
   61SAPC  H13B 4711   6.172   0.616   6.780  2.0625  0.3441  0.3557
   61SAPC  H13C 4712   6.224   0.611   6.939 -1.5219  1.7408  1.3520
   61SAPC   C14 4713   6.073   0.841   6.870  0.4821 -0.3699  0.4462
   61SAPC  H14A 4714   6.164   0.865   6.924  0.4222 -0.9731  0.8261
   61SAPC  H14B 4715   6.095   0.841   6.764  0.1470  0.0279  0.3720
   61SAPC  H14C 4716   6.002   0.921   6.886  0.1144 -0.7663  0.8178
   61SAPC   C15 4717   6.026   0.714   7.071  1.0446  0.1563 -0.1984
   61SAPC  H15A 4718   5.960   0.795   7.094  0.7830 -0.6156  2.0436
   61SAPC  H15B 4719   5.987   0.620   7.107  0.5975  0.5954  0.4714
   61SAPC  H15C 4720   6.114   0.747   7.124  0.8771 -1.0245  0.8789
   61SAPC   C11 4721   5.847   0.525   6.864  0.1038 -0.0959 -0.0595
   61SAPC  H11A 4722   5.739   0.519   6.837  0.3453 -0.3367 -1.0121
   61SAPC  H11B 4723   5.846   0.501   6.972 -3.2704  0.3872  0.1252
   61SAPC     P 4724   5.899   0.416   6.639  0.0606 -0.4316 -0.5458
   61SAPC   O13 4725   5.762   0.364   6.612 -0.2102 -0.2759  0.1625
   61SAPC   O14 4726   5.935   0.546   6.576  0.2991 -0.6972 -0.2469
   61SAPC   O12 4727   5.931   0.431   6.795 -0.2136 -0.8579 -0.2862
   61SAPC   O11 4728   6.000   0.311   6.582 -0.3125  0.0244  0.3653
   61SAPC    C1 4729   6.126   0.348   6.512  0.1173 -0.3058 -0.3983
   61SAPC    HA 4730   6.164   0.441   6.559 -3.4760  0.4283  1.4010
   61SAPC    HB 4731   6.207   0.273   6.528  0.4382  0.1210 -0.0054
   61SAPC    C2 4732   6.115   0.360   6.358  1.0750  0.0829 -0.0020
   61SAPC    HS 4733   6.043   0.445   6.345 -0.1324 -0.4574  2.3985
   61SAPC   O21 4734   6.056   0.242   6.301 -0.1569  0.1708  0.4993
   61SAPC   C21 4735   5.993   0.261   6.185  0.8344 -0.9894  0.5306
   61SAPC   O22 4736   5.955   0.372   6.145 -0.3827  0.6799  0.3987
   61SAPC   C22 4737   5.968   0.124   6.123 -0.1506 -0.5161  0.7189
   61SAPC   H2R 4738   6.056   0.060   6.144  0.6403  0.8158  1.6102
   61SAPC   H2S 4739   5.887   0.074   6.180  1.4978 -2.6666  1.3190
   61SAPC    C3 4740   6.250   0.375   6.294 -0.3556 -0.1212  0.2408
   61SAPC    HX 4741   6.307   0.279   6.298  0.2872  0.2655  0.4708
   61SAPC    HY 4742   6.311   0.452   6.345 -0.1357 -0.4051  0.4065
   61SAPC   O31 4743   6.245   0.411   6.154  0.5754  0.0818 -0.1892
   61SAPC   C31 4744   6.271   0.539   6.118  0.2291 -0.4598 -0.0844
   61SAPC   O32 4745   6.330   0.626   6.176  0.1340 -0.3484 -0.2938
   61SAPC   C32 4746   6.223   0.563   5.975 -0.0294  0.2964  0.4240
   61SAPC   H2X 4747   6.147   0.482   5.965 -0.2194  0.2283  2.0876
   61SAPC   H2Y 4748   6.305   0.529   5.908  0.7484  1.5865  0.6967
   61SAPC   C23 4749   5.912   0.126   5.978 -0.4515 -0.6995  0.2048
   61SAPC   H3R 4750   5.840   0.210   5.965  0.2179 -0.0981  0.3605
   61SAPC   H3S 4751   5.864   0.028   5.955  0.2429 -0.5791 -1.9254
   61SAPC   C24 4752   6.018   0.151   5.872  0.7146  0.5632 -0.0504
   61SAPC   H4R 4753   6.093   0.070   5.887 -0.4111 -0.1041  2.4907
   61SAPC   H4S 4754   6.071   0.247   5.888  0.4446  1.0915 -2.0185
   61SAPC   C25 4755   5.953   0.132   5.736  0.8081  0.3120 -0.0303
   61SAPC   H5R 4756   5.909   0.031   5.730 -1.3790  1.2143 -0.0675
   61SAPC   C26 4757   5.932   0.227   5.632 -0.8311  0.9008 -0.1655
   61SAPC   H6R 4758   5.858   0.203   5.555 -0.3807 -1.4672  0.0839
   61SAPC   C27 4759   5.975   0.368   5.640 -0.1115 -0.2081 -0.2040
   61SAPC   H7R 4760   5.988   0.391   5.748 -0.4554  3.4462 -0.8073
   61SAPC   H7S 4761   5.909   0.447   5.598  1.2075  0.0317 -1.9289
   61SAPC   C28 4762   6.116   0.396   5.580  0.5018 -0.5360 -0.9303
   61SAPC   H8R 4763   6.195   0.398   5.656  2.5975  2.7098 -2.9504
   61SAPC   C29 4764   6.149   0.415   5.450 -0.1832 -0.6451  0.8147
   61SAPC   H9R 4765   6.256   0.429   5.428  0.0127 -0.1136  1.9779
   61SAPC  C210 4766   6.055   0.406   5.341 -0.4070 -0.4015  0.5014
   61SAPC  H10R 4767   5.960   0.462   5.358  0.9027  1.7877  0.8691
   61SAPC  H10S 4768   6.033   0.297   5.346  0.5526 -0.5533  3.4589
   61SAPC  C211 4769   6.112   0.429   5.200  0.5295 -0.5430  0.2092
   61SAPC  H11R 4770   6.195   0.501   5.195  0.7230 -0.8447 -2.0837
   61SAPC  C212 4771   6.053   0.388   5.089 -0.2613 -0.1433 -0.1324
   61SAPC  H12R 4772   6.112   0.410   5.000  2.8407 -1.1168  1.5454
   61SAPC  C213 4773   5.927   0.304   5.080 -0.0833 -0.2395 -1.1666
   61SAPC  H13R 4774   5.845   0.365   5.037 -0.0115 -1.6172 -3.4254
   61SAPC  H13S 4775   5.886   0.274   5.179  0.6935 -2.1625 -1.3907
   61SAPC  C214 4776   5.950   0.184   4.999 -0.3256 -0.1994  0.5062
   61SAPC  H14R 4777   5.980   0.090   5.048 -0.3199 -0.5176 -0.0999
   61SAPC  C215 4778   5.924   0.180   4.871  0.2340 -0.2931  0.1919
   61SAPC  H15R 4779   5.929   0.087   4.812 -0.8138 -0.7407  0.7791
   61SAPC  C216 4780   5.879   0.305   4.794 -0.0490 -0.2481 -0.0622
   61SAPC  H16R 4781   5.919   0.288   4.692  1.5890 -1.9728  0.8175
   61SAPC  H16S 4782   5.920   0.397   4.840  0.0351 -0.1879 -0.2571
   61SAPC  C217 4783   5.723   0.316   4.794 -0.3109  1.0766 -0.0614
   61SAPC  H17R 4784   5.690   0.378   4.880  0.4257  0.3413  0.7646
   61SAPC  H17S 4785   5.675   0.216   4.798  1.0231  0.4660  2.0512
   61SAPC  C218 4786   5.661   0.390   4.669 -0.5491 -0.5972  0.1362
   61SAPC  H18R 4787   5.714   0.484   4.645 -0.9243 -0.1393  1.0670
   61SAPC  H18S 4788   5.559   0.425   4.694 -0.7005 -0.8006 -0.1960
   61SAPC  C219 4789   5.655   0.306   4.540  0.2323 -0.3829 -0.4543
   61SAPC  H19R 4790   5.740   0.237   4.527  0.7641  0.3457 -0.9257
   61SAPC  H19S 4791   5.648   0.370   4.449  0.0912 -0.7746 -0.7221
   61SAPC  C220 4792   5.528   0.217   4.538 -0.1555  0.2191  0.4768
   61SAPC  H20R 4793   5.522   0.138   4.616 -1.7388 -0.2720 -0.1094
   61SAPC  H20S 4794   5.518   0.164   4.441  1.5496  1.1792 -0.2779
   61SAPC  H20T 4795   5.442   0.287   4.549  1.4275  2.2478  0.4542
   61SAPC   C33 4796   6.196   0.711   5.942 -0.3453  0.8090  0.8553
   61SAPC   H3X 4797   6.300   0.748   5.937  0.6722 -1.9420 -0.6451
   61SAPC   H3Y 4798   6.137   0.755   6.025 -1.1992 -0.0924  0.7529
   61SAPC   C34 4799   6.134   0.753   5.812 -0.1514  0.0870  0.4642
   61SAPC   H4X 4800   6.028   0.719   5.813 -0.6626  1.0810 -3.2175
   61SAPC   H4Y 4801   6.183   0.715   5.719 -0.2799  0.8588  0.0715
   61SAPC   C35 4802   6.128   0.906   5.796 -0.3344 -0.0366  0.1228
   61SAPC   H5X 4803   6.225   0.937   5.753 -0.9970  1.3704 -0.4213
   61SAPC   H5Y 4804   6.107   0.938   5.900 -2.9384  2.4376 -1.0164
   61SAPC   C36 4805   6.010   0.955   5.707  0.2540  0.3765  0.2951
   61SAPC   H6X 4806   6.007   1.065   5.714 -1.7484  0.3171  1.2249
   61SAPC   H6Y 4807   5.917   0.915   5.754 -0.2399 -0.4047 -1.2644
   61SAPC   C37 4808   6.014   0.894   5.563 -0.5956 -0.4495 -0.1024
   61SAPC   H7X 4809   6.010   0.783   5.570  2.4292 -0.7768 -1.5849
   61SAPC   H7Y 4810   6.108   0.929   5.515 -0.4050 -0.3640  0.3260
   61SAPC   C38 4811   5.910   0.967   5.479 -0.3916  0.1574 -0.4119
   61SAPC   H8X 4812   5.915   1.077   5.468  0.8956  0.4061  1.9695
   61SAPC   H8Y 4813   5.814   0.951   5.532  2.1872  0.5724  5.0700
   61SAPC   C39 4814   5.895   0.931   5.331 -0.8677  0.1554  0.6382
   61SAPC   H9X 4815   5.972   0.978   5.266 -0.1728  1.5924  2.4080
   61SAPC   H9Y 4816   5.798   0.968   5.292 -0.4950  1.8376  1.2148
   61SAPC  C310 4817   5.882   0.776   5.314  0.3509  0.3328 -0.6568
   61SAPC  H10X 4818   5.807   0.745   5.390 -0.6648 -1.0956 -2.1768
   61SAPC  H10Y 4819   5.979   0.726   5.336 -0.6007 -1.0096  0.7084
   61SAPC  C311 4820   5.847   0.700   5.182  0.1868  0.0959  0.1256
   61SAPC  H11X 4821   5.857   0.590   5.179 -0.9311 -0.0383  0.7869
   61SAPC  H11Y 4822   5.915   0.739   5.103  0.1896 -0.3957 -0.1187
   61SAPC  C312 4823   5.699   0.729   5.131 -0.1270  0.2769 -0.4153
   61SAPC  H12X 4824   5.682   0.839   5.125  0.0045  0.2275 -2.2491
   61SAPC  H12Y 4825   5.632   0.692   5.212 -0.6489 -0.3957 -1.1426
   61SAPC  C313 4826   5.666   0.665   4.999  0.6161  0.0965  0.2527
   61SAPC  H13X 4827   5.618   0.569   5.025 -1.0406  0.1369 -2.2964
   61SAPC  H13Y 4828   5.749   0.645   4.928 -0.1282  2.9894 -1.6130
   61SAPC  C314 4829   5.568   0.749   4.922 -0.3368 -0.3322  0.0603
   61SAPC  H14X 4830   5.621   0.842   4.895 -0.0110  0.9245  4.2791
   61SAPC  H14Y 4831   5.478   0.785   4.977 -2.0956 -1.4112 -1.9184
   61SAPC  C315 4832   5.521   0.684   4.792  0.7792  0.4369  0.0771
   61SAPC  H15X 4833   5.466   0.590   4.813  0.4428  0.9317  1.5632
   61SAPC  H15Y 4834   5.611   0.653   4.735  0.6470  0.5297 -0.1864
   61SAPC  C316 4835   5.441   0.776   4.709 -1.0547  0.1662  0.0947
   61SAPC  H16X 4836   5.477   0.879   4.728 -0.3926  0.2145 -1.2558
   61SAPC  H16Y 4837   5.331   0.770   4.716 -1.2067  1.0097 -1.0878
   61SAPC  C317 4838   5.474   0.745   4.561 -0.1684 -0.3341  0.0281
   61SAPC  H17X 4839   5.480   0.635   4.544  0.1643 -0.3665  0.3509
   61SAPC  H17Y 4840   5.575   0.782   4.536 -0.9512  1.1490 -1.0582
   61SAPC  C318 4841   5.378   0.813   4.470 -0.1525  0.1874  0.5133
   61SAPC  H18X 4842   5.380   0.924   4.481 -1.6819  0.3155 -0.2328
   61SAPC  H18Y 4843   5.277   0.781   4.502 -0.5828  0.0092 -0.9255
   61SAPC  H18Z 4844   5.409   0.787   4.366  1.6004  3.7961 -0.0363
   62SAPC     N 4845   0.719   4.956   6.508  0.7043 -0.1254 -0.1373
   62SAPC   C12 4846   0.679   5.097   6.554 -0.4297  0.1954 -0.1912
   62SAPC  H12A 4847   0.740   5.170   6.502  0.0253  0.5904  0.8689
   62SAPC  H12B 4848   0.686   5.106   6.662 -1.3374 -0.9551 -0.0095
   62SAPC   C13 4849   0.630   4.844   6.560  0.5487 -0.2442 -0.3372
   62SAPC  H13A 4850   0.534   4.886   6.586  0.8176 -1.6330  3.5509
   62SAPC  H13B 4851   0.615   4.762   6.492  3.0956 -1.1842  0.1442
   62SAPC  H13C 4852   0.665   4.811   6.656 -0.0488  0.3635  0.1001
   62SAPC   C14 4853   0.712   4.944   6.355 -0.0043  0.3322  0.0715
   62SAPC  H14A 4854   0.754   4.851   6.321  1.4207  2.0187 -3.1936
   62SAPC  H14B 4855   0.614   4.943   6.309  0.9839 -1.0734 -2.1724
   62SAPC  H14C 4856   0.774   5.025   6.318  1.2004 -0.8508 -0.5841
   62SAPC   C15 4857   0.858   4.937   6.543  0.2033  0.3517  0.5480
   62SAPC  H15A 4858   0.888   4.840   6.507  1.3670  0.5823  0.8519
   62SAPC  H15B 4859   0.920   5.018   6.507 -1.9664  1.5498 -0.7011
   62SAPC  H15C 4860   0.872   4.930   6.650  0.6269  1.5450  0.5882
   62SAPC   C11 4861   0.530   5.152   6.520 -0.1618 -0.1968  0.2019
   62SAPC  H11A 4862   0.523   5.258   6.552  1.1324  0.0123 -0.1438
   62SAPC  H11B 4863   0.465   5.089   6.585 -2.5794  0.0764 -1.7914
   62SAPC     P 4864   0.549   5.252   6.278 -0.0141 -0.0489 -0.4331
   62SAPC   O13 4865   0.483   5.382   6.304  0.1711  0.3352 -0.4090
   62SAPC   O14 4866   0.695   5.247   6.285  0.0083  0.5513 -0.7563
   62SAPC   O12 4867   0.497   5.138   6.379  0.0526 -0.7718 -0.3582
   62SAPC   O11 4868   0.506   5.205   6.130  0.6056 -0.3842 -0.3292
   62SAPC    C1 4869   0.368   5.159   6.115  0.1461  0.2713 -0.2457
   62SAPC    HA 4870   0.358   5.062   6.168  3.6835 -0.3261 -0.4043
   62SAPC    HB 4871   0.299   5.241   6.144  2.5880  2.6915 -0.8418
   62SAPC    C2 4872   0.354   5.125   5.958 -0.0824 -0.8195 -0.7188
   62SAPC    HS 4873   0.384   5.216   5.901 -1.3732 -0.2865 -0.5585
   62SAPC   O21 4874   0.219   5.079   5.937 -0.1423  0.7663  0.1704
   62SAPC   C21 4875   0.122   5.166   5.926 -0.2003 -0.2605 -0.5717
   62SAPC   O22 4876   0.129   5.288   5.933 -0.3393  0.2789  0.3756
   62SAPC   C22 4877  -0.006   5.088   5.893  0.4754 -0.0015 -0.2571
   62SAPC   H2R 4878  -0.092   5.154   5.870  0.4460  0.2446  0.5107
   62SAPC   H2S 4879   0.012   5.023   5.804 -2.2781 -1.2296 -0.0200
   62SAPC    C3 4880   0.450   5.004   5.926 -0.0760  0.0239  0.1278
   62SAPC    HX 4881   0.418   4.920   5.991  1.6504 -0.3835  0.4888
   62SAPC    HY 4882   0.551   5.033   5.961 -0.1951  1.0492 -0.3304
   62SAPC   O31 4883   0.433   4.974   5.788  0.0246  0.0353  0.4359
   62SAPC   C31 4884   0.493   4.867   5.738 -0.1933  0.1493 -0.6519
   62SAPC   O32 4885   0.584   4.796   5.786 -0.5994  0.3163 -0.2548
   62SAPC   C32 4886   0.456   4.859   5.595 -0.1821  0.0525 -0.3398
   62SAPC   H2X 4887   0.426   4.963   5.571 -3.0199 -0.3660  0.9650
   62SAPC   H2Y 4888   0.361   4.801   5.584 -0.3965  0.4237 -0.4741
   62SAPC   C23 4889  -0.036   4.998   6.015  0.4974 -0.5083 -0.1038
   62SAPC   H3R 4890  -0.056   5.052   6.110 -0.3713 -0.1321 -0.4944
   62SAPC   H3S 4891   0.045   4.923   6.025  0.4018 -0.9055 -1.9495
   62SAPC   C24 4892  -0.154   4.896   5.995  0.5427  0.8204  0.3093
   62SAPC   H4R 4893  -0.154   4.816   6.072 -1.3775  0.9757  0.5354
   62SAPC   H4S 4894  -0.132   4.839   5.902 -1.1857 -0.8999  0.8719
   62SAPC   C25 4895  -0.294   4.946   5.991  0.1987 -0.4570 -0.4500
   62SAPC   H5R 4896  -0.335   4.963   6.091 -1.6195 -0.0259 -1.2247
   62SAPC   C26 4897  -0.384   4.951   5.893 -0.5418 -0.2761 -0.2383
   62SAPC   H6R 4898  -0.481   5.003   5.899 -0.7575 -0.8021  1.0916
   62SAPC   C27 4899  -0.358   4.912   5.749 -1.0357  0.4667  0.3910
   62SAPC   H7R 4900  -0.430   4.832   5.722 -0.9357  0.5359 -0.0956
   62SAPC   H7S 4901  -0.255   4.871   5.737 -0.7182  1.9008 -3.5476
   62SAPC   C28 4902  -0.354   5.034   5.656 -0.4185 -0.7248 -0.4469
   62SAPC   H8R 4903  -0.310   5.129   5.689  0.7335 -1.3378 -0.1516
   62SAPC   C29 4904  -0.392   5.031   5.532  0.0375  0.2951  0.7562
   62SAPC   H9R 4905  -0.380   5.114   5.461 -0.2989 -1.5377 -1.5931
   62SAPC  C210 4906  -0.422   4.903   5.453 -0.0042 -0.6653 -0.4085
   62SAPC  H10R 4907  -0.493   4.927   5.371 -1.4746 -0.7092  0.8101
   62SAPC  H10S 4908  -0.485   4.830   5.509 -1.2717 -0.1065 -1.0567
   62SAPC  C211 4909  -0.296   4.825   5.419  0.2863  0.6205  0.1547
   62SAPC  H11R 4910  -0.232   4.806   5.506  2.8274  0.2300 -1.6614
   62SAPC  C212 4911  -0.254   4.794   5.294 -0.0405  0.3312 -0.4646
   62SAPC  H12R 4912  -0.160   4.738   5.302 -1.3942 -1.8784  0.9660
   62SAPC  C213 4913  -0.334   4.817   5.170 -0.0333  0.7416 -0.5558
   62SAPC  H13R 4914  -0.421   4.885   5.185  0.9635  1.8659  0.3287
   62SAPC  H13S 4915  -0.373   4.717   5.142 -1.3264  1.2900 -0.7879
   62SAPC  C214 4916  -0.263   4.891   5.063 -0.4979  0.2065 -0.7256
   62SAPC  H14R 4917  -0.219   4.982   5.105  2.8523 -1.6799  0.2044
   62SAPC  C215 4918  -0.255   4.862   4.931 -0.2339 -1.3025 -0.5895
   62SAPC  H15R 4919  -0.218   4.943   4.867 -3.1584  0.5701 -0.1063
   62SAPC  C216 4920  -0.319   4.739   4.857 -0.3172  1.4741  0.0654
   62SAPC  H16R 4921  -0.429   4.730   4.873 -0.1868  0.8565  0.6465
   62SAPC  H16S 4922  -0.273   4.649   4.902  0.4724  1.4704 -0.7329
   62SAPC  C217 4923  -0.294   4.739   4.705  0.2039  0.8410  0.8911
   62SAPC  H17R 4924  -0.295   4.638   4.658 -0.7032  1.5567 -0.6824
   62SAPC  H17S 4925  -0.197   4.787   4.678  1.2309 -1.5508 -0.0635
   62SAPC  C218 4926  -0.418   4.808   4.649 -0.5520  0.6636 -0.3579
   62SAPC  H18R 4927  -0.416   4.912   4.690 -0.8416  0.0309  1.3352
   62SAPC  H18S 4928  -0.509   4.765   4.696 -0.3475  1.9415  1.3155
   62SAPC  C219 4929  -0.430   4.833   4.493 -0.3672  0.6080 -0.4611
   62SAPC  H19R 4930  -0.437   4.737   4.438 -3.0825  0.9804 -0.9129
   62SAPC  H19S 4931  -0.337   4.882   4.456  0.2037  1.7857  2.3019
   62SAPC  C220 4932  -0.547   4.921   4.457 -0.1535 -0.3648 -0.6189
   62SAPC  H20R 4933  -0.544   4.911   4.346  0.2841 -3.1088 -0.4284
   62SAPC  H20S 4934  -0.543   5.030   4.480  2.4792 -0.4957 -0.2123
   62SAPC  H20T 4935  -0.645   4.878   4.487  0.1971  0.4625  1.8937
   62SAPC   C33 4936   0.570   4.807   5.501 -0.1739  0.1956  0.9560
   62SAPC   H3X 4937   0.579   4.697   5.511 -2.9486 -0.5222 -2.5126
   62SAPC   H3Y 4938   0.660   4.871   5.510 -1.0500  1.8286 -0.9705
   62SAPC   C34 4939   0.528   4.819   5.354  0.3041 -0.2310 -0.1452
   62SAPC   H4X 4940   0.524   4.928   5.334  1.1074  0.0483  1.0894
   62SAPC   H4Y 4941   0.426   4.776   5.346  0.4616 -0.8311  0.8655
   62SAPC   C35 4942   0.620   4.752   5.246  0.1593 -0.9814 -0.3734
   62SAPC   H5X 4943   0.724   4.789   5.257 -0.9674  1.8828  1.7653
   62SAPC   H5Y 4944   0.584   4.793   5.149 -0.4893  2.2095  1.0894
   62SAPC   C36 4945   0.592   4.602   5.239  0.0089 -0.5136  0.3579
   62SAPC   H6X 4946   0.487   4.584   5.207  0.5725 -1.5303 -1.0053
   62SAPC   H6Y 4947   0.607   4.555   5.338  1.2612  1.5179  1.1972
   62SAPC   C37 4948   0.672   4.534   5.134 -0.6241  0.6582  0.5042
   62SAPC   H7X 4949   0.645   4.428   5.149 -0.6160  0.4023 -1.1486
   62SAPC   H7Y 4950   0.780   4.537   5.159 -0.3283 -1.1303 -0.4556
   62SAPC   C38 4951   0.651   4.565   4.984 -0.4309  0.7097  0.6864
   62SAPC   H8X 4952   0.723   4.507   4.923 -0.0418  3.8656 -2.1901
   62SAPC   H8Y 4953   0.661   4.672   4.954 -1.2953  1.3972  2.6176
   62SAPC   C39 4954   0.510   4.522   4.931 -0.7735  0.2792  0.3237
   62SAPC   H9X 4955   0.431   4.580   4.982 -1.4864 -0.5179  0.1388
   62SAPC   H9Y 4956   0.513   4.415   4.958  3.7157 -0.3904 -1.7851
   62SAPC  C310 4957   0.484   4.541   4.780  0.6838 -0.3945  0.2143
   62SAPC  H10X 4958   0.377   4.523   4.759  0.7955 -0.2048 -0.5267
   62SAPC  H10Y 4959   0.545   4.477   4.712  0.2455 -1.9698  1.2359
   62SAPC  C311 4960   0.515   4.682   4.723 -0.1409 -0.4827  0.0358
   62SAPC  H11X 4961   0.624   4.692   4.738 -0.5907  1.9035  2.5395
   62SAPC  H11Y 4962   0.459   4.761   4.777  0.2525 -0.1553 -0.0345
   62SAPC  C312 4963   0.490   4.694   4.573  0.9127 -0.1284  0.6504
   62SAPC  H12X 4964   0.388   4.656   4.554  1.6080 -1.2231 -1.1568
   62SAPC  H12Y 4965   0.559   4.624   4.520  1.1003 -0.8951  1.8686
   62SAPC  C313 4966   0.513   4.837   4.515  0.3513  0.0417 -0.4789
   62SAPC  H13X 4967   0.551   4.844   4.411  1.2076 -0.8799 -0.2413
   62SAPC  H13Y 4968   0.595   4.881   4.577  1.2919 -1.2485 -0.7765
   62SAPC  C314 4969   0.389   4.925   4.537  0.2100 -0.1077 -0.2484
   62SAPC  H14X 4970   0.420   5.028   4.509 -1.5113  0.3631 -0.5464
   62SAPC  H14Y 4971   0.351   4.926   4.642  0.3329  3.0560 -0.1407
   62SAPC  C315 4972   0.282   4.891   4.431 -0.1688  0.1601 -0.5047
   62SAPC  H15X 4973   0.238   4.792   4.455 -0.5748  0.8481  1.8618
   62SAPC  H15Y 4974   0.331   4.873   4.333 -0.8648 -3.4447 -0.3307
   62SAPC  C316 4975   0.179   4.999   4.414 -0.6774  0.1186  0.6960
   62SAPC  H16X 4976   0.226   5.096   4.387  0.8951 -1.6576 -3.9646
   62SAPC  H16Y 4977   0.117   5.013   4.505 -0.3579  3.0314  0.5514
   62SAPC  C317 4978   0.080   4.968   4.296  0.1703 -0.0655 -0.1838
   62SAPC  H17X 4979   0.118   4.999   4.196 -0.5699  0.3925 -0.3344
   62SAPC  H17Y 4980  -0.011   5.026   4.325 -0.3647 -0.0093 -1.8774
   62SAPC  C318 4981   0.032   4.820   4.296 -0.1501  0.2698  0.5660
   62SAPC  H18X 4982  -0.041   4.799   4.215  2.0966  2.3585 -2.2037
   62SAPC  H18Y 4983   0.003   4.777   4.394  2.1097  0.0631  1.2159
   62SAPC  H18Z 4984   0.118   4.757   4.262  0.6534  1.5299  0.1924
   63SAPC     N 4985   0.224   2.536   6.952 -0.4658 -0.1754  0.1414
   63SAPC   C12 4986   0.191   2.574   6.809 -0.7172 -0.1088  0.0067
   63SAPC  H12A 4987   0.154   2.676   6.812 -2.0348 -0.4060 -3.0278
   63SAPC  H12B 4988   0.111   2.506   6.786 -1.5459  0.2942  1.5364
   63SAPC   C13 4989   0.248   2.390   6.959 -0.5160 -0.1577 -0.8967
   63SAPC  H13A 4990   0.171   2.335   6.908 -0.6674 -2.6481  1.8023
   63SAPC  H13B 4991   0.346   2.359   6.925 -0.5884 -0.8266 -0.4957
   63SAPC  H13C 4992   0.256   2.356   7.061 -0.6878  5.8335  1.5736
   63SAPC   C14 4993   0.342   2.615   7.008  0.0791  0.4901  0.0488
   63SAPC  H14A 4994   0.364   2.573   7.105  1.6110 -0.6960 -0.7730
   63SAPC  H14B 4995   0.422   2.596   6.938  1.2616  1.8006  0.9927
   63SAPC  H14C 4996   0.318   2.721   7.006  1.0958  0.7221 -1.3159
   63SAPC   C15 4997   0.101   2.566   7.038  0.5009  0.6667 -0.3703
   63SAPC  H15A 4998   0.008   2.527   7.000  0.0223  1.9976 -0.6024
   63SAPC  H15B 4999   0.126   2.526   7.135  0.9762 -1.0297 -1.1456
   63SAPC  H15C 5000   0.095   2.673   7.043  2.4589  0.8540 -0.9005
   63SAPC   C11 5001   0.284   2.566   6.688  0.0399 -0.1088  0.3477
   63SAPC  H11A 5002   0.367   2.639   6.702  0.1947 -0.4026  0.9940
   63SAPC  H11B 5003   0.241   2.605   6.593  1.6988  1.9225  0.3493
   63SAPC     P 5004   0.247   2.338   6.585 -0.1370  0.1495 -0.0345
   63SAPC   O13 5005   0.317   2.213   6.576 -0.2265  0.1802 -0.0475
   63SAPC   O14 5006   0.116   2.324   6.648  0.0270 -0.2395 -0.1605
   63SAPC   O12 5007   0.331   2.439   6.661  0.2850  0.5383  0.2668
   63SAPC   O11 5008   0.229   2.398   6.442  0.0730 -0.7747 -0.6870
   63SAPC    C1 5009   0.351   2.443   6.368 -0.0106 -0.9430  0.4604
   63SAPC    HA 5010   0.449   2.435   6.420  0.6522  3.3316  0.1730
   63SAPC    HB 5011   0.359   2.383   6.275  1.0163  0.3693 -0.3179
   63SAPC    C2 5012   0.341   2.590   6.318  0.1908 -0.2590 -1.1624
   63SAPC    HS 5013   0.339   2.656   6.408 -0.6099 -1.0778 -0.5565
   63SAPC   O21 5014   0.208   2.607   6.256 -0.4916  0.1104  0.1356
   63SAPC   C21 5015   0.177   2.734   6.223  0.8126 -0.0443  0.2928
   63SAPC   O22 5016   0.242   2.834   6.251  0.1917 -0.5951 -0.6853
   63SAPC   C22 5017   0.041   2.731   6.159  0.8782 -0.4509  0.5490
   63SAPC   H2R 5018   0.061   2.684   6.060 -3.6239  0.0499 -0.8084
   63SAPC   H2S 5019  -0.026   2.664   6.217  0.1620 -0.9617 -0.8424
   63SAPC    C3 5020   0.451   2.634   6.219  0.3262  0.5342 -0.0438
   63SAPC    HX 5021   0.541   2.619   6.282 -0.3810  2.4404  1.5218
   63SAPC    HY 5022   0.437   2.742   6.195  3.8161  1.1842  0.3153
   63SAPC   O31 5023   0.460   2.548   6.100  0.2220  0.4334 -0.4078
   63SAPC   C31 5024   0.549   2.602   6.012  0.1975 -0.6620 -0.1218
   63SAPC   O32 5025   0.629   2.683   6.052 -0.4248 -0.9040 -1.0161
   63SAPC   C32 5026   0.535   2.546   5.871 -0.0008  0.7592  0.0040
   63SAPC   H2X 5027   0.435   2.580   5.835 -1.4174 -1.1838  1.8582
   63SAPC   H2Y 5028   0.534   2.435   5.879  1.0994  0.8135  1.0486
   63SAPC   C23 5029  -0.023   2.871   6.153 -1.0224 -0.4443  0.5635
   63SAPC   H3R 5030   0.038   2.956   6.115 -1.9508  0.8237  1.7626
   63SAPC   H3S 5031  -0.057   2.912   6.251 -1.3392  1.6456 -0.3668
   63SAPC   C24 5032  -0.150   2.879   6.061  0.2144  0.7426 -0.5669
   63SAPC   H4R 5033  -0.214   2.788   6.067 -0.4326  1.0408 -2.3652
   63SAPC   H4S 5034  -0.119   2.883   5.954 -4.2182  0.1308 -2.1005
   63SAPC   C25 5035  -0.242   2.999   6.087 -0.8602 -0.5722 -0.4396
   63SAPC   H5R 5036  -0.245   3.034   6.192  0.6254  3.5176 -1.5414
   63SAPC   C26 5037  -0.291   3.083   5.990  0.3453 -0.1563  0.4077
   63SAPC   H6R 5038  -0.349   3.168   6.031 -2.4683 -2.0712  0.6881
   63SAPC   C27 5039  -0.288   3.064   5.843  0.3645  0.1437  0.5828
   63SAPC   H7R 5040  -0.336   2.965   5.830  0.3689 -0.0991  2.2025
   63SAPC   H7S 5041  -0.181   3.056   5.813  0.3811 -1.1691  0.9348
   63SAPC   C28 5042  -0.365   3.169   5.756 -0.4598  0.0215  0.5435
   63SAPC   H8R 5043  -0.407   3.254   5.813  0.8630  0.3527  1.0623
   63SAPC   C29 5044  -0.387   3.154   5.625  0.1644  0.2776  1.0462
   63SAPC   H9R 5045  -0.447   3.226   5.567  0.7827 -0.4605 -0.5614
   63SAPC  C210 5046  -0.343   3.031   5.546  0.4064 -0.9881  0.0074
   63SAPC  H10R 5047  -0.294   2.950   5.604  1.0922 -1.6906 -1.4840
   63SAPC  H10S 5048  -0.251   3.059   5.491 -0.0093  0.0800 -0.1745
   63SAPC  C211 5049  -0.431   2.959   5.445 -0.4292 -0.7287  0.1984
   63SAPC  H11R 5050  -0.522   2.923   5.493 -0.7908 -2.2209 -1.4899
   63SAPC  C212 5051  -0.397   2.927   5.316 -0.2015 -0.2518 -0.5564
   63SAPC  H12R 5052  -0.469   2.885   5.245 -0.2797  1.7227 -1.7123
   63SAPC  C213 5053  -0.284   2.979   5.233  0.2198 -0.1382 -0.5392
   63SAPC  H13R 5054  -0.217   3.048   5.289  0.7801 -1.8392  0.9499
   63SAPC  H13S 5055  -0.327   3.043   5.152  2.3107  0.9052 -0.9161
   63SAPC  C214 5056  -0.196   2.871   5.165  1.1854 -0.2075  0.0060
   63SAPC  H14R 5057  -0.104   2.839   5.215  1.3323  0.8020  0.4039
   63SAPC  C215 5058  -0.223   2.808   5.051  0.6423 -0.5498 -0.2083
   63SAPC  H15R 5059  -0.142   2.750   5.004 -1.4664 -0.8130 -3.8886
   63SAPC  C216 5060  -0.339   2.829   4.961 -0.2830 -0.0311  0.1952
   63SAPC  H16R 5061  -0.428   2.876   5.008 -1.2614 -1.7518  0.1341
   63SAPC  H16S 5062  -0.370   2.729   4.925 -1.5861  0.4532 -0.0662
   63SAPC  C217 5063  -0.287   2.900   4.841  0.5641  1.2239  0.0484
   63SAPC  H17R 5064  -0.211   2.835   4.792 -0.6421  0.2113 -0.5650
   63SAPC  H17S 5065  -0.236   2.995   4.867  1.0097  0.8513  0.5624
   63SAPC  C218 5066  -0.395   2.928   4.729 -0.5787 -0.7694  0.0640
   63SAPC  H18R 5067  -0.479   2.984   4.775  0.1111  2.4236 -2.2141
   63SAPC  H18S 5068  -0.424   2.825   4.698  2.7434 -2.7202  2.6068
   63SAPC  C219 5069  -0.347   3.006   4.604  0.4025  0.2036  0.8708
   63SAPC  H19R 5070  -0.284   2.936   4.546 -0.8928 -2.6204  2.6952
   63SAPC  H19S 5071  -0.288   3.096   4.634  3.0668 -1.2873  0.4087
   63SAPC  C220 5072  -0.465   3.050   4.516 -0.9033 -0.1875 -0.7809
   63SAPC  H20R 5073  -0.425   3.110   4.432 -0.9404  0.7536 -0.1351
   63SAPC  H20S 5074  -0.531   3.115   4.576  1.0839 -0.8982  2.4714
   63SAPC  H20T 5075  -0.517   2.961   4.475 -0.1488 -0.9450 -0.1493
   63SAPC   C33 5076   0.635   2.597   5.766 -0.1525  0.0789 -0.2105
   63SAPC   H3X 5077   0.733   2.547   5.781 -0.1514  0.3037  0.5490
   63SAPC   H3Y 5078   0.658   2.706   5.767  1.9757 -0.2926 -1.8249
   63SAPC   C34 5079   0.595   2.558   5.623 -0.5153 -0.4032 -0.2515
   63SAPC   H4X 5080   0.676   2.594   5.555  2.4270  0.3216  3.2891
   63SAPC   H4Y 5081   0.502   2.615   5.603 -0.1559  1.0896  2.0148
   63SAPC   C35 5082   0.577   2.412   5.593 -0.2816  0.3287 -1.0616
   63SAPC   H5X 5083   0.493   2.365   5.649  0.9627 -2.6439 -1.5391
   63SAPC   H5Y 5084   0.666   2.351   5.619 -0.6234 -0.4318 -1.6320
   63SAPC   C36 5085   0.559   2.402   5.449  0.3175 -0.3522  0.4472
   63SAPC   H6X 5086   0.655   2.421   5.396 -0.3390  0.7071 -0.4077
   63SAPC   H6Y 5087   0.484   2.479   5.417  0.7677 -0.6459 -1.4649
   63SAPC   C37 5088   0.511   2.260   5.401 -0.0970 -0.4456 -0.0834
   63SAPC   H7X 5089   0.413   2.236   5.446 -0.5687  0.7536 -0.4116
   63SAPC   H7Y 5090   0.585   2.199   5.456 -1.1411 -0.2608  1.5815
   63SAPC   C38 5091   0.519   2.231   5.253  0.0660  0.4146 -0.2494
   63SAPC   H8X 5092   0.477   2.132   5.226  0.6012  0.4744 -1.3443
   63SAPC   H8Y 5093   0.624   2.235   5.218  0.6742 -0.0989  1.4364
   63SAPC   C39 5094   0.446   2.334   5.157  0.8106 -0.3460  0.1831
   63SAPC   H9X 5095   0.490   2.435   5.173  0.7024 -0.1606 -0.6586
   63SAPC   H9Y 5096   0.337   2.347   5.173  0.9858  1.9877 -0.1036
   63SAPC  C310 5097   0.487   2.304   5.009  0.4164  0.0522  0.1947
   63SAPC  H10X 5098   0.451   2.202   4.984 -2.7910  0.7245  1.5436
   63SAPC  H10Y 5099   0.597   2.301   4.997  0.3437  0.1967 -0.5213
   63SAPC  C311 5100   0.432   2.409   4.904 -0.3545  0.0206 -0.4604
   63SAPC  H11X 5101   0.479   2.503   4.939  1.8147 -0.4270 -1.9508
   63SAPC  H11Y 5102   0.323   2.412   4.925 -0.3240  0.1469 -0.3196
   63SAPC  C312 5103   0.477   2.366   4.765  1.0600  0.3542 -0.2824
   63SAPC  H12X 5104   0.425   2.273   4.734  2.4547 -0.4221 -0.4263
   63SAPC  H12Y 5105   0.582   2.332   4.780  0.7837 -0.3102  0.1707
   63SAPC  C313 5106   0.481   2.471   4.652  0.9813  0.3207 -0.1023
   63SAPC  H13X 5107   0.538   2.556   4.694 -0.6326  0.9746  0.8346
   63SAPC  H13Y 5108   0.379   2.501   4.618  1.9365  1.5467 -2.0990
   63SAPC  C314 5109   0.555   2.418   4.524 -0.2391  0.5095  0.0676
   63SAPC  H14X 5110   0.511   2.323   4.487  0.4807 -0.4749  1.6266
   63SAPC  H14Y 5111   0.652   2.376   4.557 -0.7485 -1.5659 -0.9423
   63SAPC  C315 5112   0.584   2.522   4.421 -0.3482  0.3107 -0.2063
   63SAPC  H15X 5113   0.630   2.614   4.463  1.9405  0.8657 -3.5670
   63SAPC  H15Y 5114   0.490   2.532   4.363  0.4979  1.6253 -1.4275
   63SAPC  C316 5115   0.678   2.469   4.300 -0.2476 -0.2604 -0.7243
   63SAPC  H16X 5116   0.620   2.386   4.255  1.5281 -1.3361 -1.1372
   63SAPC  H16Y 5117   0.770   2.420   4.338 -1.0135 -0.4059  1.0468
   63SAPC  C317 5118   0.721   2.581   4.202 -0.3881  0.1425  0.5148
   63SAPC  H17X 5119   0.773   2.660   4.260  0.0634 -0.5800  1.0949
   63SAPC  H17Y 5120   0.631   2.630   4.158  0.1788 -1.0545 -2.2100
   63SAPC  C318 5121   0.809   2.520   4.087 -1.2286 -0.7137 -0.5489
   63SAPC  H18X 5122   0.741   2.467   4.017  1.1213 -1.0842 -2.7075
   63SAPC  H18Y 5123   0.870   2.440   4.135  2.1296  0.5381 -2.3721
   63SAPC  H18Z 5124   0.859   2.606   4.038 -3.1635 -0.6036 -2.4497
   64SAPC     N 5125   1.549   3.111   6.559 -0.8014 -0.2889 -0.0060
   64SAPC   C12 5126   1.447   3.031   6.494 -0.0568  0.4878 -0.3147
   64SAPC  H12A 5127   1.387   2.994   6.576 -0.1450 -1.4751 -1.2087
   64SAPC  H12B 5128   1.491   2.944   6.447  1.6135 -0.8121  3.2243
   64SAPC   C13 5129   1.485   3.213   6.645 -0.0091  0.0240  0.3934
   64SAPC  H13A 5130   1.424   3.268   6.575 -0.4823 -0.0290  0.7591
   64SAPC  H13B 5131   1.413   3.170   6.713 -0.9943 -0.6623 -1.0391
   64SAPC  H13C 5132   1.554   3.278   6.698 -0.1331 -0.4179  1.1004
   64SAPC   C14 5133   1.626   3.016   6.655  0.1679 -0.2768  0.1794
   64SAPC  H14A 5134   1.670   2.935   6.598  0.3599  0.4362 -0.7039
   64SAPC  H14B 5135   1.707   3.074   6.697  0.9023 -1.0201 -0.1864
   64SAPC  H14C 5136   1.555   2.972   6.722 -0.3650 -2.6912 -1.8267
   64SAPC   C15 5137   1.652   3.175   6.467 -0.2307  0.2865 -0.5341
   64SAPC  H15A 5138   1.734   3.219   6.521  1.3470 -2.4810 -0.5341
   64SAPC  H15B 5139   1.708   3.102   6.412 -1.2509 -1.4752  0.6543
   64SAPC  H15C 5140   1.604   3.250   6.406 -0.5079 -1.1216 -2.1315
   64SAPC   C11 5141   1.360   3.102   6.383 -0.3569  0.0058  0.5595
   64SAPC  H11A 5142   1.301   3.018   6.340  1.4809 -0.9387 -0.2199
   64SAPC  H11B 5143   1.428   3.139   6.303 -0.2403  2.0587  1.5333
   64SAPC     P 5144   1.128   3.205   6.446  0.2944 -0.2456 -0.2543
   64SAPC   O13 5145   1.084   3.095   6.535  0.1349 -0.0806  0.3688
   64SAPC   O14 5146   1.071   3.343   6.479  0.1774 -0.4770  0.0159
   64SAPC   O12 5147   1.284   3.212   6.428 -0.0854 -0.8911  0.3987
   64SAPC   O11 5148   1.071   3.158   6.302 -0.0857 -0.6510 -0.1022
   64SAPC    C1 5149   1.061   3.272   6.216  0.1599 -0.2882 -0.7361
   64SAPC    HA 5150   0.969   3.330   6.236  0.1512  0.0783 -1.7329
   64SAPC    HB 5151   1.157   3.329   6.212 -0.1051  0.2866  0.7672
   64SAPC    C2 5152   1.037   3.228   6.072  0.4067 -1.1518  0.3846
   64SAPC    HS 5153   1.053   3.324   6.020 -2.3056 -1.2418 -0.7533
   64SAPC   O21 5154   0.900   3.193   6.066  0.5614 -0.1475  0.5605
   64SAPC   C21 5155   0.847   3.231   5.952 -0.1690 -0.1614 -0.5190
   64SAPC   O22 5156   0.904   3.281   5.858 -1.1237 -0.3925  0.5523
   64SAPC   C22 5157   0.699   3.209   5.963  0.2517 -0.2355  0.0213
   64SAPC   H2R 5158   0.656   3.262   6.051 -1.4193 -1.9912  0.3375
   64SAPC   H2S 5159   0.662   3.253   5.868  3.5109  0.1469 -1.2185
   64SAPC    C3 5160   1.138   3.116   6.026  0.6782  0.1826 -0.0021
   64SAPC    HX 5161   1.103   3.016   6.059 -1.3871 -0.6864 -4.1336
   64SAPC    HY 5162   1.238   3.134   6.072  0.0165  2.8609  0.5599
   64SAPC   O31 5163   1.143   3.111   5.881  0.5588 -0.3324 -0.3435
   64SAPC   C31 5164   1.212   3.214   5.816  0.5058  0.5969 -0.4025
   64SAPC   O32 5165   1.281   3.294   5.873 -0.1397 -0.5457  0.4599
   64SAPC   C32 5166   1.180   3.214   5.664 -0.1842  0.5528 -1.0344
   64SAPC   H2X 5167   1.084   3.158   5.660  0.3204 -0.3359 -0.8640
   64SAPC   H2Y 5168   1.257   3.156   5.610 -0.0729  0.5368 -0.8609
   64SAPC   C23 5169   0.661   3.059   5.969 -0.9878  0.0971  0.0534
   64SAPC   H3R 5170   0.556   3.060   6.007 -0.5607 -2.0707  1.4403
   64SAPC   H3S 5171   0.705   2.995   6.048  0.6016 -0.1787 -1.0082
   64SAPC   C24 5172   0.657   2.995   5.822  0.5983 -1.3490  0.5657
   64SAPC   H4R 5173   0.637   3.073   5.746  2.0345 -0.2686  1.2559
   64SAPC   H4S 5174   0.585   2.910   5.825 -1.5237  0.2298 -1.9705
   64SAPC   C25 5175   0.792   2.932   5.809 -0.1304  0.8504  0.0561
   64SAPC   H5R 5176   0.824   2.894   5.907  1.0072 -2.7131 -1.5218
   64SAPC   C26 5177   0.868   2.915   5.700  0.4222  0.7306  0.1320
   64SAPC   H6R 5178   0.971   2.881   5.716 -0.2930 -0.8294  1.7953
   64SAPC   C27 5179   0.825   2.953   5.562 -0.8108 -0.0204  0.5340
   64SAPC   H7R 5180   0.824   3.064   5.559  1.1995  0.0490  1.2431
   64SAPC   H7S 5181   0.722   2.917   5.538 -0.4803 -1.7229  1.5465
   64SAPC   C28 5182   0.922   2.887   5.468 -0.4004  0.4146  0.2431
   64SAPC   H8R 5183   1.024   2.905   5.504 -0.4540 -2.0388  1.8802
   64SAPC   C29 5184   0.896   2.808   5.363 -0.1480  0.4722 -0.1098
   64SAPC   H9R 5185   0.980   2.776   5.300  0.2989  1.4391 -0.0255
   64SAPC  C210 5186   0.750   2.765   5.318  0.0246  0.9754  0.3144
   64SAPC  H10R 5187   0.687   2.847   5.360  1.4816  2.4914 -0.3190
   64SAPC  H10S 5188   0.730   2.668   5.368  0.2430  0.5024 -0.4970
   64SAPC  C211 5189   0.724   2.751   5.173 -0.0529 -0.8878 -1.0380
   64SAPC  H11R 5190   0.647   2.821   5.137 -1.9414 -2.9784 -1.3216
   64SAPC  C212 5191   0.779   2.665   5.081  0.4714 -0.1940 -0.5060
   64SAPC  H12R 5192   0.735   2.663   4.980  0.9240 -0.3557 -0.7000
   64SAPC  C213 5193   0.888   2.563   5.103 -0.1667 -0.1463 -0.3104
   64SAPC  H13R 5194   0.932   2.580   5.204  2.3369 -0.9852 -1.1801
   64SAPC  H13S 5195   0.976   2.594   5.042 -0.6764  1.7235 -0.1702
   64SAPC  C214 5196   0.840   2.430   5.073 -0.5354 -0.0039  0.5446
   64SAPC  H14R 5197   0.756   2.401   5.137  0.3054 -0.2876  1.5434
   64SAPC  C215 5198   0.857   2.360   4.958  0.1902  0.2314  0.1651
   64SAPC  H15R 5199   0.808   2.262   4.949  1.7346 -0.6332  0.7723
   64SAPC  C216 5200   0.953   2.405   4.848  0.0734 -0.8483 -0.0404
   64SAPC  H16R 5201   0.977   2.321   4.779  0.7639  0.9792 -2.1787
   64SAPC  H16S 5202   1.052   2.444   4.880 -0.3565 -0.4478  0.8180
   64SAPC  C217 5203   0.900   2.509   4.750  0.4726 -0.0191 -0.5296
   64SAPC  H17R 5204   0.866   2.607   4.789 -1.3007 -0.2648 -1.3889
   64SAPC  H17S 5205   0.810   2.470   4.698  0.2841 -0.4029  0.0626
   64SAPC  C218 5206   1.003   2.555   4.646 -0.2607  0.6110  0.0388
   64SAPC  H18R 5207   1.100   2.589   4.686  0.1591 -0.3574 -0.1336
   64SAPC  H18S 5208   0.952   2.640   4.595 -1.8258 -0.9365 -1.1007
   64SAPC  C219 5209   1.025   2.446   4.538  1.0049 -0.3815  0.0949
   64SAPC  H19R 5210   0.932   2.388   4.522 -0.2624  1.4493  0.4484
   64SAPC  H19S 5211   1.103   2.376   4.574 -1.0062 -2.1949  1.1752
   64SAPC  C220 5212   1.074   2.502   4.402 -0.6225 -0.0330 -0.7868
   64SAPC  H20R 5213   1.120   2.429   4.331 -0.2892  0.5221 -1.1432
   64SAPC  H20S 5214   1.139   2.590   4.415 -0.2233 -0.6206  1.9725
   64SAPC  H20T 5215   0.989   2.545   4.345  0.8513  1.5494 -1.8712
   64SAPC   C33 5216   1.171   3.353   5.599  0.1060  0.2936  0.5068
   64SAPC   H3X 5217   1.264   3.414   5.606 -2.6219  5.1231 -1.0043
   64SAPC   H3Y 5218   1.097   3.415   5.654 -0.1280 -1.1645  1.9404
   64SAPC   C34 5219   1.150   3.352   5.450  0.0147  0.4161 -0.5737
   64SAPC   H4X 5220   1.099   3.445   5.418 -0.2378  1.1306  1.6704
   64SAPC   H4Y 5221   1.085   3.263   5.438  1.2548 -0.5554 -0.2922
   64SAPC   C35 5222   1.271   3.314   5.369  0.2721  0.0096  0.4817
   64SAPC   H5X 5223   1.320   3.223   5.411  0.3983  0.1824  0.7156
   64SAPC   H5Y 5224   1.334   3.405   5.356  0.9985 -0.6516 -0.8416
   64SAPC   C36 5225   1.225   3.277   5.228  0.3571  0.0275  0.3083
   64SAPC   H6X 5226   1.312   3.281   5.159  0.9416  1.0304  1.0577
   64SAPC   H6Y 5227   1.167   3.355   5.174  2.1943  0.5820 -0.9603
   64SAPC   C37 5228   1.165   3.133   5.210 -0.1495 -0.3682  0.4831
   64SAPC   H7X 5229   1.081   3.125   5.282 -0.1307 -0.4500  0.4966
   64SAPC   H7Y 5230   1.235   3.058   5.251  0.2174  1.1322  2.7752
   64SAPC   C38 5231   1.109   3.099   5.068 -0.3446 -0.4695 -0.6616
   64SAPC   H8X 5232   1.204   3.087   5.012  2.5022  0.9136  3.4039
   64SAPC   H8Y 5233   1.054   3.191   5.038 -0.8058 -0.4241  0.2904
   64SAPC   C39 5234   1.034   2.965   5.060 -0.9679  0.0474  0.1007
   64SAPC   H9X 5235   0.929   2.969   5.096 -1.1430  1.0228 -0.5047
   64SAPC   H9Y 5236   1.083   2.898   5.134 -2.3943  1.7538  2.7468
   64SAPC  C310 5237   1.034   2.903   4.916 -0.2791  0.2736 -0.2803
   64SAPC  H10X 5238   0.988   2.803   4.932  0.2827  0.2660  1.5536
   64SAPC  H10Y 5239   1.136   2.885   4.878  0.2912 -1.5316  1.8438
   64SAPC  C311 5240   0.957   2.990   4.822  0.4385 -0.2877  0.8684
   64SAPC  H11X 5241   0.993   3.095   4.821 -2.1641  0.6840 -0.2792
   64SAPC  H11Y 5242   0.850   3.001   4.850  0.3931 -1.6104  1.2979
   64SAPC  C312 5243   0.946   2.923   4.678 -0.3336  0.0545  0.5121
   64SAPC  H12X 5244   0.916   2.820   4.705  1.0490 -0.7970 -1.0324
   64SAPC  H12Y 5245   1.045   2.920   4.627  0.1864  0.1136  1.4840
   64SAPC  C313 5246   0.852   2.984   4.566  0.0013  0.2024  0.5662
   64SAPC  H13X 5247   0.888   3.084   4.535 -1.4056  0.4259 -0.4760
   64SAPC  H13Y 5248   0.746   2.994   4.596 -0.6575 -3.4514 -0.0568
   64SAPC  C314 5249   0.866   2.890   4.438  0.0163 -0.5037 -0.7462
   64SAPC  H14X 5250   0.806   2.800   4.465  0.7028 -1.3079 -1.7945
   64SAPC  H14Y 5251   0.970   2.854   4.422  0.8437  0.3510  2.1014
   64SAPC  C315 5252   0.795   2.941   4.307 -0.6209  0.1564  0.6514
   64SAPC  H15X 5253   0.783   2.864   4.228 -2.6230 -1.5410  2.4794
   64SAPC  H15Y 5254   0.862   3.013   4.255 -1.3722 -0.1531 -0.7913
   64SAPC  C316 5255   0.648   2.990   4.325 -0.2655  0.1215 -0.0073
   64SAPC  H16X 5256   0.603   3.024   4.229 -1.3693 -0.0875  0.4256
   64SAPC  H16Y 5257   0.644   3.068   4.404  0.2658 -0.2621  0.4082
   64SAPC  C317 5258   0.552   2.884   4.385  0.1723 -0.0119 -0.1721
   64SAPC  H17X 5259   0.597   2.853   4.482 -0.4374  0.9481  0.4393
   64SAPC  H17Y 5260   0.558   2.787   4.332  0.7915  0.6871 -1.4107
   64SAPC  C318 5261   0.410   2.929   4.388  0.3051 -0.5764 -0.2956
   64SAPC  H18X 5262   0.344   2.843   4.415 -0.7173  0.0601 -0.7266
   64SAPC  H18Y 5263   0.386   2.970   4.288  2.2792 -0.8498 -0.9241
   64SAPC  H18Z 5264   0.395   3.011   4.462 -1.7678  0.2872 -1.6001
   65SAPC     N 5265   4.077   0.311   1.988  0.4999 -0.0735 -0.1642
   65SAPC   C12 5266   3.992   0.423   2.027 -0.0049 -0.0932  0.8031
   65SAPC  H12A 5267   4.044   0.495   2.088  1.3928 -1.2522  1.0434
   65SAPC  H12B 5268   3.901   0.402   2.082 -1.2377  1.2778 -0.5878
   65SAPC   C13 5269   4.201   0.360   1.917 -0.1055  0.3827  0.6863
   65SAPC  H13A 5270   4.176   0.423   1.832 -0.1144  1.7325  1.6471
   65SAPC  H13B 5271   4.265   0.418   1.982 -0.6093  1.9089 -0.1054
   65SAPC  H13C 5272   4.254   0.271   1.888 -0.4525  0.0234  1.1593
   65SAPC   C14 5273   4.114   0.239   2.119  0.4834 -0.0628 -0.1564
   65SAPC  H14A 5274   4.163   0.309   2.184  0.0411 -1.1755  1.4337
   65SAPC  H14B 5275   4.024   0.202   2.166  0.6049  1.0027  0.9563
   65SAPC  H14C 5276   4.187   0.161   2.101 -0.6556 -1.1048 -0.4206
   65SAPC   C15 5277   4.006   0.214   1.899  0.2996 -0.0242 -0.0175
   65SAPC  H15A 5278   4.073   0.132   1.877 -0.2762 -0.5582  0.1685
   65SAPC  H15B 5279   3.918   0.173   1.948 -1.1984  1.5920 -1.2515
   65SAPC  H15C 5280   3.952   0.259   1.817  0.8547 -2.9297 -2.1685
   65SAPC   C11 5281   3.944   0.508   1.909  0.8842  0.2746 -0.1087
   65SAPC  H11A 5282   3.853   0.565   1.937 -0.2186 -0.3265 -2.2463
   65SAPC  H11B 5283   3.924   0.447   1.818 -1.4918  1.2331 -0.2945
   65SAPC     P 5284   4.103   0.723   1.955 -0.2675 -0.3648 -0.1146
   65SAPC   O13 5285   4.203   0.798   1.881  0.5089  0.0817 -0.1759
   65SAPC   O14 5286   3.996   0.802   2.020  0.0361 -0.1121 -0.1120
   65SAPC   O12 5287   4.042   0.610   1.864  0.0806  0.5437  0.2323
   65SAPC   O11 5288   4.168   0.649   2.080 -0.6212  0.0667 -0.2004
   65SAPC    C1 5289   4.271   0.704   2.158 -0.1993  0.2957 -1.0164
   65SAPC    HA 5290   4.359   0.707   2.091  0.6580  0.3615  0.0849
   65SAPC    HB 5291   4.250   0.805   2.198 -1.0571 -0.1254 -0.3634
   65SAPC    C2 5292   4.312   0.613   2.277 -0.1036 -0.2803 -0.3988
   65SAPC    HS 5293   4.297   0.517   2.222 -1.8599 -0.8855  1.0584
   65SAPC   O21 5294   4.230   0.638   2.388 -0.6613 -0.6463  0.3352
   65SAPC   C21 5295   4.202   0.532   2.448 -0.5523  0.5845 -0.7526
   65SAPC   O22 5296   4.222   0.413   2.422  0.3980  0.1940  0.0155
   65SAPC   C22 5297   4.137   0.573   2.584  0.1868 -0.5561 -0.0951
   65SAPC   H2R 5298   4.197   0.532   2.668 -1.2386 -0.3619  1.0466
   65SAPC   H2S 5299   4.136   0.684   2.588  0.9132 -0.5783  1.3651
   65SAPC    C3 5300   4.462   0.639   2.319 -0.5178  0.1160  0.0646
   65SAPC    HX 5301   4.487   0.743   2.289 -0.6638  0.3887  0.8468
   65SAPC    HY 5302   4.530   0.573   2.261  1.4147 -0.1729  2.4706
   65SAPC   O31 5303   4.479   0.624   2.465 -0.3230 -0.1289 -0.4293
   65SAPC   C31 5304   4.602   0.621   2.507  0.1050  0.2537 -0.6893
   65SAPC   O32 5305   4.702   0.634   2.444  0.3685 -0.1248  0.0031
   65SAPC   C32 5306   4.608   0.579   2.655  1.1726  0.4370 -0.6289
   65SAPC   H2X 5307   4.716   0.569   2.681  1.2189 -0.6178 -1.1847
   65SAPC   H2Y 5308   4.562   0.479   2.667 -0.2938  1.1542  0.0422
   65SAPC   C23 5309   3.986   0.527   2.590  0.2712 -1.1280  0.8071
   65SAPC   H3R 5310   3.983   0.416   2.591  0.9783 -1.1643 -0.0666
   65SAPC   H3S 5311   3.943   0.563   2.494 -0.0640  0.5917  1.5578
   65SAPC   C24 5312   3.899   0.597   2.705 -0.1016  0.1727  0.1961
   65SAPC   H4R 5313   3.943   0.592   2.806 -0.7980  2.5626  0.6809
   65SAPC   H4S 5314   3.805   0.537   2.711 -1.2171  1.7740 -0.3767
   65SAPC   C25 5315   3.864   0.737   2.672  0.8840 -1.1211  0.1423
   65SAPC   H5R 5316   3.815   0.754   2.575  1.3765  1.4941  0.2752
   65SAPC   C26 5317   3.900   0.846   2.742  0.1276 -0.7007 -0.1845
   65SAPC   H6R 5318   3.876   0.948   2.709 -0.2777 -1.1331 -1.2614
   65SAPC   C27 5319   3.987   0.834   2.866 -1.1167  0.4752  0.3116
   65SAPC   H7R 5320   4.051   0.923   2.882 -1.2936  0.6564  0.0052
   65SAPC   H7S 5321   4.071   0.767   2.837  0.7739  2.5541  0.6839
   65SAPC   C28 5322   3.919   0.799   2.995  0.0890 -0.5403 -0.0660
   65SAPC   H8R 5323   3.824   0.743   2.992 -0.4488  0.2879  0.9916
   65SAPC   C29 5324   3.957   0.823   3.124  0.0995  0.5800  0.8128
   65SAPC   H9R 5325   3.897   0.797   3.212  2.2764  0.2949  2.2936
   65SAPC  C210 5326   4.081   0.897   3.152 -0.5238  0.7793 -0.1805
   65SAPC  H10R 5327   4.107   0.973   3.075 -0.0334 -1.1067 -1.9830
   65SAPC  H10S 5328   4.164   0.823   3.151 -1.7183 -0.6796 -3.4401
   65SAPC  C211 5329   4.061   0.939   3.296 -0.0310 -0.1528 -0.2159
   65SAPC  H11R 5330   4.010   1.035   3.310 -1.8604 -1.2326  0.8820
   65SAPC  C212 5331   4.080   0.863   3.410  0.4115 -0.6306  0.6382
   65SAPC  H12R 5332   4.067   0.918   3.505 -0.0646 -0.7935  0.6710
   65SAPC  C213 5333   4.134   0.722   3.405  0.0314  0.5394 -1.1874
   65SAPC  H13R 5334   4.234   0.714   3.454 -0.3345  1.2566 -0.3056
   65SAPC  H13S 5335   4.165   0.700   3.301 -0.2618 -1.4445 -0.8944
   65SAPC  C214 5336   4.040   0.610   3.445 -0.1167  0.6474 -0.5594
   65SAPC  H14R 5337   4.019   0.540   3.363  0.1655  1.3160 -1.2231
   65SAPC  C215 5338   4.016   0.571   3.573 -0.6322  0.1353 -0.0158
   65SAPC  H15R 5339   3.935   0.498   3.590 -1.2993  1.0739  0.9292
   65SAPC  C216 5340   4.065   0.633   3.701 -0.4363 -0.1318  0.2964
   65SAPC  H16R 5341   3.989   0.708   3.733 -0.8463 -0.8705  1.0891
   65SAPC  H16S 5342   4.159   0.691   3.685  0.0536 -1.2609 -1.1367
   65SAPC  C217 5343   4.080   0.532   3.811 -0.0379  0.1145 -0.3100
   65SAPC  H17R 5344   4.173   0.474   3.791  2.2173  3.1817  0.5002
   65SAPC  H17S 5345   3.998   0.457   3.811  1.9328 -2.2994  2.1098
   65SAPC  C218 5346   4.090   0.595   3.954  0.3263 -0.1779  0.5326
   65SAPC  H18R 5347   4.008   0.669   3.957  2.5972  2.5503 -0.5678
   65SAPC  H18S 5348   4.181   0.658   3.964 -0.7959  1.4923  0.4828
   65SAPC  C219 5349   4.102   0.503   4.071 -0.3632  0.3160  0.1316
   65SAPC  H19R 5350   4.205   0.463   4.065 -0.8935 -1.6549  2.5568
   65SAPC  H19S 5351   4.038   0.414   4.055 -0.2981  0.1551  0.7723
   65SAPC  C220 5352   4.088   0.582   4.196 -0.2327  0.3608 -0.1486
   65SAPC  H20R 5353   4.002   0.651   4.185  0.1084  1.0828  1.3645
   65SAPC  H20S 5354   4.177   0.641   4.225 -0.6724  1.6879 -1.4115
   65SAPC  H20T 5355   4.061   0.508   4.274  0.2422 -0.5948 -0.8658
   65SAPC   C33 5356   4.547   0.683   2.754 -0.3786  0.0779  0.2220
   65SAPC   H3X 5357   4.437   0.679   2.740 -0.1807 -1.9956 -1.2058
   65SAPC   H3Y 5358   4.584   0.787   2.743  0.2337  0.0322  1.6151
   65SAPC   C34 5359   4.584   0.638   2.895  0.7217 -0.1154 -0.9125
   65SAPC   H4X 5360   4.695   0.644   2.888  0.6396 -0.5586 -3.2715
   65SAPC   H4Y 5361   4.545   0.534   2.902  0.3609  0.0327 -0.7207
   65SAPC   C35 5362   4.525   0.727   3.004  0.2165 -0.0220 -0.7180
   65SAPC   H5X 5363   4.415   0.723   2.991  0.1690  0.0105 -0.3526
   65SAPC   H5Y 5364   4.569   0.824   2.975  2.3219  0.3077  2.9341
   65SAPC   C36 5365   4.590   0.688   3.134 -0.5185  0.0190  0.1990
   65SAPC   H6X 5366   4.694   0.718   3.114 -0.8368 -0.0722 -1.8079
   65SAPC   H6Y 5367   4.579   0.577   3.142  0.5989 -0.1135  0.0588
   65SAPC   C37 5368   4.518   0.755   3.247  0.0873 -0.4454  0.3399
   65SAPC   H7X 5369   4.414   0.722   3.263 -0.9859  2.5799  0.1868
   65SAPC   H7Y 5370   4.515   0.863   3.222 -0.0996 -0.2945  1.0013
   65SAPC   C38 5371   4.597   0.751   3.378  0.2921  0.5013  0.0071
   65SAPC   H8X 5372   4.569   0.841   3.436  0.7685  0.7234 -0.1005
   65SAPC   H8Y 5373   4.707   0.761   3.365  0.4462  0.3122  1.0521
   65SAPC   C39 5374   4.562   0.629   3.472  0.1957  0.6297  0.1829
   65SAPC   H9X 5375   4.600   0.535   3.428  0.8981  0.8065  0.4023
   65SAPC   H9Y 5376   4.452   0.612   3.466  0.5465 -2.0112  0.0839
   65SAPC  C310 5377   4.618   0.636   3.619  0.1182  0.8136 -0.1762
   65SAPC  H10X 5378   4.728   0.652   3.625  0.7609 -2.4003 -1.2854
   65SAPC  H10Y 5379   4.604   0.536   3.666 -1.7311  2.2844  2.6159
   65SAPC  C311 5380   4.544   0.725   3.720 -0.1082  0.1638  0.0397
   65SAPC  H11X 5381   4.439   0.697   3.699  0.4406 -1.9372 -0.0587
   65SAPC  H11Y 5382   4.550   0.834   3.699  0.5091  0.0342 -0.4920
   65SAPC  C312 5383   4.598   0.697   3.857 -0.5473 -0.1636  0.4884
   65SAPC  H12X 5384   4.688   0.759   3.880  0.7890 -1.0747 -1.9039
   65SAPC  H12Y 5385   4.629   0.591   3.856 -1.0667 -0.3227 -0.9948
   65SAPC  C313 5386   4.492   0.725   3.967  0.1756  0.1411 -0.2099
   65SAPC  H13X 5387   4.501   0.663   4.058 -0.5247 -0.8317 -0.7818
   65SAPC  H13Y 5388   4.400   0.677   3.926  2.3689 -3.4430 -1.3591
   65SAPC  C314 5389   4.458   0.874   3.993 -0.2857  0.4833  0.1934
   65SAPC  H14X 5390   4.372   0.886   4.063  0.7883 -2.6712  2.2780
   65SAPC  H14Y 5391   4.426   0.931   3.904 -1.1589  0.5947  0.5671
   65SAPC  C315 5392   4.579   0.961   4.038 -0.1324  0.3273  0.5492
   65SAPC  H15X 5393   4.650   0.967   3.953 -0.8757 -1.2975 -0.2303
   65SAPC  H15Y 5394   4.623   0.909   4.126 -0.7043 -0.6772  0.2604
   65SAPC  C316 5395   4.555   1.110   4.077  1.2217  0.0669  0.3839
   65SAPC  H16X 5396   4.504   1.118   4.176  1.5358  0.7940  0.4981
   65SAPC  H16Y 5397   4.474   1.144   4.009 -0.6523 -0.6850  2.1376
   65SAPC  C317 5398   4.668   1.209   4.063  0.0222 -0.3081  0.2727
   65SAPC  H17X 5399   4.744   1.166   3.995  0.4087  1.1457 -0.2561
   65SAPC  H17Y 5400   4.715   1.232   4.162 -1.4365  0.9711  0.7074
   65SAPC  C318 5401   4.622   1.342   3.997 -0.7713  0.1479 -0.3422
   65SAPC  H18X 5402   4.708   1.405   3.964 -1.2327  0.3923 -1.1043
   65SAPC  H18Y 5403   4.551   1.399   4.060 -0.9203  0.1063 -0.4721
   65SAPC  H18Z 5404   4.567   1.324   3.902 -0.9744  2.7255 -0.7824
   66SAPC     N 5405   4.689   4.168   2.344  0.5889  0.3450 -0.0795
   66SAPC   C12 5406   4.734   4.032   2.381  0.6763  0.4713 -0.4051
   66SAPC  H12A 5407   4.840   4.009   2.377  0.6278  0.4052 -1.6314
   66SAPC  H12B 5408   4.696   3.955   2.316 -0.2224  0.8268 -0.3160
   66SAPC   C13 5409   4.762   4.285   2.406  0.1438  0.5395 -0.1682
   66SAPC  H13A 5410   4.740   4.380   2.358 -1.0717 -0.4851 -1.7389
   66SAPC  H13B 5411   4.729   4.300   2.508 -3.4457  1.0331 -1.2362
   66SAPC  H13C 5412   4.867   4.267   2.395  0.2780 -1.3154  3.0541
   66SAPC   C14 5413   4.699   4.173   2.200 -0.1234  0.7057 -0.0632
   66SAPC  H14A 5414   4.649   4.256   2.151  0.4769  0.6966 -0.6987
   66SAPC  H14B 5415   4.801   4.184   2.167 -0.1436 -2.4305 -1.5313
   66SAPC  H14C 5416   4.655   4.085   2.155 -2.5457  0.2478  2.8596
   66SAPC   C15 5417   4.541   4.191   2.368 -0.5686 -0.2834 -0.0877
   66SAPC  H15A 5418   4.507   4.136   2.455  1.8119  0.0312  1.1385
   66SAPC  H15B 5419   4.510   4.294   2.378  0.1077 -0.0955  0.1636
   66SAPC  H15C 5420   4.494   4.142   2.284  0.1227  1.5149 -1.5757
   66SAPC   C11 5421   4.706   3.989   2.525 -0.7106  0.5164 -0.0745
   66SAPC  H11A 5422   4.726   4.067   2.602 -2.0175 -0.3573  1.2045
   66SAPC  H11B 5423   4.783   3.913   2.551 -0.5176  0.6155 -0.3498
   66SAPC     P 5424   4.515   3.812   2.472  0.1124  0.1043  0.1531
   66SAPC   O13 5425   4.418   3.864   2.377  0.1623 -0.3110 -0.4356
   66SAPC   O14 5426   4.628   3.724   2.425  0.3548  0.3040 -0.2227
   66SAPC   O12 5427   4.570   3.946   2.541 -0.0393 -0.1462 -0.4879
   66SAPC   O11 5428   4.450   3.746   2.596 -0.0005  0.6490 -0.0555
   66SAPC    C1 5429   4.516   3.732   2.725 -0.3811 -0.3228  0.4472
   66SAPC    HA 5430   4.566   3.823   2.764  0.8257  0.2471 -2.2405
   66SAPC    HB 5431   4.435   3.722   2.801 -0.4372  0.3071  0.4794
   66SAPC    C2 5432   4.622   3.619   2.723 -0.0363 -0.0433  0.1837
   66SAPC    HS 5433   4.696   3.641   2.642 -1.0766 -0.1533 -0.8227
   66SAPC   O21 5434   4.559   3.492   2.708 -0.0835 -0.6118  0.2560
   66SAPC   C21 5435   4.631   3.388   2.684  0.2608 -0.1693  0.3108
   66SAPC   O22 5436   4.751   3.386   2.650  0.8304 -0.2962 -0.2282
   66SAPC   C22 5437   4.557   3.262   2.701 -0.0802  0.2267 -0.5049
   66SAPC   H2R 5438   4.476   3.261   2.626 -1.5547 -0.8929  1.0238
   66SAPC   H2S 5439   4.620   3.176   2.670 -1.4846 -0.6023 -1.1034
   66SAPC    C3 5440   4.701   3.633   2.858  0.7086  0.6376 -0.2419
   66SAPC    HX 5441   4.777   3.552   2.857  2.3158  2.0878 -0.2888
   66SAPC    HY 5442   4.632   3.626   2.945 -1.5970 -0.1799 -2.0493
   66SAPC   O31 5443   4.760   3.761   2.872  0.2824  0.5468  0.4119
   66SAPC   C31 5444   4.881   3.774   2.820  0.1249 -0.2746 -0.2558
   66SAPC   O32 5445   4.931   3.703   2.736  0.0359 -0.1896  0.5257
   66SAPC   C32 5446   4.947   3.898   2.877 -0.5037  0.7420  0.0270
   66SAPC   H2X 5447   4.876   3.977   2.910 -0.6360  0.9003 -0.6166
   66SAPC   H2Y 5448   5.016   3.941   2.801 -0.3888  0.3980 -0.0649
   66SAPC   C23 5449   4.502   3.252   2.840  1.1048  0.0215  0.4805
   66SAPC   H3R 5450   4.481   3.143   2.850  1.1623 -0.5051 -3.4895
   66SAPC   H3S 5451   4.406   3.306   2.854  1.7491  1.4737 -0.4972
   66SAPC   C24 5452   4.598   3.296   2.950 -0.3513 -0.6773 -0.0347
   66SAPC   H4R 5453   4.631   3.402   2.944  2.4431 -1.3513  1.8051
   66SAPC   H4S 5454   4.690   3.238   2.932  1.5897  1.9700  0.7366
   66SAPC   C25 5455   4.536   3.286   3.088 -0.4105 -0.0345 -0.1757
   66SAPC   H5R 5456   4.474   3.195   3.101  1.1165 -0.8868  1.6343
   66SAPC   C26 5457   4.540   3.376   3.187  0.0935 -0.1959  0.7099
   66SAPC   H6R 5458   4.479   3.342   3.272 -0.5213  1.1535  0.8263
   66SAPC   C27 5459   4.617   3.505   3.206 -0.3380  0.0143  0.2132
   66SAPC   H7R 5460   4.678   3.522   3.115 -0.0580  1.2755  0.6220
   66SAPC   H7S 5461   4.698   3.465   3.271  0.8260  0.5848 -0.8452
   66SAPC   C28 5462   4.534   3.622   3.261  0.2728 -0.2687 -0.0868
   66SAPC   H8R 5463   4.470   3.667   3.184  1.0054  1.4151  0.2461
   66SAPC   C29 5464   4.522   3.667   3.390  1.0369  0.3321  0.1600
   66SAPC   H9R 5465   4.463   3.757   3.411 -1.1958 -0.7401 -1.0891
   66SAPC  C210 5466   4.609   3.614   3.502 -0.4721 -0.2151  0.0828
   66SAPC  H10R 5467   4.631   3.703   3.565  1.8986  0.1128 -1.1048
   66SAPC  H10S 5468   4.703   3.567   3.467  0.1046  1.4662 -0.7353
   66SAPC  C211 5469   4.527   3.509   3.571  0.3138  0.3053 -0.0169
   66SAPC  H11R 5470   4.502   3.418   3.514  0.5349  0.2695 -0.0574
   66SAPC  C212 5471   4.483   3.509   3.697  0.1481 -0.1681 -0.7017
   66SAPC  H12R 5472   4.415   3.431   3.733 -0.5648  1.2073  1.1162
   66SAPC  C213 5473   4.487   3.618   3.799  0.1286 -0.5466 -0.2927
   66SAPC  H13R 5474   4.388   3.669   3.806  0.5349  0.3747 -0.9611
   66SAPC  H13S 5475   4.557   3.702   3.781 -1.5403  1.2013  0.9973
   66SAPC  C214 5476   4.527   3.566   3.936 -0.0161  0.0349  0.3810
   66SAPC  H14R 5477   4.591   3.477   3.941  1.0218  0.7839  0.8960
   66SAPC  C215 5478   4.515   3.635   4.052  0.1633  0.4045 -0.0722
   66SAPC  H15R 5479   4.552   3.596   4.148 -1.6158  0.8961  0.8463
   66SAPC  C216 5480   4.443   3.765   4.063 -0.0165 -0.1042  0.0280
   66SAPC  H16R 5481   4.346   3.747   4.114 -0.8770  2.0070 -0.7481
   66SAPC  H16S 5482   4.428   3.812   3.963  1.1856  0.9099  0.3019
   66SAPC  C217 5483   4.522   3.868   4.146  0.0580 -0.1110  0.7925
   66SAPC  H17R 5484   4.615   3.905   4.098  0.9503 -0.6299  2.0522
   66SAPC  H17S 5485   4.542   3.832   4.249 -0.3104  0.1514  0.9583
   66SAPC  C218 5486   4.435   3.989   4.170  0.6198 -0.1759 -1.5757
   66SAPC  H18R 5487   4.386   4.018   4.074  1.4605  0.2400 -1.8908
   66SAPC  H18S 5488   4.501   4.077   4.183  1.3876 -0.8723 -0.6942
   66SAPC  C219 5489   4.329   3.990   4.282 -0.2379  0.3390  0.4129
   66SAPC  H19R 5490   4.278   3.892   4.295  0.0779  0.3841  2.2652
   66SAPC  H19S 5491   4.248   4.059   4.251 -1.5806 -0.4491  2.0466
   66SAPC  C220 5492   4.377   4.037   4.415 -0.1596 -0.3818  0.1613
   66SAPC  H20R 5493   4.296   4.050   4.489  0.0526  1.9771  0.0581
   66SAPC  H20S 5494   4.403   4.145   4.406  1.1491 -0.6107  0.9420
   66SAPC  H20T 5495   4.459   3.970   4.447 -0.4255 -0.6316  0.3169
   66SAPC   C33 5496   5.031   3.856   3.003 -0.9584  0.2984  0.1545
   66SAPC   H3X 5497   5.096   3.942   3.031 -1.0047  0.3456  0.1170
   66SAPC   H3Y 5498   5.101   3.781   2.962 -1.4152 -0.8640  1.4381
   66SAPC   C34 5499   4.951   3.803   3.123  0.3571  0.5448  0.5878
   66SAPC   H4X 5500   4.985   3.699   3.143 -1.8026 -0.2558  0.3563
   66SAPC   H4Y 5501   4.841   3.800   3.112  0.3730  1.0776  0.2553
   66SAPC   C35 5502   4.967   3.894   3.248  0.0349  0.3654  0.3456
   66SAPC   H5X 5503   4.933   3.994   3.213 -1.6235  0.2269  1.4293
   66SAPC   H5Y 5504   5.076   3.899   3.268  0.2105  0.1544 -0.5189
   66SAPC   C36 5505   4.890   3.859   3.374  0.1286 -0.9255 -0.1809
   66SAPC   H6X 5506   4.910   3.753   3.402  0.0280 -0.4862  1.6931
   66SAPC   H6Y 5507   4.780   3.864   3.358  0.1556  0.6060 -0.0188
   66SAPC   C37 5508   4.934   3.945   3.487 -0.5835 -0.2240 -0.1685
   66SAPC   H7X 5509   4.919   4.051   3.456 -0.1835 -0.0686  0.1553
   66SAPC   H7Y 5510   5.041   3.916   3.501  0.4839  2.7984 -1.2391
   66SAPC   C38 5511   4.863   3.905   3.616  0.2568 -0.4855  0.1871
   66SAPC   H8X 5512   4.880   3.800   3.648 -1.3274 -1.6960 -2.5735
   66SAPC   H8Y 5513   4.753   3.915   3.604  0.2179  1.2291  1.6170
   66SAPC   C39 5514   4.926   3.997   3.722 -1.0268 -0.1059 -0.0581
   66SAPC   H9X 5515   4.918   4.100   3.682 -0.1923  0.4379  1.1062
   66SAPC   H9Y 5516   5.033   3.978   3.746 -0.0082  1.0451 -3.2448
   66SAPC  C310 5517   4.850   3.990   3.860  0.0953 -0.3937 -0.2121
   66SAPC  H10X 5518   4.864   3.893   3.912  1.0135  0.1847  0.6608
   66SAPC  H10Y 5519   4.741   4.001   3.841  0.2965  0.1686 -1.0886
   66SAPC  C311 5520   4.889   4.112   3.947 -0.4170 -0.4238  0.3111
   66SAPC  H11X 5521   4.896   4.204   3.886 -1.9047  0.8451  1.9730
   66SAPC  H11Y 5522   4.991   4.082   3.980  0.4962  0.5289 -1.4794
   66SAPC  C312 5523   4.807   4.144   4.071 -0.4527 -0.1568  0.2990
   66SAPC  H12X 5524   4.810   4.052   4.132  1.0155  0.1196  0.6897
   66SAPC  H12Y 5525   4.705   4.175   4.041 -1.1052 -0.0923  2.4451
   66SAPC  C313 5526   4.870   4.255   4.151  0.2644 -0.1465  0.1482
   66SAPC  H13X 5527   4.901   4.332   4.077  2.5894  1.0687  2.2536
   66SAPC  H13Y 5528   4.963   4.230   4.206  1.3016  2.4566 -0.2725
   66SAPC  C314 5529   4.767   4.330   4.240  0.0584  0.4906  0.5522
   66SAPC  H14X 5530   4.698   4.255   4.284 -0.5926  0.9998  0.4279
   66SAPC  H14Y 5531   4.699   4.394   4.179 -0.0198  0.3353  0.4763
   66SAPC  C315 5532   4.836   4.406   4.350 -0.0717  0.6918 -0.4195
   66SAPC  H15X 5533   4.909   4.349   4.412 -0.1300 -0.8157 -1.6853
   66SAPC  H15Y 5534   4.752   4.454   4.405 -0.0025 -0.1926  0.4928
   66SAPC  C316 5535   4.930   4.514   4.293 -0.4794  0.0901  0.2326
   66SAPC  H16X 5536   4.866   4.577   4.227 -0.1668  1.0691  0.8375
   66SAPC  H16Y 5537   5.008   4.469   4.229 -0.2303 -1.7101  1.7184
   66SAPC  C317 5538   4.983   4.616   4.401 -0.1964 -0.2023  0.3431
   66SAPC  H17X 5539   4.906   4.668   4.463 -0.5819  0.3634 -0.6005
   66SAPC  H17Y 5540   5.039   4.693   4.345 -0.7628 -0.9418 -1.3214
   66SAPC  C318 5541   5.078   4.549   4.503 -0.0994  0.0601  0.7887
   66SAPC  H18X 5542   5.123   4.624   4.571  2.5464 -1.5642  1.0192
   66SAPC  H18Y 5543   5.158   4.500   4.443 -0.8991 -1.3421  0.8226
   66SAPC  H18Z 5544   5.034   4.471   4.569  1.2048  1.4357  3.4520
   67SAPC     N 5545   2.576   4.772   1.754  0.6477  0.1050 -0.5059
   67SAPC   C12 5546   2.523   4.786   1.894  0.5134  0.0366 -0.3211
   67SAPC  H12A 5547   2.505   4.891   1.912  1.1572  0.1458 -0.3067
   67SAPC  H12B 5548   2.607   4.768   1.960  1.0099 -1.0228 -1.2068
   67SAPC   C13 5549   2.476   4.838   1.658 -0.3579  0.3255 -0.6148
   67SAPC  H13A 5550   2.381   4.802   1.695  0.6229  0.0139  1.8522
   67SAPC  H13B 5551   2.482   4.945   1.672 -2.4831  0.2897  1.1658
   67SAPC  H13C 5552   2.491   4.804   1.557  1.7170  0.5363 -0.4088
   67SAPC   C14 5553   2.705   4.846   1.741 -0.4887  0.4068  0.1840
   67SAPC  H14A 5554   2.736   4.837   1.638 -0.2870 -1.5428  0.3800
   67SAPC  H14B 5555   2.681   4.950   1.760  1.2387  1.1585 -1.3653
   67SAPC  H14C 5556   2.791   4.822   1.801 -0.2641  0.9275  0.0792
   67SAPC   C15 5557   2.595   4.634   1.705  0.2898 -0.3737  0.0388
   67SAPC  H15A 5558   2.499   4.584   1.701 -0.0498  0.2205  0.5210
   67SAPC  H15B 5559   2.641   4.628   1.608  2.6946 -0.6463  1.1427
   67SAPC  H15C 5560   2.660   4.579   1.771  1.1347  0.4909 -0.0412
   67SAPC   C11 5561   2.413   4.698   1.939 -0.1271  0.1700 -0.0841
   67SAPC  H11A 5562   2.393   4.710   2.048 -2.6479  1.6968 -0.6517
   67SAPC  H11B 5563   2.416   4.587   1.929  0.8477  0.2619 -0.9555
   67SAPC     P 5564   2.211   4.867   1.908  0.1860  0.4393  0.1650
   67SAPC   O13 5565   2.299   4.985   1.908  0.2954 -0.3319  0.4461
   67SAPC   O14 5566   2.093   4.872   1.821 -0.2029 -0.3081  0.3676
   67SAPC   O12 5567   2.293   4.734   1.872 -0.0750  0.1573 -0.7252
   67SAPC   O11 5568   2.176   4.831   2.055 -0.0995 -0.9784 -0.1256
   67SAPC    C1 5569   2.080   4.731   2.089  0.5735  0.5056 -0.1322
   67SAPC    HA 5570   1.978   4.756   2.054  1.3055  1.0794 -1.9998
   67SAPC    HB 5571   2.108   4.630   2.052 -1.4345 -0.7844  1.6347
   67SAPC    C2 5572   2.071   4.718   2.239  0.0674 -0.1408 -0.1980
   67SAPC    HS 5573   1.990   4.645   2.259 -1.1856  1.1442 -0.4726
   67SAPC   O21 5574   2.042   4.843   2.305 -0.0896  0.5426  0.1597
   67SAPC   C21 5575   1.912   4.881   2.294  1.2915  0.4876  0.1427
   67SAPC   O22 5576   1.825   4.814   2.246 -0.4426  0.6129 -0.0215
   67SAPC   C22 5577   1.889   5.023   2.364 -0.2791 -0.1103  0.0717
   67SAPC   H2R 5578   1.990   5.055   2.400 -0.4413  1.1029 -0.5258
   67SAPC   H2S 5579   1.852   5.092   2.286  3.1470  3.3609  1.1904
   67SAPC    C3 5580   2.207   4.669   2.293  0.4051  0.2585 -0.3601
   67SAPC    HX 5581   2.280   4.753   2.287  0.9332  0.1956  3.1968
   67SAPC    HY 5582   2.242   4.588   2.224 -0.0285  0.8691 -1.3194
   67SAPC   O31 5583   2.190   4.640   2.431 -0.1478  0.3461  0.4985
   67SAPC   C31 5584   2.228   4.528   2.478  0.0991  0.6429 -0.7055
   67SAPC   O32 5585   2.291   4.439   2.418 -0.3527 -0.3300  0.4870
   67SAPC   C32 5586   2.187   4.514   2.623 -0.2281  0.2363 -0.4630
   67SAPC   H2X 5587   2.187   4.405   2.643  1.5129 -0.5043 -3.7519
   67SAPC   H2Y 5588   2.090   4.562   2.648  0.1128 -0.1827  1.8897
   67SAPC   C23 5589   1.777   5.023   2.474 -0.0044  0.4168 -0.3645
   67SAPC   H3R 5590   1.686   4.975   2.433  1.7996 -3.1146 -0.5770
   67SAPC   H3S 5591   1.746   5.126   2.502 -2.3283 -0.4833  0.5959
   67SAPC   C24 5592   1.828   4.952   2.605  0.4193 -1.0757  0.3138
   67SAPC   H4R 5593   1.828   5.038   2.676 -2.4481  1.3970 -2.3658
   67SAPC   H4S 5594   1.935   4.925   2.589  0.9823  1.0160  0.2866
   67SAPC   C25 5595   1.761   4.835   2.655  0.2823  0.7897 -0.0745
   67SAPC   H5R 5596   1.701   4.776   2.584  0.6821  1.1444 -0.7228
   67SAPC   C26 5597   1.772   4.788   2.776 -0.8345  0.5811 -0.4287
   67SAPC   H6R 5598   1.716   4.698   2.806  0.7322  0.3533  2.1309
   67SAPC   C27 5599   1.842   4.841   2.900 -0.7119  0.0386  0.1192
   67SAPC   H7R 5600   1.771   4.851   2.985  1.2020  0.2243  1.7654
   67SAPC   H7S 5601   1.877   4.946   2.885  0.7318 -0.3948  0.2917
   67SAPC   C28 5602   1.961   4.767   2.943 -0.1968  0.2556 -0.7571
   67SAPC   H8R 5603   2.034   4.749   2.862  0.2556  0.1727 -0.3335
   67SAPC   C29 5604   1.980   4.707   3.061 -0.2292 -0.0900  0.9307
   67SAPC   H9R 5605   2.070   4.646   3.078 -0.5915 -1.4782 -1.6404
   67SAPC  C210 5606   1.903   4.706   3.182  0.5528 -0.5587  0.2600
   67SAPC  H10R 5607   1.923   4.615   3.243 -2.4503 -1.5955 -0.1223
   67SAPC  H10S 5608   1.794   4.710   3.162  0.5429  3.9209  0.2705
   67SAPC  C211 5609   1.935   4.832   3.258 -0.2116  0.5590  0.9951
   67SAPC  H11R 5610   1.964   4.917   3.194  2.3955  0.2250  1.6327
   67SAPC  C212 5611   1.917   4.848   3.392  0.9649  0.2324  0.4182
   67SAPC  H12R 5612   1.940   4.945   3.439 -3.1902  1.3519  0.5478
   67SAPC  C213 5613   1.875   4.741   3.493  0.2287  0.0143 -0.3446
   67SAPC  H13R 5614   1.942   4.737   3.581  1.2389  0.7076 -1.0525
   67SAPC  H13S 5615   1.895   4.640   3.450 -0.5661 -1.0702  1.7077
   67SAPC  C214 5616   1.731   4.756   3.532  0.3293  0.0337  0.2056
   67SAPC  H14R 5617   1.665   4.796   3.453  0.2663  1.3248  0.8815
   67SAPC  C215 5618   1.676   4.729   3.650  0.8945  0.2528 -0.4572
   67SAPC  H15R 5619   1.570   4.755   3.666  0.1826 -0.8223 -2.8912
   67SAPC  C216 5620   1.743   4.649   3.760  0.0641  0.7012  0.5558
   67SAPC  H16R 5621   1.852   4.633   3.748  0.2730  3.1873 -2.0593
   67SAPC  H16S 5622   1.688   4.554   3.774 -1.5440  1.1745 -1.8746
   67SAPC  C217 5623   1.720   4.722   3.899  0.2362  0.1704  0.4961
   67SAPC  H17R 5624   1.618   4.765   3.911 -1.6116 -3.0760 -1.9266
   67SAPC  H17S 5625   1.785   4.811   3.911  1.6171 -0.9445  1.6993
   67SAPC  C218 5626   1.755   4.633   4.024  0.0414 -0.5923 -0.0859
   67SAPC  H18R 5627   1.848   4.577   4.003  0.2521 -0.2075 -0.1970
   67SAPC  H18S 5628   1.681   4.552   4.037  0.8238 -1.0094  2.1797
   67SAPC  C219 5629   1.763   4.698   4.171 -0.1884 -0.0003  0.3819
   67SAPC  H19R 5630   1.672   4.666   4.227 -0.6595 -1.3471 -1.0646
   67SAPC  H19S 5631   1.746   4.807   4.157 -0.5720  0.0678  1.3151
   67SAPC  C220 5632   1.888   4.667   4.260 -0.1006 -0.2246  0.0497
   67SAPC  H20R 5633   1.919   4.560   4.257  0.4635 -0.0665 -2.8539
   67SAPC  H20S 5634   1.885   4.704   4.365 -1.2144 -1.1028  0.3508
   67SAPC  H20T 5635   1.974   4.715   4.209 -0.5619 -2.1451 -2.7936
   67SAPC   C33 5636   2.296   4.590   2.704 -0.3828 -0.1148  0.1418
   67SAPC   H3X 5637   2.278   4.698   2.689  0.0191 -0.0367  0.2023
   67SAPC   H3Y 5638   2.396   4.573   2.657 -0.9339 -0.9073 -0.7981
   67SAPC   C34 5639   2.303   4.565   2.857 -0.1046 -0.4433 -0.3804
   67SAPC   H4X 5640   2.316   4.456   2.875  0.3684  0.0798  3.3184
   67SAPC   H4Y 5641   2.208   4.597   2.906 -0.1209  1.0081 -1.2956
   67SAPC   C35 5642   2.414   4.653   2.916  0.3663 -0.3873 -0.6383
   67SAPC   H5X 5643   2.404   4.760   2.891  0.5338 -0.4449 -0.9606
   67SAPC   H5Y 5644   2.510   4.625   2.867  0.5480 -0.9457  0.0238
   67SAPC   C36 5645   2.423   4.623   3.064 -0.3989  0.0451  0.3853
   67SAPC   H6X 5646   2.446   4.517   3.086 -3.3031 -1.0450 -1.2852
   67SAPC   H6Y 5647   2.323   4.624   3.114 -1.0042  1.1814 -0.7927
   67SAPC   C37 5648   2.523   4.708   3.136 -0.2324 -0.4632 -0.7513
   67SAPC   H7X 5649   2.482   4.810   3.146 -1.6012 -1.0540 -0.0142
   67SAPC   H7Y 5650   2.612   4.718   3.071  0.5095  0.9526  0.4437
   67SAPC   C38 5651   2.561   4.655   3.275 -0.3158 -0.3336  0.2149
   67SAPC   H8X 5652   2.613   4.558   3.262 -3.4815 -2.2172  0.4045
   67SAPC   H8Y 5653   2.475   4.614   3.333 -0.1561 -0.8642  0.0791
   67SAPC   C39 5654   2.644   4.761   3.354  0.3177  0.2156 -0.0747
   67SAPC   H9X 5655   2.586   4.852   3.379 -1.4807 -0.0038 -2.9422
   67SAPC   H9Y 5656   2.720   4.783   3.275 -0.3954  0.1862 -0.7878
   67SAPC  C310 5657   2.697   4.695   3.483  0.3608  0.1480 -0.0459
   67SAPC  H10X 5658   2.776   4.759   3.530  1.1831 -1.7268  1.2332
   67SAPC  H10Y 5659   2.745   4.600   3.452 -0.4276  0.2364 -1.6039
   67SAPC  C311 5660   2.587   4.662   3.586 -0.2909  0.5770 -0.0759
   67SAPC  H11X 5661   2.504   4.603   3.543  0.1228  0.8215 -1.2722
   67SAPC  H11Y 5662   2.547   4.760   3.620  1.0431  1.4026 -0.7704
   67SAPC  C312 5663   2.652   4.595   3.711  0.0239 -0.0794  0.6471
   67SAPC  H12X 5664   2.712   4.681   3.747 -3.6686  3.6620 -1.2727
   67SAPC  H12Y 5665   2.713   4.508   3.679  0.2103 -0.1222  1.1204
   67SAPC  C313 5666   2.550   4.544   3.810  0.1252 -0.9910  0.8345
   67SAPC  H13X 5667   2.470   4.621   3.804  1.1868  0.1966  1.4617
   67SAPC  H13Y 5668   2.598   4.535   3.909  2.6278  1.4353 -0.0432
   67SAPC  C314 5669   2.503   4.402   3.775 -0.7176 -0.5368  0.1950
   67SAPC  H14X 5670   2.589   4.347   3.732  1.0635  0.7914  1.9014
   67SAPC  H14Y 5671   2.424   4.405   3.696 -1.1694  1.1741  0.6509
   67SAPC  C315 5672   2.442   4.323   3.888  0.1079  0.3758  0.4500
   67SAPC  H15X 5673   2.335   4.351   3.904  0.3794  1.5679  0.2959
   67SAPC  H15Y 5674   2.478   4.371   3.981  0.0307  3.0010 -0.7690
   67SAPC  C316 5675   2.485   4.175   3.911  0.1577 -0.5339  0.5142
   67SAPC  H16X 5676   2.446   4.116   3.825 -0.1772  0.4064  0.0124
   67SAPC  H16Y 5677   2.431   4.137   4.001 -1.2840 -1.8609 -0.8215
   67SAPC  C317 5678   2.634   4.168   3.944 -0.2136  0.0586  0.3162
   67SAPC  H17X 5679   2.654   4.261   4.002 -1.6867  1.1485 -0.8279
   67SAPC  H17Y 5680   2.698   4.168   3.854  0.5756  0.4339  0.8689
   67SAPC  C318 5681   2.675   4.033   4.028  1.0163 -0.2092  0.8716
   67SAPC  H18X 5682   2.609   4.016   4.116  0.3821 -3.7002 -0.1476
   67SAPC  H18Y 5683   2.775   4.064   4.066  1.2645  3.0397 -1.9216
   67SAPC  H18Z 5684   2.679   3.945   3.961 -0.1576 -0.2798  0.8700
   68SAPC     N 5685   5.799   2.994   1.968  0.1447 -0.5966 -0.3016
   68SAPC   C12 5686   5.740   2.996   2.111 -0.0973  0.4121 -0.2706
   68SAPC  H12A 5687   5.811   3.015   2.189 -1.0076 -0.4345  0.7973
   68SAPC  H12B 5688   5.717   2.892   2.129  0.8536  0.1120 -0.7346
   68SAPC   C13 5689   5.708   2.922   1.874 -0.4408  0.3652 -0.3307
   68SAPC  H13A 5690   5.703   2.824   1.918  0.7753  0.6465  0.4784
   68SAPC  H13B 5691   5.609   2.964   1.884 -0.3380  0.4039  0.6650
   68SAPC  H13C 5692   5.734   2.920   1.770  1.5818 -0.3883  0.1497
   68SAPC   C14 5693   5.817   3.135   1.915 -0.4295 -0.4392  0.5195
   68SAPC  H14A 5694   5.864   3.203   1.984  2.0135 -2.6227  1.1607
   68SAPC  H14B 5695   5.879   3.134   1.826  1.2815  0.2705  1.6551
   68SAPC  H14C 5696   5.716   3.165   1.891 -0.3360 -0.7072 -0.2321
   68SAPC   C15 5697   5.931   2.922   1.957  0.0485 -0.4984 -0.4517
   68SAPC  H15A 5698   5.989   2.956   2.042 -0.8775  2.1953 -0.7872
   68SAPC  H15B 5699   5.903   2.818   1.965 -1.5929 -0.1330 -1.1344
   68SAPC  H15C 5700   5.988   2.937   1.867  1.7053 -1.2546  0.4225
   68SAPC   C11 5701   5.620   3.089   2.144  0.4488 -0.5681 -0.4686
   68SAPC  H11A 5702   5.665   3.190   2.144 -0.2366 -0.2546 -0.4838
   68SAPC  H11B 5703   5.590   3.070   2.249  1.5834  0.4628  0.0536
   68SAPC     P 5704   5.401   2.964   2.079  0.3862  0.7327  0.1981
   68SAPC   O13 5705   5.262   3.004   2.046 -0.1000  0.9186  0.4883
   68SAPC   O14 5706   5.453   2.847   2.004 -0.3466  0.3679  0.9296
   68SAPC   O12 5707   5.504   3.083   2.058  0.0519 -0.0983 -0.3568
   68SAPC   O11 5708   5.416   2.927   2.237  0.6536 -0.0089 -0.0339
   68SAPC    C1 5709   5.480   2.797   2.266  0.2391 -0.0979 -0.1452
   68SAPC    HA 5710   5.433   2.711   2.213  1.9096 -0.7695 -0.5763
   68SAPC    HB 5711   5.589   2.802   2.247  0.3533  3.0787  0.6725
   68SAPC    C2 5712   5.477   2.773   2.420  0.5146  0.7815  0.3181
   68SAPC    HS 5713   5.486   2.663   2.432 -1.0762  0.4148 -1.4498
   68SAPC   O21 5714   5.351   2.817   2.478 -0.1328 -0.5871  0.2142
   68SAPC   C21 5715   5.248   2.744   2.436 -0.2053  0.6827 -0.6345
   68SAPC   O22 5716   5.253   2.650   2.360  0.4135 -0.0942 -0.2371
   68SAPC   C22 5717   5.123   2.809   2.488 -0.0437 -0.4885 -0.4149
   68SAPC   H2R 5718   5.114   2.895   2.419 -0.0662 -1.6076 -1.8496
   68SAPC   H2S 5719   5.042   2.737   2.464  1.4589 -1.2909 -3.6588
   68SAPC    C3 5720   5.590   2.842   2.504  0.0321 -0.3481 -0.1412
   68SAPC    HX 5721   5.567   2.832   2.612 -1.9421  0.2631 -0.4572
   68SAPC    HY 5722   5.589   2.952   2.487 -0.5994 -0.2190  0.6814
   68SAPC   O31 5723   5.716   2.770   2.480  0.4644  0.5523  0.6098
   68SAPC   C31 5724   5.827   2.841   2.471  1.1784  0.0523 -0.1145
   68SAPC   O32 5725   5.829   2.959   2.444  0.2096  0.0418  0.2275
   68SAPC   C32 5726   5.942   2.755   2.520 -0.1068 -0.0051  0.0353
   68SAPC   H2X 5727   6.032   2.787   2.463 -0.2576  0.9228  0.2962
   68SAPC   H2Y 5728   5.921   2.648   2.497  0.5692 -0.5295  1.7301
   68SAPC   C23 5729   5.139   2.854   2.635 -0.0838 -0.1690  0.1539
   68SAPC   H3R 5730   5.221   2.929   2.645  2.3513 -1.9127 -3.9478
   68SAPC   H3S 5731   5.146   2.761   2.695 -1.9457 -1.6472 -1.7594
   68SAPC   C24 5732   5.011   2.926   2.694 -0.4385  0.4286  0.0788
   68SAPC   H4R 5733   5.029   2.920   2.803  2.4879 -0.8230 -0.3853
   68SAPC   H4S 5734   4.916   2.874   2.670  0.4356 -0.9083 -0.6251
   68SAPC   C25 5735   4.991   3.071   2.655  0.7838  0.0229 -0.0859
   68SAPC   H5R 5736   5.001   3.084   2.547  0.9286 -0.9132 -0.1936
   68SAPC   C26 5737   4.980   3.188   2.730  0.8461 -0.1185 -0.0193
   68SAPC   H6R 5738   4.973   3.284   2.677  1.2722 -0.2670 -0.3489
   68SAPC   C27 5739   4.967   3.195   2.879 -0.1116  0.3123 -0.7012
   68SAPC   H7R 5740   4.876   3.140   2.912  3.2931 -3.8620  2.9570
   68SAPC   H7S 5741   4.957   3.301   2.912  4.0997  0.6821 -0.1237
   68SAPC   C28 5742   5.083   3.133   2.960  0.8867  0.2084  0.8834
   68SAPC   H8R 5743   5.180   3.119   2.911 -0.5546 -1.1443 -1.8277
   68SAPC   C29 5744   5.082   3.109   3.090 -0.2492 -0.7589  0.2209
   68SAPC   H9R 5745   5.167   3.062   3.141  0.3938 -1.3912 -1.3728
   68SAPC  C210 5746   4.968   3.152   3.180  0.3331  0.2271 -0.2588
   68SAPC  H10R 5747   4.877   3.191   3.130 -0.0310 -2.5364 -1.9383
   68SAPC  H10S 5748   4.991   3.241   3.242 -1.0320  0.7734 -0.4944
   68SAPC  C211 5749   4.915   3.041   3.269  0.6262 -0.0276  0.1776
   68SAPC  H11R 5750   4.872   2.957   3.213  0.7018  2.4453 -3.9919
   68SAPC  C212 5751   4.929   3.033   3.403  0.3712  0.2024 -0.0767
   68SAPC  H12R 5752   4.867   2.960   3.458  2.4717  0.1682  2.4871
   68SAPC  C213 5753   4.992   3.132   3.498 -0.2548  0.1567  0.0266
   68SAPC  H13R 5754   5.084   3.170   3.448 -1.1697 -0.6526 -2.3991
   68SAPC  H13S 5755   5.009   3.083   3.597 -3.3812 -1.4015 -0.0766
   68SAPC  C214 5756   4.896   3.249   3.514 -0.3285  0.4966  0.1809
   68SAPC  H14R 5757   4.845   3.281   3.421 -0.5688  1.2428  0.5664
   68SAPC  C215 5758   4.869   3.327   3.621  0.4247  0.4795  0.8981
   68SAPC  H15R 5759   4.791   3.403   3.601 -0.1503  0.4294  2.7347
   68SAPC  C216 5760   4.936   3.320   3.755 -0.4077  0.3018 -0.0537
   68SAPC  H16R 5761   5.038   3.276   3.747 -1.0295 -0.9295 -1.7922
   68SAPC  H16S 5762   4.884   3.254   3.827 -0.6893  0.1291 -0.4129
   68SAPC  C217 5763   4.961   3.466   3.807  0.4728 -0.4361  0.8868
   68SAPC  H17R 5764   4.867   3.526   3.803  0.9811  0.2913 -1.1147
   68SAPC  H17S 5765   5.027   3.531   3.745 -1.1307  0.4546  0.0363
   68SAPC  C218 5766   5.050   3.470   3.937  0.9905 -0.4423  0.8627
   68SAPC  H18R 5767   5.139   3.409   3.909  0.3064 -0.8138 -0.6384
   68SAPC  H18S 5768   5.009   3.406   4.018  0.5797 -0.8923  0.3109
   68SAPC  C219 5769   5.072   3.614   3.986  0.0854  0.8782  0.1647
   68SAPC  H19R 5770   4.972   3.657   4.005 -1.1036 -1.3122 -0.8060
   68SAPC  H19S 5771   5.109   3.670   3.898  0.9056 -0.0246 -0.0797
   68SAPC  C220 5772   5.166   3.619   4.098 -0.8270  0.4751  0.2620
   68SAPC  H20R 5773   5.139   3.539   4.170  0.7374 -0.0897  0.2631
   68SAPC  H20S 5774   5.182   3.718   4.145  0.8190 -0.8828  2.7987
   68SAPC  H20T 5775   5.264   3.585   4.058 -0.7083 -1.2537  1.8674
   68SAPC   C33 5776   5.959   2.767   2.668 -0.5839 -0.3084  0.1304
   68SAPC   H3X 5777   5.986   2.868   2.706 -1.7076 -0.8422  2.5887
   68SAPC   H3Y 5778   6.052   2.712   2.693  0.0206  0.6952  0.1523
   68SAPC   C34 5779   5.849   2.702   2.749 -0.3403  0.5592  0.0005
   68SAPC   H4X 5780   5.820   2.611   2.692  1.1293 -0.9717  1.5730
   68SAPC   H4Y 5781   5.763   2.771   2.765 -1.0669  0.2491 -2.2903
   68SAPC   C35 5782   5.887   2.653   2.888  0.3620  0.1805 -0.4633
   68SAPC   H5X 5783   5.967   2.576   2.885  0.2825  0.0836 -0.0941
   68SAPC   H5Y 5784   5.812   2.602   2.952  3.3236  0.3719  3.4898
   68SAPC   C36 5785   5.948   2.754   2.984  0.3463 -0.4178 -0.6530
   68SAPC   H6X 5786   5.870   2.829   3.009  0.4000 -0.7854  0.6832
   68SAPC   H6Y 5787   6.038   2.788   2.929 -0.7467  0.0341 -2.2101
   68SAPC   C37 5788   5.993   2.701   3.122  0.1598  0.2488  0.0480
   68SAPC   H7X 5789   6.066   2.618   3.120 -1.0388 -0.8153 -1.3572
   68SAPC   H7Y 5790   5.917   2.643   3.177 -0.0214  0.1063 -0.3523
   68SAPC   C38 5791   6.040   2.806   3.221 -0.1342 -0.2251  0.6326
   68SAPC   H8X 5792   6.125   2.856   3.171 -0.6185 -1.3300 -1.4238
   68SAPC   H8Y 5793   6.074   2.765   3.318  0.3296 -2.2544 -0.3469
   68SAPC   C39 5794   5.938   2.919   3.251  0.1202 -0.6407  0.1912
   68SAPC   H9X 5795   5.911   2.980   3.162  2.6593  0.4052  0.0377
   68SAPC   H9Y 5796   5.996   2.992   3.312 -1.1888 -0.3845  1.1770
   68SAPC  C310 5797   5.814   2.879   3.328 -0.0397  0.1917 -0.3579
   68SAPC  H10X 5798   5.761   2.791   3.286 -1.3150  0.1092  1.3173
   68SAPC  H10Y 5799   5.746   2.965   3.347 -0.2432 -0.2179  0.8926
   68SAPC  C311 5800   5.852   2.825   3.466  0.1761  0.4876 -0.8881
   68SAPC  H11X 5801   5.932   2.896   3.497 -0.3837  0.6843  0.1481
   68SAPC  H11Y 5802   5.891   2.722   3.452 -0.6373  0.1878 -0.9634
   68SAPC  C312 5803   5.744   2.841   3.575  0.1924  0.8613  0.4264
   68SAPC  H12X 5804   5.641   2.813   3.544  0.3017 -1.4349  1.8466
   68SAPC  H12Y 5805   5.738   2.945   3.613  1.5590  0.9858  0.3590
   68SAPC  C313 5806   5.754   2.755   3.697 -0.3408 -0.6012 -0.0473
   68SAPC  H13X 5807   5.733   2.648   3.679  2.0601 -1.0974 -0.2856
   68SAPC  H13Y 5808   5.679   2.794   3.769  1.7291  2.1390  0.8313
   68SAPC  C314 5809   5.888   2.770   3.774  0.3637  0.0163 -0.1536
   68SAPC  H14X 5810   5.925   2.874   3.789 -1.2135  0.6435 -0.4718
   68SAPC  H14Y 5811   5.979   2.727   3.726 -0.5940 -0.6975 -1.3803
   68SAPC  C315 5812   5.879   2.691   3.906 -0.4826  0.5710 -0.2398
   68SAPC  H15X 5813   5.802   2.726   3.978 -0.4264  2.0360 -0.8551
   68SAPC  H15Y 5814   5.979   2.711   3.952  0.9450 -0.2525 -2.7660
   68SAPC  C316 5815   5.873   2.536   3.897 -0.2472 -0.1815  0.7628
   68SAPC  H16X 5816   5.946   2.504   3.820  0.8252  3.4339  0.0437
   68SAPC  H16Y 5817   5.775   2.499   3.859 -0.2253  0.8726 -0.3719
   68SAPC  C317 5818   5.929   2.467   4.021 -0.5100  0.6186 -0.0330
   68SAPC  H17X 5819   5.844   2.467   4.092 -0.9405  0.8551 -0.5407
   68SAPC  H17Y 5820   6.008   2.532   4.065 -0.6631  0.7221  0.0913
   68SAPC  C318 5821   5.985   2.328   3.991  0.4270 -0.0116  0.0434
   68SAPC  H18X 5822   6.035   2.297   4.085  1.4220 -0.3965 -0.5952
   68SAPC  H18Y 5823   6.073   2.331   3.923  2.5467 -1.2223  2.5565
   68SAPC  H18Z 5824   5.902   2.259   3.966 -0.4856 -0.4394  3.6639
   69SAPC     N 5825   1.090   4.714   1.674 -0.1950 -0.3929 -0.1544
   69SAPC   C12 5826   0.993   4.808   1.742 -0.3152 -0.2530  0.2956
   69SAPC  H12A 5827   0.976   4.892   1.676  1.2394 -1.0313 -1.1795
   69SAPC  H12B 5828   1.040   4.849   1.831 -1.3727  1.5884  0.0509
   69SAPC   C13 5829   1.200   4.797   1.617 -0.4551 -1.2150 -0.0357
   69SAPC  H13A 5830   1.166   4.858   1.535  1.1508  0.4809  0.4760
   69SAPC  H13B 5831   1.228   4.883   1.676  3.2074 -0.8661 -1.9664
   69SAPC  H13C 5832   1.291   4.740   1.603 -0.2137 -1.3017  1.6000
   69SAPC   C14 5833   1.160   4.635   1.782 -0.0694 -0.2177 -0.1177
   69SAPC  H14A 5834   1.088   4.615   1.860 -0.5269 -1.1394 -0.7609
   69SAPC  H14B 5835   1.198   4.538   1.755  2.8279 -0.0652  2.8054
   69SAPC  H14C 5836   1.235   4.696   1.830 -0.0310  0.8229 -1.4285
   69SAPC   C15 5837   1.033   4.628   1.563 -0.1182 -0.2734 -0.6104
   69SAPC  H15A 5838   1.113   4.565   1.527  2.0548  2.3609 -0.7097
   69SAPC  H15B 5839   0.956   4.567   1.608  0.0753 -1.7754 -2.1976
   69SAPC  H15C 5840   0.985   4.688   1.487  0.2768  1.3309  0.3593
   69SAPC   C11 5841   0.856   4.743   1.778  0.9554 -0.0247 -0.0623
   69SAPC  H11A 5842   0.794   4.696   1.698 -0.7807  0.3414  1.0203
   69SAPC  H11B 5843   0.793   4.831   1.805  0.1202  0.0730 -2.0998
   69SAPC     P 5844   0.841   4.664   2.026  0.3946 -0.0938  0.3986
   69SAPC   O13 5845   0.830   4.531   2.086 -0.2389  0.2228  0.1991
   69SAPC   O14 5846   0.933   4.767   2.078 -0.1009  0.5649  0.1789
   69SAPC   O12 5847   0.875   4.643   1.879  0.2349 -0.2040 -0.6093
   69SAPC   O11 5848   0.697   4.728   2.021 -0.1856  0.3494  0.0760
   69SAPC    C1 5849   0.653   4.829   2.112  0.1990 -0.0413 -0.0140
   69SAPC    HA 5850   0.732   4.907   2.117 -0.8921  1.0456  1.1285
   69SAPC    HB 5851   0.573   4.897   2.076 -0.3630  1.6398  3.8660
   69SAPC    C2 5852   0.636   4.781   2.262  1.0872 -0.3194  0.6924
   69SAPC    HS 5853   0.724   4.719   2.290 -0.1564 -1.1957  2.8624
   69SAPC   O21 5854   0.512   4.707   2.280  0.2599  0.0442 -0.4077
   69SAPC   C21 5855   0.505   4.604   2.368  0.8106 -0.3048 -0.0403
   69SAPC   O22 5856   0.597   4.570   2.441 -0.3658 -0.1020 -0.2121
   69SAPC   C22 5857   0.362   4.541   2.357 -0.3409 -0.0387 -0.4613
   69SAPC   H2R 5858   0.289   4.614   2.318 -0.9368 -0.8092 -0.8130
   69SAPC   H2S 5859   0.382   4.452   2.294  1.5986  0.8003 -1.1170
   69SAPC    C3 5860   0.615   4.908   2.351  0.3675 -0.0626  0.3454
   69SAPC    HX 5861   0.522   4.955   2.312  0.1202  0.1559  1.1795
   69SAPC    HY 5862   0.693   4.987   2.342 -1.0313  1.2227 -1.2533
   69SAPC   O31 5863   0.587   4.872   2.482 -0.2504 -0.1591  0.2292
   69SAPC   C31 5864   0.688   4.832   2.555  0.4183  0.5827 -0.2078
   69SAPC   O32 5865   0.805   4.826   2.515 -0.4592 -0.1309 -0.1831
   69SAPC   C32 5866   0.656   4.792   2.694 -0.2798  0.1468 -0.3699
   69SAPC   H2X 5867   0.619   4.687   2.695  0.0675  0.0072  1.3408
   69SAPC   H2Y 5868   0.587   4.870   2.732 -0.6692 -0.7471  0.8050
   69SAPC   C23 5869   0.305   4.480   2.493 -0.2805  0.7838  0.1893
   69SAPC   H3R 5870   0.389   4.441   2.554 -1.1873 -1.4283  0.0916
   69SAPC   H3S 5871   0.236   4.401   2.459 -1.0234  0.4506  2.2825
   69SAPC   C24 5872   0.224   4.581   2.581 -0.1826  0.2431  0.0262
   69SAPC   H4R 5873   0.153   4.531   2.651  0.9590 -0.4332  0.7261
   69SAPC   H4S 5874   0.168   4.638   2.504  0.1827  0.7454  0.1257
   69SAPC   C25 5875   0.305   4.682   2.658 -0.1090 -0.2780 -0.7988
   69SAPC   H5R 5876   0.332   4.773   2.602 -2.0591  2.3196  2.1302
   69SAPC   C26 5877   0.342   4.660   2.783 -0.2007  0.2039  0.0410
   69SAPC   H6R 5878   0.389   4.746   2.836 -0.9021 -0.6847  2.2301
   69SAPC   C27 5879   0.309   4.541   2.871 -0.2320  0.0934 -0.1248
   69SAPC   H7R 5880   0.406   4.487   2.877  0.2091  1.0506  2.0290
   69SAPC   H7S 5881   0.241   4.473   2.814 -0.9627 -1.2366  2.2172
   69SAPC   C28 5882   0.253   4.566   3.012 -0.8735  0.4669 -1.0120
   69SAPC   H8R 5883   0.166   4.634   3.002  0.1066  1.9596  0.1739
   69SAPC   C29 5884   0.297   4.544   3.131 -0.3121  0.0417 -0.7491
   69SAPC   H9R 5885   0.239   4.562   3.223  1.5188  0.6838  0.3605
   69SAPC  C210 5886   0.425   4.466   3.163 -0.0855 -0.4015  0.3520
   69SAPC  H10R 5887   0.514   4.525   3.190 -0.8538  0.3287  1.3378
   69SAPC  H10S 5888   0.453   4.407   3.073  2.5842  1.6800 -0.3031
   69SAPC  C211 5889   0.393   4.364   3.270  0.1587 -0.1726 -0.5385
   69SAPC  H11R 5890   0.379   4.261   3.234  1.0286 -1.1213  1.6008
   69SAPC  C212 5891   0.377   4.374   3.405  0.4736 -0.2697 -0.3488
   69SAPC  H12R 5892   0.364   4.282   3.464 -1.3664  0.2428  0.1020
   69SAPC  C213 5893   0.393   4.502   3.482 -0.0267  0.5250 -1.1591
   69SAPC  H13R 5894   0.301   4.526   3.539  1.9381  5.5582  0.4172
   69SAPC  H13S 5895   0.404   4.589   3.413  1.7772  1.6613  0.4818
   69SAPC  C214 5896   0.498   4.484   3.578 -0.4970 -0.3785 -0.9696
   69SAPC  H14R 5897   0.604   4.498   3.552  0.1166 -0.5635  1.1814
   69SAPC  C215 5898   0.489   4.448   3.709  1.1545  0.5348 -0.5617
   69SAPC  H15R 5899   0.580   4.444   3.770 -0.4551  0.2648  1.9716
   69SAPC  C216 5900   0.350   4.436   3.785 -0.0641  0.1186  0.3848
   69SAPC  H16R 5901   0.319   4.331   3.806 -1.7557  0.2538 -1.1534
   69SAPC  H16S 5902   0.265   4.486   3.733 -0.6880 -0.8378  0.4497
   69SAPC  C217 5903   0.364   4.513   3.916  0.1002 -0.3425 -0.9752
   69SAPC  H17R 5904   0.358   4.621   3.891 -0.6257 -0.7534 -2.7026
   69SAPC  H17S 5905   0.459   4.484   3.966 -0.1802 -1.8057 -1.2681
   69SAPC  C218 5906   0.244   4.486   4.011 -0.5642 -0.4313 -0.5291
   69SAPC  H18R 5907   0.230   4.376   4.014  2.2267 -0.8785 -1.3667
   69SAPC  H18S 5908   0.152   4.524   3.961 -0.8871 -0.2150  0.2150
   69SAPC  C219 5909   0.249   4.553   4.149  0.0270 -0.6050  0.2454
   69SAPC  H19R 5910   0.162   4.524   4.212 -0.4255 -2.0848 -0.9851
   69SAPC  H19S 5911   0.265   4.662   4.141  0.1013 -0.6946 -0.9983
   69SAPC  C220 5912   0.366   4.500   4.232  0.1745 -0.4025  0.2111
   69SAPC  H20R 5913   0.461   4.503   4.174  0.0500 -0.2938  0.0134
   69SAPC  H20S 5914   0.352   4.395   4.266 -0.8241 -0.1632  0.5737
   69SAPC  H20T 5915   0.380   4.571   4.316  0.6241  1.0171 -1.0278
   69SAPC   C33 5916   0.778   4.787   2.791  0.2265  0.1360  0.0974
   69SAPC   H3X 5917   0.828   4.885   2.805  0.1532  0.5178 -1.9835
   69SAPC   H3Y 5918   0.859   4.724   2.747  0.1962 -0.7197  1.2114
   69SAPC   C34 5919   0.739   4.731   2.932  0.0181 -0.2431  0.1215
   69SAPC   H4X 5920   0.752   4.621   2.942  1.2883 -0.1383 -0.2633
   69SAPC   H4Y 5921   0.636   4.761   2.961  0.1485 -0.0101  0.3427
   69SAPC   C35 5922   0.823   4.790   3.046  0.5216 -0.0189 -0.4000
   69SAPC   H5X 5923   0.842   4.898   3.032 -0.4549  0.1519 -0.4351
   69SAPC   H5Y 5924   0.926   4.748   3.047  1.6339  2.5046  1.5412
   69SAPC   C36 5925   0.759   4.755   3.183 -0.1441  0.0677  0.2169
   69SAPC   H6X 5926   0.750   4.646   3.202  0.3657  0.1949  1.2142
   69SAPC   H6Y 5927   0.664   4.813   3.190  0.4874  1.4262 -1.5931
   69SAPC   C37 5928   0.855   4.802   3.296  0.5637 -0.1358  0.1370
   69SAPC   H7X 5929   0.878   4.910   3.287 -0.8205  0.0043 -2.7285
   69SAPC   H7Y 5930   0.955   4.754   3.288 -0.6755 -2.8182 -0.4206
   69SAPC   C38 5931   0.802   4.775   3.440  0.4347  1.1487 -0.2246
   69SAPC   H8X 5932   0.896   4.770   3.498  0.3554 -1.3298 -0.2002
   69SAPC   H8Y 5933   0.744   4.680   3.446  2.5289 -0.3237 -1.6540
   69SAPC   C39 5934   0.716   4.894   3.486  0.0991 -0.1824  0.2631
   69SAPC   H9X 5935   0.643   4.910   3.403  0.4445  3.2438  0.4769
   69SAPC   H9Y 5936   0.783   4.982   3.494 -0.6356  0.3773  0.3885
   69SAPC  C310 5937   0.636   4.880   3.620 -0.9861 -0.3066  0.0748
   69SAPC  H10X 5938   0.562   4.797   3.624 -2.6653  1.0787 -1.0292
   69SAPC  H10Y 5939   0.591   4.977   3.648  1.7718  0.9426  0.5309
   69SAPC  C311 5940   0.738   4.841   3.732  0.3608 -0.1817 -0.2000
   69SAPC  H11X 5941   0.814   4.921   3.731 -1.9777  2.2680 -2.8208
   69SAPC  H11Y 5942   0.785   4.744   3.705  1.8852  0.1164  1.2577
   69SAPC  C312 5943   0.668   4.838   3.870 -0.2012  0.3697  0.0686
   69SAPC  H12X 5944   0.578   4.772   3.866 -0.0999  0.1474  1.0860
   69SAPC  H12Y 5945   0.637   4.942   3.889 -0.6942  0.4161 -0.9358
   69SAPC  C313 5946   0.756   4.800   3.987  0.2917 -0.2241  0.5741
   69SAPC  H13X 5947   0.852   4.857   3.992  1.1861 -1.6957  0.9273
   69SAPC  H13Y 5948   0.793   4.695   3.980  1.0843  0.1082 -0.5161
   69SAPC  C314 5949   0.691   4.817   4.126  0.2879 -0.4001  0.5279
   69SAPC  H14X 5950   0.593   4.763   4.124  0.0340  0.0571  0.5670
   69SAPC  H14Y 5951   0.684   4.927   4.125  2.2345 -0.2035 -2.3348
   69SAPC  C315 5952   0.790   4.776   4.239  0.0036  0.1132  0.1561
   69SAPC  H15X 5953   0.854   4.692   4.202  0.3558  0.4470 -0.0000
   69SAPC  H15Y 5954   0.737   4.736   4.328  0.4823  1.2317  0.9694
   69SAPC  C316 5955   0.887   4.892   4.273 -0.0869 -0.1397  0.0617
   69SAPC  H16X 5956   0.821   4.981   4.287  0.7570  0.7627 -1.4205
   69SAPC  H16Y 5957   0.959   4.910   4.190  1.1406  1.9997  1.4965
   69SAPC  C317 5958   0.984   4.887   4.390  0.0615 -0.3223 -0.4357
   69SAPC  H17X 5959   1.032   4.986   4.403 -2.1275  0.6762  0.6315
   69SAPC  H17Y 5960   1.073   4.822   4.375 -1.1452 -2.2728  0.4042
   69SAPC  C318 5961   0.919   4.846   4.524  0.2330  0.2100 -0.6657
   69SAPC  H18X 5962   0.870   4.930   4.577  1.7958 -0.1910  1.6278
   69SAPC  H18Y 5963   1.005   4.822   4.591  0.8692  3.0917 -0.3059
   69SAPC  H18Z 5964   0.851   4.758   4.518 -1.7021  1.6729 -1.0787
   70SAPC     N 5965   6.204   4.716   1.756 -0.2193 -0.1842 -0.2533
   70SAPC   C12 5966   6.271   4.721   1.894 -0.7280 -0.3423  0.0170
   70SAPC  H12A 5967   6.201   4.684   1.967 -0.8112  0.3871  0.3088
   70SAPC  H12B 5968   6.284   4.824   1.924  0.6036 -0.7652  1.0016
   70SAPC   C13 5969   6.186   4.579   1.702 -0.0896  0.4198 -0.4966
   70SAPC  H13A 5970   6.279   4.534   1.669  0.9283 -0.3994  3.0666
   70SAPC  H13B 5971   6.139   4.516   1.776  2.3659 -0.3695  0.4884
   70SAPC  H13C 5972   6.128   4.587   1.611 -2.4820 -2.7700  0.5919
   70SAPC   C14 5973   6.067   4.766   1.777  0.3099  0.5567 -0.8960
   70SAPC  H14A 5974   6.010   4.709   1.849  1.1520  1.0024  0.1389
   70SAPC  H14B 5975   6.067   4.868   1.811 -0.6988  0.6410 -1.0998
   70SAPC  H14C 5976   6.004   4.769   1.689 -1.0806 -2.8548 -0.1801
   70SAPC   C15 5977   6.272   4.803   1.661 -0.2367 -0.5779 -0.3431
   70SAPC  H15A 5978   6.233   4.800   1.561  1.2152  0.0086 -0.9466
   70SAPC  H15B 5979   6.269   4.906   1.694  0.6425 -0.7604  0.3500
   70SAPC  H15C 5980   6.375   4.774   1.651  0.6536  2.6107 -1.3234
   70SAPC   C11 5981   6.416   4.669   1.900 -0.7625  0.6869 -0.0164
   70SAPC  H11A 5982   6.432   4.562   1.875 -0.5627  0.9606 -1.1018
   70SAPC  H11B 5983   6.442   4.673   2.008  1.0139  0.9487 -0.4238
   70SAPC     P 5984   6.653   4.729   1.824 -0.1006 -0.3984 -0.4112
   70SAPC   O13 5985   6.687   4.586   1.807  0.5235  0.2127  0.2349
   70SAPC   O14 5986   6.723   4.820   1.731  0.3695  0.2280 -0.0238
   70SAPC   O12 5987   6.500   4.753   1.821  0.9699  0.0095  0.0912
   70SAPC   O11 5988   6.696   4.771   1.965 -0.5500 -0.0846 -0.2457
   70SAPC    C1 5989   6.694   4.909   2.006 -0.2868 -0.2433 -0.4293
   70SAPC    HA 5990   6.790   4.958   1.976  1.1002 -0.2595  3.3794
   70SAPC    HB 5991   6.608   4.960   1.957 -1.6781 -3.4018 -1.5000
   70SAPC    C2 5992   6.687   4.937   2.163  0.2031  0.2430 -0.1074
   70SAPC    HS 5993   6.639   5.036   2.182  1.0802  0.6872 -0.1538
   70SAPC   O21 5994   6.816   4.928   2.224 -0.1605  0.0083 -0.3707
   70SAPC   C21 5995   6.875   5.043   2.225 -0.4027  0.2987 -0.3258
   70SAPC   O22 5996   6.839   5.145   2.175  0.0538 -0.1108  0.6582
   70SAPC   C22 5997   7.009   5.026   2.293 -0.6676  0.0919  0.4722
   70SAPC   H2R 5998   7.061   4.942   2.243 -0.4282  1.0725 -0.9807
   70SAPC   H2S 5999   7.067   5.121   2.282 -1.1319  0.1153 -2.2297
   70SAPC    C3 6000   6.593   4.831   2.236  0.0574  0.1950  0.0454
   70SAPC    HX 6001   6.636   4.732   2.211  1.9846  1.2089 -0.8768
   70SAPC    HY 6002   6.490   4.843   2.196 -0.2782  2.0717  1.3002
   70SAPC   O31 6003   6.581   4.866   2.381  0.1166  0.2517 -0.1641
   70SAPC   C31 6004   6.663   4.798   2.466  0.2311  0.2960 -0.0265
   70SAPC   O32 6005   6.725   4.699   2.437 -0.0704 -0.3787  0.1055
   70SAPC   C32 6006   6.652   4.854   2.601  0.2192 -0.2168 -0.0034
   70SAPC   H2X 6007   6.545   4.848   2.628  0.6291  1.7778  2.3993
   70SAPC   H2Y 6008   6.670   4.964   2.604 -3.2791  0.5820 -2.2963
   70SAPC   C23 6009   6.989   4.985   2.437  0.4293 -0.0392  0.1802
   70SAPC   H3R 6010   7.091   4.962   2.476  0.7281 -1.2789 -1.2499
   70SAPC   H3S 6011   6.930   4.890   2.442  1.7628 -0.9078 -0.0773
   70SAPC   C24 6012   6.916   5.080   2.530  0.6261  0.3854  0.0387
   70SAPC   H4R 6013   6.892   5.043   2.632  1.9229  0.1897  0.2890
   70SAPC   H4S 6014   6.817   5.086   2.479  2.0028  0.2006 -2.8794
   70SAPC   C25 6015   6.984   5.210   2.539 -0.4399 -0.4478 -0.0852
   70SAPC   H5R 6016   6.980   5.264   2.444  2.4070 -0.4965 -0.3275
   70SAPC   C26 6017   7.050   5.259   2.641  0.4894  0.5259  0.2728
   70SAPC   H6R 6018   7.103   5.355   2.635  0.2872  0.5819 -0.8200
   70SAPC   C27 6019   7.061   5.184   2.777  0.5644 -0.1994  0.2437
   70SAPC   H7R 6020   7.011   5.084   2.779  1.0350 -0.5102 -1.7308
   70SAPC   H7S 6021   7.008   5.255   2.844 -1.5014  2.1893 -3.5808
   70SAPC   C28 6022   7.205   5.159   2.806 -0.0851 -0.2244 -0.0601
   70SAPC   H8R 6023   7.283   5.194   2.737  0.1201  0.5826  0.5694
   70SAPC   C29 6024   7.239   5.074   2.908  0.2873  0.1474  0.8180
   70SAPC   H9R 6025   7.346   5.068   2.930  0.1540 -3.7625  1.1090
   70SAPC  C210 6026   7.138   5.015   3.011  0.7242  0.3576 -1.0500
   70SAPC  H10R 6027   7.072   4.949   2.951 -2.0139  1.9600  0.0112
   70SAPC  H10S 6028   7.080   5.094   3.064 -0.0063 -1.3201  0.7512
   70SAPC  C211 6029   7.211   4.936   3.110  0.6943 -0.3361  0.4274
   70SAPC  H11R 6030   7.197   4.828   3.093 -1.7444  0.1748 -1.3512
   70SAPC  C212 6031   7.264   4.986   3.221  0.0207 -0.1603 -0.3484
   70SAPC  H12R 6032   7.324   4.915   3.280 -2.1536 -1.9631 -0.1692
   70SAPC  C213 6033   7.271   5.133   3.260 -0.0747  0.1285 -0.2850
   70SAPC  H13R 6034   7.203   5.191   3.195  0.1617 -0.0829 -0.7268
   70SAPC  H13S 6035   7.373   5.171   3.240  0.2288 -1.6477 -2.5204
   70SAPC  C214 6036   7.227   5.164   3.404 -0.4807 -0.1064 -0.0884
   70SAPC  H14R 6037   7.134   5.119   3.440  1.3100 -3.4416  0.7601
   70SAPC  C215 6038   7.294   5.242   3.487 -0.7201 -0.3814  0.4142
   70SAPC  H15R 6039   7.257   5.244   3.591 -1.0552 -1.8017  0.3394
   70SAPC  C216 6040   7.424   5.317   3.459 -0.7975 -0.0215  0.2517
   70SAPC  H16R 6041   7.456   5.304   3.353 -0.5946 -0.8173  0.3967
   70SAPC  H16S 6042   7.499   5.268   3.525 -0.4881 -1.4946 -1.1308
   70SAPC  C217 6043   7.410   5.469   3.489  0.3411 -0.0785  0.2689
   70SAPC  H17R 6044   7.315   5.508   3.448  0.7368 -1.2276 -1.8904
   70SAPC  H17S 6045   7.497   5.511   3.436  0.3819 -0.9025 -0.3471
   70SAPC  C218 6046   7.432   5.493   3.635 -0.4173  0.1483 -0.2649
   70SAPC  H18R 6047   7.540   5.479   3.660 -0.8440  0.1456  1.8110
   70SAPC  H18S 6048   7.375   5.416   3.692  1.2526 -0.0373  1.2667
   70SAPC  C219 6049   7.383   5.636   3.681  0.3742  0.3487  0.9349
   70SAPC  H19R 6050   7.379   5.635   3.792 -0.5568 -2.8002  0.9852
   70SAPC  H19S 6051   7.285   5.650   3.630  0.3620  1.1136  1.1558
   70SAPC  C220 6052   7.479   5.741   3.624  0.4269 -0.5034 -0.1813
   70SAPC  H20R 6053   7.532   5.709   3.532  1.5158  1.9414 -0.4694
   70SAPC  H20S 6054   7.551   5.769   3.703 -3.9512  0.6280  3.8599
   70SAPC  H20T 6055   7.417   5.832   3.607 -1.1836 -1.4768  0.2040
   70SAPC   C33 6056   6.736   4.783   2.710 -0.0185  0.3243  0.4814
   70SAPC   H3X 6057   6.843   4.789   2.680 -0.3918  0.9087 -0.8006
   70SAPC   H3Y 6058   6.702   4.678   2.698  0.9060  0.2831 -2.5179
   70SAPC   C34 6059   6.699   4.830   2.851  0.3654  0.2486  0.6728
   70SAPC   H4X 6060   6.595   4.792   2.862 -0.2674  1.6974 -0.0420
   70SAPC   H4Y 6061   6.700   4.940   2.869  0.4820 -0.1029  3.1959
   70SAPC   C35 6062   6.794   4.767   2.957  0.6111  0.0595 -0.1793
   70SAPC   H5X 6063   6.899   4.793   2.933  0.9284  0.3757  1.4320
   70SAPC   H5Y 6064   6.800   4.657   2.940  3.1895  0.4773 -2.8414
   70SAPC   C36 6065   6.759   4.806   3.104 -0.1351 -0.2352  0.0626
   70SAPC   H6X 6066   6.653   4.781   3.127 -0.3067  0.7147  0.3292
   70SAPC   H6Y 6067   6.786   4.913   3.115  0.4716 -0.3714 -0.0165
   70SAPC   C37 6068   6.847   4.724   3.196  0.0770  0.5314  0.3362
   70SAPC   H7X 6069   6.812   4.619   3.187  1.1662  0.3157 -2.0425
   70SAPC   H7Y 6070   6.946   4.728   3.145 -0.9649  0.3944 -1.7764
   70SAPC   C38 6071   6.852   4.762   3.346  0.2376 -0.0023 -0.4242
   70SAPC   H8X 6072   6.747   4.770   3.382  0.3940 -0.4566  0.1538
   70SAPC   H8Y 6073   6.905   4.859   3.352 -0.4718  0.3445  0.4814
   70SAPC   C39 6074   6.922   4.651   3.424 -0.4584  0.7333  0.0423
   70SAPC   H9X 6075   7.029   4.646   3.392 -0.4941  5.7094 -1.7563
   70SAPC   H9Y 6076   6.872   4.559   3.389 -0.0366  0.0896  1.0991
   70SAPC  C310 6077   6.894   4.667   3.577  0.3873  0.2352  0.0416
   70SAPC  H10X 6078   6.930   4.583   3.639 -0.7244 -0.8638 -0.7682
   70SAPC  H10Y 6079   6.784   4.667   3.588  0.3910  0.4164  0.0888
   70SAPC  C311 6080   6.937   4.800   3.653 -0.5560 -0.0306 -0.2419
   70SAPC  H11X 6081   6.932   4.775   3.761  1.1099  0.1319 -0.0993
   70SAPC  H11Y 6082   6.866   4.881   3.626 -0.2471  0.5302  0.5678
   70SAPC  C312 6083   7.083   4.841   3.622  0.1803  0.2848 -0.6224
   70SAPC  H12X 6084   7.083   4.857   3.512  0.7799  1.2346 -0.5010
   70SAPC  H12Y 6085   7.143   4.758   3.663 -1.3924 -0.4815  0.2040
   70SAPC  C313 6086   7.129   4.971   3.683 -0.5988  0.4551  0.1695
   70SAPC  H13X 6087   7.059   5.052   3.656 -0.4395  0.0569 -1.5045
   70SAPC  H13Y 6088   7.226   5.006   3.642 -0.0335 -0.5522  0.6061
   70SAPC  C314 6089   7.148   4.980   3.834  0.3511  0.5770  0.0205
   70SAPC  H14X 6090   7.215   4.893   3.849 -0.1023  0.4097  1.1852
   70SAPC  H14Y 6091   7.059   4.943   3.889  0.4952 -0.0149 -0.1367
   70SAPC  C315 6092   7.211   5.102   3.899  0.0703 -0.0210 -0.4512
   70SAPC  H15X 6093   7.155   5.196   3.881  3.5420  2.3014  0.0140
   70SAPC  H15Y 6094   7.307   5.122   3.847 -0.3545 -1.9524 -2.1316
   70SAPC  C316 6095   7.242   5.086   4.045 -0.0314  0.3527 -0.1190
   70SAPC  H16X 6096   7.335   5.025   4.051  1.6953  3.0078  2.3305
   70SAPC  H16Y 6097   7.160   5.041   4.107  1.3144 -3.0886 -0.6136
   70SAPC  C317 6098   7.308   5.212   4.099  0.1641 -0.1726  0.4219
   70SAPC  H17X 6099   7.231   5.290   4.115  0.3637 -0.0266  0.6810
   70SAPC  H17Y 6100   7.381   5.254   4.026  0.6079  0.5696  1.2765
   70SAPC  C318 6101   7.377   5.204   4.243  0.8759  0.4034  0.1912
   70SAPC  H18X 6102   7.440   5.293   4.264  0.0902  0.8688  0.6514
   70SAPC  H18Y 6103   7.422   5.103   4.240  0.0624 -0.0137  1.2729
   70SAPC  H18Z 6104   7.292   5.198   4.315  0.6344 -2.0583 -0.2216
   71SAPC     N 6105   2.367   3.312   1.787  0.0339 -0.7179  0.3247
   71SAPC   C12 6106   2.246   3.398   1.806  0.7822 -0.0063  0.1656
   71SAPC  H12A 6107   2.190   3.349   1.884  0.5949  0.2283  0.1799
   71SAPC  H12B 6108   2.178   3.387   1.722  0.0960 -1.0736  0.8342
   71SAPC   C13 6109   2.452   3.345   1.667  0.4629 -0.5159  0.6671
   71SAPC  H13A 6110   2.541   3.283   1.670  1.7119  1.1113 -0.6797
   71SAPC  H13B 6111   2.391   3.330   1.579  0.1427  2.7551  0.2083
   71SAPC  H13C 6112   2.484   3.448   1.674 -1.5387  0.5542 -3.2416
   71SAPC   C14 6113   2.454   3.311   1.909  0.0826 -0.1260 -0.2073
   71SAPC  H14A 6114   2.468   3.416   1.929 -0.5426 -0.1950  0.6219
   71SAPC  H14B 6115   2.406   3.260   1.991 -0.2104 -0.0289 -0.3179
   71SAPC  H14C 6116   2.543   3.254   1.886  0.8249 -0.9155  3.8600
   71SAPC   C15 6117   2.317   3.173   1.770  0.3072 -1.0034  0.1726
   71SAPC  H15A 6118   2.239   3.140   1.837 -1.7511  1.7896 -0.6465
   71SAPC  H15B 6119   2.259   3.169   1.679 -1.1240  0.7609  0.9385
   71SAPC  H15C 6120   2.401   3.106   1.769  2.3866  1.4499 -0.9820
   71SAPC   C11 6121   2.253   3.553   1.828 -0.9443  0.3042 -0.0010
   71SAPC  H11A 6122   2.280   3.574   1.933  0.0437  0.4963 -0.2779
   71SAPC  H11B 6123   2.148   3.586   1.811 -0.3045  1.5043 -1.9499
   71SAPC     P 6124   2.467   3.710   1.784  0.0309 -0.0208  0.2772
   71SAPC   O13 6125   2.588   3.626   1.800  0.1960  0.0936 -0.0733
   71SAPC   O14 6126   2.486   3.821   1.686  0.7463  0.2145 -0.0463
   71SAPC   O12 6127   2.341   3.623   1.741 -0.6968 -0.3871 -0.7490
   71SAPC   O11 6128   2.435   3.773   1.930  0.3250  0.3260  0.2783
   71SAPC    C1 6129   2.325   3.847   1.967 -0.1103  0.2829 -0.6909
   71SAPC    HA 6130   2.346   3.955   1.952 -1.4155  0.9857  1.8764
   71SAPC    HB 6131   2.240   3.828   1.898 -0.6575  0.3815 -0.0559
   71SAPC    C2 6132   2.283   3.835   2.119 -0.4403 -0.5609  0.0486
   71SAPC    HS 6133   2.382   3.851   2.165  0.5084 -0.4283 -1.9249
   71SAPC   O21 6134   2.217   3.702   2.134  0.2434  0.0901  0.1927
   71SAPC   C21 6135   2.217   3.652   2.252  0.5573 -0.0717 -0.4213
   71SAPC   O22 6136   2.283   3.691   2.345 -0.2658  0.0532  0.3797
   71SAPC   C22 6137   2.128   3.526   2.249  0.5921 -0.2649 -0.1249
   71SAPC   H2R 6138   2.027   3.554   2.212  1.4079  1.4455 -1.2114
   71SAPC   H2S 6139   2.175   3.448   2.186  1.9671 -0.1661  0.7292
   71SAPC    C3 6140   2.177   3.947   2.144 -0.1804 -0.2695  0.3698
   71SAPC    HX 6141   2.084   3.926   2.087 -0.9805  0.1614  1.4923
   71SAPC    HY 6142   2.222   4.042   2.107 -0.1461 -2.0779 -5.1245
   71SAPC   O31 6143   2.144   3.947   2.286  0.3119  0.1578  0.2487
   71SAPC   C31 6144   2.235   3.989   2.382  0.7911 -0.1493  0.6129
   71SAPC   O32 6145   2.347   4.028   2.366  0.1209 -0.5068  0.1716
   71SAPC   C32 6146   2.174   3.959   2.517  0.2363 -0.0647 -0.0086
   71SAPC   H2X 6147   2.212   3.859   2.549 -0.9104 -0.4117  0.3019
   71SAPC   H2Y 6148   2.065   3.949   2.501  0.2960 -1.7649  0.3920
   71SAPC   C23 6149   2.103   3.465   2.393 -0.0429 -0.2378  0.8046
   71SAPC   H3R 6150   2.198   3.474   2.449  0.5365  1.3676 -0.3817
   71SAPC   H3S 6151   2.071   3.360   2.372 -1.4706  0.5645 -1.3280
   71SAPC   C24 6152   2.011   3.545   2.475  0.8602 -0.6501  0.2485
   71SAPC   H4R 6153   1.917   3.543   2.415  1.8923  0.3961 -1.4955
   71SAPC   H4S 6154   2.054   3.646   2.490  3.1501 -1.7432  1.4997
   71SAPC   C25 6155   1.981   3.476   2.603 -0.3085 -0.1802 -0.2936
   71SAPC   H5R 6156   1.884   3.424   2.599 -0.8581  0.6225  1.4126
   71SAPC   C26 6157   2.052   3.479   2.721 -0.5859  0.7241 -0.1447
   71SAPC   H6R 6158   2.012   3.417   2.802  0.1999  0.3195 -0.0528
   71SAPC   C27 6159   2.179   3.553   2.747  0.2651  0.4661  0.1627
   71SAPC   H7R 6160   2.141   3.642   2.802  0.1945  2.4768 -2.8980
   71SAPC   H7S 6161   2.227   3.594   2.655  0.0613 -2.9017 -1.5832
   71SAPC   C28 6162   2.284   3.468   2.818  0.1286 -0.4665  0.3902
   71SAPC   H8R 6163   2.315   3.380   2.761 -1.6154  0.6953 -2.6150
   71SAPC   C29 6164   2.334   3.493   2.937 -0.2366 -0.0757 -0.6474
   71SAPC   H9R 6165   2.403   3.419   2.978 -2.1919 -1.8411 -0.4137
   71SAPC  C210 6166   2.282   3.596   3.033 -0.3845  0.9669 -0.2554
   71SAPC  H10R 6167   2.309   3.572   3.138 -3.3584 -0.7924  0.2253
   71SAPC  H10S 6168   2.171   3.595   3.030 -0.5733 -0.9735  3.0757
   71SAPC  C211 6169   2.328   3.733   3.010 -0.2256 -0.3124 -0.2047
   71SAPC  H11R 6170   2.347   3.753   2.904 -0.0763  1.2668  0.1039
   71SAPC  C212 6171   2.340   3.818   3.114  0.1835 -0.0369  0.3945
   71SAPC  H12R 6172   2.346   3.925   3.092  1.5039 -0.4036 -1.2820
   71SAPC  C213 6173   2.298   3.799   3.255  0.2511  0.7735 -0.4929
   71SAPC  H13R 6174   2.314   3.696   3.293 -0.2171  1.1841  0.8970
   71SAPC  H13S 6175   2.188   3.814   3.264  0.2888  0.4768  0.6019
   71SAPC  C214 6176   2.375   3.888   3.341  0.5697  0.1199 -0.1979
   71SAPC  H14R 6177   2.482   3.877   3.317  0.0781 -3.4347 -1.3605
   71SAPC  C215 6178   2.337   3.950   3.456  0.9832  0.3616 -0.6157
   71SAPC  H15R 6179   2.413   4.002   3.517 -0.2641  0.7244  0.6708
   71SAPC  C216 6180   2.196   3.960   3.518 -0.1374  0.0136 -0.4232
   71SAPC  H16R 6181   2.123   3.892   3.471  1.9952 -1.5530 -1.6319
   71SAPC  H16S 6182   2.149   4.055   3.484 -2.4320 -0.6401  0.7593
   71SAPC  C217 6183   2.187   3.937   3.673  0.3661  0.1819  0.4687
   71SAPC  H17R 6184   2.088   3.983   3.694 -1.8889 -3.5554 -0.8747
   71SAPC  H17S 6185   2.272   3.974   3.735  1.1717 -1.3475  0.3188
   71SAPC  C218 6186   2.187   3.778   3.700 -0.0282 -0.2454  0.4207
   71SAPC  H18R 6187   2.284   3.744   3.658  0.3661  0.8036  0.4571
   71SAPC  H18S 6188   2.097   3.735   3.651  0.0003 -0.3833  0.4891
   71SAPC  C219 6189   2.188   3.737   3.845  0.4985 -0.0028  0.0563
   71SAPC  H19R 6190   2.170   3.627   3.846 -3.3724  0.4774 -0.3849
   71SAPC  H19S 6191   2.101   3.787   3.894  1.5685  2.1383 -0.1151
   71SAPC  C220 6192   2.326   3.749   3.914  0.5876  0.3812 -0.2674
   71SAPC  H20R 6193   2.407   3.721   3.843 -1.3703 -2.2468 -1.6340
   71SAPC  H20S 6194   2.334   3.676   3.997 -0.8498 -0.6196 -0.9612
   71SAPC  H20T 6195   2.333   3.854   3.950 -3.3565  0.7854 -0.3127
   71SAPC   C33 6196   2.218   4.071   2.609  0.2243 -0.0777 -0.7509
   71SAPC   H3X 6197   2.211   4.171   2.562 -1.4611 -0.0002 -0.3711
   71SAPC   H3Y 6198   2.327   4.060   2.631  0.6220 -0.5291 -2.6829
   71SAPC   C34 6199   2.128   4.073   2.738 -0.4517  0.0916 -0.0825
   71SAPC   H4X 6200   2.149   3.968   2.768 -2.2271 -0.6971 -1.3789
   71SAPC   H4Y 6201   2.022   4.087   2.710 -0.4030  1.6034  0.4319
   71SAPC   C35 6202   2.169   4.182   2.842  0.0331 -0.1200  0.1002
   71SAPC   H5X 6203   2.136   4.280   2.800 -0.9661  0.2703  1.7022
   71SAPC   H5Y 6204   2.278   4.191   2.825 -0.2390  0.9892 -1.2693
   71SAPC   C36 6205   2.121   4.163   2.984  0.3431  0.0743 -0.1575
   71SAPC   H6X 6206   2.159   4.069   3.029 -0.0707 -1.0393 -2.0665
   71SAPC   H6Y 6207   2.011   4.149   2.980  0.2551  0.3351  0.8892
   71SAPC   C37 6208   2.155   4.280   3.081 -0.0225  0.1705 -0.0044
   71SAPC   H7X 6209   2.094   4.366   3.045 -1.8738 -0.1927  2.0653
   71SAPC   H7Y 6210   2.264   4.300   3.076  0.4428 -1.9568  0.6564
   71SAPC   C38 6211   2.122   4.259   3.231 -0.0738  0.3111  0.3369
   71SAPC   H8X 6212   2.175   4.173   3.277  1.5743  1.7708  1.2973
   71SAPC   H8Y 6213   2.012   4.244   3.233 -0.2684  1.6259  0.6566
   71SAPC   C39 6214   2.162   4.378   3.313 -0.2870 -0.7481 -0.2294
   71SAPC   H9X 6215   2.097   4.462   3.282  0.4004 -1.2446 -3.3215
   71SAPC   H9Y 6216   2.266   4.410   3.291 -0.1118 -0.4820  0.9014
   71SAPC  C310 6217   2.149   4.369   3.466 -0.1461 -0.5008 -0.3178
   71SAPC  H10X 6218   2.212   4.289   3.510  1.9854  0.2237 -1.9260
   71SAPC  H10Y 6219   2.041   4.344   3.480 -0.1842 -1.7892 -2.5155
   71SAPC  C311 6220   2.182   4.511   3.518  0.3257  0.7868  0.1013
   71SAPC  H11X 6221   2.118   4.581   3.460 -0.9288  0.1975  0.7280
   71SAPC  H11Y 6222   2.288   4.530   3.492  0.3641  0.9584  0.3797
   71SAPC  C312 6223   2.154   4.527   3.664  0.3374 -0.0655 -0.2295
   71SAPC  H12X 6224   2.219   4.460   3.724  0.5463 -1.3188 -1.8069
   71SAPC  H12Y 6225   2.044   4.519   3.679 -0.0522 -0.2135 -2.7507
   71SAPC  C313 6226   2.195   4.669   3.705  0.0978 -0.3159  0.5202
   71SAPC  H13X 6227   2.141   4.748   3.649  0.2746  0.5440  1.5412
   71SAPC  H13Y 6228   2.302   4.684   3.678  0.4808 -2.7636  0.4239
   71SAPC  C314 6229   2.153   4.686   3.847 -0.9287 -0.7838 -0.7712
   71SAPC  H14X 6230   2.201   4.614   3.917 -0.0269 -1.9745 -2.5533
   71SAPC  H14Y 6231   2.044   4.666   3.853 -0.9571 -0.2177  2.3365
   71SAPC  C315 6232   2.181   4.827   3.901 -0.0455  0.2370  0.1001
   71SAPC  H15X 6233   2.149   4.905   3.828 -0.2527  0.8776  0.8685
   71SAPC  H15Y 6234   2.288   4.836   3.930  0.5204 -0.4571 -1.6109
   71SAPC  C316 6235   2.122   4.846   4.033  0.3039  0.1954 -0.5662
   71SAPC  H16X 6236   2.135   4.756   4.097  0.1413  1.3470  1.1584
   71SAPC  H16Y 6237   2.012   4.841   4.015  0.2717 -1.1004 -0.1145
   71SAPC  C317 6238   2.170   4.976   4.098 -0.2275 -0.8037 -0.1238
   71SAPC  H17X 6239   2.276   4.987   4.068  0.2960 -2.3892  1.0237
   71SAPC  H17Y 6240   2.183   4.958   4.206 -0.5085  0.1662  0.0855
   71SAPC  C318 6241   2.086   5.097   4.053  0.4204  0.5613 -0.0417
   71SAPC  H18X 6242   2.108   5.123   3.947  0.8412  1.7087  0.3065
   71SAPC  H18Y 6243   2.107   5.187   4.114 -1.7126 -0.7849  2.9007
   71SAPC  H18Z 6244   1.976   5.083   4.061 -0.3360  3.7129 -2.8434
   72SAPC     N 6245   4.574   1.075   1.609 -0.1282 -0.3595  0.4485
   72SAPC   C12 6246   4.587   0.920   1.609  0.4540 -0.2280 -0.2729
   72SAPC  H12A 6247   4.691   0.901   1.586  0.9313  1.1531  0.6232
   72SAPC  H12B 6248   4.527   0.876   1.531  0.7661  0.2690 -0.8077
   72SAPC   C13 6249   4.601   1.138   1.468 -0.2449 -0.1651 -0.2523
   72SAPC  H13A 6250   4.693   1.111   1.418  0.4753  1.6436  0.0141
   72SAPC  H13B 6251   4.517   1.124   1.402 -0.1605  1.6388 -0.7853
   72SAPC  H13C 6252   4.613   1.244   1.483  2.6735 -0.4130 -0.1553
   72SAPC   C14 6253   4.431   1.120   1.651 -0.0094  0.2757 -0.3615
   72SAPC  H14A 6254   4.368   1.108   1.564  2.7310 -0.2565 -2.4349
   72SAPC  H14B 6255   4.397   1.065   1.738 -2.2421 -1.2543 -2.0888
   72SAPC  H14C 6256   4.428   1.225   1.673 -2.6994  0.1880 -0.0095
   72SAPC   C15 6257   4.676   1.122   1.702  0.5226 -0.0660 -0.4648
   72SAPC  H15A 6258   4.772   1.085   1.670  1.4725  1.5685  0.3982
   72SAPC  H15B 6259   4.689   1.229   1.699 -0.0896 -0.0018 -1.9349
   72SAPC  H15C 6260   4.664   1.072   1.797  0.8992 -0.2552 -0.5170
   72SAPC   C11 6261   4.538   0.845   1.746 -0.8894 -0.1242  0.1346
   72SAPC  H11A 6262   4.544   0.735   1.731  1.6456 -0.2674  1.6069
   72SAPC  H11B 6263   4.432   0.875   1.751 -1.4714 -1.2627 -2.9624
   72SAPC     P 6264   4.733   0.823   1.908 -0.4761  0.0471 -0.2120
   72SAPC   O13 6265   4.712   0.674   1.906  0.3362 -0.2035 -0.3319
   72SAPC   O14 6266   4.843   0.866   1.824  0.0338  0.7916 -0.5763
   72SAPC   O12 6267   4.600   0.890   1.873  0.0870  0.0664 -0.2225
   72SAPC   O11 6268   4.772   0.866   2.065 -0.1668 -0.5050  0.2778
   72SAPC    C1 6269   4.697   0.975   2.121  0.0708 -0.0305 -0.2592
   72SAPC    HA 6270   4.729   1.074   2.083  1.1363 -0.4177 -0.4095
   72SAPC    HB 6271   4.586   0.969   2.113  0.1605 -1.7596 -0.5664
   72SAPC    C2 6272   4.709   0.987   2.277  0.0791 -0.2196 -0.0891
   72SAPC    HS 6273   4.714   0.886   2.322  1.0168 -0.5848 -0.9687
   72SAPC   O21 6274   4.602   1.075   2.321  0.6193  0.6812  0.1331
   72SAPC   C21 6275   4.554   1.040   2.438 -0.0523  0.0374 -0.1003
   72SAPC   O22 6276   4.601   0.955   2.513  0.1709  0.3661 -0.1885
   72SAPC   C22 6277   4.426   1.115   2.462  0.3508  0.4973 -0.6417
   72SAPC   H2R 6278   4.439   1.147   2.568 -1.4677  0.1796 -0.2905
   72SAPC   H2S 6279   4.417   1.201   2.392  2.2139  1.9882  0.8459
   72SAPC    C3 6280   4.842   1.057   2.311  0.5351  0.2224 -0.0758
   72SAPC    HX 6281   4.842   1.147   2.246 -3.4396  1.3165  1.1895
   72SAPC    HY 6282   4.933   1.000   2.283  0.9841 -0.0809  1.8060
   72SAPC   O31 6283   4.855   1.108   2.451 -0.1171 -0.2137  0.3151
   72SAPC   C31 6284   4.910   1.027   2.534 -0.3369 -0.7890  0.2400
   72SAPC   O32 6285   4.970   0.925   2.504  0.6499 -0.0310 -0.1765
   72SAPC   C32 6286   4.892   1.069   2.682  0.6302  0.4182 -0.7275
   72SAPC   H2X 6287   4.782   1.073   2.698  0.9124  1.2366  1.3953
   72SAPC   H2Y 6288   4.936   1.170   2.697  0.0216  0.3022  2.6446
   72SAPC   C23 6289   4.302   1.020   2.445  0.3202 -0.8424 -0.1858
   72SAPC   H3R 6290   4.308   0.927   2.384 -1.0559 -0.4179 -1.0157
   72SAPC   H3S 6291   4.232   1.087   2.390  2.1425  0.4550 -1.0516
   72SAPC   C24 6292   4.218   1.002   2.572 -0.1178  0.1772  0.2337
   72SAPC   H4R 6293   4.134   0.936   2.540  0.4326 -0.0307 -0.8451
   72SAPC   H4S 6294   4.178   1.102   2.599  0.8698  0.7130 -0.2510
   72SAPC   C25 6295   4.289   0.931   2.680 -0.1238  0.3018 -0.0135
   72SAPC   H5R 6296   4.294   0.822   2.668 -0.7917 -0.0324  2.2031
   72SAPC   C26 6297   4.335   0.987   2.793  0.4675 -0.2042  0.0904
   72SAPC   H6R 6298   4.373   0.919   2.872  2.0600 -1.6236 -1.7988
   72SAPC   C27 6299   4.339   1.131   2.836 -0.0398  0.4858 -0.0407
   72SAPC   H7R 6300   4.280   1.149   2.928 -0.0203  1.1321 -0.1482
   72SAPC   H7S 6301   4.291   1.181   2.750 -0.2851  0.5421  0.1283
   72SAPC   C28 6302   4.488   1.158   2.867 -1.4520 -0.0626 -0.1176
   72SAPC   H8R 6303   4.561   1.165   2.785  1.0715 -0.7039  1.9407
   72SAPC   C29 6304   4.534   1.178   2.993 -0.2583  0.1835  0.1251
   72SAPC   H9R 6305   4.641   1.200   3.010 -0.6976  0.1644  3.4163
   72SAPC  C210 6306   4.457   1.167   3.117 -0.0382 -0.0194 -0.0656
   72SAPC  H10R 6307   4.507   1.088   3.178  0.9128  0.6971  0.1066
   72SAPC  H10S 6308   4.355   1.124   3.105 -0.6047  1.5905 -1.3762
   72SAPC  C211 6309   4.442   1.299   3.175  0.1773 -0.7935 -0.2905
   72SAPC  H11R 6310   4.485   1.381   3.116  0.0066  0.3425  1.1196
   72SAPC  C212 6311   4.384   1.327   3.297 -0.0531 -0.2585  0.0336
   72SAPC  H12R 6312   4.404   1.435   3.309 -0.3567  0.6321 -5.1121
   72SAPC  C213 6313   4.334   1.234   3.406  0.2754 -0.3877  0.3873
   72SAPC  H13R 6314   4.301   1.138   3.360  0.4441  0.8290 -2.4888
   72SAPC  H13S 6315   4.238   1.269   3.447  0.2433 -0.7942  0.6638
   72SAPC  C214 6316   4.436   1.214   3.518 -0.5030  0.1448 -0.0895
   72SAPC  H14R 6317   4.530   1.266   3.495 -0.0424 -0.1452  1.0929
   72SAPC  C215 6318   4.422   1.139   3.635  0.0178  0.2659  0.2970
   72SAPC  H15R 6319   4.501   1.143   3.711 -0.3627  1.2173  0.6499
   72SAPC  C216 6320   4.295   1.072   3.675  0.4342  0.3327  0.0737
   72SAPC  H16R 6321   4.321   0.964   3.670  0.4669  0.3742 -0.8187
   72SAPC  H16S 6322   4.221   1.070   3.592 -0.7953 -0.9819  1.1483
   72SAPC  C217 6323   4.220   1.112   3.801  0.0902 -0.1047 -0.0461
   72SAPC  H17R 6324   4.177   1.209   3.766 -0.0647  0.0376  0.5339
   72SAPC  H17S 6325   4.279   1.144   3.890 -0.4194  0.0090  0.2559
   72SAPC  C218 6326   4.125   1.003   3.847  0.4183  0.2620  0.6431
   72SAPC  H18R 6327   4.173   0.904   3.862 -0.7682 -0.5459 -0.7065
   72SAPC  H18S 6328   4.060   0.984   3.759  0.6049 -2.1292  0.9560
   72SAPC  C219 6329   4.053   1.044   3.980  0.2784 -0.4986 -0.1246
   72SAPC  H19R 6330   3.956   0.990   3.981 -0.2875  0.4858 -0.3401
   72SAPC  H19S 6331   4.019   1.149   3.966 -0.7577 -0.8221 -0.0838
   72SAPC  C220 6332   4.132   1.033   4.109  0.2113  0.0888 -0.2661
   72SAPC  H20R 6333   4.224   1.094   4.098 -0.2287  0.7502 -0.3727
   72SAPC  H20S 6334   4.156   0.929   4.138  0.1261  0.6115  1.8338
   72SAPC  H20T 6335   4.076   1.083   4.191  1.0231 -0.9190  0.9320
   72SAPC   C33 6336   4.935   0.964   2.780  0.2229  0.3780 -0.1165
   72SAPC   H3X 6337   5.038   0.927   2.762 -0.8156 -1.9722 -1.9287
   72SAPC   H3Y 6338   4.869   0.876   2.763 -0.7285  1.4755 -2.6500
   72SAPC   C34 6339   4.924   1.012   2.923  0.9730  0.2239 -0.3326
   72SAPC   H4X 6340   4.819   1.047   2.932  0.4416 -1.6194  1.6069
   72SAPC   H4Y 6341   4.988   1.098   2.949 -0.1023  0.9323  0.0267
   72SAPC   C35 6342   4.947   0.905   3.027 -0.0506  0.5150 -0.4081
   72SAPC   H5X 6343   5.049   0.862   3.017  0.6911  1.5170  2.1055
   72SAPC   H5Y 6344   4.872   0.825   3.007 -0.1287  0.0753  1.4741
   72SAPC   C36 6345   4.931   0.959   3.171  0.7114 -0.1681 -0.9543
   72SAPC   H6X 6346   4.830   1.004   3.187  2.0461  2.2143  1.4408
   72SAPC   H6Y 6347   5.001   1.043   3.190  0.0027 -0.5579  5.0475
   72SAPC   C37 6348   4.971   0.850   3.274  0.2035  0.1017 -0.1238
   72SAPC   H7X 6349   5.075   0.816   3.254 -0.0856 -1.0518  0.2365
   72SAPC   H7Y 6350   4.897   0.769   3.256 -0.5580  0.8282 -0.3457
   72SAPC   C38 6351   4.982   0.905   3.408  0.5870  0.5641  0.5931
   72SAPC   H8X 6352   4.884   0.940   3.446  1.5472 -0.2221  4.2378
   72SAPC   H8Y 6353   5.056   0.987   3.423 -0.2695  1.5391 -0.4145
   72SAPC   C39 6354   5.026   0.793   3.501  0.0550 -0.0148 -0.1204
   72SAPC   H9X 6355   5.121   0.744   3.473 -1.2224 -3.2251  0.6348
   72SAPC   H9Y 6356   4.955   0.708   3.491 -0.7644  0.5112  0.9988
   72SAPC  C310 6357   5.030   0.838   3.650  0.0345  0.0312  0.3509
   72SAPC  H10X 6358   4.932   0.881   3.678 -0.7335 -1.1949 -0.3747
   72SAPC  H10Y 6359   5.109   0.910   3.679  0.5487  0.0582 -1.0493
   72SAPC  C311 6360   5.057   0.711   3.742  0.1607 -0.1920  0.1702
   72SAPC  H11X 6361   5.153   0.659   3.717 -0.5912 -1.8850  0.6346
   72SAPC  H11Y 6362   4.976   0.641   3.713 -0.2119  1.1664 -2.2798
   72SAPC  C312 6363   5.061   0.755   3.892  0.6139 -0.1591  0.4626
   72SAPC  H12X 6364   4.956   0.786   3.912 -0.7465 -3.3505 -0.9300
   72SAPC  H12Y 6365   5.138   0.832   3.913 -0.6121  1.1398  0.3153
   72SAPC  C313 6366   5.078   0.638   3.993 -0.4339  0.0507  0.3900
   72SAPC  H13X 6367   5.168   0.579   3.969  0.7319  0.2953  3.6093
   72SAPC  H13Y 6368   4.994   0.566   3.978 -0.4736  0.0851  0.4437
   72SAPC  C314 6369   5.086   0.674   4.143  0.2299  0.1898 -0.3289
   72SAPC  H14X 6370   5.162   0.755   4.147  0.8769 -0.2251 -2.5258
   72SAPC  H14Y 6371   5.105   0.580   4.199 -0.2656 -0.0816 -0.6148
   72SAPC  C315 6372   4.950   0.745   4.186  0.1984  0.3447  0.2246
   72SAPC  H15X 6373   4.869   0.680   4.147 -0.0550  0.6619  0.2188
   72SAPC  H15Y 6374   4.934   0.842   4.133 -1.2871  0.1150  0.2133
   72SAPC  C316 6375   4.942   0.766   4.339 -0.0328 -0.3306  0.6831
   72SAPC  H16X 6376   4.998   0.859   4.361  1.3547 -1.3357  1.4980
   72SAPC  H16Y 6377   5.007   0.688   4.382  1.1816 -0.4406 -1.2344
   72SAPC  C317 6378   4.801   0.755   4.400 -0.3937 -0.2137 -0.0677
   72SAPC  H17X 6379   4.731   0.834   4.365 -1.3280  0.5713  3.2392
   72SAPC  H17Y 6380   4.805   0.771   4.509  0.9048 -2.2348  0.2441
   72SAPC  C318 6381   4.728   0.620   4.373 -0.3741  0.5327 -0.6443
   72SAPC  H18X 6382   4.784   0.542   4.429 -0.7291  2.0414  1.9602
   72SAPC  H18Y 6383   4.707   0.597   4.266 -2.2999 -1.6248  0.1325
   72SAPC  H18Z 6384   4.630   0.619   4.425 -1.1340  0.0724 -2.0154
   73SLPC     N 6385   4.725   5.684   6.935  0.2690 -0.5678  0.1702
   73SLPC   C13 6386   4.795   5.573   7.009 -0.8009 -0.4461  0.2968
   73SLPC  H13A 6387   4.755   5.566   7.109  1.0327 -2.8475  0.9808
   73SLPC  H13B 6388   4.780   5.482   6.953  1.8892 -0.9518  0.2529
   73SLPC  H13C 6389   4.902   5.588   7.017 -0.6437 -0.4622 -1.3758
   73SLPC   C14 6390   4.753   5.811   7.014 -1.3212  0.3034  0.3162
   73SLPC  H14A 6391   4.729   5.802   7.119 -2.6305  1.0464  0.1027
   73SLPC  H14B 6392   4.860   5.824   7.016 -0.7466 -3.2634 -1.2997
   73SLPC  H14C 6393   4.713   5.899   6.966 -0.9060 -0.2153 -1.0130
   73SLPC   C15 6394   4.581   5.663   6.938  0.2731 -0.2549  0.3889
   73SLPC  H15A 6395   4.545   5.573   6.889  0.1057  0.2731 -0.4893
   73SLPC  H15B 6396   4.547   5.653   7.040  2.7671  1.3874  1.4647
   73SLPC  H15C 6397   4.535   5.752   6.897 -0.1795 -0.1102  1.2078
   73SLPC   C12 6398   4.773   5.679   6.790  0.2497 -0.3771  0.3180
   73SLPC  H12A 6399   4.714   5.749   6.733  0.4659 -0.2305  0.2736
   73SLPC  H12B 6400   4.744   5.583   6.750 -0.5771  0.8885 -2.3959
   73SLPC   C11 6401   4.918   5.687   6.760 -0.7213  0.5271  0.5545
   73SLPC  H11A 6402   4.938   5.641   6.661  0.3937  1.4260  0.3469
   73SLPC  H11B 6403   4.990   5.627   6.818  1.6644  1.2689 -1.4596
   73SLPC     P 6404   4.918   5.933   6.672  0.0665 -0.2324 -0.2619
   73SLPC   O13 6405   4.791   5.989   6.723 -0.4034  0.1295  0.2201
   73SLPC   O14 6406   5.034   6.025   6.663 -0.2961 -0.6376  0.0369
   73SLPC   O12 6407   4.962   5.821   6.772 -0.4259 -0.6117  0.6330
   73SLPC   O11 6408   4.898   5.868   6.530 -0.0521 -0.1333  0.5503
   73SLPC    C1 6409   5.008   5.839   6.449  0.2708  0.1989 -0.2586
   73SLPC    HA 6410   5.081   5.921   6.434  1.7907 -1.0466  0.1161
   73SLPC    HB 6411   5.067   5.753   6.488 -0.0919  0.7987  1.7570
   73SLPC    C2 6412   4.964   5.815   6.302 -0.2468 -0.2705  0.2746
   73SLPC    HS 6413   5.034   5.873   6.238  1.8912 -0.0670  2.6331
   73SLPC   O21 6414   4.823   5.855   6.279  0.6387  0.6160  0.4909
   73SLPC   C21 6415   4.800   5.982   6.251 -0.2938  0.7742 -0.8878
   73SLPC   O22 6416   4.885   6.070   6.245  0.1743 -0.4916 -0.4725
   73SLPC   C22 6417   4.660   6.003   6.217  0.4118 -0.7458  0.6339
   73SLPC   H2R 6418   4.607   5.906   6.220 -3.5496  0.9416 -3.1030
   73SLPC   H2S 6419   4.612   6.075   6.288 -0.5127 -0.5621 -0.1495
   73SLPC    C3 6420   4.978   5.669   6.265  0.7326  0.0353 -0.1805
   73SLPC    HX 6421   4.919   5.602   6.332  1.4035  1.1719  1.6399
   73SLPC    HY 6422   5.083   5.635   6.282 -0.0063 -1.6076  1.5535
   73SLPC   O31 6423   4.931   5.639   6.135 -0.3378 -0.0958  0.4307
   73SLPC   C31 6424   5.019   5.673   6.038 -0.0242 -0.2808  0.4295
   73SLPC   O32 6425   5.128   5.719   6.054 -0.0654  0.2345  0.0140
   73SLPC   C32 6426   4.957   5.644   5.901  0.0948 -0.0115 -0.2299
   73SLPC   H2X 6427   4.880   5.722   5.888  0.4674  0.7427  1.7345
   73SLPC   H2Y 6428   4.913   5.542   5.901  1.1241 -0.4699 -0.1874
   73SLPC   C23 6429   4.643   6.058   6.072 -0.3601  0.3925  0.1126
   73SLPC   H3R 6430   4.700   6.152   6.055 -1.4708  0.6062 -3.0494
   73SLPC   H3S 6431   4.538   6.090   6.059 -0.2327  0.4267 -0.9136
   73SLPC   C24 6432   4.680   5.952   5.955  0.1372 -0.2198  0.3734
   73SLPC   H4R 6433   4.632   5.853   5.971 -1.5140  0.4020 -0.5193
   73SLPC   H4S 6434   4.791   5.942   5.965  0.5337  1.9882 -1.1603
   73SLPC   C25 6435   4.653   6.016   5.820 -0.2121  0.2265 -0.0546
   73SLPC   H5R 6436   4.705   6.113   5.807 -2.6183  1.6939  0.6769
   73SLPC   H5S 6437   4.545   6.042   5.822 -0.3887 -0.4622  1.9162
   73SLPC   C26 6438   4.678   5.919   5.710  0.3541  0.4875 -0.1711
   73SLPC   H6R 6439   4.648   5.815   5.737  1.3158  1.1529  4.2093
   73SLPC   H6S 6440   4.789   5.916   5.701  0.2135  0.3610 -2.3206
   73SLPC   C27 6441   4.619   5.953   5.571 -0.1719  0.9540  0.5727
   73SLPC   H7R 6442   4.674   6.044   5.538 -0.5307  1.6211  1.7395
   73SLPC   H7S 6443   4.510   5.974   5.572 -0.0096  1.8235  0.3629
   73SLPC   C28 6444   4.654   5.836   5.468 -0.2633 -0.3349 -0.1514
   73SLPC   H8R 6445   4.620   5.735   5.500  0.2875 -0.9529 -1.4392
   73SLPC   H8S 6446   4.765   5.831   5.468 -0.2882 -0.9857 -0.5332
   73SLPC   C29 6447   4.597   5.859   5.332  0.1754 -0.4441 -0.0696
   73SLPC   H9R 6448   4.512   5.928   5.323  0.1733 -0.3065  0.8887
   73SLPC  C210 6449   4.658   5.813   5.219 -0.9197 -0.9265  0.0327
   73SLPC  H10R 6450   4.622   5.847   5.121 -0.9226  1.4115  0.7896
   73SLPC  C211 6451   4.785   5.727   5.208  0.1035 -0.2840 -0.5514
   73SLPC  H11R 6452   4.777   5.620   5.237 -0.1387 -0.3705 -0.9262
   73SLPC  H11S 6453   4.842   5.761   5.297  2.5072 -3.4867 -0.7197
   73SLPC  C212 6454   4.852   5.763   5.083 -0.1414 -0.2043 -0.0279
   73SLPC  H12R 6455   4.925   5.844   5.096 -2.7517  2.4293 -0.5721
   73SLPC  C213 6456   4.842   5.712   4.958  0.1095  0.1705  0.0076
   73SLPC  H13R 6457   4.904   5.748   4.874 -1.6091  2.1827 -0.4848
   73SLPC  C214 6458   4.732   5.608   4.924  0.8470 -0.2732 -0.0170
   73SLPC  H14R 6459   4.642   5.655   4.880 -0.6482 -4.3369 -1.7583
   73SLPC  H14S 6460   4.690   5.556   5.014 -1.1613 -0.0914 -0.8030
   73SLPC  C215 6461   4.789   5.512   4.814  0.0508  0.7048  0.0326
   73SLPC  H15R 6462   4.718   5.427   4.812  1.2947 -0.3827  0.5022
   73SLPC  H15S 6463   4.880   5.468   4.859 -0.2442 -0.0227 -0.0741
   73SLPC  C216 6464   4.818   5.573   4.674 -0.9350  0.0840 -0.2248
   73SLPC  H16R 6465   4.904   5.643   4.682  1.6137 -2.8805  0.5258
   73SLPC  H16S 6466   4.726   5.621   4.633 -0.2600  1.2556 -0.4266
   73SLPC  C217 6467   4.878   5.468   4.579  0.1737 -0.3859  0.1922
   73SLPC  H17R 6468   4.789   5.402   4.563  0.5162 -1.5891  2.6910
   73SLPC  H17S 6469   4.955   5.406   4.630  1.1535 -0.9132 -1.8381
   73SLPC  C218 6470   4.927   5.519   4.445  0.9440  0.6603  0.0678
   73SLPC  H18R 6471   4.865   5.592   4.388  0.7364 -0.7552 -1.5790
   73SLPC  H18S 6472   4.943   5.433   4.377 -3.4075  1.1572 -1.9124
   73SLPC  H18T 6473   5.020   5.578   4.459  0.3748  2.1518 -1.9532
   73SLPC   C33 6474   5.059   5.633   5.793  0.6235 -0.8209  0.7790
   73SLPC   H3X 6475   5.149   5.572   5.814  1.4672  0.8970  2.4961
   73SLPC   H3Y 6476   5.113   5.730   5.781  0.5277 -0.8503  0.0439
   73SLPC   C34 6477   5.005   5.611   5.652  0.3209 -0.1700 -0.1325
   73SLPC   H4X 6478   4.940   5.699   5.631  1.1331  0.8318  1.3951
   73SLPC   H4Y 6479   4.927   5.532   5.654 -1.2763  1.3485  0.5612
   73SLPC   C35 6480   5.111   5.586   5.544  0.1170 -0.2365 -0.1310
   73SLPC   H5X 6481   5.166   5.490   5.553  0.8232  0.0558 -1.1422
   73SLPC   H5Y 6482   5.185   5.668   5.547 -1.4296  1.2259  3.3029
   73SLPC   C36 6483   5.042   5.586   5.408  0.1708 -0.8862  0.2358
   73SLPC   H6X 6484   5.042   5.691   5.372  1.2971 -0.7651  0.5563
   73SLPC   H6Y 6485   4.935   5.555   5.419  0.6290 -2.5476  0.1939
   73SLPC   C37 6486   5.117   5.510   5.298  0.3398 -0.2524 -0.2281
   73SLPC   H7X 6487   5.212   5.469   5.340 -0.1641 -0.9433  0.2741
   73SLPC   H7Y 6488   5.153   5.571   5.213  1.0299 -0.5570 -0.1620
   73SLPC   C38 6489   5.042   5.391   5.241  0.3677 -0.2810  0.0119
   73SLPC   H8X 6490   4.938   5.429   5.243  0.2341 -0.6769  1.4771
   73SLPC   H8Y 6491   5.034   5.293   5.292 -0.4229 -1.8674 -2.9458
   73SLPC   C39 6492   5.090   5.356   5.102  0.1303  0.2209  0.6225
   73SLPC   H9X 6493   5.095   5.444   5.034  0.8414 -1.0588 -1.0627
   73SLPC   H9Y 6494   5.020   5.290   5.047  1.0291  0.1301 -0.4467
   73SLPC  C310 6495   5.239   5.295   5.093  0.7141 -0.4728  0.6666
   73SLPC  H10X 6496   5.238   5.200   5.149 -1.9446 -1.1712 -0.4008
   73SLPC  H10Y 6497   5.302   5.370   5.145 -2.8961  3.2360  0.3154
   73SLPC  C311 6498   5.271   5.251   4.952  0.5864 -0.1094  0.0742
   73SLPC  H11X 6499   5.196   5.175   4.922  0.6115  0.2648 -1.0028
   73SLPC  H11Y 6500   5.365   5.192   4.960 -0.7396 -2.3912 -0.2852
   73SLPC  C312 6501   5.271   5.371   4.854  0.8405 -0.3786 -0.3168
   73SLPC  H12X 6502   5.304   5.469   4.893 -0.3698 -0.5278  1.1493
   73SLPC  H12Y 6503   5.168   5.393   4.818  0.9551 -0.0709 -0.4641
   73SLPC  C313 6504   5.350   5.327   4.729 -0.2303 -0.6024  0.5742
   73SLPC  H13X 6505   5.315   5.228   4.692  0.1977 -0.4787 -0.1700
   73SLPC  H13Y 6506   5.456   5.317   4.763 -0.8090  0.2931  2.8018
   73SLPC  C314 6507   5.341   5.416   4.598 -0.1057  0.8701 -0.2249
   73SLPC  H14X 6508   5.235   5.433   4.571 -0.4425 -0.5431  0.1075
   73SLPC  H14Y 6509   5.380   5.358   4.512  0.7401 -0.6820  1.1364
   73SLPC  C315 6510   5.422   5.549   4.606  0.9421 -0.2503  0.5795
   73SLPC  H15X 6511   5.391   5.620   4.687  2.9891  1.4976 -0.0668
   73SLPC  H15Y 6512   5.403   5.586   4.503 -1.7466 -0.0458  1.0686
   73SLPC  C316 6513   5.575   5.536   4.616 -0.0048  0.4863  0.9577
   73SLPC  H16X 6514   5.616   5.528   4.514 -1.6637  0.0302  0.2952
   73SLPC  H16Y 6515   5.586   5.442   4.676  0.1088  0.3881  0.7825
   73SLPC  C317 6516   5.643   5.648   4.710 -0.4464  0.1231  0.1790
   73SLPC  H17X 6517   5.600   5.747   4.682 -2.2007 -0.4115  0.8507
   73SLPC  H17Y 6518   5.748   5.637   4.677  0.6398 -0.3197  3.4246
   73SLPC  C318 6519   5.645   5.632   4.861 -0.0885  0.5893  0.0328
   73SLPC  H18X 6520   5.540   5.637   4.895  0.5566  2.6821  1.9848
   73SLPC  H18Y 6521   5.701   5.710   4.917 -0.1703  0.4520  0.3059
   73SLPC  H18Z 6522   5.677   5.534   4.902  1.6238  1.2255  0.3272
   74SLPC     N 6523   2.692   6.137   6.760 -0.1433  0.0216  0.0024
   74SLPC   C13 6524   2.610   6.250   6.811 -0.5015  0.6011  0.6171
   74SLPC  H13A 6525   2.632   6.265   6.916  1.3517 -1.4251  0.5927
   74SLPC  H13B 6526   2.632   6.327   6.739  3.0973  0.1230  1.0262
   74SLPC  H13C 6527   2.504   6.231   6.804 -0.3590 -0.4881  1.1363
   74SLPC   C14 6528   2.645   6.090   6.625 -0.2019  0.3657 -0.6875
   74SLPC  H14A 6529   2.664   6.159   6.545  2.1091 -0.8254 -1.2344
   74SLPC  H14B 6530   2.682   5.996   6.588 -0.0447  1.0324 -2.3133
   74SLPC  H14C 6531   2.539   6.068   6.630  0.0988 -1.0238  0.0887
   74SLPC   C15 6532   2.678   6.024   6.858  0.5320 -0.0591 -0.2261
   74SLPC  H15A 6533   2.574   5.996   6.860  0.6263 -0.4875 -1.0389
   74SLPC  H15B 6534   2.734   5.935   6.832 -0.5829 -0.8754  0.1191
   74SLPC  H15C 6535   2.710   6.056   6.957 -1.0644  1.1141 -0.0598
   74SLPC   C12 6536   2.834   6.188   6.751 -0.2256  0.1692 -0.4122
   74SLPC  H12A 6537   2.857   6.237   6.844 -0.5429 -0.6541  0.1074
   74SLPC  H12B 6538   2.837   6.267   6.677  1.0547 -0.7557 -1.4035
   74SLPC   C11 6539   2.944   6.077   6.727  0.4097  0.3776 -0.7106
   74SLPC  H11A 6540   2.932   5.996   6.801 -3.7676  1.7154  0.3375
   74SLPC  H11B 6541   3.038   6.134   6.744 -0.2524  1.4012 -0.4000
   74SLPC     P 6542   3.003   6.087   6.475  0.2752 -0.0848 -0.0241
   74SLPC   O13 6543   2.969   6.233   6.484  0.2127 -0.0719 -0.6612
   74SLPC   O14 6544   3.144   6.056   6.444  0.4028  0.0507  0.3907
   74SLPC   O12 6545   2.960   6.011   6.603  0.2509 -0.3860  0.0148
   74SLPC   O11 6546   2.914   6.038   6.358  0.5108 -0.2153  0.7372
   74SLPC    C1 6547   2.956   6.024   6.217  0.0728 -0.2220 -0.4575
   74SLPC    HA 6548   3.061   6.054   6.199  0.5086 -2.2320 -1.5465
   74SLPC    HB 6549   2.965   5.917   6.187  2.5251 -0.1880 -0.0753
   74SLPC    C2 6550   2.865   6.102   6.121 -0.0003  0.5934 -0.3451
   74SLPC    HS 6551   2.897   6.208   6.128  0.9678  0.4973 -2.6160
   74SLPC   O21 6552   2.723   6.097   6.167 -0.5245  0.0111 -0.0682
   74SLPC   C21 6553   2.644   6.192   6.121  0.1856 -0.3884  1.0464
   74SLPC   O22 6554   2.675   6.277   6.042 -0.9057 -0.5447  0.5331
   74SLPC   C22 6555   2.514   6.162   6.194 -0.3767 -0.6421  0.1917
   74SLPC   H2R 6556   2.510   6.052   6.214  3.9710 -0.7884  1.4149
   74SLPC   H2S 6557   2.522   6.214   6.292  1.0212 -0.9207  0.2534
   74SLPC    C3 6558   2.877   6.052   5.973 -0.2770 -0.2414 -0.1847
   74SLPC    HX 6559   2.821   6.114   5.900  2.4770 -0.6892 -2.8823
   74SLPC    HY 6560   2.820   5.957   5.968  0.8445 -1.0628  1.6160
   74SLPC   O31 6561   3.018   6.038   5.934  0.2531 -0.1188 -0.9502
   74SLPC   C31 6562   3.026   6.015   5.801 -0.1289  0.1235 -0.3396
   74SLPC   O32 6563   2.932   6.017   5.726 -0.3256 -0.7202 -0.7081
   74SLPC   C32 6564   3.167   5.977   5.765 -0.2498 -0.3685 -0.1868
   74SLPC   H2X 6565   3.199   5.901   5.839 -0.3346  0.9128  1.2291
   74SLPC   H2Y 6566   3.233   6.064   5.789  1.2753 -1.1189 -1.4472
   74SLPC   C23 6567   2.399   6.231   6.125  1.3190 -0.5752  0.4999
   74SLPC   H3R 6568   2.432   6.335   6.105  0.8640 -0.4610  0.3462
   74SLPC   H3S 6569   2.322   6.233   6.205  1.2472  1.5819  0.4491
   74SLPC   C24 6570   2.343   6.161   6.000  0.4066 -0.2202 -0.1595
   74SLPC   H4R 6571   2.237   6.193   5.994 -0.2761 -2.2929 -0.0350
   74SLPC   H4S 6572   2.334   6.050   6.010 -1.9715 -0.2578 -1.8360
   74SLPC   C25 6573   2.405   6.218   5.870  0.4445 -1.0158  0.6516
   74SLPC   H5R 6574   2.516   6.217   5.876  0.4384 -1.2996  0.7670
   74SLPC   H5S 6575   2.368   6.322   5.859  1.4589 -0.7551 -0.5805
   74SLPC   C26 6576   2.371   6.124   5.748  0.6761 -0.3550 -0.0421
   74SLPC   H6R 6577   2.265   6.094   5.756  1.1921 -2.5602 -0.9132
   74SLPC   H6S 6578   2.421   6.025   5.752 -1.6201 -1.5684  0.7027
   74SLPC   C27 6579   2.408   6.180   5.603  0.4907 -0.0609 -0.3321
   74SLPC   H7R 6580   2.367   6.107   5.530  0.7240  0.0912 -0.6132
   74SLPC   H7S 6581   2.517   6.172   5.587  0.2132 -1.2731 -1.9605
   74SLPC   C28 6582   2.355   6.321   5.573  0.0873 -0.2881  0.4182
   74SLPC   H8R 6583   2.403   6.360   5.481 -0.1294 -1.1507 -0.0792
   74SLPC   H8S 6584   2.386   6.392   5.652 -2.2791  0.8610  0.3906
   74SLPC   C29 6585   2.208   6.311   5.565  0.2125 -0.2434  0.6227
   74SLPC   H9R 6586   2.155   6.313   5.662 -1.1639 -1.0274 -0.0842
   74SLPC  C210 6587   2.135   6.283   5.455  0.4041  0.5327 -0.0725
   74SLPC  H10R 6588   2.027   6.271   5.470  0.7969 -1.4410  1.7499
   74SLPC  C211 6589   2.193   6.262   5.315 -0.3090  0.2725  0.1097
   74SLPC  H11R 6590   2.150   6.173   5.264 -0.5469 -1.2798  2.8007
   74SLPC  H11S 6591   2.302   6.241   5.321 -0.6001 -1.2202  0.5191
   74SLPC  C212 6592   2.179   6.377   5.220 -0.3215 -0.4502  0.6476
   74SLPC  H12R 6593   2.151   6.471   5.270 -0.8537  0.0091 -0.4875
   74SLPC  C213 6594   2.215   6.385   5.091 -0.5414  0.0263 -0.1234
   74SLPC  H13R 6595   2.204   6.485   5.047 -0.1351  0.2232  0.2070
   74SLPC  C214 6596   2.265   6.274   5.009  0.4272 -0.6253  0.0736
   74SLPC  H14R 6597   2.281   6.181   5.066 -1.4110  0.0923  1.9047
   74SLPC  H14S 6598   2.368   6.292   4.972  0.3007  0.9172  0.3733
   74SLPC  C215 6599   2.180   6.249   4.877 -0.0159  0.5127  0.5101
   74SLPC  H15R 6600   2.093   6.191   4.914 -0.5518  2.3743  2.3808
   74SLPC  H15S 6601   2.240   6.182   4.812 -1.0317 -1.4493  1.4973
   74SLPC  C216 6602   2.145   6.368   4.780  0.9688  0.2966  0.0925
   74SLPC  H16R 6603   2.050   6.415   4.810  0.4418 -1.6448  1.6377
   74SLPC  H16S 6604   2.109   6.329   4.682 -0.9936  0.6911  0.6320
   74SLPC  C217 6605   2.253   6.473   4.752 -0.0071 -0.2987  0.2145
   74SLPC  H17R 6606   2.272   6.547   4.832  0.0797 -2.5527  2.3997
   74SLPC  H17S 6607   2.220   6.529   4.661 -0.7824  0.5454  0.9916
   74SLPC  C218 6608   2.396   6.417   4.721 -0.6776 -0.3857  0.0098
   74SLPC  H18R 6609   2.392   6.327   4.656  1.0391 -0.6591  0.2245
   74SLPC  H18S 6610   2.435   6.372   4.815  0.6760 -0.4689 -0.5688
   74SLPC  H18T 6611   2.462   6.493   4.674 -1.9599 -0.8412 -2.7281
   74SLPC   C33 6612   3.196   5.947   5.617  0.1353 -0.2920  0.1255
   74SLPC   H3X 6613   3.194   6.043   5.562  1.4267 -0.8034 -0.8814
   74SLPC   H3Y 6614   3.108   5.894   5.576 -0.1131  1.4982 -1.7667
   74SLPC   C34 6615   3.316   5.853   5.579  0.3807 -0.6422  0.1371
   74SLPC   H4X 6616   3.280   5.753   5.544 -2.3120  0.1534  0.3709
   74SLPC   H4Y 6617   3.381   5.835   5.666  1.4275 -1.9912 -0.8714
   74SLPC   C35 6618   3.412   5.920   5.478  0.1301 -0.3883  0.4510
   74SLPC   H5X 6619   3.519   5.888   5.484  0.2088  0.1629  2.7968
   74SLPC   H5Y 6620   3.407   6.028   5.503 -0.6709 -0.1983 -0.4776
   74SLPC   C36 6621   3.365   5.899   5.328 -0.5628 -0.3588  0.5428
   74SLPC   H6X 6622   3.255   5.909   5.322 -0.5297  0.6943  1.4337
   74SLPC   H6Y 6623   3.395   5.798   5.293  1.6700  0.9464 -1.6319
   74SLPC   C37 6624   3.428   5.998   5.223  0.5124  0.3516 -0.1559
   74SLPC   H7X 6625   3.538   5.981   5.211  0.6284  2.0083 -2.2663
   74SLPC   H7Y 6626   3.415   6.102   5.259 -0.2019  0.2592 -0.1445
   74SLPC   C38 6627   3.361   5.969   5.088 -0.0292 -0.1204  0.0929
   74SLPC   H8X 6628   3.257   6.006   5.085 -0.8288 -2.2665 -1.4975
   74SLPC   H8Y 6629   3.355   5.858   5.080  0.0266 -0.0334 -1.6119
   74SLPC   C39 6630   3.439   6.037   4.976  0.0876 -0.2039 -1.0992
   74SLPC   H9X 6631   3.546   6.009   4.987  0.5416  1.7650 -0.1315
   74SLPC   H9Y 6632   3.426   6.147   4.989  0.8253 -0.0889 -1.2967
   74SLPC  C310 6633   3.384   5.995   4.832 -0.2106  0.2079 -0.0501
   74SLPC  H10X 6634   3.290   6.043   4.798  0.4849  0.0125 -2.4598
   74SLPC  H10Y 6635   3.362   5.887   4.839  1.0986 -0.1256 -0.6331
   74SLPC  C311 6636   3.493   6.021   4.721  0.4057  0.4045 -0.0777
   74SLPC  H11X 6637   3.578   5.957   4.752  0.0990 -0.8480 -1.6393
   74SLPC  H11Y 6638   3.527   6.125   4.736  0.6604  0.2899  0.1336
   74SLPC  C312 6639   3.467   5.985   4.569 -0.2632  0.3457 -0.4743
   74SLPC  H12X 6640   3.419   5.885   4.572 -0.5976  0.4976 -0.6690
   74SLPC  H12Y 6641   3.569   5.976   4.528  1.4792 -0.3707  3.6068
   74SLPC  C313 6642   3.383   6.087   4.490 -0.1529  0.0464  0.1277
   74SLPC  H13X 6643   3.366   6.050   4.387 -0.8970  1.0928 -0.1351
   74SLPC  H13Y 6644   3.446   6.179   4.482  0.2738 -0.0450  1.8601
   74SLPC  C314 6645   3.243   6.108   4.556  0.3551 -0.0216 -0.3766
   74SLPC  H14X 6646   3.254   6.159   4.654 -3.1595 -2.0184  1.2537
   74SLPC  H14Y 6647   3.192   6.014   4.584  1.8326 -0.5928  0.4645
   74SLPC  C315 6648   3.143   6.203   4.480  0.2675  0.0863  0.9632
   74SLPC  H15X 6649   3.177   6.302   4.442 -3.4109  0.6382 -1.4107
   74SLPC  H15Y 6650   3.050   6.220   4.538 -0.4172 -0.2010 -0.0246
   74SLPC  C316 6651   3.090   6.121   4.352  0.2639 -0.4885 -0.6485
   74SLPC  H16X 6652   3.038   6.031   4.390 -0.5894 -1.6989 -4.3143
   74SLPC  H16Y 6653   3.171   6.081   4.287 -0.8005 -0.0752 -2.2653
   74SLPC  C317 6654   2.994   6.211   4.271  0.2040 -0.2563  0.0818
   74SLPC  H17X 6655   3.046   6.306   4.244 -1.2670  0.5214 -0.1316
   74SLPC  H17Y 6656   2.909   6.249   4.332 -0.0359  0.0207 -0.4155
   74SLPC  C318 6657   2.933   6.150   4.148 -0.2337 -0.0731 -0.9194
   74SLPC  H18X 6658   2.867   6.074   4.194  0.1124 -0.5919 -1.2714
   74SLPC  H18Y 6659   3.015   6.113   4.084  1.0799  0.2335  0.5304
   74SLPC  H18Z 6660   2.885   6.222   4.078 -1.0307 -0.6464 -0.9761
   75SLPC     N 6661   5.663   4.370   6.698 -0.3788 -0.6016 -0.1244
   75SLPC   C13 6662   5.647   4.231   6.745 -0.8249  0.3765 -0.0243
   75SLPC  H13A 6663   5.734   4.170   6.726 -0.0881  0.9600  1.3316
   75SLPC  H13B 6664   5.636   4.221   6.852 -0.5916  0.2764 -0.0092
   75SLPC  H13C 6665   5.567   4.180   6.692  1.9798 -2.0551 -2.2725
   75SLPC   C14 6666   5.764   4.437   6.785 -0.3251 -0.5357 -0.0822
   75SLPC  H14A 6667   5.864   4.398   6.768 -1.2143 -2.4897 -1.1340
   75SLPC  H14B 6668   5.753   4.541   6.761  0.2341 -0.9832 -2.5234
   75SLPC  H14C 6669   5.742   4.417   6.889 -0.7933 -2.1323 -0.4573
   75SLPC   C15 6670   5.540   4.448   6.713  0.4420 -0.1000  0.0764
   75SLPC  H15A 6671   5.562   4.552   6.690  0.5480  0.0946  1.0163
   75SLPC  H15B 6672   5.469   4.409   6.642 -1.0623  0.5167  1.1943
   75SLPC  H15C 6673   5.504   4.444   6.815  0.3014 -0.6461  0.0091
   75SLPC   C12 6674   5.714   4.371   6.555  0.6172  1.0680  0.2129
   75SLPC  H12A 6675   5.809   4.321   6.554 -0.2688 -0.7049  0.8131
   75SLPC  H12B 6676   5.730   4.478   6.546 -1.4505  1.6978  2.7266
   75SLPC   C11 6677   5.618   4.319   6.445 -0.2720 -0.2295  0.4063
   75SLPC  H11A 6678   5.575   4.221   6.476  0.4049 -0.9460 -0.8756
   75SLPC  H11B 6679   5.682   4.305   6.356 -0.6263 -0.2193  0.1468
   75SLPC     P 6680   5.504   4.543   6.370 -0.1458 -0.1710 -0.0470
   75SLPC   O13 6681   5.368   4.604   6.388 -0.5770 -0.4013  0.3059
   75SLPC   O14 6682   5.622   4.612   6.434  0.0756  0.9086 -0.1485
   75SLPC   O12 6683   5.498   4.399   6.426  0.4130 -0.4690 -0.3580
   75SLPC   O11 6684   5.538   4.532   6.213  0.1574 -0.3339  0.3429
   75SLPC    C1 6685   5.491   4.428   6.126  0.0160 -0.9090 -0.8553
   75SLPC    HA 6686   5.579   4.375   6.082  2.1276  0.1906  1.7030
   75SLPC    HB 6687   5.442   4.344   6.180  0.9909 -1.0170 -0.1050
   75SLPC    C2 6688   5.398   4.473   6.016  0.0961  0.4866 -1.2129
   75SLPC    HS 6689   5.351   4.391   5.957  0.4740  2.3916 -4.4016
   75SLPC   O21 6690   5.470   4.559   5.934  0.1960  0.4592 -0.7290
   75SLPC   C21 6691   5.525   4.497   5.834  0.1376  0.1772  0.8424
   75SLPC   O22 6692   5.537   4.376   5.821  0.2301 -0.1046 -0.1650
   75SLPC   C22 6693   5.588   4.609   5.739 -0.5078  0.4921 -0.1772
   75SLPC   H2R 6694   5.516   4.693   5.738 -1.3287 -0.1961 -0.0048
   75SLPC   H2S 6695   5.684   4.645   5.782 -0.6359  1.6633 -0.8326
   75SLPC    C3 6696   5.280   4.540   6.069 -0.5223  0.3694  0.2534
   75SLPC    HX 6697   5.311   4.639   6.110 -1.0089  1.1837 -1.2546
   75SLPC    HY 6698   5.246   4.480   6.156 -1.5792 -1.0602 -1.0866
   75SLPC   O31 6699   5.175   4.558   5.972 -0.5234 -0.2788 -0.2701
   75SLPC   C31 6700   5.070   4.627   6.014 -0.2678  0.2855 -0.7398
   75SLPC   O32 6701   5.056   4.683   6.125 -0.7174 -0.2744  0.6057
   75SLPC   C32 6702   4.964   4.617   5.903 -0.3545  0.2149 -0.5301
   75SLPC   H2X 6703   5.001   4.667   5.811  0.5515  1.0824  0.2778
   75SLPC   H2Y 6704   4.887   4.682   5.950  1.3923 -0.0395  3.0076
   75SLPC   C23 6705   5.621   4.559   5.600  0.3758 -0.9588 -0.6518
   75SLPC   H3R 6706   5.704   4.485   5.604  0.3865 -0.9303 -0.3734
   75SLPC   H3S 6707   5.660   4.643   5.538  1.4446 -0.1472  1.0690
   75SLPC   C24 6708   5.492   4.496   5.533 -0.2003  0.1824  0.3098
   75SLPC   H4R 6709   5.406   4.537   5.589 -0.9547 -1.3069  0.2994
   75SLPC   H4S 6710   5.492   4.386   5.552  1.2419 -0.0653 -0.8651
   75SLPC   C25 6711   5.478   4.518   5.384 -0.3789  0.4337  0.2486
   75SLPC   H5R 6712   5.450   4.623   5.362 -0.8593  0.5319  1.2666
   75SLPC   H5S 6713   5.387   4.463   5.354 -0.9651 -0.4951  3.3861
   75SLPC   C26 6714   5.599   4.473   5.304  0.3007  0.3695  0.1617
   75SLPC   H6R 6715   5.622   4.374   5.350 -0.5778  1.1468  2.4295
   75SLPC   H6S 6716   5.688   4.536   5.324  2.0440 -2.2967  1.5319
   75SLPC   C27 6717   5.556   4.485   5.155  0.5295  0.2123  0.1356
   75SLPC   H7R 6718   5.537   4.594   5.143 -3.8083 -0.4547 -0.6919
   75SLPC   H7S 6719   5.466   4.425   5.127  0.6585 -0.1844  0.5770
   75SLPC   C28 6720   5.673   4.446   5.060  0.1454 -0.6257 -0.5460
   75SLPC   H8R 6721   5.693   4.337   5.067 -2.0267 -0.9790  0.8573
   75SLPC   H8S 6722   5.765   4.506   5.079 -0.7044  1.3201 -2.1945
   75SLPC   C29 6723   5.634   4.467   4.912 -0.2590  0.3071  0.1181
   75SLPC   H9R 6724   5.597   4.568   4.888  1.6226  0.9667 -0.1200
   75SLPC  C210 6725   5.669   4.397   4.804 -0.1799 -0.6610 -0.3602
   75SLPC  H10R 6726   5.631   4.427   4.705  0.9224 -1.1225 -0.9360
   75SLPC  C211 6727   5.751   4.271   4.812  0.3223  0.5092 -0.0451
   75SLPC  H11R 6728   5.683   4.186   4.836  2.2963 -2.0210 -2.7035
   75SLPC  H11S 6729   5.815   4.272   4.902 -1.3636 -0.6063  1.2480
   75SLPC  C212 6730   5.838   4.234   4.697  0.2129 -0.3772  0.1992
   75SLPC  H12R 6731   5.930   4.293   4.700 -1.2663  2.0903 -0.5825
   75SLPC  C213 6732   5.823   4.150   4.593 -0.2195 -0.1505  0.3722
   75SLPC  H13R 6733   5.905   4.143   4.520 -1.0961  1.5966 -0.8670
   75SLPC  C214 6734   5.721   4.046   4.571  0.5846 -0.4670  0.1508
   75SLPC  H14R 6735   5.658   4.073   4.483  1.6062 -0.9498 -0.7571
   75SLPC  H14S 6736   5.655   4.043   4.660 -0.4036 -2.2392 -0.5903
   75SLPC  C215 6737   5.778   3.907   4.554  0.2107  0.0083  0.4480
   75SLPC  H15R 6738   5.699   3.832   4.572 -3.0932  2.9859 -0.4344
   75SLPC  H15S 6739   5.860   3.886   4.626 -1.0644 -1.6607  1.4477
   75SLPC  C216 6740   5.820   3.873   4.407 -0.6847  0.3114  0.3949
   75SLPC  H16R 6741   5.886   3.951   4.364 -0.5811 -0.4585 -0.8860
   75SLPC  H16S 6742   5.727   3.858   4.348 -0.0600  1.6317 -0.9808
   75SLPC  C217 6743   5.906   3.751   4.397 -0.2378  0.0267 -0.5477
   75SLPC  H17R 6744   5.861   3.664   4.449  1.6792 -1.1501 -0.7800
   75SLPC  H17S 6745   6.001   3.756   4.454  0.0219 -0.5890 -0.9171
   75SLPC  C218 6746   5.941   3.698   4.261  0.3501  0.2647  0.4753
   75SLPC  H18R 6747   6.006   3.771   4.207 -0.5195  0.0047 -0.9665
   75SLPC  H18S 6748   5.841   3.702   4.214 -0.0569  0.2373  1.3367
   75SLPC  H18T 6749   5.984   3.596   4.260  0.6579  0.3820 -1.1511
   75SLPC   C33 6750   4.911   4.476   5.871 -0.2253 -0.1561  0.5485
   75SLPC   H3X 6751   4.868   4.418   5.956 -0.1193 -0.1699  0.5929
   75SLPC   H3Y 6752   4.995   4.408   5.846 -1.4984 -1.6242  0.0768
   75SLPC   C34 6753   4.818   4.475   5.748  0.2074  0.0608  0.2589
   75SLPC   H4X 6754   4.876   4.524   5.667  1.7991  0.7057  1.7468
   75SLPC   H4Y 6755   4.728   4.536   5.774 -0.0493  0.1261 -0.7318
   75SLPC   C35 6756   4.775   4.344   5.686 -0.2814 -0.0574  0.3748
   75SLPC   H5X 6757   4.670   4.336   5.720 -0.6582 -1.9518 -1.0814
   75SLPC   H5Y 6758   4.842   4.269   5.733  0.7427  1.2103  1.0208
   75SLPC   C36 6759   4.774   4.343   5.535  0.3447 -0.3162 -0.2208
   75SLPC   H6X 6760   4.868   4.380   5.491  1.2995 -0.6214  1.4774
   75SLPC   H6Y 6761   4.690   4.406   5.498 -1.1762 -1.8605  0.4101
   75SLPC   C37 6762   4.736   4.200   5.484 -0.1175 -0.6243 -0.3350
   75SLPC   H7X 6763   4.654   4.157   5.545 -0.1342 -2.3023 -1.4979
   75SLPC   H7Y 6764   4.829   4.139   5.491  0.9537  0.9430 -0.3176
   75SLPC   C38 6765   4.682   4.194   5.341  0.0028 -0.0288 -0.3321
   75SLPC   H8X 6766   4.615   4.282   5.330  0.6383  0.8896  2.2884
   75SLPC   H8Y 6767   4.616   4.105   5.337 -1.6399  1.0749  0.7228
   75SLPC   C39 6768   4.782   4.199   5.229 -0.1929  0.0654  0.0698
   75SLPC   H9X 6769   4.873   4.137   5.249 -0.5208 -0.1424  0.9591
   75SLPC   H9Y 6770   4.828   4.298   5.209  0.5448 -0.1642  0.5786
   75SLPC  C310 6771   4.724   4.136   5.105  0.1736 -0.2036  0.1129
   75SLPC  H10X 6772   4.645   4.202   5.064  1.6635  1.5362 -0.0714
   75SLPC  H10Y 6773   4.678   4.039   5.135  0.1014  0.0979  1.0332
   75SLPC  C311 6774   4.824   4.103   4.999 -0.0463 -1.2594  0.4894
   75SLPC  H11X 6775   4.910   4.040   5.029  0.5908 -0.3796  0.5418
   75SLPC  H11Y 6776   4.876   4.201   4.989 -0.1209 -0.9313  2.7989
   75SLPC  C312 6777   4.769   4.063   4.862  0.5121  0.1769  0.3155
   75SLPC  H12X 6778   4.690   4.128   4.819 -0.5751 -1.0809  0.3378
   75SLPC  H12Y 6779   4.717   3.965   4.873  0.7863  0.1407  1.4798
   75SLPC  C313 6780   4.878   4.047   4.756 -0.4152  0.0780 -0.3737
   75SLPC  H13X 6781   4.969   3.998   4.797 -1.7726 -0.3966  2.2432
   75SLPC  H13Y 6782   4.905   4.150   4.723 -0.4024  1.1283  2.6079
   75SLPC  C314 6783   4.823   3.977   4.636 -0.3233  0.2346 -0.3033
   75SLPC  H14X 6784   4.728   4.028   4.608  0.2957  1.3346 -0.4673
   75SLPC  H14Y 6785   4.796   3.870   4.648 -0.7501  0.0930 -2.1477
   75SLPC  C315 6786   4.914   3.993   4.516 -0.4447 -0.2433 -0.7547
   75SLPC  H15X 6787   5.018   3.956   4.528  0.2645  1.7587 -0.3238
   75SLPC  H15Y 6788   4.922   4.104   4.506 -1.1596 -0.2910 -2.0162
   75SLPC  C316 6789   4.850   3.946   4.392  0.0672  0.0900 -0.2733
   75SLPC  H16X 6790   4.818   4.038   4.338  0.1807  1.3924  1.7729
   75SLPC  H16Y 6791   4.749   3.902   4.408 -0.3495  0.7830 -0.8698
   75SLPC  C317 6792   4.930   3.850   4.304  0.3470  0.1600  0.2546
   75SLPC  H17X 6793   5.011   3.916   4.267 -0.0920  1.2790  1.2053
   75SLPC  H17Y 6794   4.882   3.825   4.207  2.1842 -1.7570 -0.2325
   75SLPC  C318 6795   4.954   3.728   4.379 -1.3920 -0.1442 -0.2633
   75SLPC  H18X 6796   5.007   3.657   4.312 -1.2918  1.9081 -2.5171
   75SLPC  H18Y 6797   4.856   3.696   4.422 -1.2877  0.2918  0.3116
   75SLPC  H18Z 6798   5.019   3.747   4.466 -1.7692  0.4171 -0.0935
   76SLPC     N 6799   5.939   6.245   6.414  0.4447 -0.3227 -0.1657
   76SLPC   C13 6800   5.797   6.287   6.401 -0.5663  0.4528  0.1588
   76SLPC  H13A 6801   5.726   6.227   6.456  0.7339 -1.4986 -0.1767
   76SLPC  H13B 6802   5.781   6.390   6.428 -0.8421  0.5992 -0.5515
   76SLPC  H13C 6803   5.767   6.280   6.297 -1.5274  0.1415  0.4448
   76SLPC   C14 6804   5.991   6.249   6.553  0.5143  0.1854  0.5040
   76SLPC  H14A 6805   6.080   6.190   6.569  1.4172  0.3198 -3.1686
   76SLPC  H14B 6806   6.003   6.351   6.586 -0.7866 -0.0481  1.8097
   76SLPC  H14C 6807   5.917   6.207   6.619  0.5239  0.6757  0.8324
   76SLPC   C15 6808   6.023   6.343   6.330  0.6446 -0.1114  0.5347
   76SLPC  H15A 6809   6.017   6.445   6.365 -0.6789  0.1396 -0.3161
   76SLPC  H15B 6810   6.128   6.315   6.329  1.7442  3.3968  2.5326
   76SLPC  H15C 6811   5.983   6.341   6.229 -1.1199 -0.5629  1.2181
   76SLPC   C12 6812   5.956   6.100   6.360 -0.8474 -0.2369 -0.0619
   76SLPC  H12A 6813   5.896   6.096   6.271 -0.6750 -1.5733 -0.1357
   76SLPC  H12B 6814   5.913   6.026   6.426  0.1261  0.6011  1.5861
   76SLPC   C11 6815   6.101   6.050   6.322  0.1224 -0.3296 -0.5192
   76SLPC  H11A 6816   6.142   6.114   6.241  2.8989 -2.0047 -0.5410
   76SLPC  H11B 6817   6.086   5.949   6.280  1.4177 -1.7385  2.1971
   76SLPC     P 6818   6.192   5.933   6.532  0.1889 -0.1160 -0.7417
   76SLPC   O13 6819   6.321   5.854   6.512  0.1358 -0.6972 -0.5386
   76SLPC   O14 6820   6.181   5.979   6.673 -0.0339 -0.0620  0.1346
   76SLPC   O12 6821   6.190   6.053   6.438  0.2344  0.2629  0.5546
   76SLPC   O11 6822   6.068   5.841   6.496 -0.1775  0.0098 -0.0258
   76SLPC    C1 6823   6.090   5.698   6.466 -0.0928 -0.6241  0.0062
   76SLPC    HA 6824   6.196   5.672   6.485  0.3468  1.8918  1.3091
   76SLPC    HB 6825   6.041   5.628   6.537  0.7922 -1.6524 -0.3583
   76SLPC    C2 6826   6.058   5.655   6.319 -0.4607 -0.0795  0.0891
   76SLPC    HS 6827   6.069   5.546   6.308 -1.4391  0.0697 -3.7602
   76SLPC   O21 6828   6.143   5.728   6.225  0.5776 -0.7193 -0.1681
   76SLPC   C21 6829   6.276   5.695   6.223  0.6072 -0.6914  0.5133
   76SLPC   O22 6830   6.332   5.619   6.301  0.5296 -0.1325  0.5416
   76SLPC   C22 6831   6.340   5.784   6.111  0.0860 -0.2330  0.3430
   76SLPC   H2R 6832   6.337   5.894   6.124  0.9782  0.1657 -2.2364
   76SLPC   H2S 6833   6.446   5.750   6.111  0.2647  0.2449  1.9650
   76SLPC    C3 6834   5.906   5.692   6.298 -0.3301 -0.1861  0.4789
   76SLPC    HX 6835   5.893   5.799   6.327  0.2139 -0.4092  1.6264
   76SLPC    HY 6836   5.844   5.646   6.378  0.7750 -1.6078  0.5652
   76SLPC   O31 6837   5.866   5.692   6.160  0.5015  0.1346  0.4471
   76SLPC   C31 6838   5.878   5.577   6.103 -0.2602 -0.1703  0.4716
   76SLPC   O32 6839   5.905   5.470   6.152  0.0903  0.4076 -0.3978
   76SLPC   C32 6840   5.873   5.607   5.946 -0.2854  0.2369 -0.1278
   76SLPC   H2X 6841   5.941   5.688   5.913 -2.3363  1.7787 -0.8529
   76SLPC   H2Y 6842   5.772   5.654   5.937  1.1800  3.5235 -0.9271
   76SLPC   C23 6843   6.269   5.746   5.964 -0.4111 -0.0120 -0.3538
   76SLPC   H3R 6844   6.167   5.788   5.976  0.0337  0.6785  1.3031
   76SLPC   H3S 6845   6.269   5.635   5.953  2.1566  0.0996 -2.7751
   76SLPC   C24 6846   6.340   5.806   5.841  0.3772 -0.7443 -0.8705
   76SLPC   H4R 6847   6.449   5.806   5.864  0.4586  0.3041 -1.2011
   76SLPC   H4S 6848   6.311   5.912   5.856  1.9905 -0.5139  1.1276
   76SLPC   C25 6849   6.303   5.738   5.709 -0.2732  0.1831  0.1318
   76SLPC   H5R 6850   6.192   5.734   5.706 -0.2688  0.3306 -1.6916
   76SLPC   H5S 6851   6.334   5.632   5.718  0.6090  0.4346  0.0867
   76SLPC   C26 6852   6.369   5.805   5.589 -0.3351 -0.0402  0.1685
   76SLPC   H6R 6853   6.479   5.818   5.599 -0.4944  1.3817  0.2326
   76SLPC   H6S 6854   6.330   5.908   5.597 -0.2191 -0.0262  0.5551
   76SLPC   C27 6855   6.329   5.731   5.460 -0.1778 -0.3930  0.1246
   76SLPC   H7R 6856   6.221   5.750   5.445 -0.1844 -1.3174 -1.2198
   76SLPC   H7S 6857   6.334   5.621   5.473  0.7801 -0.1366  2.4741
   76SLPC   C28 6858   6.408   5.760   5.329  0.3052  0.1369  0.3506
   76SLPC   H8R 6859   6.361   5.723   5.236  1.4239  0.6147 -0.4260
   76SLPC   H8S 6860   6.505   5.706   5.331  0.9720  1.3060  2.2140
   76SLPC   C29 6861   6.427   5.911   5.310 -0.2288  0.3783  0.2299
   76SLPC   H9R 6862   6.403   5.983   5.390  1.5523  1.0035  0.2353
   76SLPC  C210 6863   6.479   5.969   5.195  0.2519  0.1432 -0.5523
   76SLPC  H10R 6864   6.483   6.078   5.180  0.3439  0.1115 -0.7770
   76SLPC  C211 6865   6.509   5.893   5.062  0.5235 -0.1788 -0.0872
   76SLPC  H11R 6866   6.513   5.960   4.974 -0.6029 -0.0717 -0.0697
   76SLPC  H11S 6867   6.416   5.839   5.032  0.6397 -0.2029 -0.4035
   76SLPC  C212 6868   6.618   5.792   5.056 -0.4920  0.0326 -0.1309
   76SLPC  H12R 6869   6.646   5.746   5.152  0.2631  0.2013 -0.2651
   76SLPC  C213 6870   6.680   5.734   4.956  0.1712 -0.1977 -0.3953
   76SLPC  H13R 6871   6.758   5.660   4.981  0.8681  0.7681  0.3542
   76SLPC  C214 6872   6.650   5.766   4.811  0.7833 -0.5287 -0.1217
   76SLPC  H14R 6873   6.739   5.827   4.783 -0.6355  2.3990  1.2822
   76SLPC  H14S 6874   6.570   5.843   4.809  0.5447 -0.7702  0.1193
   76SLPC  C215 6875   6.636   5.654   4.702 -0.0080 -0.0936 -0.1254
   76SLPC  H15R 6876   6.562   5.582   4.744 -0.3005 -0.2985 -0.9658
   76SLPC  H15S 6877   6.726   5.589   4.702  0.3743  0.4362 -0.2277
   76SLPC  C216 6878   6.613   5.706   4.559  0.5179  0.5170 -0.6581
   76SLPC  H16R 6879   6.675   5.797   4.541 -0.5108  1.7767  1.6804
   76SLPC  H16S 6880   6.506   5.735   4.546 -0.1430  0.8388  3.7976
   76SLPC  C217 6881   6.645   5.610   4.437  0.3896  0.7719 -0.2107
   76SLPC  H17R 6882   6.563   5.535   4.432  0.5633  0.4560  1.0761
   76SLPC  H17S 6883   6.737   5.558   4.472 -1.6623 -1.2407  2.7610
   76SLPC  C218 6884   6.680   5.677   4.300 -0.4003  0.0992  0.6527
   76SLPC  H18R 6885   6.674   5.603   4.217  2.3490  0.0959  0.3571
   76SLPC  H18S 6886   6.788   5.706   4.300  0.5562 -2.9407 -1.3481
   76SLPC  H18T 6887   6.620   5.766   4.272 -1.0080 -0.6904 -0.6516
   76SLPC   C33 6888   5.865   5.494   5.857 -0.4194  0.6990  0.3847
   76SLPC   H3X 6889   5.836   5.509   5.751 -0.7170 -1.4073  0.1170
   76SLPC   H3Y 6890   5.792   5.422   5.900  2.4095 -0.5797  3.4990
   76SLPC   C34 6891   6.011   5.431   5.854 -0.2278  0.2661 -0.0859
   76SLPC   H4X 6892   6.031   5.382   5.951  1.6619 -1.2748 -1.1841
   76SLPC   H4Y 6893   6.080   5.518   5.850 -1.0676  1.0229  1.0914
   76SLPC   C35 6894   6.036   5.342   5.734  0.3407 -0.7163 -0.1926
   76SLPC   H5X 6895   5.940   5.288   5.725 -0.0559 -0.0579 -0.0046
   76SLPC   H5Y 6896   6.108   5.267   5.773 -2.2362 -2.2874  1.9053
   76SLPC   C36 6897   6.080   5.412   5.602  0.0649  0.8994 -0.3556
   76SLPC   H6X 6898   6.180   5.457   5.614 -1.1281  3.7601 -0.3768
   76SLPC   H6Y 6899   6.014   5.498   5.578 -2.6444 -0.7436  0.7247
   76SLPC   C37 6900   6.077   5.320   5.480  0.6587 -0.4775 -0.1673
   76SLPC   H7X 6901   6.088   5.399   5.403 -2.3820  1.2131  0.9681
   76SLPC   H7Y 6902   5.978   5.271   5.473  0.9928 -1.3167  0.7685
   76SLPC   C38 6903   6.196   5.220   5.467  0.2965  0.0848  0.2986
   76SLPC   H8X 6904   6.145   5.121   5.467 -2.1406  1.2251 -0.9937
   76SLPC   H8Y 6905   6.264   5.231   5.554 -0.1583 -0.8911  0.8029
   76SLPC   C39 6906   6.271   5.250   5.337 -0.7291 -0.0351  0.9390
   76SLPC   H9X 6907   6.372   5.203   5.335 -0.7489 -0.0621  0.0658
   76SLPC   H9Y 6908   6.291   5.359   5.331  0.7674 -0.2870  0.7016
   76SLPC  C310 6909   6.203   5.199   5.210  0.1635 -0.2006 -0.3338
   76SLPC  H10X 6910   6.130   5.280   5.191  0.5088  0.2332  0.1673
   76SLPC  H10Y 6911   6.147   5.106   5.235 -1.6331  0.9050 -0.0761
   76SLPC  C311 6912   6.304   5.191   5.095 -0.5954 -0.1436  0.1678
   76SLPC  H11X 6913   6.392   5.135   5.134 -0.1535 -1.0516 -1.9549
   76SLPC  H11Y 6914   6.348   5.289   5.065  2.4082 -0.9005  1.6901
   76SLPC  C312 6915   6.257   5.128   4.964  0.1280  0.0897  0.1641
   76SLPC  H12X 6916   6.171   5.060   4.984  0.5389  0.2679  2.9875
   76SLPC  H12Y 6917   6.341   5.079   4.911  1.4499  0.3169  1.9600
   76SLPC  C313 6918   6.194   5.231   4.865 -0.3854  1.0341 -0.2174
   76SLPC  H13X 6919   6.269   5.312   4.858 -0.1115  0.7084 -1.1169
   76SLPC  H13Y 6920   6.097   5.269   4.903 -0.6645  0.6452 -0.5364
   76SLPC  C314 6921   6.160   5.159   4.731  0.0431 -0.3581 -0.2149
   76SLPC  H14X 6922   6.085   5.077   4.738 -0.7427  0.2048 -1.6620
   76SLPC  H14Y 6923   6.263   5.130   4.701  0.0164 -0.4513 -0.2163
   76SLPC  C315 6924   6.097   5.262   4.630 -0.2848  0.7685 -0.4463
   76SLPC  H15X 6925   6.006   5.310   4.671 -1.3039 -0.8168 -0.7612
   76SLPC  H15Y 6926   6.056   5.194   4.552  0.8728  0.4164 -0.7636
   76SLPC  C316 6927   6.203   5.363   4.578 -0.7797 -0.0190 -0.1137
   76SLPC  H16X 6928   6.297   5.313   4.548 -0.5969 -0.0333  0.4584
   76SLPC  H16Y 6929   6.225   5.427   4.666  1.1664 -1.5863  0.6067
   76SLPC  C317 6930   6.157   5.448   4.456 -0.1807  0.2502  0.3696
   76SLPC  H17X 6931   6.069   5.508   4.488 -1.2446 -0.7929 -0.4932
   76SLPC  H17Y 6932   6.135   5.383   4.369  1.3664 -2.2203  1.6901
   76SLPC  C318 6933   6.254   5.564   4.423  0.2636 -0.2905 -0.1692
   76SLPC  H18X 6934   6.347   5.520   4.381  0.1663  0.7668 -1.5665
   76SLPC  H18Y 6935   6.283   5.617   4.516 -1.8865  0.8648 -0.0878
   76SLPC  H18Z 6936   6.205   5.638   4.355  0.2585 -0.4282 -0.3155
   77SLPC     N 6937   5.403   6.359   6.838 -0.8222 -0.4728  0.4258
   77SLPC   C13 6938   5.286   6.396   6.913  0.0970 -0.2592 -0.2446
   77SLPC  H13A 6939   5.309   6.437   7.010  0.2214 -1.0359  0.0616
   77SLPC  H13B 6940   5.217   6.451   6.851  0.6507  1.6675  0.7822
   77SLPC  H13C 6941   5.236   6.303   6.937 -1.0500  0.6694  1.1036
   77SLPC   C14 6942   5.449   6.232   6.895 -0.0945  0.5006  0.5744
   77SLPC  H14A 6943   5.516   6.187   6.823 -0.3193  1.4988 -0.2857
   77SLPC  H14B 6944   5.487   6.242   6.996  2.0094 -0.2308 -0.0871
   77SLPC  H14C 6945   5.371   6.157   6.897  0.5862 -0.2656 -0.3946
   77SLPC   C15 6946   5.514   6.461   6.847  0.3018 -0.0343 -0.1581
   77SLPC  H15A 6947   5.549   6.472   6.949 -1.6745  2.4804  0.3549
   77SLPC  H15B 6948   5.602   6.429   6.794  0.9971 -0.2668  1.1085
   77SLPC  H15C 6949   5.472   6.555   6.814  1.3764  0.9094  1.0345
   77SLPC   C12 6950   5.368   6.342   6.690 -0.2727  0.7488  0.2963
   77SLPC  H12A 6951   5.299   6.260   6.686 -0.6503  1.0626  0.2916
   77SLPC  H12B 6952   5.458   6.320   6.633 -0.9622 -0.3760 -0.4040
   77SLPC   C11 6953   5.297   6.461   6.604  0.2241  1.1346 -0.2019
   77SLPC  H11A 6954   5.198   6.477   6.653 -0.8917 -2.4009 -1.0219
   77SLPC  H11B 6955   5.270   6.409   6.510 -0.0746  1.7184 -0.4426
   77SLPC     P 6956   5.478   6.598   6.477  0.2671 -0.0097 -0.1831
   77SLPC   O13 6957   5.580   6.697   6.512 -0.1874 -0.2880 -0.6170
   77SLPC   O14 6958   5.524   6.457   6.442 -0.0789  0.0099 -0.3298
   77SLPC   O12 6959   5.375   6.578   6.591  0.6002  0.0942 -0.0834
   77SLPC   O11 6960   5.402   6.658   6.357 -0.3053 -0.1994 -0.0708
   77SLPC    C1 6961   5.279   6.739   6.359 -0.2908 -0.1891  0.1978
   77SLPC    HA 6962   5.244   6.773   6.459 -1.8689  1.5698 -0.8881
   77SLPC    HB 6963   5.300   6.838   6.312 -2.1686 -0.6337 -1.7511
   77SLPC    C2 6964   5.167   6.671   6.279  0.6672  0.0428 -0.7883
   77SLPC    HS 6965   5.121   6.591   6.340 -0.9758  1.9785  0.6548
   77SLPC   O21 6966   5.212   6.618   6.157 -0.1596  0.1439  0.2769
   77SLPC   C21 6967   5.226   6.487   6.125 -0.7216  0.1037 -1.1567
   77SLPC   O22 6968   5.170   6.402   6.193  0.6131  0.4493  0.6008
   77SLPC   C22 6969   5.307   6.472   5.993  1.2076 -0.5205 -0.5559
   77SLPC   H2R 6970   5.385   6.552   5.988  1.6158 -0.9520 -1.3717
   77SLPC   H2S 6971   5.355   6.373   6.010 -0.0302 -1.0327  0.0217
   77SLPC    C3 6972   5.054   6.771   6.259 -0.4894  0.1034 -0.2923
   77SLPC    HX 6973   5.094   6.857   6.202  0.4577 -0.6935 -0.8379
   77SLPC    HY 6974   5.025   6.816   6.357  0.8163  1.2792 -0.4113
   77SLPC   O31 6975   4.936   6.718   6.189 -0.4664 -0.3235 -0.4442
   77SLPC   C31 6976   4.857   6.636   6.260  0.3492  0.8952  0.7435
   77SLPC   O32 6977   4.868   6.604   6.380 -0.6512 -0.1466  0.2249
   77SLPC   C32 6978   4.756   6.577   6.159 -0.1953 -0.9369 -1.0684
   77SLPC   H2X 6979   4.751   6.647   6.073  2.0244 -0.7034 -1.0701
   77SLPC   H2Y 6980   4.655   6.583   6.205  0.2073  2.0892 -0.3309
   77SLPC   C23 6981   5.234   6.474   5.856  0.4779  0.0343  0.0517
   77SLPC   H3R 6982   5.198   6.577   5.835  0.3923 -0.1333 -0.6667
   77SLPC   H3S 6983   5.145   6.409   5.871  1.1646 -1.1493 -0.8331
   77SLPC   C24 6984   5.325   6.429   5.749 -0.0194 -0.1573  0.2403
   77SLPC   H4R 6985   5.378   6.333   5.769  0.0105 -0.0798  0.5386
   77SLPC   H4S 6986   5.400   6.510   5.735  0.4479 -0.5836  0.2105
   77SLPC   C25 6987   5.261   6.436   5.607  0.0182 -0.2175  0.0162
   77SLPC   H5R 6988   5.240   6.542   5.581  1.6924 -0.3531 -2.0707
   77SLPC   H5S 6989   5.158   6.394   5.597 -1.0141  2.2605 -0.7148
   77SLPC   C26 6990   5.342   6.391   5.486  0.6554  0.1106 -0.1388
   77SLPC   H6R 6991   5.331   6.281   5.472  1.8961  0.2172 -2.3199
   77SLPC   H6S 6992   5.449   6.419   5.498  0.3863  1.6600 -1.0528
   77SLPC   C27 6993   5.295   6.473   5.359  0.7774 -0.4824  0.8258
   77SLPC   H7R 6994   5.307   6.580   5.385 -2.1516  0.6736 -1.9169
   77SLPC   H7S 6995   5.189   6.445   5.342  0.8735  0.3525 -1.5150
   77SLPC   C28 6996   5.382   6.443   5.234  0.0345 -0.5425  0.0898
   77SLPC   H8R 6997   5.375   6.334   5.212 -2.2749  0.0063 -2.3914
   77SLPC   H8S 6998   5.488   6.465   5.257 -0.0271 -0.6401  0.4679
   77SLPC   C29 6999   5.343   6.516   5.108  0.3517 -0.6258 -0.3520
   77SLPC   H9R 7000   5.252   6.578   5.111 -1.6094 -3.3270  0.1041
   77SLPC  C210 7001   5.389   6.496   4.983  0.0651 -0.8681  0.4138
   77SLPC  H10R 7002   5.335   6.546   4.901  1.3888 -1.4706 -0.8984
   77SLPC  C211 7003   5.495   6.395   4.948 -0.4915 -0.1306 -0.3024
   77SLPC  H11R 7004   5.542   6.352   5.039 -2.5342 -0.7967  0.4940
   77SLPC  H11S 7005   5.575   6.446   4.889 -0.2662 -2.8152 -2.4854
   77SLPC  C212 7006   5.438   6.278   4.865 -0.7162 -0.3664  0.3767
   77SLPC  H12R 7007   5.328   6.272   4.872 -0.8336 -3.4478 -1.9114
   77SLPC  C213 7008   5.500   6.187   4.786  0.0556  0.3261 -0.2757
   77SLPC  H13R 7009   5.435   6.128   4.719 -0.3718 -0.4001  0.7626
   77SLPC  C214 7010   5.652   6.177   4.757  0.2571  0.7976  0.2429
   77SLPC  H14R 7011   5.696   6.078   4.784 -0.5162  0.1896 -0.6234
   77SLPC  H14S 7012   5.698   6.249   4.827  0.4346 -0.4221  1.4324
   77SLPC  C215 7013   5.685   6.204   4.611 -0.6407  0.9122  0.0290
   77SLPC  H15R 7014   5.783   6.256   4.617  0.3842 -0.8132 -1.0468
   77SLPC  H15S 7015   5.609   6.273   4.570 -1.3352  0.0910 -0.0876
   77SLPC  C216 7016   5.700   6.087   4.517 -0.1323  0.5419 -0.6832
   77SLPC  H16R 7017   5.606   6.027   4.517  0.3509 -0.2431  0.5875
   77SLPC  H16S 7018   5.785   6.023   4.547  1.1060  1.7218 -1.5708
   77SLPC  C217 7019   5.737   6.115   4.369  0.6199  0.1887 -1.3101
   77SLPC  H17R 7020   5.826   6.180   4.353  0.3566  0.4968 -1.5545
   77SLPC  H17S 7021   5.649   6.177   4.341 -1.6739 -1.5114  1.5307
   77SLPC  C218 7022   5.745   5.997   4.274 -0.0366  0.0468 -0.2815
   77SLPC  H18R 7023   5.731   6.033   4.169 -3.1721  2.3599  0.8093
   77SLPC  H18S 7024   5.684   5.908   4.297  0.3989 -0.0853  0.3909
   77SLPC  H18T 7025   5.849   5.959   4.285  0.2666  1.1383  0.8320
   77SLPC   C33 7026   4.790   6.433   6.120  0.5399 -0.5893  0.8513
   77SLPC   H3X 7027   4.697   6.376   6.099 -0.6236  1.0278  1.4201
   77SLPC   H3Y 7028   4.834   6.387   6.212  0.2077 -0.2653  1.1770
   77SLPC   C34 7029   4.887   6.422   6.005 -0.3442 -0.4381 -0.5721
   77SLPC   H4X 7030   4.939   6.324   6.015 -1.4901 -1.2792 -2.3491
   77SLPC   H4Y 7031   4.973   6.492   5.994 -0.4724  0.0606  1.3050
   77SLPC   C35 7032   4.805   6.418   5.875  0.5527 -0.4935  0.4378
   77SLPC   H5X 7033   4.758   6.518   5.871 -1.4379 -1.3980  0.1059
   77SLPC   H5Y 7034   4.725   6.342   5.890 -1.0858  1.6005  3.2335
   77SLPC   C36 7035   4.886   6.395   5.752  1.0233  0.1093  0.3431
   77SLPC   H6X 7036   4.966   6.319   5.767  0.8750 -0.0578  0.2888
   77SLPC   H6Y 7037   4.934   6.490   5.719 -0.7687  1.4103  1.2577
   77SLPC   C37 7038   4.804   6.350   5.626 -0.4781  0.0402 -0.3932
   77SLPC   H7X 7039   4.735   6.428   5.587 -0.8543  0.7339  1.5603
   77SLPC   H7Y 7040   4.750   6.257   5.655 -0.9362  1.1838  2.8797
   77SLPC   C38 7041   4.895   6.320   5.508  0.0072 -0.7684  1.1346
   77SLPC   H8X 7042   4.971   6.243   5.532 -0.2968 -0.9953  1.3921
   77SLPC   H8Y 7043   4.950   6.406   5.467 -1.2572 -0.2673  0.4268
   77SLPC   C39 7044   4.819   6.284   5.385 -0.5190  0.0242  0.1582
   77SLPC   H9X 7045   4.742   6.354   5.345  0.2358 -0.0956 -1.5723
   77SLPC   H9Y 7046   4.780   6.180   5.390  0.2704 -0.2891 -0.1140
   77SLPC  C310 7047   4.930   6.277   5.268 -0.5125  0.0031 -0.1066
   77SLPC  H10X 7048   5.000   6.193   5.285  0.0924 -0.1233 -2.8129
   77SLPC  H10Y 7049   4.981   6.375   5.278 -1.5263  0.4985  0.3675
   77SLPC  C311 7050   4.859   6.265   5.132  0.4271  0.4291 -0.3171
   77SLPC  H11X 7051   4.797   6.353   5.105  0.8042  0.2222 -1.9560
   77SLPC  H11Y 7052   4.789   6.181   5.111 -2.5869  2.7532 -0.0983
   77SLPC  C312 7053   4.967   6.265   5.019  0.2483  0.8491 -0.1926
   77SLPC  H12X 7054   4.995   6.158   5.007 -4.1584 -0.5602  0.4658
   77SLPC  H12Y 7055   5.054   6.329   5.048 -1.1339  2.8304 -0.1773
   77SLPC  C313 7056   4.914   6.325   4.890  1.0626 -0.1932 -0.1486
   77SLPC  H13X 7057   4.913   6.436   4.905  0.5861  0.4039 -3.6956
   77SLPC  H13Y 7058   4.815   6.282   4.866  1.6897 -0.6546 -2.0276
   77SLPC  C314 7059   5.009   6.288   4.781 -0.5896 -0.1881 -0.2704
   77SLPC  H14X 7060   5.027   6.178   4.780 -1.0313 -0.2668  0.0668
   77SLPC  H14Y 7061   5.109   6.331   4.806  0.9269 -1.3034 -3.7979
   77SLPC  C315 7062   4.975   6.329   4.641 -0.1184  0.4811  0.3471
   77SLPC  H15X 7063   4.932   6.431   4.650  1.4046  0.9741  3.8133
   77SLPC  H15Y 7064   4.893   6.266   4.599 -0.7249  0.4149  1.5568
   77SLPC  C316 7065   5.089   6.339   4.546  0.2149 -0.2539 -0.0290
   77SLPC  H16X 7066   5.174   6.269   4.560  0.3269 -0.4190 -1.3770
   77SLPC  H16Y 7067   5.130   6.443   4.553  2.2994 -1.0472  0.3224
   77SLPC  C317 7068   5.053   6.322   4.397  0.3939  0.9638 -0.8194
   77SLPC  H17X 7069   4.963   6.383   4.373  0.2770  1.2163  0.2299
   77SLPC  H17Y 7070   5.021   6.216   4.398 -0.6046  1.2498  0.6478
   77SLPC  C318 7071   5.169   6.349   4.308 -0.5808  0.6089 -0.3875
   77SLPC  H18X 7072   5.275   6.337   4.341 -0.2498  3.2158 -0.3144
   77SLPC  H18Y 7073   5.173   6.456   4.279 -1.4130  0.5455 -0.7510
   77SLPC  H18Z 7074   5.161   6.289   4.214 -0.9917  0.9643 -0.5792
   78SLPC     N 7075   3.049   3.925   6.646 -0.7553  0.4421  0.0700
   78SLPC   C13 7076   3.163   3.823   6.639  0.0172  0.3989  0.0850
   78SLPC  H13A 7077   3.209   3.794   6.732 -1.7252 -1.6804  0.3645
   78SLPC  H13B 7078   3.133   3.731   6.592  2.1633 -0.7813  0.9021
   78SLPC  H13C 7079   3.247   3.862   6.583 -0.0238 -0.4786 -0.5962
   78SLPC   C14 7080   3.119   4.053   6.663  0.2629 -0.3731  1.1092
   78SLPC  H14A 7081   3.054   4.139   6.667 -0.1443 -0.5745 -0.4844
   78SLPC  H14B 7082   3.176   4.060   6.755  1.4472 -3.2020  0.6889
   78SLPC  H14C 7083   3.189   4.067   6.581 -0.9949 -0.8636 -0.0868
   78SLPC   C15 7084   2.959   3.900   6.767 -0.1710 -0.2000 -0.2255
   78SLPC  H15A 7085   2.903   3.811   6.744  2.2579 -1.5087 -1.3689
   78SLPC  H15B 7086   3.016   3.886   6.857 -0.4844  1.8291  0.3590
   78SLPC  H15C 7087   2.884   3.979   6.771 -1.0497 -0.9003 -1.7088
   78SLPC   C12 7088   2.973   3.915   6.512  0.1230 -0.1292  0.4568
   78SLPC  H12A 7089   3.045   3.942   6.436  1.1216 -4.3585 -0.3657
   78SLPC  H12B 7090   2.891   3.985   6.519 -0.2684 -0.3378 -1.4034
   78SLPC   C11 7091   2.920   3.765   6.477  0.3527 -0.5458 -0.0683
   78SLPC  H11A 7092   2.839   3.774   6.401 -1.6516 -0.7784  1.9174
   78SLPC  H11B 7093   2.879   3.729   6.574  0.4290  0.4416  0.3525
   78SLPC     P 7094   3.101   3.719   6.292  0.6107  0.0658 -0.1487
   78SLPC   O13 7095   3.134   3.861   6.290  0.5409  0.5663 -0.3080
   78SLPC   O14 7096   3.211   3.621   6.274 -0.3657  0.2522 -0.0066
   78SLPC   O12 7097   3.027   3.681   6.424  0.2277  0.0787  0.0916
   78SLPC   O11 7098   2.987   3.696   6.189  0.5345 -0.5109  0.1666
   78SLPC    C1 7099   2.899   3.579   6.182  0.1646  0.1427 -0.1412
   78SLPC    HA 7100   2.946   3.490   6.231 -0.1231  0.2693  0.3802
   78SLPC    HB 7101   2.802   3.608   6.228 -0.1807  0.1190 -0.8426
   78SLPC    C2 7102   2.869   3.523   6.041  0.3728  0.0354  0.5913
   78SLPC    HS 7103   2.831   3.419   6.054  1.2233  0.0349  3.7787
   78SLPC   O21 7104   2.985   3.531   5.956 -0.3482  0.4772 -0.1821
   78SLPC   C21 7105   3.090   3.464   5.988  0.4439  0.5647 -0.3040
   78SLPC   O22 7106   3.095   3.379   6.077 -0.2603  1.1061 -0.2620
   78SLPC   C22 7107   3.206   3.517   5.914  0.1699 -0.0056 -0.3611
   78SLPC   H2R 7108   3.191   3.626   5.921 -0.8641  0.0464 -2.4986
   78SLPC   H2S 7109   3.292   3.490   5.979  0.2958  0.2399 -0.4264
   78SLPC    C3 7110   2.757   3.603   5.967  0.1525 -0.6626 -0.3130
   78SLPC    HX 7111   2.782   3.710   5.987 -1.4707 -0.6480  1.9535
   78SLPC    HY 7112   2.659   3.609   6.017  0.7139  0.0501  0.7382
   78SLPC   O31 7113   2.752   3.586   5.826 -0.3422  0.8838 -0.1417
   78SLPC   C31 7114   2.668   3.490   5.800  0.5468 -0.5189 -0.0038
   78SLPC   O32 7115   2.608   3.428   5.887  0.4575  0.3690  0.1564
   78SLPC   C32 7116   2.668   3.465   5.647  0.2123  0.1439 -0.2013
   78SLPC   H2X 7117   2.766   3.422   5.617 -0.5018 -2.2888  0.7683
   78SLPC   H2Y 7118   2.648   3.564   5.600 -0.9256  0.3244  0.6265
   78SLPC   C23 7119   3.234   3.455   5.774 -0.3753 -0.2237 -0.0232
   78SLPC   H3R 7120   3.269   3.350   5.776 -2.0919 -0.8889 -1.6586
   78SLPC   H3S 7121   3.325   3.499   5.729  0.5461 -1.0203  1.0092
   78SLPC   C24 7122   3.123   3.472   5.679  0.8079  0.2605 -0.1457
   78SLPC   H4R 7123   3.102   3.580   5.661 -3.3384  0.0308  2.0881
   78SLPC   H4S 7124   3.025   3.427   5.705  0.7162  1.0359  0.9229
   78SLPC   C25 7125   3.159   3.403   5.539 -0.1477  0.1136 -0.2267
   78SLPC   H5R 7126   3.184   3.298   5.566 -3.3105 -0.5101  0.7339
   78SLPC   H5S 7127   3.242   3.468   5.503  0.5041  0.6833  2.0749
   78SLPC   C26 7128   3.042   3.407   5.443  0.2040  0.0952 -0.1232
   78SLPC   H6R 7129   3.021   3.515   5.426  1.5506  0.4957  0.5951
   78SLPC   H6S 7130   2.952   3.365   5.493 -0.4770  0.4616 -1.0288
   78SLPC   C27 7131   3.051   3.359   5.295 -0.1289  0.2403  0.1577
   78SLPC   H7R 7132   3.082   3.252   5.295  0.1153  0.2977 -1.1039
   78SLPC   H7S 7133   3.122   3.423   5.238  1.0906 -0.2548  1.0794
   78SLPC   C28 7134   2.903   3.344   5.238 -0.7012 -0.6688 -0.3200
   78SLPC   H8R 7135   2.867   3.268   5.310  0.9826  0.2773  1.6458
   78SLPC   H8S 7136   2.907   3.299   5.136 -0.5919 -0.7235 -0.2911
   78SLPC   C29 7137   2.809   3.462   5.222 -0.1975 -0.1875 -0.1216
   78SLPC   H9R 7138   2.771   3.500   5.318 -1.5510  0.8436 -1.0389
   78SLPC  C210 7139   2.751   3.498   5.107 -0.0805 -0.0757 -0.1833
   78SLPC  H10R 7140   2.686   3.587   5.101  0.4471  0.3250 -0.0852
   78SLPC  C211 7141   2.781   3.432   4.969 -0.3585 -0.0689  0.5878
   78SLPC  H11R 7142   2.780   3.321   4.963 -1.5852  0.0140 -1.8743
   78SLPC  H11S 7143   2.872   3.478   4.924 -1.0254  2.4383  1.6557
   78SLPC  C212 7144   2.669   3.463   4.869  0.2102  0.8730  0.6583
   78SLPC  H12R 7145   2.570   3.462   4.917  0.3511  1.0122  0.9556
   78SLPC  C213 7146   2.689   3.513   4.744  0.4548 -0.3775  0.8350
   78SLPC  H13R 7147   2.602   3.526   4.678 -1.7386  0.4765  3.6892
   78SLPC  C214 7148   2.822   3.529   4.679 -0.1411  0.0798  0.2949
   78SLPC  H14R 7149   2.803   3.536   4.570 -1.4387  1.3266  0.5683
   78SLPC  H14S 7150   2.886   3.441   4.703 -1.7395 -1.3626 -0.5131
   78SLPC  C215 7151   2.890   3.661   4.706 -0.8235 -0.3811  0.0281
   78SLPC  H15R 7152   2.897   3.681   4.815 -1.4227 -1.3983  0.2650
   78SLPC  H15S 7153   2.823   3.738   4.661 -1.2354 -0.7553 -0.0061
   78SLPC  C216 7154   3.031   3.652   4.651 -0.1988 -0.4033 -0.2905
   78SLPC  H16R 7155   3.082   3.554   4.649 -2.7050 -1.7628 -1.2919
   78SLPC  H16S 7156   3.092   3.719   4.715 -0.3390 -1.3798  0.9055
   78SLPC  C217 7157   3.028   3.711   4.507 -0.0843 -0.4990  0.2624
   78SLPC  H17R 7158   2.991   3.815   4.520 -0.5751 -0.5653 -0.5594
   78SLPC  H17S 7159   2.955   3.656   4.443  2.4199 -2.8135 -0.7770
   78SLPC  C218 7160   3.162   3.706   4.438 -0.9066  0.4265 -0.3058
   78SLPC  H18R 7161   3.167   3.773   4.350  1.7454  0.5532 -0.1376
   78SLPC  H18S 7162   3.187   3.606   4.396  2.2861  1.6510 -1.5724
   78SLPC  H18T 7163   3.240   3.742   4.508 -1.2350 -0.2139  0.4020
   78SLPC   C33 7164   2.559   3.369   5.589  0.4369 -0.1227 -0.4950
   78SLPC   H3X 7165   2.462   3.413   5.622  0.2436 -0.2417 -0.9036
   78SLPC   H3Y 7166   2.566   3.266   5.630  2.6740  0.5790  1.1188
   78SLPC   C34 7167   2.563   3.366   5.434  0.1379 -0.1249  0.1623
   78SLPC   H4X 7168   2.649   3.300   5.407 -0.6611 -0.3276 -2.0505
   78SLPC   H4Y 7169   2.583   3.468   5.396  1.8030 -1.1488 -1.9729
   78SLPC   C35 7170   2.434   3.300   5.387 -0.4932  0.1469  0.1361
   78SLPC   H5X 7171   2.339   3.348   5.416  0.0713  0.9770  0.6529
   78SLPC   H5Y 7172   2.422   3.192   5.413 -1.3789  0.0589 -0.5929
   78SLPC   C36 7173   2.428   3.302   5.230  0.4608 -0.2348 -0.0382
   78SLPC   H6X 7174   2.482   3.221   5.177 -1.7964 -1.3786 -0.7206
   78SLPC   H6Y 7175   2.460   3.398   5.183  0.0529 -0.6681 -1.2345
   78SLPC   C37 7176   2.276   3.288   5.185 -0.1040  0.3939  0.5236
   78SLPC   H7X 7177   2.212   3.349   5.252  1.5712  2.3470  0.4439
   78SLPC   H7Y 7178   2.248   3.181   5.194  1.3018  0.0427  0.9157
   78SLPC   C38 7179   2.250   3.319   5.038  0.6105  0.1212 -0.6418
   78SLPC   H8X 7180   2.269   3.427   5.028 -2.1368  0.6844 -0.6825
   78SLPC   H8Y 7181   2.141   3.307   5.020  0.1396  1.0265  1.3654
   78SLPC   C39 7182   2.345   3.260   4.930 -0.5299  0.0145  0.2852
   78SLPC   H9X 7183   2.327   3.150   4.935 -2.3532  0.3281  3.1142
   78SLPC   H9Y 7184   2.447   3.290   4.963  0.5351 -0.0497 -2.6420
   78SLPC  C310 7185   2.345   3.316   4.786  0.3769 -0.0507 -0.6502
   78SLPC  H10X 7186   2.433   3.271   4.736 -0.6793  0.0976 -2.7368
   78SLPC  H10Y 7187   2.342   3.427   4.785  2.5611  0.0586 -0.4889
   78SLPC  C311 7188   2.228   3.258   4.711 -0.4885 -0.1837 -0.0363
   78SLPC  H11X 7189   2.134   3.300   4.752  0.8579  1.6390  1.3872
   78SLPC  H11Y 7190   2.229   3.149   4.730 -2.4411 -0.4088 -0.9734
   78SLPC  C312 7191   2.243   3.291   4.560 -0.3114 -0.7593  0.3501
   78SLPC  H12X 7192   2.342   3.249   4.531 -0.2063 -0.0430 -0.3415
   78SLPC  H12Y 7193   2.242   3.402   4.562  2.4447 -0.6472 -0.7649
   78SLPC  C313 7194   2.125   3.246   4.471 -0.1825  0.2333  0.5744
   78SLPC  H13X 7195   2.038   3.309   4.496  0.2277 -0.2467  3.5551
   78SLPC  H13Y 7196   2.090   3.144   4.495 -0.7499  0.6356  1.5007
   78SLPC  C314 7197   2.158   3.241   4.318 -0.4487 -0.1721 -0.4198
   78SLPC  H14X 7198   2.248   3.179   4.296  0.5634  1.4123 -0.9068
   78SLPC  H14Y 7199   2.191   3.346   4.302 -0.6948 -0.2465 -1.5089
   78SLPC  C315 7200   2.043   3.206   4.221 -0.6953 -0.4735 -0.1811
   78SLPC  H15X 7201   1.972   3.292   4.221  2.3069  2.1653  0.1440
   78SLPC  H15Y 7202   1.983   3.119   4.257 -0.7355 -1.3355 -2.1641
   78SLPC  C316 7203   2.087   3.188   4.068 -0.1491 -0.5473 -0.3113
   78SLPC  H16X 7204   2.137   3.089   4.060 -0.9548 -0.9158 -1.0959
   78SLPC  H16Y 7205   2.157   3.264   4.028  0.3024 -2.1120 -2.7808
   78SLPC  C317 7206   1.967   3.181   3.963  0.0247  0.0669  0.0828
   78SLPC  H17X 7207   1.900   3.259   4.005  0.0074 -1.0010  2.1832
   78SLPC  H17Y 7208   1.912   3.094   4.003 -2.6763  2.3652  1.7740
   78SLPC  C318 7209   1.997   3.182   3.813 -0.4676 -0.2951 -0.0697
   78SLPC  H18X 7210   2.070   3.105   3.781  0.8379  0.6131  0.6114
   78SLPC  H18Y 7211   2.046   3.279   3.789  0.1343 -0.6342 -0.2294
   78SLPC  H18Z 7212   1.910   3.166   3.746  0.5480  0.1919 -1.5469
   79SLPC     N 7213   1.130   5.722   6.568  0.0748  0.2018  0.7834
   79SLPC   C13 7214   1.195   5.837   6.618 -0.2458 -0.1924 -0.0394
   79SLPC  H13A 7215   1.295   5.818   6.654  0.9294  1.9837 -1.8910
   79SLPC  H13B 7216   1.206   5.919   6.549  2.3029  0.1011  0.6105
   79SLPC  H13C 7217   1.133   5.873   6.699 -0.6786 -0.7235 -0.1281
   79SLPC   C14 7218   1.189   5.670   6.434 -0.6538 -0.6158 -0.5847
   79SLPC  H14A 7219   1.192   5.751   6.362  0.2113 -0.2214 -0.1276
   79SLPC  H14B 7220   1.290   5.636   6.450 -0.9486 -1.3767 -0.3368
   79SLPC  H14C 7221   1.130   5.591   6.390 -1.9487 -0.4552  0.7662
   79SLPC   C15 7222   0.996   5.771   6.521 -0.5670 -0.0508  0.1697
   79SLPC  H15A 7223   0.936   5.799   6.606  0.2176 -0.9734  1.0493
   79SLPC  H15B 7224   0.995   5.855   6.452 -2.6020 -1.0418 -1.0859
   79SLPC  H15C 7225   0.941   5.692   6.472  0.5080 -2.3139  2.3859
   79SLPC   C12 7226   1.115   5.621   6.676  0.2510 -0.5269  0.6521
   79SLPC  H12A 7227   1.061   5.533   6.646  0.8692 -0.2634 -1.4369
   79SLPC  H12B 7228   1.064   5.668   6.759 -1.0598 -2.0786  0.7729
   79SLPC   C11 7229   1.256   5.564   6.727  0.6456 -0.2591 -0.0400
   79SLPC  H11A 7230   1.232   5.516   6.824 -0.1648  1.0097  0.3968
   79SLPC  H11B 7231   1.322   5.649   6.752 -1.5105  1.0092  1.7009
   79SLPC     P 7232   1.248   5.324   6.623  0.4298 -0.4334 -0.1352
   79SLPC   O13 7233   1.269   5.251   6.752 -0.0003 -0.3400  0.2793
   79SLPC   O14 7234   1.107   5.350   6.580 -0.1214  0.5158  0.0063
   79SLPC   O12 7235   1.316   5.471   6.637  0.2434 -0.1966  0.4971
   79SLPC   O11 7236   1.329   5.243   6.512 -0.0936 -0.2271  0.0008
   79SLPC    C1 7237   1.462   5.283   6.471 -0.2159  0.2076 -0.5535
   79SLPC    HA 7238   1.505   5.352   6.546 -0.1516 -1.4480  1.0104
   79SLPC    HB 7239   1.522   5.190   6.460 -0.1342  0.3707 -1.5099
   79SLPC    C2 7240   1.459   5.343   6.333 -0.6994 -0.4595  0.3797
   79SLPC    HS 7241   1.376   5.416   6.330 -1.9543 -1.8491 -0.2164
   79SLPC   O21 7242   1.441   5.234   6.242  0.1610  0.2655 -0.0290
   79SLPC   C21 7243   1.395   5.279   6.121  0.0740  0.5231  0.2755
   79SLPC   O22 7244   1.352   5.389   6.089  0.5356  0.0719 -0.5059
   79SLPC   C22 7245   1.406   5.166   6.011  0.3574  0.1508  0.3664
   79SLPC   H2R 7246   1.512   5.169   5.976 -0.4248 -0.6935 -2.3241
   79SLPC   H2S 7247   1.386   5.077   6.075  1.6908  0.5928  1.4398
   79SLPC    C3 7248   1.591   5.410   6.303 -0.3550  0.2788 -0.4135
   79SLPC    HX 7249   1.679   5.344   6.323 -0.2099  1.2124  2.4605
   79SLPC    HY 7250   1.606   5.485   6.383 -0.8854 -1.1542  1.0900
   79SLPC   O31 7251   1.606   5.461   6.170 -0.7016  0.0526 -0.3950
   79SLPC   C31 7252   1.587   5.585   6.148  1.0115  0.1915 -0.5729
   79SLPC   O32 7253   1.562   5.674   6.225 -0.0822  0.5030 -0.6619
   79SLPC   C32 7254   1.621   5.611   6.003 -0.0867 -0.4054  0.4676
   79SLPC   H2X 7255   1.601   5.513   5.954 -2.0143 -0.3084  0.9854
   79SLPC   H2Y 7256   1.730   5.634   6.001 -0.3038  0.6815  0.4348
   79SLPC   C23 7257   1.309   5.163   5.894  0.6398  0.1801  0.1502
   79SLPC   H3R 7258   1.333   5.245   5.823  0.4367 -0.3715 -0.5706
   79SLPC   H3S 7259   1.209   5.187   5.935 -0.2348  1.2521 -2.4091
   79SLPC   C24 7260   1.314   5.022   5.826 -0.2676  0.6526 -0.9907
   79SLPC   H4R 7261   1.280   4.943   5.895  0.5250 -0.0097 -1.3461
   79SLPC   H4S 7262   1.417   4.991   5.799 -0.1652 -0.3806  0.4856
   79SLPC   C25 7263   1.235   5.012   5.693 -0.3922  0.1692  0.4136
   79SLPC   H5R 7264   1.129   5.028   5.723 -0.2070  0.4701  0.9298
   79SLPC   H5S 7265   1.244   4.911   5.648 -0.3214  0.5654 -0.4731
   79SLPC   C26 7266   1.258   5.122   5.583  0.6932 -0.7330 -0.3062
   79SLPC   H6R 7267   1.211   5.219   5.610  0.8353 -0.6283 -0.4343
   79SLPC   H6S 7268   1.200   5.093   5.493 -1.1346 -1.4207  1.0311
   79SLPC   C27 7269   1.403   5.141   5.552 -0.4099 -0.1243  0.1978
   79SLPC   H7R 7270   1.435   5.052   5.493  1.5595  0.1904  0.7138
   79SLPC   H7S 7271   1.467   5.135   5.643 -1.0527 -1.2537  0.6015
   79SLPC   C28 7272   1.437   5.279   5.487  0.6747  0.0723 -1.1478
   79SLPC   H8R 7273   1.547   5.273   5.475  0.5864  0.8174 -2.5112
   79SLPC   H8S 7274   1.400   5.357   5.557  0.9610  0.0149 -0.9283
   79SLPC   C29 7275   1.371   5.298   5.354  0.3520 -0.7883 -0.5531
   79SLPC   H9R 7276   1.262   5.313   5.360  0.5119 -0.2114  1.3585
   79SLPC  C210 7277   1.426   5.302   5.229  0.3994  0.5766 -0.1806
   79SLPC  H10R 7278   1.358   5.326   5.146 -0.5149  3.8200  1.3533
   79SLPC  C211 7279   1.571   5.291   5.192  0.0396 -0.1202 -0.3928
   79SLPC  H11R 7280   1.575   5.238   5.094 -1.1116 -3.4781  1.2272
   79SLPC  H11S 7281   1.613   5.213   5.259 -0.8416 -2.0306 -1.9498
   79SLPC  C212 7282   1.658   5.422   5.197 -0.1293 -0.3700 -0.0194
   79SLPC  H12R 7283   1.719   5.456   5.282 -0.4585  0.1242  0.0272
   79SLPC  C213 7284   1.642   5.520   5.100  0.4113  0.4600 -0.5027
   79SLPC  H13R 7285   1.697   5.615   5.105  2.1347 -0.5554  1.5639
   79SLPC  C214 7286   1.554   5.498   4.977 -0.3766 -0.1857 -0.1883
   79SLPC  H14R 7287   1.507   5.591   4.940  0.9230  0.5015 -0.1793
   79SLPC  H14S 7288   1.475   5.423   4.992  0.4738 -0.5172  3.6967
   79SLPC  C215 7289   1.659   5.454   4.875  0.0289  0.6621  0.1729
   79SLPC  H15R 7290   1.723   5.371   4.913 -0.8584 -0.7181 -1.2232
   79SLPC  H15S 7291   1.734   5.534   4.856  1.9507 -1.1346 -0.2807
   79SLPC  C216 7292   1.613   5.407   4.738 -0.4709  0.0670  0.2122
   79SLPC  H16R 7293   1.512   5.446   4.714 -0.2991  0.2785 -0.1807
   79SLPC  H16S 7294   1.617   5.296   4.735 -1.0438  0.0214  0.9304
   79SLPC  C217 7295   1.701   5.471   4.623  0.0727 -0.1440 -0.1000
   79SLPC  H17R 7296   1.809   5.451   4.642  0.2542 -1.8228 -2.4317
   79SLPC  H17S 7297   1.693   5.581   4.619 -1.6877 -0.2866 -1.8143
   79SLPC  C218 7298   1.665   5.403   4.490 -0.0566  0.0444 -0.1104
   79SLPC  H18R 7299   1.726   5.311   4.477  0.0081  0.2768 -1.5751
   79SLPC  H18S 7300   1.683   5.467   4.402 -1.3746 -0.3873 -0.7162
   79SLPC  H18T 7301   1.557   5.379   4.487  0.0257 -0.3712  0.1249
   79SLPC   C33 7302   1.545   5.730   5.941  0.4198 -0.1079 -1.0075
   79SLPC   H3X 7303   1.584   5.757   5.841  0.9394  0.8347 -0.5606
   79SLPC   H3Y 7304   1.553   5.818   6.008 -0.9926 -0.3807 -0.4606
   79SLPC   C34 7305   1.392   5.706   5.912  0.3899 -0.4803  0.3080
   79SLPC   H4X 7306   1.341   5.682   6.008 -2.3829  0.8249 -0.7175
   79SLPC   H4Y 7307   1.375   5.624   5.839  1.4588 -1.4207  1.0883
   79SLPC   C35 7308   1.329   5.835   5.860  0.7702  0.0523 -0.0895
   79SLPC   H5X 7309   1.350   5.914   5.934 -1.9277  2.0019 -1.2503
   79SLPC   H5Y 7310   1.220   5.819   5.874  1.1181 -2.2984  0.4667
   79SLPC   C36 7311   1.364   5.862   5.711  0.1538 -0.3705 -0.3410
   79SLPC   H6X 7312   1.471   5.886   5.691  0.0919  0.3761  0.1688
   79SLPC   H6Y 7313   1.315   5.960   5.695  2.2963  1.1161  1.4916
   79SLPC   C37 7314   1.300   5.768   5.606  0.6324  0.5027  0.2187
   79SLPC   H7X 7315   1.193   5.751   5.626  0.0577  1.4803 -1.7329
   79SLPC   H7Y 7316   1.337   5.664   5.617 -0.3837  0.3703  3.0063
   79SLPC   C38 7317   1.323   5.819   5.463 -0.4140  0.2185 -0.1797
   79SLPC   H8X 7318   1.431   5.802   5.445 -1.0818 -1.5349 -3.0451
   79SLPC   H8Y 7319   1.299   5.927   5.453  0.1569  0.4801  1.0683
   79SLPC   C39 7320   1.251   5.732   5.356  0.3108 -0.1878  0.2285
   79SLPC   H9X 7321   1.142   5.738   5.376  0.0042  0.5785 -1.4650
   79SLPC   H9Y 7322   1.285   5.626   5.359  0.6323 -0.1659 -1.4437
   79SLPC  C310 7323   1.274   5.778   5.209  0.4463 -0.5118 -0.7837
   79SLPC  H10X 7324   1.381   5.799   5.188  0.3390 -0.0491 -0.8578
   79SLPC  H10Y 7325   1.238   5.882   5.202  2.3268  0.3232  0.9423
   79SLPC  C311 7326   1.230   5.673   5.106 -0.4426 -0.3407 -0.3575
   79SLPC  H11X 7327   1.123   5.666   5.138 -0.4180  3.2061  0.8993
   79SLPC  H11Y 7328   1.286   5.578   5.121  0.3676  0.3171  0.9683
   79SLPC  C312 7329   1.242   5.724   4.957 -0.0604 -0.0268 -0.6454
   79SLPC  H12X 7330   1.344   5.764   4.939 -0.1229  0.7935  0.6672
   79SLPC  H12Y 7331   1.172   5.809   4.943  0.9161  0.6812 -1.3565
   79SLPC  C313 7332   1.208   5.620   4.848  0.4507 -0.1470  0.1882
   79SLPC  H13X 7333   1.100   5.592   4.840  1.1676 -3.3669  0.3471
   79SLPC  H13Y 7334   1.266   5.530   4.876  0.9829  0.8418  2.4976
   79SLPC  C314 7335   1.275   5.658   4.715  0.2204  0.1664  1.0025
   79SLPC  H14X 7336   1.385   5.643   4.720  0.4587  1.1420 -0.5898
   79SLPC  H14Y 7337   1.252   5.763   4.687 -0.0885 -0.5529 -1.6675
   79SLPC  C315 7338   1.220   5.562   4.608  0.1346  0.4270 -0.4748
   79SLPC  H15X 7339   1.248   5.458   4.636 -0.9393  0.0962 -0.5643
   79SLPC  H15Y 7340   1.291   5.582   4.524  1.3602 -0.8253  0.2242
   79SLPC  C316 7341   1.074   5.572   4.568  0.6479 -0.1385 -0.3290
   79SLPC  H16X 7342   1.052   5.676   4.536  0.5115 -0.8726 -2.8378
   79SLPC  H16Y 7343   1.005   5.549   4.651  0.3681  0.0366 -0.5138
   79SLPC  C317 7344   1.031   5.492   4.442 -0.2486 -0.1298  0.2792
   79SLPC  H17X 7345   1.019   5.388   4.479 -1.5547 -0.0635  0.0816
   79SLPC  H17Y 7346   1.111   5.501   4.365  1.4406  2.8045  2.1800
   79SLPC  C318 7347   0.903   5.541   4.382 -0.6618 -0.0651  0.5083
   79SLPC  H18X 7348   0.867   5.482   4.295 -0.7385 -1.5551  1.5033
   79SLPC  H18Y 7349   0.909   5.642   4.338  2.2749  1.1912  3.4346
   79SLPC  H18Z 7350   0.817   5.537   4.452 -2.2307  1.7401 -1.2133
   80SLPC     N 7351   5.199   0.186   6.982  0.3615  1.0351 -0.0515
   80SLPC   C13 7352   5.231   0.286   7.094 -0.0507  0.7723  0.4853
   80SLPC  H13A 7353   5.148   0.308   7.159 -1.8791 -0.3572 -1.3428
   80SLPC  H13B 7354   5.322   0.261   7.147  0.2684  2.5244  0.8189
   80SLPC  H13C 7355   5.250   0.378   7.041 -1.2071  1.1346  0.6727
   80SLPC   C14 7356   5.183   0.050   7.039 -0.3135 -0.0590 -0.9163
   80SLPC  H14A 7357   5.165  -0.026   6.964  0.5616 -1.3531  0.1472
   80SLPC  H14B 7358   5.277   0.012   7.077 -1.6957 -1.4466  1.2661
   80SLPC  H14C 7359   5.109   0.044   7.117  1.4532 -3.8258  0.7251
   80SLPC   C15 7360   5.313   0.173   6.882 -0.0024  0.1603  0.4746
   80SLPC  H15A 7361   5.408   0.151   6.927 -0.5897 -0.4241  1.4609
   80SLPC  H15B 7362   5.277   0.100   6.811  1.4166  0.0151 -0.1196
   80SLPC  H15C 7363   5.316   0.268   6.829 -0.0964 -0.2075 -0.2112
   80SLPC   C12 7364   5.067   0.225   6.917 -0.6647  0.3953 -0.1298
   80SLPC  H12A 7365   4.995   0.234   6.997 -0.9049  0.2511 -0.3307
   80SLPC  H12B 7366   5.034   0.142   6.856  1.2816 -0.2887 -0.3342
   80SLPC   C11 7367   5.070   0.358   6.836  0.1531  0.5519 -0.8151
   80SLPC  H11A 7368   5.090   0.445   6.902 -1.4064  0.3330 -0.0052
   80SLPC  H11B 7369   4.966   0.370   6.799 -0.5932 -1.9669  0.1876
   80SLPC     P 7370   5.225   0.479   6.662  0.2357  0.4661  0.4114
   80SLPC   O13 7371   5.259   0.571   6.769  0.4924 -0.5962 -0.6232
   80SLPC   O14 7372   5.333   0.439   6.568  0.3187 -0.3601 -0.7262
   80SLPC   O12 7373   5.165   0.351   6.726 -0.2050 -0.6085  0.1573
   80SLPC   O11 7374   5.094   0.531   6.576 -0.2365  0.9267  0.0764
   80SLPC    C1 7375   5.040   0.451   6.468 -0.2832  0.7077 -0.1798
   80SLPC    HA 7376   5.036   0.343   6.495  2.0339  1.1343  2.3077
   80SLPC    HB 7377   4.931   0.466   6.460 -0.7138  0.5062  3.4461
   80SLPC    C2 7378   5.119   0.472   6.336 -0.4867 -0.7337 -0.3333
   80SLPC    HS 7379   5.224   0.439   6.352 -0.4315 -0.5389 -0.3003
   80SLPC   O21 7380   5.110   0.611   6.292 -0.0968  0.6668  0.3406
   80SLPC   C21 7381   5.218   0.662   6.241 -0.1525 -0.1495  0.5172
   80SLPC   O22 7382   5.332   0.617   6.243 -0.8616  0.3645  0.2622
   80SLPC   C22 7383   5.198   0.803   6.176 -0.0598  0.5822 -0.2972
   80SLPC   H2R 7384   5.091   0.814   6.145 -0.7456 -2.5702  0.6654
   80SLPC   H2S 7385   5.221   0.885   6.247 -1.0572 -1.3572  2.3973
   80SLPC    C3 7386   5.063   0.375   6.233 -0.7572 -0.4971  0.5675
   80SLPC    HX 7387   4.959   0.406   6.207 -0.9364 -1.1051  0.5448
   80SLPC    HY 7388   5.042   0.277   6.281 -0.0141 -0.7877  0.3089
   80SLPC   O31 7389   5.150   0.369   6.118  0.0926  0.0235 -0.3777
   80SLPC   C31 7390   5.254   0.281   6.133 -0.2029  0.6424  0.0648
   80SLPC   O32 7391   5.275   0.215   6.231  0.3116  0.1418  0.8386
   80SLPC   C32 7392   5.334   0.273   6.004  0.3877  0.8944  0.2139
   80SLPC   H2X 7393   5.419   0.343   5.996  2.1607 -1.3559 -2.4170
   80SLPC   H2Y 7394   5.265   0.301   5.921  0.2067  0.3232  0.1690
   80SLPC   C23 7395   5.266   0.830   6.037 -0.0466  0.2709  0.0975
   80SLPC   H3R 7396   5.242   0.741   5.975  1.6263  0.0403 -0.2605
   80SLPC   H3S 7397   5.375   0.825   6.057  0.0307 -0.1155 -0.4029
   80SLPC   C24 7398   5.227   0.959   5.969  0.3934  0.4309 -0.3414
   80SLPC   H4R 7399   5.227   1.045   6.039 -1.2604 -0.6342  1.0462
   80SLPC   H4S 7400   5.121   0.946   5.939 -0.7957 -1.3026  3.8594
   80SLPC   C25 7401   5.315   0.994   5.852  0.0125 -0.0071  0.0727
   80SLPC   H5R 7402   5.412   1.004   5.905 -0.9201 -2.6681  2.5900
   80SLPC   H5S 7403   5.294   1.092   5.804  0.5758  0.6265  1.0984
   80SLPC   C26 7404   5.324   0.886   5.746 -0.0256 -0.1159  0.5689
   80SLPC   H6R 7405   5.228   0.872   5.692  1.0062  1.0492 -1.7118
   80SLPC   H6S 7406   5.368   0.794   5.791  0.5518  0.0627  0.3785
   80SLPC   C27 7407   5.411   0.932   5.634 -0.5732 -0.0815 -0.2991
   80SLPC   H7R 7408   5.517   0.931   5.669  0.2511  1.3040 -2.5459
   80SLPC   H7S 7409   5.398   1.036   5.598  2.8696 -0.0640 -1.8529
   80SLPC   C28 7410   5.398   0.837   5.516 -0.5344 -0.3608  0.1142
   80SLPC   H8R 7411   5.291   0.830   5.486 -1.4981  0.4330  2.9920
   80SLPC   H8S 7412   5.438   0.741   5.556 -0.6050 -0.2435  0.4713
   80SLPC   C29 7413   5.493   0.883   5.410  0.4057  0.1215  1.0622
   80SLPC   H9R 7414   5.595   0.845   5.428  1.2464  1.9412  0.3889
   80SLPC  C210 7415   5.487   0.967   5.303 -0.0934  0.5127  0.4258
   80SLPC  H10R 7416   5.577   0.972   5.240 -0.6112  1.5677 -0.2675
   80SLPC  C211 7417   5.369   1.051   5.245  0.0091  0.1886 -0.1322
   80SLPC  H11R 7418   5.404   1.155   5.229 -0.0970  0.5005  1.4522
   80SLPC  H11S 7419   5.286   1.068   5.316  0.8093  1.4362  0.5451
   80SLPC  C212 7420   5.319   0.985   5.124 -0.5804  0.0528 -0.6398
   80SLPC  H12R 7421   5.292   0.878   5.128 -0.6309  0.0422 -1.2074
   80SLPC  C213 7422   5.313   1.042   5.000  0.2901  0.4942  0.2227
   80SLPC  H13R 7423   5.280   0.968   4.925  0.2617 -0.7140  1.3828
   80SLPC  C214 7424   5.350   1.178   4.951 -0.3520 -0.3447 -0.2772
   80SLPC  H14R 7425   5.390   1.241   5.034  1.1952 -0.8926 -0.5834
   80SLPC  H14S 7426   5.258   1.229   4.915 -1.9893 -1.8263  1.5836
   80SLPC  C215 7427   5.453   1.184   4.836 -0.1317  0.9275  0.5045
   80SLPC  H15R 7428   5.427   1.106   4.761 -2.4934  0.6380  1.5157
   80SLPC  H15S 7429   5.552   1.155   4.877  0.8406  0.3122 -2.0943
   80SLPC  C216 7430   5.454   1.317   4.760  0.4473 -0.1779  0.6420
   80SLPC  H16R 7431   5.491   1.385   4.840  0.0193 -1.3973  1.9155
   80SLPC  H16S 7432   5.352   1.356   4.744  1.1418  3.4073  3.6361
   80SLPC  C217 7433   5.547   1.322   4.639 -0.3438  0.2723 -0.1887
   80SLPC  H17R 7434   5.527   1.412   4.577  1.8849 -0.5055 -2.2052
   80SLPC  H17S 7435   5.529   1.232   4.576  0.9946 -1.1526  1.3408
   80SLPC  C218 7436   5.693   1.315   4.686 -0.6618 -0.1191 -0.3723
   80SLPC  H18R 7437   5.712   1.237   4.762 -2.2866  0.7597  1.0128
   80SLPC  H18S 7438   5.733   1.409   4.730 -0.6655 -0.2507 -0.0832
   80SLPC  H18T 7439   5.751   1.281   4.598 -0.5101  0.1013 -0.3608
   80SLPC   C33 7440   5.383   0.128   5.974 -0.3551 -0.1437 -0.2028
   80SLPC   H3X 7441   5.299   0.055   5.981 -0.8494  0.4733  0.4679
   80SLPC   H3Y 7442   5.439   0.091   6.062 -0.2225 -1.9577 -1.0101
   80SLPC   C34 7443   5.459   0.116   5.843  0.3027  0.0811  0.1155
   80SLPC   H4X 7444   5.543   0.188   5.837  0.1605  0.2434  0.0811
   80SLPC   H4Y 7445   5.381   0.143   5.769 -0.9739 -2.1544  0.5496
   80SLPC   C35 7446   5.506  -0.024   5.813 -0.0611  0.1043  0.2667
   80SLPC   H5X 7447   5.422  -0.095   5.827  0.9905 -1.0620  0.8565
   80SLPC   H5Y 7448   5.584  -0.060   5.884  1.1016  1.4981 -0.2432
   80SLPC   C36 7449   5.567  -0.043   5.676 -0.2518 -0.1498  0.2678
   80SLPC   H6X 7450   5.672  -0.008   5.681  0.1444 -0.8848 -1.8912
   80SLPC   H6Y 7451   5.515   0.015   5.596 -2.7099 -1.2312  0.9680
   80SLPC   C37 7452   5.578  -0.191   5.621 -0.1628  0.0767  0.3925
   80SLPC   H7X 7453   5.474  -0.214   5.592  0.2090 -0.4578 -0.5759
   80SLPC   H7Y 7454   5.612  -0.263   5.699 -1.4045 -1.4920 -0.4646
   80SLPC   C38 7455   5.662  -0.208   5.493  0.3205 -0.9861  0.0292
   80SLPC   H8X 7456   5.648  -0.316   5.472  0.7174 -1.5816  2.4965
   80SLPC   H8Y 7457   5.768  -0.182   5.514  0.2141  0.6329 -1.2285
   80SLPC   C39 7458   5.620  -0.120   5.369  0.0949  0.9098 -0.8606
   80SLPC   H9X 7459   5.644  -0.013   5.386  0.4553  0.8253 -0.8286
   80SLPC   H9Y 7460   5.511  -0.141   5.365  0.3180 -0.6744  0.5200
   80SLPC  C310 7461   5.696  -0.168   5.249 -0.2826  0.6414  0.0522
   80SLPC  H10X 7462   5.668  -0.275   5.259 -2.4286  1.3607  4.4399
   80SLPC  H10Y 7463   5.806  -0.151   5.255 -0.3705  1.4697 -0.5768
   80SLPC  C311 7464   5.655  -0.097   5.120 -0.4556  0.4102  0.0558
   80SLPC  H11X 7465   5.660   0.012   5.141 -3.7322  0.5159  0.8571
   80SLPC  H11Y 7466   5.552  -0.126   5.091 -0.0833  0.3926 -1.2966
   80SLPC  C312 7467   5.733  -0.151   4.993  0.7790 -0.7337  0.9327
   80SLPC  H12X 7468   5.748  -0.261   4.984  1.9802 -0.5794  0.9204
   80SLPC  H12Y 7469   5.833  -0.104   4.985 -0.1240  0.9550 -1.7302
   80SLPC  C313 7470   5.650  -0.122   4.869  0.0813 -0.4586 -0.2362
   80SLPC  H13X 7471   5.610  -0.018   4.868  1.8514  0.2857 -1.3016
   80SLPC  H13Y 7472   5.559  -0.184   4.880 -0.5089  0.1462 -1.4178
   80SLPC  C314 7473   5.720  -0.149   4.732  0.3071  0.0842  0.1381
   80SLPC  H14X 7474   5.765  -0.250   4.746 -2.1102 -0.9894  0.8137
   80SLPC  H14Y 7475   5.804  -0.078   4.724  1.0707 -0.7518  0.5066
   80SLPC  C315 7476   5.611  -0.163   4.627 -0.1277  0.0925  0.0976
   80SLPC  H15X 7477   5.531  -0.086   4.632  0.1565  0.4473 -0.6187
   80SLPC  H15Y 7478   5.564  -0.263   4.623  1.9914 -0.9156 -1.5607
   80SLPC  C316 7479   5.684  -0.133   4.496 -0.2529 -0.0345  0.4497
   80SLPC  H16X 7480   5.772  -0.199   4.484 -0.7853 -0.8833  1.0793
   80SLPC  H16Y 7481   5.717  -0.027   4.488  1.1459 -0.5128 -0.4991
   80SLPC  C317 7482   5.602  -0.174   4.374  0.6804  0.1492  0.1719
   80SLPC  H17X 7483   5.523  -0.097   4.373 -1.0332 -1.4989 -2.4831
   80SLPC  H17Y 7484   5.572  -0.281   4.373 -1.0791  0.6001 -2.2397
   80SLPC  C318 7485   5.678  -0.171   4.242  0.2353 -0.6430 -0.7349
   80SLPC  H18X 7486   5.765  -0.239   4.248 -0.3164 -1.1969  2.1532
   80SLPC  H18Y 7487   5.713  -0.067   4.223 -1.3159  0.0443 -0.0218
   80SLPC  H18Z 7488   5.619  -0.205   4.154 -1.2871  1.7608 -0.7401
   81SLPC     N 7489   5.312   3.402   2.000  0.1537  0.0865 -0.5422
   81SLPC   C13 7490   5.281   3.296   1.900  0.1306 -0.8399 -0.4121
   81SLPC  H13A 7491   5.334   3.310   1.807  0.1226  1.3539 -0.1556
   81SLPC  H13B 7492   5.293   3.201   1.949 -1.1399 -0.9492 -0.2590
   81SLPC  H13C 7493   5.177   3.295   1.869  0.2593  0.7758 -1.0103
   81SLPC   C14 7494   5.452   3.385   2.054  0.1695 -0.2200 -0.6961
   81SLPC  H14A 7495   5.478   3.449   2.137 -1.9786 -0.3159  0.1109
   81SLPC  H14B 7496   5.477   3.285   2.085  0.8169 -0.5233 -2.1201
   81SLPC  H14C 7497   5.520   3.419   1.977  3.3402 -0.9160  1.6118
   81SLPC   C15 7498   5.227   3.380   2.123  0.0084  0.2236  0.3373
   81SLPC  H15A 7499   5.244   3.445   2.208 -1.1776 -1.8017  2.2396
   81SLPC  H15B 7500   5.121   3.376   2.103  0.0484 -1.4600  0.3129
   81SLPC  H15C 7501   5.250   3.287   2.174 -0.1994  1.2840  2.4962
   81SLPC   C12 7502   5.283   3.538   1.941  0.6823  0.3220  0.0169
   81SLPC  H12A 7503   5.319   3.605   2.018 -0.9079 -0.1628  1.2318
   81SLPC  H12B 7504   5.178   3.563   1.939  0.2728 -1.1740  0.8692
   81SLPC   C11 7505   5.354   3.585   1.808 -0.7985 -0.8472 -0.3373
   81SLPC  H11A 7506   5.331   3.691   1.788  3.1051  0.2482  0.1401
   81SLPC  H11B 7507   5.320   3.518   1.727  0.4436 -1.2744 -0.5358
   81SLPC     P 7508   5.589   3.694   1.879  0.0088  0.0211  0.4887
   81SLPC   O13 7509   5.726   3.654   1.868 -0.3209  0.7996 -0.5103
   81SLPC   O14 7510   5.548   3.825   1.812  0.6326 -0.0996 -0.1422
   81SLPC   O12 7511   5.498   3.571   1.821  0.0866 -0.1558 -0.1480
   81SLPC   O11 7512   5.540   3.697   2.030 -0.5527  0.9339 -0.6017
   81SLPC    C1 7513   5.520   3.816   2.101 -0.2551  0.1334  0.1973
   81SLPC    HA 7514   5.581   3.899   2.058 -1.2843  1.5587  1.3982
   81SLPC    HB 7515   5.417   3.848   2.076 -1.0565 -1.7625  0.9198
   81SLPC    C2 7516   5.530   3.812   2.257  0.2010  0.4308  0.1393
   81SLPC    HS 7517   5.501   3.916   2.283 -2.4671  0.3923 -2.1967
   81SLPC   O21 7518   5.658   3.768   2.303 -0.2679  0.3753 -0.0625
   81SLPC   C21 7519   5.698   3.820   2.421 -0.2669 -0.4343  0.4987
   81SLPC   O22 7520   5.647   3.918   2.469  0.2669  0.2613  0.2645
   81SLPC   C22 7521   5.816   3.754   2.481 -0.3557  0.3047  0.8209
   81SLPC   H2R 7522   5.855   3.681   2.407 -1.9152  1.6385 -1.4847
   81SLPC   H2S 7523   5.890   3.834   2.504  0.9968 -1.1224  1.5359
   81SLPC    C3 7524   5.409   3.734   2.321  0.0299  1.0120 -0.0775
   81SLPC    HX 7525   5.426   3.625   2.312 -2.5743  0.2976  2.2263
   81SLPC    HY 7526   5.318   3.743   2.259  0.5606  0.8597 -0.8912
   81SLPC   O31 7527   5.392   3.772   2.459 -0.1879 -0.2849  0.0366
   81SLPC   C31 7528   5.294   3.856   2.503 -0.4530  0.6248  0.8123
   81SLPC   O32 7529   5.228   3.932   2.435  0.1303 -0.0632 -0.0196
   81SLPC   C32 7530   5.283   3.851   2.658  0.2158 -0.1398 -0.5711
   81SLPC   H2X 7531   5.241   3.753   2.688  1.8590 -0.2920  1.4977
   81SLPC   H2Y 7532   5.206   3.929   2.676  2.7090  2.2200  0.6271
   81SLPC   C23 7533   5.798   3.691   2.625 -0.0264 -0.3125 -0.1624
   81SLPC   H3R 7534   5.717   3.615   2.618 -0.5686  0.2206  0.2159
   81SLPC   H3S 7535   5.771   3.780   2.687 -1.3168 -0.7378 -0.0932
   81SLPC   C24 7536   5.939   3.647   2.674 -0.2376  0.7826  0.2595
   81SLPC   H4R 7537   6.012   3.731   2.682  0.8099 -0.1182  0.3451
   81SLPC   H4S 7538   5.987   3.584   2.596  1.6453  1.8443  0.5088
   81SLPC   C25 7539   5.939   3.571   2.803 -0.1099  0.4011 -0.5088
   81SLPC   H5R 7540   6.042   3.533   2.821 -0.1135  0.3217 -0.6613
   81SLPC   H5S 7541   5.870   3.484   2.794 -1.3036  0.8592  2.6487
   81SLPC   C26 7542   5.882   3.650   2.926 -0.2122  0.7346 -0.2450
   81SLPC   H6R 7543   5.778   3.676   2.895  0.1924  0.1832 -2.2362
   81SLPC   H6S 7544   5.943   3.738   2.955  1.9380 -0.9840  0.7213
   81SLPC   C27 7545   5.876   3.558   3.051  0.3559  0.2955  0.1988
   81SLPC   H7R 7546   5.972   3.507   3.074 -2.0514 -4.0016  1.9744
   81SLPC   H7S 7547   5.815   3.467   3.032 -0.8173  1.0303  0.3396
   81SLPC   C28 7548   5.817   3.625   3.175 -0.5583 -0.2443 -0.2015
   81SLPC   H8R 7549   5.772   3.554   3.248 -0.2463 -1.8996 -1.5570
   81SLPC   H8S 7550   5.740   3.690   3.130  0.9580  0.3559 -2.0930
   81SLPC   C29 7551   5.919   3.707   3.253  0.2227 -0.4029 -0.0387
   81SLPC   H9R 7552   5.968   3.786   3.193  0.0894  1.5719  2.2972
   81SLPC  C210 7553   5.954   3.693   3.379 -0.0844 -0.3505 -1.0874
   81SLPC  H10R 7554   6.022   3.768   3.420  1.0214  0.1610 -3.6608
   81SLPC  C211 7555   5.902   3.595   3.479 -0.4845 -0.0248  0.0936
   81SLPC  H11R 7556   5.799   3.565   3.452 -0.3327  0.4750 -1.1356
   81SLPC  H11S 7557   5.894   3.642   3.579 -0.4065 -1.2411  0.6841
   81SLPC  C212 7558   5.995   3.479   3.486  0.0393  0.0596 -0.9325
   81SLPC  H12R 7559   6.062   3.465   3.400 -0.9570 -0.7057 -1.6083
   81SLPC  C213 7560   5.998   3.392   3.584  0.1325  0.0615 -0.9807
   81SLPC  H13R 7561   6.048   3.295   3.568 -2.3556 -1.3914 -0.4188
   81SLPC  C214 7562   5.922   3.413   3.713 -0.1516 -0.0016  0.2095
   81SLPC  H14R 7563   5.828   3.354   3.718 -0.3579  0.1517 -1.4154
   81SLPC  H14S 7564   5.902   3.520   3.738 -0.3112  0.0474 -0.1192
   81SLPC  C215 7565   5.995   3.352   3.837 -0.1097 -0.5684  0.6909
   81SLPC  H15R 7566   6.085   3.416   3.844 -0.6311  0.6089 -1.8632
   81SLPC  H15S 7567   6.012   3.245   3.816 -0.3893 -0.2622 -1.4161
   81SLPC  C216 7568   5.922   3.363   3.974 -0.4035  0.0247  0.5800
   81SLPC  H16R 7569   5.817   3.330   3.959 -0.0052 -0.5460 -1.2259
   81SLPC  H16S 7570   5.905   3.467   4.009 -1.4616 -0.3551  1.2337
   81SLPC  C217 7571   5.997   3.279   4.085  0.4726 -0.2443  0.9156
   81SLPC  H17R 7572   6.104   3.296   4.059 -0.9035  2.0740 -5.1646
   81SLPC  H17S 7573   5.982   3.169   4.077  1.5440 -0.2998 -1.2192
   81SLPC  C218 7574   5.975   3.318   4.231  0.4984  0.5873 -0.3164
   81SLPC  H18R 7575   5.960   3.220   4.282  3.8854 -1.0939 -2.1955
   81SLPC  H18S 7576   5.873   3.363   4.240 -0.3323 -1.5176  1.7696
   81SLPC  H18T 7577   6.042   3.390   4.283  0.4399  0.6957 -0.3913
   81SLPC   C33 7578   5.410   3.878   2.738 -0.0935  0.1421 -0.1212
   81SLPC   H3X 7579   5.460   3.973   2.711 -2.7706  1.5941 -0.3369
   81SLPC   H3Y 7580   5.493   3.806   2.724  0.7688  0.8159  1.2983
   81SLPC   C34 7581   5.380   3.858   2.891 -0.1720 -0.3138  0.0127
   81SLPC   H4X 7582   5.331   3.760   2.907 -0.5656 -0.1594 -0.2267
   81SLPC   H4Y 7583   5.304   3.933   2.922 -0.9461 -0.0843 -2.2115
   81SLPC   C35 7584   5.506   3.864   2.977  0.1871  0.7091  0.0861
   81SLPC   H5X 7585   5.552   3.965   2.964 -0.6211  0.9518 -1.0146
   81SLPC   H5Y 7586   5.586   3.808   2.923  1.0007  2.1420 -0.2617
   81SLPC   C36 7587   5.487   3.820   3.125 -0.7761  0.4288  1.0493
   81SLPC   H6X 7588   5.579   3.832   3.185  1.0372 -0.8009 -1.3045
   81SLPC   H6Y 7589   5.482   3.710   3.112 -1.0325  0.5802 -0.3772
   81SLPC   C37 7590   5.365   3.866   3.200 -0.7062  0.2958  0.0075
   81SLPC   H7X 7591   5.266   3.829   3.163 -0.4962 -2.1523  1.6276
   81SLPC   H7Y 7592   5.357   3.976   3.197  1.3103  0.4829  0.3664
   81SLPC   C38 7593   5.370   3.807   3.342 -0.0010  0.1775  0.0795
   81SLPC   H8X 7594   5.411   3.705   3.331  3.7605  1.1551  2.7577
   81SLPC   H8Y 7595   5.273   3.810   3.395  1.3629  0.2310  2.7636
   81SLPC   C39 7596   5.471   3.884   3.434  0.5532 -0.4805 -0.3851
   81SLPC   H9X 7597   5.490   3.988   3.401  0.4636 -0.2173  0.3763
   81SLPC   H9Y 7598   5.576   3.847   3.426  1.2236  1.4081 -0.7090
   81SLPC  C310 7599   5.431   3.886   3.582 -0.8928  0.8163  0.4606
   81SLPC  H10X 7600   5.334   3.939   3.590 -0.2540  2.3356 -1.1699
   81SLPC  H10Y 7601   5.508   3.946   3.634 -0.4234  0.0428  0.6765
   81SLPC  C311 7602   5.433   3.748   3.653 -0.1879 -0.6273  0.4763
   81SLPC  H11X 7603   5.535   3.706   3.643  0.7519  1.6105  0.0626
   81SLPC  H11Y 7604   5.362   3.679   3.603 -0.1595 -0.3666  0.0745
   81SLPC  C312 7605   5.410   3.773   3.806  0.3903  0.0522 -0.1783
   81SLPC  H12X 7606   5.408   3.673   3.854  1.0881 -0.7517 -1.7283
   81SLPC  H12Y 7607   5.317   3.828   3.830  0.4654  0.0068  0.2102
   81SLPC  C313 7608   5.515   3.855   3.876  1.3802 -0.0368 -0.5459
   81SLPC  H13X 7609   5.483   3.854   3.983  2.1113 -0.2219 -0.3261
   81SLPC  H13Y 7610   5.523   3.959   3.837  1.5202  0.8892  1.7484
   81SLPC  C314 7611   5.654   3.801   3.867 -0.4500  0.8441  0.1297
   81SLPC  H14X 7612   5.704   3.821   3.770 -1.9607  2.6341 -0.3516
   81SLPC  H14Y 7613   5.634   3.693   3.883 -2.6712  1.2629  0.5960
   81SLPC  C315 7614   5.756   3.852   3.971 -0.2683 -0.0157  1.0141
   81SLPC  H15X 7615   5.847   3.789   3.976 -0.9405 -1.0512  0.5494
   81SLPC  H15Y 7616   5.710   3.835   4.071 -0.3243  0.4171  1.0628
   81SLPC  C316 7617   5.799   4.001   3.953 -0.3893  0.2495  0.4677
   81SLPC  H16X 7618   5.710   4.058   3.921 -2.0352 -0.7745  2.8887
   81SLPC  H16Y 7619   5.873   3.998   3.870  1.4410  1.0100  1.9793
   81SLPC  C317 7620   5.853   4.073   4.080 -0.5471 -0.3602 -0.4783
   81SLPC  H17X 7621   5.953   4.037   4.111 -0.0075  1.0341 -0.4925
   81SLPC  H17Y 7622   5.780   4.047   4.160 -3.2103 -1.9395 -3.2146
   81SLPC  C318 7623   5.855   4.226   4.070  0.2928  0.1873  0.8955
   81SLPC  H18X 7624   5.899   4.273   4.159  0.9467  0.1044  0.6203
   81SLPC  H18Y 7625   5.747   4.248   4.056 -0.1428 -1.1837  1.8887
   81SLPC  H18Z 7626   5.917   4.260   3.984  2.6668  1.3449  2.9415
   82SLPC     N 7627   2.052   5.658   1.772  0.9013 -0.4948  0.0573
   82SLPC   C13 7628   1.958   5.778   1.763  0.0674  0.2240  0.0044
   82SLPC  H13A 7629   1.907   5.790   1.669  0.3430  0.9652 -0.0579
   82SLPC  H13B 7630   1.879   5.768   1.836  0.0807  0.0381 -0.0074
   82SLPC  H13C 7631   2.012   5.871   1.776  0.5448  0.2049 -1.5731
   82SLPC   C14 7632   2.172   5.690   1.688 -0.3125 -0.6602  0.2087
   82SLPC  H14A 7633   2.236   5.603   1.682  0.2843 -0.4109  2.2841
   82SLPC  H14B 7634   2.143   5.714   1.587 -0.6519 -0.9721  0.2281
   82SLPC  H14C 7635   2.229   5.775   1.721  1.0180 -0.2922 -2.7460
   82SLPC   C15 7636   1.988   5.539   1.708  0.3558 -0.3457 -0.1448
   82SLPC  H15A 7637   2.064   5.462   1.704  0.7522  0.0756 -1.5931
   82SLPC  H15B 7638   1.910   5.508   1.775 -0.1152 -1.6554 -1.2448
   82SLPC  H15C 7639   1.950   5.551   1.607 -0.1298  0.2459  0.0997
   82SLPC   C12 7640   2.093   5.634   1.910  0.1792 -0.3715 -0.2487
   82SLPC  H12A 7641   2.006   5.612   1.969  0.2964 -1.7227 -0.5469
   82SLPC  H12B 7642   2.136   5.716   1.965  1.7396 -1.5566  0.3919
   82SLPC   C11 7643   2.190   5.514   1.928  0.2605  0.5882  0.3577
   82SLPC  H11A 7644   2.240   5.514   2.027 -0.8443  0.2595  0.9423
   82SLPC  H11B 7645   2.275   5.510   1.857 -1.6258 -1.6365 -1.9548
   82SLPC     P 7646   2.015   5.344   2.023 -0.3267 -0.0383 -0.3356
   82SLPC   O13 7647   1.926   5.454   2.057  0.1310  0.1661 -0.7792
   82SLPC   O14 7648   1.954   5.215   1.982  0.3166 -0.2600  0.1421
   82SLPC   O12 7649   2.122   5.386   1.909 -0.4748  0.4829 -0.0268
   82SLPC   O11 7650   2.114   5.311   2.144 -0.3851  0.4360 -0.1735
   82SLPC    C1 7651   2.207   5.200   2.126  0.6019 -0.3253  0.0671
   82SLPC    HA 7652   2.142   5.110   2.124  0.7175 -0.4539 -3.2699
   82SLPC    HB 7653   2.256   5.193   2.027  1.1520 -2.5666  0.4465
   82SLPC    C2 7654   2.318   5.184   2.238 -0.3774  0.2503  0.2881
   82SLPC    HS 7655   2.395   5.122   2.188  0.5906  1.0467  0.7731
   82SLPC   O21 7656   2.260   5.118   2.350  0.4232 -0.1330 -0.4387
   82SLPC   C21 7657   2.331   5.037   2.420  0.1149 -0.4128  0.4535
   82SLPC   O22 7658   2.445   5.001   2.392  0.9784  0.0796  0.2463
   82SLPC   C22 7659   2.259   4.987   2.540 -0.7429  0.3111 -0.1823
   82SLPC   H2R 7660   2.163   4.938   2.514 -0.2502 -0.8980  0.2165
   82SLPC   H2S 7661   2.320   4.907   2.587 -0.8267  1.5014  2.1128
   82SLPC    C3 7662   2.387   5.315   2.264  0.5260  0.1569  0.0296
   82SLPC    HX 7663   2.296   5.371   2.293 -1.1422 -1.4245 -1.8519
   82SLPC    HY 7664   2.441   5.360   2.178 -0.1676 -0.5224 -0.7788
   82SLPC   O31 7665   2.471   5.304   2.382 -0.4399 -0.3606 -0.3003
   82SLPC   C31 7666   2.595   5.308   2.355 -0.2586 -0.8607 -0.5719
   82SLPC   O32 7667   2.650   5.306   2.244 -0.4260 -0.5465 -0.6067
   82SLPC   C32 7668   2.674   5.290   2.483 -0.2055  0.1433  0.1856
   82SLPC   H2X 7669   2.662   5.184   2.516 -0.5539  0.1641  0.1319
   82SLPC   H2Y 7670   2.619   5.355   2.554  0.3723  1.0789 -0.2105
   82SLPC   C23 7671   2.234   5.097   2.655 -0.2283 -0.0174 -0.3564
   82SLPC   H3R 7672   2.145   5.160   2.630 -0.0600  0.3281 -0.0933
   82SLPC   H3S 7673   2.331   5.151   2.661 -1.0105  1.4270 -0.2128
   82SLPC   C24 7674   2.211   5.024   2.792 -0.3775  0.2898  0.1649
   82SLPC   H4R 7675   2.295   4.955   2.810  0.9433  1.6519 -0.5816
   82SLPC   H4S 7676   2.119   4.961   2.790  0.7473 -1.4426  1.2216
   82SLPC   C25 7677   2.210   5.123   2.905 -0.3645  0.3459 -0.0037
   82SLPC   H5R 7678   2.121   5.189   2.898  0.5959  1.5871 -0.8593
   82SLPC   H5S 7679   2.301   5.186   2.906  0.1056 -0.3266  0.5096
   82SLPC   C26 7680   2.203   5.062   3.044 -0.4698  0.4482 -0.3425
   82SLPC   H6R 7681   2.278   4.982   3.056 -1.3771 -0.3609  0.0421
   82SLPC   H6S 7682   2.100   5.022   3.056 -1.2126  1.9435 -1.3473
   82SLPC   C27 7683   2.238   5.151   3.162 -0.0237 -0.7379 -0.7007
   82SLPC   H7R 7684   2.201   5.254   3.147  0.3527 -0.6760 -1.2626
   82SLPC   H7S 7685   2.348   5.171   3.163 -0.3811  1.4788  0.2607
   82SLPC   C28 7686   2.208   5.096   3.303  0.2121 -0.5454 -0.7009
   82SLPC   H8R 7687   2.101   5.077   3.328  1.2692 -3.3189  2.5747
   82SLPC   H8S 7688   2.242   5.171   3.377 -0.7999 -3.0152  2.5502
   82SLPC   C29 7689   2.289   4.973   3.329  0.3915  0.3271 -0.4842
   82SLPC   H9R 7690   2.303   4.908   3.242 -0.6484 -0.3349 -0.1706
   82SLPC  C210 7691   2.343   4.935   3.446  0.4714 -0.2511  0.4468
   82SLPC  H10R 7692   2.395   4.839   3.455  1.8486  0.0793 -2.6100
   82SLPC  C211 7693   2.317   5.002   3.582 -0.3589 -0.2236 -0.4224
   82SLPC  H11R 7694   2.349   4.933   3.663  1.1788  0.5267 -0.3395
   82SLPC  H11S 7695   2.209   5.028   3.582 -0.6842 -1.4705  0.4142
   82SLPC  C212 7696   2.398   5.137   3.590  0.4091 -0.3387  0.1556
   82SLPC  H12R 7697   2.420   5.189   3.496  1.1475  1.8844  1.4854
   82SLPC  C213 7698   2.431   5.203   3.702  0.3891  0.6469 -0.1592
   82SLPC  H13R 7699   2.491   5.295   3.693  0.2804  1.3459  4.2218
   82SLPC  C214 7700   2.403   5.161   3.848 -0.1376 -0.1571  0.2836
   82SLPC  H14R 7701   2.331   5.078   3.860 -0.5737  0.0966 -0.5006
   82SLPC  H14S 7702   2.371   5.258   3.891  3.9464  0.5687  2.2412
   82SLPC  C215 7703   2.525   5.119   3.935 -0.1855  0.4073 -0.4421
   82SLPC  H15R 7704   2.510   5.076   4.036  1.0925 -1.1279 -0.8767
   82SLPC  H15S 7705   2.574   5.214   3.964  0.4095  0.8060 -2.5479
   82SLPC  C216 7706   2.626   5.027   3.861 -0.3831 -0.1408 -0.6329
   82SLPC  H16R 7707   2.666   5.080   3.772  0.9457  1.0457  0.6192
   82SLPC  H16S 7708   2.575   4.938   3.819 -0.4087 -0.3888 -0.0891
   82SLPC  C217 7709   2.746   4.996   3.944 -0.4605  0.4825 -0.5449
   82SLPC  H17R 7710   2.733   4.905   4.006 -0.6967  0.5499 -0.4942
   82SLPC  H17S 7711   2.776   5.083   4.006 -1.6574  0.7511 -0.3264
   82SLPC  C218 7712   2.861   4.970   3.844 -0.6248  0.5602  0.4057
   82SLPC  H18R 7713   2.875   5.059   3.778  2.8712 -1.4401 -1.8783
   82SLPC  H18S 7714   2.831   4.888   3.774 -1.3617  1.3200 -0.2017
   82SLPC  H18T 7715   2.955   4.951   3.899  0.5948  1.3495 -1.3148
   82SLPC   C33 7716   2.828   5.317   2.477 -0.6252 -0.0800  0.6448
   82SLPC   H3X 7717   2.857   5.424   2.465  1.4598 -0.5854  0.7537
   82SLPC   H3Y 7718   2.874   5.270   2.388  0.9783  2.5464 -0.0367
   82SLPC   C34 7719   2.914   5.255   2.591  0.3884 -0.8171  0.5714
   82SLPC   H4X 7720   3.023   5.266   2.574 -0.0853  0.6917 -1.8073
   82SLPC   H4Y 7721   2.885   5.149   2.607 -1.8048 -0.2022  1.0527
   82SLPC   C35 7722   2.888   5.329   2.724 -0.6067 -0.1709  0.2119
   82SLPC   H5X 7723   2.925   5.262   2.805 -0.8196 -0.0105  0.4430
   82SLPC   H5Y 7724   2.784   5.358   2.751 -1.2625 -1.1319 -1.1844
   82SLPC   C36 7725   2.960   5.470   2.738 -0.2630 -0.0924 -0.3454
   82SLPC   H6X 7726   2.938   5.531   2.647 -0.1561 -0.7308 -0.8036
   82SLPC   H6Y 7727   3.069   5.452   2.748 -0.4612 -0.1203  2.8917
   82SLPC   C37 7728   2.903   5.559   2.849 -0.1870  0.5872 -0.4749
   82SLPC   H7X 7729   2.794   5.545   2.866 -0.1927  1.6645  0.4517
   82SLPC   H7Y 7730   2.927   5.666   2.831  2.0773  0.1016 -0.5888
   82SLPC   C38 7731   2.968   5.515   2.988 -0.1160 -0.3110  0.6601
   82SLPC   H8X 7732   3.079   5.521   2.983 -0.1685  1.5290  0.9673
   82SLPC   H8Y 7733   2.922   5.415   2.995 -1.8889  0.2175 -2.0788
   82SLPC   C39 7734   2.926   5.609   3.101  0.1287 -0.1172 -0.1440
   82SLPC   H9X 7735   2.826   5.569   3.128  0.7482 -2.2459 -0.8625
   82SLPC   H9Y 7736   2.902   5.709   3.059 -0.8139 -0.4863 -0.4955
   82SLPC  C310 7737   3.020   5.630   3.218  0.0178 -0.1400 -0.1132
   82SLPC  H10X 7738   3.120   5.631   3.170  0.3472  0.3803  0.5668
   82SLPC  H10Y 7739   3.020   5.547   3.291  0.3894 -0.7199 -0.7642
   82SLPC  C311 7740   3.022   5.765   3.290 -0.1638 -0.2286 -0.1760
   82SLPC  H11X 7741   3.019   5.854   3.225 -0.7728  0.6785  1.0390
   82SLPC  H11Y 7742   3.115   5.783   3.348  0.2588  0.6490 -1.0942
   82SLPC  C312 7743   2.894   5.772   3.372  0.1996  0.0183 -0.1359
   82SLPC  H12X 7744   2.883   5.692   3.448  2.3917 -1.5605 -1.3622
   82SLPC  H12Y 7745   2.813   5.767   3.295  0.1746 -3.4014 -0.0230
   82SLPC  C313 7746   2.882   5.903   3.447  0.0244 -1.1418  0.2997
   82SLPC  H13X 7747   2.850   5.980   3.374 -0.7414 -1.3777  0.3785
   82SLPC  H13Y 7748   2.985   5.932   3.480  0.1818  0.1918 -1.2329
   82SLPC  C314 7749   2.786   5.907   3.572  0.5178  0.3060  1.2339
   82SLPC  H14X 7750   2.825   5.828   3.640 -0.3663 -1.0397  0.2406
   82SLPC  H14Y 7751   2.687   5.870   3.537  1.7863 -3.4552  1.1477
   82SLPC  C315 7752   2.768   6.044   3.643  0.0882  0.2941  0.3376
   82SLPC  H15X 7753   2.780   6.117   3.561  0.3814  0.2889  0.3763
   82SLPC  H15Y 7754   2.862   6.058   3.700  0.7709  2.6666 -1.2230
   82SLPC  C316 7755   2.634   6.065   3.719 -1.3154 -0.1990  0.3352
   82SLPC  H16X 7756   2.545   6.042   3.655 -2.0863  1.5774  0.7132
   82SLPC  H16Y 7757   2.625   6.172   3.747  0.9332  0.4147 -1.0007
   82SLPC  C317 7758   2.614   5.976   3.839 -1.1256 -0.2536 -0.1082
   82SLPC  H17X 7759   2.693   6.004   3.912  0.4680  2.0023 -2.5260
   82SLPC  H17Y 7760   2.647   5.874   3.808 -1.0960 -0.2487 -0.0922
   82SLPC  C318 7761   2.473   5.957   3.896 -0.4304  0.3006 -0.6342
   82SLPC  H18X 7762   2.431   6.059   3.896  4.2064  2.5220 -2.0771
   82SLPC  H18Y 7763   2.478   5.917   4.000  0.7622 -0.3323 -0.9040
   82SLPC  H18Z 7764   2.422   5.877   3.839  0.1309 -1.1801  0.8496
   83SLPC     N 7765   1.022   3.909   1.905 -0.5333 -0.8271  0.2163
   83SLPC   C13 7766   1.006   3.784   1.831  0.4647 -0.3780  0.4558
   83SLPC  H13A 7767   1.099   3.733   1.812  1.4025  1.5593 -0.3548
   83SLPC  H13B 7768   0.925   3.724   1.871 -0.1541  0.1657  0.0421
   83SLPC  H13C 7769   0.968   3.808   1.733  2.5139 -1.6560 -0.7120
   83SLPC   C14 7770   0.895   3.997   1.884 -0.5309 -0.1738  0.3047
   83SLPC  H14A 7771   0.806   3.943   1.912 -0.9280  0.8634  1.1042
   83SLPC  H14B 7772   0.899   4.083   1.950 -2.8861  0.3646 -0.1551
   83SLPC  H14C 7773   0.889   4.041   1.785 -1.1760  2.8444  1.5734
   83SLPC   C15 7774   1.143   3.982   1.851  1.2875  0.4957 -0.0215
   83SLPC  H15A 7775   1.160   4.070   1.910  1.1300  1.8645 -1.9427
   83SLPC  H15B 7776   1.226   3.915   1.871  0.3629 -0.2166  1.6280
   83SLPC  H15C 7777   1.139   3.999   1.745 -1.3381 -1.9946 -0.4684
   83SLPC   C12 7778   1.045   3.881   2.053 -0.0783  0.1549 -0.0238
   83SLPC  H12A 7779   0.949   3.865   2.100 -0.2490  0.2879 -0.3249
   83SLPC  H12B 7780   1.090   3.970   2.095  1.0150 -0.7998  0.8899
   83SLPC   C11 7781   1.135   3.767   2.093 -0.0780  0.8109  0.0445
   83SLPC  H11A 7782   1.157   3.768   2.202  2.6622 -0.6008 -0.4199
   83SLPC  H11B 7783   1.232   3.772   2.041 -0.3237 -0.6764 -0.6175
   83SLPC     P 7784   0.954   3.586   2.144 -0.1216 -0.1814  0.1814
   83SLPC   O13 7785   0.873   3.692   2.215  0.0440 -0.5811  0.4894
   83SLPC   O14 7786   0.873   3.499   2.055 -0.4062  0.4153  0.4018
   83SLPC   O12 7787   1.078   3.637   2.060 -0.2221 -0.8549 -0.5834
   83SLPC   O11 7788   1.014   3.497   2.260 -0.0327  0.0075 -0.3915
   83SLPC    C1 7789   1.139   3.421   2.257 -0.0591 -0.7410  0.3582
   83SLPC    HA 7790   1.123   3.317   2.220 -0.0657 -0.0060 -1.8818
   83SLPC    HB 7791   1.206   3.470   2.183 -0.2653 -0.4193  0.3810
   83SLPC    C2 7792   1.202   3.413   2.399 -0.1608 -0.4579  0.5781
   83SLPC    HS 7793   1.302   3.366   2.395 -0.7425 -2.0312  3.0395
   83SLPC   O21 7794   1.116   3.347   2.492  0.4232  0.2747 -0.3388
   83SLPC   C21 7795   1.179   3.320   2.609  0.4801  0.3462  0.0478
   83SLPC   O22 7796   1.298   3.305   2.628  0.2879 -0.0329  0.3864
   83SLPC   C22 7797   1.072   3.311   2.719 -0.1896  1.2294 -0.0087
   83SLPC   H2R 7798   1.032   3.412   2.743 -0.4245  0.6666  2.2545
   83SLPC   H2S 7799   0.987   3.250   2.681  0.2796  0.2594  0.4727
   83SLPC    C3 7800   1.219   3.560   2.435 -0.1203 -0.0678 -0.4285
   83SLPC    HX 7801   1.116   3.602   2.432 -1.7616 -3.7250 -2.1667
   83SLPC    HY 7802   1.282   3.614   2.361 -1.8431 -0.0635 -1.9607
   83SLPC   O31 7803   1.271   3.574   2.571 -0.7988 -0.1504  0.1689
   83SLPC   C31 7804   1.412   3.574   2.570 -0.1465  0.1630  0.4814
   83SLPC   O32 7805   1.479   3.579   2.472 -0.1431  0.1217  0.2550
   83SLPC   C32 7806   1.467   3.579   2.710  0.2740  0.0923  0.4184
   83SLPC   H2X 7807   1.457   3.475   2.749  0.4121  0.9742  2.9834
   83SLPC   H2Y 7808   1.405   3.654   2.764  2.5148  0.7912  2.1658
   83SLPC   C23 7809   1.130   3.251   2.849  0.1235 -0.3341  0.5850
   83SLPC   H3R 7810   1.179   3.335   2.903  0.0384  2.4150 -3.1949
   83SLPC   H3S 7811   1.206   3.171   2.841 -0.9113 -1.8434  4.0550
   83SLPC   C24 7812   1.010   3.192   2.934 -0.5099 -0.4181  0.4596
   83SLPC   H4R 7813   1.060   3.137   3.017  0.8333 -1.5770 -1.0580
   83SLPC   H4S 7814   0.968   3.120   2.861  0.4690 -1.4550  0.8764
   83SLPC   C25 7815   0.898   3.293   2.974  0.3955 -0.3764 -0.3604
   83SLPC   H5R 7816   0.828   3.222   3.023  1.7455  0.0643  2.3291
   83SLPC   H5S 7817   0.847   3.341   2.887 -0.6495  0.2856  0.5949
   83SLPC   C26 7818   0.937   3.406   3.072 -0.1486  0.7443 -0.0074
   83SLPC   H6R 7819   0.989   3.487   3.016 -0.3922  1.2425  0.4795
   83SLPC   H6S 7820   0.996   3.373   3.161 -1.7380  2.2421  1.6998
   83SLPC   C27 7821   0.818   3.477   3.137  0.4211 -0.4045  0.2502
   83SLPC   H7R 7822   0.770   3.418   3.218 -0.1387 -0.0287  0.1980
   83SLPC   H7S 7823   0.743   3.507   3.061  1.2797  0.9678 -0.0979
   83SLPC   C28 7824   0.867   3.608   3.211 -0.4863  0.4057  0.7499
   83SLPC   H8R 7825   0.883   3.686   3.134 -2.9769 -0.3400 -0.6363
   83SLPC   H8S 7826   0.958   3.581   3.267  0.1634  0.4250 -0.2743
   83SLPC   C29 7827   0.756   3.666   3.300 -0.0852  0.5185 -0.5489
   83SLPC   H9R 7828   0.670   3.705   3.243 -1.1412 -1.4142 -0.3832
   83SLPC  C210 7829   0.756   3.693   3.434 -0.5265  0.4717  0.5476
   83SLPC  H10R 7830   0.666   3.732   3.483  1.2933  2.7127  2.3966
   83SLPC  C211 7831   0.867   3.663   3.538 -0.2968 -0.9111 -0.2441
   83SLPC  H11R 7832   0.953   3.611   3.490  0.1691  1.5594 -2.2574
   83SLPC  H11S 7833   0.828   3.586   3.608 -1.1014  0.4395  0.8362
   83SLPC  C212 7834   0.912   3.782   3.612 -0.2824  0.1501  0.7385
   83SLPC  H12R 7835   0.902   3.875   3.556  3.0469  0.3174  0.2361
   83SLPC  C213 7836   0.955   3.795   3.741 -0.4171  0.9706 -0.2181
   83SLPC  H13R 7837   0.982   3.893   3.784  0.6530  2.0363 -3.0823
   83SLPC  C214 7838   0.968   3.680   3.840  0.6062 -0.3630  0.4261
   83SLPC  H14R 7839   1.071   3.686   3.880  0.2488  0.9822  1.2117
   83SLPC  H14S 7840   0.962   3.581   3.790  0.5078  0.3019 -0.9080
   83SLPC  C215 7841   0.853   3.693   3.941 -0.3632  0.7430  0.3804
   83SLPC  H15R 7842   0.843   3.606   4.010 -0.5097 -0.8210 -1.5209
   83SLPC  H15S 7843   0.761   3.688   3.880  0.1961 -0.7083 -0.3988
   83SLPC  C216 7844   0.854   3.814   4.035 -0.4338 -0.2912 -0.4104
   83SLPC  H16R 7845   0.830   3.904   3.975  1.5156 -0.1861 -1.0942
   83SLPC  H16S 7846   0.955   3.845   4.068 -1.5588  2.7613  0.5436
   83SLPC  C217 7847   0.748   3.815   4.151  0.4433  0.1708  0.6327
   83SLPC  H17R 7848   0.738   3.909   4.209  4.5853  0.2726  1.4607
   83SLPC  H17S 7849   0.764   3.725   4.214 -0.7881 -1.2918 -1.0393
   83SLPC  C218 7850   0.606   3.779   4.092  0.1835  0.0647 -0.0464
   83SLPC  H18R 7851   0.609   3.683   4.035 -1.0151  0.2866 -0.5111
   83SLPC  H18S 7852   0.570   3.859   4.023  0.1527  1.2611  1.3173
   83SLPC  H18T 7853   0.534   3.769   4.175  1.8003  0.3381  1.4419
   83SLPC   C33 7854   1.611   3.629   2.718  0.0822  0.0064 -0.8031
   83SLPC   H3X 7855   1.676   3.581   2.643  2.1386  0.9992  0.2470
   83SLPC   H3Y 7856   1.648   3.598   2.819  0.2219 -0.7445 -1.0802
   83SLPC   C34 7857   1.633   3.784   2.704 -0.0481 -0.9815  0.9195
   83SLPC   H4X 7858   1.554   3.837   2.760  1.2523 -0.9316  2.7846
   83SLPC   H4Y 7859   1.627   3.810   2.596 -0.0252  1.0465  1.3660
   83SLPC   C35 7860   1.766   3.842   2.743  0.5969  0.3898  0.6326
   83SLPC   H5X 7861   1.762   3.953   2.738 -3.1647  0.3349 -3.5894
   83SLPC   H5Y 7862   1.843   3.808   2.671  0.4531 -0.8507  1.0396
   83SLPC   C36 7863   1.817   3.804   2.879 -0.3506 -0.7816  0.1907
   83SLPC   H6X 7864   1.925   3.829   2.887  0.0649 -1.8556 -1.5151
   83SLPC   H6Y 7865   1.814   3.695   2.901 -1.4145 -1.1071 -1.4312
   83SLPC   C37 7866   1.742   3.880   2.990  0.0067  0.3764  0.0845
   83SLPC   H7X 7867   1.634   3.853   2.989  0.2566 -0.9609 -3.1564
   83SLPC   H7Y 7868   1.750   3.990   2.979 -0.6479  0.6008  1.6670
   83SLPC   C38 7869   1.806   3.843   3.119 -0.2591  0.1197 -0.5156
   83SLPC   H8X 7870   1.914   3.836   3.094 -0.4776  1.4798 -2.0413
   83SLPC   H8Y 7871   1.765   3.744   3.148  0.1918  0.1252  0.1444
   83SLPC   C39 7872   1.778   3.947   3.228 -0.4335 -0.5149  0.5930
   83SLPC   H9X 7873   1.675   3.989   3.225 -0.3361 -0.3378 -0.5143
   83SLPC   H9Y 7874   1.851   4.026   3.201 -1.1576  0.3850  1.1786
   83SLPC  C310 7875   1.809   3.890   3.366 -0.2854  0.2392  0.5459
   83SLPC  H10X 7876   1.916   3.864   3.378 -0.5470 -0.5880  1.2368
   83SLPC  H10Y 7877   1.762   3.790   3.371  0.1647 -0.1508 -1.6763
   83SLPC  C311 7878   1.772   3.991   3.476  0.6505 -0.5659 -1.0624
   83SLPC  H11X 7879   1.664   4.014   3.476  0.2623 -2.2417 -1.6408
   83SLPC  H11Y 7880   1.832   4.081   3.452  0.3771 -0.2085 -0.4360
   83SLPC  C312 7881   1.798   3.935   3.613  0.2939  0.0637 -0.0283
   83SLPC  H12X 7882   1.906   3.909   3.622  0.3307  0.2278 -0.0040
   83SLPC  H12Y 7883   1.747   3.837   3.627  0.9281 -0.5275 -1.6673
   83SLPC  C313 7884   1.751   4.022   3.733 -0.1306 -0.4535  0.2336
   83SLPC  H13X 7885   1.781   3.984   3.833 -0.6937  0.5122  0.7865
   83SLPC  H13Y 7886   1.641   4.028   3.720 -0.1306 -1.2537 -0.1664
   83SLPC  C314 7887   1.805   4.168   3.709  0.3858 -0.0978  0.9902
   83SLPC  H14X 7888   1.741   4.215   3.633  0.9381 -1.4653 -0.3717
   83SLPC  H14Y 7889   1.908   4.164   3.668  0.6062  0.8981  1.4164
   83SLPC  C315 7890   1.824   4.265   3.835 -0.0309 -0.4248 -0.2211
   83SLPC  H15X 7891   1.728   4.289   3.885  0.6501  0.9048  0.5302
   83SLPC  H15Y 7892   1.867   4.358   3.790  1.3734 -0.4811  0.9026
   83SLPC  C316 7893   1.909   4.205   3.947  0.0689  1.0813  0.4205
   83SLPC  H16X 7894   2.000   4.157   3.905 -0.2560  1.2550 -0.4918
   83SLPC  H16Y 7895   1.847   4.123   3.988 -1.0771  1.7670  0.1101
   83SLPC  C317 7896   1.959   4.301   4.050 -0.4029  0.3388  0.1476
   83SLPC  H17X 7897   1.884   4.344   4.121  0.2219  1.6883  0.0187
   83SLPC  H17Y 7898   1.982   4.395   3.995 -0.0589  0.4196  0.4275
   83SLPC  C318 7899   2.074   4.253   4.130 -0.6745 -0.7976 -0.5808
   83SLPC  H18X 7900   2.095   4.316   4.220  0.1414 -0.1608 -1.2066
   83SLPC  H18Y 7901   2.173   4.260   4.080  0.1988  1.3661  1.2736
   83SLPC  H18Z 7902   2.056   4.152   4.172  1.0145 -0.2761  1.5731
   84SLPC     N 7903   3.352   1.395   2.294 -0.4756 -0.2205  0.0959
   84SLPC   C13 7904   3.483   1.470   2.284  0.2123  0.1517 -0.3769
   84SLPC  H13A 7905   3.563   1.398   2.282  0.8823  0.8507  0.5491
   84SLPC  H13B 7906   3.495   1.528   2.194  0.4464  3.1739  1.4488
   84SLPC  H13C 7907   3.496   1.528   2.374  1.2190 -0.9136  0.1940
   84SLPC   C14 7908   3.324   1.351   2.154  0.2114  0.4781 -0.0281
   84SLPC  H14A 7909   3.308   1.431   2.083  2.1844 -1.1004 -2.3721
   84SLPC  H14B 7910   3.410   1.298   2.117  0.7275  0.4450  1.1697
   84SLPC  H14C 7911   3.246   1.278   2.143  1.1538 -0.1696 -3.1640
   84SLPC   C15 7912   3.245   1.496   2.324  0.5089 -0.8260 -0.4871
   84SLPC  H15A 7913   3.266   1.543   2.419  0.9852 -0.8807 -0.5603
   84SLPC  H15B 7914   3.252   1.578   2.254 -1.2755 -0.9814 -0.8934
   84SLPC  H15C 7915   3.153   1.443   2.303  0.4638 -0.9688  0.0539
   84SLPC   C12 7916   3.354   1.289   2.392 -0.0983 -0.6662  0.5043
   84SLPC  H12A 7917   3.254   1.247   2.395 -1.4226  2.1280 -0.6813
   84SLPC  H12B 7918   3.359   1.329   2.491 -1.4075  0.5258  0.1310
   84SLPC   C11 7919   3.453   1.172   2.382 -0.0807  0.1154 -0.0981
   84SLPC  H11A 7920   3.455   1.111   2.475  0.2913 -0.8590 -0.7389
   84SLPC  H11B 7921   3.553   1.221   2.378 -0.0827  0.0788 -0.6919
   84SLPC     P 7922   3.302   0.998   2.253  0.3418  0.1434  0.1639
   84SLPC   O13 7923   3.239   1.023   2.118 -0.6093 -0.0177 -0.4533
   84SLPC   O14 7924   3.341   0.857   2.277  0.8714 -1.2287 -0.3954
   84SLPC   O12 7925   3.434   1.086   2.275  0.7131 -0.4833  0.2491
   84SLPC   O11 7926   3.206   1.057   2.365  0.5489 -0.0437 -0.3416
   84SLPC    C1 7927   3.082   0.993   2.381  0.8674 -0.0356 -0.4137
   84SLPC    HA 7928   3.000   1.018   2.310 -2.1244 -1.9634  2.0613
   84SLPC    HB 7929   3.087   0.882   2.372  0.3395  0.0942 -3.8516
   84SLPC    C2 7930   3.023   1.046   2.516 -0.5190  0.4356 -0.3841
   84SLPC    HS 7931   2.997   1.153   2.505 -1.6250  0.5328  2.4218
   84SLPC   O21 7932   3.117   1.019   2.614  0.1986  0.0566  0.3776
   84SLPC   C21 7933   3.181   1.126   2.657  0.6363 -0.2554  0.2676
   84SLPC   O22 7934   3.167   1.243   2.617 -0.0411 -0.1992  0.0834
   84SLPC   C22 7935   3.265   1.082   2.777  0.2031  0.9422  0.5101
   84SLPC   H2R 7936   3.196   1.020   2.839 -1.4236  0.1798 -1.9205
   84SLPC   H2S 7937   3.346   1.020   2.732  1.3189  0.3824  3.0822
   84SLPC    C3 7938   2.895   0.961   2.536 -0.4609 -0.0035  0.6892
   84SLPC    HX 7939   2.902   0.851   2.524 -0.4594  0.0648  0.0464
   84SLPC    HY 7940   2.818   0.995   2.463 -2.2201  1.1046  2.9043
   84SLPC   O31 7941   2.837   0.963   2.670 -0.0965  0.1113 -0.1901
   84SLPC   C31 7942   2.721   1.021   2.683 -0.4239  0.1923 -0.1436
   84SLPC   O32 7943   2.650   1.055   2.591  0.6804  0.1776  0.1481
   84SLPC   C32 7944   2.682   1.023   2.833  0.3444 -0.0066  0.2366
   84SLPC   H2X 7945   2.613   0.938   2.852  0.2705  0.1460  0.6719
   84SLPC   H2Y 7946   2.622   1.114   2.851  0.8680  0.5308 -0.6848
   84SLPC   C23 7947   3.337   1.192   2.853 -0.4003  0.3383 -0.3329
   84SLPC   H3R 7948   3.385   1.257   2.776 -2.4417  0.2987 -1.7007
   84SLPC   H3S 7949   3.414   1.147   2.920 -2.4454  0.2469  2.0834
   84SLPC   C24 7950   3.240   1.278   2.930 -0.3887 -0.0362  0.1958
   84SLPC   H4R 7951   3.158   1.311   2.862  0.1325 -1.6966 -1.3044
   84SLPC   H4S 7952   3.301   1.367   2.956  2.5735 -1.3646 -1.6554
   84SLPC   C25 7953   3.180   1.229   3.059  0.3837 -0.3216 -0.2421
   84SLPC   H5R 7954   3.136   1.128   3.045 -0.0927 -0.2995  0.9941
   84SLPC   H5S 7955   3.087   1.284   3.082 -1.1880 -2.7744 -0.3104
   84SLPC   C26 7956   3.280   1.222   3.178  0.4858  0.2192 -0.4379
   84SLPC   H6R 7957   3.336   1.318   3.177 -0.8116  1.0579  1.3684
   84SLPC   H6S 7958   3.353   1.140   3.158  0.4901 -0.3048  1.5012
   84SLPC   C27 7959   3.207   1.192   3.320  0.4230  0.2722  1.1170
   84SLPC   H7R 7960   3.145   1.101   3.299 -0.8859  0.8754  2.1885
   84SLPC   H7S 7961   3.131   1.272   3.330  1.4646  1.5530 -0.8101
   84SLPC   C28 7962   3.320   1.184   3.430  0.1668  0.5219  0.3129
   84SLPC   H8R 7963   3.398   1.116   3.391 -0.3928 -1.3580  2.2235
   84SLPC   H8S 7964   3.269   1.126   3.510  0.6796 -1.6071 -0.8164
   84SLPC   C29 7965   3.363   1.329   3.461 -0.0137 -0.2201 -1.0037
   84SLPC   H9R 7966   3.423   1.366   3.377  0.4109 -1.1299 -1.1162
   84SLPC  C210 7967   3.341   1.397   3.574 -0.9182  0.3916 -0.5881
   84SLPC  H10R 7968   3.372   1.502   3.574 -0.0605  0.1512 -1.3215
   84SLPC  C211 7969   3.267   1.363   3.701  0.5657 -1.0099 -0.2076
   84SLPC  H11R 7970   3.326   1.413   3.781  1.5869  2.4877 -2.9368
   84SLPC  H11S 7971   3.257   1.253   3.714 -1.4737 -0.7578  0.8097
   84SLPC  C212 7972   3.120   1.411   3.707 -0.1413 -0.4295 -0.7522
   84SLPC  H12R 7973   3.053   1.357   3.640 -3.1127  1.6916  0.3129
   84SLPC  C213 7974   3.079   1.529   3.758  0.5944  0.1620  0.3844
   84SLPC  H13R 7975   2.974   1.554   3.739  0.6563  1.6674  1.8017
   84SLPC  C214 7976   3.157   1.631   3.840  0.1591  0.7225  0.2093
   84SLPC  H14R 7977   3.175   1.722   3.779 -1.4131  0.0232 -1.3700
   84SLPC  H14S 7978   3.252   1.586   3.875 -0.6936 -0.6712  0.7946
   84SLPC  C215 7979   3.081   1.671   3.970 -0.4865  0.1247  1.3186
   84SLPC  H15R 7980   3.049   1.575   4.014 -0.4333 -1.1359 -1.2587
   84SLPC  H15S 7981   2.986   1.728   3.960 -0.9025 -0.3808  2.2615
   84SLPC  C216 7982   3.171   1.736   4.076 -0.4031 -0.5768 -0.3104
   84SLPC  H16R 7983   3.192   1.836   4.032  0.4410 -0.8308 -0.5176
   84SLPC  H16S 7984   3.273   1.693   4.076  1.1259  2.4292 -3.9026
   84SLPC  C217 7985   3.123   1.755   4.217 -0.1209 -0.5666 -0.0436
   84SLPC  H17R 7986   3.209   1.795   4.275  1.4101  1.5008 -3.4127
   84SLPC  H17S 7987   3.098   1.657   4.264  0.1615  0.5724  2.6527
   84SLPC  C218 7988   3.000   1.845   4.219  0.2797 -0.2981 -0.2523
   84SLPC  H18R 7989   3.023   1.946   4.179 -2.1918 -0.1365 -1.3934
   84SLPC  H18S 7990   2.964   1.853   4.324  1.8583 -0.7347  0.3542
   84SLPC  H18T 7991   2.919   1.809   4.153 -0.1490  3.6178 -2.1223
   84SLPC   C33 7992   2.798   1.000   2.931 -0.5526 -0.4817  0.3661
   84SLPC   H3X 7993   2.877   1.078   2.930 -1.5893  0.6563  1.7080
   84SLPC   H3Y 7994   2.849   0.906   2.902  1.4326  1.3363 -2.5677
   84SLPC   C34 7995   2.741   0.997   3.072 -0.1469  0.7737 -0.3947
   84SLPC   H4X 7996   2.704   0.895   3.097 -0.3568  0.8244 -0.4923
   84SLPC   H4Y 7997   2.669   1.079   3.092 -1.7645 -0.8082  0.6736
   84SLPC   C35 7998   2.840   1.021   3.178 -0.0387  0.1197 -0.2365
   84SLPC   H5X 7999   2.900   1.112   3.157  0.9093 -0.0388  1.5765
   84SLPC   H5Y 8000   2.908   0.934   3.171  0.5691  0.7135 -2.3926
   84SLPC   C36 8001   2.778   1.028   3.312  0.5737 -0.1690  0.3777
   84SLPC   H6X 8002   2.716   0.937   3.323  0.6336 -0.5067 -1.7395
   84SLPC   H6Y 8003   2.712   1.118   3.312  0.9988  0.1586 -0.5606
   84SLPC   C37 8004   2.866   1.030   3.433  0.2697 -0.8019 -0.4618
   84SLPC   H7X 8005   2.957   1.092   3.422  0.1871 -0.5240  0.3637
   84SLPC   H7Y 8006   2.901   0.924   3.438  0.8863 -0.6276 -1.0114
   84SLPC   C38 8007   2.796   1.070   3.565  0.2386  0.1859 -0.3616
   84SLPC   H8X 8008   2.728   0.985   3.585 -0.5007  0.3868 -1.8739
   84SLPC   H8Y 8009   2.738   1.164   3.551  1.1623  0.8758  0.2689
   84SLPC   C39 8010   2.891   1.101   3.688  0.4007  0.0570 -0.2216
   84SLPC   H9X 8011   2.979   1.159   3.653 -1.0387  1.2852 -1.9408
   84SLPC   H9Y 8012   2.924   1.003   3.730  1.0698  0.6372  0.6592
   84SLPC  C310 8013   2.825   1.175   3.804  0.4453 -0.1530  0.4838
   84SLPC  H10X 8014   2.726   1.130   3.828 -1.7462  3.6927 -0.5145
   84SLPC  H10Y 8015   2.823   1.279   3.765  0.1705 -0.0557  0.7599
   84SLPC  C311 8016   2.908   1.159   3.930  0.0597 -0.4199 -0.6033
   84SLPC  H11X 8017   3.017   1.144   3.915 -0.4893 -1.1575 -4.9075
   84SLPC  H11Y 8018   2.875   1.076   3.996  1.4336  1.3457  2.5691
   84SLPC  C312 8019   2.908   1.287   4.029 -0.3671  0.2878 -0.5730
   84SLPC  H12X 8020   2.969   1.364   3.976  0.5971  2.1837  2.9469
   84SLPC  H12Y 8021   2.973   1.258   4.115 -0.5425  2.0060  0.1808
   84SLPC  C313 8022   2.771   1.326   4.087  0.2905 -0.5054  0.4850
   84SLPC  H13X 8023   2.732   1.252   4.160 -1.3295 -1.6748 -1.4794
   84SLPC  H13Y 8024   2.700   1.328   4.002  0.7977 -0.5815  0.0513
   84SLPC  C314 8025   2.764   1.467   4.146 -0.3665  0.5717 -0.3632
   84SLPC  H14X 8026   2.665   1.514   4.159  0.8412  3.1036  0.3647
   84SLPC  H14Y 8027   2.814   1.536   4.074 -0.0910  1.3528  0.5568
   84SLPC  C315 8028   2.835   1.466   4.282  0.1878  0.3479 -0.0336
   84SLPC  H15X 8029   2.869   1.570   4.304  3.6501 -0.6560 -0.1477
   84SLPC  H15Y 8030   2.928   1.408   4.296 -0.5743 -0.4606  2.1994
   84SLPC  C316 8031   2.736   1.405   4.383  0.4259 -0.9505 -0.7380
   84SLPC  H16X 8032   2.753   1.295   4.375  0.6804 -0.7694 -4.2539
   84SLPC  H16Y 8033   2.634   1.428   4.345 -0.5243 -0.7878  1.7269
   84SLPC  C317 8034   2.737   1.452   4.528  0.5810  0.4970 -0.1114
   84SLPC  H17X 8035   2.738   1.563   4.527  2.2311  0.5005 -0.6626
   84SLPC  H17Y 8036   2.833   1.420   4.575 -0.0487 -0.7139  0.4096
   84SLPC  C318 8037   2.615   1.392   4.599 -1.0159  0.4184 -0.2958
   84SLPC  H18X 8038   2.628   1.282   4.606  1.8623  0.6302 -1.2225
   84SLPC  H18Y 8039   2.518   1.416   4.551 -1.5708 -0.5692  0.2912
   84SLPC  H18Z 8040   2.612   1.421   4.707  2.2705  1.8345 -0.4726
   85SLPC     N 8041   1.479   2.321   1.626  0.4099  0.1211  0.6606
   85SLPC   C13 8042   1.564   2.218   1.551 -0.2478 -0.3989 -0.1618
   85SLPC  H13A 8043   1.623   2.165   1.624 -1.2414 -2.2912 -0.6822
   85SLPC  H13B 8044   1.499   2.147   1.502 -2.4589  1.0191  0.5715
   85SLPC  H13C 8045   1.631   2.258   1.476 -0.6528  0.4837 -0.0746
   85SLPC   C14 8046   1.415   2.408   1.520 -0.4421 -0.4213  0.2188
   85SLPC  H14A 8047   1.487   2.453   1.453 -0.7497 -1.8968 -1.1989
   85SLPC  H14B 8048   1.342   2.362   1.454 -2.4035  4.3861 -1.4381
   85SLPC  H14C 8049   1.354   2.480   1.572 -0.3311 -0.6917  0.7233
   85SLPC   C15 8050   1.579   2.401   1.701 -0.4297  0.0907  1.1862
   85SLPC  H15A 8051   1.656   2.426   1.630  0.1641 -0.0541  1.7707
   85SLPC  H15B 8052   1.553   2.495   1.745  1.0921  0.2796  1.7552
   85SLPC  H15C 8053   1.624   2.348   1.784 -1.0182  1.2659  2.2948
   85SLPC   C12 8054   1.362   2.262   1.701 -0.1229 -0.0699  0.1483
   85SLPC  H12A 8055   1.305   2.214   1.623  3.3192  1.0012 -3.3396
   85SLPC  H12B 8056   1.305   2.341   1.746 -0.9137 -0.4804 -0.1149
   85SLPC   C11 8057   1.388   2.171   1.819 -0.3069  0.5440 -1.1590
   85SLPC  H11A 8058   1.291   2.140   1.862 -0.7372  1.8239 -1.1794
   85SLPC  H11B 8059   1.446   2.221   1.900 -0.6010 -2.0512  0.8145
   85SLPC     P 8060   1.397   1.927   1.748 -0.4836 -0.5255 -0.6174
   85SLPC   O13 8061   1.258   1.952   1.700 -0.2801  0.3068 -0.1293
   85SLPC   O14 8062   1.493   1.863   1.654 -0.1506  0.0561  0.1381
   85SLPC   O12 8063   1.473   2.054   1.800  0.4777  0.1164 -0.4069
   85SLPC   O11 8064   1.396   1.832   1.878  0.2390 -0.4439  0.5986
   85SLPC    C1 8065   1.495   1.837   1.975 -0.6442  0.1438 -0.3783
   85SLPC    HA 8066   1.505   1.733   2.012  0.0314  0.0744 -0.7443
   85SLPC    HB 8067   1.593   1.873   1.936 -0.2352 -0.3930  0.1392
   85SLPC    C2 8068   1.457   1.922   2.098  0.3385  0.2333 -0.0906
   85SLPC    HS 8069   1.386   1.995   2.053 -0.1063 -0.0958  0.0766
   85SLPC   O21 8070   1.561   1.988   2.169  0.1080 -0.3747  0.5972
   85SLPC   C21 8071   1.533   2.111   2.210 -0.0907 -0.0386 -0.2449
   85SLPC   O22 8072   1.435   2.175   2.191  0.3914  0.0651 -0.2737
   85SLPC   C22 8073   1.644   2.158   2.292  0.0888  0.2461 -0.0358
   85SLPC   H2R 8074   1.649   2.075   2.365  0.6849  0.1203 -0.2154
   85SLPC   H2S 8075   1.735   2.160   2.228  1.4344 -2.1292  1.6639
   85SLPC    C3 8076   1.366   1.846   2.197  0.3538 -0.3323  0.2938
   85SLPC    HX 8077   1.421   1.762   2.243  1.8279  1.5797  2.2430
   85SLPC    HY 8078   1.280   1.801   2.144  0.6072  0.2256 -0.6139
   85SLPC   O31 8079   1.323   1.936   2.306  0.0437  0.6044  0.1114
   85SLPC   C31 8080   1.202   1.930   2.348 -0.2782 -0.0626 -0.0300
   85SLPC   O32 8081   1.119   1.842   2.320 -0.6284 -0.9358  0.4545
   85SLPC   C32 8082   1.179   2.043   2.445  0.5205 -0.5961  0.2711
   85SLPC   H2X 8083   1.166   2.132   2.380 -3.8506 -1.8285 -0.8581
   85SLPC   H2Y 8084   1.270   2.052   2.509 -1.0290  3.1130  2.2665
   85SLPC   C23 8085   1.617   2.283   2.393 -0.0986  0.3694  0.8250
   85SLPC   H3R 8086   1.597   2.380   2.343 -0.2517 -1.0111 -2.0056
   85SLPC   H3S 8087   1.713   2.291   2.448 -0.0795 -3.7569  1.6940
   85SLPC   C24 8088   1.498   2.252   2.490  0.1782 -0.1318  0.3928
   85SLPC   H4R 8089   1.512   2.169   2.563  1.9035  0.5380  0.8824
   85SLPC   H4S 8090   1.406   2.232   2.432  0.4573  3.0009 -1.3097
   85SLPC   C25 8091   1.464   2.370   2.583 -0.0861  0.0474  0.0776
   85SLPC   H5R 8092   1.555   2.431   2.599  0.6367 -0.6153 -1.3402
   85SLPC   H5S 8093   1.380   2.426   2.537  1.1386  0.6857 -1.4751
   85SLPC   C26 8094   1.406   2.322   2.714  0.3387 -0.5927  0.0625
   85SLPC   H6R 8095   1.484   2.269   2.774 -0.4085 -0.3556  1.2753
   85SLPC   H6S 8096   1.316   2.258   2.704  0.2048 -0.2578 -0.9976
   85SLPC   C27 8097   1.376   2.442   2.803 -0.3891 -0.2080 -0.1372
   85SLPC   H7R 8098   1.318   2.514   2.741  0.2383  1.5133  1.2095
   85SLPC   H7S 8099   1.474   2.489   2.822  1.1189 -3.0924 -0.2975
   85SLPC   C28 8100   1.297   2.405   2.928 -0.2082  0.2244 -0.4194
   85SLPC   H8R 8101   1.203   2.366   2.885  0.0697  0.9307 -1.7282
   85SLPC   H8S 8102   1.259   2.493   2.984 -0.5863 -0.7942  0.9579
   85SLPC   C29 8103   1.366   2.311   3.025  0.0651 -0.0357  0.2498
   85SLPC   H9R 8104   1.442   2.245   2.982  1.8455  1.1858  1.3570
   85SLPC  C210 8105   1.326   2.283   3.149  0.3147 -0.8159 -0.4160
   85SLPC  H10R 8106   1.385   2.210   3.208  2.0931  0.9747  0.1372
   85SLPC  C211 8107   1.231   2.372   3.224  0.3408 -0.0617 -0.2123
   85SLPC  H11R 8108   1.173   2.306   3.292 -0.9487  1.8423  0.6283
   85SLPC  H11S 8109   1.154   2.421   3.160 -0.9572  0.9790  1.9795
   85SLPC  C212 8110   1.308   2.487   3.278 -0.1857  0.4265 -0.4445
   85SLPC  H12R 8111   1.326   2.571   3.210  1.7137  1.1215  0.8169
   85SLPC  C213 8112   1.353   2.504   3.402  0.2638 -0.1057 -0.3641
   85SLPC  H13R 8113   1.417   2.590   3.427  1.4354 -1.6165  2.3051
   85SLPC  C214 8114   1.326   2.417   3.521 -0.4980  0.4065  0.1307
   85SLPC  H14R 8115   1.419   2.382   3.571 -1.0118  1.8150  2.2357
   85SLPC  H14S 8116   1.261   2.330   3.497 -1.8575  1.8237 -1.5520
   85SLPC  C215 8117   1.259   2.504   3.626  0.1467  0.8746 -0.5949
   85SLPC  H15R 8118   1.157   2.527   3.588  0.7121  3.6843 -0.6610
   85SLPC  H15S 8119   1.311   2.602   3.632  2.2940 -0.2424  0.0935
   85SLPC  C216 8120   1.257   2.441   3.766  0.3739 -0.5789  0.0359
   85SLPC  H16R 8121   1.350   2.385   3.786  2.1168  1.0319 -2.8337
   85SLPC  H16S 8122   1.170   2.373   3.777  1.2050 -2.0461 -1.8407
   85SLPC  C217 8123   1.245   2.544   3.883 -0.4955 -0.0628 -0.1819
   85SLPC  H17R 8124   1.143   2.587   3.871 -1.0694 -1.7527 -1.8970
   85SLPC  H17S 8125   1.326   2.618   3.870 -0.8986  1.0902  2.9410
   85SLPC  C218 8126   1.258   2.479   4.026  0.3052 -0.0467  0.1304
   85SLPC  H18R 8127   1.181   2.399   4.033  1.3478 -1.1843 -0.9655
   85SLPC  H18S 8128   1.247   2.555   4.106  0.0166  0.5235 -0.4475
   85SLPC  H18T 8129   1.358   2.433   4.042  0.5089  0.3011 -0.1337
   85SLPC   C33 8130   1.060   2.018   2.534  0.1884 -0.2480  0.1680
   85SLPC   H3X 8131   0.974   1.995   2.468  0.4904 -0.5610 -0.1191
   85SLPC   H3Y 8132   1.026   2.112   2.583 -0.3009  0.7578 -1.9656
   85SLPC   C34 8133   1.077   1.906   2.638  0.1404  0.4803 -0.6304
   85SLPC   H4X 8134   1.142   1.824   2.601 -0.7588 -1.5408  1.9471
   85SLPC   H4Y 8135   0.979   1.864   2.669  1.3473 -0.8359  1.7127
   85SLPC   C35 8136   1.131   1.940   2.778  0.2507 -0.8758  0.1091
   85SLPC   H5X 8137   1.227   1.995   2.764 -0.3731 -0.1658 -1.7115
   85SLPC   H5Y 8138   1.149   1.843   2.830  0.8909 -0.2665  1.0468
   85SLPC   C36 8139   1.039   2.038   2.856 -0.7749  0.1035 -0.4185
   85SLPC   H6X 8140   0.937   1.997   2.840 -0.0928 -0.5707 -3.5881
   85SLPC   H6Y 8141   1.037   2.140   2.814 -1.3054 -0.5409 -2.0235
   85SLPC   C37 8142   1.076   2.058   3.004 -0.2209 -0.4134 -0.0173
   85SLPC   H7X 8143   1.002   2.133   3.040 -1.2118 -0.4107 -1.9456
   85SLPC   H7Y 8144   1.174   2.108   3.015 -0.2493 -0.0767 -1.2250
   85SLPC   C38 8145   1.061   1.936   3.100  1.0653 -0.4744  0.1110
   85SLPC   H8X 8146   1.117   1.856   3.047  0.1026 -1.7348  0.9423
   85SLPC   H8Y 8147   0.952   1.917   3.097  0.5599  1.4753  2.8800
   85SLPC   C39 8148   1.106   1.955   3.243  0.1246 -0.1828  0.1178
   85SLPC   H9X 8149   1.214   1.983   3.250  0.5160 -1.5574  0.0037
   85SLPC   H9Y 8150   1.109   1.854   3.289  2.2120  0.1734  0.8696
   85SLPC  C310 8151   1.022   2.048   3.336  0.0862  0.6011 -0.5301
   85SLPC  H10X 8152   0.933   1.992   3.369 -0.0444  1.3407  0.4271
   85SLPC  H10Y 8153   1.002   2.148   3.291 -3.4311  1.7364  2.9527
   85SLPC  C311 8154   1.098   2.079   3.468 -0.2149 -0.5561  0.0862
   85SLPC  H11X 8155   1.185   2.146   3.448  0.6503 -1.6611  0.0435
   85SLPC  H11Y 8156   1.134   1.978   3.498  1.1185 -0.2560 -0.4266
   85SLPC  C312 8157   1.012   2.143   3.576  0.2740 -1.2794  0.0869
   85SLPC  H12X 8158   0.917   2.086   3.576  1.4077 -3.2558 -0.1677
   85SLPC  H12Y 8159   1.000   2.250   3.549 -1.7612 -1.7757 -1.1495
   85SLPC  C313 8160   1.083   2.127   3.704  0.1873 -0.6075 -0.0478
   85SLPC  H13X 8161   1.033   2.201   3.771  0.6469 -0.4059  0.0720
   85SLPC  H13Y 8162   1.188   2.157   3.683  0.4606 -1.7674 -0.4105
   85SLPC  C314 8163   1.070   1.995   3.770 -0.1490  0.5900  0.0748
   85SLPC  H14X 8164   1.108   1.914   3.705 -1.3342  1.1730 -1.4056
   85SLPC  H14Y 8165   0.962   1.972   3.783 -0.0541  0.5885  0.8755
   85SLPC  C315 8166   1.127   1.989   3.912 -0.1573 -0.4683 -0.8765
   85SLPC  H15X 8167   1.235   2.014   3.911 -0.2999  0.1666 -1.1214
   85SLPC  H15Y 8168   1.108   1.889   3.957 -0.5648  0.4438  1.1144
   85SLPC  C316 8169   1.079   2.092   4.019  0.0618 -0.1753  0.2594
   85SLPC  H16X 8170   1.106   2.196   3.993 -3.9298  0.6274 -1.4890
   85SLPC  H16Y 8171   1.146   2.067   4.104  2.1409  0.0646 -1.2329
   85SLPC  C317 8172   0.936   2.097   4.046  0.6342  0.1094  0.2332
   85SLPC  H17X 8173   0.897   1.995   4.027  0.4280  0.0677  0.8690
   85SLPC  H17Y 8174   0.881   2.154   3.968  0.9947  0.3095  0.1202
   85SLPC  C318 8175   0.905   2.138   4.185  0.6861 -0.1745 -0.2092
   85SLPC  H18X 8176   0.797   2.163   4.199  0.3335 -1.5609 -0.2888
   85SLPC  H18Y 8177   0.977   2.218   4.212  3.0565 -1.9908 -0.8114
   85SLPC  H18Z 8178   0.924   2.049   4.249 -1.1922 -0.4407  0.0309
   86SLPC     N 8179   0.880   3.015   2.320 -0.9246  0.0616 -0.4352
   86SLPC   C13 8180   0.767   2.942   2.386  0.0895 -0.6861  0.4155
   86SLPC  H13A 8181   0.744   3.001   2.474  1.2043 -0.8589  0.8393
   86SLPC  H13B 8182   0.687   2.925   2.316  1.1615  2.8131 -1.8930
   86SLPC  H13C 8183   0.786   2.848   2.437  0.0911  0.1246  1.9615
   86SLPC   C14 8184   0.977   3.050   2.430  0.2351 -0.5933  1.0194
   86SLPC  H14A 8185   1.060   3.105   2.389 -2.0346  1.8519 -0.5795
   86SLPC  H14B 8186   0.927   3.110   2.504 -0.6328 -1.7885  1.4409
   86SLPC  H14C 8187   1.016   2.960   2.477 -2.2655 -1.1527  2.2230
   86SLPC   C15 8188   0.832   3.143   2.260 -0.9415 -0.3604  0.2949
   86SLPC  H15A 8189   0.919   3.200   2.232  0.3304 -2.2135  0.2877
   86SLPC  H15B 8190   0.764   3.114   2.181 -0.1260 -2.8587  0.4368
   86SLPC  H15C 8191   0.780   3.204   2.332 -1.0452 -1.5079  1.2119
   86SLPC   C12 8192   0.958   2.923   2.227  0.0326 -0.0930  0.0253
   86SLPC  H12A 8193   0.972   2.826   2.272  0.3529  0.4891  1.2388
   86SLPC  H12B 8194   1.050   2.977   2.206  0.6671 -1.6507 -1.4502
   86SLPC   C11 8195   0.902   2.898   2.082 -0.0100  0.3397  0.4917
   86SLPC  H11A 8196   0.803   2.848   2.089 -1.8441  3.3404 -1.5033
   86SLPC  H11B 8197   0.971   2.829   2.028  1.7849  2.7213 -0.4273
   86SLPC     P 8198   1.019   3.082   1.939 -0.0030  0.0351  0.3187
   86SLPC   O13 8199   1.097   2.982   1.860 -0.1781  0.3397 -0.3302
   86SLPC   O14 8200   0.982   3.205   1.861  0.5633  0.1771 -0.1167
   86SLPC   O12 8201   0.892   3.018   2.002  0.2026  0.3265 -0.3091
   86SLPC   O11 8202   1.102   3.121   2.066  0.2721 -0.5247  0.4088
   86SLPC    C1 8203   1.250   3.134   2.053  0.8521 -0.1239 -0.7031
   86SLPC    HA 8204   1.282   3.148   1.947 -0.9752 -0.0634 -1.2964
   86SLPC    HB 8205   1.280   3.221   2.115  3.8199 -0.7747 -1.0573
   86SLPC    C2 8206   1.323   3.004   2.092  0.6817  0.4468 -0.2258
   86SLPC    HS 8207   1.323   2.935   2.005  1.0152 -0.0465  0.1590
   86SLPC   O21 8208   1.258   2.949   2.206 -0.1751  0.1759 -1.2279
   86SLPC   C21 8209   1.306   2.826   2.227  0.2716  0.1902  0.1438
   86SLPC   O22 8210   1.369   2.759   2.146 -0.8574 -0.2992  0.1905
   86SLPC   C22 8211   1.254   2.782   2.368 -0.3700  0.0784 -0.1067
   86SLPC   H2R 8212   1.257   2.874   2.429 -1.3090  0.2153 -0.2471
   86SLPC   H2S 8213   1.149   2.748   2.357 -1.3520  2.2801  1.6861
   86SLPC    C3 8214   1.471   3.044   2.131  0.1425 -1.4344  0.1002
   86SLPC    HX 8215   1.512   3.091   2.038 -0.7277 -1.3716 -0.2585
   86SLPC    HY 8216   1.529   2.954   2.161  0.5706 -1.5553 -1.0264
   86SLPC   O31 8217   1.474   3.140   2.236 -0.0573  0.5932 -0.6471
   86SLPC   C31 8218   1.596   3.174   2.282  0.4347  0.0407  0.5705
   86SLPC   O32 8219   1.695   3.135   2.224 -0.4043 -0.7982 -0.9548
   86SLPC   C32 8220   1.582   3.281   2.398  0.4443 -0.2006 -0.2202
   86SLPC   H2X 8221   1.482   3.269   2.445  0.6509  0.4676  0.4023
   86SLPC   H2Y 8222   1.573   3.381   2.350  0.4105 -0.3386 -0.5019
   86SLPC   C23 8223   1.351   2.683   2.432  0.5068 -0.6307  0.2664
   86SLPC   H3R 8224   1.360   2.593   2.367  1.7225 -2.0904  2.3354
   86SLPC   H3S 8225   1.305   2.640   2.523 -0.6483 -2.6819 -1.1886
   86SLPC   C24 8226   1.493   2.739   2.457  0.8248 -0.0007  0.2828
   86SLPC   H4R 8227   1.538   2.756   2.357  0.2875  0.8493  0.1792
   86SLPC   H4S 8228   1.550   2.667   2.520  0.4102  0.3929  1.1260
   86SLPC   C25 8229   1.491   2.869   2.538 -0.7484 -0.5130  0.0008
   86SLPC   H5R 8230   1.450   2.964   2.497 -3.5884 -1.6434  0.0191
   86SLPC   H5S 8231   1.599   2.889   2.559 -0.5373 -2.7684  1.4066
   86SLPC   C26 8232   1.418   2.851   2.672  0.6684  0.3858 -0.5300
   86SLPC   H6R 8233   1.416   2.745   2.706 -1.0243  0.0896 -1.4486
   86SLPC   H6S 8234   1.312   2.868   2.645  0.3070  0.7611  1.0479
   86SLPC   C27 8235   1.465   2.943   2.787  0.1678 -0.0226  0.3121
   86SLPC   H7R 8236   1.452   3.048   2.752 -1.0687 -0.9560 -2.2988
   86SLPC   H7S 8237   1.572   2.925   2.811 -0.3576 -1.4135  1.8229
   86SLPC   C28 8238   1.387   2.919   2.916 -0.7936  0.3482 -0.1982
   86SLPC   H8R 8239   1.395   2.813   2.947 -0.0928  0.0520 -1.3224
   86SLPC   H8S 8240   1.278   2.933   2.899 -1.0166  0.4302  1.2201
   86SLPC   C29 8241   1.434   3.007   3.033 -0.2182 -0.5813 -0.0860
   86SLPC   H9R 8242   1.447   3.111   3.002 -1.6809 -0.2390  0.3798
   86SLPC  C210 8243   1.451   2.972   3.162 -0.1289  0.2714 -0.0807
   86SLPC  H10R 8244   1.488   3.044   3.237  0.2972 -0.4638  0.4241
   86SLPC  C211 8245   1.426   2.836   3.222 -0.1048  0.7359 -0.6879
   86SLPC  H11R 8246   1.512   2.813   3.289 -0.3131  0.5996 -0.4665
   86SLPC  H11S 8247   1.436   2.753   3.149  0.1746 -0.1679  0.3499
   86SLPC  C212 8248   1.294   2.840   3.290  0.0593 -0.5152  0.2644
   86SLPC  H12R 8249   1.209   2.856   3.222  0.3927  0.6509  0.0844
   86SLPC  C213 8250   1.267   2.865   3.421  0.4224  0.4420  0.1627
   86SLPC  H13R 8251   1.164   2.865   3.461  0.6372 -1.1586  0.7699
   86SLPC  C214 8252   1.372   2.868   3.529 -0.2512 -0.3388  0.2387
   86SLPC  H14R 8253   1.464   2.814   3.496  0.8748  0.5402  1.7847
   86SLPC  H14S 8254   1.334   2.819   3.621  1.6659  3.1870  3.2069
   86SLPC  C215 8255   1.401   3.014   3.576 -0.7061 -0.1129  0.1344
   86SLPC  H15R 8256   1.307   3.070   3.595  0.7121  1.5018  3.2496
   86SLPC  H15S 8257   1.455   3.073   3.500 -1.4603 -1.8084 -1.8160
   86SLPC  C216 8258   1.467   3.011   3.717  0.1404  0.6406 -0.4124
   86SLPC  H16R 8259   1.548   2.936   3.714 -0.2971  0.1354  0.1986
   86SLPC  H16S 8260   1.397   2.968   3.792  1.8553 -0.4854  0.5911
   86SLPC  C217 8261   1.513   3.153   3.758  0.1046 -0.3615 -0.5890
   86SLPC  H17R 8262   1.428   3.225   3.766  1.0341  0.7631 -0.4845
   86SLPC  H17S 8263   1.581   3.191   3.678  2.8832 -2.9840  0.3434
   86SLPC  C218 8264   1.587   3.162   3.891  0.3261  0.4840 -0.3578
   86SLPC  H18R 8265   1.538   3.089   3.959  0.1677  1.7850  0.9904
   86SLPC  H18S 8266   1.606   3.256   3.947  0.4710 -0.5244  1.3974
   86SLPC  H18T 8267   1.690   3.125   3.870 -0.1640 -0.4343 -1.1985
   86SLPC   C33 8268   1.696   3.280   2.500 -0.1359 -0.5262  0.0680
   86SLPC   H3X 8269   1.687   3.365   2.570  1.6566 -1.1319  1.0800
   86SLPC   H3Y 8270   1.791   3.278   2.443 -1.8606 -1.1995 -3.0679
   86SLPC   C34 8271   1.678   3.152   2.582  0.0390  0.0111 -0.2243
   86SLPC   H4X 8272   1.714   3.061   2.530 -1.8826 -0.6100 -0.5574
   86SLPC   H4Y 8273   1.570   3.142   2.609  0.6208  0.5109  2.6061
   86SLPC   C35 8274   1.748   3.150   2.721  0.0597 -1.0731  0.3674
   86SLPC   H5X 8275   1.857   3.162   2.700 -0.2004  0.9583 -0.0542
   86SLPC   H5Y 8276   1.740   3.047   2.761  0.4955 -1.4836 -0.5919
   86SLPC   C36 8277   1.697   3.251   2.825 -0.1435 -0.1931 -0.2781
   86SLPC   H6X 8278   1.587   3.241   2.837 -0.0160 -0.6197  0.5687
   86SLPC   H6Y 8279   1.724   3.350   2.782  2.2717 -1.3015 -1.4753
   86SLPC   C37 8280   1.762   3.251   2.965  0.5539  0.6273  0.2268
   86SLPC   H7X 8281   1.871   3.231   2.961  0.4850  0.0054  1.1602
   86SLPC   H7Y 8282   1.726   3.160   3.017  2.3900 -0.8145 -0.9077
   86SLPC   C38 8283   1.741   3.376   3.053 -0.6020  0.1179 -0.9286
   86SLPC   H8X 8284   1.780   3.460   2.991 -0.2315 -0.1428 -1.0515
   86SLPC   H8Y 8285   1.801   3.361   3.145 -1.6752  0.6956 -0.1059
   86SLPC   C39 8286   1.592   3.394   3.093  0.2937  0.0546  0.0791
   86SLPC   H9X 8287   1.561   3.303   3.149  0.9685 -0.4168 -0.2896
   86SLPC   H9Y 8288   1.533   3.411   3.000  0.8471  1.5044 -0.0320
   86SLPC  C310 8289   1.561   3.511   3.183  0.2453  0.4007  0.0399
   86SLPC  H10X 8290   1.632   3.588   3.146 -0.1892 -1.0578 -4.4745
   86SLPC  H10Y 8291   1.589   3.488   3.288 -0.8323 -0.1575  0.2128
   86SLPC  C311 8292   1.414   3.547   3.167  0.3126  0.2472  0.1743
   86SLPC  H11X 8293   1.400   3.566   3.058  0.6834  0.3875  0.1499
   86SLPC  H11Y 8294   1.394   3.648   3.209  0.1411 -0.0660  0.8589
   86SLPC  C312 8295   1.316   3.441   3.215  0.4227 -0.0878  0.6039
   86SLPC  H12X 8296   1.334   3.355   3.147 -3.0335 -1.3064  1.0062
   86SLPC  H12Y 8297   1.214   3.477   3.192 -0.7927 -1.6081  3.1155
   86SLPC  C313 8298   1.338   3.388   3.352 -0.3246 -0.3424 -0.7250
   86SLPC  H13X 8299   1.439   3.343   3.358 -0.9382 -1.6328  1.3904
   86SLPC  H13Y 8300   1.277   3.300   3.384 -0.3550  0.2984  1.0815
   86SLPC  C314 8301   1.334   3.499   3.461  0.2787 -0.0414  0.4131
   86SLPC  H14X 8302   1.249   3.567   3.438  1.4504  1.4051  0.2408
   86SLPC  H14Y 8303   1.414   3.564   3.421 -1.2277 -0.3358 -3.4409
   86SLPC  C315 8304   1.336   3.451   3.600 -0.4028 -0.7162  0.0383
   86SLPC  H15X 8305   1.424   3.384   3.599 -0.7280 -1.1469 -1.0818
   86SLPC  H15Y 8306   1.253   3.386   3.636 -1.1561  0.4391  0.4481
   86SLPC  C316 8307   1.361   3.571   3.698  0.3530  0.4468 -0.2608
   86SLPC  H16X 8308   1.277   3.643   3.694  0.2296  0.2703 -0.9423
   86SLPC  H16Y 8309   1.446   3.630   3.659  2.0080 -1.7377 -0.1518
   86SLPC  C317 8310   1.388   3.520   3.844  0.3078 -0.7366 -0.4595
   86SLPC  H17X 8311   1.488   3.474   3.857  0.0627 -1.1954 -0.1600
   86SLPC  H17Y 8312   1.307   3.453   3.881  0.3696 -0.5252  0.0655
   86SLPC  C318 8313   1.383   3.630   3.951  0.2425  0.0934  0.0868
   86SLPC  H18X 8314   1.413   3.602   4.054  0.2142  0.3829  0.1749
   86SLPC  H18Y 8315   1.282   3.675   3.964 -0.3232 -1.7144  2.7146
   86SLPC  H18Z 8316   1.458   3.707   3.926  0.5059  0.2852  1.4454
   87SLPC     N 8317   2.118   2.186   2.038 -0.3343  0.0029  0.2616
   87SLPC   C13 8318   2.096   2.057   2.111  0.2044 -0.4415  0.3463
   87SLPC  H13A 8319   2.105   1.965   2.055 -2.2757 -1.6487  1.7407
   87SLPC  H13B 8320   2.166   2.050   2.194 -1.4338 -0.7117  1.7586
   87SLPC  H13C 8321   1.994   2.064   2.145  0.1767 -1.7711  0.5984
   87SLPC   C14 8322   1.998   2.203   1.945 -0.0879  0.8058  0.2832
   87SLPC  H14A 8323   1.990   2.120   1.877  0.3496  1.4406 -0.5774
   87SLPC  H14B 8324   1.907   2.212   2.002 -2.7885 -2.4604 -3.0026
   87SLPC  H14C 8325   2.006   2.291   1.882  1.5526  0.0885 -0.5808
   87SLPC   C15 8326   2.253   2.175   1.964 -0.1851 -0.8622 -0.1564
   87SLPC  H15A 8327   2.286   2.262   1.909  2.7670 -2.4451 -1.0731
   87SLPC  H15B 8328   2.330   2.161   2.038  0.2973 -1.1697 -0.7102
   87SLPC  H15C 8329   2.256   2.090   1.898 -3.1101 -0.8542 -0.4201
   87SLPC   C12 8330   2.122   2.300   2.142  0.2401  0.2817 -0.2659
   87SLPC  H12A 8331   2.152   2.397   2.106 -0.2061  1.0224  1.2804
   87SLPC  H12B 8332   2.192   2.268   2.218  0.8132 -0.4917 -1.0785
   87SLPC   C11 8333   2.001   2.330   2.231 -0.0810  0.4847 -0.0093
   87SLPC  H11A 8334   2.032   2.387   2.321  0.2686 -0.3162  0.3892
   87SLPC  H11B 8335   1.958   2.237   2.275 -0.5450  0.3351 -0.7643
   87SLPC     P 8336   1.924   2.563   2.135  0.1970 -0.1227 -0.5655
   87SLPC   O13 8337   2.053   2.578   2.067  0.0965  0.9918 -0.3067
   87SLPC   O14 8338   1.801   2.616   2.078 -0.5103  0.2719 -0.0919
   87SLPC   O12 8339   1.899   2.410   2.167 -0.1006 -1.0805  0.1041
   87SLPC   O11 8340   1.949   2.613   2.283  0.1523  0.0263 -0.3125
   87SLPC    C1 8341   1.850   2.685   2.351 -0.1352  0.4031 -1.0126
   87SLPC    HA 8342   1.845   2.787   2.307  2.6822 -0.1413 -2.7986
   87SLPC    HB 8343   1.754   2.630   2.341 -0.0313  0.2895 -1.4033
   87SLPC    C2 8344   1.884   2.697   2.498 -0.3908 -0.4191  0.6943
   87SLPC    HS 8345   1.804   2.763   2.540 -0.7279 -0.0874 -0.4337
   87SLPC   O21 8346   2.008   2.760   2.527  0.1387  0.3417 -0.0777
   87SLPC   C21 8347   2.016   2.886   2.490 -0.3799 -0.5780  0.3827
   87SLPC   O22 8348   1.939   2.950   2.416 -0.7621 -0.3175  0.0570
   87SLPC   C22 8349   2.139   2.951   2.547  0.0204  0.4663 -1.0377
   87SLPC   H2R 8350   2.221   2.901   2.491  1.4957 -1.0174  2.2160
   87SLPC   H2S 8351   2.136   3.060   2.526 -0.2561  0.9593  1.3270
   87SLPC    C3 8352   1.881   2.563   2.580  0.4354  0.0806  0.1291
   87SLPC    HX 8353   1.966   2.510   2.533  0.7711  1.0522 -0.4093
   87SLPC    HY 8354   1.789   2.511   2.546  1.2649  0.0860 -2.3200
   87SLPC   O31 8355   1.898   2.563   2.721 -0.2309 -0.3254  0.3658
   87SLPC   C31 8356   1.807   2.630   2.799 -0.0173  0.1369  1.1971
   87SLPC   O32 8357   1.705   2.680   2.751 -0.1266  0.3128 -0.6022
   87SLPC   C32 8358   1.870   2.647   2.945 -0.0682  0.0344 -0.2949
   87SLPC   H2X 8359   1.892   2.550   2.994 -1.0217  1.5443  3.4759
   87SLPC   H2Y 8360   1.792   2.692   3.011  1.9307 -0.4935  2.6046
   87SLPC   C23 8361   2.169   2.920   2.692  0.1292 -0.1130 -0.3612
   87SLPC   H3R 8362   2.278   2.900   2.705 -0.2616 -2.2102  0.1291
   87SLPC   H3S 8363   2.139   2.819   2.729  0.9197  0.3010  1.5075
   87SLPC   C24 8364   2.126   3.037   2.789 -0.3937 -0.3285  0.4863
   87SLPC   H4R 8365   2.016   3.039   2.799 -0.3519 -2.8586  2.1608
   87SLPC   H4S 8366   2.160   3.130   2.738  1.6587 -0.7267  1.0184
   87SLPC   C25 8367   2.198   3.042   2.927  0.5555  0.0101 -0.0839
   87SLPC   H5R 8368   2.308   3.025   2.922  0.4054 -0.7008 -1.4002
   87SLPC   H5S 8369   2.163   2.955   2.987  1.2699  0.8910  1.6846
   87SLPC   C26 8370   2.160   3.171   3.013  0.0982 -0.5694  0.2442
   87SLPC   H6R 8371   2.053   3.156   3.038  0.3798  0.1753  2.0273
   87SLPC   H6S 8372   2.164   3.265   2.954  0.4144 -0.6096  0.2010
   87SLPC   C27 8373   2.241   3.184   3.138  0.4196 -0.2016 -0.0456
   87SLPC   H7R 8374   2.347   3.197   3.110  0.4405  1.0285  0.5240
   87SLPC   H7S 8375   2.234   3.086   3.191  1.2786 -0.3451 -0.1818
   87SLPC   C28 8376   2.191   3.302   3.216 -0.3138  0.1357 -0.0401
   87SLPC   H8R 8377   2.083   3.300   3.193 -0.0778 -2.3312 -1.2676
   87SLPC   H8S 8378   2.224   3.401   3.177 -0.2829  0.0300 -0.2839
   87SLPC   C29 8379   2.232   3.271   3.354  0.4237  0.1067  0.3272
   87SLPC   H9R 8380   2.335   3.236   3.364  1.3255  2.5682  0.4152
   87SLPC  C210 8381   2.148   3.274   3.462 -0.0490 -0.3390 -0.2808
   87SLPC  H10R 8382   2.190   3.256   3.562 -1.5498 -2.0942  0.1145
   87SLPC  C211 8383   2.002   3.320   3.457 -0.2081 -0.7686 -0.5218
   87SLPC  H11R 8384   1.959   3.276   3.549  0.9920 -1.6760 -0.3686
   87SLPC  H11S 8385   1.944   3.275   3.374 -2.0858  0.0728  0.2825
   87SLPC  C212 8386   1.998   3.470   3.449 -0.2194  0.0867 -0.2176
   87SLPC  H12R 8387   2.092   3.521   3.422 -0.2847  0.8159  0.8417
   87SLPC  C213 8388   1.894   3.547   3.480 -0.2807 -0.3406 -0.3970
   87SLPC  H13R 8389   1.915   3.655   3.483  2.4454 -0.7851 -0.5601
   87SLPC  C214 8390   1.763   3.508   3.522  0.5958  0.5287  0.6930
   87SLPC  H14R 8391   1.727   3.415   3.472 -0.0072  0.6143  0.9573
   87SLPC  H14S 8392   1.689   3.585   3.491  2.9879  2.5616 -0.2394
   87SLPC  C215 8393   1.755   3.475   3.677  0.6134 -0.4622  0.2913
   87SLPC  H15R 8394   1.815   3.383   3.693  1.1687 -0.2304 -0.3912
   87SLPC  H15S 8395   1.650   3.450   3.704  0.5464  1.6224  2.3004
   87SLPC  C216 8396   1.802   3.591   3.770  0.0586  0.3826 -0.8909
   87SLPC  H16R 8397   1.732   3.675   3.751 -0.2938  0.1668 -0.5578
   87SLPC  H16S 8398   1.905   3.627   3.754  0.3509 -0.0146  0.0250
   87SLPC  C217 8399   1.792   3.541   3.915 -0.1536  0.0418  0.3869
   87SLPC  H17R 8400   1.870   3.464   3.933 -0.8362 -0.1033  3.1081
   87SLPC  H17S 8401   1.696   3.491   3.941 -2.4597  3.7548 -0.2339
   87SLPC  C218 8402   1.813   3.641   4.021  0.6428  0.2142  0.2562
   87SLPC  H18R 8403   1.897   3.711   3.999 -0.9754  2.6784  1.4781
   87SLPC  H18S 8404   1.824   3.587   4.117 -3.0694  0.3682  0.9057
   87SLPC  H18T 8405   1.721   3.700   4.037  0.5448 -0.0834  0.7935
   87SLPC   C33 8406   1.995   2.744   2.956  0.9250  0.1597 -0.2345
   87SLPC   H3X 8407   1.967   2.838   2.904 -0.1819 -0.7466 -1.3216
   87SLPC   H3Y 8408   2.084   2.698   2.910 -0.3924 -1.2827 -1.4730
   87SLPC   C34 8409   2.027   2.773   3.104  0.4183 -0.1924  0.8617
   87SLPC   H4X 8410   2.131   2.810   3.114  0.3091  0.0246  1.1986
   87SLPC   H4Y 8411   2.016   2.676   3.156 -0.7209 -1.7578 -2.0409
   87SLPC   C35 8412   1.940   2.881   3.168 -0.5203 -0.7858 -0.8043
   87SLPC   H5X 8413   1.834   2.848   3.180 -0.0539 -1.4386  2.6454
   87SLPC   H5Y 8414   1.936   2.970   3.101 -0.8907  0.5081  0.8495
   87SLPC   C36 8415   1.985   2.927   3.313 -0.3419 -0.0859  0.1104
   87SLPC   H6X 8416   2.019   3.032   3.304 -2.7550  0.5834 -2.8277
   87SLPC   H6Y 8417   2.057   2.853   3.353 -2.5106 -1.9058  0.9096
   87SLPC   C37 8418   1.873   2.943   3.411 -0.3778  0.4183 -0.1659
   87SLPC   H7X 8419   1.788   2.999   3.367 -0.4647  1.5450  1.3564
   87SLPC   H7Y 8420   1.908   3.000   3.499  0.1980 -1.4851  0.9155
   87SLPC   C38 8421   1.838   2.797   3.468  0.0623 -0.7208  0.4415
   87SLPC   H8X 8422   1.857   2.734   3.379 -0.6269 -0.1690 -0.1112
   87SLPC   H8Y 8423   1.727   2.796   3.482  0.1454  1.3532  1.5989
   87SLPC   C39 8424   1.914   2.745   3.591 -0.2432 -0.8920  0.0982
   87SLPC   H9X 8425   2.019   2.778   3.579 -0.7185  0.4406 -0.7226
   87SLPC   H9Y 8426   1.907   2.635   3.581  0.2360 -0.7451 -2.5554
   87SLPC  C310 8427   1.856   2.788   3.726  0.3407 -0.0067 -0.1598
   87SLPC  H10X 8428   1.752   2.749   3.733 -0.1762  1.6327  3.8640
   87SLPC  H10Y 8429   1.855   2.899   3.730  3.0822  0.4495 -4.4758
   87SLPC  C311 8430   1.939   2.722   3.832 -0.2782  0.3514 -0.2102
   87SLPC  H11X 8431   2.048   2.720   3.811 -0.6442 -1.3033 -2.3067
   87SLPC  H11Y 8432   1.906   2.616   3.843 -0.2348  0.4961  1.4840
   87SLPC  C312 8433   1.930   2.776   3.973  0.4416 -0.0948 -0.0052
   87SLPC  H12X 8434   1.831   2.770   4.021  1.0507  1.0679  1.4811
   87SLPC  H12Y 8435   1.958   2.884   3.968 -0.4226  0.0997 -0.9818
   87SLPC  C313 8436   2.031   2.708   4.067  0.7787  0.9554 -0.4490
   87SLPC  H13X 8437   2.126   2.683   4.016  0.7005  0.1704 -0.2212
   87SLPC  H13Y 8438   1.996   2.604   4.085  1.8623  0.2012 -2.4478
   87SLPC  C314 8439   2.056   2.782   4.196  0.2996  0.6123 -0.0117
   87SLPC  H14X 8440   1.957   2.789   4.247 -0.3662  0.0290 -1.1856
   87SLPC  H14Y 8441   2.093   2.881   4.162  1.1689 -0.8705 -3.8789
   87SLPC  C315 8442   2.157   2.730   4.297  0.5110  0.1379  0.6570
   87SLPC  H15X 8443   2.257   2.707   4.254  0.9052 -2.4265  2.6488
   87SLPC  H15Y 8444   2.116   2.637   4.342  0.0334 -0.5082 -1.0399
   87SLPC  C316 8445   2.187   2.825   4.414 -0.2579 -0.2545 -0.6000
   87SLPC  H16X 8446   2.088   2.848   4.460 -1.1449 -3.0316 -0.9121
   87SLPC  H16Y 8447   2.228   2.922   4.379 -1.3582  1.1779  1.8214
   87SLPC  C317 8448   2.291   2.787   4.514 -0.2846 -0.2944 -0.3937
   87SLPC  H17X 8449   2.381   2.749   4.461 -2.0099 -1.1078 -2.9228
   87SLPC  H17Y 8450   2.239   2.698   4.556 -1.7713 -0.8809 -3.2483
   87SLPC  C318 8451   2.318   2.887   4.624  0.0330 -0.0155 -0.3063
   87SLPC  H18X 8452   2.327   2.985   4.572  0.5322 -0.3589 -0.8690
   87SLPC  H18Y 8453   2.399   2.864   4.695  0.8301 -0.3135 -1.2963
   87SLPC  H18Z 8454   2.223   2.897   4.682  0.1906 -0.9403  0.1124
   88SLPC     N 8455   3.132   0.772   1.819 -0.6090 -0.1286  0.5142
   88SLPC   C13 8456   3.122   0.892   1.726 -0.8756 -0.3820 -0.5263
   88SLPC  H13A 8457   3.138   0.880   1.620  1.5787  0.7940 -0.3520
   88SLPC  H13B 8458   3.026   0.940   1.734 -0.8594 -0.0393 -2.0409
   88SLPC  H13C 8459   3.205   0.955   1.754 -0.9153 -1.5339  2.5588
   88SLPC   C14 8460   3.279   0.744   1.835 -0.7989  0.1785  0.5810
   88SLPC  H14A 8461   3.324   0.839   1.860  0.0440  0.6623 -2.3172
   88SLPC  H14B 8462   3.293   0.664   1.907 -1.0619  1.1485  1.7430
   88SLPC  H14C 8463   3.311   0.714   1.736 -0.7117  0.3833  0.5457
   88SLPC   C15 8464   3.053   0.653   1.784 -0.5999 -0.5676  0.2323
   88SLPC  H15A 8465   3.062   0.585   1.868  0.5961 -0.5385  0.1466
   88SLPC  H15B 8466   2.948   0.676   1.778  0.1329  2.8837 -2.0092
   88SLPC  H15C 8467   3.082   0.608   1.691 -1.4078  0.0373 -0.3286
   88SLPC   C12 8468   3.078   0.829   1.952  0.1289  0.3835 -0.5293
   88SLPC  H12A 8469   2.976   0.861   1.938 -0.0701  0.9480  1.7987
   88SLPC  H12B 8470   3.140   0.912   1.983  1.5597 -0.9155  0.2273
   88SLPC   C11 8471   3.066   0.731   2.074 -0.5181 -0.3294 -0.4013
   88SLPC  H11A 8472   3.105   0.777   2.168  0.2376  0.9304 -1.3055
   88SLPC  H11B 8473   3.150   0.662   2.056  0.7508  1.4744 -1.7527
   88SLPC     P 8474   2.816   0.744   2.131  0.3160 -0.3156 -0.2205
   88SLPC   O13 8475   2.830   0.876   2.068 -0.3058 -0.0282 -0.2036
   88SLPC   O14 8476   2.690   0.674   2.090  0.0318  0.5285 -0.1659
   88SLPC   O12 8477   2.944   0.664   2.090 -0.5632  0.2904  0.5425
   88SLPC   O11 8478   2.835   0.754   2.287 -0.1343  0.2901  0.2129
   88SLPC    C1 8479   2.867   0.629   2.356  0.8170 -0.4749  0.4350
   88SLPC    HA 8480   2.919   0.555   2.291 -1.2094 -1.0364 -0.6364
   88SLPC    HB 8481   2.920   0.658   2.449  0.2839  1.4317  0.1847
   88SLPC    C2 8482   2.741   0.550   2.412 -0.1112 -0.5616  0.6003
   88SLPC    HS 8483   2.694   0.512   2.319 -0.8546 -0.1711  0.8071
   88SLPC   O21 8484   2.657   0.639   2.475 -0.1186  0.3597  0.1622
   88SLPC   C21 8485   2.531   0.615   2.475  0.5363  0.2747  0.7626
   88SLPC   O22 8486   2.473   0.523   2.411 -0.0908  0.0618 -0.4027
   88SLPC   C22 8487   2.476   0.718   2.581 -0.0012  0.9483  0.5834
   88SLPC   H2R 8488   2.544   0.721   2.669 -0.0653 -2.5661  0.8992
   88SLPC   H2S 8489   2.469   0.813   2.524  0.3939  0.1474 -0.8845
   88SLPC    C3 8490   2.781   0.429   2.492 -0.7540  0.2622  0.0264
   88SLPC    HX 8491   2.853   0.375   2.427 -0.8375  1.9130 -1.5536
   88SLPC    HY 8492   2.694   0.363   2.511 -0.8335  0.4874  0.4526
   88SLPC   O31 8493   2.842   0.477   2.617  0.8802 -0.4965 -0.1890
   88SLPC   C31 8494   2.759   0.484   2.722  0.7783  0.3412 -0.5278
   88SLPC   O32 8495   2.644   0.443   2.725 -0.5425 -0.0460  0.1125
   88SLPC   C32 8496   2.836   0.543   2.840 -0.1261  0.5025  0.0894
   88SLPC   H2X 8497   2.855   0.646   2.804  0.0990  0.9306  1.4043
   88SLPC   H2Y 8498   2.935   0.494   2.847 -0.3470  0.1031  0.5348
   88SLPC   C23 8499   2.326   0.692   2.610  0.1304 -0.0483 -0.6066
   88SLPC   H3R 8500   2.307   0.598   2.668  1.4858 -0.0860 -0.1906
   88SLPC   H3S 8501   2.264   0.691   2.517 -0.4578 -0.2908 -0.2236
   88SLPC   C24 8502   2.266   0.794   2.697  0.3045  0.0091 -0.1746
   88SLPC   H4R 8503   2.155   0.786   2.691  0.3437 -0.6310 -0.1170
   88SLPC   H4S 8504   2.293   0.896   2.662  0.4066  0.4883  1.2084
   88SLPC   C25 8505   2.315   0.793   2.842  0.4854  0.5880  0.2231
   88SLPC   H5R 8506   2.263   0.865   2.909  0.0750 -0.2307  0.7888
   88SLPC   H5S 8507   2.425   0.808   2.835  0.6871  0.0499  1.7937
   88SLPC   C26 8508   2.308   0.652   2.909  0.6016  0.0736 -0.5777
   88SLPC   H6R 8509   2.378   0.582   2.860 -0.9093 -1.8236 -0.1452
   88SLPC   H6S 8510   2.206   0.610   2.900  0.7712 -0.5246  0.2092
   88SLPC   C27 8511   2.342   0.648   3.061  0.1973 -0.2574  0.2180
   88SLPC   H7R 8512   2.267   0.718   3.104 -0.5975 -1.6809  1.2037
   88SLPC   H7S 8513   2.445   0.676   3.093 -0.1399 -1.1281  2.2348
   88SLPC   C28 8514   2.318   0.507   3.114 -0.1951 -0.3780 -0.5916
   88SLPC   H8R 8515   2.367   0.452   3.031  1.3002  0.2931 -0.1697
   88SLPC   H8S 8516   2.208   0.491   3.113 -0.1737 -0.5099 -1.8432
   88SLPC   C29 8517   2.392   0.472   3.241  0.3191 -1.1281  0.8231
   88SLPC   H9R 8518   2.495   0.446   3.214  0.6174  1.8914 -1.4905
   88SLPC  C210 8519   2.353   0.491   3.364  0.0848 -0.1176 -0.5288
   88SLPC  H10R 8520   2.427   0.463   3.441  0.2586  0.5546 -0.4471
   88SLPC  C211 8521   2.212   0.531   3.415 -0.1329 -0.3508  0.2898
   88SLPC  H11R 8522   2.148   0.576   3.336  2.0581  2.2866 -0.1532
   88SLPC  H11S 8523   2.221   0.612   3.490  0.9778  0.0363 -0.2296
   88SLPC  C212 8524   2.138   0.415   3.474 -0.1158  0.1123  0.8139
   88SLPC  H12R 8525   2.100   0.336   3.408  2.2967 -1.7296  1.4850
   88SLPC  C213 8526   2.144   0.398   3.609  0.2702 -0.7148  0.2654
   88SLPC  H13R 8527   2.085   0.320   3.659 -2.0473  2.0408  2.1439
   88SLPC  C214 8528   2.228   0.479   3.710  0.0905 -0.3423  0.4433
   88SLPC  H14R 8529   2.165   0.558   3.757  0.0437  0.4742 -0.9198
   88SLPC  H14S 8530   2.319   0.526   3.668  1.1309 -3.5136 -1.1940
   88SLPC  C215 8531   2.296   0.399   3.822 -0.7806  0.0471 -0.2293
   88SLPC  H15R 8532   2.371   0.452   3.883 -0.1741  0.3330 -1.1973
   88SLPC  H15S 8533   2.342   0.309   3.774 -1.6793 -2.3490  3.0615
   88SLPC  C216 8534   2.196   0.334   3.914  0.2524 -0.2285 -0.4891
   88SLPC  H16R 8535   2.097   0.316   3.867 -0.7564  1.3465  0.8955
   88SLPC  H16S 8536   2.174   0.405   3.997  0.5183  2.8311 -2.8328
   88SLPC  C217 8537   2.249   0.199   3.967  0.3751  0.5926 -0.4286
   88SLPC  H17R 8538   2.341   0.212   4.029  0.4967  2.4565 -0.9322
   88SLPC  H17S 8539   2.268   0.130   3.882  0.4765  0.9320 -0.6820
   88SLPC  C218 8540   2.147   0.130   4.058 -0.3258  0.2378  0.7526
   88SLPC  H18R 8541   2.108   0.194   4.141  0.9184  1.4566  0.4376
   88SLPC  H18S 8542   2.192   0.038   4.102 -1.2279  0.7766  2.9267
   88SLPC  H18T 8543   2.058   0.101   3.999 -0.8486 -1.1008  2.1297
   88SLPC   C33 8544   2.760   0.543   2.973  0.3559 -0.5342  0.2852
   88SLPC   H3X 8545   2.733   0.437   2.992  1.7619 -1.0592 -0.4785
   88SLPC   H3Y 8546   2.669   0.606   2.960  1.2397  0.7648  0.2818
   88SLPC   C34 8547   2.844   0.591   3.091 -0.3678  0.2639  0.4467
   88SLPC   H4X 8548   2.871   0.695   3.062 -1.2517  0.5970  0.7762
   88SLPC   H4Y 8549   2.941   0.538   3.104 -1.0268 -0.5277  2.4874
   88SLPC   C35 8550   2.766   0.581   3.220  0.4627  0.1580 -0.5020
   88SLPC   H5X 8551   2.724   0.479   3.236  0.8954 -0.3943 -2.5931
   88SLPC   H5Y 8552   2.686   0.656   3.203 -0.6998 -0.9494 -0.1089
   88SLPC   C36 8553   2.845   0.628   3.338 -0.3246  0.6053  0.4667
   88SLPC   H6X 8554   2.895   0.723   3.309  1.3928 -0.3143  0.3478
   88SLPC   H6Y 8555   2.919   0.556   3.377 -0.2401 -0.1488 -1.0379
   88SLPC   C37 8556   2.762   0.652   3.465 -0.0782 -0.1383 -0.5564
   88SLPC   H7X 8557   2.689   0.573   3.493  0.0427  0.8961  3.2751
   88SLPC   H7Y 8558   2.717   0.752   3.452 -2.4617 -0.9821  0.5240
   88SLPC   C38 8559   2.847   0.659   3.593  0.1230  0.2566  0.5553
   88SLPC   H8X 8560   2.928   0.734   3.586  1.2030 -0.9959 -0.9966
   88SLPC   H8Y 8561   2.897   0.560   3.598 -2.2638 -1.1542 -1.1626
   88SLPC   C39 8562   2.765   0.692   3.721  0.1999  0.1736 -0.1298
   88SLPC   H9X 8563   2.717   0.595   3.746  1.6868 -1.3154 -2.5704
   88SLPC   H9Y 8564   2.691   0.768   3.690  2.8868  2.8606 -0.4116
   88SLPC  C310 8565   2.840   0.726   3.853  0.1013 -0.2038  0.2542
   88SLPC  H10X 8566   2.880   0.830   3.858  0.2995 -0.3188  1.5864
   88SLPC  H10Y 8567   2.928   0.660   3.854 -0.8280 -1.5123  1.7886
   88SLPC  C311 8568   2.764   0.702   3.986 -0.0636  0.2178 -0.3858
   88SLPC  H11X 8569   2.756   0.591   3.990  0.3430  0.2107  0.8256
   88SLPC  H11Y 8570   2.663   0.746   3.972  0.2967  0.6825 -1.5603
   88SLPC  C312 8571   2.829   0.750   4.114 -0.0435 -0.7200 -0.2307
   88SLPC  H12X 8572   2.819   0.860   4.124  0.4236 -0.4100 -2.4508
   88SLPC  H12Y 8573   2.932   0.708   4.111  0.9848  1.6534 -2.2778
   88SLPC  C313 8574   2.762   0.686   4.236  0.1037  0.3542 -0.9809
   88SLPC  H13X 8575   2.791   0.578   4.232 -0.2956  0.2731 -2.0139
   88SLPC  H13Y 8576   2.653   0.692   4.220  0.4119  1.4036 -3.0982
   88SLPC  C314 8577   2.793   0.745   4.376 -0.2128  0.3351  0.3812
   88SLPC  H14X 8578   2.904   0.745   4.385 -0.0702  0.5675 -1.1531
   88SLPC  H14Y 8579   2.751   0.679   4.455  0.7243 -0.8086 -0.0454
   88SLPC  C315 8580   2.748   0.888   4.396 -0.0347 -0.5232  0.0518
   88SLPC  H15X 8581   2.801   0.946   4.316 -0.8317 -2.5177 -2.0056
   88SLPC  H15Y 8582   2.777   0.910   4.501 -1.3599  0.6630  0.1947
   88SLPC  C316 8583   2.596   0.900   4.395 -0.2010 -0.0750 -0.4549
   88SLPC  H16X 8584   2.550   0.820   4.458  0.9168 -1.6553 -1.5772
   88SLPC  H16Y 8585   2.572   0.900   4.287 -1.1972  2.6015 -0.3187
   88SLPC  C317 8586   2.544   1.037   4.454  0.2025 -0.1984 -0.2126
   88SLPC  H17X 8587   2.611   1.118   4.417 -1.6641  0.5946 -2.0104
   88SLPC  H17Y 8588   2.571   1.036   4.562  2.2638 -2.2551 -0.6733
   88SLPC  C318 8589   2.398   1.053   4.434 -0.4407  0.1022  0.0506
   88SLPC  H18X 8590   2.364   1.146   4.486 -0.0118 -0.5041  1.4775
   88SLPC  H18Y 8591   2.344   0.970   4.485  1.4558 -0.0171  2.0073
   88SLPC  H18Z 8592   2.374   1.047   4.326  3.0928 -0.3589 -0.8377
   89SAPE     N 8593   1.862   0.151   6.359 -0.8211 -0.5722 -0.0381
   89SAPE   HN1 8594   1.842   0.109   6.452 -1.3496  1.0369  0.6210
   89SAPE   HN2 8595   1.899   0.248   6.364 -2.9385  0.3491 -0.9373
   89SAPE   HN3 8596   1.770   0.159   6.312 -1.5368 -2.0098  1.0675
   89SAPE   C12 8597   1.940   0.056   6.268 -0.0852  0.4020 -0.2703
   89SAPE  H12A 8598   2.049   0.067   6.282  0.3087 -3.5095  1.0259
   89SAPE  H12B 8599   1.911   0.083   6.164 -0.6226 -2.0821 -0.8445
   89SAPE   C11 8600   1.901  -0.098   6.282  0.1979 -0.0486  0.0411
   89SAPE  H11A 8601   1.966  -0.153   6.210  0.4143  1.9114 -1.3305
   89SAPE  H11B 8602   1.796  -0.107   6.245  0.1560  0.2298  0.0895
   89SAPE     P 8603   1.902  -0.291   6.463  0.2481 -0.0015 -0.0268
   89SAPE   O13 8604   2.019  -0.327   6.536  0.6914 -0.2347  0.1195
   89SAPE   O14 8605   1.770  -0.301   6.536  0.4137 -0.2288 -0.3551
   89SAPE   O12 8606   1.913  -0.135   6.419  0.4357 -0.3593 -0.7724
   89SAPE   O11 8607   1.894  -0.376   6.334  0.0129  0.2120 -0.2589
   89SAPE    C1 8608   1.856  -0.505   6.341  0.1030 -0.4868  0.2514
   89SAPE    HA 8609   1.880  -0.561   6.434 -1.4778 -1.5840  0.0332
   89SAPE    HB 8610   1.748  -0.502   6.316  0.2658 -1.5363 -0.6534
   89SAPE    C2 8611   1.915  -0.590   6.221 -0.3336 -0.5975 -0.1537
   89SAPE    HS 8612   2.021  -0.593   6.253 -0.3969 -0.2846  0.0834
   89SAPE   O21 8613   1.901  -0.526   6.092 -0.3556 -0.3148  0.2141
   89SAPE   C21 8614   1.995  -0.428   6.071 -0.0402 -0.6199  0.1181
   89SAPE   O22 8615   2.095  -0.401   6.139  0.4458  0.1679 -0.2392
   89SAPE   C22 8616   1.972  -0.355   5.930 -0.4288  0.9477  0.5305
   89SAPE   H2R 8617   2.010  -0.419   5.848 -0.5751 -0.0431  1.2121
   89SAPE   H2S 8618   1.862  -0.348   5.924 -0.8250 -1.9277  2.3787
   89SAPE    C3 8619   1.872  -0.733   6.227 -0.3374  0.1047  0.2148
   89SAPE    HX 8620   1.765  -0.732   6.196 -0.2625 -1.6462 -0.2309
   89SAPE    HY 8621   1.882  -0.770   6.331 -0.8231  0.1046  0.2633
   89SAPE   O31 8622   1.944  -0.823   6.140  0.4642 -0.2094 -0.3340
   89SAPE   C31 8623   1.898  -0.951   6.139  0.0660 -0.2514  0.3595
   89SAPE   O32 8624   1.808  -0.987   6.212  0.7325  0.0150 -0.0434
   89SAPE   C32 8625   1.984  -1.040   6.049 -0.3133 -1.1131 -0.6704
   89SAPE   H2X 8626   1.973  -1.146   6.079 -0.1569 -0.1999  3.1298
   89SAPE   H2Y 8627   2.093  -1.019   6.058 -0.5363 -0.3560  0.4433
   89SAPE   C23 8628   2.043  -0.217   5.908  0.1211  0.8551 -0.6150
   89SAPE   H3R 8629   2.150  -0.233   5.935  0.1373  0.9961 -0.5954
   89SAPE   H3S 8630   2.004  -0.150   5.987 -0.7192 -1.1690  0.7768
   89SAPE   C24 8631   2.028  -0.163   5.774 -0.5137  0.3678  0.6224
   89SAPE   H4R 8632   2.043  -0.053   5.786  1.5864  0.1554  0.3011
   89SAPE   H4S 8633   1.922  -0.158   5.741  0.3838 -1.2881 -3.0047
   89SAPE   C25 8634   2.120  -0.210   5.657  0.0080  0.2040  0.0408
   89SAPE   H5R 8635   2.211  -0.261   5.690 -0.4693 -0.6409  0.0979
   89SAPE   C26 8636   2.090  -0.230   5.529  0.0421 -0.2094  0.5821
   89SAPE   H6R 8637   2.175  -0.253   5.463 -0.4300 -0.4027  0.0320
   89SAPE   C27 8638   1.962  -0.198   5.448 -0.3820 -0.2767 -0.2140
   89SAPE   H7R 8639   1.988  -0.149   5.351 -1.4579 -0.9212 -0.8483
   89SAPE   H7S 8640   1.890  -0.132   5.501 -1.1060 -1.3855  0.1981
   89SAPE   C28 8641   1.890  -0.326   5.422 -1.1003  0.1207 -0.4188
   89SAPE   H8R 8642   1.865  -0.384   5.512 -1.2405 -1.5596 -1.5057
   89SAPE   C29 8643   1.865  -0.384   5.307  0.0148  0.2740 -0.2016
   89SAPE   H9R 8644   1.810  -0.479   5.314  2.1596 -1.0299 -0.1022
   89SAPE  C210 8645   1.889  -0.328   5.165  0.3513  0.2660  0.4347
   89SAPE  H10R 8646   1.947  -0.396   5.099 -0.0875 -0.0401  0.3580
   89SAPE  H10S 8647   1.962  -0.245   5.167  1.4535 -0.6238 -0.6526
   89SAPE  C211 8648   1.765  -0.282   5.096 -0.2574 -0.3045 -0.2694
   89SAPE  H11R 8649   1.696  -0.224   5.159 -1.7820 -1.1649 -1.0842
   89SAPE  C212 8650   1.733  -0.300   4.966  0.3751  0.0365  0.0187
   89SAPE  H12R 8651   1.631  -0.276   4.931  0.8467 -0.9248 -2.1694
   89SAPE  C213 8652   1.828  -0.354   4.857 -0.0040  0.1091  0.7401
   89SAPE  H13R 8653   1.868  -0.453   4.888 -1.1800 -1.1848 -1.5846
   89SAPE  H13S 8654   1.910  -0.280   4.845 -1.8496  2.8180  3.3793
   89SAPE  C214 8655   1.758  -0.388   4.720 -0.4425  0.1462  0.3387
   89SAPE  H14R 8656   1.751  -0.497   4.705  1.3593 -0.3006  2.3600
   89SAPE  C215 8657   1.703  -0.301   4.630 -0.8679 -0.6028 -0.3919
   89SAPE  H15R 8658   1.641  -0.335   4.546 -0.7468  0.2835 -0.8593
   89SAPE  C216 8659   1.684  -0.150   4.648  0.0722 -0.4554 -0.1002
   89SAPE  H16R 8660   1.731  -0.106   4.738  0.5954 -0.9471 -0.1293
   89SAPE  H16S 8661   1.577  -0.124   4.663 -0.2434 -2.3267  1.1170
   89SAPE  C217 8662   1.742  -0.071   4.522  0.0772 -0.1410 -0.0675
   89SAPE  H17R 8663   1.714   0.036   4.525 -1.4529 -0.5404  1.7565
   89SAPE  H17S 8664   1.704  -0.115   4.427 -1.8638 -0.0210  0.6252
   89SAPE  C218 8665   1.895  -0.075   4.521 -0.0998 -0.1499 -0.0387
   89SAPE  H18R 8666   1.923  -0.175   4.561 -2.6753 -0.9110  0.0770
   89SAPE  H18S 8667   1.933   0.013   4.576  0.2570  0.3177 -1.0125
   89SAPE  C219 8668   1.949  -0.057   4.379 -0.5925  0.9149 -0.2491
   89SAPE  H19R 8669   1.927   0.047   4.345  1.4371  1.5968  0.3212
   89SAPE  H19S 8670   1.895  -0.137   4.325  2.9599 -2.4753  0.7683
   89SAPE  C220 8671   2.090  -0.090   4.349  0.0430  0.0727 -0.9145
   89SAPE  H20R 8672   2.114  -0.091   4.240  1.1384 -2.2762 -0.7291
   89SAPE  H20S 8673   2.121  -0.183   4.402 -2.5694  1.0526  2.7212
   89SAPE  H20T 8674   2.153  -0.004   4.379 -1.1769  0.8123 -0.4242
   89SAPE   C33 8675   1.945  -1.020   5.895 -0.0648  1.1942  0.3337
   89SAPE   H3X 8676   1.834  -1.011   5.896 -0.5390 -2.2129  3.7944
   89SAPE   H3Y 8677   1.967  -1.115   5.841 -1.2782  0.6805  0.7001
   89SAPE   C34 8678   2.006  -0.900   5.823 -0.4244  0.1878 -0.2163
   89SAPE   H4X 8679   2.116  -0.910   5.839 -0.2742  1.1154 -0.6045
   89SAPE   H4Y 8680   1.974  -0.800   5.861  1.5955  0.7869  0.0436
   89SAPE   C35 8681   1.968  -0.895   5.676  0.1454  0.9361 -0.3326
   89SAPE   H5X 8682   1.998  -0.990   5.625  1.3897  2.2247 -2.1327
   89SAPE   H5Y 8683   2.024  -0.817   5.621 -0.2807  1.7597  0.3941
   89SAPE   C36 8684   1.816  -0.875   5.654  0.2216  0.1081  0.1834
   89SAPE   H6X 8685   1.791  -0.776   5.699 -0.6196 -0.1402  0.2773
   89SAPE   H6Y 8686   1.748  -0.956   5.687  1.7339 -0.4726  2.0766
   89SAPE   C37 8687   1.784  -0.857   5.501 -0.3892  0.4268 -0.3498
   89SAPE   H7X 8688   1.873  -0.818   5.449 -0.1855  1.1011  0.4810
   89SAPE   H7Y 8689   1.694  -0.794   5.483  0.2037  1.7751  1.1741
   89SAPE   C38 8690   1.769  -0.990   5.441  0.2095 -0.3748 -0.0490
   89SAPE   H8X 8691   1.664  -1.021   5.460 -1.6133  2.2744 -4.2766
   89SAPE   H8Y 8692   1.837  -1.061   5.493  0.1374 -0.0745  0.4602
   89SAPE   C39 8693   1.781  -0.989   5.285 -0.2940 -0.4145 -0.0292
   89SAPE   H9X 8694   1.805  -1.088   5.241  1.5905  0.1200 -0.2874
   89SAPE   H9Y 8695   1.871  -0.929   5.263 -0.0205 -0.0617  1.8849
   89SAPE  C310 8696   1.662  -0.920   5.214  0.3157 -0.4686  0.7889
   89SAPE  H10X 8697   1.640  -0.813   5.232 -1.7330 -0.4499 -1.3893
   89SAPE  H10Y 8698   1.575  -0.986   5.231  0.0528 -1.0162 -2.1824
   89SAPE  C311 8699   1.677  -0.912   5.058 -0.6126  0.1584 -0.1879
   89SAPE  H11X 8700   1.577  -0.910   5.010 -0.8460 -1.3625  0.2022
   89SAPE  H11Y 8701   1.727  -1.005   5.022 -0.2211 -0.1600  1.1279
   89SAPE  C312 8702   1.768  -0.793   5.005  0.3786  0.6812  0.0332
   89SAPE  H12X 8703   1.856  -0.782   5.072 -2.2636  2.9838  3.4996
   89SAPE  H12Y 8704   1.705  -0.703   5.023 -0.5535 -0.3423  2.4263
   89SAPE  C313 8705   1.806  -0.807   4.856 -0.3377  0.0107 -0.1054
   89SAPE  H13X 8706   1.860  -0.903   4.845  0.6512  0.8520 -4.2942
   89SAPE  H13Y 8707   1.872  -0.728   4.815  1.1267 -0.9295  0.3522
   89SAPE  C314 8708   1.684  -0.815   4.760  0.0656 -0.1356 -0.2258
   89SAPE  H14X 8709   1.618  -0.727   4.770 -0.0754 -0.1889 -0.6640
   89SAPE  H14Y 8710   1.620  -0.902   4.785 -1.9620  1.0168 -1.1858
   89SAPE  C315 8711   1.736  -0.832   4.620 -0.8457 -0.1961 -0.0390
   89SAPE  H15X 8712   1.784  -0.932   4.617 -0.4768 -0.0660  1.1565
   89SAPE  H15Y 8713   1.818  -0.761   4.597 -0.3678 -0.9569 -0.7266
   89SAPE  C316 8714   1.621  -0.830   4.516 -0.2285  0.2931  0.1225
   89SAPE  H16X 8715   1.585  -0.725   4.515 -3.1429 -0.5081  3.0943
   89SAPE  H16Y 8716   1.528  -0.876   4.556  0.0179 -1.0537 -0.8002
   89SAPE  C317 8717   1.664  -0.892   4.380 -0.3825 -0.2319 -0.0610
   89SAPE  H17X 8718   1.575  -0.887   4.313 -1.7618  0.9223  1.7732
   89SAPE  H17Y 8719   1.697  -0.997   4.390  1.3079  0.0625 -1.8643
   89SAPE  C318 8720   1.787  -0.821   4.316  0.0093  0.1599  0.0090
   89SAPE  H18X 8721   1.806  -0.855   4.212  0.2840  1.1806 -0.2817
   89SAPE  H18Y 8722   1.876  -0.846   4.377  0.5652 -0.4176 -1.0088
   89SAPE  H18Z 8723   1.778  -0.710   4.321 -0.6342  0.0863  0.6444
   90SAPE     N 8724   4.977   3.695   6.475  0.4061 -0.0749 -0.5625
   90SAPE   HN1 8725   4.903   3.623   6.479 -0.7866  1.1026 -0.9574
   90SAPE   HN2 8726   5.057   3.674   6.411  2.3874  0.9404  1.4251
   90SAPE   HN3 8727   5.000   3.728   6.571  1.4764  2.0112 -1.4586
   90SAPE   C12 8728   4.900   3.818   6.416  0.1433 -0.0756 -0.4721
   90SAPE  H12A 8729   4.803   3.817   6.470  0.0591 -1.8051 -0.5926
   90SAPE  H12B 8730   4.889   3.801   6.307 -2.4339  1.0652 -0.4542
   90SAPE   C11 8731   4.974   3.947   6.431 -0.3161 -0.8408 -0.3491
   90SAPE  H11A 8732   4.924   4.020   6.365  0.1876  0.0059  0.1811
   90SAPE  H11B 8733   5.082   3.937   6.406 -0.0952  0.2888  0.1068
   90SAPE     P 8734   5.085   3.986   6.667  0.0459 -0.6857 -0.1867
   90SAPE   O13 8735   5.047   4.059   6.787  0.2818 -0.3870 -0.0553
   90SAPE   O14 8736   5.107   3.841   6.680 -0.1931 -0.4691  0.5692
   90SAPE   O12 8737   4.973   4.008   6.561  0.3915  0.7024 -0.5267
   90SAPE   O11 8738   5.210   4.042   6.605 -0.8379 -0.8537 -0.1473
   90SAPE    C1 8739   5.244   4.177   6.577 -0.4662 -0.8696  0.5039
   90SAPE    HA 8740   5.200   4.246   6.653  0.4931 -0.8150  1.0255
   90SAPE    HB 8741   5.352   4.198   6.590 -0.9492  3.1135 -0.4677
   90SAPE    C2 8742   5.229   4.221   6.431  0.3104 -0.1667 -0.1908
   90SAPE    HS 8743   5.280   4.319   6.417  3.2950 -1.7213 -0.9923
   90SAPE   O21 8744   5.088   4.234   6.390  0.2128 -0.8581  0.0762
   90SAPE   C21 8745   5.019   4.329   6.459 -0.1401  0.6443 -0.7722
   90SAPE   O22 8746   5.076   4.413   6.527 -0.4678 -0.1602  0.0362
   90SAPE   C22 8747   4.868   4.318   6.429 -0.2007  0.0128 -0.1029
   90SAPE   H2R 8748   4.838   4.218   6.468  2.3164 -0.7479  0.0707
   90SAPE   H2S 8749   4.823   4.402   6.487 -0.7466 -0.0357 -0.4506
   90SAPE    C3 8750   5.305   4.130   6.327 -0.3246 -0.4606 -0.0545
   90SAPE    HX 8751   5.303   4.024   6.358 -0.6679 -0.8947 -1.4665
   90SAPE    HY 8752   5.411   4.163   6.337  0.0796 -1.7917  0.1951
   90SAPE   O31 8753   5.250   4.155   6.199  0.2499 -0.2298 -0.1963
   90SAPE   C31 8754   5.187   4.057   6.138  0.2023 -0.5628  0.1639
   90SAPE   O32 8755   5.165   3.947   6.180  0.0326 -0.0859  0.1270
   90SAPE   C32 8756   5.153   4.100   5.991  0.3630 -0.2705  0.1608
   90SAPE   H2X 8757   5.133   4.209   5.983 -1.2193 -0.5901 -0.5073
   90SAPE   H2Y 8758   5.058   4.047   5.972  0.1476  0.0405  0.3507
   90SAPE   C23 8759   4.834   4.341   6.279  0.0133 -0.3036 -0.0423
   90SAPE   H3R 8760   4.883   4.260   6.220  2.8362  1.0853  0.1932
   90SAPE   H3S 8761   4.886   4.437   6.256 -1.7720  1.0394  1.3186
   90SAPE   C24 8762   4.682   4.362   6.259 -0.3318 -0.6983 -0.6894
   90SAPE   H4R 8763   4.670   4.453   6.196  2.8756 -0.3487 -0.9723
   90SAPE   H4S 8764   4.636   4.403   6.351 -0.7971 -0.2483 -1.1155
   90SAPE   C25 8765   4.612   4.245   6.199 -0.2392  0.2475 -0.0787
   90SAPE   H5R 8766   4.614   4.156   6.264 -1.7595 -0.5497 -1.0792
   90SAPE   C26 8767   4.556   4.232   6.075 -0.6463 -0.3802 -0.2322
   90SAPE   H6R 8768   4.510   4.141   6.036 -1.3026  1.1483 -3.3076
   90SAPE   C27 8769   4.538   4.349   5.979 -0.3171 -0.7312 -0.0628
   90SAPE   H7R 8770   4.502   4.315   5.880  0.1292  0.0923 -0.5159
   90SAPE   H7S 8771   4.630   4.408   5.963 -1.8853  1.6851 -0.6290
   90SAPE   C28 8772   4.433   4.443   6.031  0.0287 -0.4216 -0.2429
   90SAPE   H8R 8773   4.453   4.483   6.131  2.2832  3.4047 -1.9834
   90SAPE   C29 8774   4.312   4.468   5.967  0.1522 -0.3005  0.6399
   90SAPE   H9R 8775   4.246   4.531   6.028  0.5448  0.7912 -0.0441
   90SAPE  C210 8776   4.259   4.430   5.828  0.1517 -0.3244  0.0766
   90SAPE  H10R 8777   4.316   4.480   5.747 -0.9051  0.9629  0.0924
   90SAPE  H10S 8778   4.159   4.475   5.811  0.4623 -0.1127 -1.3096
   90SAPE  C211 8779   4.250   4.278   5.793  0.4648  0.1644  0.3061
   90SAPE  H11R 8780   4.223   4.213   5.878 -0.8620 -1.5831 -1.3730
   90SAPE  C212 8781   4.272   4.223   5.670  0.7318 -0.1980  0.0175
   90SAPE  H12R 8782   4.268   4.113   5.660  1.6790 -0.2977  0.5834
   90SAPE  C213 8783   4.309   4.288   5.535  0.2227  0.3658 -0.7658
   90SAPE  H13R 8784   4.326   4.208   5.460 -0.0767 -2.1284  1.6631
   90SAPE  H13S 8785   4.407   4.332   5.563  0.9627  0.0672 -2.7163
   90SAPE  C214 8786   4.207   4.386   5.491 -0.1483  0.1530 -0.8484
   90SAPE  H14R 8787   4.126   4.402   5.564  1.2666  2.6523  0.3210
   90SAPE  C215 8788   4.210   4.450   5.372  0.1384 -0.4295  0.9631
   90SAPE  H15R 8789   4.132   4.525   5.350 -0.0719 -0.9165 -0.0099
   90SAPE  C216 8790   4.324   4.442   5.276 -0.1574  0.4491 -0.2054
   90SAPE  H16R 8791   4.405   4.387   5.329 -0.3216  1.3248  1.0107
   90SAPE  H16S 8792   4.358   4.546   5.253 -0.1224  1.0335  2.2302
   90SAPE  C217 8793   4.278   4.357   5.156 -0.0105  0.5530  1.1102
   90SAPE  H17R 8794   4.233   4.269   5.206 -1.0339  1.4414  1.8222
   90SAPE  H17S 8795   4.364   4.331   5.092  1.2002  2.2248  1.9781
   90SAPE  C218 8796   4.169   4.424   5.066 -0.1571  0.5456  0.4559
   90SAPE  H18R 8797   4.222   4.517   5.037  0.0623  1.3143  3.0415
   90SAPE  H18S 8798   4.079   4.452   5.126  0.0938  0.1686  1.0169
   90SAPE  C219 8799   4.129   4.338   4.941  0.3973  0.1701  0.3580
   90SAPE  H19R 8800   4.088   4.250   4.995 -0.8924  0.9109  0.6317
   90SAPE  H19S 8801   4.231   4.319   4.902  0.7711 -0.0186  1.3844
   90SAPE  C220 8802   4.031   4.413   4.851  0.2612 -1.1565 -0.5309
   90SAPE  H20R 8803   4.005   4.364   4.755 -0.2465  1.3110 -1.7265
   90SAPE  H20S 8804   4.073   4.511   4.820  2.0684 -1.7707 -0.1544
   90SAPE  H20T 8805   3.936   4.439   4.903  0.4463  2.1264 -1.6323
   90SAPE   C33 8806   5.252   4.048   5.879 -0.4515 -0.5598 -0.2269
   90SAPE   H3X 8807   5.248   3.937   5.884 -2.2944 -0.5717 -1.2610
   90SAPE   H3Y 8808   5.354   4.082   5.904  0.6530 -2.3428 -2.0297
   90SAPE   C34 8809   5.216   4.087   5.735  0.2171 -0.1788  0.2314
   90SAPE   H4X 8810   5.108   4.077   5.711  0.4523  1.8832 -2.0982
   90SAPE   H4Y 8811   5.273   4.029   5.660  2.4667  3.1286 -0.8648
   90SAPE   C35 8812   5.254   4.233   5.706  0.0280 -0.0906 -0.0308
   90SAPE   H5X 8813   5.364   4.226   5.692 -0.0574 -0.7278 -0.4294
   90SAPE   H5Y 8814   5.215   4.300   5.785  3.2693  0.5206  1.2060
   90SAPE   C36 8815   5.197   4.280   5.577  0.2981 -0.4987 -0.7502
   90SAPE   H6X 8816   5.209   4.387   5.552 -1.3916 -0.2741 -0.7495
   90SAPE   H6Y 8817   5.086   4.267   5.580  0.2484  0.0709  0.2424
   90SAPE   C37 8818   5.245   4.204   5.451 -0.1556  0.0264 -0.3370
   90SAPE   H7X 8819   5.204   4.103   5.471  2.1207 -0.8733  0.0975
   90SAPE   H7Y 8820   5.356   4.199   5.463 -0.0667  1.6548 -0.2772
   90SAPE   C38 8821   5.185   4.250   5.324  0.3362  0.1550  0.6333
   90SAPE   H8X 8822   5.193   4.360   5.313  2.3671 -0.0774 -0.9627
   90SAPE   H8Y 8823   5.080   4.217   5.330  0.2110  0.0100 -1.5134
   90SAPE   C39 8824   5.256   4.187   5.203  0.1252  0.1947 -0.2352
   90SAPE   H9X 8825   5.268   4.077   5.214 -1.3317 -0.1112 -1.3747
   90SAPE   H9Y 8826   5.359   4.229   5.201 -0.4596  1.6855 -0.3419
   90SAPE  C310 8827   5.194   4.247   5.079  0.5736 -0.1132  0.7157
   90SAPE  H10X 8828   5.227   4.353   5.068  2.6274 -0.6432  1.2916
   90SAPE  H10Y 8829   5.085   4.246   5.096 -0.0289 -2.4417 -2.4041
   90SAPE  C311 8830   5.240   4.179   4.956  0.3164  0.4016  0.0595
   90SAPE  H11X 8831   5.201   4.075   4.957 -0.9961  0.8651  0.8236
   90SAPE  H11Y 8832   5.351   4.176   4.955  0.3281  0.1697  1.0538
   90SAPE  C312 8833   5.199   4.250   4.826 -0.3343  0.3310  0.3357
   90SAPE  H12X 8834   5.227   4.358   4.820  3.8714 -0.6458 -2.6918
   90SAPE  H12Y 8835   5.090   4.239   4.809 -0.3309 -0.9291  1.0375
   90SAPE  C313 8836   5.276   4.188   4.706  0.1629  0.0677  0.1615
   90SAPE  H13X 8837   5.382   4.186   4.740 -0.3343 -2.1755  1.7780
   90SAPE  H13Y 8838   5.261   4.256   4.619  1.4933  0.6375  0.3325
   90SAPE  C314 8839   5.251   4.043   4.685 -0.2698 -0.2267  0.0453
   90SAPE  H14X 8840   5.141   4.033   4.674 -0.2148 -0.9746  0.1194
   90SAPE  H14Y 8841   5.300   3.989   4.769  0.6618 -0.5087 -0.6525
   90SAPE  C315 8842   5.315   3.992   4.563 -0.2312 -0.3935 -0.2493
   90SAPE  H15X 8843   5.423   4.015   4.554  0.2871 -2.4343  0.1679
   90SAPE  H15Y 8844   5.260   4.029   4.474 -2.0112  0.2717  1.0674
   90SAPE  C316 8845   5.318   3.838   4.549 -0.3379  0.6294 -1.0624
   90SAPE  H16X 8846   5.239   3.788   4.610 -0.4313  1.6021 -0.3614
   90SAPE  H16Y 8847   5.412   3.811   4.601 -1.6561 -1.6202  0.3450
   90SAPE  C317 8848   5.306   3.787   4.407  0.7348 -0.6545  0.0448
   90SAPE  H17X 8849   5.230   3.844   4.348 -0.7074 -2.4817  0.0567
   90SAPE  H17Y 8850   5.253   3.690   4.404  0.1816 -0.3912  0.9938
   90SAPE  C318 8851   5.439   3.775   4.328  0.1228 -0.5748  0.1244
   90SAPE  H18X 8852   5.500   3.865   4.351  1.4667 -0.5409 -3.0740
   90SAPE  H18Y 8853   5.418   3.798   4.221 -1.8419 -0.2138  0.5484
   90SAPE  H18Z 8854   5.504   3.689   4.352  0.1697 -1.5639 -3.0672
   91SAPE     N 8855   2.153   6.580   6.747 -0.5306 -0.9145  0.1804
   91SAPE   HN1 8856   2.079   6.631   6.799 -0.2367 -0.9939  0.6823
   91SAPE   HN2 8857   2.098   6.557   6.662  0.5397  1.8786 -1.4031
   91SAPE   HN3 8858   2.178   6.499   6.806 -1.0329  1.2904  3.7223
   91SAPE   C12 8859   2.279   6.658   6.708  0.4437  0.4777  0.3949
   91SAPE  H12A 8860   2.341   6.586   6.650  0.2444  2.0145 -1.8687
   91SAPE  H12B 8861   2.341   6.691   6.794 -0.5505  0.9594  0.9405
   91SAPE   C11 8862   2.228   6.781   6.624 -0.0638 -0.4569 -0.1116
   91SAPE  H11A 8863   2.186   6.748   6.527  2.0222 -0.9769 -0.8817
   91SAPE  H11B 8864   2.311   6.839   6.579  2.0476 -3.4782 -0.3510
   91SAPE     P 8865   2.061   6.990   6.654 -0.1116 -0.0330 -0.5591
   91SAPE   O13 8866   1.915   6.959   6.634 -0.5919  0.4571 -0.2027
   91SAPE   O14 8867   2.101   7.096   6.755  0.2859 -0.2292 -0.0444
   91SAPE   O12 8868   2.137   6.858   6.702  0.5848 -0.6592  0.0545
   91SAPE   O11 8869   2.119   7.032   6.517 -0.2818  0.8686 -0.3920
   91SAPE    C1 8870   2.251   7.098   6.523  0.3112 -0.0585  0.2603
   91SAPE    HA 8871   2.247   7.198   6.571 -1.0338 -0.3525  0.8122
   91SAPE    HB 8872   2.325   7.047   6.588 -0.6641  0.0075  1.4683
   91SAPE    C2 8873   2.307   7.098   6.383 -0.6045 -0.3820 -0.7774
   91SAPE    HS 8874   2.220   7.116   6.316 -0.6355 -0.9497 -0.8991
   91SAPE   O21 8875   2.370   6.974   6.357 -0.2642 -0.1604 -0.0201
   91SAPE   C21 8876   2.335   6.916   6.242 -0.2572 -0.2025  0.1863
   91SAPE   O22 8877   2.251   6.947   6.163 -0.0622 -0.4433 -0.1488
   91SAPE   C22 8878   2.448   6.811   6.210  0.1772  0.1107 -0.0091
   91SAPE   H2R 8879   2.503   6.855   6.124 -2.2376  1.3954 -1.0025
   91SAPE   H2S 8880   2.509   6.808   6.303  1.2003  0.4861 -0.6464
   91SAPE    C3 8881   2.394   7.220   6.342 -0.0489 -0.4070  0.3405
   91SAPE    HX 8882   2.477   7.220   6.416  0.2696 -2.1780  0.0353
   91SAPE    HY 8883   2.326   7.307   6.349 -1.9975 -1.7797 -0.5720
   91SAPE   O31 8884   2.459   7.204   6.217 -0.5335 -0.0963  0.0268
   91SAPE   C31 8885   2.422   7.279   6.111 -0.3159 -0.8850  0.5987
   91SAPE   O32 8886   2.333   7.364   6.107 -0.5930 -0.0636 -0.6561
   91SAPE   C32 8887   2.512   7.244   5.986 -0.2972 -0.3651  0.1021
   91SAPE   H2X 8888   2.468   7.146   5.957  1.4174 -0.9683 -0.5995
   91SAPE   H2Y 8889   2.614   7.229   6.027 -0.5492 -2.4655  0.0710
   91SAPE   C23 8890   2.401   6.667   6.176  0.1597 -0.1236 -0.0619
   91SAPE   H3R 8891   2.292   6.657   6.196 -0.0243 -2.0440 -1.8068
   91SAPE   H3S 8892   2.460   6.597   6.239  2.3284  1.3932 -0.3012
   91SAPE   C24 8893   2.414   6.638   6.029 -0.1629  0.5574  0.3629
   91SAPE   H4R 8894   2.367   6.721   5.973 -1.5044  2.3728  3.8616
   91SAPE   H4S 8895   2.349   6.548   6.022 -1.8737  1.6203  1.5948
   91SAPE   C25 8896   2.556   6.608   5.997  0.4845  0.0601 -0.2628
   91SAPE   H5R 8897   2.615   6.595   6.089 -1.1613  1.8896  1.1199
   91SAPE   C26 8898   2.623   6.617   5.879 -0.1726 -0.4921  0.2289
   91SAPE   H6R 8899   2.731   6.599   5.886 -0.2440 -1.1995 -0.3111
   91SAPE   C27 8900   2.572   6.654   5.744  0.3610  0.4141 -0.3877
   91SAPE   H7R 8901   2.469   6.694   5.758  0.6098  0.2756  2.7140
   91SAPE   H7S 8902   2.575   6.568   5.674 -0.3948  0.0720 -0.0187
   91SAPE   C28 8903   2.656   6.766   5.679 -0.2192  0.2501 -0.6809
   91SAPE   H8R 8904   2.765   6.754   5.685 -0.3364 -0.6032 -0.2522
   91SAPE   C29 8905   2.605   6.856   5.593  0.4015 -0.2282  0.0393
   91SAPE   H9R 8906   2.671   6.927   5.542  2.3432 -2.3879 -0.6118
   91SAPE  C210 8907   2.461   6.874   5.547  0.5208 -0.4454 -0.9631
   91SAPE  H10R 8908   2.412   6.774   5.536  2.6361 -1.5594 -0.7563
   91SAPE  H10S 8909   2.448   6.928   5.451 -1.1810  1.7275  0.3783
   91SAPE  C211 8910   2.381   6.952   5.652 -1.0817  1.2993  0.0810
   91SAPE  H11R 8911   2.414   6.922   5.752  0.5335 -0.2647 -0.8586
   91SAPE  C212 8912   2.293   7.051   5.637 -0.1319 -1.3401  0.1074
   91SAPE  H12R 8913   2.248   7.105   5.721 -2.2762 -1.5363 -0.8368
   91SAPE  C213 8914   2.262   7.116   5.496  0.3434  0.1989 -0.1518
   91SAPE  H13R 8915   2.262   7.027   5.431 -1.8599 -0.7389  1.0155
   91SAPE  H13S 8916   2.339   7.183   5.451 -1.6239  1.8665 -1.2306
   91SAPE  C214 8917   2.131   7.193   5.491  0.0746 -0.5644 -0.3046
   91SAPE  H14R 8918   2.142   7.299   5.465  0.2239 -0.4069  0.3767
   91SAPE  C215 8919   2.005   7.149   5.492  0.3913 -0.2244 -0.6446
   91SAPE  H15R 8920   1.925   7.224   5.491  0.8718  0.3201  0.1312
   91SAPE  C216 8921   1.957   7.017   5.541  0.1240 -0.2554  0.6960
   91SAPE  H16R 8922   2.040   6.943   5.538  0.0461 -0.4410  2.3293
   91SAPE  H16S 8923   1.880   6.983   5.468 -1.1153 -0.3369  2.0032
   91SAPE  C217 8924   1.895   7.041   5.682  0.0101 -0.0227  0.2618
   91SAPE  H17R 8925   1.865   6.939   5.714  1.1754 -0.1444  1.0409
   91SAPE  H17S 8926   1.806   7.107   5.680 -2.2173 -2.8493  1.0170
   91SAPE  C218 8927   1.985   7.106   5.784 -0.0953 -0.3600 -0.2246
   91SAPE  H18R 8928   2.022   7.207   5.754  0.4040 -0.5744 -0.3389
   91SAPE  H18S 8929   2.071   7.043   5.814  1.5259  0.3017 -3.0765
   91SAPE  C219 8930   1.900   7.118   5.912 -0.0234 -1.0635 -0.5905
   91SAPE  H19R 8931   1.875   7.012   5.937  1.5115 -1.5602 -1.0802
   91SAPE  H19S 8932   1.804   7.169   5.888  1.2517  2.2743  0.8668
   91SAPE  C220 8933   1.951   7.189   6.042 -0.0744 -0.0938 -0.1464
   91SAPE  H20R 8934   1.880   7.188   6.128  0.6458  0.2837  0.4724
   91SAPE  H20S 8935   1.992   7.289   6.018 -0.0673  0.4302  1.8361
   91SAPE  H20T 8936   2.030   7.120   6.078 -1.1646 -2.0504 -1.3234
   91SAPE   C33 8937   2.491   7.328   5.869  0.3240  0.0796 -0.0860
   91SAPE   H3X 8938   2.518   7.434   5.888  1.4729  0.5178 -3.5091
   91SAPE   H3Y 8939   2.388   7.317   5.829 -0.6287  2.4539  1.4863
   91SAPE   C34 8940   2.585   7.294   5.752  0.4423  0.6879  0.2278
   91SAPE   H4X 8941   2.567   7.188   5.723 -0.5588  0.5589  1.2378
   91SAPE   H4Y 8942   2.683   7.298   5.803 -0.3172  3.4421  1.6783
   91SAPE   C35 8943   2.584   7.397   5.643  0.4096  0.3607 -0.8217
   91SAPE   H5X 8944   2.592   7.499   5.686 -0.6504 -0.1208  0.6067
   91SAPE   H5Y 8945   2.481   7.387   5.605 -0.9987  0.4171  2.5994
   91SAPE   C36 8946   2.692   7.380   5.527  0.2038  0.3075 -0.7295
   91SAPE   H6X 8947   2.793   7.419   5.554  0.6652 -1.3988  0.1400
   91SAPE   H6Y 8948   2.657   7.429   5.434  0.6697  1.5096 -0.2972
   91SAPE   C37 8949   2.715   7.230   5.493 -0.0351  0.7957 -0.0969
   91SAPE   H7X 8950   2.613   7.185   5.491  0.4800 -0.4420  0.4924
   91SAPE   H7Y 8951   2.783   7.176   5.563 -0.7195 -1.1927 -0.8722
   91SAPE   C38 8952   2.774   7.205   5.352  0.3870  0.0700  0.0674
   91SAPE   H8X 8953   2.875   7.162   5.368  1.7864  2.8984 -0.3556
   91SAPE   H8Y 8954   2.793   7.302   5.301  0.0857  0.5530  0.8589
   91SAPE   C39 8955   2.707   7.109   5.255 -0.5268  0.3000  0.0951
   91SAPE   H9X 8956   2.596   7.119   5.250 -0.6414  0.4468  2.0764
   91SAPE   H9Y 8957   2.730   7.003   5.279  0.2409 -0.2621 -2.7072
   91SAPE  C310 8958   2.746   7.130   5.106 -0.1688  0.1995 -0.2867
   91SAPE  H10X 8959   2.854   7.134   5.084 -0.1452  2.5382 -0.0635
   91SAPE  H10Y 8960   2.705   7.230   5.078  0.0018 -0.5081 -3.3499
   91SAPE  C311 8961   2.689   7.021   5.022  0.0000 -0.4852  0.0651
   91SAPE  H11X 8962   2.578   7.012   5.029 -0.1427 -1.3141 -2.2035
   91SAPE  H11Y 8963   2.734   6.931   5.069  0.4756  0.2362  1.0147
   91SAPE  C312 8964   2.722   7.020   4.870 -0.2613 -0.2885 -0.0173
   91SAPE  H12X 8965   2.826   6.983   4.860 -0.4731 -1.9343  2.7877
   91SAPE  H12Y 8966   2.712   7.123   4.829  0.4620 -0.2677 -0.1441
   91SAPE  C313 8967   2.619   6.941   4.792 -0.5778 -0.1534  0.9452
   91SAPE  H13X 8968   2.524   6.995   4.812 -0.9187 -0.0224 -0.7975
   91SAPE  H13Y 8969   2.603   6.843   4.841 -2.8824 -1.0398 -1.3529
   91SAPE  C314 8970   2.676   6.929   4.642 -0.2491  0.1386 -0.1336
   91SAPE  H14X 8971   2.616   6.858   4.582 -0.2757 -0.7070  0.8668
   91SAPE  H14Y 8972   2.783   6.899   4.647  0.2958  1.9163 -0.3498
   91SAPE  C315 8973   2.670   7.061   4.561  0.0365  1.2421  0.1587
   91SAPE  H15X 8974   2.676   7.044   4.451 -1.6411 -1.6826  0.4012
   91SAPE  H15Y 8975   2.758   7.117   4.597  0.5273  2.6073 -2.8000
   91SAPE  C316 8976   2.531   7.142   4.569 -0.2260 -0.2730  0.2394
   91SAPE  H16X 8977   2.521   7.176   4.675 -1.7439 -0.4525  0.1790
   91SAPE  H16Y 8978   2.446   7.072   4.557 -1.1001  0.8687 -0.3338
   91SAPE  C317 8979   2.521   7.241   4.461 -0.1431  0.0683  0.6340
   91SAPE  H17X 8980   2.535   7.189   4.364  2.1170 -0.6236  1.2689
   91SAPE  H17Y 8981   2.606   7.311   4.478  0.2406 -0.5643  1.3940
   91SAPE  C318 8982   2.395   7.322   4.452 -0.4673 -0.3326  0.0179
   91SAPE  H18X 8983   2.390   7.379   4.357  0.0869  0.3042  0.3559
   91SAPE  H18Y 8984   2.387   7.396   4.535  1.1267 -2.2374  1.9822
   91SAPE  H18Z 8985   2.304   7.260   4.466 -1.6900  1.4651  0.4003
   92SAPE     N 8986   0.472   1.108   6.388  0.2330  0.2437 -0.1124
   92SAPE   HN1 8987   0.444   1.177   6.315  0.4355  1.6522  1.0828
   92SAPE   HN2 8988   0.387   1.074   6.437 -0.8329  3.1475  0.2549
   92SAPE   HN3 8989   0.522   1.158   6.465  0.7077  1.0165 -0.9070
   92SAPE   C12 8990   0.559   1.000   6.328  0.1855 -0.6429 -0.0449
   92SAPE  H12A 8991   0.641   1.041   6.266  1.5319  0.0583  2.0790
   92SAPE  H12B 8992   0.484   0.948   6.264 -2.6736  3.8792 -0.8075
   92SAPE   C11 8993   0.623   0.916   6.438  0.3905  0.9341  0.0674
   92SAPE  H11A 8994   0.652   0.819   6.391 -3.3197 -0.3297  0.0848
   92SAPE  H11B 8995   0.557   0.881   6.520  1.5264 -1.0777  0.1711
   92SAPE     P 8996   0.764   1.092   6.587 -0.1395 -0.0336 -0.0566
   92SAPE   O13 8997   0.638   1.169   6.594 -0.4827 -0.1569 -0.0685
   92SAPE   O14 8998   0.803   1.016   6.707  0.3010 -0.1003 -0.0433
   92SAPE   O12 8999   0.745   0.982   6.481  1.0249  0.2601 -0.9328
   92SAPE   O11 9000   0.882   1.182   6.531 -0.3800 -0.4685 -0.0495
   92SAPE    C1 9001   0.851   1.312   6.485 -0.6427 -0.0014  0.2761
   92SAPE    HA 9002   0.746   1.341   6.505 -0.6314  0.6761 -0.5615
   92SAPE    HB 9003   0.910   1.386   6.543 -0.2669 -0.4556  0.4715
   92SAPE    C2 9004   0.858   1.331   6.328 -0.6169  0.1700  1.0095
   92SAPE    HS 9005   0.824   1.240   6.274  0.1512  1.3287 -1.5678
   92SAPE   O21 9006   0.993   1.357   6.298 -0.6418  0.1017 -0.1957
   92SAPE   C21 9007   1.027   1.329   6.175 -0.5373 -0.3741 -1.2121
   92SAPE   O22 9008   0.965   1.267   6.093 -0.2289  0.5454  0.0063
   92SAPE   C22 9009   1.167   1.397   6.157  0.5522  0.8627 -0.0858
   92SAPE   H2R 9010   1.176   1.467   6.243 -1.9364  0.6828  0.3805
   92SAPE   H2S 9011   1.243   1.320   6.184  0.3250  1.0427  1.1110
   92SAPE    C3 9012   0.763   1.451   6.284 -0.0855  0.1187 -0.2979
   92SAPE    HX 9013   0.800   1.540   6.340 -4.6002  1.5063  0.8544
   92SAPE    HY 9014   0.662   1.427   6.322  0.6310 -1.9279  0.4291
   92SAPE   O31 9015   0.757   1.478   6.141  0.0357 -0.0011  0.3262
   92SAPE   C31 9016   0.688   1.387   6.073  0.2676  0.1289  0.2213
   92SAPE   O32 9017   0.657   1.276   6.106  0.0858 -0.3449  0.1163
   92SAPE   C32 9018   0.670   1.442   5.929  0.2822  0.2462 -0.2368
   92SAPE   H2X 9019   0.654   1.347   5.873  0.6493  0.5328 -0.8338
   92SAPE   H2Y 9020   0.768   1.483   5.896 -0.7322  2.1831 -0.9573
   92SAPE   C23 9021   1.194   1.446   6.015  0.0763 -0.0048  0.6995
   92SAPE   H3R 9022   1.174   1.360   5.948  2.2247  1.9257 -2.6911
   92SAPE   H3S 9023   1.302   1.472   6.007  0.1040 -0.1861  0.4701
   92SAPE   C24 9024   1.110   1.570   5.993 -0.1597 -0.5382 -0.1425
   92SAPE   H4R 9025   1.125   1.636   6.081 -0.0658  0.4758 -0.9062
   92SAPE   H4S 9026   1.001   1.548   5.998 -0.4561  1.1672  2.1895
   92SAPE   C25 9027   1.154   1.660   5.880  0.2125 -1.1317 -0.3979
   92SAPE   H5R 9028   1.245   1.717   5.904 -0.1491 -0.6627 -0.1288
   92SAPE   C26 9029   1.099   1.662   5.762  0.9769  0.1124 -0.5229
   92SAPE   H6R 9030   1.136   1.740   5.695  0.2364 -0.5240 -1.6975
   92SAPE   C27 9031   0.972   1.602   5.704  0.4280 -0.3085  0.1778
   92SAPE   H7R 9032   0.949   1.649   5.606 -0.0202 -0.0356  0.4065
   92SAPE   H7S 9033   0.881   1.624   5.764  0.8888 -0.1429  0.8262
   92SAPE   C28 9034   0.993   1.453   5.689 -0.1087 -0.0095 -0.4709
   92SAPE   H8R 9035   1.022   1.406   5.784 -2.6128  2.5255  1.7257
   92SAPE   C29 9036   0.982   1.376   5.586 -0.2506 -0.7776 -0.0183
   92SAPE   H9R 9037   1.004   1.269   5.600  0.5062 -1.1812 -3.3463
   92SAPE  C210 9038   0.927   1.416   5.453  0.3596 -0.2046 -0.6552
   92SAPE  H10R 9039   0.931   1.526   5.437  0.8837 -0.0972  0.1431
   92SAPE  H10S 9040   0.817   1.406   5.464  0.1352 -0.5464 -2.8590
   92SAPE  C211 9041   0.970   1.333   5.334 -0.4405 -0.0285  0.0640
   92SAPE  H11R 9042   1.031   1.246   5.360  0.1603  0.7598  1.3961
   92SAPE  C212 9043   0.931   1.351   5.207  0.5634 -0.3889 -0.2832
   92SAPE  H12R 9044   0.960   1.270   5.139 -2.6914 -2.0079  0.0801
   92SAPE  C213 9045   0.832   1.449   5.156  0.2588 -0.5084  0.5170
   92SAPE  H13R 9046   0.878   1.545   5.127  1.0376 -1.0783 -0.2006
   92SAPE  H13S 9047   0.746   1.467   5.223 -1.9619  0.2059 -2.3061
   92SAPE  C214 9048   0.766   1.395   5.028  0.2845  0.5398 -0.1214
   92SAPE  H14R 9049   0.674   1.338   5.048  1.3482 -0.7947  1.1517
   92SAPE  C215 9050   0.787   1.433   4.901  0.2412  0.1568  0.9083
   92SAPE  H15R 9051   0.735   1.388   4.816  1.2413  0.1136  0.3006
   92SAPE  C216 9052   0.892   1.533   4.851  0.2356 -0.4896  0.1999
   92SAPE  H16R 9053   0.965   1.554   4.932  1.8415 -1.8286 -0.8386
   92SAPE  H16S 9054   0.848   1.632   4.828  1.2483 -0.5866 -2.3596
   92SAPE  C217 9055   0.949   1.492   4.715  0.0328 -0.3643  0.0030
   92SAPE  H17R 9056   0.877   1.489   4.630  0.4061 -1.7954 -0.2932
   92SAPE  H17S 9057   0.992   1.389   4.710 -0.0236 -0.3799 -0.1695
   92SAPE  C218 9058   1.057   1.594   4.678  0.2782  0.0768  0.7552
   92SAPE  H18R 9059   1.129   1.595   4.762  0.0202  0.8065  0.9791
   92SAPE  H18S 9060   1.006   1.693   4.675 -1.0126 -0.5161  1.8513
   92SAPE  C219 9061   1.127   1.584   4.546  0.1640 -0.0372  1.3227
   92SAPE  H19R 9062   1.053   1.568   4.465  0.2736 -0.2221  1.2566
   92SAPE  H19S 9063   1.192   1.494   4.546  2.4589  1.5280  0.3777
   92SAPE  C220 9064   1.212   1.707   4.517 -0.1185 -0.2313 -0.3388
   92SAPE  H20R 9065   1.274   1.745   4.601 -0.6409  0.0883 -0.0920
   92SAPE  H20S 9066   1.144   1.793   4.499 -0.4604 -0.8519 -2.2169
   92SAPE  H20T 9067   1.271   1.696   4.423 -1.6974  1.4432 -1.5896
   92SAPE   C33 9068   0.546   1.529   5.910  0.4551 -0.2891 -0.8876
   92SAPE   H3X 9069   0.527   1.612   5.982 -0.5925  1.2237 -2.8057
   92SAPE   H3Y 9070   0.464   1.457   5.934  2.7670 -1.7823  3.7569
   92SAPE   C34 9071   0.536   1.588   5.771 -0.6484  0.3115 -0.0510
   92SAPE   H4X 9072   0.629   1.647   5.761 -1.0952  0.9929 -0.2535
   92SAPE   H4Y 9073   0.452   1.661   5.763 -1.8243 -0.8579  1.0875
   92SAPE   C35 9074   0.555   1.477   5.658 -0.9691  0.3867 -0.3456
   92SAPE   H5X 9075   0.482   1.400   5.689  0.3997 -1.4783 -1.5138
   92SAPE   H5Y 9076   0.656   1.432   5.672 -0.3807  1.8374  0.3133
   92SAPE   C36 9077   0.525   1.536   5.519  0.2600  0.4051  0.6275
   92SAPE   H6X 9078   0.598   1.612   5.486  0.5283 -1.0906 -2.5663
   92SAPE   H6Y 9079   0.425   1.584   5.528  0.7460  1.4073  0.7958
   92SAPE   C37 9080   0.517   1.423   5.413  0.7431  0.7019  0.0165
   92SAPE   H7X 9081   0.436   1.353   5.441  0.3655  1.0246 -0.2597
   92SAPE   H7Y 9082   0.610   1.364   5.404  0.3939 -0.2605  2.1540
   92SAPE   C38 9083   0.471   1.484   5.270 -0.5642  0.1650  0.0021
   92SAPE   H8X 9084   0.499   1.409   5.192 -0.0099 -0.3624  0.6931
   92SAPE   H8Y 9085   0.539   1.571   5.260  1.5728 -1.2937  0.8723
   92SAPE   C39 9086   0.325   1.529   5.262  0.7578  0.3167 -0.4820
   92SAPE   H9X 9087   0.323   1.615   5.333  1.8043  0.5570 -0.7230
   92SAPE   H9Y 9088   0.249   1.450   5.277  0.2363  1.0146  0.7421
   92SAPE  C310 9089   0.290   1.584   5.125 -0.5010 -0.3557  0.8647
   92SAPE  H10X 9090   0.351   1.670   5.091 -0.0233 -1.0067  0.0519
   92SAPE  H10Y 9091   0.187   1.627   5.134  0.4440  2.1984  0.4613
   92SAPE  C311 9092   0.287   1.477   5.016 -0.6818 -0.7756  0.0818
   92SAPE  H11X 9093   0.227   1.391   5.052  1.5928 -1.6643  2.0080
   92SAPE  H11Y 9094   0.390   1.440   4.999 -0.4896 -0.3213  0.2206
   92SAPE  C312 9095   0.247   1.527   4.879  0.2497 -0.1877 -0.5502
   92SAPE  H12X 9096   0.145   1.572   4.881 -0.1145 -0.9953 -0.3679
   92SAPE  H12Y 9097   0.247   1.436   4.815  1.7546 -0.5434 -0.0696
   92SAPE  C313 9098   0.322   1.643   4.815  0.6103  0.1970 -0.2922
   92SAPE  H13X 9099   0.427   1.615   4.791  0.5706 -2.1551  1.9090
   92SAPE  H13Y 9100   0.351   1.720   4.890  0.5540  0.6684 -0.7458
   92SAPE  C314 9101   0.249   1.697   4.694  0.0479  0.3813  0.3446
   92SAPE  H14X 9102   0.310   1.779   4.650 -1.4055  0.6649 -1.2554
   92SAPE  H14Y 9103   0.151   1.743   4.722 -1.2785 -1.8377 -0.4202
   92SAPE  C315 9104   0.222   1.596   4.577 -0.4255 -0.2453 -0.1111
   92SAPE  H15X 9105   0.148   1.633   4.502 -0.9959 -1.3848 -0.1442
   92SAPE  H15Y 9106   0.167   1.516   4.632  1.4601 -1.4114  0.1671
   92SAPE  C316 9107   0.347   1.532   4.509 -0.1986 -0.8177 -0.6132
   92SAPE  H16X 9108   0.428   1.509   4.581 -0.3107  0.6723  0.0296
   92SAPE  H16Y 9109   0.387   1.607   4.438  2.9448 -2.6223 -0.9049
   92SAPE  C317 9110   0.308   1.409   4.421 -0.7636  0.0523 -0.3747
   92SAPE  H17X 9111   0.234   1.448   4.348 -1.3265  0.3666  0.3453
   92SAPE  H17Y 9112   0.270   1.339   4.499 -0.1763 -0.0671 -0.1858
   92SAPE  C318 9113   0.426   1.348   4.349  0.2153  0.8411 -0.9093
   92SAPE  H18X 9114   0.449   1.409   4.259 -0.9318  4.5130  1.0747
   92SAPE  H18Y 9115   0.411   1.240   4.327  1.5187 -0.3684  3.2811
   92SAPE  H18Z 9116   0.513   1.346   4.418  0.3095 -0.0007 -1.0312
   93SAPE     N 9117   6.770   2.224   6.745 -0.0379  0.1809  0.8104
   93SAPE   HN1 9118   6.766   2.250   6.846  0.9344 -1.2632  1.2414
   93SAPE   HN2 9119   6.788   2.122   6.735 -0.8623  0.0573  0.5437
   93SAPE   HN3 9120   6.853   2.275   6.708  0.1864 -0.0189  1.0393
   93SAPE   C12 9121   6.646   2.272   6.684 -0.7038 -0.2920  0.2270
   93SAPE  H12A 9122   6.623   2.213   6.593  1.9499 -1.7018  0.3626
   93SAPE  H12B 9123   6.669   2.374   6.645 -0.2309 -0.1790  0.7901
   93SAPE   C11 9124   6.518   2.274   6.769  0.3208  0.0017 -0.9100
   93SAPE  H11A 9125   6.543   2.332   6.861 -3.4263 -0.8982  0.8556
   93SAPE  H11B 9126   6.506   2.167   6.794  1.5967  0.5321  2.5415
   93SAPE     P 9127   6.388   2.485   6.675  0.0249  0.5041 -0.2973
   93SAPE   O13 9128   6.240   2.511   6.663 -0.1888 -0.4686  0.3345
   93SAPE   O14 9129   6.452   2.568   6.778  0.0518  0.3074 -0.0785
   93SAPE   O12 9130   6.406   2.329   6.698 -0.4250 -0.2035 -0.1734
   93SAPE   O11 9131   6.453   2.490   6.530  0.3604  0.0217 -0.1739
   93SAPE    C1 9132   6.512   2.611   6.479  0.7443  0.4450  0.2989
   93SAPE    HA 9133   6.497   2.699   6.546  4.9224  0.9086  0.8503
   93SAPE    HB 9134   6.622   2.598   6.475  0.7447  0.7088 -1.0254
   93SAPE    C2 9135   6.464   2.654   6.334 -0.0549  0.0672 -1.0273
   93SAPE    HS 9136   6.516   2.751   6.319 -0.0892  0.3045  0.3340
   93SAPE   O21 9137   6.318   2.671   6.320 -0.4558  0.4721  0.1553
   93SAPE   C21 9138   6.264   2.767   6.388  0.6827  0.7192 -0.5546
   93SAPE   O22 9139   6.318   2.856   6.451 -0.7833  0.2125 -0.0575
   93SAPE   C22 9140   6.112   2.746   6.392  0.4180 -0.2211 -0.2909
   93SAPE   H2R 9141   6.100   2.650   6.445  0.5448 -0.5547 -0.8593
   93SAPE   H2S 9142   6.073   2.832   6.452  0.0851 -0.1657 -0.5842
   93SAPE    C3 9143   6.507   2.550   6.232 -0.7715 -0.2116 -0.5136
   93SAPE    HX 9144   6.452   2.454   6.244 -2.0645  0.6753  0.9532
   93SAPE    HY 9145   6.611   2.524   6.261 -1.6442 -1.8498  1.4587
   93SAPE   O31 9146   6.492   2.607   6.100 -0.5200 -0.2545 -0.0546
   93SAPE   C31 9147   6.507   2.512   6.008 -0.7358  0.1373 -0.0515
   93SAPE   O32 9148   6.529   2.395   6.024  0.0534  0.3025 -0.6784
   93SAPE   C32 9149   6.488   2.580   5.867  0.2442 -0.0057 -0.3661
   93SAPE   H2X 9150   6.557   2.667   5.877 -0.4653  0.3821  1.8688
   93SAPE   H2Y 9151   6.381   2.611   5.866  0.0899 -0.3390  1.4202
   93SAPE   C23 9152   6.045   2.754   6.250 -0.2863 -0.4288  0.0271
   93SAPE   H3R 9153   5.938   2.736   6.276  0.2486 -1.3472  1.7971
   93SAPE   H3S 9154   6.087   2.685   6.174 -0.6156  0.3263 -0.8577
   93SAPE   C24 9155   6.061   2.895   6.191  0.9843 -0.1023  0.2778
   93SAPE   H4R 9156   6.019   2.973   6.258 -0.0900 -0.2905 -0.1702
   93SAPE   H4S 9157   5.987   2.895   6.109 -0.2301  0.5862  1.3352
   93SAPE   C25 9158   6.191   2.930   6.127  0.3637 -0.8131 -0.1380
   93SAPE   H5R 9159   6.272   2.954   6.197  0.4512 -1.6218  0.0495
   93SAPE   C26 9160   6.224   2.939   5.998  0.6638 -0.2433  0.6023
   93SAPE   H6R 9161   6.324   2.962   5.959 -0.2147 -0.6997 -2.1356
   93SAPE   C27 9162   6.128   2.918   5.882  0.2879 -0.4534 -0.7543
   93SAPE   H7R 9163   6.170   2.973   5.794  2.4491 -2.3365 -1.0012
   93SAPE   H7S 9164   6.027   2.960   5.900 -0.2768 -1.8693 -0.4438
   93SAPE   C28 9165   6.100   2.773   5.845  0.7350  0.5264  0.7849
   93SAPE   H8R 9166   6.078   2.706   5.930 -1.1022  0.1060  0.0307
   93SAPE   C29 9167   6.074   2.731   5.718  0.2150  0.1438 -0.2849
   93SAPE   H9R 9168   6.028   2.633   5.697  2.5854 -0.9991 -0.4330
   93SAPE  C210 9169   6.088   2.808   5.591 -0.1125  0.1795 -0.4972
   93SAPE  H10R 9170   6.168   2.750   5.539  1.6596  0.8079  1.3868
   93SAPE  H10S 9171   6.125   2.912   5.604 -4.4034  1.5897  2.4470
   93SAPE  C211 9172   5.963   2.812   5.514  0.3203  0.0878  0.2961
   93SAPE  H11R 9173   5.869   2.779   5.562  0.4160  1.0455  1.1829
   93SAPE  C212 9174   5.954   2.831   5.383  0.0928  0.8585  0.4522
   93SAPE  H12R 9175   5.858   2.831   5.330  0.9994  2.4646 -1.3116
   93SAPE  C213 9176   6.068   2.859   5.290  0.6621 -0.0824 -0.0337
   93SAPE  H13R 9177   6.150   2.903   5.351 -0.4330  2.5003 -0.3030
   93SAPE  H13S 9178   6.029   2.947   5.234  0.8596 -0.1191 -0.2286
   93SAPE  C214 9179   6.113   2.753   5.199  0.3605  0.7132 -0.0781
   93SAPE  H14R 9180   6.095   2.652   5.240  0.0853  0.4574 -0.8159
   93SAPE  C215 9181   6.136   2.765   5.068 -0.8712 -0.4282  0.1757
   93SAPE  H15R 9182   6.166   2.674   5.014  2.0202 -0.9533  2.4321
   93SAPE  C216 9183   6.144   2.890   4.984 -0.3419  0.0994  0.0618
   93SAPE  H16R 9184   6.253   2.900   4.964 -0.3638  0.9556  0.3169
   93SAPE  H16S 9185   6.114   2.987   5.030  0.7153  0.6530 -0.3673
   93SAPE  C217 9186   6.060   2.864   4.858  0.2218 -0.0952  0.1917
   93SAPE  H17R 9187   6.073   2.768   4.804  0.8263  0.2919 -0.3670
   93SAPE  H17S 9188   6.083   2.945   4.786  0.1195  0.7567  1.0986
   93SAPE  C218 9189   5.910   2.870   4.889  0.3194  0.4837 -0.5070
   93SAPE  H18R 9190   5.879   2.957   4.950 -0.0362  0.5105 -0.7266
   93SAPE  H18S 9191   5.891   2.786   4.960  1.7662  0.7604  0.2620
   93SAPE  C219 9192   5.818   2.886   4.765  0.2520  0.1014 -0.0699
   93SAPE  H19R 9193   5.808   2.778   4.742  0.0480 -0.2162  1.4079
   93SAPE  H19S 9194   5.872   2.935   4.681 -1.2820  0.6240 -0.7807
   93SAPE  C220 9195   5.681   2.949   4.787  0.4558  0.3685 -0.5796
   93SAPE  H20R 9196   5.613   2.916   4.706  0.8693  1.4738 -1.3937
   93SAPE  H20S 9197   5.699   3.058   4.783  2.9344  0.2140  2.4531
   93SAPE  H20T 9198   5.645   2.921   4.889 -0.2521 -0.6239 -1.0834
   93SAPE   C33 9199   6.531   2.487   5.750  0.5378 -0.6020  0.7519
   93SAPE   H3X 9200   6.463   2.399   5.753 -1.5103  0.8075 -0.8376
   93SAPE   H3Y 9201   6.637   2.455   5.762  0.3037 -1.2766  1.0965
   93SAPE   C34 9202   6.495   2.558   5.617 -0.9590  0.2581  0.6826
   93SAPE   H4X 9203   6.566   2.643   5.609  0.4810 -0.9141  0.5535
   93SAPE   H4Y 9204   6.386   2.582   5.623 -1.7204 -1.9708 -1.8987
   93SAPE   C35 9205   6.506   2.462   5.497 -0.0560  1.1345  0.1701
   93SAPE   H5X 9206   6.450   2.368   5.519  1.3182  0.2808  0.1314
   93SAPE   H5Y 9207   6.611   2.437   5.469 -0.8067 -2.3311 -0.0604
   93SAPE   C36 9208   6.434   2.513   5.362  0.1659  0.2330 -0.8321
   93SAPE   H6X 9209   6.478   2.611   5.336 -0.2664  1.4186  2.4569
   93SAPE   H6Y 9210   6.325   2.523   5.383  0.2523  0.9402 -0.6966
   93SAPE   C37 9211   6.445   2.423   5.238 -0.2509  0.9316 -0.7497
   93SAPE   H7X 9212   6.391   2.328   5.261  1.3189  0.3601  0.8143
   93SAPE   H7Y 9213   6.550   2.388   5.232 -0.8664 -1.1526 -0.2147
   93SAPE   C38 9214   6.404   2.499   5.113  0.3800  0.7599  0.4871
   93SAPE   H8X 9215   6.474   2.584   5.100 -0.4570  1.2150 -1.4599
   93SAPE   H8Y 9216   6.298   2.529   5.127 -0.5141 -1.2107 -1.3975
   93SAPE   C39 9217   6.401   2.400   4.998 -0.4752  0.1923 -0.2649
   93SAPE   H9X 9218   6.344   2.309   5.026 -0.1394  0.3511  1.0041
   93SAPE   H9Y 9219   6.506   2.377   4.970 -0.8217  0.4537 -1.8404
   93SAPE  C310 9220   6.345   2.463   4.871 -0.0790 -0.3160  0.8107
   93SAPE  H10X 9221   6.404   2.557   4.863 -0.6989  0.0659  0.6671
   93SAPE  H10Y 9222   6.243   2.503   4.885  0.0441  2.0142 -3.4022
   93SAPE  C311 9223   6.366   2.389   4.738  0.3846 -0.7331 -0.5751
   93SAPE  H11X 9224   6.288   2.312   4.722 -0.3277  0.1026 -1.2069
   93SAPE  H11Y 9225   6.467   2.343   4.724 -0.2114 -1.4660 -2.7497
   93SAPE  C312 9226   6.349   2.487   4.616  0.0219  0.2293 -0.1665
   93SAPE  H12X 9227   6.433   2.558   4.630  2.2478 -2.5128  1.5124
   93SAPE  H12Y 9228   6.255   2.543   4.634 -1.1902 -0.9472 -2.4734
   93SAPE  C313 9229   6.337   2.413   4.483 -0.7204 -0.1759  0.1276
   93SAPE  H13X 9230   6.245   2.350   4.474 -0.3873 -0.6431 -0.0469
   93SAPE  H13Y 9231   6.422   2.342   4.476  0.4746  1.1569  0.6998
   93SAPE  C314 9232   6.339   2.499   4.349  0.7516 -0.4279 -0.4473
   93SAPE  H14X 9233   6.421   2.574   4.346 -0.6930  1.1675 -2.1505
   93SAPE  H14Y 9234   6.241   2.550   4.339  0.9181  0.9880  3.5437
   93SAPE  C315 9235   6.361   2.401   4.233  0.1803 -0.5555  0.3712
   93SAPE  H15X 9236   6.332   2.453   4.139 -0.4229  0.6020  1.1675
   93SAPE  H15Y 9237   6.289   2.319   4.246 -0.3831 -0.1439 -0.0995
   93SAPE  C316 9238   6.507   2.343   4.205  0.4058 -0.8237 -0.4262
   93SAPE  H16X 9239   6.544   2.308   4.304 -1.4101 -2.9972 -0.4210
   93SAPE  H16Y 9240   6.571   2.422   4.161  1.2897 -0.5012  1.3715
   93SAPE  C317 9241   6.506   2.237   4.100  0.3264 -0.0808  0.3111
   93SAPE  H17X 9242   6.455   2.289   4.016  1.2713  1.2908  0.5555
   93SAPE  H17Y 9243   6.451   2.151   4.144 -0.4283  0.0480 -0.3522
   93SAPE  C318 9244   6.651   2.197   4.061 -0.4533  0.6421  0.3888
   93SAPE  H18X 9245   6.696   2.133   4.140  3.4149 -0.3814 -2.3570
   93SAPE  H18Y 9246   6.714   2.289   4.056  0.7061 -0.0660  1.3304
   93SAPE  H18Z 9247   6.648   2.138   3.967 -0.3078 -1.3429  1.5636
   94SAPE     N 9248   4.276   4.992   6.434  0.2465 -0.0974  0.0369
   94SAPE   HN1 9249   4.249   5.085   6.471  2.6603  0.2465  1.1765
   94SAPE   HN2 9250   4.364   5.013   6.382  0.3142  2.1659  0.9449
   94SAPE   HN3 9251   4.208   4.960   6.362  2.0933 -2.9878 -0.5876
   94SAPE   C12 9252   4.295   4.887   6.543 -0.1702 -0.2306  0.5775
   94SAPE  H12A 9253   4.389   4.914   6.595  0.5738 -0.5670 -0.5506
   94SAPE  H12B 9254   4.322   4.788   6.501  2.5867  0.3927  0.6917
   94SAPE   C11 9255   4.173   4.899   6.638 -0.2267 -0.0282  0.9214
   94SAPE  H11A 9256   4.163   4.798   6.684  0.6661 -0.4587  0.2030
   94SAPE  H11B 9257   4.081   4.908   6.577  0.4763 -0.4386 -0.2201
   94SAPE     P 9258   4.099   5.142   6.708  0.0740  0.5396  0.3576
   94SAPE   O13 9259   3.955   5.103   6.701 -0.1533 -0.5088 -0.2075
   94SAPE   O14 9260   4.132   5.234   6.814 -0.5288 -0.3440 -0.5531
   94SAPE   O12 9261   4.183   5.013   6.727 -0.9456  0.0737 -0.1052
   94SAPE   O11 9262   4.156   5.199   6.570  0.1376 -0.1012 -0.2146
   94SAPE    C1 9263   4.098   5.318   6.523  0.4556 -0.2665  0.9407
   94SAPE    HA 9264   4.013   5.287   6.458  1.9445 -1.6830 -0.4285
   94SAPE    HB 9265   4.056   5.382   6.604 -0.1674  0.3528  0.1494
   94SAPE    C2 9266   4.200   5.401   6.441  0.1872 -0.4067  0.2363
   94SAPE    HS 9267   4.150   5.490   6.396  1.5842 -0.1009 -0.7863
   94SAPE   O21 9268   4.265   5.330   6.335 -0.0773  0.5732  0.4691
   94SAPE   C21 9269   4.181   5.333   6.226 -0.8705 -0.5238  0.7801
   94SAPE   O22 9270   4.070   5.378   6.216  0.5586 -0.9166  0.3976
   94SAPE   C22 9271   4.263   5.283   6.112  0.1586  0.3825  0.1900
   94SAPE   H2R 9272   4.353   5.343   6.090 -1.1964  1.4077 -3.3224
   94SAPE   H2S 9273   4.298   5.181   6.137 -0.6481 -0.0974 -0.5533
   94SAPE    C3 9274   4.307   5.467   6.533 -0.2482 -0.2746 -0.5077
   94SAPE    HX 9275   4.384   5.387   6.539  2.1147  1.8225 -1.2716
   94SAPE    HY 9276   4.266   5.481   6.635  1.2188  3.3333 -0.2615
   94SAPE   O31 9277   4.363   5.580   6.476  0.1760 -0.4712 -0.1324
   94SAPE   C31 9278   4.302   5.696   6.513 -0.4099 -0.5856  0.1847
   94SAPE   O32 9279   4.223   5.711   6.600 -0.2521 -0.3682  0.3668
   94SAPE   C32 9280   4.353   5.812   6.422  0.4380  0.2268  0.7955
   94SAPE   H2X 9281   4.416   5.774   6.339 -0.0848  2.6498 -0.7886
   94SAPE   H2Y 9282   4.406   5.878   6.493  1.4438  0.2998 -0.0107
   94SAPE   C23 9283   4.181   5.262   5.979 -0.2149  0.0476  0.1671
   94SAPE   H3R 9284   4.173   5.355   5.919  1.5648 -0.9458 -1.7380
   94SAPE   H3S 9285   4.083   5.215   6.001 -1.2136  1.3505 -1.2119
   94SAPE   C24 9286   4.242   5.157   5.880 -0.7739 -0.7150 -0.0904
   94SAPE   H4R 9287   4.156   5.121   5.819 -0.0828 -1.0824 -0.8682
   94SAPE   H4S 9288   4.268   5.064   5.935  1.2070  0.2973  0.7502
   94SAPE   C25 9289   4.359   5.190   5.785  0.3782 -0.8366 -0.4614
   94SAPE   H5R 9290   4.456   5.153   5.821  1.3151 -0.7134 -2.7081
   94SAPE   C26 9291   4.350   5.246   5.664  0.6154  0.4610  0.2017
   94SAPE   H6R 9292   4.439   5.279   5.609  2.1864 -1.0961  1.6864
   94SAPE   C27 9293   4.221   5.282   5.598  0.2661 -0.0062  0.2463
   94SAPE   H7R 9294   4.241   5.370   5.534 -1.4489 -1.7123 -2.8996
   94SAPE   H7S 9295   4.149   5.316   5.676  1.0139  1.0645  0.4885
   94SAPE   C28 9296   4.169   5.177   5.508 -0.3954  0.1031  0.4228
   94SAPE   H8R 9297   4.155   5.075   5.547  2.0649 -0.0470  1.1005
   94SAPE   C29 9298   4.143   5.193   5.375  0.2767  0.3953 -0.0117
   94SAPE   H9R 9299   4.135   5.101   5.316  0.1296  0.7588 -0.5704
   94SAPE  C210 9300   4.163   5.319   5.290 -0.2771  0.3615  1.0804
   94SAPE  H10R 9301   4.267   5.354   5.301 -0.2110  1.0640 -1.2126
   94SAPE  H10S 9302   4.105   5.400   5.340  0.1871  0.9232  0.7152
   94SAPE  C211 9303   4.120   5.299   5.146  0.2660  0.1744  0.0169
   94SAPE  H11R 9304   4.011   5.288   5.141 -0.0393  2.7733 -0.0445
   94SAPE  C212 9305   4.192   5.274   5.038 -0.3418 -0.4798  1.0627
   94SAPE  H12R 9306   4.145   5.268   4.939 -0.2580  1.8599  0.8250
   94SAPE  C213 9307   4.342   5.258   5.047  0.5525 -0.7666  0.1004
   94SAPE  H13R 9308   4.369   5.166   4.991  0.3699 -0.5419 -0.3651
   94SAPE  H13S 9309   4.382   5.229   5.147  1.9427  0.9478  0.0958
   94SAPE  C214 9310   4.411   5.389   5.001  0.4617 -0.2659  0.2673
   94SAPE  H14R 9311   4.431   5.462   5.081 -0.5483  0.5176 -0.1729
   94SAPE  C215 9312   4.427   5.422   4.875 -0.2886 -0.3824  0.3850
   94SAPE  H15R 9313   4.490   5.508   4.851 -1.1145 -0.0546 -0.7362
   94SAPE  C216 9314   4.400   5.328   4.761  0.6022 -0.2882  0.7518
   94SAPE  H16R 9315   4.290   5.329   4.742  0.2673 -0.6527  2.4941
   94SAPE  H16S 9316   4.413   5.223   4.795 -2.1152 -1.1582 -0.5736
   94SAPE  C217 9317   4.473   5.361   4.627  0.5896  0.1737  0.8316
   94SAPE  H17R 9318   4.571   5.399   4.661  1.1293  1.8369 -2.2024
   94SAPE  H17S 9319   4.426   5.438   4.562  4.1973 -0.5871 -3.0961
   94SAPE  C218 9320   4.489   5.238   4.534 -0.2438 -0.6978 -0.2936
   94SAPE  H18R 9321   4.396   5.180   4.518 -0.8757 -0.5275  2.3216
   94SAPE  H18S 9322   4.554   5.164   4.585 -1.7376 -2.5962 -1.0035
   94SAPE  C219 9323   4.562   5.265   4.401  0.0756  0.5788  0.3113
   94SAPE  H19R 9324   4.649   5.332   4.414  1.6492 -0.8548 -2.0946
   94SAPE  H19S 9325   4.487   5.301   4.327 -0.2646  2.2652  1.4348
   94SAPE  C220 9326   4.616   5.132   4.340 -0.4953 -0.7408 -0.1622
   94SAPE  H20R 9327   4.719   5.115   4.378  0.1540 -0.0631 -1.5581
   94SAPE  H20S 9328   4.622   5.135   4.229  0.2684  0.5375 -0.1047
   94SAPE  H20T 9329   4.549   5.044   4.354 -2.3848  0.4186 -1.4873
   94SAPE   C33 9330   4.244   5.893   6.348 -0.3150 -0.1525 -0.1002
   94SAPE   H3X 9331   4.295   5.963   6.278  0.4015  0.6039  1.1422
   94SAPE   H3Y 9332   4.186   5.950   6.424 -1.7765 -0.6173 -0.8244
   94SAPE   C34 9333   4.146   5.799   6.273  0.3298 -0.3951 -0.4914
   94SAPE   H4X 9334   4.060   5.865   6.247 -0.7119 -0.6637  1.9492
   94SAPE   H4Y 9335   4.096   5.722   6.336 -0.1525 -0.6258 -1.1468
   94SAPE   C35 9336   4.202   5.752   6.138  0.0001 -0.3458  0.2751
   94SAPE   H5X 9337   4.134   5.682   6.085  1.4623 -2.1083  0.6266
   94SAPE   H5Y 9338   4.296   5.694   6.153 -0.9828 -2.3899 -0.9894
   94SAPE   C36 9339   4.245   5.866   6.037 -0.3239 -0.5974  0.6422
   94SAPE   H6X 9340   4.317   5.925   6.098 -1.9512 -0.7942  2.8361
   94SAPE   H6Y 9341   4.163   5.935   6.009 -0.9533 -1.2349  0.8930
   94SAPE   C37 9342   4.311   5.821   5.904  0.6592  0.2660  0.4439
   94SAPE   H7X 9343   4.372   5.729   5.915  1.2415  0.6908  0.8479
   94SAPE   H7Y 9344   4.371   5.905   5.863  3.2826  0.8120  4.7478
   94SAPE   C38 9345   4.207   5.788   5.794  0.0930 -0.1278 -0.1235
   94SAPE   H8X 9346   4.157   5.886   5.778 -0.0829 -0.4965 -2.0869
   94SAPE   H8Y 9347   4.124   5.724   5.833 -1.9597  1.8378 -1.0287
   94SAPE   C39 9348   4.273   5.739   5.670 -0.2889 -0.1721 -0.1562
   94SAPE   H9X 9349   4.296   5.632   5.686  0.8133 -0.4470 -3.0283
   94SAPE   H9Y 9350   4.366   5.794   5.644 -0.6107  1.2480  1.4552
   94SAPE  C310 9351   4.184   5.762   5.550 -0.4807 -0.0448  0.1828
   94SAPE  H10X 9352   4.174   5.873   5.542  1.7834  0.2378  0.7342
   94SAPE  H10Y 9353   4.082   5.724   5.572 -1.0042  0.8938 -0.5619
   94SAPE  C311 9354   4.231   5.714   5.421  0.4914  0.0980 -0.4883
   94SAPE  H11X 9355   4.238   5.604   5.405 -0.8824  0.0889 -1.1206
   94SAPE  H11Y 9356   4.329   5.762   5.399  0.3020  1.4756  1.4532
   94SAPE  C312 9357   4.135   5.756   5.309  0.4193  0.2566 -0.0036
   94SAPE  H12X 9358   4.167   5.861   5.296  3.9212 -0.8314 -1.0695
   94SAPE  H12Y 9359   4.028   5.771   5.336 -0.6591 -0.3775 -3.4662
   94SAPE  C313 9360   4.150   5.679   5.181  0.5471  0.0172  0.1293
   94SAPE  H13X 9361   4.067   5.607   5.173  2.6163 -2.4135 -0.7250
   94SAPE  H13Y 9362   4.237   5.610   5.178  0.4942 -0.0209 -1.0491
   94SAPE  C314 9363   4.153   5.762   5.053  0.3555  0.1255 -0.4395
   94SAPE  H14X 9364   4.197   5.697   4.975 -0.5695 -0.9825 -0.0657
   94SAPE  H14Y 9365   4.209   5.858   5.061 -0.0974  0.3231  0.5906
   94SAPE  C315 9366   4.013   5.810   5.007  0.4319 -0.0722  0.7111
   94SAPE  H15X 9367   3.964   5.877   5.081  0.0146 -0.4490  0.7735
   94SAPE  H15Y 9368   3.937   5.734   4.982 -1.4656  2.8397 -3.4450
   94SAPE  C316 9369   4.015   5.908   4.882 -0.2125  0.7105  1.2460
   94SAPE  H16X 9370   4.101   5.977   4.893  0.9051 -0.6939  1.6094
   94SAPE  H16Y 9371   3.918   5.962   4.879 -0.3085  0.4942  0.5232
   94SAPE  C317 9372   4.032   5.838   4.740 -0.6902  0.3626  0.6210
   94SAPE  H17X 9373   3.939   5.789   4.705 -0.2544  0.6270 -0.9745
   94SAPE  H17Y 9374   4.098   5.750   4.757 -0.6521  0.1326 -0.5932
   94SAPE  C318 9375   4.099   5.940   4.639  0.5818  0.7743  0.4030
   94SAPE  H18X 9376   4.036   6.029   4.617  0.7020  0.3153 -2.0957
   94SAPE  H18Y 9377   4.125   5.891   4.543 -1.2612 -1.3386  0.8943
   94SAPE  H18Z 9378   4.199   5.964   4.682  0.9259  0.7054 -0.3406
   95SAPE     N 9379   0.318   6.557   6.555 -0.5221  0.0852  0.1476
   95SAPE   HN1 9380   0.261   6.501   6.621 -0.2720  0.9643  1.1463
   95SAPE   HN2 9381   0.416   6.523   6.542  0.0992  0.9009  2.2597
   95SAPE   HN3 9382   0.324   6.652   6.597  2.3074 -0.8125  2.0724
   95SAPE   C12 9383   0.241   6.549   6.426  0.2896 -0.0942 -0.4852
   95SAPE  H12A 9384   0.279   6.623   6.351 -0.1287 -1.9218 -2.6122
   95SAPE  H12B 9385   0.138   6.579   6.454  0.7542  0.5118  0.6534
   95SAPE   C11 9386   0.261   6.409   6.357  0.0320 -0.1637  0.3547
   95SAPE  H11A 9387   0.206   6.409   6.261  0.0222  0.7184  0.3442
   95SAPE  H11B 9388   0.213   6.333   6.422  0.9204 -0.0969  1.1111
   95SAPE     P 9389   0.471   6.428   6.217  0.0417  0.0312 -0.1859
   95SAPE   O13 9390   0.460   6.574   6.217  0.5832  0.6943  0.6856
   95SAPE   O14 9391   0.610   6.366   6.210  0.7254 -0.0649  0.0540
   95SAPE   O12 9392   0.398   6.369   6.342  0.5394  0.7478  0.1559
   95SAPE   O11 9393   0.393   6.369   6.097  0.1241  0.1292 -0.3483
   95SAPE    C1 9394   0.402   6.232   6.064 -0.8763 -0.0782  0.8331
   95SAPE    HA 9395   0.505   6.197   6.044 -1.1184 -0.9695  1.1016
   95SAPE    HB 9396   0.371   6.164   6.146 -2.3887  0.7192  0.9549
   95SAPE    C2 9397   0.321   6.206   5.924 -0.5204  0.6315 -0.3045
   95SAPE    HS 9398   0.213   6.220   5.948 -0.4840  0.0645  0.2235
   95SAPE   O21 9399   0.350   6.070   5.885  0.0926  0.0646  0.3234
   95SAPE   C21 9400   0.280   5.979   5.957 -0.7246  0.4922 -0.4679
   95SAPE   O22 9401   0.193   6.003   6.035  0.8884 -0.3496 -0.6586
   95SAPE   C22 9402   0.315   5.845   5.886  0.6124  0.5805 -0.6316
   95SAPE   H2R 9403   0.251   5.840   5.796  1.1489  0.3963 -1.0091
   95SAPE   H2S 9404   0.419   5.844   5.846  1.0252  2.5422  0.2827
   95SAPE    C3 9405   0.367   6.305   5.812  0.2532  0.1820  0.2300
   95SAPE    HX 9406   0.475   6.286   5.801  0.4462  1.3143  0.0075
   95SAPE    HY 9407   0.358   6.410   5.848 -0.2676 -0.3401  1.6838
   95SAPE   O31 9408   0.295   6.287   5.690  0.8334  0.1685  0.4724
   95SAPE   C31 9409   0.338   6.359   5.591 -0.0472  0.4651 -0.2289
   95SAPE   O32 9410   0.439   6.430   5.590  0.3332  0.4474  0.1312
   95SAPE   C32 9411   0.251   6.345   5.470 -0.7310 -0.1672 -0.4653
   95SAPE   H2X 9412   0.145   6.341   5.503 -0.9763  1.4999 -0.9582
   95SAPE   H2Y 9413   0.272   6.244   5.429 -0.0563  0.0817 -0.7551
   95SAPE   C23 9414   0.278   5.716   5.967 -0.3070  0.5507  0.3572
   95SAPE   H3R 9415   0.174   5.725   6.004 -0.5568 -0.9245  0.0979
   95SAPE   H3S 9416   0.344   5.698   6.055  0.5708 -0.2801 -0.4304
   95SAPE   C24 9417   0.286   5.589   5.869  0.5482 -0.5129  0.7665
   95SAPE   H4R 9418   0.223   5.596   5.778  0.8617 -1.3926  0.4752
   95SAPE   H4S 9419   0.244   5.500   5.922 -1.6241 -0.8329 -1.3000
   95SAPE   C25 9420   0.426   5.555   5.821 -0.1015 -0.6878  1.3148
   95SAPE   H5R 9421   0.496   5.526   5.900  1.0827  0.9665  0.9316
   95SAPE   C26 9422   0.468   5.560   5.693  0.3515  0.6492 -0.7156
   95SAPE   H6R 9423   0.576   5.545   5.680  0.1205 -1.7532 -0.2579
   95SAPE   C27 9424   0.375   5.588   5.572 -0.5375  0.2272 -0.5132
   95SAPE   H7R 9425   0.354   5.697   5.574  2.2425  0.8736  2.3375
   95SAPE   H7S 9426   0.281   5.536   5.596 -0.2738  0.0949  0.2709
   95SAPE   C28 9427   0.435   5.539   5.449 -0.5057 -0.3125  0.4250
   95SAPE   H8R 9428   0.517   5.599   5.407 -2.4137  2.7013  0.6958
   95SAPE   C29 9429   0.392   5.431   5.377 -0.1350  0.2875 -0.2277
   95SAPE   H9R 9430   0.438   5.413   5.279  1.9322 -0.3299  0.8012
   95SAPE  C210 9431   0.275   5.347   5.415  0.6544  0.2747 -0.5279
   95SAPE  H10R 9432   0.221   5.312   5.324 -1.5994 -0.2998  0.9454
   95SAPE  H10S 9433   0.196   5.406   5.465 -1.0626  0.4799 -3.2686
   95SAPE  C211 9434   0.301   5.230   5.511  0.4806  0.3539  0.5301
   95SAPE  H11R 9435   0.383   5.228   5.584 -1.5826 -0.5648  2.9662
   95SAPE  C212 9436   0.220   5.126   5.539  0.0575 -0.4355 -0.3626
   95SAPE  H12R 9437   0.270   5.056   5.607  1.1015  0.9663  0.3484
   95SAPE  C213 9438   0.088   5.085   5.475 -0.5631 -0.3661 -0.0869
   95SAPE  H13R 9439   0.059   5.150   5.390 -2.2114 -0.0107  0.6960
   95SAPE  H13S 9440   0.004   5.102   5.546 -0.8647 -1.0632 -0.2682
   95SAPE  C214 9441   0.088   4.949   5.422  0.0319  0.3472 -0.7780
   95SAPE  H14R 9442   0.025   4.876   5.476  0.9388 -0.6611 -1.0440
   95SAPE  C215 9443   0.151   4.903   5.307  0.5645 -0.5383  0.0821
   95SAPE  H15R 9444   0.127   4.802   5.270 -1.7669  0.7589 -2.2304
   95SAPE  C216 9445   0.225   4.990   5.206 -0.2144 -0.2046  0.5587
   95SAPE  H16R 9446   0.305   5.046   5.258  0.7199 -0.4069 -0.6065
   95SAPE  H16S 9447   0.157   5.069   5.167 -2.6481 -1.0353  2.8366
   95SAPE  C217 9448   0.284   4.923   5.089  0.3415  0.2161 -0.2507
   95SAPE  H17R 9449   0.208   4.872   5.026  2.0003 -0.7316 -1.5649
   95SAPE  H17S 9450   0.337   4.837   5.135 -0.5895 -0.0759  0.2811
   95SAPE  C218 9451   0.384   4.996   4.995  0.3639 -0.0686 -0.2408
   95SAPE  H18R 9452   0.406   4.939   4.902 -2.1357  1.0229 -1.5841
   95SAPE  H18S 9453   0.476   5.028   5.049 -0.4017  0.2646  0.9000
   95SAPE  C219 9454   0.324   5.129   4.954 -0.1689 -0.5111  0.6345
   95SAPE  H19R 9455   0.397   5.187   4.893 -1.5669  0.9443  0.2618
   95SAPE  H19S 9456   0.306   5.204   5.035 -2.5726  1.6349 -1.6818
   95SAPE  C220 9457   0.207   5.138   4.852  0.2021 -0.1518 -0.7402
   95SAPE  H20R 9458   0.116   5.089   4.893  1.3465 -0.3466  1.7213
   95SAPE  H20S 9459   0.228   5.092   4.753 -1.4975 -2.7885  0.0225
   95SAPE  H20T 9460   0.182   5.246   4.841 -2.4227 -0.6348 -0.2417
   95SAPE   C33 9461   0.252   6.467   5.374  0.8078 -0.6594  0.0529
   95SAPE   H3X 9462   0.297   6.549   5.434 -1.5322 -0.6546  1.9577
   95SAPE   H3Y 9463   0.147   6.485   5.344  0.3174  0.6639  2.2897
   95SAPE   C34 9464   0.335   6.437   5.245  0.2220  0.5242  0.2101
   95SAPE   H4X 9465   0.433   6.398   5.282 -0.6374 -2.0887 -0.0507
   95SAPE   H4Y 9466   0.341   6.537   5.197 -1.8049  0.8936  0.6634
   95SAPE   C35 9467   0.273   6.339   5.154 -0.3170 -0.1079  0.8109
   95SAPE   H5X 9468   0.182   6.380   5.104  0.6976  2.3008  0.7877
   95SAPE   H5Y 9469   0.244   6.254   5.219  0.2982 -1.7385 -0.9536
   95SAPE   C36 9470   0.359   6.294   5.040 -0.3654  0.0899  0.8082
   95SAPE   H6X 9471   0.444   6.229   5.070  2.8000  2.5571 -2.0933
   95SAPE   H6Y 9472   0.404   6.378   4.983  0.2189 -1.5304 -1.2363
   95SAPE   C37 9473   0.282   6.216   4.934  0.9651 -0.3366 -1.4035
   95SAPE   H7X 9474   0.178   6.251   4.918  0.4081 -1.5130 -0.4626
   95SAPE   H7Y 9475   0.274   6.115   4.979 -0.1388 -0.2705 -1.4190
   95SAPE   C38 9476   0.346   6.201   4.796  0.2445  0.6978 -0.0816
   95SAPE   H8X 9477   0.455   6.182   4.803  0.2708  1.1577  1.0407
   95SAPE   H8Y 9478   0.324   6.302   4.754 -2.4329  0.2667  0.1184
   95SAPE   C39 9479   0.275   6.089   4.717  0.6450  0.0353  0.0238
   95SAPE   H9X 9480   0.165   6.101   4.710  0.8552  2.1534 -0.5148
   95SAPE   H9Y 9481   0.293   5.996   4.775  0.6313 -1.1651 -1.8112
   95SAPE  C310 9482   0.340   6.068   4.583  0.3032 -1.1455  0.1671
   95SAPE  H10X 9483   0.445   6.033   4.586  0.8258  0.3716  1.9835
   95SAPE  H10Y 9484   0.335   6.162   4.525 -0.9610 -1.6761 -0.6475
   95SAPE  C311 9485   0.256   5.960   4.502 -0.9266  0.0441 -0.5298
   95SAPE  H11X 9486   0.204   5.902   4.581 -1.7229  1.9600  0.4013
   95SAPE  H11Y 9487   0.321   5.890   4.445  0.7158  0.3272  0.9064
   95SAPE  C312 9488   0.143   6.013   4.415 -0.2704  0.5673  0.0749
   95SAPE  H12X 9489   0.093   6.097   4.467  1.0735  0.6221  1.3479
   95SAPE  H12Y 9490   0.072   5.928   4.406  0.2446  0.1930 -0.5978
   95SAPE  C313 9491   0.194   6.066   4.275  0.2442 -0.1025 -0.4686
   95SAPE  H13X 9492   0.249   5.980   4.232 -0.0022 -0.6658  0.3239
   95SAPE  H13Y 9493   0.270   6.146   4.287  0.5213 -0.4925  0.4271
   95SAPE  C314 9494   0.082   6.141   4.195  0.0280  0.6494  0.1263
   95SAPE  H14X 9495   0.133   6.204   4.119  1.5264  0.1645  0.7082
   95SAPE  H14Y 9496   0.023   6.199   4.269 -0.2350  0.5790 -0.0275
   95SAPE  C315 9497  -0.015   6.043   4.131  0.1910 -0.2294  0.2518
   95SAPE  H15X 9498  -0.050   5.976   4.213  1.8058 -1.7293 -0.2109
   95SAPE  H15Y 9499   0.035   5.987   4.049 -0.7209  3.0087 -2.7463
   95SAPE  C316 9500  -0.134   6.116   4.071  0.5831 -0.0294 -0.3216
   95SAPE  H16X 9501  -0.099   6.167   3.978  0.8286 -1.5897 -1.1171
   95SAPE  H16Y 9502  -0.167   6.193   4.144 -1.1340 -2.7820  2.0154
   95SAPE  C317 9503  -0.259   6.038   4.028 -0.0955 -0.0599  0.1297
   95SAPE  H17X 9504  -0.295   5.980   4.116  1.2216 -0.1910  0.6008
   95SAPE  H17Y 9505  -0.242   5.969   3.943  0.2536  0.8644 -0.5704
   95SAPE  C318 9506  -0.372   6.145   4.008  0.2459  0.1333  0.2446
   95SAPE  H18X 9507  -0.361   6.213   3.920 -2.9220  3.0446  1.8344
   95SAPE  H18Y 9508  -0.393   6.212   4.095  1.5280  3.3608 -1.7228
   95SAPE  H18Z 9509  -0.467   6.089   3.997  0.3519  0.1192 -0.6611
   96SAPE     N 9510   3.784   0.308   6.515 -0.3481  0.2524  0.0758
   96SAPE   HN1 9511   3.773   0.402   6.471 -2.6683  0.1293  0.2565
   96SAPE   HN2 9512   3.835   0.311   6.605 -0.3632 -0.9502  0.1414
   96SAPE   HN3 9513   3.840   0.239   6.461  0.6919  0.6640  0.6123
   96SAPE   C12 9514   3.651   0.248   6.557  1.1560 -0.1519 -0.2098
   96SAPE  H12A 9515   3.681   0.154   6.609  2.5092  1.5502  2.2814
   96SAPE  H12B 9516   3.606   0.225   6.458  0.2889  1.5184 -0.2316
   96SAPE   C11 9517   3.569   0.342   6.637 -0.0184 -0.0048 -0.5606
   96SAPE  H11A 9518   3.609   0.350   6.740 -0.2921  0.9268 -0.5134
   96SAPE  H11B 9519   3.465   0.305   6.649 -0.3980  0.8057 -1.2318
   96SAPE     P 9520   3.471   0.586   6.614 -0.0740 -0.4469 -0.1312
   96SAPE   O13 9521   3.383   0.531   6.715  0.0380  0.1082 -0.2916
   96SAPE   O14 9522   3.548   0.711   6.650  0.7703  0.3170  0.0153
   96SAPE   O12 9523   3.571   0.473   6.580 -0.6446  0.2862  0.0480
   96SAPE   O11 9524   3.386   0.599   6.487 -0.1942  0.0810  0.2725
   96SAPE    C1 9525   3.376   0.494   6.384 -0.6828 -0.4176 -0.2387
   96SAPE    HA 9526   3.379   0.393   6.429 -2.3365  0.3849  1.8134
   96SAPE    HB 9527   3.273   0.499   6.342 -0.1148 -1.7641 -1.9545
   96SAPE    C2 9528   3.482   0.512   6.273  0.0291 -0.0238  0.1878
   96SAPE    HS 9529   3.582   0.505   6.323  1.2647  0.8822 -2.0188
   96SAPE   O21 9530   3.468   0.632   6.198  0.1286 -0.4626  0.1544
   96SAPE   C21 9531   3.566   0.721   6.217  0.4736  0.4782 -0.6488
   96SAPE   O22 9532   3.666   0.699   6.284 -0.3584 -0.0673  0.3621
   96SAPE   C22 9533   3.543   0.859   6.148  0.5754  0.3210 -0.5742
   96SAPE   H2R 9534   3.469   0.847   6.066  0.1887  0.7500 -0.2947
   96SAPE   H2S 9535   3.509   0.922   6.233 -2.0349  0.4699 -1.6342
   96SAPE    C3 9536   3.473   0.384   6.185  0.0623  0.3043  0.1465
   96SAPE    HX 9537   3.370   0.380   6.145  0.3295 -0.5256 -0.4870
   96SAPE    HY 9538   3.497   0.290   6.240  2.0540  1.0934  0.7194
   96SAPE   O31 9539   3.551   0.399   6.064  0.0435  0.2929  0.1726
   96SAPE   C31 9540   3.677   0.350   6.068 -0.3460  0.1220  0.8746
   96SAPE   O32 9541   3.728   0.306   6.167  0.2850 -0.1815 -0.1309
   96SAPE   C32 9542   3.749   0.364   5.928  0.1863 -0.3104  0.0068
   96SAPE   H2X 9543   3.858   0.353   5.948  0.2570 -0.7333 -0.5860
   96SAPE   H2Y 9544   3.734   0.473   5.911 -3.1432 -0.8087 -1.0159
   96SAPE   C23 9545   3.677   0.920   6.101 -0.4719 -0.1306  0.6893
   96SAPE   H3R 9546   3.752   0.949   6.177 -2.0992  1.8858  1.6215
   96SAPE   H3S 9547   3.655   1.016   6.049  1.6325 -1.0086 -2.0569
   96SAPE   C24 9548   3.742   0.830   5.989 -0.0370 -0.2444 -1.0467
   96SAPE   H4R 9549   3.656   0.827   5.919 -0.7467 -0.3811 -0.1917
   96SAPE   H4S 9550   3.766   0.728   6.026  0.6556  0.2006 -0.2491
   96SAPE   C25 9551   3.864   0.888   5.928  0.4891 -0.2947  0.0105
   96SAPE   H5R 9552   3.858   0.997   5.917  0.3623 -0.2901  0.1203
   96SAPE   C26 9553   3.973   0.815   5.890 -0.3602  0.0034  0.4384
   96SAPE   H6R 9554   4.059   0.874   5.857  0.7184 -0.8549  1.6167
   96SAPE   C27 9555   3.988   0.672   5.905  0.5797  0.9072 -0.1325
   96SAPE   H7R 9556   3.897   0.613   5.880 -0.4991  1.6113  1.8692
   96SAPE   H7S 9557   4.013   0.652   6.012  0.7185  0.5106 -0.2348
   96SAPE   C28 9558   4.107   0.620   5.823 -0.6066  0.4007  0.3347
   96SAPE   H8R 9559   4.207   0.620   5.871 -0.4983 -1.8322  0.2074
   96SAPE   C29 9560   4.110   0.573   5.698 -0.1949  0.0185  0.8619
   96SAPE   H9R 9561   4.209   0.540   5.665  0.0268 -0.4278  1.9238
   96SAPE  C210 9562   4.000   0.562   5.589  0.9825 -0.2988 -0.2677
   96SAPE  H10R 9563   3.897   0.536   5.623  1.1518  0.1816  0.6715
   96SAPE  H10S 9564   4.019   0.467   5.536 -2.2962 -0.7750 -0.7929
   96SAPE  C211 9565   4.000   0.677   5.492 -0.4185  0.8925 -0.2725
   96SAPE  H11R 9566   3.920   0.751   5.507 -1.5755 -0.2014 -0.8925
   96SAPE  C212 9567   4.084   0.696   5.388  0.2006  0.8244  0.3935
   96SAPE  H12R 9568   4.074   0.781   5.318  1.3677  0.7961  0.1749
   96SAPE  C213 9569   4.189   0.599   5.358 -0.2160  0.2798 -0.0566
   96SAPE  H13R 9570   4.166   0.526   5.277  2.2778 -0.6610 -0.0045
   96SAPE  H13S 9571   4.214   0.525   5.437 -0.7397  0.7379  0.5412
   96SAPE  C214 9572   4.330   0.655   5.331  0.3946  0.7543  0.3988
   96SAPE  H14R 9573   4.397   0.659   5.419 -1.7398 -0.2275  2.1916
   96SAPE  C215 9574   4.373   0.706   5.216 -0.1329 -0.4762 -0.0198
   96SAPE  H15R 9575   4.478   0.739   5.204  0.2237 -1.7745 -0.5718
   96SAPE  C216 9576   4.285   0.704   5.090 -0.7518 -0.1312 -0.3569
   96SAPE  H16R 9577   4.318   0.772   5.009  0.4971 -1.7928 -1.2907
   96SAPE  H16S 9578   4.175   0.716   5.099 -0.9326  1.6093 -3.5827
   96SAPE  C217 9579   4.301   0.574   5.016 -0.1117  0.4652  0.1589
   96SAPE  H17R 9580   4.219   0.565   4.941  1.0845 -0.6177 -1.0855
   96SAPE  H17S 9581   4.279   0.486   5.080 -0.4872 -0.9918 -1.8610
   96SAPE  C218 9582   4.438   0.552   4.940  0.2264  0.1358  0.7980
   96SAPE  H18R 9583   4.457   0.443   4.930  0.4939  0.3309 -1.1254
   96SAPE  H18S 9584   4.525   0.590   4.998  1.7736  0.4698 -1.6079
   96SAPE  C219 9585   4.444   0.639   4.808  0.0068  0.3148  0.1144
   96SAPE  H19R 9586   4.462   0.743   4.842  0.1868  0.7403 -1.2247
   96SAPE  H19S 9587   4.347   0.630   4.755  0.1322 -0.4709  0.0003
   96SAPE  C220 9588   4.559   0.592   4.716 -0.4971 -0.0925  0.4628
   96SAPE  H20R 9589   4.595   0.674   4.650 -0.3280 -2.0137 -1.9907
   96SAPE  H20S 9590   4.535   0.500   4.659  1.5459 -0.6082  0.3455
   96SAPE  H20T 9591   4.652   0.579   4.775  0.4321  0.9836 -0.7086
   96SAPE   C33 9592   3.678   0.274   5.824  0.2325  0.0635  0.6323
   96SAPE   H3X 9593   3.568   0.292   5.817  0.2083 -0.0877  0.6200
   96SAPE   H3Y 9594   3.671   0.171   5.864 -0.6979 -0.0347  0.2363
   96SAPE   C34 9595   3.749   0.278   5.692 -0.3176  0.1013 -0.3611
   96SAPE   H4X 9596   3.853   0.244   5.712 -0.7457 -1.2493 -0.3400
   96SAPE   H4Y 9597   3.762   0.380   5.648 -1.3835  0.0148 -0.9120
   96SAPE   C35 9598   3.693   0.178   5.588 -0.6892  0.1513  0.4504
   96SAPE   H5X 9599   3.582   0.189   5.586 -0.6714  0.7929  1.7687
   96SAPE   H5Y 9600   3.706   0.077   5.633  0.7837  0.2324  0.2406
   96SAPE   C36 9601   3.749   0.170   5.448 -0.4322 -0.5697 -0.0096
   96SAPE   H6X 9602   3.685   0.094   5.398 -3.5096 -1.4541  4.6187
   96SAPE   H6Y 9603   3.857   0.143   5.444  0.4292  2.4546  0.2621
   96SAPE   C37 9604   3.733   0.310   5.375 -0.3205 -0.2867  0.2226
   96SAPE   H7X 9605   3.810   0.380   5.413  0.3763  0.0948 -1.7502
   96SAPE   H7Y 9606   3.632   0.352   5.391  0.1615 -0.4580  5.4362
   96SAPE   C38 9607   3.771   0.293   5.228 -0.2209  0.3938  0.5117
   96SAPE   H8X 9608   3.685   0.237   5.185 -0.1844  0.3209  0.5335
   96SAPE   H8Y 9609   3.870   0.245   5.213  0.7624  2.2503  0.7871
   96SAPE   C39 9610   3.791   0.437   5.169 -0.3372  0.4895 -0.0376
   96SAPE   H9X 9611   3.881   0.480   5.218 -1.0172  1.0962  0.6986
   96SAPE   H9Y 9612   3.723   0.510   5.217 -0.1269  0.7749 -0.1707
   96SAPE  C310 9613   3.791   0.426   5.018 -0.5726 -0.2363  0.5057
   96SAPE  H10X 9614   3.695   0.381   4.986 -1.2231 -1.3154  3.5762
   96SAPE  H10Y 9615   3.880   0.365   4.989  0.2454  0.4568  1.4715
   96SAPE  C311 9616   3.802   0.554   4.938 -0.8352  0.0238 -0.0862
   96SAPE  H11X 9617   3.903   0.594   4.963 -1.1342  1.3995 -0.9545
   96SAPE  H11Y 9618   3.724   0.620   4.983 -2.1752 -1.8868  0.5099
   96SAPE  C312 9619   3.797   0.529   4.787  0.4700 -0.2316  0.4413
   96SAPE  H12X 9620   3.702   0.489   4.746  1.2738  0.3912 -2.1821
   96SAPE  H12Y 9621   3.867   0.448   4.758 -0.4806 -0.9375  0.0456
   96SAPE  C313 9622   3.840   0.656   4.705 -0.0205 -0.0948  0.9358
   96SAPE  H13X 9623   3.808   0.746   4.761 -1.7332 -0.5277  0.7279
   96SAPE  H13Y 9624   3.786   0.656   4.607 -0.3636 -0.3048  1.1231
   96SAPE  C314 9625   3.988   0.660   4.670 -0.3750  0.8273 -0.0432
   96SAPE  H14X 9626   4.006   0.561   4.624 -1.2557  1.4814 -1.9466
   96SAPE  H14Y 9627   4.050   0.654   4.762 -0.9899 -1.4773  0.2777
   96SAPE  C315 9628   4.028   0.775   4.586 -0.0402 -0.4549 -0.3596
   96SAPE  H15X 9629   3.993   0.865   4.641  0.5015  0.4074 -1.3838
   96SAPE  H15Y 9630   3.969   0.774   4.491  0.8023 -1.6719 -0.8895
   96SAPE  C316 9631   4.172   0.776   4.544  1.1927  0.0850  0.0302
   96SAPE  H16X 9632   4.210   0.673   4.529  1.2937 -0.1960  1.9117
   96SAPE  H16Y 9633   4.237   0.813   4.627  2.4720 -1.6444 -0.1401
   96SAPE  C317 9634   4.208   0.866   4.421  0.1694  0.2970  0.1052
   96SAPE  H17X 9635   4.164   0.967   4.434  1.2458  0.8424 -0.3074
   96SAPE  H17Y 9636   4.155   0.824   4.332  1.7896  0.9089 -1.2127
   96SAPE  C318 9637   4.354   0.874   4.385  0.7645  1.1277 -0.5014
   96SAPE  H18X 9638   4.389   0.770   4.368 -0.3562  0.6345  0.0952
   96SAPE  H18Y 9639   4.403   0.916   4.474  0.3880 -0.9110  0.7280
   96SAPE  H18Z 9640   4.377   0.936   4.296  0.3094  4.0205  1.2707
   97SAPE     N 9641   2.086   0.714   6.548  0.2754 -0.5867 -0.0592
   97SAPE   HN1 9642   2.168   0.775   6.526  0.3511 -1.6903 -3.3322
   97SAPE   HN2 9643   2.115   0.633   6.605 -0.4741 -0.2483  0.8296
   97SAPE   HN3 9644   2.066   0.673   6.454  0.1880 -3.5728  1.1761
   97SAPE   C12 9645   1.969   0.781   6.614  0.0839  0.1168  0.6082
   97SAPE  H12A 9646   1.985   0.891   6.611  0.0767  0.1268  0.9066
   97SAPE  H12B 9647   1.962   0.738   6.716  0.0089 -1.3800 -0.0045
   97SAPE   C11 9648   1.840   0.752   6.539  0.0504 -0.6530  1.1550
   97SAPE  H11A 9649   1.855   0.804   6.442 -0.7423 -4.0688 -0.9806
   97SAPE  H11B 9650   1.747   0.798   6.577 -0.6190 -2.0970  1.3033
   97SAPE     P 9651   1.698   0.526   6.527 -0.3596 -0.2970 -0.3234
   97SAPE   O13 9652   1.743   0.390   6.569  0.3808 -0.2651  0.2205
   97SAPE   O14 9653   1.611   0.607   6.622 -0.8735 -0.5401  0.2620
   97SAPE   O12 9654   1.827   0.610   6.509 -0.0355  0.5641  0.2597
   97SAPE   O11 9655   1.640   0.542   6.384  0.2762  0.2076 -0.1242
   97SAPE    C1 9656   1.711   0.514   6.260 -0.0488 -0.7407  0.3853
   97SAPE    HA 9657   1.821   0.532   6.254 -0.0095 -1.4426 -3.9463
   97SAPE    HB 9658   1.693   0.408   6.232 -2.3758 -0.0982 -0.7781
   97SAPE    C2 9659   1.647   0.584   6.138  0.5141 -0.1628 -0.0073
   97SAPE    HS 9660   1.709   0.537   6.058 -0.5545 -3.3179  0.8699
   97SAPE   O21 9661   1.653   0.725   6.138  0.4214 -0.2396 -0.3289
   97SAPE   C21 9662   1.771   0.786   6.135 -0.0461  0.2252 -0.1717
   97SAPE   O22 9663   1.878   0.733   6.152  0.1902  0.5340 -0.0626
   97SAPE   C22 9664   1.755   0.933   6.101  0.1373 -0.3259 -0.2084
   97SAPE   H2R 9665   1.648   0.963   6.103 -0.5279 -2.5185 -0.1444
   97SAPE   H2S 9666   1.810   0.997   6.174 -0.4859  1.5654 -1.3417
   97SAPE    C3 9667   1.497   0.542   6.132 -0.0083  0.0242  0.8085
   97SAPE    HX 9668   1.434   0.609   6.195 -0.1784  0.9388 -0.2914
   97SAPE    HY 9669   1.484   0.448   6.188  2.2085  0.3449  1.9449
   97SAPE   O31 9670   1.444   0.534   5.997 -0.0588 -0.1660  0.0709
   97SAPE   C31 9671   1.473   0.427   5.921  0.9813 -0.1610 -0.3395
   97SAPE   O32 9672   1.538   0.329   5.957 -0.3092 -0.0501 -0.4618
   97SAPE   C32 9673   1.434   0.459   5.778 -0.2532  0.6538 -0.4686
   97SAPE   H2X 9674   1.445   0.566   5.751 -2.2974  1.2421  0.7617
   97SAPE   H2Y 9675   1.323   0.451   5.786 -0.2323  1.9083  1.9454
   97SAPE   C23 9676   1.814   0.963   5.966 -0.8355  0.1949 -0.0124
   97SAPE   H3R 9677   1.885   0.886   5.929 -0.6048  0.1051  0.5998
   97SAPE   H3S 9678   1.876   1.056   5.965 -2.6106  1.4365 -1.1032
   97SAPE   C24 9679   1.710   0.965   5.856 -0.3074  0.3897  0.0448
   97SAPE   H4R 9680   1.748   1.020   5.767 -0.5795 -0.1672 -0.4241
   97SAPE   H4S 9681   1.626   1.025   5.898  0.4127 -0.7802  3.4637
   97SAPE   C25 9682   1.656   0.832   5.806 -0.0075  0.5162  0.2532
   97SAPE   H5R 9683   1.580   0.788   5.872 -2.1034  3.1180 -0.2470
   97SAPE   C26 9684   1.674   0.757   5.695 -0.4955 -0.3652 -0.0178
   97SAPE   H6R 9685   1.622   0.663   5.674 -1.1410  0.3300 -1.7021
   97SAPE   C27 9686   1.774   0.794   5.587  0.1125 -0.5108  0.0653
   97SAPE   H7R 9687   1.826   0.701   5.555  2.2262  1.2378 -1.9882
   97SAPE   H7S 9688   1.853   0.870   5.604  0.2434 -0.4043 -0.9845
   97SAPE   C28 9689   1.692   0.855   5.471  0.4433  0.5971  0.0784
   97SAPE   H8R 9690   1.641   0.950   5.492 -0.2336  0.5333 -1.1728
   97SAPE   C29 9691   1.691   0.811   5.344 -0.7529  0.1892 -0.4076
   97SAPE   H9R 9692   1.615   0.865   5.285 -1.8910  3.0318  3.2478
   97SAPE  C210 9693   1.748   0.689   5.287 -0.0727  0.4839  0.4881
   97SAPE  H10R 9694   1.667   0.618   5.260 -0.1869  0.2540  1.3881
   97SAPE  H10S 9695   1.802   0.623   5.358 -0.1004  0.3577  0.3917
   97SAPE  C211 9696   1.847   0.717   5.172 -0.1670 -0.1910  0.6770
   97SAPE  H11R 9697   1.950   0.731   5.208  0.4508 -2.2458 -0.1768
   97SAPE  C212 9698   1.816   0.733   5.042 -0.1852  0.5561  0.0985
   97SAPE  H12R 9699   1.896   0.764   4.973  1.1884  1.1143  1.8884
   97SAPE  C213 9700   1.673   0.734   4.980 -0.5048 -0.7346  0.0226
   97SAPE  H13R 9701   1.599   0.682   5.045  0.7048 -0.6442  1.5313
   97SAPE  H13S 9702   1.669   0.680   4.883 -2.0248  1.1586 -1.0181
   97SAPE  C214 9703   1.626   0.873   4.956 -0.1239 -0.0009 -0.4952
   97SAPE  H14R 9704   1.585   0.930   5.041 -1.3150 -2.8362  0.9760
   97SAPE  C215 9705   1.619   0.930   4.833  0.6250  0.0168  0.0488
   97SAPE  H15R 9706   1.598   1.038   4.839 -0.0044 -0.0096 -1.2359
   97SAPE  C216 9707   1.663   0.883   4.696  0.6088  0.3476  0.6737
   97SAPE  H16R 9708   1.761   0.832   4.698  0.4319 -0.0459 -0.2987
   97SAPE  H16S 9709   1.681   0.974   4.635 -2.3219 -0.0845 -1.0251
   97SAPE  C217 9710   1.561   0.788   4.627 -0.1149  0.4038  0.3608
   97SAPE  H17R 9711   1.459   0.832   4.633 -0.1713  0.1524  1.5573
   97SAPE  H17S 9712   1.568   0.702   4.697  2.0789  0.9181  0.8354
   97SAPE  C218 9713   1.607   0.738   4.490 -0.1369  0.7306 -0.1374
   97SAPE  H18R 9714   1.541   0.660   4.445 -0.4848  2.6029 -3.1052
   97SAPE  H18S 9715   1.704   0.684   4.501  0.3907  1.1482 -2.2231
   97SAPE  C219 9716   1.633   0.851   4.385  0.5069  0.0892 -0.1803
   97SAPE  H19R 9717   1.685   0.939   4.427  0.2605 -0.2707  0.9105
   97SAPE  H19S 9718   1.533   0.893   4.358  1.4068  0.6392 -3.0110
   97SAPE  C220 9719   1.684   0.786   4.259  0.1069 -0.3212  0.3160
   97SAPE  H20R 9720   1.603   0.747   4.194  0.3691  1.8014 -1.4140
   97SAPE  H20S 9721   1.764   0.710   4.275 -1.0646 -1.2840  1.9039
   97SAPE  H20T 9722   1.730   0.866   4.196 -1.9137 -1.5972 -3.0265
   97SAPE   C33 9723   1.500   0.378   5.675 -0.2699  0.0158  0.1590
   97SAPE   H3X 9724   1.498   0.269   5.695 -0.5063  0.2804  1.6382
   97SAPE   H3Y 9725   1.606   0.409   5.692 -0.1751 -0.8566  1.1941
   97SAPE   C34 9726   1.450   0.416   5.531  0.0895 -0.0828  0.4466
   97SAPE   H4X 9727   1.494   0.516   5.510  0.2103 -0.3168 -0.4549
   97SAPE   H4Y 9728   1.341   0.429   5.515  0.2974  0.3986 -0.6947
   97SAPE   C35 9729   1.499   0.308   5.423  0.3538 -0.3973 -0.2574
   97SAPE   H5X 9730   1.457   0.209   5.449  0.7866 -1.0610 -1.9916
   97SAPE   H5Y 9731   1.609   0.293   5.424  0.4881 -0.2898 -3.5147
   97SAPE   C36 9732   1.458   0.349   5.288 -0.1023  0.3740 -0.0752
   97SAPE   H6X 9733   1.522   0.437   5.264  0.6665 -0.0696  0.3088
   97SAPE   H6Y 9734   1.353   0.381   5.270 -0.0809  0.5828  0.1599
   97SAPE   C37 9735   1.481   0.252   5.177  0.0866  0.9715  0.5975
   97SAPE   H7X 9736   1.414   0.166   5.194  0.2765  0.7277  0.1282
   97SAPE   H7Y 9737   1.587   0.218   5.174  0.3877  1.9248 -0.2348
   97SAPE   C38 9738   1.448   0.310   5.041 -0.1793 -0.4910 -0.2636
   97SAPE   H8X 9739   1.485   0.415   5.033  0.1167 -0.4434  1.4903
   97SAPE   H8Y 9740   1.337   0.316   5.041 -0.5907 -4.8702  0.5745
   97SAPE   C39 9741   1.480   0.226   4.922  0.4963 -0.2710 -0.5701
   97SAPE   H9X 9742   1.442   0.123   4.941 -0.0835  0.3454  2.0831
   97SAPE   H9Y 9743   1.591   0.227   4.918  0.5791 -0.0141  1.1412
   97SAPE  C310 9744   1.414   0.273   4.787  0.0442 -0.2082  0.5415
   97SAPE  H10X 9745   1.485   0.248   4.705 -0.3363 -1.5194  0.5915
   97SAPE  H10Y 9746   1.408   0.384   4.783 -0.3322 -0.2446 -0.1747
   97SAPE  C311 9747   1.279   0.205   4.765 -0.2373  0.5347 -0.4608
   97SAPE  H11X 9748   1.201   0.228   4.840  0.3990 -0.0424  0.3885
   97SAPE  H11Y 9749   1.302   0.096   4.766 -0.6280  0.3977  2.3470
   97SAPE  C312 9750   1.225   0.230   4.623 -0.0231 -0.0211 -0.0028
   97SAPE  H12X 9751   1.302   0.197   4.550 -2.1333 -1.3919 -1.7413
   97SAPE  H12Y 9752   1.223   0.337   4.597  2.6402  0.3611  1.0180
   97SAPE  C313 9753   1.093   0.145   4.599 -0.0056  0.7266 -0.0125
   97SAPE  H13X 9754   1.007   0.190   4.654 -1.2561 -0.1363 -1.1860
   97SAPE  H13Y 9755   1.114   0.044   4.641 -0.2049  1.2936  1.5412
   97SAPE  C314 9756   1.066   0.140   4.455  0.6954  0.2905  0.8134
   97SAPE  H14X 9757   1.151   0.093   4.401  1.4938  0.7979  1.5933
   97SAPE  H14Y 9758   1.054   0.245   4.421 -2.3926 -0.2660 -0.1384
   97SAPE  C315 9759   0.935   0.064   4.423  0.1215 -0.2816 -0.9461
   97SAPE  H15X 9760   0.857   0.107   4.490 -0.6941 -0.9303 -1.4615
   97SAPE  H15Y 9761   0.940  -0.046   4.440 -2.8166 -0.1262  1.9260
   97SAPE  C316 9762   0.881   0.089   4.282 -0.2879 -0.3893 -0.2540
   97SAPE  H16X 9763   0.875   0.198   4.266 -0.4728 -0.3636 -0.0127
   97SAPE  H16Y 9764   0.781   0.041   4.293  1.0714 -3.5488 -0.4219
   97SAPE  C317 9765   0.947   0.014   4.169  1.2514 -0.2713 -0.4899
   97SAPE  H17X 9766   0.870   0.015   4.090 -0.5244  0.0042  1.1679
   97SAPE  H17Y 9767   0.952  -0.093   4.200 -0.7557 -0.1038  0.5443
   97SAPE  C318 9768   1.079   0.079   4.120  0.1309 -0.0682 -0.0586
   97SAPE  H18X 9769   1.103   0.024   4.026  1.2623  0.3398 -0.0233
   97SAPE  H18Y 9770   1.166   0.071   4.188 -1.8886  0.0248  2.6993
   97SAPE  H18Z 9771   1.055   0.186   4.104 -2.1478 -0.0880  2.4658
   98SAPE     N 9772   2.640   2.404   6.556  0.1927 -0.0192  0.6133
   98SAPE   HN1 9773   2.593   2.362   6.473  2.1806 -0.2459 -0.4675
   98SAPE   HN2 9774   2.662   2.331   6.626 -2.0238  0.2838  1.7272
   98SAPE   HN3 9775   2.566   2.467   6.592  0.8976  0.6294  0.9548
   98SAPE   C12 9776   2.776   2.472   6.524  0.3079  0.5968 -0.4290
   98SAPE  H12A 9777   2.774   2.567   6.581  1.5980  1.2019 -1.3521
   98SAPE  H12B 9778   2.782   2.492   6.415  2.5270 -0.0536 -0.4788
   98SAPE   C11 9779   2.899   2.388   6.557 -0.2706 -0.3842 -0.4557
   98SAPE  H11A 9780   2.910   2.366   6.666 -0.9483  2.5405  0.2996
   98SAPE  H11B 9781   2.982   2.456   6.528 -2.2559  2.2825 -0.2972
   98SAPE     P 9782   3.005   2.197   6.408  0.0879  0.0436 -0.0116
   98SAPE   O13 9783   3.134   2.271   6.415  1.0976 -0.5013 -0.1257
   98SAPE   O14 9784   3.009   2.059   6.453  0.1138 -0.1739 -0.2266
   98SAPE   O12 9785   2.891   2.266   6.485  0.3833 -0.0867 -0.6983
   98SAPE   O11 9786   2.964   2.199   6.261  0.1691  0.0306 -0.4594
   98SAPE    C1 9787   2.831   2.159   6.232 -0.0323  0.5310 -0.2317
   98SAPE    HA 9788   2.777   2.096   6.306  2.6816 -0.0284  1.4307
   98SAPE    HB 9789   2.758   2.241   6.217 -1.4351 -1.2290 -4.6437
   98SAPE    C2 9790   2.827   2.092   6.096 -0.2397  0.0587  0.2931
   98SAPE    HS 9791   2.727   2.118   6.055 -0.1453 -0.6062 -0.3798
   98SAPE   O21 9792   2.837   1.946   6.113  0.1009  0.3108  0.0344
   98SAPE   C21 9793   2.756   1.883   6.034 -0.4727  0.3332  0.3598
   98SAPE   O22 9794   2.674   1.929   5.953  0.5077 -0.1452 -0.5838
   98SAPE   C22 9795   2.763   1.734   6.067 -0.3346 -0.4705  0.7340
   98SAPE   H2R 9796   2.829   1.730   6.156  1.4889  1.5151 -0.4604
   98SAPE   H2S 9797   2.659   1.696   6.078 -1.9644  3.2843 -0.1535
   98SAPE    C3 9798   2.940   2.141   5.998 -0.7182 -0.1403  0.1719
   98SAPE    HX 9799   3.038   2.112   6.039 -0.3791 -0.0647 -0.5673
   98SAPE    HY 9800   2.927   2.252   5.991  1.6063  0.0774 -2.4391
   98SAPE   O31 9801   2.923   2.097   5.857  0.0266 -0.0181 -0.4786
   98SAPE   C31 9802   2.988   1.990   5.819  0.1639  0.0531  0.3845
   98SAPE   O32 9803   3.068   1.925   5.879 -0.4993  0.3457 -0.0977
   98SAPE   C32 9804   2.938   1.959   5.675  0.4826 -0.4726 -0.2764
   98SAPE   H2X 9805   2.979   2.029   5.600  0.1781 -1.2011 -1.1442
   98SAPE   H2Y 9806   2.828   1.970   5.687  0.2096 -0.7926 -2.1467
   98SAPE   C23 9807   2.842   1.663   5.957  0.0298 -0.1578  0.5035
   98SAPE   H3R 9808   2.948   1.697   5.961 -0.4376  1.2464  2.0170
   98SAPE   H3S 9809   2.798   1.687   5.858 -2.0239  1.4739  1.7320
   98SAPE   C24 9810   2.833   1.507   5.973  0.2654  0.8680 -0.7992
   98SAPE   H4R 9811   2.864   1.469   6.073 -1.7841 -2.3538 -1.2561
   98SAPE   H4S 9812   2.904   1.459   5.902  1.7964  0.7070  0.7416
   98SAPE   C25 9813   2.691   1.457   5.955 -0.3889  0.7057  0.3963
   98SAPE   H5R 9814   2.605   1.511   5.999  0.3796  2.2594  0.0606
   98SAPE   C26 9815   2.662   1.347   5.882 -0.5755 -0.2939  0.6451
   98SAPE   H6R 9816   2.556   1.318   5.876  0.1601 -2.9705 -0.4262
   98SAPE   C27 9817   2.763   1.252   5.820  0.5634  0.0533 -0.4078
   98SAPE   H7R 9818   2.842   1.224   5.893 -0.4990 -2.3035 -0.0809
   98SAPE   H7S 9819   2.806   1.309   5.734 -0.0114  0.3972 -0.4706
   98SAPE   C28 9820   2.700   1.119   5.785  0.5916  0.3126 -0.7347
   98SAPE   H8R 9821   2.673   1.059   5.872 -1.1473  1.7036 -0.2510
   98SAPE   C29 9822   2.668   1.065   5.667 -0.5258 -0.1085  0.1173
   98SAPE   H9R 9823   2.636   0.961   5.658 -0.7715 -0.0795  0.6107
   98SAPE  C210 9824   2.686   1.138   5.536  0.5603 -0.1600 -0.3623
   98SAPE  H10R 9825   2.790   1.138   5.496  0.5455 -1.4952 -0.4407
   98SAPE  H10S 9826   2.673   1.246   5.555 -0.6007 -0.4796  0.7982
   98SAPE  C211 9827   2.577   1.097   5.436 -0.0622  0.5993  0.3036
   98SAPE  H11R 9828   2.476   1.117   5.473 -0.7562 -0.4853 -0.9473
   98SAPE  C212 9829   2.584   1.069   5.305  0.7580  0.4266  0.4845
   98SAPE  H12R 9830   2.492   1.056   5.247  0.7630  0.5984  0.4359
   98SAPE  C213 9831   2.715   1.036   5.236  0.1970  0.4330 -0.6102
   98SAPE  H13R 9832   2.799   1.067   5.301 -0.3585  2.2608 -0.6853
   98SAPE  H13S 9833   2.718   1.115   5.158  1.4806  0.9281 -0.0842
   98SAPE  C214 9834   2.724   0.892   5.188  0.1836 -0.1081 -0.0402
   98SAPE  H14R 9835   2.778   0.828   5.260 -1.5696 -2.6382 -0.8557
   98SAPE  C215 9836   2.665   0.844   5.072 -0.0301  1.0190 -0.9931
   98SAPE  H15R 9837   2.664   0.736   5.050 -0.1448  1.2012 -1.8992
   98SAPE  C216 9838   2.603   0.923   4.962  0.5869 -0.3474  0.1172
   98SAPE  H16R 9839   2.624   1.030   4.980 -0.5696 -0.1611  0.4712
   98SAPE  H16S 9840   2.494   0.902   4.955  0.9740 -2.8168  0.4353
   98SAPE  C217 9841   2.672   0.899   4.828 -0.6475 -0.3857 -0.3548
   98SAPE  H17R 9842   2.612   0.949   4.749 -0.6849  2.4652  1.3357
   98SAPE  H17S 9843   2.672   0.790   4.808  2.0728 -1.1617  2.8867
   98SAPE  C218 9844   2.813   0.973   4.814 -0.9159  0.5137 -0.1680
   98SAPE  H18R 9845   2.897   0.923   4.761 -0.9101  0.1298  0.1969
   98SAPE  H18S 9846   2.846   0.979   4.920  0.3149  0.5794 -0.5361
   98SAPE  C219 9847   2.796   1.121   4.771 -0.8870 -0.6114 -0.2773
   98SAPE  H19R 9848   2.733   1.171   4.848  0.6074 -1.0823  1.3288
   98SAPE  H19S 9849   2.757   1.123   4.667 -1.4784 -2.4686 -0.1226
   98SAPE  C220 9850   2.941   1.178   4.770 -0.3252  0.0415  0.5354
   98SAPE  H20R 9851   2.980   1.128   4.678 -0.9532 -1.5717  1.1070
   98SAPE  H20S 9852   2.994   1.150   4.863 -0.6576 -2.6881 -0.0168
   98SAPE  H20T 9853   2.932   1.288   4.758 -1.0492  0.0515  1.1365
   98SAPE   C33 9854   2.962   1.809   5.630 -0.4616  0.1368  1.0434
   98SAPE   H3X 9855   2.867   1.751   5.640  0.1146 -1.0451  0.0195
   98SAPE   H3Y 9856   3.036   1.761   5.697  0.1404  1.7410  1.5723
   98SAPE   C34 9857   2.999   1.791   5.476  0.0885  0.8301  0.0373
   98SAPE   H4X 9858   3.104   1.760   5.461  0.6667  3.0704 -1.0433
   98SAPE   H4Y 9859   2.996   1.889   5.424  1.2879  0.0671 -1.5478
   98SAPE   C35 9860   2.900   1.690   5.407 -0.6617 -0.1328 -0.2510
   98SAPE   H5X 9861   2.811   1.755   5.391  0.9212  2.3956  0.6075
   98SAPE   H5Y 9862   2.872   1.603   5.471 -1.4541  1.0056  1.0121
   98SAPE   C36 9863   2.956   1.654   5.268 -0.3273  0.7070  0.0782
   98SAPE   H6X 9864   3.058   1.616   5.291  1.2686  3.2327 -2.2722
   98SAPE   H6Y 9865   2.966   1.742   5.201 -1.9430  0.1206 -1.0118
   98SAPE   C37 9866   2.879   1.544   5.198 -0.3259 -0.2792  0.1564
   98SAPE   H7X 9867   2.774   1.580   5.210  0.3186  1.0239  2.3950
   98SAPE   H7Y 9868   2.878   1.457   5.266  1.2432  0.3690  1.0607
   98SAPE   C38 9869   2.919   1.515   5.055 -0.0933  0.4013 -0.0198
   98SAPE   H8X 9870   2.832   1.454   5.021 -0.1392  0.2971  0.2788
   98SAPE   H8Y 9871   3.005   1.444   5.048  0.5932  1.2772 -0.7686
   98SAPE   C39 9872   2.937   1.633   4.968  0.1948  0.1255  0.3177
   98SAPE   H9X 9873   3.028   1.679   5.013 -1.7405  1.0453  3.6173
   98SAPE   H9Y 9874   2.852   1.703   4.984  0.4677  0.7000 -0.6637
   98SAPE  C310 9875   2.947   1.594   4.820  0.0380  0.2062  0.4505
   98SAPE  H10X 9876   2.876   1.510   4.802  0.4885 -0.2963  0.9690
   98SAPE  H10Y 9877   3.044   1.553   4.784 -0.1889 -0.7923  0.9187
   98SAPE  C311 9878   2.917   1.711   4.725 -0.0808  0.3012  0.5397
   98SAPE  H11X 9879   2.822   1.765   4.744 -0.8384 -0.6910 -0.2913
   98SAPE  H11Y 9880   2.923   1.680   4.618 -1.9585 -0.5955  0.6582
   98SAPE  C312 9881   3.024   1.830   4.730  0.7570 -0.0324 -0.4703
   98SAPE  H12X 9882   3.118   1.772   4.717  1.1292  0.5100 -0.2333
   98SAPE  H12Y 9883   3.023   1.886   4.826 -1.6260 -0.0305 -0.4328
   98SAPE  C313 9884   3.018   1.928   4.614  0.7318 -0.3337 -0.4770
   98SAPE  H13X 9885   2.918   1.976   4.603 -0.1116 -1.3375  2.0348
   98SAPE  H13Y 9886   3.031   1.871   4.520 -1.3371  0.6365 -1.4220
   98SAPE  C314 9887   3.127   2.041   4.631  0.0659 -0.4299 -0.0355
   98SAPE  H14X 9888   3.218   1.982   4.659  1.1192  0.7451 -0.8684
   98SAPE  H14Y 9889   3.100   2.119   4.705  2.2601  0.8841 -0.5370
   98SAPE  C315 9890   3.161   2.116   4.488  0.3212  0.5131  0.2373
   98SAPE  H15X 9891   3.198   2.037   4.419  0.1302  0.3176  0.3570
   98SAPE  H15Y 9892   3.241   2.189   4.511 -0.1739  0.4383  2.4740
   98SAPE  C316 9893   3.042   2.170   4.422  0.5020 -0.1937  0.2076
   98SAPE  H16X 9894   2.967   2.212   4.491  0.2259 -1.2654  0.5816
   98SAPE  H16Y 9895   2.979   2.091   4.375  1.1065 -0.0544 -0.8900
   98SAPE  C317 9896   3.081   2.276   4.318 -0.1651  0.1924 -0.0158
   98SAPE  H17X 9897   3.161   2.235   4.251  0.7022  1.6629  0.0688
   98SAPE  H17Y 9898   3.133   2.360   4.369 -2.5946  0.8226  1.6025
   98SAPE  C318 9899   2.960   2.336   4.259  0.8504  0.2348  0.0865
   98SAPE  H18X 9900   2.988   2.393   4.168 -1.9372  2.5235  0.5216
   98SAPE  H18Y 9901   2.910   2.401   4.334 -0.0515 -0.0546 -0.2502
   98SAPE  H18Z 9902   2.884   2.264   4.223  1.2886 -0.1730 -0.0386
   99SAPE     N 9903   4.948   0.793   6.644  0.0266  0.6915 -0.3296
   99SAPE   HN1 9904   4.923   0.698   6.677  2.8019  0.7994  2.5386
   99SAPE   HN2 9905   5.052   0.796   6.647  0.1077 -1.0938 -0.4352
   99SAPE   HN3 9906   4.899   0.858   6.708 -2.4339 -1.2294 -0.1294
   99SAPE   C12 9907   4.917   0.825   6.500 -0.3802  0.1982 -0.2255
   99SAPE  H12A 9908   4.817   0.790   6.466 -0.0239 -0.0863 -1.0003
   99SAPE  H12B 9909   4.990   0.767   6.441  1.4688  1.3409  0.8524
   99SAPE   C11 9910   4.932   0.978   6.477  0.6102  0.2162  0.4242
   99SAPE  H11A 9911   4.919   1.001   6.369  1.5294  3.5941  0.9131
   99SAPE  H11B 9912   5.033   1.009   6.514  1.4424  0.7897 -2.1339
   99SAPE     P 9913   4.811   1.200   6.550 -0.3034 -0.3237  0.1206
   99SAPE   O13 9914   4.721   1.232   6.663  0.4071 -0.1706 -0.1574
   99SAPE   O14 9915   4.946   1.274   6.544  0.0507  0.5092 -0.2131
   99SAPE   O12 9916   4.828   1.040   6.542  0.0636 -0.7697 -0.2486
   99SAPE   O11 9917   4.736   1.238   6.421 -0.0140 -0.1745 -0.3182
   99SAPE    C1 9918   4.616   1.175   6.382 -0.7614 -0.3310 -0.0557
   99SAPE    HA 9919   4.601   1.070   6.413 -1.8637 -0.4473 -0.9098
   99SAPE    HB 9920   4.531   1.235   6.422  0.5918  0.7241  1.3358
   99SAPE    C2 9921   4.606   1.188   6.234  0.3683 -0.2133  0.5012
   99SAPE    HS 9922   4.505   1.156   6.199  0.0308  0.8923  0.4079
   99SAPE   O21 9923   4.705   1.108   6.175  0.6739 -0.0476 -0.1521
   99SAPE   C21 9924   4.680   0.977   6.172  0.0008  0.2130  0.1120
   99SAPE   O22 9925   4.579   0.922   6.219 -0.8445 -0.5049  0.0298
   99SAPE   C22 9926   4.801   0.912   6.115  0.2472  0.2781 -0.2507
   99SAPE   H2R 9927   4.857   0.987   6.056 -0.9298  1.0880 -0.3702
   99SAPE   H2S 9928   4.872   0.882   6.194  0.8792 -1.4083 -1.3913
   99SAPE    C3 9929   4.621   1.338   6.188 -0.2726  0.4937  0.5070
   99SAPE    HX 9930   4.729   1.351   6.209  0.0557 -0.1187 -0.7028
   99SAPE    HY 9931   4.565   1.411   6.249 -0.7699  0.6267 -0.1012
   99SAPE   O31 9932   4.605   1.353   6.050  0.0203  0.7037  0.2440
   99SAPE   C31 9933   4.477   1.357   6.016  0.0601  0.3551 -0.3576
   99SAPE   O32 9934   4.381   1.361   6.094 -0.6122 -0.7310  0.6160
   99SAPE   C32 9935   4.459   1.381   5.865  0.6869  0.0382 -0.1232
   99SAPE   H2X 9936   4.499   1.482   5.845  2.2985 -0.8838 -1.7766
   99SAPE   H2Y 9937   4.348   1.378   5.864  0.5871 -2.4181  2.6684
   99SAPE   C23 9938   4.772   0.799   6.025 -0.3596  0.1398 -0.1690
   99SAPE   H3R 9939   4.752   0.828   5.920 -3.4837  1.1598  0.6000
   99SAPE   H3S 9940   4.687   0.737   6.062 -1.2964  1.6098  0.2291
   99SAPE   C24 9941   4.899   0.709   6.015  0.3111 -0.2627  0.1702
   99SAPE   H4R 9942   4.918   0.664   6.115  1.7777  2.8172  1.3809
   99SAPE   H4S 9943   4.983   0.772   5.979  1.0631 -1.6778 -0.6594
   99SAPE   C25 9944   4.889   0.598   5.911 -0.0414  0.0320  0.2507
   99SAPE   H5R 9945   4.821   0.518   5.945  0.0551 -0.7205 -1.2425
   99SAPE   C26 9946   4.956   0.571   5.797 -0.2811  0.0075 -0.3443
   99SAPE   H6R 9947   4.914   0.484   5.744 -2.4522  0.5283  0.4228
   99SAPE   C27 9948   5.079   0.637   5.741 -0.2184 -0.7949 -0.9600
   99SAPE   H7R 9949   5.158   0.620   5.818 -2.4758 -1.7783  1.2896
   99SAPE   H7S 9950   5.069   0.748   5.744  0.2874 -0.7622  0.2002
   99SAPE   C28 9951   5.139   0.589   5.611 -0.1542  0.0412 -0.0769
   99SAPE   H8R 9952   5.229   0.529   5.633 -0.1480  0.6736  1.8180
   99SAPE   C29 9953   5.096   0.601   5.483 -0.2718  0.0028  0.0668
   99SAPE   H9R 9954   5.151   0.544   5.406  0.2241  0.9725 -0.3167
   99SAPE  C210 9955   4.979   0.677   5.417 -0.3913  0.2539 -0.9327
   99SAPE  H10R 9956   4.925   0.739   5.492  1.7009 -0.5718  1.4004
   99SAPE  H10S 9957   4.911   0.598   5.381 -1.0134 -0.5049  1.6919
   99SAPE  C211 9958   5.024   0.758   5.304  0.6752  0.1890  0.0771
   99SAPE  H11R 9959   5.062   0.855   5.338 -0.7044  0.1396  1.8745
   99SAPE  C212 9960   5.027   0.729   5.175  0.7590  0.0738 -0.0268
   99SAPE  H12R 9961   5.056   0.804   5.101 -2.4005  0.7778 -0.6849
   99SAPE  C213 9962   4.997   0.596   5.110  0.6378 -0.0163 -0.0658
   99SAPE  H13R 9963   4.938   0.532   5.180 -0.4076  0.5576 -0.3980
   99SAPE  H13S 9964   5.096   0.554   5.084  0.7309  0.1229  0.0597
   99SAPE  C214 9965   4.914   0.611   4.990 -0.0315 -0.0394  0.2035
   99SAPE  H14R 9966   4.809   0.635   5.011 -0.2525 -0.2965 -0.5660
   99SAPE  C215 9967   4.943   0.582   4.859  0.3667 -0.2191 -0.5481
   99SAPE  H15R 9968   4.860   0.590   4.788 -1.0656 -3.0598  0.6293
   99SAPE  C216 9969   5.074   0.540   4.798  0.1265 -0.8966 -0.9463
   99SAPE  H16R 9970   5.134   0.496   4.880  1.5312  0.8898 -0.9626
   99SAPE  H16S 9971   5.124   0.628   4.754  0.1056 -1.6710 -2.6235
   99SAPE  C217 9972   5.073   0.432   4.690 -0.7858 -0.3830  0.2174
   99SAPE  H17R 9973   4.974   0.438   4.640  0.3210  2.7148 -1.9235
   99SAPE  H17S 9974   5.086   0.332   4.736 -0.4109 -0.1786  0.5590
   99SAPE  C218 9975   5.182   0.461   4.587  0.8366 -0.1552  0.3706
   99SAPE  H18R 9976   5.274   0.443   4.647  1.8338 -1.0293 -1.3592
   99SAPE  H18S 9977   5.178   0.562   4.541  0.0759  0.3427  1.4963
   99SAPE  C219 9978   5.177   0.352   4.479 -0.1726  0.4418  0.2636
   99SAPE  H19R 9979   5.215   0.258   4.525  0.5601  0.5495 -0.1041
   99SAPE  H19S 9980   5.254   0.380   4.404  0.7408 -1.2601  0.5160
   99SAPE  C220 9981   5.044   0.317   4.403  0.2630 -0.5042  0.2296
   99SAPE  H20R 9982   4.974   0.267   4.474  1.0628  1.6993  2.7419
   99SAPE  H20S 9983   5.055   0.250   4.315 -1.3875 -1.7111  0.8941
   99SAPE  H20T 9984   4.984   0.408   4.381 -0.1177 -0.3731  1.6727
   99SAPE   C33 9985   4.525   1.264   5.779 -0.5888  0.1616  0.9254
   99SAPE   H3X 9986   4.632   1.266   5.808 -0.6449 -2.0951  1.4428
   99SAPE   H3Y 9987   4.514   1.290   5.672 -1.2089 -0.8225  0.7378
   99SAPE   C34 9988   4.464   1.132   5.803 -0.3038 -0.5097 -0.7223
   99SAPE   H4X 9989   4.354   1.132   5.785 -0.2038  1.6147 -1.6604
   99SAPE   H4Y 9990   4.485   1.099   5.907 -0.4999  1.3489 -0.0408
   99SAPE   C35 9991   4.523   1.018   5.716 -0.0241  0.4241 -0.4213
   99SAPE   H5X 9992   4.634   1.018   5.712  0.1180 -3.7465 -4.1197
   99SAPE   H5Y 9993   4.490   1.024   5.610  0.3000 -0.2310 -0.5672
   99SAPE   C36 9994   4.494   0.870   5.761 -0.3887  0.2002  0.3417
   99SAPE   H6X 9995   4.384   0.853   5.769 -0.6722  1.6177 -0.1512
   99SAPE   H6Y 9996   4.535   0.869   5.864 -1.8288  0.0110  0.9483
   99SAPE   C37 9997   4.555   0.768   5.666  0.0848 -0.0700  0.4600
   99SAPE   H7X 9998   4.665   0.778   5.671  0.2520 -0.6094 -1.2780
   99SAPE   H7Y 9999   4.515   0.801   5.567 -0.1995  0.9503  0.8984
   99SAPE   C3810000   4.512   0.627   5.698 -0.6601 -0.0016  0.5062
   99SAPE   H8X10001   4.401   0.623   5.692 -0.7278 -2.8120  2.1436
   99SAPE   H8Y10002   4.523   0.603   5.806  0.7684  2.8117  1.0843
   99SAPE   C3910003   4.586   0.517   5.621  0.4048  0.0527  0.1932
   99SAPE   H9X10004   4.695   0.530   5.640  0.4679  1.0523 -0.7514
   99SAPE   H9Y10005   4.571   0.535   5.512  0.3049 -0.3671  0.1364
   99SAPE  C31010006   4.559   0.376   5.677 -0.2531  0.3879 -0.4103
   99SAPE  H10X10007   4.451   0.361   5.655 -0.2529  1.4698 -1.1954
   99SAPE  H10Y10008   4.571   0.381   5.787  0.5800  1.9912 -0.5545
   99SAPE  C31110009   4.655   0.272   5.617  0.4134 -0.0949 -0.5491
   99SAPE  H11X10010   4.657   0.200   5.701 -2.2901  0.1667 -0.1822
   99SAPE  H11Y10011   4.751   0.327   5.604  0.9694 -0.1780  2.5008
   99SAPE  C31210012   4.605   0.197   5.492 -0.1894  0.4707  0.4753
   99SAPE  H12X10013   4.503   0.165   5.525 -0.1102  0.1175  0.3898
   99SAPE  H12Y10014   4.662   0.102   5.480 -0.6728  0.3695 -1.4817
   99SAPE  C31310015   4.614   0.292   5.370 -0.2407  0.6293 -0.0352
   99SAPE  H13X10016   4.708   0.350   5.368  0.1203  0.0817  0.7688
   99SAPE  H13Y10017   4.536   0.372   5.369  2.3776  3.3456 -0.3256
   99SAPE  C31410018   4.604   0.216   5.240  0.2153  0.7145 -0.3526
   99SAPE  H14X10019   4.507   0.164   5.226 -0.1341  0.8441  1.4278
   99SAPE  H14Y10020   4.682   0.137   5.252 -0.3675  0.5205  3.3375
   99SAPE  C31510021   4.652   0.305   5.120  0.3144  0.5092  0.5448
   99SAPE  H15X10022   4.762   0.317   5.121  0.5550 -1.3386  0.4979
   99SAPE  H15Y10023   4.598   0.402   5.120  0.4679  0.5925  0.8987
   99SAPE  C31610024   4.619   0.226   4.993  0.0395  0.0778  0.5936
   99SAPE  H16X10025   4.510   0.230   4.973 -0.1449 -1.3206  1.1815
   99SAPE  H16Y10026   4.649   0.119   5.002  0.7138 -0.1056 -2.4480
   99SAPE  C31710027   4.695   0.292   4.874 -0.0010  0.0881 -0.8726
   99SAPE  H17X10028   4.706   0.399   4.902  1.0965  0.6994 -3.3744
   99SAPE  H17Y10029   4.621   0.290   4.791 -1.8973 -0.0884  0.7308
   99SAPE  C31810030   4.836   0.230   4.838 -0.0136  0.3647  0.4311
   99SAPE  H18X10031   4.838   0.120   4.832 -1.3807  0.3578 -0.2228
   99SAPE  H18Y10032   4.911   0.270   4.910  0.7142  1.5929 -0.9447
   99SAPE  H18Z10033   4.867   0.270   4.739  0.8869  1.4718  1.1271
  100SAPE     N10034   6.554   6.742   6.528 -0.0521 -0.9731 -0.3360
  100SAPE   HN110035   6.629   6.769   6.461 -0.3073 -1.5433 -0.8633
  100SAPE   HN210036   6.490   6.683   6.471 -1.3457 -0.7579  0.8407
  100SAPE   HN310037   6.504   6.826   6.562 -0.4539 -1.6602  0.8006
  100SAPE   C1210038   6.608   6.668   6.649  0.0585 -0.0873 -0.0663
  100SAPE  H12A10039   6.582   6.736   6.733 -0.5410  0.3864 -0.6226
  100SAPE  H12B10040   6.715   6.650   6.623 -0.3086 -0.3900 -1.4865
  100SAPE   C1110041   6.524   6.540   6.668  0.2346 -0.0870  0.5527
  100SAPE  H11A10042   6.437   6.562   6.733 -0.1837  0.7209 -0.2590
  100SAPE  H11B10043   6.582   6.462   6.723  1.0714 -1.0002 -1.5301
  100SAPE     P10044   6.386   6.388   6.506 -0.3084  0.2714  0.1113
  100SAPE   O1310045   6.458   6.266   6.464 -0.3403  1.1399 -0.9356
  100SAPE   O1410046   6.281   6.391   6.612  0.1142  0.2710 -0.0221
  100SAPE   O1210047   6.495   6.485   6.543  0.0608 -0.1674 -0.2755
  100SAPE   O1110048   6.323   6.455   6.378 -0.4709 -0.1466  0.3528
  100SAPE    C110049   6.357   6.424   6.245  0.2603  0.2179 -0.0509
  100SAPE    HA10050   6.387   6.317   6.238 -1.1705 -0.3466  1.8147
  100SAPE    HB10051   6.267   6.434   6.180 -0.2397  1.0509  0.7544
  100SAPE    C210052   6.469   6.514   6.192  0.0140  0.3619  0.1731
  100SAPE    HS10053   6.560   6.486   6.249  1.0783 -1.6232 -2.3079
  100SAPE   O2110054   6.434   6.653   6.212 -0.0027 -0.2444 -0.0131
  100SAPE   C2110055   6.515   6.742   6.158  0.0022  0.5527 -0.2840
  100SAPE   O2210056   6.635   6.724   6.144 -0.0991 -0.1879 -0.9194
  100SAPE   C2210057   6.440   6.877   6.132  0.5658  0.1006  0.3837
  100SAPE   H2R10058   6.348   6.859   6.073  0.7454  0.7802 -0.1182
  100SAPE   H2S10059   6.407   6.915   6.231  0.9463  2.2339 -0.2513
  100SAPE    C310060   6.512   6.484   6.045 -0.2290  0.4299 -0.0294
  100SAPE    HX10061   6.617   6.513   6.026  1.0957 -4.4941 -1.7320
  100SAPE    HY10062   6.448   6.534   5.969 -1.4617  0.6216  1.0899
  100SAPE   O3110063   6.507   6.344   6.012  0.5237 -0.5121 -0.2786
  100SAPE   C3110064   6.611   6.264   6.035 -0.3134 -0.3725  0.2284
  100SAPE   O3210065   6.716   6.304   6.087  0.3541 -0.3504 -0.0471
  100SAPE   C3210066   6.587   6.126   5.971  0.3216 -0.3004  0.5793
  100SAPE   H2X10067   6.478   6.116   5.952 -0.1360  0.9956  2.2366
  100SAPE   H2Y10068   6.632   6.050   6.039 -0.9565 -0.1098  1.6708
  100SAPE   C2310069   6.541   6.981   6.071  0.0831  0.1254 -0.1910
  100SAPE   H3R10070   6.634   6.985   6.131  1.4026  0.2722 -2.1581
  100SAPE   H3S10071   6.488   7.078   6.073  1.1579  0.8077 -2.2334
  100SAPE   C2410072   6.565   6.952   5.924 -0.3163 -0.1584  0.4006
  100SAPE   H4R10073   6.593   6.846   5.910  1.4678  0.5649 -2.4340
  100SAPE   H4S10074   6.657   7.004   5.889  0.6243 -2.5472 -0.9175
  100SAPE   C2510075   6.461   6.987   5.826  0.4957 -0.6890 -0.6054
  100SAPE   H5R10076   6.361   6.962   5.865  0.5892  0.9350  0.7458
  100SAPE   C2610077   6.470   7.074   5.720  0.6049  0.0464  0.7228
  100SAPE   H6R10078   6.382   7.085   5.655 -0.3037 -1.8488  1.5746
  100SAPE   C2710079   6.595   7.138   5.660 -0.8132 -0.4077 -0.0567
  100SAPE   H7R10080   6.669   7.145   5.742 -0.0798 -1.1221 -0.6359
  100SAPE   H7S10081   6.568   7.244   5.640 -4.5832 -0.7886  2.0340
  100SAPE   C2810082   6.642   7.062   5.540 -0.2795  0.0028  0.0129
  100SAPE   H8R10083   6.723   6.991   5.563  1.2572  2.0412  1.2053
  100SAPE   C2910084   6.598   7.071   5.412  0.4868 -0.8166 -0.1186
  100SAPE   H9R10085   6.636   7.012   5.328 -0.5470 -1.7669  0.0542
  100SAPE  C21010086   6.489   7.160   5.372  0.4802 -0.1704  0.3114
  100SAPE  H10R10087   6.464   7.231   5.454  1.0017 -0.9790  1.2002
  100SAPE  H10S10088   6.401   7.092   5.370 -0.2289  0.2663  4.9764
  100SAPE  C21110089   6.510   7.241   5.241 -1.0690  0.0004  0.0282
  100SAPE  H11R10090   6.569   7.332   5.260 -0.7222 -0.3785  0.8167
  100SAPE  C21210091   6.478   7.211   5.117  0.3195  0.0205 -0.4604
  100SAPE  H12R10092   6.509   7.278   5.036 -0.3980 -1.0369 -1.6333
  100SAPE  C21310093   6.415   7.087   5.068 -0.0783  0.1978 -0.0820
  100SAPE  H13R10094   6.309   7.102   5.037 -0.7736 -0.3819  1.8505
  100SAPE  H13S10095   6.410   7.022   5.158 -2.3471  0.9454  0.3978
  100SAPE  C21410096   6.503   7.049   4.944 -0.4105 -0.9392 -0.2172
  100SAPE  H14R10097   6.574   6.967   4.962  1.9909  0.3847 -2.8927
  100SAPE  C21510098   6.487   7.092   4.817 -0.7174  0.5283  0.5107
  100SAPE  H15R10099   6.551   7.050   4.738 -4.2206 -0.1760 -2.1930
  100SAPE  C21610100   6.387   7.197   4.761  0.1244 -0.0409 -0.5566
  100SAPE  H16R10101   6.442   7.246   4.677  2.2139  0.9487  1.2969
  100SAPE  H16S10102   6.358   7.266   4.842  0.1375 -0.5243 -0.1353
  100SAPE  C21710103   6.267   7.127   4.692  0.0984  0.1990 -0.3440
  100SAPE  H17R10104   6.191   7.200   4.657  0.4851  0.5651 -0.4351
  100SAPE  H17S10105   6.228   7.061   4.772  1.9437  0.5959  0.9717
  100SAPE  C21810106   6.296   7.028   4.576  0.1309 -1.2662 -0.3252
  100SAPE  H18R10107   6.203   6.972   4.553 -0.5403 -0.7121  0.9854
  100SAPE  H18S10108   6.371   6.952   4.607  0.4496 -0.4598  0.9710
  100SAPE  C21910109   6.341   7.094   4.446  0.5177  0.1320 -0.0471
  100SAPE  H19R10110   6.447   7.121   4.462  0.7986 -1.5249  1.1985
  100SAPE  H19S10111   6.288   7.188   4.418  0.2555  0.3009  0.9717
  100SAPE  C22010112   6.337   6.988   4.324 -0.1368 -0.7678 -0.7509
  100SAPE  H20R10113   6.403   6.901   4.343  2.5218  1.1165 -0.8859
  100SAPE  H20S10114   6.380   7.042   4.237 -0.7841  1.2712  0.1439
  100SAPE  H20T10115   6.229   6.965   4.308 -0.5284 -0.2386  0.9443
  100SAPE   C3310116   6.665   6.110   5.832 -0.2376 -0.2357 -0.4577
  100SAPE   H3X10117   6.632   6.185   5.757  1.1623  0.5287 -0.3381
  100SAPE   H3Y10118   6.629   6.013   5.791  0.3350 -0.1877 -1.0954
  100SAPE   C3410119   6.817   6.099   5.840 -0.2454  0.0493 -0.1643
  100SAPE   H4X10120   6.832   6.003   5.894  2.2767  0.7487  0.4919
  100SAPE   H4Y10121   6.864   6.179   5.901  0.6467 -1.2591  0.9192
  100SAPE   C3510122   6.893   6.083   5.707 -0.1574 -0.6039 -0.3165
  100SAPE   H5X10123   7.000   6.105   5.725 -0.8897  1.9426  1.5241
  100SAPE   H5Y10124   6.853   6.170   5.651 -0.1267 -0.6217 -0.3663
  100SAPE   C3610125   6.867   5.954   5.634 -0.5445 -1.1777  0.1101
  100SAPE   H6X10126   6.762   5.941   5.600  0.2551 -0.0593 -3.1753
  100SAPE   H6Y10127   6.897   5.871   5.702 -2.3405 -1.6203  0.4249
  100SAPE   C3710128   6.955   5.959   5.512  0.3238  0.6847 -0.6075
  100SAPE   H7X10129   7.057   5.963   5.555 -0.4986  0.6396  1.4187
  100SAPE   H7Y10130   6.931   6.048   5.449 -0.0674  1.0665  0.0733
  100SAPE   C3810131   6.927   5.836   5.421  0.1803  0.2872 -0.1030
  100SAPE   H8X10132   6.823   5.844   5.382  0.4145 -0.8590 -0.9972
  100SAPE   H8Y10133   6.937   5.736   5.468  0.2373 -0.9079 -2.5052
  100SAPE   C3910134   7.031   5.821   5.303  0.6857 -0.0356 -0.8133
  100SAPE   H9X10135   7.135   5.807   5.340  0.5377 -1.8387 -0.9806
  100SAPE   H9Y10136   7.023   5.916   5.246 -3.5833  0.4555  0.2419
  100SAPE  C31010137   7.005   5.709   5.203 -0.4074  0.6833  0.2856
  100SAPE  H10X10138   6.904   5.719   5.159 -1.3836 -1.4612  1.8853
  100SAPE  H10Y10139   7.000   5.604   5.240 -2.4183  0.6621  0.0645
  100SAPE  C31110140   7.106   5.716   5.089 -0.0162  0.0476 -0.0494
  100SAPE  H11X10141   7.202   5.686   5.136 -0.8407  0.8965  2.2975
  100SAPE  H11Y10142   7.117   5.822   5.059  1.6453 -0.1790 -0.3147
  100SAPE  C31210143   7.074   5.632   4.966 -1.4684  1.0285  0.2570
  100SAPE  H12X10144   6.977   5.663   4.921 -3.3271 -2.7681  1.1832
  100SAPE  H12Y10145   7.064   5.531   5.012 -0.4592  0.1711 -1.2965
  100SAPE  C31310146   7.179   5.609   4.861 -0.1525 -0.3893  0.8460
  100SAPE  H13X10147   7.275   5.579   4.909  0.0057  4.5208  4.3070
  100SAPE  H13Y10148   7.214   5.703   4.814  2.8308 -1.4777  0.6756
  100SAPE  C31410149   7.127   5.508   4.750  0.3705 -0.4311  0.0339
  100SAPE  H14X10150   7.016   5.510   4.737  0.5072 -2.4110 -2.2445
  100SAPE  H14Y10151   7.156   5.409   4.791  2.9114  0.0640 -0.4167
  100SAPE  C31510152   7.179   5.529   4.610 -0.2502 -0.4872 -0.0276
  100SAPE  H15X10153   7.288   5.509   4.607 -0.0461  0.6581 -1.0064
  100SAPE  H15Y10154   7.157   5.628   4.565 -0.0980 -1.0127 -1.2820
  100SAPE  C31610155   7.121   5.422   4.514 -0.7988  0.4798  0.6744
  100SAPE  H16X10156   7.134   5.323   4.563 -1.7871 -0.1910 -0.3669
  100SAPE  H16Y10157   7.193   5.420   4.430  1.8806  0.3077  2.8306
  100SAPE  C31710158   6.984   5.453   4.461 -0.5981 -0.5999  0.6163
  100SAPE  H17X10159   6.989   5.527   4.378 -1.0376 -0.6827  0.5146
  100SAPE  H17Y10160   6.915   5.499   4.534 -0.8626  0.2466 -0.1551
  100SAPE  C31810161   6.914   5.328   4.402  0.8463  0.6486  0.1569
  100SAPE  H18X10162   6.908   5.243   4.472  0.7914  0.8691  0.4237
  100SAPE  H18Y10163   6.974   5.284   4.319 -1.2170 -0.5228 -0.8028
  100SAPE  H18Z10164   6.814   5.346   4.355  0.3750  0.7507  1.1755
  101SAPE     N10165   6.537   0.667   6.764 -0.7443  0.0852 -0.2802
  101SAPE   HN110166   6.514   0.766   6.787  2.3597  1.0470 -0.8088
  101SAPE   HN210167   6.511   0.604   6.842  0.7352 -0.9895 -0.6260
  101SAPE   HN310168   6.639   0.681   6.757 -0.5734 -0.1166  1.4173
  101SAPE   C1210169   6.470   0.644   6.628 -0.3574  0.0879 -0.0365
  101SAPE  H12A10170   6.360   0.643   6.643 -0.3479 -0.9402 -0.0107
  101SAPE  H12B10171   6.497   0.544   6.590 -1.7701 -1.3976  2.5820
  101SAPE   C1110172   6.512   0.759   6.531 -0.7344 -0.5005 -0.9577
  101SAPE  H11A10173   6.465   0.735   6.433  0.1937 -1.2922 -1.2210
  101SAPE  H11B10174   6.621   0.748   6.515 -1.4001 -2.6660 -5.5048
  101SAPE     P10175   6.357   0.976   6.578  0.1750  0.6613  0.1682
  101SAPE   O1310176   6.238   0.885   6.575  0.1199 -0.2970 -0.5927
  101SAPE   O1410177   6.370   1.074   6.685  1.1398  0.1016 -0.2173
  101SAPE   O1210178   6.496   0.893   6.578  0.5328  0.2337 -0.1704
  101SAPE   O1110179   6.368   1.053   6.437 -0.2682  0.0067  0.2446
  101SAPE    C110180   6.321   1.185   6.432 -0.1712  0.4370  0.0871
  101SAPE    HA10181   6.228   1.191   6.494  0.2271 -0.4420  0.7977
  101SAPE    HB10182   6.393   1.260   6.471 -2.3407  2.6848  0.0900
  101SAPE    C210183   6.291   1.205   6.281  0.7159 -0.2047 -0.0953
  101SAPE    HS10184   6.248   1.306   6.266  0.5392 -0.5387 -2.2109
  101SAPE   O2110185   6.196   1.107   6.235  0.3938 -0.3833 -0.0333
  101SAPE   C2110186   6.077   1.106   6.294 -0.1502 -0.5191  0.3938
  101SAPE   O2210187   6.028   1.196   6.365 -0.9407 -0.9415  0.1942
  101SAPE   C2210188   6.005   0.974   6.245  0.7572 -0.3281  0.2761
  101SAPE   H2R10189   6.033   0.958   6.138  0.8733 -1.3959  0.4608
  101SAPE   H2S10190   6.049   0.893   6.306  2.4985 -0.2111 -0.7636
  101SAPE    C310191   6.404   1.198   6.176  0.5241  0.0745 -0.0635
  101SAPE    HX10192   6.450   1.097   6.176  1.6653  0.5683  0.5736
  101SAPE    HY10193   6.488   1.268   6.200 -0.8457  1.6059  0.4877
  101SAPE   O3110194   6.347   1.234   6.049  0.2185  0.3654 -0.3663
  101SAPE   C3110195   6.402   1.188   5.946  0.5048 -0.5048  0.8821
  101SAPE   O3210196   6.483   1.097   5.947 -0.3680  0.2940  0.3355
  101SAPE   C3210197   6.348   1.264   5.823 -0.2031  0.3281  0.5444
  101SAPE   H2X10198   6.355   1.372   5.851  0.0318  0.1971  1.0093
  101SAPE   H2Y10199   6.244   1.227   5.812  1.0549 -3.0623 -1.2332
  101SAPE   C2310200   5.852   0.963   6.275 -0.3737 -0.0835  0.3832
  101SAPE   H3R10201   5.829   0.973   6.383  1.1302 -1.8429  0.9111
  101SAPE   H3S10202   5.821   0.859   6.253 -0.2152  0.0199 -0.3501
  101SAPE   C2410203   5.765   1.055   6.191 -1.0583 -0.3300 -0.4585
  101SAPE   H4R10204   5.784   1.163   6.211 -1.0426 -0.2435 -0.9236
  101SAPE   H4S10205   5.660   1.054   6.227 -0.6186  0.3631  0.9155
  101SAPE   C2510206   5.773   1.040   6.042 -0.8885 -0.3850 -0.6482
  101SAPE   H5R10207   5.799   1.132   5.988 -1.4188  1.2241  1.6580
  101SAPE   C2610208   5.727   0.940   5.968 -0.2391 -0.6681 -0.2993
  101SAPE   H6R10209   5.752   0.945   5.862 -2.0322  1.3750 -0.7102
  101SAPE   C2710210   5.675   0.806   6.002 -0.0972  0.5439 -0.4639
  101SAPE   H7R10211   5.585   0.785   5.941  1.2177  1.1022 -2.6763
  101SAPE   H7S10212   5.642   0.813   6.108 -2.0528 -0.3589 -0.9699
  101SAPE   C2810213   5.771   0.687   5.997  0.4539  0.0755 -1.6845
  101SAPE   H8R10214   5.838   0.671   6.083 -2.5272  0.4097  0.9066
  101SAPE   C2910215   5.786   0.602   5.900 -0.1938 -0.4773 -0.2488
  101SAPE   H9R10216   5.863   0.525   5.913  1.2615  1.0705  0.6485
  101SAPE  C21010217   5.708   0.601   5.769 -0.8438 -0.5595 -0.3270
  101SAPE  H10R10218   5.768   0.581   5.678 -0.2664 -0.0702 -0.0706
  101SAPE  H10S10219   5.662   0.701   5.753  1.1481  0.5018  0.1562
  101SAPE  C21110220   5.594   0.502   5.782  0.3710  0.1430 -0.2780
  101SAPE  H11R10221   5.581   0.445   5.875 -0.3609  0.4686 -0.1690
  101SAPE  C21210222   5.526   0.442   5.677 -0.1082 -0.1200  0.1540
  101SAPE  H12R10223   5.445   0.375   5.708 -0.0912  0.0549  0.5885
  101SAPE  C21310224   5.533   0.479   5.526 -0.8438  0.1401  0.7039
  101SAPE  H13R10225   5.573   0.583   5.516 -2.6751  0.7624 -0.6122
  101SAPE  H13S10226   5.429   0.489   5.489 -0.4442  0.4319 -0.3836
  101SAPE  C21410227   5.618   0.389   5.434  0.8202  0.1660 -0.7423
  101SAPE  H14R10228   5.709   0.346   5.478 -0.7042 -0.9253  1.5657
  101SAPE  C21510229   5.584   0.349   5.308  0.8339  0.1641 -0.6442
  101SAPE  H15R10230   5.653   0.283   5.253  0.5389 -0.0462 -0.7657
  101SAPE  C21610231   5.464   0.392   5.222  0.0563  0.3116  0.0140
  101SAPE  H16R10232   5.500   0.419   5.120  1.7906  1.4318  0.8758
  101SAPE  H16S10233   5.433   0.489   5.265  0.5768  0.8836 -0.8713
  101SAPE  C21710234   5.352   0.290   5.214  0.3352 -0.0376 -0.1798
  101SAPE  H17R10235   5.258   0.339   5.181  0.1918 -1.5265 -2.1388
  101SAPE  H17S10236   5.336   0.249   5.316  0.6580 -1.3956 -0.6460
  101SAPE  C21810237   5.379   0.183   5.110 -0.2783 -0.8183 -0.1266
  101SAPE  H18R10238   5.339   0.084   5.142 -1.3087 -0.6484 -0.8675
  101SAPE  H18S10239   5.488   0.179   5.088  0.3927  0.8784  2.3896
  101SAPE  C21910240   5.296   0.197   4.979  0.1659 -0.2464  0.2950
  101SAPE  H19R10241   5.193   0.215   5.017 -0.3542 -3.2661  0.5895
  101SAPE  H19S10242   5.292   0.098   4.928  0.1616 -0.3712  0.5354
  101SAPE  C22010243   5.347   0.303   4.882  0.3739  0.0290  1.0185
  101SAPE  H20R10244   5.333   0.261   4.780 -1.5580 -0.6221  1.4960
  101SAPE  H20S10245   5.454   0.327   4.898 -0.4561  2.5763  3.6864
  101SAPE  H20T10246   5.299   0.402   4.899  2.7306  1.2214  1.2074
  101SAPE   C3310247   6.428   1.242   5.691 -0.5764  0.1503  0.3878
  101SAPE   H3X10248   6.444   1.132   5.683 -2.8506 -0.1604 -0.8380
  101SAPE   H3Y10249   6.524   1.296   5.686  0.1232 -0.9271  1.5764
  101SAPE   C3410250   6.343   1.278   5.567 -0.3923  0.1651  0.0795
  101SAPE   H4X10251   6.311   1.384   5.575 -0.3122  0.1590  0.4848
  101SAPE   H4Y10252   6.259   1.204   5.568 -3.2622  3.1892 -0.0498
  101SAPE   C3510253   6.435   1.253   5.444 -0.1325  0.2893 -0.3669
  101SAPE   H5X10254   6.472   1.149   5.445 -0.8317 -0.0182 -2.2786
  101SAPE   H5Y10255   6.519   1.326   5.448  0.3095 -0.2483  0.5512
  101SAPE   C3610256   6.344   1.258   5.313  0.3117  0.5660  0.3362
  101SAPE   H6X10257   6.300   1.360   5.299 -0.3111 -0.0785 -3.7552
  101SAPE   H6Y10258   6.252   1.198   5.326 -0.2952  1.5037  0.4992
  101SAPE   C3710259   6.423   1.234   5.178 -0.1530 -0.3970 -1.0629
  101SAPE   H7X10260   6.480   1.141   5.194  0.4316 -0.2991 -2.4362
  101SAPE   H7Y10261   6.486   1.325   5.164 -1.3207  0.8630  1.2587
  101SAPE   C3810262   6.331   1.212   5.055 -0.0129  0.9141 -0.7658
  101SAPE   H8X10263   6.253   1.291   5.052  0.1888  1.0909 -1.5972
  101SAPE   H8Y10264   6.275   1.117   5.073  2.2975 -0.7020 -1.6621
  101SAPE   C3910265   6.415   1.189   4.929  0.3748 -0.5391 -0.1342
  101SAPE   H9X10266   6.495   1.115   4.952  0.2644 -0.1065  1.8531
  101SAPE   H9Y10267   6.474   1.282   4.917 -0.5481 -0.0414 -0.9217
  101SAPE  C31010268   6.337   1.160   4.798  0.6994 -0.5183  0.2546
  101SAPE  H10X10269   6.265   1.242   4.777  2.2080  0.4637 -1.3521
  101SAPE  H10Y10270   6.283   1.063   4.803  2.5295 -1.5587  0.6684
  101SAPE  C31110271   6.428   1.158   4.678 -0.3245 -0.0117  0.0812
  101SAPE  H11X10272   6.510   1.089   4.707  0.5201  1.3489  1.0584
  101SAPE  H11Y10273   6.475   1.258   4.666 -2.0012  1.0076  1.4013
  101SAPE  C31210274   6.381   1.082   4.549  0.1678 -0.7298 -0.2643
  101SAPE  H12X10275   6.275   1.106   4.526  0.3280  0.1062 -0.1519
  101SAPE  H12Y10276   6.381   0.971   4.556 -0.9871 -0.7063  0.4417
  101SAPE  C31310277   6.463   1.127   4.430  0.3465 -0.1580 -0.1307
  101SAPE  H13X10278   6.463   1.055   4.346  1.9579 -0.5407  0.1665
  101SAPE  H13Y10279   6.566   1.130   4.473  0.2683 -2.3862  0.2955
  101SAPE  C31410280   6.438   1.270   4.382  0.1179  1.0488 -0.6829
  101SAPE  H14X10281   6.514   1.304   4.309  1.1371  0.5555  0.1236
  101SAPE  H14Y10282   6.430   1.334   4.473 -0.1060 -1.4554  1.1713
  101SAPE  C31510283   6.299   1.291   4.312  0.2162  0.0362 -0.8140
  101SAPE  H15X10284   6.214   1.285   4.383  1.9611 -1.1885  1.3144
  101SAPE  H15Y10285   6.283   1.222   4.226 -0.8508  0.5206 -1.0184
  101SAPE  C31610286   6.297   1.427   4.232  0.6430  0.5849  0.0144
  101SAPE  H16X10287   6.381   1.431   4.160 -1.8450  3.5308 -3.0801
  101SAPE  H16Y10288   6.307   1.514   4.301 -0.0090  0.6340  0.0536
  101SAPE  C31710289   6.161   1.446   4.163 -0.0400 -1.2530  0.2995
  101SAPE  H17X10290   6.085   1.454   4.243  1.1401  2.7240  1.2160
  101SAPE  H17Y10291   6.151   1.352   4.103  0.5570 -1.7144  0.9008
  101SAPE  C31810292   6.144   1.572   4.079  0.0628 -0.1672  0.6453
  101SAPE  H18X10293   6.188   1.554   3.978  0.4761  2.1924  0.3476
  101SAPE  H18Y10294   6.198   1.660   4.119 -1.1309  1.0585 -0.3243
  101SAPE  H18Z10295   6.040   1.601   4.051  0.1167 -1.3064 -0.9025
  102SAPE     N10296   5.839   1.331   6.508  0.2189 -0.8576 -0.2225
  102SAPE   HN110297   5.907   1.256   6.487  2.9180 -0.3772  5.0857
  102SAPE   HN210298   5.745   1.295   6.533 -0.0114 -0.1646 -0.0539
  102SAPE   HN310299   5.825   1.379   6.417 -1.6135 -0.0470  0.4258
  102SAPE   C1210300   5.901   1.429   6.603 -0.1797 -0.0121  0.4452
  102SAPE  H12A10301   5.886   1.390   6.706  0.2243  0.4326  0.6757
  102SAPE  H12B10302   5.837   1.519   6.594 -3.2897 -2.1347 -0.3813
  102SAPE   C1110303   6.058   1.458   6.595 -0.3495 -0.7994 -0.4593
  102SAPE  H11A10304   6.108   1.359   6.587 -1.2782 -1.1842 -2.0475
  102SAPE  H11B10305   6.090   1.488   6.697 -3.7357  0.6483  0.3116
  102SAPE     P10306   6.139   1.693   6.509 -0.3393  0.1935  0.2258
  102SAPE   O1310307   6.026   1.768   6.562 -0.7035  0.6435  0.4560
  102SAPE   O1410308   6.260   1.689   6.598  0.4272  0.1966 -0.6226
  102SAPE   O1210309   6.088   1.548   6.483 -0.5817  0.0417 -0.5768
  102SAPE   O1110310   6.174   1.747   6.363 -0.1937  0.0381 -0.3112
  102SAPE    C110311   6.296   1.693   6.302 -0.5803 -0.4689 -0.3616
  102SAPE    HA10312   6.379   1.679   6.374  1.7598  1.2109 -2.5815
  102SAPE    HB10313   6.267   1.593   6.262  1.7015 -1.4141  0.2137
  102SAPE    C210314   6.338   1.776   6.176  0.7530  0.8059 -0.2420
  102SAPE    HS10315   6.359   1.882   6.201  2.5053  0.0618  1.6628
  102SAPE   O2110316   6.238   1.750   6.074  0.5755 -0.2370 -0.1315
  102SAPE   C2110317   6.221   1.850   5.983 -1.2804 -0.0328  0.2885
  102SAPE   O2210318   6.269   1.963   5.990 -0.3703 -0.0290 -0.0741
  102SAPE   C2210319   6.119   1.796   5.888  0.6827  0.1311 -0.3853
  102SAPE   H2R10320   6.027   1.759   5.939  0.5974 -0.9177 -1.2708
  102SAPE   H2S10321   6.082   1.878   5.823 -2.4792  1.5861  2.8564
  102SAPE    C310322   6.475   1.720   6.122 -0.2079  0.2021  0.0032
  102SAPE    HX10323   6.455   1.615   6.093  0.5295  0.4397 -1.4201
  102SAPE    HY10324   6.546   1.721   6.208 -0.7123  1.9634  0.4459
  102SAPE   O3110325   6.525   1.779   6.004 -0.1775 -0.0889 -0.1380
  102SAPE   C3110326   6.568   1.907   6.003  0.6878  0.4936 -0.1316
  102SAPE   O3210327   6.564   1.974   6.102 -0.6124  0.0742 -0.5496
  102SAPE   C3210328   6.639   1.940   5.871  0.5583  0.1599  0.1139
  102SAPE   H2X10329   6.602   1.862   5.802 -0.2336  0.9009 -0.3272
  102SAPE   H2Y10330   6.744   1.913   5.895  0.1029 -0.5309  1.4617
  102SAPE   C2310331   6.167   1.670   5.807 -0.2717 -0.0535 -1.1643
  102SAPE   H3R10332   6.092   1.653   5.727 -2.6865 -0.7696  1.1035
  102SAPE   H3S10333   6.163   1.583   5.876 -2.1463  0.9010  0.0234
  102SAPE   C2410334   6.313   1.682   5.743  0.2687  0.6533  0.4913
  102SAPE   H4R10335   6.313   1.586   5.686 -3.7375  1.2041 -0.7426
  102SAPE   H4S10336   6.398   1.683   5.815 -0.2783  0.3710  1.1531
  102SAPE   C2510337   6.329   1.788   5.645 -0.0493  0.7644  0.8433
  102SAPE   H5R10338   6.376   1.883   5.674 -0.1046  1.4434 -1.1859
  102SAPE   C2610339   6.286   1.789   5.512 -0.2834  0.4397  0.0172
  102SAPE   H6R10340   6.303   1.879   5.451  0.2360 -1.2914 -2.5557
  102SAPE   C2710341   6.215   1.677   5.439  0.0123  0.3921  0.4618
  102SAPE   H7R10342   6.192   1.600   5.515 -1.6237 -0.0002 -0.3761
  102SAPE   H7S10343   6.285   1.633   5.364 -1.6540  0.1411 -1.0031
  102SAPE   C2810344   6.082   1.719   5.378  0.6592  0.4420 -0.5178
  102SAPE   H8R10345   6.008   1.739   5.457  1.8881  1.8951  0.3127
  102SAPE   C2910346   6.043   1.740   5.250 -0.3401  0.1261  0.7533
  102SAPE   H9R10347   5.937   1.767   5.236 -0.1007 -0.3217 -2.5759
  102SAPE  C21010348   6.133   1.726   5.130  0.0346  0.6042 -0.2751
  102SAPE  H10R10349   6.236   1.759   5.156  0.5472 -0.0569 -1.4093
  102SAPE  H10S10350   6.101   1.801   5.055  1.6698  0.8428 -0.7771
  102SAPE  C21110351   6.135   1.584   5.066 -0.5070 -0.3118 -0.5645
  102SAPE  H11R10352   6.134   1.500   5.137  0.2829 -1.0142 -1.3500
  102SAPE  C21210353   6.124   1.569   4.931 -1.2800  0.2676  0.3767
  102SAPE  H12R10354   6.144   1.469   4.891  0.0828  0.8731 -0.5439
  102SAPE  C21310355   6.111   1.679   4.837  0.1017  0.5002 -0.4147
  102SAPE  H13R10356   6.173   1.767   4.867  1.6931 -0.6775 -0.0895
  102SAPE  H13S10357   6.007   1.716   4.847 -0.8626 -2.2696  0.7273
  102SAPE  C21410358   6.133   1.650   4.693 -0.5860  0.0930 -0.3305
  102SAPE  H14R10359   6.240   1.636   4.676 -0.4362 -0.2325  0.7502
  102SAPE  C21510360   6.048   1.636   4.593  0.2970 -0.4681 -0.0105
  102SAPE  H15R10361   6.082   1.613   4.491 -0.2920 -1.1113 -0.0669
  102SAPE  C21610362   5.898   1.656   4.599  0.4786 -0.2232 -0.0376
  102SAPE  H16R10363   5.852   1.632   4.697 -0.6534  0.7895 -0.3035
  102SAPE  H16S10364   5.848   1.582   4.533  0.0560  0.0570 -0.0339
  102SAPE  C21710365   5.863   1.803   4.572 -0.2525  0.2363  0.4001
  102SAPE  H17R10366   5.866   1.816   4.462  0.1515  0.1646  0.4021
  102SAPE  H17S10367   5.928   1.872   4.630  0.8579 -1.9359  1.8814
  102SAPE  C21810368   5.714   1.836   4.612 -0.2865  0.3781 -0.5783
  102SAPE  H18R10369   5.696   1.837   4.721 -0.6904 -3.0368 -0.4990
  102SAPE  H18S10370   5.645   1.754   4.582  1.2092 -1.1247 -0.0701
  102SAPE  C21910371   5.671   1.974   4.555  0.1213  0.2744 -0.8171
  102SAPE  H19R10372   5.703   1.984   4.449  0.6965  0.7272 -0.6038
  102SAPE  H19S10373   5.729   2.052   4.608  0.0609 -0.4424  0.3421
  102SAPE  C22010374   5.523   1.994   4.580  0.4163 -0.1994 -0.5189
  102SAPE  H20R10375   5.494   2.009   4.686  0.4386  0.8344 -0.6498
  102SAPE  H20S10376   5.453   1.914   4.547  0.4585 -1.9354  3.1228
  102SAPE  H20T10377   5.489   2.092   4.539 -1.4725 -0.1291  1.0576
  102SAPE   C3310378   6.620   2.084   5.822  0.8970 -0.1399  0.0607
  102SAPE   H3X10379   6.652   2.164   5.893 -0.7735  0.9099 -0.3227
  102SAPE   H3Y10380   6.512   2.109   5.817  1.0217  0.2652 -0.7077
  102SAPE   C3410381   6.661   2.114   5.677 -0.4523 -0.5139 -0.0018
  102SAPE   H4X10382   6.771   2.109   5.662 -0.3046  1.5129  0.0649
  102SAPE   H4Y10383   6.625   2.218   5.657  0.7788 -0.2611 -1.0553
  102SAPE   C3510384   6.588   2.031   5.571 -0.0333  0.8400 -0.1554
  102SAPE   H5X10385   6.481   2.062   5.574 -0.3035  0.0222 -0.7940
  102SAPE   H5Y10386   6.606   1.922   5.586 -0.5671  0.8473  0.6148
  102SAPE   C3610387   6.619   2.068   5.431 -0.5846 -0.1667  0.0953
  102SAPE   H6X10388   6.725   2.081   5.398 -1.0018  1.7577 -0.6721
  102SAPE   H6Y10389   6.580   2.171   5.416  1.1580  0.6312  0.7264
  102SAPE   C3710390   6.544   1.984   5.330 -0.0326  0.1697  0.3280
  102SAPE   H7X10391   6.433   1.995   5.338 -0.3435 -1.8933 -0.4792
  102SAPE   H7Y10392   6.570   1.876   5.332 -1.1942 -0.2136 -1.9905
  102SAPE   C3810393   6.563   2.033   5.189  0.3696 -0.5332  0.3958
  102SAPE   H8X10394   6.671   2.029   5.160  0.1464  0.6617 -0.7072
  102SAPE   H8Y10395   6.535   2.140   5.175 -2.2815 -1.1267  0.7516
  102SAPE   C3910396   6.481   1.954   5.092  0.2320 -0.1137 -0.0095
  102SAPE   H9X10397   6.372   1.971   5.104  0.0906  0.4722 -1.7833
  102SAPE   H9Y10398   6.478   1.844   5.101 -0.0666 -0.2291 -1.2685
  102SAPE  C31010399   6.523   1.991   4.948 -0.5876 -0.1118  0.0353
  102SAPE  H10X10400   6.623   1.946   4.929  0.3171  1.7878  0.0976
  102SAPE  H10Y10401   6.533   2.101   4.937 -1.3648 -0.0826 -0.5173
  102SAPE  C31110402   6.417   1.962   4.843  0.0058  0.2112 -0.3617
  102SAPE  H11X10403   6.327   2.027   4.851 -1.4849 -1.3647 -2.9298
  102SAPE  H11Y10404   6.378   1.858   4.846  0.5007  0.0461  1.7244
  102SAPE  C31210405   6.472   1.998   4.704 -0.0095  0.4696  0.3727
  102SAPE  H12X10406   6.554   1.930   4.674  0.3136  1.2599 -0.6214
  102SAPE  H12Y10407   6.522   2.097   4.714 -0.5882  0.6655  1.4856
  102SAPE  C31310408   6.357   2.000   4.600  0.1084 -0.5998  0.4384
  102SAPE  H13X10409   6.288   2.085   4.616  0.1248  0.1038 -2.6081
  102SAPE  H13Y10410   6.292   1.909   4.601 -2.8868  1.3025 -2.1200
  102SAPE  C31410411   6.416   1.990   4.455  0.0129 -0.3023  0.6431
  102SAPE  H14X10412   6.498   1.916   4.466 -0.0330 -0.8775 -2.1334
  102SAPE  H14Y10413   6.469   2.081   4.420 -1.0784  1.0188  2.2685
  102SAPE  C31510414   6.325   1.933   4.344  0.0770  0.4124 -0.4431
  102SAPE  H15X10415   6.297   1.827   4.359 -2.1980  1.1731  1.4310
  102SAPE  H15Y10416   6.376   1.930   4.246 -2.9809 -0.4048 -2.1121
  102SAPE  C31610417   6.191   2.004   4.332  0.5331  0.2274  0.4174
  102SAPE  H16X10418   6.207   2.108   4.297  1.7208 -0.2330 -0.4556
  102SAPE  H16Y10419   6.135   2.016   4.427  0.4725 -2.5235  0.7964
  102SAPE  C31710420   6.098   1.926   4.233  0.1007  0.3355 -0.9602
  102SAPE  H17X10421   5.991   1.923   4.263  0.1874 -2.1205 -0.7599
  102SAPE  H17Y10422   6.134   1.822   4.239 -1.0880 -0.0344  0.3080
  102SAPE  C31810423   6.093   1.972   4.086 -0.5681  0.7192  0.4193
  102SAPE  H18X10424   6.196   1.987   4.047  1.4261 -1.7406  4.1503
  102SAPE  H18Y10425   6.036   2.066   4.070  0.7835  1.6488  0.8592
  102SAPE  H18Z10426   6.052   1.881   4.037  3.0821 -1.1994  0.5656
  103SAPE     N10427   0.866   0.992   1.646 -0.1627  0.6531 -0.2089
  103SAPE   HN110428   0.900   0.899   1.616  1.2038  0.6492  1.2277
  103SAPE   HN210429   0.780   0.981   1.702 -0.0181 -1.3968 -0.3305
  103SAPE   HN310430   0.844   1.050   1.562  0.1090 -1.8709 -2.1466
  103SAPE   C1210431   0.974   1.060   1.717  0.2036 -0.2886  0.3807
  103SAPE  H12A10432   0.942   1.154   1.767  0.4281 -1.2353  2.4551
  103SAPE  H12B10433   1.056   1.069   1.643 -1.3348 -0.0774 -1.3566
  103SAPE   C1110434   1.023   0.961   1.830 -0.9876  0.3255 -0.4643
  103SAPE  H11A10435   1.127   0.986   1.859 -0.7079 -1.0253 -0.2418
  103SAPE  H11B10436   1.043   0.861   1.787 -1.4119  0.2917 -0.5848
  103SAPE     P10437   0.959   1.044   2.065  0.2040 -0.3485  0.0643
  103SAPE   O1310438   1.097   1.008   2.109 -1.0279 -0.4516  0.0678
  103SAPE   O1410439   0.927   1.183   2.038 -0.8395 -0.0514 -0.0712
  103SAPE   O1210440   0.934   0.952   1.942 -0.2194 -0.5456 -0.6435
  103SAPE   O1110441   0.859   0.997   2.183 -0.4010 -0.5155 -0.3750
  103SAPE    C110442   0.809   0.864   2.183 -0.8201 -0.9729 -0.0284
  103SAPE    HA10443   0.702   0.857   2.155 -1.0290 -0.6884  0.6877
  103SAPE    HB10444   0.853   0.789   2.113 -1.0046 -0.9895 -0.1278
  103SAPE    C210445   0.836   0.793   2.315  0.1894  0.1525 -0.6528
  103SAPE    HS10446   0.800   0.689   2.302  1.5714 -0.5621  0.9817
  103SAPE   O2110447   0.776   0.863   2.433 -0.7050  0.2615 -0.3957
  103SAPE   C2110448   0.650   0.822   2.450  0.5790 -0.0967 -0.0140
  103SAPE   O2210449   0.590   0.747   2.375 -0.3261 -0.6797 -0.2564
  103SAPE   C2210450   0.596   0.896   2.570 -0.2153 -0.3232  0.0619
  103SAPE   H2R10451   0.676   0.964   2.606  0.8311 -1.4225 -0.1323
  103SAPE   H2S10452   0.502   0.948   2.542  1.0309  0.8201 -2.2843
  103SAPE    C310453   0.983   0.780   2.345  0.2043  0.6430 -0.2300
  103SAPE    HX10454   1.008   0.887   2.362  1.6854  0.0929  1.2989
  103SAPE    HY10455   1.031   0.730   2.258  0.2823  0.6403 -0.1855
  103SAPE   O3110456   1.013   0.704   2.466  0.7296  0.4671 -0.1372
  103SAPE   C3110457   1.138   0.704   2.507  0.5918  0.1743  0.4475
  103SAPE   O3210458   1.234   0.754   2.449 -0.3214 -0.3078  0.4440
  103SAPE   C3210459   1.154   0.600   2.616 -0.3552 -0.4977 -0.2662
  103SAPE   H2X10460   1.166   0.501   2.568 -0.1454 -2.5013  3.5113
  103SAPE   H2Y10461   1.055   0.601   2.667  0.2446 -1.9806  1.0158
  103SAPE   C2310462   0.560   0.785   2.675  0.3914 -0.2558 -0.3028
  103SAPE   H3R10463   0.479   0.722   2.632 -1.6669  1.1943  1.2583
  103SAPE   H3S10464   0.506   0.834   2.759 -0.6947 -1.4059 -0.2949
  103SAPE   C2410465   0.676   0.703   2.741 -0.0232  0.2770  0.1352
  103SAPE   H4R10466   0.738   0.642   2.672  0.7304  0.8898  0.2620
  103SAPE   H4S10467   0.627   0.632   2.811  1.5967 -0.0673  0.9773
  103SAPE   C2510468   0.765   0.791   2.822 -0.5072 -0.3096 -0.2764
  103SAPE   H5R10469   0.805   0.874   2.761 -1.3355  0.1423 -0.2229
  103SAPE   C2610470   0.811   0.782   2.950 -0.0234 -0.4249 -0.0476
  103SAPE   H6R10471   0.870   0.861   2.998  2.4426 -2.0984 -0.1348
  103SAPE   C2710472   0.781   0.658   3.046 -0.2427  0.3286 -0.2217
  103SAPE   H7R10473   0.873   0.600   3.066 -1.5172 -2.5433 -1.9766
  103SAPE   H7S10474   0.718   0.587   2.987  0.4318 -1.5424  1.2211
  103SAPE   C2810475   0.713   0.696   3.181  0.3393 -0.2441  0.1683
  103SAPE   H8R10476   0.606   0.670   3.178 -0.6732  2.7884  3.3909
  103SAPE   C2910477   0.767   0.735   3.298 -0.4903  0.6540 -0.8596
  103SAPE   H9R10478   0.704   0.763   3.383  1.4154 -0.9534  1.1745
  103SAPE  C21010479   0.910   0.767   3.326  0.2964 -0.1305 -0.1881
  103SAPE  H10R10480   0.915   0.859   3.389 -0.9382  2.7545 -3.9691
  103SAPE  H10S10481   0.963   0.798   3.234 -2.4389  0.6595 -1.5853
  103SAPE  C21110482   0.991   0.646   3.386  1.1211 -0.1651 -0.2326
  103SAPE  H11R10483   0.992   0.558   3.320  0.8745 -0.3604  0.0224
  103SAPE  C21210484   1.071   0.644   3.494  0.0063  0.5751  0.5889
  103SAPE  H12R10485   1.116   0.547   3.521 -1.7075 -0.1992  0.8267
  103SAPE  C21310486   1.087   0.754   3.593 -0.5721 -0.9743  0.0067
  103SAPE  H13R10487   1.095   0.856   3.550  1.8949 -0.8082  0.6947
  103SAPE  H13S10488   1.189   0.733   3.631 -1.2091 -1.4998  1.5063
  103SAPE  C21410489   0.987   0.765   3.702 -0.1445  0.0580 -0.2871
  103SAPE  H14R10490   0.924   0.675   3.709 -0.4805  0.3481  0.6013
  103SAPE  C21510491   0.947   0.874   3.767  0.1206 -0.0522 -0.1343
  103SAPE  H15R10492   0.882   0.853   3.853 -1.8166  0.4004 -1.3949
  103SAPE  C21610493   1.011   1.006   3.763 -0.5973 -0.0431  0.5982
  103SAPE  H16R10494   1.081   1.023   3.678 -1.2343 -2.0358 -0.4127
  103SAPE  H16S10495   1.084   1.017   3.845 -0.4464  1.0901  0.3212
  103SAPE  C21710496   0.907   1.123   3.766  0.2976 -0.4090 -0.7327
  103SAPE  H17R10497   0.844   1.113   3.675 -0.7817  2.4650 -0.4161
  103SAPE  H17S10498   0.961   1.220   3.761  0.1298 -0.3227 -0.8668
  103SAPE  C21810499   0.828   1.134   3.894  0.1109  0.1779 -0.5569
  103SAPE  H18R10500   0.794   1.037   3.936  1.2615 -0.4725 -1.0731
  103SAPE  H18S10501   0.744   1.204   3.874  0.9038  1.6149  0.9959
  103SAPE  C21910502   0.912   1.221   3.991 -0.6143 -0.2536 -0.2060
  103SAPE  H19R10503   0.921   1.323   3.948 -1.1719  0.7212  1.8269
  103SAPE  H19S10504   1.014   1.177   4.003 -0.2886  0.2611 -1.0149
  103SAPE  C22010505   0.851   1.238   4.125  0.3613  0.6200  0.6517
  103SAPE  H20R10506   0.743   1.262   4.124  0.2863  0.4849  2.2807
  103SAPE  H20S10507   0.888   1.311   4.200 -1.2243  0.2658  1.8468
  103SAPE  H20T10508   0.842   1.141   4.180 -4.7197 -1.0974 -2.5633
  103SAPE   C3310509   1.253   0.625   2.730 -0.3573 -0.8926  0.0930
  103SAPE   H3X10510   1.257   0.732   2.757 -1.3174 -1.2780  1.8885
  103SAPE   H3Y10511   1.351   0.601   2.681 -0.6282  1.2074 -1.6161
  103SAPE   C3410512   1.218   0.555   2.859  0.5543  0.4731 -0.1249
  103SAPE   H4X10513   1.206   0.445   2.854  0.5554  0.3315  2.0487
  103SAPE   H4Y10514   1.122   0.600   2.894 -0.0305 -2.1229  1.8958
  103SAPE   C3510515   1.313   0.580   2.981  0.2749 -0.1019 -0.2894
  103SAPE   H5X10516   1.337   0.688   2.992  0.6005 -0.0566 -1.3116
  103SAPE   H5Y10517   1.412   0.536   2.960  0.2142 -0.4666  0.1788
  103SAPE   C3610518   1.259   0.521   3.112 -0.6337  1.0053  0.2120
  103SAPE   H6X10519   1.231   0.415   3.090 -2.0877  1.4254 -0.0822
  103SAPE   H6Y10520   1.171   0.582   3.141 -0.4229  1.8296 -0.8336
  103SAPE   C3710521   1.364   0.501   3.228 -0.6476 -0.0148  0.1122
  103SAPE   H7X10522   1.441   0.444   3.172 -1.7275  0.5527 -2.0564
  103SAPE   H7Y10523   1.322   0.435   3.307  0.2518  1.1375  1.6113
  103SAPE   C3810524   1.409   0.631   3.295 -0.2748  0.0534  0.5914
  103SAPE   H8X10525   1.322   0.679   3.345  0.1067  1.7102 -0.2807
  103SAPE   H8Y10526   1.455   0.700   3.221 -1.1911  0.7502  0.6526
  103SAPE   C3910527   1.512   0.604   3.407  0.0810  0.1087  0.0901
  103SAPE   H9X10528   1.560   0.697   3.445  2.7515 -1.8189  1.8708
  103SAPE   H9Y10529   1.592   0.540   3.364  0.2231  0.5490 -0.3038
  103SAPE  C31010530   1.445   0.541   3.533 -0.1254 -0.1671 -0.5392
  103SAPE  H10X10531   1.406   0.439   3.513  0.2986 -0.2603 -0.9058
  103SAPE  H10Y10532   1.368   0.606   3.579  0.9862  0.2476  0.7804
  103SAPE  C31110533   1.550   0.537   3.647 -0.0158 -0.0066  0.3524
  103SAPE  H11X10534   1.586   0.641   3.659 -0.6447  1.2180 -5.3285
  103SAPE  H11Y10535   1.633   0.469   3.620  1.0931  0.6757  1.9062
  103SAPE  C31210536   1.480   0.474   3.764  0.2707  0.0522  0.3281
  103SAPE  H12X10537   1.408   0.398   3.726 -1.1855  0.6019  1.8435
  103SAPE  H12Y10538   1.412   0.543   3.818 -0.5634 -2.4872  2.8118
  103SAPE  C31310539   1.573   0.392   3.862 -0.1029 -0.1617  0.3221
  103SAPE  H13X10540   1.616   0.306   3.805 -0.0221 -0.2673  0.5395
  103SAPE  H13Y10541   1.495   0.359   3.934 -1.6822  2.7330  0.0733
  103SAPE  C31410542   1.692   0.485   3.919 -0.3553 -0.3425  1.0594
  103SAPE  H14X10543   1.658   0.587   3.944  1.6176  0.6391 -0.0392
  103SAPE  H14Y10544   1.775   0.487   3.845 -2.1233  0.0132 -1.0091
  103SAPE  C31510545   1.761   0.415   4.040  0.4680  0.2740 -0.5904
  103SAPE  H15X10546   1.845   0.481   4.070  0.4813  1.9003 -3.7148
  103SAPE  H15Y10547   1.814   0.319   4.021 -0.3834 -0.4995  0.7917
  103SAPE  C31610548   1.655   0.387   4.154 -0.5899 -0.3131  0.3243
  103SAPE  H16X10549   1.582   0.308   4.126 -0.4003 -1.4069  2.6656
  103SAPE  H16Y10550   1.593   0.479   4.168 -0.4380  0.0015 -0.9435
  103SAPE  C31710551   1.725   0.331   4.282  0.0039 -0.1076  0.0702
  103SAPE  H17X10552   1.801   0.404   4.319 -0.8276  0.3322  0.9699
  103SAPE  H17Y10553   1.780   0.239   4.255  0.7605  0.5360 -0.6275
  103SAPE  C31810554   1.620   0.301   4.393  0.1060  0.0642  0.0127
  103SAPE  H18X10555   1.568   0.204   4.376 -0.3127  0.1822  0.6156
  103SAPE  H18Y10556   1.545   0.382   4.394  0.0862  0.0497  1.1095
  103SAPE  H18Z10557   1.673   0.292   4.490 -3.5505  1.8723  2.3944
  104SAPE     N10558   2.799   4.055   2.070  0.3329  0.5041  0.2716
  104SAPE   HN110559   2.713   4.088   2.118 -0.2775  0.2683 -0.6350
  104SAPE   HN210560   2.880   4.050   2.136 -0.7769 -0.5561  1.5938
  104SAPE   HN310561   2.821   4.130   2.001 -0.0944  0.9935  0.6610
  104SAPE   C1210562   2.758   3.918   2.007  0.9610  0.1535 -0.5354
  104SAPE  H12A10563   2.850   3.881   1.956 -0.2913  0.4246 -3.1609
  104SAPE  H12B10564   2.687   3.941   1.925  0.5582 -2.4282 -0.9929
  104SAPE   C1110565   2.708   3.822   2.110  0.0445 -0.6335 -0.6049
  104SAPE  H11A10566   2.708   3.726   2.054  1.6498 -0.5473 -0.7864
  104SAPE  H11B10567   2.612   3.861   2.150  0.7577  1.4092 -0.7352
  104SAPE     P10568   2.808   3.685   2.314  0.0200  0.1089  0.5371
  104SAPE   O1310569   2.788   3.559   2.232 -0.4773 -0.0511 -0.9850
  104SAPE   O1410570   2.933   3.699   2.393 -0.1067 -0.6928  0.1721
  104SAPE   O1210571   2.798   3.813   2.219 -0.4277  0.4718  0.6973
  104SAPE   O1110572   2.686   3.702   2.414 -0.8142 -0.0855 -0.3892
  104SAPE    C110573   2.650   3.818   2.496  0.2962  0.1307  0.3405
  104SAPE    HA10574   2.701   3.913   2.469  1.2265 -0.7080 -0.9515
  104SAPE    HB10575   2.540   3.829   2.498  0.3579  0.7094  1.6757
  104SAPE    C210576   2.690   3.793   2.649 -0.4806  0.1266  0.0873
  104SAPE    HS10577   2.657   3.878   2.713  0.1561  0.8334 -0.4931
  104SAPE   O2110578   2.833   3.782   2.667  0.1416  0.0322 -0.1053
  104SAPE   C2110579   2.906   3.893   2.648  0.1110  0.4743 -0.4999
  104SAPE   O2210580   2.868   3.993   2.593 -0.1141  0.0843  0.6063
  104SAPE   C2210581   3.038   3.879   2.727  0.3106  0.1597 -0.6220
  104SAPE   H2R10582   3.106   3.805   2.679  0.3821  0.5350 -1.1085
  104SAPE   H2S10583   3.096   3.974   2.725 -0.9317  0.9649  0.3905
  104SAPE    C310584   2.623   3.669   2.720 -0.0219 -0.3751  0.8798
  104SAPE    HX10585   2.656   3.580   2.662 -0.4166  0.5276 -0.7932
  104SAPE    HY10586   2.514   3.683   2.704  0.2441  0.6304 -0.1120
  104SAPE   O3110587   2.662   3.660   2.856  0.1761 -0.0641 -0.3866
  104SAPE   C3110588   2.754   3.569   2.891  0.5857 -0.0924  0.2368
  104SAPE   O3210589   2.791   3.479   2.821 -0.2832  0.2820 -0.0032
  104SAPE   C3210590   2.805   3.588   3.031  0.1307 -0.2920  0.1252
  104SAPE   H2X10591   2.721   3.583   3.103 -1.0406 -0.3898 -1.1989
  104SAPE   H2Y10592   2.847   3.691   3.031  1.0186 -0.5993 -1.9054
  104SAPE   C2310593   3.010   3.834   2.876 -0.4833 -0.5750 -0.1272
  104SAPE   H3R10594   3.106   3.818   2.931  1.1970  1.4248 -2.2532
  104SAPE   H3S10595   2.969   3.731   2.873  1.3237 -1.3002 -1.3572
  104SAPE   C2410596   2.927   3.927   2.965 -0.7351  0.1468  0.0134
  104SAPE   H4R10597   2.921   3.880   3.065  0.1068  0.1453  0.0708
  104SAPE   H4S10598   2.820   3.939   2.937 -0.6058  0.8017 -0.2236
  104SAPE   C2510599   2.976   4.068   2.971  0.1871 -0.3121 -0.4208
  104SAPE   H5R10600   2.955   4.127   2.881  0.4850  0.1739 -0.1739
  104SAPE   C2610601   3.035   4.129   3.079 -0.2263 -0.1104  0.0222
  104SAPE   H6R10602   3.058   4.237   3.075 -2.0100  0.4323  2.1247
  104SAPE   C2710603   3.062   4.062   3.212  0.0424 -0.1356  0.3636
  104SAPE   H7R10604   3.045   3.953   3.216  0.8861 -0.3096 -0.3466
  104SAPE   H7S10605   2.984   4.106   3.278 -2.0569 -0.9281 -1.5001
  104SAPE   C2810606   3.206   4.086   3.258  0.4628  0.6101 -0.1908
  104SAPE   H8R10607   3.280   4.075   3.178 -0.2371 -0.7508 -0.6623
  104SAPE   C2910608   3.237   4.109   3.386 -0.3510  0.0095 -0.2874
  104SAPE   H9R10609   3.346   4.127   3.387 -0.8380  3.8330 -1.3007
  104SAPE  C21010610   3.149   4.122   3.507 -0.1812  0.6111 -0.5073
  104SAPE  H10R10611   3.097   4.029   3.537  0.3427  0.5520  0.2582
  104SAPE  H10S10612   3.077   4.202   3.478  0.8104  1.4352 -0.7949
  104SAPE  C21110613   3.231   4.173   3.625 -0.2338 -0.1544  0.2535
  104SAPE  H11R10614   3.337   4.203   3.619 -0.6419  1.1645 -0.9281
  104SAPE  C21210615   3.185   4.181   3.748 -0.3974  0.8156  0.3424
  104SAPE  H12R10616   3.260   4.226   3.815  0.3472  3.6478 -2.2079
  104SAPE  C21310617   3.057   4.142   3.814 -0.9168 -0.1358  0.3262
  104SAPE  H13R10618   3.070   4.032   3.820  0.5995  0.0018  0.0359
  104SAPE  H13S10619   2.970   4.155   3.746 -0.9329  1.2442  0.5720
  104SAPE  C21410620   3.037   4.208   3.942  0.6083  0.8150 -0.9000
  104SAPE  H14R10621   2.950   4.275   3.939  0.8450  1.1451 -0.4831
  104SAPE  C21510622   3.098   4.186   4.063  0.0084 -0.4893  0.4883
  104SAPE  H15R10623   3.067   4.249   4.147  0.3612  0.0957  0.1919
  104SAPE  C21610624   3.214   4.098   4.103  0.4690  0.4176 -0.3870
  104SAPE  H16R10625   3.268   4.055   4.016  1.0306  1.1934 -0.4365
  104SAPE  H16S10626   3.164   4.018   4.161 -1.9959  0.4105 -2.3548
  104SAPE  C21710627   3.309   4.167   4.204  0.4484  0.7674 -0.3515
  104SAPE  H17R10628   3.236   4.207   4.277 -0.4140 -0.6175 -0.4405
  104SAPE  H17S10629   3.367   4.247   4.153 -1.2213  1.3486 -1.4163
  104SAPE  C21810630   3.403   4.072   4.291 -0.4313  0.2885  0.4861
  104SAPE  H18R10631   3.464   4.015   4.217 -0.3064  0.4362  0.4755
  104SAPE  H18S10632   3.345   3.996   4.347  1.3660 -2.0412 -0.6435
  104SAPE  C21910633   3.492   4.147   4.394 -0.4682 -0.3146 -0.2786
  104SAPE  H19R10634   3.559   4.079   4.452 -0.1975 -1.8872 -2.3134
  104SAPE  H19S10635   3.426   4.188   4.474 -2.4222 -2.1451 -0.8627
  104SAPE  C22010636   3.580   4.259   4.333  0.2702 -0.7636  0.2032
  104SAPE  H20R10637   3.644   4.219   4.252  1.5470 -1.9787  1.7365
  104SAPE  H20S10638   3.648   4.297   4.412  1.3274 -2.8479  0.3621
  104SAPE  H20T10639   3.516   4.331   4.277  2.2353 -0.9111 -2.3869
  104SAPE   C3310640   2.911   3.481   3.066 -0.3410 -0.7779 -0.5466
  104SAPE   H3X10641   3.000   3.479   2.998  0.4424  2.8612  0.1972
  104SAPE   H3Y10642   2.862   3.382   3.063 -1.1379 -0.3690 -1.2359
  104SAPE   C3410643   2.987   3.502   3.206 -0.2766  0.2388  0.7327
  104SAPE   H4X10644   3.036   3.409   3.242 -0.3127  0.4250  1.2677
  104SAPE   H4Y10645   2.905   3.525   3.278 -0.7604 -1.6125  0.8215
  104SAPE   C3510646   3.079   3.616   3.200  0.3975  0.5070 -0.2208
  104SAPE   H5X10647   3.029   3.715   3.198  0.4630  0.5474 -2.7587
  104SAPE   H5Y10648   3.142   3.602   3.110 -0.8094 -1.2156 -0.8554
  104SAPE   C3610649   3.164   3.626   3.328  0.7513  0.0333  0.2015
  104SAPE   H6X10650   3.236   3.710   3.317 -1.5780  2.2376  0.7063
  104SAPE   H6Y10651   3.226   3.533   3.334 -0.1471 -0.5994 -0.1381
  104SAPE   C3710652   3.094   3.640   3.468 -0.0333  0.4552  0.9186
  104SAPE   H7X10653   3.024   3.558   3.491 -0.1616  1.0721  2.8805
  104SAPE   H7Y10654   3.044   3.738   3.485 -0.1293  0.1658  2.4307
  104SAPE   C3810655   3.208   3.660   3.574 -0.0044 -0.5920  0.2633
  104SAPE   H8X10656   3.293   3.719   3.534  0.7217 -1.4254  0.5666
  104SAPE   H8Y10657   3.246   3.556   3.584 -0.4513 -0.9068 -1.0983
  104SAPE   C3910658   3.171   3.715   3.711  0.5825 -0.3968  0.0533
  104SAPE   H9X10659   3.066   3.686   3.729 -0.4178  3.1434  0.6441
  104SAPE   H9Y10660   3.159   3.826   3.712  0.0066 -0.4434 -0.6735
  104SAPE  C31010661   3.256   3.670   3.826 -0.2218 -0.8278  0.3845
  104SAPE  H10X10662   3.366   3.685   3.822 -0.4290  0.9787  0.6009
  104SAPE  H10Y10663   3.245   3.560   3.832 -1.5923 -0.7266 -0.0242
  104SAPE  C31110664   3.220   3.723   3.966  0.4349  0.1149 -0.6285
  104SAPE  H11X10665   3.241   3.832   3.975 -0.8056  0.4991 -1.9755
  104SAPE  H11Y10666   3.278   3.680   4.050 -1.0259  0.4385  0.5967
  104SAPE  C31210667   3.083   3.710   4.025 -0.0486  0.5137 -0.3796
  104SAPE  H12X10668   3.019   3.786   3.975 -0.2756  0.5497 -0.0390
  104SAPE  H12Y10669   3.099   3.746   4.129  0.5398  1.3857 -0.7578
  104SAPE  C31310670   3.018   3.568   4.028  0.3346  0.0272 -0.3077
  104SAPE  H13X10671   3.082   3.495   4.081  0.8177  1.2575  0.8630
  104SAPE  H13Y10672   2.999   3.531   3.925  1.0614 -2.4190  0.3757
  104SAPE  C31410673   2.884   3.573   4.108 -0.9706 -1.0341 -1.4317
  104SAPE  H14X10674   2.807   3.633   4.055  0.6124  0.4390 -2.1598
  104SAPE  H14Y10675   2.895   3.647   4.189 -1.5444  0.5733 -2.7723
  104SAPE  C31510676   2.825   3.431   4.144 -0.5073 -0.3035  0.8259
  104SAPE  H15X10677   2.911   3.369   4.176  0.8343  0.9314 -0.2305
  104SAPE  H15Y10678   2.791   3.368   4.059 -1.4342  0.8509  0.3012
  104SAPE  C31610679   2.717   3.440   4.249  0.8304  0.2050  0.1492
  104SAPE  H16X10680   2.744   3.518   4.324  2.6718  0.3912 -0.6476
  104SAPE  H16Y10681   2.718   3.339   4.296  0.8229 -0.0256 -0.3471
  104SAPE  C31710682   2.582   3.460   4.194  0.1899 -0.3424  0.6674
  104SAPE  H17X10683   2.566   3.387   4.112  0.9625  0.6214 -0.3805
  104SAPE  H17Y10684   2.578   3.554   4.135 -2.4848 -0.8999 -0.1645
  104SAPE  C31810685   2.475   3.452   4.301  0.2941 -0.0051 -0.2605
  104SAPE  H18X10686   2.415   3.360   4.282  1.6317 -0.8885 -0.3078
  104SAPE  H18Y10687   2.411   3.543   4.295  0.3791  0.0508 -0.3200
  104SAPE  H18Z10688   2.519   3.448   4.403  1.0601  1.6431 -0.4980
  105SAPE     N10689   0.850   5.219   1.614  0.2686 -0.0528  1.1504
  105SAPE   HN110690   0.799   5.186   1.699 -0.0825 -1.4263  0.4516
  105SAPE   HN210691   0.838   5.142   1.545  1.7364 -0.1922  1.0206
  105SAPE   HN310692   0.951   5.230   1.631  1.2256  1.0792 -3.7978
  105SAPE   C1210693   0.800   5.356   1.565 -0.5740  0.4872  0.2855
  105SAPE  H12A10694   0.689   5.356   1.558 -0.6144 -0.1106  0.8445
  105SAPE  H12B10695   0.842   5.377   1.464  0.4409 -0.0771  0.5726
  105SAPE   C1110696   0.835   5.461   1.667  0.9188  0.3897 -0.0518
  105SAPE  H11A10697   0.776   5.442   1.759  0.8334  0.6197 -0.0582
  105SAPE  H11B10698   0.796   5.550   1.612  1.0980 -0.2791 -1.2847
  105SAPE     P10699   1.013   5.613   1.772 -0.7076  0.0039  0.2540
  105SAPE   O1310700   1.147   5.649   1.721 -0.4968  0.0901 -0.1450
  105SAPE   O1410701   0.906   5.713   1.754 -0.1439  0.5957 -0.0854
  105SAPE   O1210702   0.976   5.475   1.700  0.2676 -0.1340  0.0467
  105SAPE   O1110703   1.038   5.582   1.923  0.7374  0.2983 -0.2883
  105SAPE    C110704   1.045   5.453   1.979 -1.1091  0.0495  0.6661
  105SAPE    HA10705   0.946   5.403   1.970 -0.1450 -1.5416 -2.6591
  105SAPE    HB10706   1.112   5.386   1.921 -0.8491 -0.0005  1.0191
  105SAPE    C210707   1.094   5.466   2.124  0.2541  0.3115 -0.3520
  105SAPE    HS10708   1.104   5.368   2.174  3.4700  0.2693 -0.8362
  105SAPE   O2110709   1.019   5.565   2.202  0.2966 -0.0774  0.2680
  105SAPE   C2110710   0.917   5.509   2.260  0.1535  0.1250  0.5950
  105SAPE   O2210711   0.882   5.392   2.266 -0.4535  0.3566  0.2407
  105SAPE   C2210712   0.839   5.621   2.328 -0.0700  0.4465 -0.4239
  105SAPE   H2R10713   0.851   5.720   2.281 -0.7675  0.9038  0.3336
  105SAPE   H2S10714   0.736   5.583   2.309  0.7211 -2.2746  0.1827
  105SAPE    C310715   1.242   5.508   2.107  0.3902  0.3300 -0.4453
  105SAPE    HX10716   1.235   5.613   2.072  3.6859  0.7091 -0.2358
  105SAPE    HY10717   1.293   5.451   2.027  0.4739  0.2085 -0.3056
  105SAPE   O3110718   1.311   5.499   2.236 -0.3654  0.2743  0.3234
  105SAPE   C3110719   1.371   5.388   2.263 -0.3199  0.6686 -0.1025
  105SAPE   O3210720   1.365   5.285   2.199 -0.5624 -0.0841  0.2217
  105SAPE   C3210721   1.458   5.401   2.381 -0.2817  0.8278  0.2299
  105SAPE   H2X10722   1.531   5.478   2.347  1.2557 -2.1170 -3.9136
  105SAPE   H2Y10723   1.501   5.299   2.390 -2.3535 -0.2771 -1.6501
  105SAPE   C2310724   0.847   5.620   2.482  0.0650 -0.2988 -0.1517
  105SAPE   H3R10725   0.830   5.518   2.523  0.9014 -1.9659 -3.5440
  105SAPE   H3S10726   0.770   5.685   2.528 -0.3956 -1.4688  0.8013
  105SAPE   C2410727   0.987   5.659   2.533  0.8132 -1.3526 -0.2133
  105SAPE   H4R10728   1.068   5.598   2.489  1.9971  1.1574 -1.7757
  105SAPE   H4S10729   0.991   5.631   2.640  0.7792  0.4078  0.2781
  105SAPE   C2510730   1.018   5.806   2.511 -0.0874  0.2902  0.5402
  105SAPE   H5R10731   1.068   5.826   2.415 -3.2966  0.3654 -1.2601
  105SAPE   C2610732   1.006   5.902   2.605 -0.3745  0.0226  0.2976
  105SAPE   H6R10733   1.034   6.006   2.579 -1.3270  0.1701 -0.1674
  105SAPE   C2710734   0.957   5.884   2.750  0.0225 -0.0616 -0.5797
  105SAPE   H7R10735   0.859   5.831   2.754 -0.6506  1.1919 -0.1359
  105SAPE   H7S10736   0.943   5.985   2.793 -0.7564 -0.6310  0.5455
  105SAPE   C2810737   1.064   5.821   2.833 -0.3054 -0.3977  0.5086
  105SAPE   H8R10738   1.163   5.802   2.789 -0.3122 -2.0506  1.1274
  105SAPE   C2910739   1.037   5.768   2.953  0.1884  0.0045  0.4676
  105SAPE   H9R10740   1.128   5.726   2.999  2.5782  0.5666 -3.2967
  105SAPE  C21010741   0.898   5.752   3.011 -0.1822  0.6607 -0.3739
  105SAPE  H10R10742   0.838   5.681   2.950  0.1609  0.0782 -0.0495
  105SAPE  H10S10743   0.851   5.851   2.996  0.8871  1.0543 -1.2960
  105SAPE  C21110744   0.902   5.722   3.157 -0.3070 -0.3433 -0.2776
  105SAPE  H11R10745   0.905   5.614   3.175  0.4500 -0.5837 -1.7783
  105SAPE  C21210746   0.907   5.805   3.260  1.3769  0.2561 -0.0067
  105SAPE  H12R10747   0.927   5.777   3.364  1.6847 -0.9105 -0.3637
  105SAPE  C21310748   0.883   5.952   3.252  1.0283  0.0516 -0.8362
  105SAPE  H13R10749   0.909   5.991   3.151 -1.2054 -1.5035 -2.1101
  105SAPE  H13S10750   0.958   5.997   3.320 -1.2317  2.0762  0.4855
  105SAPE  C21410751   0.752   5.991   3.294 -0.1982 -0.1129  0.0625
  105SAPE  H14R10752   0.676   5.935   3.238 -1.8713 -1.1769  3.1619
  105SAPE  C21510753   0.716   6.092   3.384 -0.2617  0.3273  0.4692
  105SAPE  H15R10754   0.607   6.091   3.401 -0.5400  1.1529 -1.0710
  105SAPE  C21610755   0.795   6.173   3.476  0.0473 -0.4629  0.1660
  105SAPE  H16R10756   0.756   6.277   3.479 -0.3434 -0.5232 -1.7315
  105SAPE  H16S10757   0.896   6.192   3.435 -1.2510 -0.2596 -3.2756
  105SAPE  C21710758   0.789   6.112   3.621  1.2277 -0.1087  0.4601
  105SAPE  H17R10759   0.869   6.145   3.689 -1.4377  1.4457  3.0661
  105SAPE  H17S10760   0.801   6.002   3.606  0.9634 -0.0464 -0.2925
  105SAPE  C21810761   0.655   6.149   3.694  0.1346 -0.1657 -0.1031
  105SAPE  H18R10762   0.570   6.125   3.627 -0.6235  1.3567  0.2857
  105SAPE  H18S10763   0.666   6.257   3.715  0.5127 -0.0261 -0.9577
  105SAPE  C21910764   0.639   6.085   3.823  0.4747 -0.1850 -0.2414
  105SAPE  H19R10765   0.735   6.112   3.874 -0.4144  3.0807 -0.0611
  105SAPE  H19S10766   0.641   5.976   3.806  2.7372 -0.1490 -0.6150
  105SAPE  C22010767   0.526   6.125   3.907  0.5714 -0.0212 -0.6517
  105SAPE  H20R10768   0.523   6.072   4.004 -0.2868  1.1529 -0.0031
  105SAPE  H20S10769   0.428   6.124   3.854 -0.1577  0.4821  0.6490
  105SAPE  H20T10770   0.533   6.230   3.943 -1.7817 -0.3237  0.8258
  105SAPE   C3310771   1.380   5.434   2.507  0.0673 -0.5078 -0.4666
  105SAPE   H3X10772   1.303   5.515   2.505 -0.9285 -1.2253  2.6116
  105SAPE   H3Y10773   1.451   5.470   2.585 -0.9005  1.2630 -0.3370
  105SAPE   C3410774   1.297   5.320   2.558  0.9807  0.7717 -0.2329
  105SAPE   H4X10775   1.362   5.230   2.572  0.9142  0.8142  0.3656
  105SAPE   H4Y10776   1.215   5.303   2.485 -0.2830  3.0018  0.5543
  105SAPE   C3510777   1.239   5.350   2.702 -0.0812  0.0198  1.0352
  105SAPE   H5X10778   1.190   5.259   2.742 -0.5209 -0.4161 -0.4412
  105SAPE   H5Y10779   1.177   5.442   2.697  2.0448  1.5478  1.2539
  105SAPE   C3610780   1.340   5.393   2.809  0.5512 -0.2507  0.0670
  105SAPE   H6X10781   1.371   5.497   2.783 -1.4501  0.3182 -0.2491
  105SAPE   H6Y10782   1.434   5.334   2.808  1.6589  1.4340 -0.2693
  105SAPE   C3710783   1.283   5.402   2.947 -0.8894  0.5158 -0.8685
  105SAPE   H7X10784   1.242   5.303   2.974  4.0168 -0.7019  3.9940
  105SAPE   H7Y10785   1.192   5.464   2.936 -1.5888 -0.3858 -0.2597
  105SAPE   C3810786   1.374   5.442   3.066  0.2158 -0.2158 -0.3399
  105SAPE   H8X10787   1.410   5.546   3.049  1.0742 -0.3808  0.4135
  105SAPE   H8Y10788   1.469   5.386   3.075  1.4920  1.7835 -0.6976
  105SAPE   C3910789   1.286   5.431   3.193 -0.2708 -0.5000  0.3665
  105SAPE   H9X10790   1.243   5.329   3.196 -1.9921  0.1885  0.6728
  105SAPE   H9Y10791   1.202   5.501   3.176 -0.4879 -1.0328 -0.7987
  105SAPE  C31010792   1.366   5.448   3.326 -0.0602  0.1957 -0.1440
  105SAPE  H10X10793   1.413   5.548   3.320 -0.1727  0.2795  0.3726
  105SAPE  H10Y10794   1.442   5.366   3.325 -1.1090 -0.9542 -3.8335
  105SAPE  C31110795   1.294   5.440   3.464 -0.8748 -0.1498 -0.3827
  105SAPE  H11X10796   1.246   5.339   3.466 -0.8052 -0.2391 -1.8372
  105SAPE  H11Y10797   1.216   5.517   3.448 -0.3369  0.8947  1.7723
  105SAPE  C31210798   1.385   5.475   3.586 -0.1695 -0.6661  1.0343
  105SAPE  H12X10799   1.430   5.576   3.568 -1.8178 -0.2727 -1.2210
  105SAPE  H12Y10800   1.463   5.397   3.591 -0.5713 -1.1754 -0.3045
  105SAPE  C31310801   1.312   5.473   3.726 -1.0475  0.0034  0.4524
  105SAPE  H13X10802   1.276   5.371   3.750  0.2722 -0.7788 -0.7460
  105SAPE  H13Y10803   1.226   5.543   3.716 -2.0656 -1.4340 -1.5955
  105SAPE  C31410804   1.405   5.518   3.835 -0.5090 -0.1037 -0.0683
  105SAPE  H14X10805   1.466   5.602   3.796  2.0093 -2.0103 -0.4855
  105SAPE  H14Y10806   1.461   5.428   3.869 -0.2606  0.2178  0.3747
  105SAPE  C31510807   1.325   5.580   3.944  0.0075  0.1204  0.1432
  105SAPE  H15X10808   1.246   5.510   3.978  0.9822  0.4006  3.2811
  105SAPE  H15Y10809   1.281   5.675   3.905 -1.2484 -0.0256  1.1496
  105SAPE  C31610810   1.418   5.591   4.065 -1.0644  0.0332  0.5597
  105SAPE  H16X10811   1.516   5.638   4.044 -2.0571  2.0581  0.1983
  105SAPE  H16Y10812   1.427   5.490   4.112 -2.6407 -0.1376  0.5527
  105SAPE  C31710813   1.351   5.675   4.189 -0.3472  0.0937  0.4918
  105SAPE  H17X10814   1.257   5.626   4.224  0.2742 -0.3716  1.5601
  105SAPE  H17Y10815   1.337   5.774   4.140 -0.6114 -0.1541  0.0664
  105SAPE  C31810816   1.453   5.688   4.301 -1.1527  0.4595  1.3025
  105SAPE  H18X10817   1.413   5.752   4.382 -3.5621 -1.0750  1.4263
  105SAPE  H18Y10818   1.553   5.722   4.265 -1.4515  1.0372  1.0002
  105SAPE  H18Z10819   1.472   5.592   4.353  0.0098  0.4509  0.8960
  106SAPE     N10820   0.296   6.503   1.692  0.1261 -1.3592 -0.3160
  106SAPE   HN110821   0.391   6.465   1.674  0.4350 -1.2428  0.9577
  106SAPE   HN210822   0.291   6.605   1.672 -0.5729 -1.6005 -1.4948
  106SAPE   HN310823   0.284   6.499   1.796  0.4156  1.1164 -0.1346
  106SAPE   C1210824   0.195   6.421   1.622  0.5354 -0.4670  0.0009
  106SAPE  H12A10825   0.207   6.433   1.512 -0.8183 -1.0490 -0.2186
  106SAPE  H12B10826   0.097   6.462   1.652 -0.0321 -3.1265  2.1661
  106SAPE   C1110827   0.213   6.273   1.651  0.0932  0.4531  0.6622
  106SAPE  H11A10828   0.316   6.246   1.617 -0.4282 -0.1763 -0.4667
  106SAPE  H11B10829   0.149   6.201   1.596  1.6316 -1.1947  0.9148
  106SAPE     P10830   0.062   6.221   1.863 -0.5054  0.0445 -0.1525
  106SAPE   O1310831   0.025   6.352   1.920  0.1258 -0.6547 -0.3449
  106SAPE   O1410832  -0.035   6.158   1.774 -0.2330 -0.7430  0.0699
  106SAPE   O1210833   0.205   6.247   1.791 -0.2102  0.7353 -0.0578
  106SAPE   O1110834   0.101   6.116   1.974  0.7880  0.6699  0.0379
  106SAPE    C110835   0.182   6.152   2.083 -1.0872 -0.2012  0.1985
  106SAPE    HA10836   0.283   6.187   2.052 -2.3419  1.0466 -2.7444
  106SAPE    HB10837   0.142   6.233   2.148 -0.1159 -0.4931  1.1994
  106SAPE    C210838   0.209   6.035   2.183 -0.5418  0.5424  1.5021
  106SAPE    HS10839   0.248   5.940   2.141  0.3097  0.4755  2.4094
  106SAPE   O2110840   0.082   6.009   2.238 -0.4073  0.2399 -0.0485
  106SAPE   C2110841  -0.003   5.946   2.164  0.3260 -0.3441  0.1746
  106SAPE   O2210842   0.023   5.857   2.085  0.3739  0.3520 -0.0459
  106SAPE   C2210843  -0.141   5.985   2.211  0.1701 -0.1070  0.6616
  106SAPE   H2R10844  -0.156   6.089   2.175 -1.5590 -1.0150 -1.5085
  106SAPE   H2S10845  -0.210   5.909   2.169  0.9266 -1.0417  1.0886
  106SAPE    C310846   0.303   6.078   2.290  0.5765  0.3374 -0.0024
  106SAPE    HX10847   0.252   6.161   2.343  0.3382 -0.1563  0.5555
  106SAPE    HY10848   0.393   6.116   2.237  0.1614  0.3646 -0.7049
  106SAPE   O3110849   0.341   5.970   2.382 -0.4700 -0.1282 -0.4567
  106SAPE   C3110850   0.458   5.902   2.387  0.2072 -0.7656  0.3934
  106SAPE   O3210851   0.550   5.918   2.307  0.4565  0.1912  0.2547
  106SAPE   C3210852   0.462   5.810   2.509 -0.7882  0.0000  0.2303
  106SAPE   H2X10853   0.547   5.740   2.503 -0.6761  0.2586 -2.3213
  106SAPE   H2Y10854   0.365   5.756   2.510  0.4167 -2.8047 -4.4554
  106SAPE   C2310855  -0.161   5.997   2.368 -0.2493 -0.3386 -0.0376
  106SAPE   H3R10856  -0.096   5.922   2.417  0.7971  0.7631  0.3320
  106SAPE   H3S10857  -0.266   5.973   2.396 -0.5955 -0.2684 -1.2293
  106SAPE   C2410858  -0.127   6.135   2.421 -0.4543 -0.4050  0.1758
  106SAPE   H4R10859  -0.037   6.168   2.364 -2.2271  0.5140 -2.2715
  106SAPE   H4S10860  -0.093   6.108   2.523  1.6922 -4.3471 -1.3838
  106SAPE   C2510861  -0.229   6.237   2.422  0.7964 -0.4344 -0.3818
  106SAPE   H5R10862  -0.250   6.283   2.324 -0.0310 -1.6147 -0.7813
  106SAPE   C2610863  -0.312   6.276   2.527 -0.3849 -0.3634  0.3924
  106SAPE   H6R10864  -0.384   6.356   2.503  1.6358  0.7948 -2.3361
  106SAPE   C2710865  -0.311   6.229   2.673  0.1298  0.1120  0.1322
  106SAPE   H7R10866  -0.248   6.291   2.740  0.1371 -1.7853  2.0131
  106SAPE   H7S10867  -0.274   6.124   2.666 -1.1890 -0.3213 -0.9955
  106SAPE   C2810868  -0.450   6.215   2.726  0.3857 -0.1343  0.1700
  106SAPE   H8R10869  -0.524   6.168   2.659 -1.6244  2.1160  0.7062
  106SAPE   C2910870  -0.489   6.245   2.853 -0.5505  0.7969  0.6920
  106SAPE   H9R10871  -0.598   6.245   2.867 -1.0929 -0.9239 -2.6347
  106SAPE  C21010872  -0.411   6.295   2.967 -0.0987 -0.4108  0.1609
  106SAPE  H10R10873  -0.450   6.396   2.995  1.9271  0.1143  1.2913
  106SAPE  H10S10874  -0.303   6.309   2.944  0.4562 -1.0065  2.1549
  106SAPE  C21110875  -0.404   6.206   3.083 -0.9178  0.1178 -0.0985
  106SAPE  H11R10876  -0.431   6.102   3.060  0.2991 -0.5090  1.0977
  106SAPE  C21210877  -0.405   6.239   3.210  0.2840  0.0728 -0.2563
  106SAPE  H12R10878  -0.402   6.160   3.287 -0.0319  1.3640  1.1213
  106SAPE  C21310879  -0.390   6.376   3.271 -0.1181 -0.3933  0.2242
  106SAPE  H13R10880  -0.489   6.414   3.305  0.3032 -0.1017  1.1757
  106SAPE  H13S10881  -0.351   6.444   3.192  1.0278 -1.5230 -0.2154
  106SAPE  C21410882  -0.279   6.377   3.381 -0.6680 -0.0505  0.3331
  106SAPE  H14R10883  -0.175   6.378   3.343  0.7992  2.4032  3.8299
  106SAPE  C21510884  -0.294   6.375   3.516  0.4405  0.1852 -0.2846
  106SAPE  H15R10885  -0.210   6.365   3.586 -0.8285 -1.1942  1.1111
  106SAPE  C21610886  -0.430   6.385   3.598 -0.1517  0.0933 -0.3231
  106SAPE  H16R10887  -0.427   6.299   3.669 -1.3181 -1.3744 -1.9727
  106SAPE  H16S10888  -0.520   6.379   3.534 -2.6303  3.2134  2.5282
  106SAPE  C21710889  -0.449   6.517   3.677 -0.0574  0.1129 -0.1258
  106SAPE  H17R10890  -0.445   6.601   3.605 -1.2719 -1.3326 -1.9611
  106SAPE  H17S10891  -0.372   6.529   3.756 -0.7528 -1.1836  0.7967
  106SAPE  C21810892  -0.585   6.521   3.751  0.6011 -0.2160 -1.0524
  106SAPE  H18R10893  -0.603   6.430   3.811 -2.3046  0.5713 -0.6009
  106SAPE  H18S10894  -0.660   6.515   3.670 -0.8240 -3.0397  0.3396
  106SAPE  C21910895  -0.610   6.651   3.837 -0.2625 -0.2128 -0.2664
  106SAPE  H19R10896  -0.585   6.745   3.784  1.4798 -0.5103 -0.0110
  106SAPE  H19S10897  -0.544   6.659   3.926 -0.7106 -0.2502  0.0748
  106SAPE  C22010898  -0.752   6.671   3.874  0.1231 -0.6712 -0.6646
  106SAPE  H20R10899  -0.758   6.779   3.896 -1.4492 -0.6954 -0.8451
  106SAPE  H20S10900  -0.777   6.608   3.963  1.3529  0.3821  0.4680
  106SAPE  H20T10901  -0.823   6.638   3.795 -0.7955  1.4910 -0.8044
  106SAPE   C3310902   0.459   5.883   2.647  0.5269  0.2331  0.6814
  106SAPE   H3X10903   0.431   5.812   2.727  0.4837 -1.1413 -0.5339
  106SAPE   H3Y10904   0.388   5.968   2.662  1.8288  1.3347  0.8816
  106SAPE   C3410905   0.598   5.938   2.677  0.4025 -0.1587  0.0391
  106SAPE   H4X10906   0.640   5.995   2.591 -2.5109  2.0284 -0.0764
  106SAPE   H4Y10907   0.662   5.848   2.686  2.4333  1.1345 -0.6412
  106SAPE   C3510908   0.595   6.028   2.803  1.2029  0.1335  0.0429
  106SAPE   H5X10909   0.555   6.129   2.779 -1.6133 -0.9115 -0.0250
  106SAPE   H5Y10910   0.703   6.050   2.821  1.0867  0.5418  0.2716
  106SAPE   C3610911   0.528   5.973   2.928  0.1995  0.1698 -0.2846
  106SAPE   H6X10912   0.571   5.884   2.978 -0.2781  0.0921 -0.0007
  106SAPE   H6Y10913   0.429   5.936   2.891 -0.8633 -0.0105  2.5120
  106SAPE   C3710914   0.522   6.086   3.030  0.0574  0.0456 -0.2298
  106SAPE   H7X10915   0.504   6.185   2.984 -3.4419 -0.2842  0.1948
  106SAPE   H7Y10916   0.622   6.094   3.078 -0.6489 -0.3558  1.3815
  106SAPE   C3810917   0.407   6.052   3.132 -0.1460 -0.2757 -0.3598
  106SAPE   H8X10918   0.432   5.956   3.182  0.1384  0.7919  1.6675
  106SAPE   H8Y10919   0.306   6.050   3.087 -0.6095  0.3462  0.6128
  106SAPE   C3910920   0.396   6.170   3.232  0.5666 -0.4832 -0.1461
  106SAPE   H9X10921   0.371   6.263   3.176 -4.0743 -0.6234  1.2957
  106SAPE   H9Y10922   0.489   6.182   3.292  0.5578  0.6372 -0.3245
  106SAPE  C31010923   0.291   6.163   3.340  0.6777  0.1800 -0.1532
  106SAPE  H10X10924   0.186   6.156   3.303  0.4799  1.3090  0.1760
  106SAPE  H10Y10925   0.300   6.260   3.394  0.4260 -0.5018  1.1704
  106SAPE  C31110926   0.319   6.054   3.439 -0.0927  0.6498 -0.5100
  106SAPE  H11X10927   0.418   6.067   3.488  1.0083  0.3295 -2.5456
  106SAPE  H11Y10928   0.327   5.959   3.382  1.7659  1.4724 -1.7109
  106SAPE  C31210929   0.213   6.033   3.549  0.2579 -0.2031 -0.3369
  106SAPE  H12X10930   0.112   5.998   3.518  0.9803 -2.2476 -0.5577
  106SAPE  H12Y10931   0.202   6.131   3.599  0.9219 -0.8947  1.2110
  106SAPE  C31310932   0.257   5.933   3.660  0.7311 -0.3294  0.2951
  106SAPE  H13X10933   0.349   5.976   3.704 -0.1854 -0.1674  2.1212
  106SAPE  H13Y10934   0.285   5.835   3.615 -0.0811 -0.7394  0.6647
  106SAPE  C31410935   0.166   5.915   3.772  1.0481 -0.0128 -1.0797
  106SAPE  H14X10936   0.061   5.896   3.740 -0.0411  0.6383  1.8147
  106SAPE  H14Y10937   0.161   6.008   3.832 -2.8390 -2.0685  2.3403
  106SAPE  C31510938   0.204   5.798   3.866 -0.3416  0.3592 -0.1714
  106SAPE  H15X10939   0.284   5.825   3.938  0.5590 -3.2604  0.3918
  106SAPE  H15Y10940   0.246   5.720   3.798 -2.6958  0.1546 -1.4841
  106SAPE  C31610941   0.093   5.728   3.939 -0.1323 -0.4164 -0.2585
  106SAPE  H16X10942   0.063   5.636   3.884 -0.3648  0.6812 -2.0739
  106SAPE  H16Y10943   0.005   5.796   3.948  0.9313  0.6958  2.9906
  106SAPE  C31710944   0.126   5.686   4.080  0.0439  0.1199 -0.1225
  106SAPE  H17X10945   0.034   5.632   4.111  0.9451 -0.2441  2.1352
  106SAPE  H17Y10946   0.152   5.782   4.131 -1.9948  0.6718 -0.0274
  106SAPE  C31810947   0.241   5.585   4.109 -0.2576 -0.0743  0.2626
  106SAPE  H18X10948   0.265   5.512   4.030 -2.1698 -1.9630  1.3091
  106SAPE  H18Y10949   0.235   5.543   4.212 -0.0829 -0.5361  0.0839
  106SAPE  H18Z10950   0.334   5.646   4.111  0.5418 -1.1872 -1.4710
  107SAPE     N10951   2.912   3.362   2.075 -0.3704 -0.0897 -0.4456
  107SAPE   HN110952   2.866   3.405   2.158 -0.6824 -1.0214 -0.1195
  107SAPE   HN210953   2.840   3.353   2.001 -0.4118 -0.5136 -0.3547
  107SAPE   HN310954   2.945   3.265   2.090  0.4951  0.0800 -1.1782
  107SAPE   C1210955   3.023   3.457   2.021  0.8095 -0.1256 -0.3483
  107SAPE  H12A10956   2.975   3.556   2.032 -2.3762 -1.6314  0.6138
  107SAPE  H12B10957   3.037   3.428   1.915 -2.6631  0.9063 -1.2204
  107SAPE   C1110958   3.158   3.459   2.094 -0.2428 -0.0840 -0.0168
  107SAPE  H11A10959   3.231   3.515   2.032  0.3411  0.6973  1.3317
  107SAPE  H11B10960   3.194   3.355   2.108  0.6396  0.4882  2.8106
  107SAPE     P10961   3.262   3.508   2.325 -0.0253 -0.2067 -0.4003
  107SAPE   O1310962   3.205   3.488   2.458  0.0243  0.1109 -0.2247
  107SAPE   O1410963   3.375   3.419   2.282  0.4603  0.4061  0.1538
  107SAPE   O1210964   3.150   3.518   2.221  0.4406 -0.5981 -0.3576
  107SAPE   O1110965   3.315   3.660   2.322 -0.8803 -0.0385 -0.1000
  107SAPE    C110966   3.452   3.695   2.295  0.2367  0.1840 -0.5502
  107SAPE    HA10967   3.500   3.638   2.213 -0.5492 -1.9507  0.4097
  107SAPE    HB10968   3.458   3.802   2.265 -1.8240  0.2050 -1.0118
  107SAPE    C210969   3.535   3.690   2.429  0.7379 -0.4771  0.1154
  107SAPE    HS10970   3.622   3.759   2.429  0.8619 -0.6249 -0.5300
  107SAPE   O2110971   3.583   3.557   2.449  0.0825 -0.6941  0.1608
  107SAPE   C2110972   3.696   3.530   2.380 -0.7850 -0.6567  1.1412
  107SAPE   O2210973   3.759   3.617   2.313  0.9006  0.2279 -0.4179
  107SAPE   C2210974   3.723   3.381   2.395 -0.2575  0.5487  0.3837
  107SAPE   H2R10975   3.680   3.350   2.493 -0.4836  1.1398  0.4755
  107SAPE   H2S10976   3.669   3.331   2.312  0.5489 -0.9972  0.7587
  107SAPE    C310977   3.458   3.726   2.555 -0.3296  0.0550 -0.0429
  107SAPE    HX10978   3.395   3.637   2.575 -0.8167  0.6018  0.9573
  107SAPE    HY10979   3.385   3.804   2.524 -0.9295 -0.5677 -0.2142
  107SAPE   O3110980   3.542   3.769   2.674  0.3977 -0.2891  0.2532
  107SAPE   C3110981   3.468   3.758   2.785 -0.6844  0.4344 -0.1007
  107SAPE   O3210982   3.351   3.718   2.794  0.2987 -0.4942 -0.2691
  107SAPE   C3210983   3.555   3.780   2.906 -0.0328  0.1652  0.2868
  107SAPE   H2X10984   3.601   3.880   2.893 -1.1776  0.6360 -0.1961
  107SAPE   H2Y10985   3.619   3.689   2.910 -0.7425 -0.3756 -0.2910
  107SAPE   C2310986   3.870   3.341   2.390  0.0623 -0.4182 -0.2272
  107SAPE   H3R10987   3.908   3.384   2.295  0.8108  1.7228  0.9620
  107SAPE   H3S10988   3.884   3.231   2.391  1.1212 -0.3552 -2.1335
  107SAPE   C2410989   3.937   3.388   2.517 -0.0608 -0.1360  0.2630
  107SAPE   H4R10990   3.929   3.497   2.539  1.0422 -0.1256  0.7036
  107SAPE   H4S10991   4.045   3.362   2.508 -0.1939 -0.8980  0.7925
  107SAPE   C2510992   3.897   3.307   2.636  0.6225 -0.1466  0.0338
  107SAPE   H5R10993   3.857   3.207   2.612  1.5556 -0.8046  1.0885
  107SAPE   C2610994   3.916   3.334   2.769 -0.9425  0.1601 -0.2422
  107SAPE   H6R10995   3.873   3.265   2.842  1.0357  0.9260  1.7740
  107SAPE   C2710996   3.965   3.462   2.840  0.2105 -0.1304  0.2951
  107SAPE   H7R10997   4.076   3.453   2.840  0.3128  0.8571  1.3634
  107SAPE   H7S10998   3.935   3.452   2.946 -2.0850 -0.0009 -0.2806
  107SAPE   C2810999   3.907   3.602   2.805  0.2641  0.5225  0.1169
  107SAPE   H8R11000   3.823   3.594   2.735 -1.3592 -2.0866  2.1369
  107SAPE   C2911001   3.963   3.718   2.843 -0.6587  1.0465 -1.2574
  107SAPE   H9R11002   3.916   3.813   2.812 -0.6352  1.8810  1.0754
  107SAPE  C21011003   4.081   3.739   2.935  0.4801 -0.1598  0.3211
  107SAPE  H10R11004   4.177   3.697   2.897 -0.4206 -2.3331  0.2820
  107SAPE  H10S11005   4.069   3.676   3.026 -0.6374 -1.0617 -0.4183
  107SAPE  C21111006   4.106   3.882   2.963  0.7206 -0.2891  0.0451
  107SAPE  H11R11007   4.138   3.936   2.873 -0.5906 -0.3929 -0.4912
  107SAPE  C21211008   4.118   3.941   3.089  0.0483  0.7751  0.0221
  107SAPE  H12R11009   4.125   4.051   3.097 -1.4293  0.7160  3.5555
  107SAPE  C21311010   4.094   3.873   3.217  0.2281  0.1150 -0.1825
  107SAPE  H13R11011   4.187   3.869   3.278  1.7411 -0.8624 -2.4422
  107SAPE  H13S11012   4.071   3.765   3.205 -1.8844  0.5975 -1.0006
  107SAPE  C21411013   3.992   3.945   3.303 -0.8230  0.6450  0.2249
  107SAPE  H14R11014   3.885   3.925   3.287 -1.0876  1.5763  0.7453
  107SAPE  C21511015   4.019   4.053   3.377 -0.3758  1.2316  0.0114
  107SAPE  H15R11016   3.938   4.085   3.443 -2.0110 -1.6369 -0.4100
  107SAPE  C21611017   4.154   4.113   3.391  0.2350 -0.1791 -0.1571
  107SAPE  H16R11018   4.240   4.056   3.350  1.4354  1.6915 -0.3602
  107SAPE  H16S11019   4.179   4.132   3.497  0.1837 -1.2742  0.0677
  107SAPE  C21711020   4.162   4.253   3.324  0.5343  0.2370 -0.3654
  107SAPE  H17R11021   4.141   4.246   3.215 -2.1831 -2.8152  0.2098
  107SAPE  H17S11022   4.266   4.287   3.347 -0.4287  2.2156  1.4393
  107SAPE  C21811023   4.076   4.370   3.378 -0.5054  0.1459  0.0371
  107SAPE  H18R11024   3.965   4.365   3.370 -0.5155  1.2355 -0.6509
  107SAPE  H18S11025   4.112   4.461   3.326  1.4832 -0.1628  0.8107
  107SAPE  C21911026   4.108   4.396   3.527 -0.2010 -0.5660  0.2322
  107SAPE  H19R11027   4.218   4.408   3.534 -0.2444 -0.7740  1.4168
  107SAPE  H19S11028   4.091   4.301   3.582 -3.1073  0.8528  1.9620
  107SAPE  C22011029   4.035   4.515   3.584  0.4027  0.3010  0.0616
  107SAPE  H20R11030   4.081   4.612   3.557  0.9200 -0.1282 -0.6249
  107SAPE  H20S11031   4.019   4.507   3.694  1.2754 -1.1108  0.1129
  107SAPE  H20T11032   3.936   4.528   3.535  2.1682 -2.1150 -4.7742
  107SAPE   C3311033   3.478   3.798   3.037 -0.4627  0.8613  0.7179
  107SAPE   H3X11034   3.428   3.701   3.063 -1.2327  0.4782 -1.8590
  107SAPE   H3Y11035   3.396   3.873   3.030 -3.9749 -2.6126  0.8084
  107SAPE   C3411036   3.577   3.851   3.135 -0.5608  1.1576  0.6622
  107SAPE   H4X11037   3.614   3.947   3.092  0.8361  0.7114  0.7927
  107SAPE   H4Y11038   3.650   3.767   3.133 -2.7363 -0.8652 -2.6690
  107SAPE   C3511039   3.511   3.877   3.261  0.5070  0.1817 -0.1668
  107SAPE   H5X11040   3.456   3.787   3.296  0.1379  0.2276 -0.6112
  107SAPE   H5Y11041   3.438   3.960   3.253  0.0859 -0.2246 -0.6008
  107SAPE   C3611042   3.601   3.924   3.372  0.3520  0.1891  0.5008
  107SAPE   H6X11043   3.677   3.992   3.329  0.8131 -0.7888 -0.2632
  107SAPE   H6Y11044   3.667   3.841   3.405  0.8166  0.7164  0.9365
  107SAPE   C3711045   3.536   3.984   3.499 -0.2269  0.7244  0.1381
  107SAPE   H7X11046   3.443   3.932   3.531 -0.1677  0.9150  0.6295
  107SAPE   H7Y11047   3.521   4.094   3.503  0.8887  0.8440  2.0948
  107SAPE   C3811048   3.637   3.966   3.622 -0.3953  0.0037  0.0040
  107SAPE   H8X11049   3.731   4.015   3.588  0.2787 -1.1501  0.1796
  107SAPE   H8Y11050   3.667   3.859   3.620  2.3062  0.7002 -0.3468
  107SAPE   C3911051   3.589   4.002   3.763  0.1968 -0.3989 -0.3577
  107SAPE   H9X11052   3.508   3.928   3.781  1.3799 -1.7471 -0.4599
  107SAPE   H9Y11053   3.541   4.102   3.760 -0.0030 -0.5010 -0.6555
  107SAPE  C31011054   3.696   3.986   3.878  0.0564 -0.5091 -0.2311
  107SAPE  H10X11055   3.654   4.038   3.966  1.4442 -1.6484  1.1683
  107SAPE  H10Y11056   3.785   4.033   3.831 -0.6690  1.5131  0.3362
  107SAPE  C31111057   3.718   3.840   3.936 -0.0198  0.4975 -0.1696
  107SAPE  H11X11058   3.753   3.775   3.853 -0.0532 -0.9604  0.9173
  107SAPE  H11Y11059   3.617   3.805   3.967 -0.0573  0.9441  0.2272
  107SAPE  C31211060   3.819   3.840   4.053 -0.2404 -0.4447  0.7419
  107SAPE  H12X11061   3.908   3.896   4.018  0.8365 -1.9096  1.0688
  107SAPE  H12Y11062   3.845   3.735   4.077  0.1583  0.2649  3.7835
  107SAPE  C31311063   3.781   3.917   4.186  0.2408 -0.4627  0.1010
  107SAPE  H13X11064   3.676   3.897   4.217  0.1494 -0.0675  0.0547
  107SAPE  H13Y11065   3.788   4.021   4.147 -1.5854 -0.8782 -1.4806
  107SAPE  C31411066   3.876   3.899   4.309 -0.5127  0.5997  0.7361
  107SAPE  H14X11067   3.980   3.930   4.288 -1.5304  3.2239 -0.9991
  107SAPE  H14Y11068   3.877   3.795   4.349 -1.5556  0.7987  1.3298
  107SAPE  C31511069   3.829   3.984   4.426 -0.3823  0.1431  0.5838
  107SAPE  H15X11070   3.720   3.968   4.445 -0.9384  1.0463 -1.4652
  107SAPE  H15Y11071   3.823   4.095   4.416 -1.1491  0.0339 -0.3061
  107SAPE  C31611072   3.918   3.962   4.540 -0.9034  0.2354  0.2119
  107SAPE  H16X11073   4.027   3.980   4.526 -0.1371 -4.1895 -1.1036
  107SAPE  H16Y11074   3.919   3.854   4.563 -1.6411  0.0973 -0.3393
  107SAPE  C31711075   3.875   4.043   4.668  0.3121  0.0511 -0.5050
  107SAPE  H17X11076   3.766   4.027   4.683  0.7517 -2.3434  0.6467
  107SAPE  H17Y11077   3.879   4.152   4.649 -1.5964 -0.3776 -4.4355
  107SAPE  C31811078   3.951   4.000   4.789  0.5418 -0.0338 -0.3818
  107SAPE  H18X11079   4.056   3.977   4.761  0.9561  0.1317  0.9719
  107SAPE  H18Y11080   3.917   3.898   4.816 -1.5430  1.2032  2.0667
  107SAPE  H18Z11081   3.930   4.069   4.874  0.1237  2.1655 -2.1779
  108SAPE     N11082   0.104   4.749   1.641 -0.3493 -0.5206  0.8013
  108SAPE   HN111083   0.134   4.821   1.572 -0.9292  0.8820  1.9750
  108SAPE   HN211084   0.103   4.657   1.592 -1.2117  0.2476 -0.6976
  108SAPE   HN311085   0.011   4.786   1.670 -1.1087  0.4531 -2.3937
  108SAPE   C1211086   0.202   4.760   1.759  0.2130  0.5663 -0.5189
  108SAPE  H12A11087   0.307   4.749   1.727 -0.1209  2.4996 -2.5380
  108SAPE  H12B11088   0.167   4.681   1.830  0.4762  0.4683 -0.4984
  108SAPE   C1111089   0.198   4.900   1.826  0.4104 -0.4578 -0.2729
  108SAPE  H11A11090   0.251   4.902   1.923  1.6538  1.4817 -0.9337
  108SAPE  H11B11091   0.090   4.925   1.840  0.4229 -0.0475 -0.8640
  108SAPE     P11092   0.387   5.076   1.776 -0.2508  0.0911 -0.0743
  108SAPE   O1311093   0.508   4.989   1.764  0.4944  0.1283 -0.1135
  108SAPE   O1411094   0.371   5.196   1.688  0.3294  0.0469  0.2108
  108SAPE   O1211095   0.262   4.987   1.736 -0.0190 -0.0628  0.4808
  108SAPE   O1111096   0.361   5.136   1.930 -0.3101  0.9368  0.5671
  108SAPE    C111097   0.248   5.221   1.951  0.4560  0.6330 -0.0804
  108SAPE    HA11098   0.205   5.259   1.855  1.4506  0.1571 -0.7334
  108SAPE    HB11099   0.167   5.166   2.003 -0.1332  0.6280 -0.9644
  108SAPE    C211100   0.285   5.343   2.041 -0.5982 -0.0636 -0.4683
  108SAPE    HS11101   0.357   5.408   1.989  0.5162 -0.2557  0.7761
  108SAPE   O2111102   0.342   5.292   2.165  0.3749 -0.1703  0.4498
  108SAPE   C2111103   0.429   5.367   2.235  0.9770  0.0495 -0.3436
  108SAPE   O2211104   0.465   5.477   2.207  0.0457  0.2296  0.0323
  108SAPE   C2211105   0.477   5.280   2.347  0.1298 -0.3189 -0.2719
  108SAPE   H2R11106   0.397   5.214   2.385  0.2899 -0.6275 -0.4608
  108SAPE   H2S11107   0.560   5.212   2.315 -0.3535 -0.8677 -0.3845
  108SAPE    C311108   0.158   5.418   2.070  0.0654  0.1510 -0.5360
  108SAPE    HX11109   0.082   5.344   2.100  0.8089 -0.4218 -0.0086
  108SAPE    HY11110   0.116   5.479   1.988  0.5799 -0.2783 -1.1233
  108SAPE   O3111111   0.183   5.508   2.181 -0.3413 -0.0289  0.2812
  108SAPE   C3111112   0.074   5.563   2.231  0.3710 -0.6684 -0.0875
  108SAPE   O3211113  -0.040   5.545   2.195 -0.0399  0.7391 -0.3872
  108SAPE   C3211114   0.120   5.652   2.344 -0.1127 -0.3537 -0.3986
  108SAPE   H2X11115   0.042   5.732   2.348 -0.4472 -0.6361 -1.1142
  108SAPE   H2Y11116   0.217   5.696   2.312  1.5913 -2.1989  1.8825
  108SAPE   C2311117   0.523   5.351   2.470 -0.3105 -0.1021  0.9183
  108SAPE   H3R11118   0.440   5.367   2.542 -0.1613 -1.2514  1.3693
  108SAPE   H3S11119   0.558   5.453   2.445 -0.6605  0.1559  1.4760
  108SAPE   C2411120   0.620   5.267   2.554 -0.9823  0.2781 -0.3042
  108SAPE   H4R11121   0.578   5.164   2.559  0.7783 -0.5927 -1.8433
  108SAPE   H4S11122   0.626   5.316   2.653 -1.2926  1.2055 -0.7318
  108SAPE   C2511123   0.758   5.240   2.501 -0.0719  0.0681  0.1502
  108SAPE   H5R11124   0.779   5.251   2.393 -0.6326  1.9662  0.1982
  108SAPE   C2611125   0.865   5.226   2.586  0.3000 -0.5273  0.1370
  108SAPE   H6R11126   0.963   5.199   2.545  0.2875 -1.1962  0.5439
  108SAPE   C2711127   0.859   5.228   2.741  0.5962  0.3108  0.0784
  108SAPE   H7R11128   0.949   5.170   2.771  1.9706  2.0961 -0.4211
  108SAPE   H7S11129   0.767   5.176   2.775  0.4548 -0.5814 -1.5467
  108SAPE   C2811130   0.880   5.352   2.825 -0.2529  0.4627 -0.9742
  108SAPE   H8R11131   0.849   5.447   2.781  1.2201  2.2740  1.6282
  108SAPE   C2911132   0.915   5.343   2.959 -0.0248 -0.6510 -0.6789
  108SAPE   H9R11133   0.932   5.440   3.007 -1.5351  0.2999 -1.9570
  108SAPE  C21011134   0.953   5.221   3.040 -0.3890 -0.7809  0.2476
  108SAPE  H10R11135   1.051   5.248   3.086 -0.8043  2.0809 -0.4151
  108SAPE  H10S11136   0.977   5.133   2.976  2.3295  0.2784 -0.3109
  108SAPE  C21111137   0.853   5.182   3.145 -0.6082  0.9967  0.5584
  108SAPE  H11R11138   0.759   5.136   3.111  0.5805 -0.0810 -1.4960
  108SAPE  C21211139   0.868   5.219   3.275  0.0142 -0.6703  0.0607
  108SAPE  H12R11140   0.782   5.205   3.342 -0.3751 -1.6401 -0.6143
  108SAPE  C21311141   0.983   5.302   3.333  0.0252  0.5718 -0.1736
  108SAPE  H13R11142   1.041   5.360   3.258 -1.3694  1.3989 -0.6610
  108SAPE  H13S11143   1.052   5.222   3.368 -1.7926 -0.1445  2.0022
  108SAPE  C21411144   0.934   5.399   3.442  0.2056  0.2386 -0.5164
  108SAPE  H14R11145   0.882   5.490   3.409 -1.0879 -0.6277 -0.9342
  108SAPE  C21511146   0.940   5.390   3.579  0.0819  0.2458 -0.3403
  108SAPE  H15R11147   0.896   5.468   3.645 -1.6777 -1.4042  0.5281
  108SAPE  C21611148   1.003   5.273   3.659 -0.4135 -0.1856 -0.4026
  108SAPE  H16R11149   1.106   5.257   3.619 -0.7362 -0.9592 -0.9285
  108SAPE  H16S11150   0.944   5.181   3.644 -1.5011 -0.4326  4.0803
  108SAPE  C21711151   1.018   5.294   3.809  0.0616  0.6549  0.2836
  108SAPE  H17R11152   1.072   5.388   3.835  0.1781  0.2711  1.4837
  108SAPE  H17S11153   1.078   5.209   3.848  0.9175  0.5268 -1.2187
  108SAPE  C21811154   0.879   5.293   3.871  0.0590 -0.1338  0.2372
  108SAPE  H18R11155   0.813   5.236   3.802  1.1904 -0.6809 -0.4254
  108SAPE  H18S11156   0.840   5.396   3.883  0.8570  0.3135 -0.7726
  108SAPE  C21911157   0.873   5.211   4.004  0.6008  0.6161 -0.0804
  108SAPE  H19R11158   0.936   5.122   3.982 -0.9330 -0.1208 -1.8633
  108SAPE  H19S11159   0.771   5.174   4.029  1.3450 -0.1544  1.9873
  108SAPE  C22011160   0.926   5.287   4.126 -0.0523  0.3483  0.0276
  108SAPE  H20R11161   0.934   5.208   4.204 -0.0006 -0.2339 -0.5579
  108SAPE  H20S11162   0.846   5.360   4.153 -0.4658 -0.8424  2.2820
  108SAPE  H20T11163   1.019   5.339   4.094  0.2713 -0.4473 -0.3440
  108SAPE   C3311164   0.114   5.579   2.485  0.3631 -0.1932  0.9383
  108SAPE   H3X11165   0.203   5.513   2.495  0.5277 -0.0819  0.2654
  108SAPE   H3Y11166   0.023   5.515   2.481 -0.5356  1.0660  0.5883
  108SAPE   C3411167   0.110   5.679   2.598 -0.2443  0.3762 -0.9775
  108SAPE   H4X11168   0.135   5.782   2.562 -1.9872  0.7029 -1.3467
  108SAPE   H4Y11169   0.191   5.653   2.670  1.9437  2.1799 -2.6213
  108SAPE   C3511170  -0.032   5.673   2.671 -0.9450  0.2482  0.0527
  108SAPE   H5X11171  -0.106   5.684   2.589 -0.4764  0.5303 -0.3394
  108SAPE   H5Y11172  -0.034   5.571   2.715  0.9433 -1.5201 -3.5137
  108SAPE   C3611173  -0.041   5.781   2.777  1.6034 -0.9291  0.8519
  108SAPE   H6X11174  -0.021   5.884   2.740 -2.1242  0.2073  1.5572
  108SAPE   H6Y11175   0.020   5.760   2.867 -0.4085  1.3850  2.9149
  108SAPE   C3711176  -0.183   5.820   2.827  0.3479  0.5431  0.1557
  108SAPE   H7X11177  -0.250   5.738   2.860  1.7155  0.1330  2.1417
  108SAPE   H7Y11178  -0.233   5.859   2.736 -0.8435 -0.6694  0.2641
  108SAPE   C3811179  -0.188   5.926   2.940 -0.6413 -0.2900 -0.1896
  108SAPE   H8X11180  -0.291   5.965   2.921 -1.5163 -2.3810 -0.0873
  108SAPE   H8Y11181  -0.112   6.004   2.918  0.3581 -1.0268  0.5962
  108SAPE   C3911182  -0.169   5.862   3.076 -0.6319  0.0015  0.0929
  108SAPE   H9X11183  -0.123   5.941   3.141  2.2518 -0.6167 -1.0442
  108SAPE   H9Y11184  -0.086   5.788   3.074  1.4421  2.1598  0.1933
  108SAPE  C31011185  -0.290   5.800   3.135  0.4114  0.3559 -0.3052
  108SAPE  H10X11186  -0.334   5.720   3.072  2.5265 -1.9251  0.9130
  108SAPE  H10Y11187  -0.372   5.875   3.137  1.6617  1.7461  0.2843
  108SAPE  C31111188  -0.270   5.761   3.284  0.5083 -0.2313 -0.3576
  108SAPE  H11X11189  -0.215   5.839   3.340  1.1982  0.0287 -1.3569
  108SAPE  H11Y11190  -0.212   5.666   3.286 -0.6854 -1.1496 -3.4321
  108SAPE  C31211191  -0.400   5.736   3.353 -0.4718 -0.0075 -0.1030
  108SAPE  H12X11192  -0.466   5.665   3.299  1.2167 -1.6088 -0.1597
  108SAPE  H12Y11193  -0.451   5.835   3.354 -1.1463 -0.2679 -2.1993
  108SAPE  C31311194  -0.386   5.681   3.496  0.4351 -0.6167  0.1305
  108SAPE  H13X11195  -0.299   5.735   3.539 -1.5624  0.4804  3.1710
  108SAPE  H13Y11196  -0.384   5.570   3.491 -0.5612 -0.5815 -2.1151
  108SAPE  C31411197  -0.506   5.716   3.586 -0.3944 -0.1045 -0.1980
  108SAPE  H14X11198  -0.599   5.708   3.525 -2.1303  0.3708  2.2287
  108SAPE  H14Y11199  -0.500   5.827   3.592 -3.4902  0.0738  1.5648
  108SAPE  C31511200  -0.508   5.650   3.722  0.2009 -0.3312 -0.2595
  108SAPE  H15X11201  -0.543   5.545   3.706 -1.0142  0.1400 -0.7509
  108SAPE  H15Y11202  -0.582   5.690   3.794  0.8401 -0.3606  0.4313
  108SAPE  C31611203  -0.371   5.656   3.798 -0.5577  0.1584  0.2169
  108SAPE  H16X11204  -0.330   5.759   3.800  1.7843 -0.7070 -0.4608
  108SAPE  H16Y11205  -0.300   5.605   3.730 -1.7622 -2.7486  0.9962
  108SAPE  C31711206  -0.366   5.593   3.936 -0.0173 -0.6645 -0.1157
  108SAPE  H17X11207  -0.264   5.590   3.981 -0.5924  0.5461  1.3604
  108SAPE  H17Y11208  -0.404   5.490   3.928 -3.2461  0.3380  0.7792
  108SAPE  C31811209  -0.455   5.656   4.042  0.4366 -0.1729 -0.4239
  108SAPE  H18X11210  -0.562   5.656   4.011  0.4491  0.3059 -0.4668
  108SAPE  H18Y11211  -0.425   5.762   4.048  0.1226  0.1223 -2.9356
  108SAPE  H18Z11212  -0.444   5.611   4.143  0.0688 -0.6867 -0.6079
  109SAPE     N11213   0.125   2.751   1.954 -0.4286  0.7723  0.0452
  109SAPE   HN111214   0.053   2.733   1.882  0.3972 -1.5049 -0.2962
  109SAPE   HN211215   0.154   2.851   1.950 -0.1116  0.6399 -2.7726
  109SAPE   HN311216   0.218   2.711   1.928 -1.0621  0.3267 -1.6405
  109SAPE   C1211217   0.091   2.724   2.095  0.3319 -0.4641  0.0841
  109SAPE  H12A11218   0.004   2.788   2.122  1.2689  1.5107 -1.3985
  109SAPE  H12B11219   0.163   2.763   2.170 -1.9758 -1.6568  3.1560
  109SAPE   C1111220   0.058   2.573   2.107 -0.2420 -0.5711 -0.6188
  109SAPE  H11A11221  -0.035   2.541   2.054 -1.3904 -3.6802  2.8198
  109SAPE  H11B11222   0.037   2.562   2.215 -0.6065 -2.1723 -0.8223
  109SAPE     P11223   0.175   2.426   1.925  0.3328  0.2158 -0.0678
  109SAPE   O1311224   0.184   2.527   1.812  0.6783  0.5184 -0.0037
  109SAPE   O1411225   0.277   2.321   1.925  0.5368 -0.3477 -0.1277
  109SAPE   O1211226   0.176   2.497   2.067 -0.4258  0.7318  0.0019
  109SAPE   O1111227   0.038   2.352   1.929 -0.2907 -0.1507 -0.9589
  109SAPE    C111228   0.036   2.243   2.028 -0.5427 -0.3752  0.5452
  109SAPE    HA11229   0.075   2.150   1.982  1.4908 -0.2387  1.8846
  109SAPE    HB11230   0.100   2.253   2.118 -1.0664  1.2931  0.7820
  109SAPE    C211231  -0.108   2.232   2.076  0.3621 -0.0487 -0.2383
  109SAPE    HS11232  -0.174   2.200   1.992  0.6390 -0.3362 -0.3488
  109SAPE   O2111233  -0.145   2.352   2.138  0.0297  0.0866  0.5748
  109SAPE   C2111234  -0.266   2.399   2.103  0.0304 -0.0254  0.1238
  109SAPE   O2211235  -0.343   2.341   2.033  0.2082  0.2112  0.1057
  109SAPE   C2211236  -0.293   2.520   2.190 -0.3665  0.0375  0.4902
  109SAPE   H2R11237  -0.206   2.589   2.185  1.3216 -2.0558 -0.4675
  109SAPE   H2S11238  -0.376   2.575   2.140  0.2155  1.2725  0.8655
  109SAPE    C311239  -0.108   2.123   2.185 -0.4422 -0.0601 -0.6561
  109SAPE    HX11240  -0.053   2.163   2.273 -0.6918 -1.3947  0.1346
  109SAPE    HY11241  -0.061   2.029   2.148  0.8293 -1.1200  3.1480
  109SAPE   O3111242  -0.240   2.102   2.237 -1.2061 -0.0151  0.4406
  109SAPE   C3111243  -0.323   2.007   2.190 -1.0027 -0.2052  1.0927
  109SAPE   O3211244  -0.307   1.949   2.083 -0.6165  0.1053 -0.1255
  109SAPE   C3211245  -0.453   2.001   2.273  0.2399  0.5248  0.4077
  109SAPE   H2X11246  -0.537   1.961   2.213 -0.4965  1.0443  1.0788
  109SAPE   H2Y11247  -0.477   2.109   2.279  1.4747  0.8787 -0.4993
  109SAPE   C2311248  -0.325   2.484   2.339 -0.6892 -1.0399 -0.0408
  109SAPE   H3R11249  -0.309   2.577   2.397  0.0906 -0.2918 -1.4095
  109SAPE   H3S11250  -0.248   2.416   2.382  0.0501  1.1915  2.4810
  109SAPE   C2411251  -0.466   2.429   2.353 -0.2253  0.5472  0.1919
  109SAPE   H4R11252  -0.460   2.353   2.433  1.9552  1.2532  0.7458
  109SAPE   H4S11253  -0.493   2.385   2.254  0.6753  0.4063 -0.0016
  109SAPE   C2511254  -0.563   2.535   2.397  0.5577 -0.2689  0.1557
  109SAPE   H5R11255  -0.603   2.590   2.311 -1.8692 -0.6478  0.9629
  109SAPE   C2611256  -0.603   2.567   2.521 -0.4505 -0.3282  0.7312
  109SAPE   H6R11257  -0.654   2.664   2.537  0.5173  0.2984  0.0921
  109SAPE   C2711258  -0.568   2.506   2.651 -0.4244  0.9159  0.2924
  109SAPE   H7R11259  -0.549   2.397   2.639 -2.0546  0.8455 -2.5212
  109SAPE   H7S11260  -0.654   2.508   2.722  0.0282 -3.0098  1.1892
  109SAPE   C2811261  -0.439   2.571   2.703 -0.2235  0.5336 -0.1211
  109SAPE   H8R11262  -0.368   2.603   2.625 -1.0064 -0.5282 -1.3041
  109SAPE   C2911263  -0.405   2.592   2.834 -0.1512  0.5571  0.4444
  109SAPE   H9R11264  -0.303   2.632   2.843 -0.3439  1.0056  0.6198
  109SAPE  C21011265  -0.489   2.565   2.954  0.1083 -0.5510  0.2345
  109SAPE  H10R11266  -0.449   2.466   2.985  1.0897 -0.1472  0.3102
  109SAPE  H10S11267  -0.595   2.547   2.926 -0.8246 -1.3935  3.8361
  109SAPE  C21111268  -0.481   2.669   3.068  0.4023  0.4490 -0.0402
  109SAPE  H11R11269  -0.548   2.754   3.049 -0.2098  0.6372  2.6359
  109SAPE  C21211270  -0.416   2.658   3.189 -0.3326  0.1088 -0.3911
  109SAPE  H12R11271  -0.435   2.727   3.272 -2.5982 -0.3191 -0.4803
  109SAPE  C21311272  -0.335   2.534   3.224 -0.3832 -0.9658 -0.0820
  109SAPE  H13R11273  -0.317   2.463   3.141  2.9418  0.1430 -0.4184
  109SAPE  H13S11274  -0.398   2.478   3.298 -0.9374  0.7479  0.7972
  109SAPE  C21411275  -0.206   2.568   3.289 -0.4579  0.1248 -0.0015
  109SAPE  H14R11276  -0.166   2.660   3.243 -1.3600  0.7962  0.5083
  109SAPE  C21511277  -0.140   2.512   3.392  0.2416 -0.0111  0.1255
  109SAPE  H15R11278  -0.040   2.547   3.423  0.5115  1.4019 -2.0685
  109SAPE  C21611279  -0.175   2.387   3.470 -0.2343  0.1160 -0.4158
  109SAPE  H16R11280  -0.086   2.324   3.494 -1.6530 -1.5802  0.6799
  109SAPE  H16S11281  -0.246   2.320   3.417 -1.0869  2.4540 -2.3869
  109SAPE  C21711282  -0.240   2.422   3.612  0.6058  0.4910 -0.5985
  109SAPE  H17R11283  -0.178   2.502   3.658 -0.4287  2.0501 -1.8201
  109SAPE  H17S11284  -0.223   2.329   3.671 -0.9132  0.1548 -0.6437
  109SAPE  C21811285  -0.385   2.460   3.608  0.4209 -0.4293 -0.7342
  109SAPE  H18R11286  -0.444   2.388   3.546  0.5314 -0.7201 -0.5010
  109SAPE  H18S11287  -0.390   2.561   3.561  2.3282 -0.8213 -1.9274
  109SAPE  C21911288  -0.448   2.468   3.747  0.1200  0.1131 -0.5599
  109SAPE  H19R11289  -0.382   2.510   3.826  1.0352 -1.6038 -0.3575
  109SAPE  H19S11290  -0.466   2.361   3.773 -2.3179  0.3343 -1.1146
  109SAPE  C22011291  -0.585   2.531   3.757  1.0050 -0.3199 -0.0243
  109SAPE  H20R11292  -0.653   2.468   3.696  2.7579 -0.2684 -2.1459
  109SAPE  H20S11293  -0.598   2.631   3.711 -0.6321 -0.4526  0.0736
  109SAPE  H20T11294  -0.619   2.534   3.863 -2.3821 -2.1457 -0.9024
  109SAPE   C3311295  -0.432   1.934   2.408 -0.5018  0.3352 -0.6693
  109SAPE   H3X11296  -0.342   1.980   2.455 -1.6729  0.7550  1.2623
  109SAPE   H3Y11297  -0.405   1.826   2.408  0.0762  0.4729 -0.5016
  109SAPE   C3411298  -0.550   1.972   2.507  0.3889  0.0551  0.4432
  109SAPE   H4X11299  -0.554   2.083   2.504  1.7151  0.1151  0.2366
  109SAPE   H4Y11300  -0.518   1.940   2.608 -0.1421  0.1674  0.6452
  109SAPE   C3511301  -0.702   1.934   2.472 -0.8183  0.6138  0.4321
  109SAPE   H5X11302  -0.721   1.826   2.487 -0.6218  0.4891 -0.2249
  109SAPE   H5Y11303  -0.697   1.956   2.363  1.2547 -1.7749 -0.0377
  109SAPE   C3611304  -0.799   2.027   2.537 -0.5129 -0.6246  0.0502
  109SAPE   H6X11305  -0.793   2.018   2.648  0.9191  0.6363  0.1179
  109SAPE   H6Y11306  -0.901   1.996   2.508 -0.6828 -1.3770  1.3557
  109SAPE   C3711307  -0.781   2.178   2.509  0.8613  0.6065  0.4244
  109SAPE   H7X11308  -0.757   2.184   2.401 -2.5248  0.1861 -0.4723
  109SAPE   H7Y11309  -0.714   2.231   2.580  0.9783  1.1394 -0.0844
  109SAPE   C3811310  -0.908   2.272   2.514  0.4186  0.1626  0.4194
  109SAPE   H8X11311  -1.002   2.229   2.474 -0.0594  0.8734  0.7630
  109SAPE   H8Y11312  -0.874   2.359   2.453  0.3173  0.4526  0.7733
  109SAPE   C3911313  -0.930   2.325   2.654  1.1405 -0.3459  0.2461
  109SAPE   H9X11314  -0.984   2.423   2.645  1.1461 -0.2757  0.9555
  109SAPE   H9Y11315  -0.836   2.347   2.709  2.0127 -1.8145 -0.5812
  109SAPE  C31011316  -1.015   2.241   2.752 -0.4293  0.0432  0.5216
  109SAPE  H10X11317  -0.965   2.142   2.764  0.6373  0.5777  0.4970
  109SAPE  H10Y11318  -1.111   2.227   2.696  0.6040  0.6063 -1.4650
  109SAPE  C31111319  -1.026   2.301   2.897  0.3087 -0.7609 -0.0066
  109SAPE  H11X11320  -1.065   2.404   2.884  0.6834 -0.0822  3.4832
  109SAPE  H11Y11321  -0.931   2.299   2.954  0.6494 -5.2346 -0.3554
  109SAPE  C31211322  -1.131   2.225   2.977  0.5404 -0.4017 -0.0358
  109SAPE  H12X11323  -1.095   2.120   2.979 -0.0062 -0.6267  2.8598
  109SAPE  H12Y11324  -1.232   2.236   2.934  0.8754 -0.0475 -0.7396
  109SAPE  C31311325  -1.137   2.278   3.120  0.0363 -0.2824  0.0190
  109SAPE  H13X11326  -1.169   2.384   3.111  1.4169  0.0471 -1.6870
  109SAPE  H13Y11327  -1.039   2.282   3.173 -0.1541 -0.3603  0.3853
  109SAPE  C31411328  -1.228   2.192   3.204  0.7340  0.0271 -0.1413
  109SAPE  H14X11329  -1.166   2.114   3.254 -1.0539 -0.6538  1.1276
  109SAPE  H14Y11330  -1.307   2.138   3.147  0.9163 -0.3314 -0.0557
  109SAPE  C31511331  -1.310   2.274   3.307  0.1072  1.0134  0.0994
  109SAPE  H15X11332  -1.363   2.350   3.244  0.6850  0.5950 -0.9194
  109SAPE  H15Y11333  -1.253   2.310   3.395  1.0527 -1.3580  0.5264
  109SAPE  C31611334  -1.426   2.202   3.371  0.2847  0.5095 -0.4586
  109SAPE  H16X11335  -1.392   2.135   3.453 -0.5443 -1.5853 -1.7387
  109SAPE  H16Y11336  -1.482   2.135   3.302 -0.6177 -2.0731  2.5068
  109SAPE  C31711337  -1.534   2.295   3.424  0.2214  0.1455  0.1703
  109SAPE  H17X11338  -1.613   2.228   3.464 -1.7449  2.3350  0.2063
  109SAPE  H17Y11339  -1.585   2.353   3.344  0.3476 -0.7340 -0.5666
  109SAPE  C31811340  -1.489   2.383   3.543  0.6195 -0.0660  0.4310
  109SAPE  H18X11341  -1.422   2.464   3.506  0.8828 -0.0485  0.9346
  109SAPE  H18Y11342  -1.447   2.310   3.615 -0.7588  0.7543  2.1091
  109SAPE  H18Z11343  -1.585   2.414   3.589  0.9031 -0.1293  1.0656
  110SAPE     N11344   3.432   4.185   2.181  0.0459  0.2780  0.7870
  110SAPE   HN111345   3.406   4.258   2.111  2.4652  1.1243  0.6674
  110SAPE   HN211346   3.344   4.138   2.209  1.5602 -2.2145  1.6700
  110SAPE   HN311347   3.487   4.224   2.260  0.0399  1.3288  0.2951
  110SAPE   C1211348   3.502   4.081   2.092 -0.0404 -1.0233 -0.7479
  110SAPE  H12A11349   3.438   4.048   2.007 -0.1636 -2.5536 -0.1081
  110SAPE  H12B11350   3.523   3.989   2.151 -0.4326 -1.4688 -1.2875
  110SAPE   C1111351   3.628   4.150   2.035 -0.0338  0.1227 -0.5458
  110SAPE  H11A11352   3.620   4.250   1.986  3.3053  2.4889  3.1088
  110SAPE  H11B11353   3.664   4.081   1.955 -0.6942 -2.1409  1.0122
  110SAPE     P11354   3.826   4.268   2.163 -0.2783 -0.2818 -0.3901
  110SAPE   O1311355   3.918   4.265   2.047 -0.6904  0.0602 -0.1546
  110SAPE   O1411356   3.745   4.395   2.173 -0.0427  0.4924  0.5142
  110SAPE   O1211357   3.725   4.151   2.143  0.2446 -0.6263  0.1549
  110SAPE   O1111358   3.909   4.241   2.301  0.3547 -0.4296  0.4194
  110SAPE    C111359   3.879   4.137   2.394  0.0274 -0.4674 -0.1076
  110SAPE    HA11360   3.836   4.046   2.347  2.0237 -1.6772  0.2655
  110SAPE    HB11361   3.974   4.096   2.435  0.2121 -0.1366 -0.2085
  110SAPE    C211362   3.797   4.186   2.521 -0.0436 -0.4730  0.1628
  110SAPE    HS11363   3.699   4.220   2.480  0.7660 -1.8854 -3.3006
  110SAPE   O2111364   3.875   4.291   2.592  0.6189  0.3388 -0.3952
  110SAPE   C2111365   3.818   4.404   2.604  0.9104  0.0848  0.0168
  110SAPE   O2211366   3.704   4.428   2.566 -0.4484 -0.1371 -0.6714
  110SAPE   C2211367   3.886   4.498   2.701 -0.1447  0.0659 -0.4830
  110SAPE   H2R11368   3.915   4.588   2.644  1.7944  1.6305  2.6895
  110SAPE   H2S11369   3.815   4.525   2.782 -0.3090  0.2278 -0.6829
  110SAPE    C311370   3.758   4.067   2.625  0.3825 -0.5681  0.0052
  110SAPE    HX11371   3.704   3.984   2.574 -0.8426  0.6383 -0.7144
  110SAPE    HY11372   3.857   4.025   2.655 -0.1115 -0.3267  2.1248
  110SAPE   O3111373   3.694   4.111   2.745 -0.1401 -0.3440 -0.1716
  110SAPE   C3111374   3.565   4.114   2.734  0.4891 -0.1000  0.0271
  110SAPE   O3211375   3.502   4.092   2.628 -0.8205 -0.1029 -0.0774
  110SAPE   C3211376   3.506   4.150   2.875 -1.1949 -0.6862  0.3551
  110SAPE   H2X11377   3.593   4.159   2.944  0.4275  3.6644 -1.8772
  110SAPE   H2Y11378   3.431   4.077   2.911 -0.8338 -2.5939 -2.4468
  110SAPE   C2311379   4.022   4.444   2.749 -0.6300 -0.2434  0.5530
  110SAPE   H3R11380   4.103   4.495   2.692 -0.7233 -0.9248 -0.2000
  110SAPE   H3S11381   4.035   4.337   2.723  1.1613 -0.1054  0.7556
  110SAPE   C2411382   4.034   4.461   2.901  0.1671  0.6466 -0.0479
  110SAPE   H4R11383   3.952   4.405   2.950  1.1053 -0.5470  0.1892
  110SAPE   H4S11384   4.020   4.569   2.923 -1.9879  0.3397  0.2921
  110SAPE   C2511385   4.164   4.417   2.957 -0.4078 -0.0123  0.1728
  110SAPE   H5R11386   4.170   4.307   2.968 -3.1757 -0.2441  0.0670
  110SAPE   C2611387   4.279   4.487   2.969  0.3846 -0.0750  0.0265
  110SAPE   H6R11388   4.360   4.440   3.027  0.6557 -1.2602 -1.2726
  110SAPE   C2711389   4.300   4.635   2.943  0.7543  0.4575  0.6021
  110SAPE   H7R11390   4.211   4.690   2.979  0.8991  1.3069 -0.2854
  110SAPE   H7S11391   4.293   4.638   2.832 -1.3716 -1.5529  0.6234
  110SAPE   C2811392   4.429   4.704   2.983 -0.9018 -0.4222  0.0392
  110SAPE   H8R11393   4.495   4.744   2.904 -0.9689  2.5086  1.3737
  110SAPE   C2911394   4.469   4.728   3.110  0.5764  0.0542  0.2200
  110SAPE   H9R11395   4.565   4.781   3.120  1.1370  0.1123 -3.8901
  110SAPE  C21011396   4.386   4.697   3.237 -0.0506  0.5794  0.5783
  110SAPE  H10R11397   4.337   4.598   3.225 -1.6513  1.6010 -2.5859
  110SAPE  H10S11398   4.289   4.751   3.246  0.1813  0.8611  1.5109
  110SAPE  C21111399   4.480   4.703   3.352 -0.4152  0.0022  0.5104
  110SAPE  H11R11400   4.574   4.650   3.330  1.4355  3.2453 -0.0225
  110SAPE  C21211401   4.460   4.767   3.475  0.7816  0.5164 -0.0026
  110SAPE  H12R11402   4.543   4.769   3.548 -0.7716  1.2670  1.8096
  110SAPE  C21311403   4.344   4.853   3.518  0.0216 -0.0933  0.0551
  110SAPE  H13R11404   4.256   4.844   3.451  0.9920  0.8318 -1.3852
  110SAPE  H13S11405   4.381   4.958   3.518 -2.6040  0.9355  1.2793
  110SAPE  C21411406   4.303   4.822   3.658 -0.0619  0.0791  0.6623
  110SAPE  H14R11407   4.219   4.751   3.656 -0.7499  0.8731 -0.2125
  110SAPE  C21511408   4.372   4.845   3.775 -1.1197  0.0516 -0.4196
  110SAPE  H15R11409   4.327   4.827   3.873 -1.5768 -1.5182 -0.8930
  110SAPE  C21611410   4.500   4.928   3.793 -0.0235 -0.2356  0.4444
  110SAPE  H16R11411   4.556   4.922   3.698 -1.5639  0.8218 -0.5962
  110SAPE  H16S11412   4.560   4.878   3.872 -1.2135 -2.0248  0.2836
  110SAPE  C21711413   4.468   5.071   3.829 -0.1370 -0.2200  0.6127
  110SAPE  H17R11414   4.383   5.108   3.767 -1.6705 -2.9669  0.8989
  110SAPE  H17S11415   4.559   5.126   3.798  0.2665 -1.0536  0.2861
  110SAPE  C21811416   4.439   5.094   3.981 -0.5317  0.7753  0.3643
  110SAPE  H18R11417   4.455   5.196   4.020 -3.0406  1.5296 -0.3658
  110SAPE  H18S11418   4.508   5.030   4.040 -0.0727  1.0507  0.1297
  110SAPE  C21911419   4.295   5.064   4.028 -0.5625  0.0997  0.4680
  110SAPE  H19R11420   4.276   4.957   4.005  0.5684  0.6228 -3.6252
  110SAPE  H19S11421   4.225   5.127   3.969 -0.0127  1.2529  1.0171
  110SAPE  C22011422   4.256   5.102   4.177 -0.1332  0.0259  0.7797
  110SAPE  H20R11423   4.148   5.122   4.195 -0.1563  1.2408 -0.5413
  110SAPE  H20S11424   4.305   5.193   4.216 -1.3597  1.2498 -0.4420
  110SAPE  H20T11425   4.300   5.017   4.234  0.2756 -0.9731 -0.9320
  110SAPE   C3311426   3.422   4.283   2.868 -0.0500 -0.3863 -0.1941
  110SAPE   H3X11427   3.314   4.261   2.876 -0.0572  0.1496  1.6960
  110SAPE   H3Y11428   3.436   4.334   2.771  0.9473  1.6150  0.9182
  110SAPE   C3411429   3.454   4.382   2.984 -0.1287 -0.0029  0.2577
  110SAPE   H4X11430   3.403   4.480   2.972 -1.5213 -0.3981  2.4106
  110SAPE   H4Y11431   3.561   4.408   2.973  0.2154 -1.0181  1.0204
  110SAPE   C3511432   3.426   4.337   3.123  0.0716  0.9535 -0.3180
  110SAPE   H5X11433   3.472   4.237   3.137  0.8421  1.2446 -0.6691
  110SAPE   H5Y11434   3.316   4.324   3.137  0.4410 -1.6607  0.8775
  110SAPE   C3611435   3.490   4.426   3.227  0.3519 -0.4126 -0.7922
  110SAPE   H6X11436   3.450   4.528   3.214  0.0732 -0.6604 -2.0203
  110SAPE   H6Y11437   3.598   4.433   3.199 -0.3794  1.4913 -3.4945
  110SAPE   C3711438   3.471   4.377   3.370  0.0528 -0.4595 -0.1360
  110SAPE   H7X11439   3.524   4.280   3.385 -1.1305 -1.0072  0.6619
  110SAPE   H7Y11440   3.362   4.370   3.392  0.2724  0.0773  1.2100
  110SAPE   C3811441   3.538   4.475   3.478 -0.0591 -0.3205 -0.1769
  110SAPE   H8X11442   3.508   4.581   3.472 -2.2236 -0.5144  3.8383
  110SAPE   H8Y11443   3.643   4.476   3.443 -0.4215 -0.8589 -1.3378
  110SAPE   C3911444   3.527   4.430   3.620  0.0576 -0.3610 -0.1131
  110SAPE   H9X11445   3.538   4.319   3.615 -3.4946 -0.9955  2.3216
  110SAPE   H9Y11446   3.423   4.436   3.658  0.2130 -0.0045  0.2633
  110SAPE  C31011447   3.611   4.497   3.724  1.0330 -0.3629  0.5788
  110SAPE  H10X11448   3.556   4.591   3.748 -0.8948 -0.2072 -3.5563
  110SAPE  H10Y11449   3.715   4.520   3.694  0.7633  1.7773  1.1332
  110SAPE  C31111450   3.613   4.421   3.855  0.2668 -0.6884 -0.5675
  110SAPE  H11X11451   3.659   4.321   3.844  1.1065 -0.4346  0.4512
  110SAPE  H11Y11452   3.510   4.393   3.887 -0.2095  2.0378  0.6019
  110SAPE  C31211453   3.675   4.502   3.977 -0.1556  0.9584 -0.1590
  110SAPE  H12X11454   3.668   4.443   4.071 -0.5818  1.5537  0.1873
  110SAPE  H12Y11455   3.609   4.591   3.987 -0.8122  0.3179  1.6312
  110SAPE  C31311456   3.826   4.537   3.949 -0.5468 -0.3058 -0.5999
  110SAPE  H13X11457   3.837   4.625   3.882  3.4099  2.0894  2.6700
  110SAPE  H13Y11458   3.860   4.447   3.893  1.0267  0.7587 -1.4039
  110SAPE  C31411459   3.924   4.559   4.077  0.1132 -0.2750 -0.7453
  110SAPE  H14X11460   3.886   4.653   4.123  0.9214  0.0294 -0.6887
  110SAPE  H14Y11461   4.023   4.599   4.047 -0.3218  0.6042 -1.0635
  110SAPE  C31511462   3.952   4.445   4.171  0.5912  0.0432 -0.5463
  110SAPE  H15X11463   3.996   4.364   4.109  3.0706  1.4639 -0.7554
  110SAPE  H15Y11464   3.862   4.398   4.217  2.3899 -1.7219  1.3997
  110SAPE  C31611465   4.050   4.477   4.290  0.1341 -1.2663 -0.4418
  110SAPE  H16X11466   4.007   4.564   4.346  0.7245 -1.2349 -0.0253
  110SAPE  H16Y11467   4.145   4.512   4.245 -0.3948 -0.3966 -0.9167
  110SAPE  C31711468   4.084   4.355   4.366  0.0212  0.4727  0.3467
  110SAPE  H17X11469   4.123   4.276   4.299  1.1664  1.5670 -0.3418
  110SAPE  H17Y11470   3.992   4.314   4.412  1.0005 -1.6867  0.4656
  110SAPE  C31811471   4.182   4.380   4.476 -0.3368  0.2044  0.3127
  110SAPE  H18X11472   4.286   4.394   4.439  0.2549  0.7568  2.0575
  110SAPE  H18Y11473   4.182   4.300   4.554 -1.6043 -0.7979 -0.6924
  110SAPE  H18Z11474   4.146   4.477   4.516 -0.4606  0.2516  0.0847
  111SAPE     N11475   4.981   6.125   2.049  0.4559  0.5578  0.3067
  111SAPE   HN111476   4.960   6.225   2.027  1.2844  0.5466 -0.5942
  111SAPE   HN211477   5.029   6.097   1.961  1.0285  0.2677  0.7070
  111SAPE   HN311478   4.899   6.062   2.060 -0.2526  1.5231  0.7051
  111SAPE   C1211479   5.061   6.106   2.176 -0.5892 -0.0367 -0.1497
  111SAPE  H12A11480   5.019   6.181   2.247 -3.0449 -0.9008 -0.6123
  111SAPE  H12B11481   5.167   6.122   2.144 -0.0750 -0.3692  1.3230
  111SAPE   C1111482   5.048   5.965   2.234 -0.0743  0.5944  0.3230
  111SAPE  H11A11483   4.939   5.953   2.253  0.4285 -0.3855  3.0473
  111SAPE  H11B11484   5.102   5.965   2.331 -0.3496  2.7334  0.5281
  111SAPE     P11485   5.134   5.724   2.194  0.5933 -0.1267  0.1170
  111SAPE   O1311486   5.065   5.627   2.106  0.4425  0.0325  0.4656
  111SAPE   O1411487   5.280   5.732   2.195  0.5059 -0.4036  0.1310
  111SAPE   O1211488   5.092   5.858   2.138 -0.2596 -0.6395  0.1572
  111SAPE   O1111489   5.080   5.716   2.341  0.1205  0.6665  0.1580
  111SAPE    C111490   5.168   5.673   2.445  0.5143 -0.1216 -0.2860
  111SAPE    HA11491   5.275   5.693   2.421  0.7644  0.4921  1.2188
  111SAPE    HB11492   5.145   5.718   2.544 -3.4672  0.2922 -1.2221
  111SAPE    C211493   5.157   5.527   2.471 -0.0785 -0.1773 -0.1957
  111SAPE    HS11494   5.147   5.465   2.379 -0.0930 -1.5863  0.7296
  111SAPE   O2111495   5.037   5.510   2.549  0.2107 -0.4030  0.0813
  111SAPE   C2111496   4.989   5.391   2.571  0.2527 -0.2566  0.2390
  111SAPE   O2211497   5.037   5.283   2.557 -0.3004  0.0978 -0.4457
  111SAPE   C2211498   4.845   5.390   2.620 -0.6055  0.0291 -0.7306
  111SAPE   H2R11499   4.825   5.495   2.648  0.6961 -0.1482  1.0772
  111SAPE   H2S11500   4.778   5.354   2.539  0.4471 -1.1193 -1.1262
  111SAPE    C311501   5.270   5.471   2.561  0.5583 -0.2594  0.6443
  111SAPE    HX11502   5.355   5.500   2.496  1.0009 -1.9309  0.4287
  111SAPE    HY11503   5.274   5.360   2.560  2.1761 -0.2282  0.5630
  111SAPE   O3111504   5.281   5.525   2.692  0.3597  0.0004 -0.0529
  111SAPE   C3111505   5.358   5.460   2.783  1.0088  0.0530 -0.3877
  111SAPE   O3211506   5.431   5.370   2.753 -0.0217 -0.0363 -0.0690
  111SAPE   C3211507   5.347   5.527   2.926 -0.5006 -0.5513 -0.4071
  111SAPE   H2X11508   5.249   5.577   2.920 -0.4059 -0.4155 -0.8551
  111SAPE   H2Y11509   5.426   5.605   2.932 -0.3321 -0.8321  2.3295
  111SAPE   C2311510   4.831   5.297   2.746  0.1304 -0.2059 -0.6859
  111SAPE   H3R11511   4.911   5.333   2.814 -0.4383  0.7997 -0.5417
  111SAPE   H3S11512   4.846   5.193   2.708 -1.4279 -0.0742 -1.7456
  111SAPE   C2411513   4.702   5.313   2.821  0.1321  0.5588  0.5020
  111SAPE   H4R11514   4.684   5.422   2.814  1.0365  0.7190  0.5035
  111SAPE   H4S11515   4.716   5.271   2.923 -0.3916  0.9921  0.7515
  111SAPE   C2511516   4.587   5.232   2.754 -0.8974  0.0928 -0.1057
  111SAPE   H5R11517   4.594   5.216   2.646 -0.3963  2.1932 -0.4359
  111SAPE   C2611518   4.468   5.205   2.811 -0.7438  0.5333  0.1221
  111SAPE   H6R11519   4.402   5.141   2.750 -3.0063  1.3537  1.5626
  111SAPE   C2711520   4.427   5.229   2.951  0.3096 -0.1872 -0.9157
  111SAPE   H7R11521   4.404   5.336   2.968 -2.8250 -0.9523  0.3847
  111SAPE   H7S11522   4.509   5.194   3.017  0.2665  1.6789  0.2121
  111SAPE   C2811523   4.294   5.154   2.986 -0.3848 -0.1162 -0.3270
  111SAPE   H8R11524   4.254   5.097   2.902 -0.1930  1.1789 -1.3348
  111SAPE   C2911525   4.218   5.154   3.100 -0.8546 -1.2098 -0.1557
  111SAPE   H9R11526   4.119   5.107   3.102 -0.4554 -2.0588  0.2718
  111SAPE  C21011527   4.248   5.235   3.226 -0.4529 -0.0612  0.4122
  111SAPE  H10R11528   4.153   5.288   3.245 -0.8647 -0.8834  0.7031
  111SAPE  H10S11529   4.323   5.315   3.209 -1.1500  0.4424 -0.3581
  111SAPE  C21111530   4.284   5.159   3.352  0.4919  0.1984  0.1962
  111SAPE  H11R11531   4.311   5.052   3.347 -0.6599 -0.1132  0.4612
  111SAPE  C21211532   4.284   5.225   3.469  0.6646  0.2412 -0.3056
  111SAPE  H12R11533   4.304   5.167   3.561  0.7507  0.7195 -0.0218
  111SAPE  C21311534   4.261   5.366   3.490 -0.3782 -0.6251 -0.1796
  111SAPE  H13R11535   4.253   5.433   3.401  1.0553  0.2412  0.3132
  111SAPE  H13S11536   4.350   5.414   3.537 -0.6169  0.1839 -0.5318
  111SAPE  C21411537   4.140   5.394   3.574 -0.3196 -0.1703 -0.1963
  111SAPE  H14R11538   4.044   5.349   3.544  0.5889 -2.4901  0.1588
  111SAPE  C21511539   4.140   5.473   3.680  0.3541 -0.1619  0.5465
  111SAPE  H15R11540   4.042   5.482   3.727 -1.3148 -2.1526 -2.2034
  111SAPE  C21611541   4.245   5.545   3.755 -0.1520  0.2292  0.2413
  111SAPE  H16R11542   4.225   5.654   3.742  0.8645  0.2656 -1.4403
  111SAPE  H16S11543   4.344   5.524   3.709 -0.7245 -0.9170 -0.5187
  111SAPE  C21711544   4.250   5.507   3.898 -0.0184  0.4047  0.5412
  111SAPE  H17R11545   4.351   5.540   3.930  0.4816 -0.0852 -0.4702
  111SAPE  H17S11546   4.256   5.396   3.902  0.3785  0.4295  0.6068
  111SAPE  C21811547   4.145   5.576   3.988  1.1330 -0.2036 -0.1154
  111SAPE  H18R11548   4.043   5.539   3.967  0.7277  0.2768  0.9168
  111SAPE  H18S11549   4.156   5.685   3.974  2.1783  0.0545  2.1761
  111SAPE  C21911550   4.165   5.554   4.142  0.1954 -0.5019 -0.2081
  111SAPE  H19R11551   4.265   5.594   4.168 -0.9331  1.7092  1.0315
  111SAPE  H19S11552   4.161   5.448   4.175  3.9693 -1.0129 -0.9319
  111SAPE  C22011553   4.065   5.640   4.217 -0.5451 -0.1346  0.5163
  111SAPE  H20R11554   4.082   5.628   4.326 -1.4758 -1.7858  0.5170
  111SAPE  H20S11555   3.964   5.596   4.206 -0.5605 -0.5921  2.1746
  111SAPE  H20T11556   4.070   5.746   4.185  2.0205 -0.6004 -0.9443
  111SAPE   C3311557   5.370   5.426   3.043  0.4031  0.1121  0.3914
  111SAPE   H3X11558   5.474   5.388   3.038  0.4831  0.2390  1.0102
  111SAPE   H3Y11559   5.307   5.339   3.012  0.8869 -0.4452  0.9419
  111SAPE   C3411560   5.345   5.470   3.185  0.4140 -0.7787  0.1126
  111SAPE   H4X11561   5.245   5.514   3.208  1.4076  0.1910  2.8596
  111SAPE   H4Y11562   5.413   5.555   3.207 -0.7426  0.2703 -0.2565
  111SAPE   C3511563   5.371   5.366   3.286 -0.0112  0.1487 -0.8253
  111SAPE   H5X11564   5.417   5.410   3.377 -0.7324  1.2531 -0.9752
  111SAPE   H5Y11565   5.450   5.299   3.245  0.0457 -1.0769  1.1553
  111SAPE   C3611566   5.246   5.290   3.317  0.0825  0.0675  0.2234
  111SAPE   H6X11567   5.280   5.187   3.339  3.8664  0.9158 -0.9427
  111SAPE   H6Y11568   5.191   5.293   3.220  0.1599 -2.3915  0.0623
  111SAPE   C3711569   5.167   5.350   3.436  0.2620  0.5684 -0.0159
  111SAPE   H7X11570   5.077   5.284   3.444  1.0920 -0.8507 -1.7920
  111SAPE   H7Y11571   5.122   5.450   3.419  0.0838  0.9476  2.3930
  111SAPE   C3811572   5.232   5.351   3.570 -0.8485  1.0314 -0.3740
  111SAPE   H8X11573   5.321   5.417   3.565  0.8339 -1.1106 -0.3709
  111SAPE   H8Y11574   5.253   5.244   3.592  2.2094  1.3678 -1.2274
  111SAPE   C3911575   5.134   5.412   3.670 -0.2203 -0.2912 -0.7643
  111SAPE   H9X11576   5.033   5.366   3.661  0.0417 -0.8484 -0.9424
  111SAPE   H9Y11577   5.117   5.516   3.635 -0.1861 -0.5599 -1.6063
  111SAPE  C31011578   5.170   5.422   3.821  0.2552  0.3607 -0.3118
  111SAPE  H10X11579   5.163   5.318   3.859 -0.3663 -0.7681 -3.2742
  111SAPE  H10Y11580   5.090   5.465   3.884  0.8070 -0.2570  0.8482
  111SAPE  C31111581   5.296   5.503   3.852 -0.2968 -0.1291 -0.3521
  111SAPE  H11X11582   5.276   5.605   3.812 -0.5771  0.5306  1.3814
  111SAPE  H11Y11583   5.385   5.462   3.799 -1.2144 -2.6838 -0.0609
  111SAPE  C31211584   5.331   5.493   4.000 -0.4304 -0.1841 -0.1449
  111SAPE  H12X11585   5.323   5.384   4.018 -0.8794  0.1550  1.9282
  111SAPE  H12Y11586   5.254   5.541   4.064 -2.3349 -1.3999 -1.4339
  111SAPE  C31311587   5.471   5.556   4.031  0.6094  0.7002  0.2997
  111SAPE  H13X11588   5.459   5.666   4.019  0.8089  0.6133 -0.7597
  111SAPE  H13Y11589   5.541   5.515   3.956  0.5057 -2.6416  1.8139
  111SAPE  C31411590   5.513   5.549   4.178  0.1031 -0.2497 -0.8352
  111SAPE  H14X11591   5.436   5.592   4.246  1.2789  0.4074  0.1086
  111SAPE  H14Y11592   5.608   5.606   4.185  0.3527 -0.2935 -3.1821
  111SAPE  C31511593   5.549   5.405   4.239  0.1295 -0.2845  0.6264
  111SAPE  H15X11594   5.463   5.340   4.211 -0.7674  0.9263  0.4546
  111SAPE  H15Y11595   5.563   5.400   4.349  0.4109  0.0709  0.6075
  111SAPE  C31611596   5.672   5.345   4.179 -0.2977  0.1465  0.1164
  111SAPE  H16X11597   5.662   5.334   4.069 -2.2180 -0.7081  0.3362
  111SAPE  H16Y11598   5.687   5.238   4.206  0.8525  0.4731  0.8641
  111SAPE  C31711599   5.807   5.410   4.216  0.4683  0.1121  0.2650
  111SAPE  H17X11600   5.822   5.410   4.326 -0.5318  0.5059  0.4140
  111SAPE  H17Y11601   5.798   5.518   4.194 -0.5115 -0.3615 -1.9894
  111SAPE  C31811602   5.920   5.350   4.137 -0.1029 -0.0960  0.3293
  111SAPE  H18X11603   6.017   5.388   4.174 -1.7317  2.1308  2.6621
  111SAPE  H18Y11604   5.922   5.383   4.031 -0.6362 -2.8590 -0.6309
  111SAPE  H18Z11605   5.921   5.239   4.124 -0.5380 -0.1765  0.9512
  112SAPE     N11606   0.992   1.964   1.778  0.3634 -0.1707 -0.1870
  112SAPE   HN111607   1.061   2.014   1.718 -0.9437  0.8637 -0.8686
  112SAPE   HN211608   0.910   2.027   1.774 -0.7378 -1.3412  1.9009
  112SAPE   HN311609   1.037   1.957   1.872 -0.5208  1.7865  0.4260
  112SAPE   C1211610   0.963   1.833   1.700  1.0122  0.3424 -0.3675
  112SAPE  H12A11611   0.935   1.776   1.792 -1.3569  1.1575 -0.5099
  112SAPE  H12B11612   1.055   1.796   1.650  0.4607 -0.5140 -0.7714
  112SAPE   C1111613   0.832   1.832   1.612 -0.2863 -0.4193 -0.2942
  112SAPE  H11A11614   0.837   1.742   1.546  0.8787  1.5088 -3.0301
  112SAPE  H11B11615   0.836   1.917   1.541  1.7607 -0.3849 -0.2012
  112SAPE     P11616   0.633   1.950   1.736 -0.4234 -0.1996  0.0817
  112SAPE   O1311617   0.731   2.065   1.749  0.0827 -0.0699  0.2580
  112SAPE   O1411618   0.519   1.969   1.639 -0.0806 -0.2385  0.0070
  112SAPE   O1211619   0.717   1.829   1.696  0.1684  0.2511  0.3857
  112SAPE   O1111620   0.582   1.907   1.881  0.2047 -0.4124  0.1938
  112SAPE    C111621   0.529   1.776   1.898  0.0516  0.0853 -0.0875
  112SAPE    HA11622   0.432   1.765   1.844 -1.4346  0.1201  2.4083
  112SAPE    HB11623   0.597   1.692   1.873  2.6146  1.4495  1.7733
  112SAPE    C211624   0.488   1.762   2.051  0.8439 -0.1777  0.9499
  112SAPE    HS11625   0.401   1.828   2.072  0.3356 -0.3562 -0.5237
  112SAPE   O2111626   0.594   1.802   2.135 -0.4523 -0.2956 -0.1187
  112SAPE   C2111627   0.570   1.853   2.250 -0.0871  0.4664  0.2367
  112SAPE   O2211628   0.464   1.892   2.291  0.4425 -0.5702 -0.1429
  112SAPE   C2211629   0.694   1.869   2.329  0.4248  0.3128 -0.3321
  112SAPE   H2R11630   0.765   1.946   2.292 -0.0505  1.8407  1.7627
  112SAPE   H2S11631   0.657   1.899   2.429 -0.9082 -0.2550 -0.6332
  112SAPE    C311632   0.430   1.624   2.094  0.2491  0.4223 -0.4006
  112SAPE    HX11633   0.521   1.560   2.091 -0.2523 -0.4430  1.2162
  112SAPE    HY11634   0.363   1.579   2.019  3.6264 -0.7670 -2.9776
  112SAPE   O3111635   0.378   1.625   2.227 -0.3820 -0.3913 -0.9235
  112SAPE   C3111636   0.255   1.676   2.233  0.4570  0.3140  0.6583
  112SAPE   O3211637   0.182   1.709   2.142  0.4660 -0.9466  0.1074
  112SAPE   C3211638   0.211   1.698   2.377 -0.2891 -0.7949  0.8749
  112SAPE   H2X11639   0.101   1.682   2.377 -0.2771 -1.9070 -2.8165
  112SAPE   H2Y11640   0.213   1.809   2.387  0.6465 -0.2940 -3.0972
  112SAPE   C2311641   0.771   1.739   2.335  0.4526  0.2488  0.8618
  112SAPE   H3R11642   0.875   1.758   2.371  0.4147  0.8685  0.6389
  112SAPE   H3S11643   0.793   1.690   2.238 -0.1439 -0.9823  1.3246
  112SAPE   C2411644   0.706   1.622   2.423 -0.6139 -0.6466  0.7588
  112SAPE   H4R11645   0.763   1.528   2.430  1.5930  0.5674 -0.0165
  112SAPE   H4S11646   0.607   1.610   2.373 -0.3659  0.9500 -0.1765
  112SAPE   C2511647   0.691   1.664   2.569 -0.4591  0.6887  0.4576
  112SAPE   H5R11648   0.597   1.719   2.589 -0.8748  0.0307  0.3249
  112SAPE   C2611649   0.769   1.645   2.680 -0.3043  0.3388 -0.1393
  112SAPE   H6R11650   0.730   1.686   2.775 -1.9836 -1.9686  0.2379
  112SAPE   C2711651   0.902   1.568   2.679 -0.0584  0.1364 -0.6565
  112SAPE   H7R11652   0.957   1.603   2.769 -1.4382  1.2901 -0.2299
  112SAPE   H7S11653   0.969   1.608   2.600 -1.8928  2.3044 -1.2151
  112SAPE   C2811654   0.891   1.425   2.662  0.3815 -0.2209  0.3969
  112SAPE   H8R11655   0.873   1.394   2.558  1.3678 -0.2191  0.2148
  112SAPE   C2911656   0.899   1.333   2.760 -0.4936 -0.6040  0.4458
  112SAPE   H9R11657   0.888   1.227   2.734  1.2951 -0.9663  1.0370
  112SAPE  C21011658   0.911   1.360   2.912 -0.6272  0.0494 -0.3798
  112SAPE  H10R11659   1.005   1.417   2.926 -2.0763  1.8298  3.4150
  112SAPE  H10S11660   0.931   1.269   2.971  0.1101  0.4573  0.0095
  112SAPE  C21111661   0.800   1.439   2.975  0.5686 -0.4557  0.5914
  112SAPE  H11R11662   0.696   1.420   2.944 -0.2379  2.6079  1.1178
  112SAPE  C21211663   0.816   1.505   3.089 -0.3656 -0.0818 -0.1103
  112SAPE  H12R11664   0.740   1.580   3.117  0.8912  1.6825 -1.1992
  112SAPE  C21311665   0.943   1.537   3.169 -0.5334 -0.1763  0.4091
  112SAPE  H13R11666   0.928   1.622   3.239  0.3035 -0.2909  0.7375
  112SAPE  H13S11667   1.020   1.576   3.098 -1.0453 -0.3629 -0.2604
  112SAPE  C21411668   1.002   1.416   3.232 -0.1630 -0.9272  0.2074
  112SAPE  H14R11669   1.041   1.343   3.160 -2.1268 -2.6629  0.8132
  112SAPE  C21511670   1.025   1.395   3.365  0.4750 -0.8050 -0.6521
  112SAPE  H15R11671   1.081   1.304   3.390  0.7947 -1.0651 -2.1614
  112SAPE  C21611672   1.004   1.481   3.492 -0.6836 -0.2838 -0.3025
  112SAPE  H16R11673   0.913   1.451   3.549 -2.3161  1.2764 -1.9618
  112SAPE  H16S11674   0.980   1.585   3.463 -2.5468 -0.9779 -1.4814
  112SAPE  C21711675   1.122   1.469   3.587  0.8294  0.2718 -0.0879
  112SAPE  H17R11676   1.218   1.505   3.545  0.6749  1.1370  0.2797
  112SAPE  H17S11677   1.132   1.363   3.619 -1.3108  0.2646  0.7358
  112SAPE  C21811678   1.077   1.520   3.721 -0.3475 -0.4250  0.2450
  112SAPE  H18R11679   0.987   1.470   3.763 -0.0118 -0.2890  1.1379
  112SAPE  H18S11680   1.062   1.630   3.719  0.7032 -0.2762  0.0462
  112SAPE  C21911681   1.176   1.491   3.832 -0.4435 -0.5299  0.3086
  112SAPE  H19R11682   1.275   1.498   3.782 -0.6598  1.0015  0.0232
  112SAPE  H19S11683   1.173   1.382   3.851  0.7985 -0.5919  0.2407
  112SAPE  C22011684   1.166   1.586   3.950 -0.1525  0.0415  0.4693
  112SAPE  H20R11685   1.236   1.560   4.032  0.8424 -1.5686 -0.7983
  112SAPE  H20S11686   1.061   1.580   3.985 -0.9923  0.2665 -1.7915
  112SAPE  H20T11687   1.177   1.693   3.923  0.0344 -0.2799 -0.8109
  112SAPE   C3311688   0.288   1.627   2.487 -0.1416  0.0053  0.4368
  112SAPE   H3X11689   0.398   1.629   2.471  0.3438 -1.6686  2.9399
  112SAPE   H3Y11690   0.263   1.519   2.487 -1.8320  0.3635  0.8810
  112SAPE   C3411691   0.259   1.688   2.630  0.3531 -0.1485  0.0428
  112SAPE   H4X11692   0.151   1.692   2.657  0.3034  0.1050 -0.1875
  112SAPE   H4Y11693   0.306   1.788   2.643 -0.5596  0.3506 -0.3660
  112SAPE   C3511694   0.337   1.604   2.729  0.4684 -0.2471 -0.0837
  112SAPE   H5X11695   0.441   1.591   2.694  1.1618 -1.0377  2.1276
  112SAPE   H5Y11696   0.289   1.504   2.731 -1.4096  0.5859  2.3772
  112SAPE   C3611697   0.327   1.657   2.871 -0.2993  0.4863  0.1816
  112SAPE   H6X11698   0.231   1.694   2.912  0.0350  0.0224  1.4375
  112SAPE   H6Y11699   0.392   1.746   2.882  1.7516 -0.4307 -2.9382
  112SAPE   C3711700   0.401   1.562   2.969 -0.3456 -0.2496 -0.3565
  112SAPE   H7X11701   0.500   1.543   2.923 -1.1595  1.6811 -3.1281
  112SAPE   H7Y11702   0.353   1.462   2.972  0.5861 -0.6978  1.7833
  112SAPE   C3811703   0.414   1.636   3.104 -0.5928 -0.0644  0.3324
  112SAPE   H8X11704   0.328   1.707   3.106  0.2674  1.1051 -1.4784
  112SAPE   H8Y11705   0.508   1.696   3.111  0.3654 -1.5424  0.5902
  112SAPE   C3911706   0.428   1.538   3.221  0.0947  0.0811 -0.6234
  112SAPE   H9X11707   0.534   1.505   3.226 -0.4298 -1.5172  0.9188
  112SAPE   H9Y11708   0.359   1.451   3.216 -1.1401  0.8411  1.8207
  112SAPE  C31011709   0.398   1.604   3.360 -0.5749  0.3302  0.4358
  112SAPE  H10X11710   0.398   1.526   3.440 -1.8065  0.1305  0.2652
  112SAPE  H10Y11711   0.307   1.667   3.365  0.4801  2.1326 -1.6631
  112SAPE  C31111712   0.509   1.709   3.416 -0.2173 -0.1565  0.2372
  112SAPE  H11X11713   0.510   1.779   3.330 -0.8687 -0.8470 -0.3524
  112SAPE  H11Y11714   0.601   1.651   3.438  0.1371  0.5241  0.5708
  112SAPE  C31211715   0.457   1.780   3.541  0.1106  0.6373 -0.5763
  112SAPE  H12X11716   0.439   1.709   3.625  1.5717 -0.7862 -1.4196
  112SAPE  H12Y11717   0.356   1.821   3.520 -0.0590 -0.9202 -3.2593
  112SAPE  C31311718   0.571   1.873   3.597 -0.7235  0.5217 -0.6846
  112SAPE  H13X11719   0.623   1.931   3.517 -0.0408 -0.6573 -1.1133
  112SAPE  H13Y11720   0.643   1.804   3.645  0.0317  1.1326 -0.9129
  112SAPE  C31411721   0.504   1.956   3.713 -0.0199 -0.6693 -0.4484
  112SAPE  H14X11722   0.438   1.885   3.766 -1.4238  1.1937  0.3926
  112SAPE  H14Y11723   0.436   2.033   3.670 -1.4001  0.9140  4.0291
  112SAPE  C31511724   0.601   2.012   3.819  0.2488  0.8420  0.0936
  112SAPE  H15X11725   0.696   2.041   3.769  1.1786 -2.3565 -0.1937
  112SAPE  H15Y11726   0.632   1.926   3.882  0.6893 -0.0611 -1.3022
  112SAPE  C31611727   0.557   2.145   3.884  0.2317 -0.2009  0.8595
  112SAPE  H16X11728   0.529   2.214   3.803 -2.3723 -1.9511  0.1594
  112SAPE  H16Y11729   0.639   2.202   3.934 -1.1057  0.9239  1.8331
  112SAPE  C31711730   0.446   2.130   3.989 -0.2272  0.6381 -0.3258
  112SAPE  H17X11731   0.482   2.063   4.070  1.8383 -1.4654 -2.7983
  112SAPE  H17Y11732   0.358   2.080   3.944  0.2548  0.4414 -1.0699
  112SAPE  C31811733   0.408   2.263   4.052  0.2392 -0.5959  0.0316
  112SAPE  H18X11734   0.346   2.326   3.984 -0.7854 -0.6783  0.8667
  112SAPE  H18Y11735   0.497   2.318   4.087  0.1531 -1.2931  1.3966
  112SAPE  H18Z11736   0.347   2.244   4.143 -0.9491  1.3316 -0.3024
  113SAPE     N11737   6.396   4.225   1.947  0.5127 -0.0141  0.8593
  113SAPE   HN111738   6.484   4.248   1.897 -0.3214  0.6685 -0.3423
  113SAPE   HN211739   6.400   4.278   2.036 -3.7127  0.4853  0.9522
  113SAPE   HN311740   6.402   4.124   1.973  4.6807 -0.4773 -1.1029
  113SAPE   C1211741   6.265   4.257   1.875 -0.5059  0.2110 -0.2655
  113SAPE  H12A11742   6.234   4.168   1.816  0.0932 -2.4198  3.0744
  113SAPE  H12B11743   6.291   4.336   1.801 -0.2761 -0.3870 -0.8475
  113SAPE   C1111744   6.155   4.297   1.974 -0.1410  0.6773  0.5025
  113SAPE  H11A11745   6.161   4.223   2.056  1.6477  2.0107  1.6598
  113SAPE  H11B11746   6.057   4.282   1.924  0.5235  0.0676 -0.6705
  113SAPE     P11747   6.053   4.486   2.121 -0.1200  0.2409  0.5958
  113SAPE   O1311748   5.958   4.568   2.044 -0.3510 -0.6060  0.3814
  113SAPE   O1411749   5.999   4.375   2.201  0.8048 -0.3543 -0.7675
  113SAPE   O1211750   6.167   4.432   2.020 -0.0687 -0.3384 -1.2018
  113SAPE   O1111751   6.133   4.593   2.208 -0.1645  0.1884  0.0696
  113SAPE    C111752   6.263   4.552   2.254  0.3399  0.2518 -0.1866
  113SAPE    HA11753   6.276   4.441   2.254  0.6629  0.2889 -0.4548
  113SAPE    HB11754   6.336   4.583   2.176 -0.3330 -0.1453 -1.0000
  113SAPE    C211755   6.291   4.600   2.401 -0.2032  0.8056  0.5017
  113SAPE    HS11756   6.214   4.552   2.465  1.5888  0.2462  2.3477
  113SAPE   O2111757   6.290   4.742   2.392  0.2012 -0.4739  0.3442
  113SAPE   C2111758   6.245   4.802   2.499  0.2984  0.0257 -0.2303
  113SAPE   O2211759   6.196   4.747   2.599  0.1038 -0.1082  1.0761
  113SAPE   C2211760   6.288   4.947   2.497 -0.3618  0.2172  0.6193
  113SAPE   H2R11761   6.343   4.967   2.592 -0.7322 -0.7938  1.0659
  113SAPE   H2S11762   6.361   4.962   2.415  0.0345 -0.4284  0.8445
  113SAPE    C311763   6.427   4.548   2.451 -0.0203 -0.1141 -0.1163
  113SAPE    HX11764   6.509   4.586   2.386  0.4949 -1.9024 -0.5573
  113SAPE    HY11765   6.427   4.440   2.427  1.8227 -0.2190  0.2419
  113SAPE   O3111766   6.437   4.582   2.592 -0.3975  0.5647  0.2934
  113SAPE   C3111767   6.438   4.481   2.675 -0.2853  0.3280 -0.1427
  113SAPE   O3211768   6.439   4.368   2.641  0.1557  0.2926 -0.6196
  113SAPE   C3211769   6.434   4.538   2.818  0.1477 -0.2446  0.5669
  113SAPE   H2X11770   6.382   4.636   2.814 -0.2213 -0.3852  1.7536
  113SAPE   H2Y11771   6.542   4.553   2.841  0.2112 -1.3437  1.0235
  113SAPE   C2311772   6.166   5.031   2.462 -0.5036 -0.9589  0.3551
  113SAPE   H3R11773   6.112   4.980   2.379  0.8445 -0.9679 -0.5482
  113SAPE   H3S11774   6.192   5.132   2.423 -0.3803  0.6564  4.1607
  113SAPE   C2411775   6.079   5.056   2.584  0.4683 -0.2429 -0.5070
  113SAPE   H4R11776   6.036   4.966   2.634 -1.7548  0.0850 -1.7383
  113SAPE   H4S11777   5.980   5.096   2.555 -0.1032 -0.5229  0.9655
  113SAPE   C2511778   6.145   5.152   2.676  0.3768 -0.6181 -0.3684
  113SAPE   H5R11779   6.184   5.245   2.632  0.2043 -0.3946 -0.0591
  113SAPE   C2611780   6.157   5.141   2.818  0.4751 -1.0318  0.7197
  113SAPE   H6R11781   6.205   5.222   2.875 -0.9617  0.1704  0.2914
  113SAPE   C2711782   6.104   5.029   2.905  0.1535  0.8769 -0.4131
  113SAPE   H7R11783   5.999   5.015   2.872 -0.1950  2.1656  0.0753
  113SAPE   H7S11784   6.114   5.067   3.009  2.2664 -0.0465 -0.2122
  113SAPE   C2811785   6.194   4.905   2.890 -0.0897 -0.2263  0.3424
  113SAPE   H8R11786   6.193   4.863   2.788  1.4805 -1.6817  0.8714
  113SAPE   C2911787   6.278   4.841   2.976 -0.2268 -0.0086 -0.8239
  113SAPE   H9R11788   6.335   4.753   2.945 -1.1547 -1.0112  0.1959
  113SAPE  C21011789   6.291   4.881   3.129  0.0072 -0.6575  0.6546
  113SAPE  H10R11790   6.295   4.792   3.195 -0.9245 -0.6586  0.7258
  113SAPE  H10S11791   6.203   4.941   3.162  1.2572  0.3713  2.2528
  113SAPE  C21111792   6.418   4.958   3.150 -0.0611 -0.0296  0.1791
  113SAPE  H11R11793   6.492   4.950   3.069 -2.2770 -2.7530 -1.7566
  113SAPE  C21211794   6.461   5.000   3.267  0.2233 -0.2906  0.0247
  113SAPE  H12R11795   6.559   5.051   3.258 -1.8896  3.9109 -1.9988
  113SAPE  C21311796   6.390   4.999   3.396 -0.3145 -0.8784 -0.2510
  113SAPE  H13R11797   6.300   4.935   3.386  0.8723 -3.1507  2.2549
  113SAPE  H13S11798   6.375   5.105   3.429  0.2217 -1.5431  2.4323
  113SAPE  C21411799   6.476   4.941   3.503 -0.7793  0.0312 -0.6210
  113SAPE  H14R11800   6.477   4.832   3.511  0.2727 -0.0888 -1.9655
  113SAPE  C21511801   6.565   5.011   3.580  0.9284 -0.7644  0.1036
  113SAPE  H15R11802   6.626   4.953   3.651  1.4336 -0.2053  0.1337
  113SAPE  C21611803   6.576   5.162   3.588 -0.0564  0.2497  0.0825
  113SAPE  H16R11804   6.552   5.189   3.694 -2.0063  0.4040 -0.3501
  113SAPE  H16S11805   6.504   5.212   3.520 -1.0784 -0.9598  0.2411
  113SAPE  C21711806   6.721   5.205   3.566  0.1432  0.6061 -0.5095
  113SAPE  H17R11807   6.748   5.188   3.459 -0.2345 -1.0494 -0.3712
  113SAPE  H17S11808   6.784   5.148   3.637 -1.7086  0.4755  1.1155
  113SAPE  C21811809   6.744   5.354   3.579 -0.2989  0.3371 -0.1946
  113SAPE  H18R11810   6.718   5.371   3.685 -1.7904  1.6425 -0.7203
  113SAPE  H18S11811   6.674   5.420   3.522 -0.8024 -1.9779 -2.4793
  113SAPE  C21911812   6.892   5.393   3.554  0.8455  0.1018 -0.0176
  113SAPE  H19R11813   6.910   5.387   3.445  0.3747  0.1242 -0.0979
  113SAPE  H19S11814   6.962   5.325   3.608  0.2326 -0.4354  0.1069
  113SAPE  C22011815   6.919   5.533   3.603  0.6852 -0.3735  0.6902
  113SAPE  H20R11816   6.895   5.602   3.519 -0.8901 -1.4558  0.2149
  113SAPE  H20S11817   7.027   5.552   3.623  0.7034  0.1022  0.1645
  113SAPE  H20T11818   6.852   5.562   3.686 -1.1600  2.7985 -1.7131
  113SAPE   C3311819   6.372   4.427   2.912 -0.1654 -0.4369 -0.0666
  113SAPE   H3X11820   6.438   4.338   2.907  1.6162  0.8470 -0.1146
  113SAPE   H3Y11821   6.269   4.403   2.877 -1.4188  1.9169  1.6746
  113SAPE   C3411822   6.364   4.486   3.051 -0.1757 -0.2891 -0.5595
  113SAPE   H4X11823   6.307   4.412   3.111 -0.0622 -0.5009 -0.7111
  113SAPE   H4Y11824   6.313   4.585   3.048  0.6670  0.1979  0.7380
  113SAPE   C3511825   6.503   4.487   3.119  0.1008  0.2758 -0.7720
  113SAPE   H5X11826   6.572   4.538   3.049  1.5614  2.0758  1.7822
  113SAPE   H5Y11827   6.535   4.382   3.135 -0.7349  0.0244 -0.6994
  113SAPE   C3611828   6.501   4.545   3.261 -0.5385  0.2125 -0.9092
  113SAPE   H6X11829   6.460   4.647   3.269 -1.0626  0.0804 -1.7558
  113SAPE   H6Y11830   6.602   4.540   3.307 -1.1150 -0.8802  0.2786
  113SAPE   C3711831   6.420   4.470   3.365  0.6617  0.2296 -0.2421
  113SAPE   H7X11832   6.444   4.362   3.354  0.7136  0.3349 -1.2651
  113SAPE   H7Y11833   6.315   4.489   3.335  0.6326  0.1102 -0.2129
  113SAPE   C3811834   6.453   4.515   3.508 -0.3930  0.6083 -0.5546
  113SAPE   H8X11835   6.558   4.483   3.529 -1.2214 -0.4071  2.5562
  113SAPE   H8Y11836   6.473   4.624   3.512 -0.3565  0.6071 -0.6897
  113SAPE   C3911837   6.367   4.468   3.627 -0.7777  1.4853  0.5510
  113SAPE   H9X11838   6.404   4.367   3.656 -3.7510  0.9182  2.8267
  113SAPE   H9Y11839   6.261   4.454   3.598 -1.0714  1.5497  1.5798
  113SAPE  C31011840   6.363   4.568   3.751 -0.4220 -0.7470 -0.2458
  113SAPE  H10X11841   6.285   4.531   3.820 -0.6719 -0.7148 -0.5107
  113SAPE  H10Y11842   6.330   4.669   3.717  1.6936 -0.2516 -1.0191
  113SAPE  C31111843   6.487   4.598   3.826  0.4525  0.0107 -0.7043
  113SAPE  H11X11844   6.576   4.612   3.760  0.7957 -1.5387 -0.5998
  113SAPE  H11Y11845   6.520   4.521   3.900 -0.6434  0.3137  0.1278
  113SAPE  C31211846   6.469   4.726   3.912  0.4435  0.1290 -0.6693
  113SAPE  H12X11847   6.395   4.714   3.994  2.0483  0.6577  0.9211
  113SAPE  H12Y11848   6.429   4.812   3.854 -1.1583  0.5247  0.9367
  113SAPE  C31311849   6.603   4.784   3.968  0.2053 -0.0955  0.4850
  113SAPE  H13X11850   6.693   4.767   3.906  1.3119  0.5395  1.8759
  113SAPE  H13Y11851   6.633   4.718   4.052 -0.2165 -0.0984  0.6383
  113SAPE  C31411852   6.593   4.924   4.024 -0.3364 -0.5706  0.8835
  113SAPE  H14X11853   6.587   4.913   4.134 -0.1985 -0.3908  0.9069
  113SAPE  H14Y11854   6.514   4.991   3.984  2.4398  2.3485 -0.1032
  113SAPE  C31511855   6.722   5.001   3.997  0.5847 -0.1424  1.0110
  113SAPE  H15X11856   6.759   4.993   3.892  0.5414 -0.1000  0.9920
  113SAPE  H15Y11857   6.802   4.963   4.063  1.4046 -1.1818 -0.5267
  113SAPE  C31611858   6.714   5.156   4.017  0.1891  0.7125 -0.6310
  113SAPE  H16X11859   6.674   5.175   4.119  2.2430 -1.2972  0.6381
  113SAPE  H16Y11860   6.633   5.182   3.945  0.3733 -3.2219 -2.5362
  113SAPE  C31711861   6.843   5.233   4.000  0.1280 -0.3816  0.1846
  113SAPE  H17X11862   6.889   5.207   3.902  1.3368 -0.0490  0.6444
  113SAPE  H17Y11863   6.929   5.227   4.069  1.2933  2.6038 -0.8555
  113SAPE  C31811864   6.813   5.379   4.004  0.2365  0.7086  0.3074
  113SAPE  H18X11865   6.728   5.401   3.937  0.2700 -2.0562 -0.7961
  113SAPE  H18Y11866   6.900   5.430   3.959 -0.1645  1.6559  0.5823
  113SAPE  H18Z11867   6.796   5.423   4.105  2.1766  0.1875  0.9005
  114SAPE     N11868   3.763   5.275   2.219  0.2005 -0.0226 -0.3363
  114SAPE   HN111869   3.720   5.236   2.133 -0.5822  0.4955 -0.1951
  114SAPE   HN211870   3.799   5.371   2.202 -0.2218  0.6304  2.0289
  114SAPE   HN311871   3.842   5.212   2.243 -0.1735 -0.2310  0.3947
  114SAPE   C1211872   3.660   5.282   2.329  0.0748 -0.7008  0.1276
  114SAPE  H12A11873   3.714   5.323   2.417 -0.9150 -0.4788  0.6421
  114SAPE  H12B11874   3.606   5.187   2.347 -0.5930 -1.0058 -2.8403
  114SAPE   C1111875   3.539   5.374   2.285  0.0753 -0.2323 -0.0827
  114SAPE  H11A11876   3.476   5.392   2.375  1.0975 -1.0165  0.8244
  114SAPE  H11B11877   3.466   5.321   2.220 -5.1158  1.3838  3.7784
  114SAPE     P11878   3.541   5.572   2.114  0.0125  0.1720  0.2239
  114SAPE   O1311879   3.662   5.595   2.032 -0.7712  0.4304  0.3100
  114SAPE   O1411880   3.436   5.492   2.047  0.7400 -0.5620 -0.0132
  114SAPE   O1211881   3.588   5.500   2.245 -0.6349 -0.3778  0.2732
  114SAPE   O1111882   3.484   5.709   2.160 -0.5505 -0.2706 -0.5045
  114SAPE    C111883   3.401   5.719   2.279  1.0038 -0.2181  0.0906
  114SAPE    HA11884   3.348   5.815   2.259  0.0873 -1.4458 -4.2767
  114SAPE    HB11885   3.323   5.641   2.290 -0.4651  1.1650 -0.1167
  114SAPE    C211886   3.485   5.734   2.410  0.5293  0.0027 -0.2012
  114SAPE    HS11887   3.518   5.633   2.441  0.2289  0.1008  0.4508
  114SAPE   O2111888   3.399   5.797   2.502  0.1637  0.2225  0.5769
  114SAPE   C2111889   3.340   5.715   2.579  0.2018 -0.0540 -0.7317
  114SAPE   O2211890   3.334   5.596   2.559 -0.1506  0.5041 -0.4107
  114SAPE   C2211891   3.249   5.794   2.679  0.2956 -0.4105  0.4303
  114SAPE   H2R11892   3.275   5.902   2.679 -1.6078  0.0902  1.5824
  114SAPE   H2S11893   3.149   5.784   2.632  0.5057  0.6755 -0.3016
  114SAPE    C311894   3.609   5.823   2.391 -0.1940 -0.0728  0.0633
  114SAPE    HX11895   3.577   5.917   2.342 -2.7673  0.0862  1.8455
  114SAPE    HY11896   3.662   5.770   2.309 -0.7199  1.3797 -1.2684
  114SAPE   O3111897   3.694   5.847   2.507 -0.9909  0.7921  0.4262
  114SAPE   C3111898   3.762   5.743   2.549  0.3457 -0.1001  0.1680
  114SAPE   O3211899   3.756   5.629   2.508  0.0745  0.3998  0.3475
  114SAPE   C3211900   3.851   5.800   2.666  0.3884  0.1688  0.2612
  114SAPE   H2X11901   3.934   5.841   2.604 -2.0623  2.5239 -1.6835
  114SAPE   H2Y11902   3.874   5.713   2.732  2.0597  1.2405  1.1709
  114SAPE   C2311903   3.269   5.717   2.812 -0.2588  0.0548  0.4564
  114SAPE   H3R11904   3.225   5.616   2.805 -1.5853  0.4203  2.4644
  114SAPE   H3S11905   3.202   5.763   2.888 -2.3994 -2.6516  0.3713
  114SAPE   C2411906   3.405   5.720   2.878 -0.0658 -0.0922 -0.5657
  114SAPE   H4R11907   3.479   5.677   2.807 -0.6807 -1.8488 -0.1926
  114SAPE   H4S11908   3.398   5.657   2.969 -1.7689 -0.9275 -1.2155
  114SAPE   C2511909   3.452   5.859   2.906  0.1071 -0.7828  0.3941
  114SAPE   H5R11910   3.495   5.902   2.815 -0.2074 -1.8123 -0.2584
  114SAPE   C2611911   3.427   5.929   3.022  0.1919  0.4865  0.0124
  114SAPE   H6R11912   3.470   6.030   3.032 -1.6951  1.2557  0.9745
  114SAPE   C2711913   3.356   5.874   3.145  0.6695 -0.1336 -0.5911
  114SAPE   H7R11914   3.336   5.765   3.135  0.5779 -0.0208 -1.7850
  114SAPE   H7S11915   3.258   5.928   3.141  2.0250  2.5295 -0.0844
  114SAPE   C2811916   3.421   5.917   3.274  0.2483  0.2176 -0.2735
  114SAPE   H8R11917   3.510   5.860   3.305  1.6383  2.0972 -0.6258
  114SAPE   C2911918   3.382   6.029   3.350  0.0544 -0.6611  0.6606
  114SAPE   H9R11919   3.443   6.053   3.439 -2.3984  0.1341  2.2211
  114SAPE  C21011920   3.281   6.137   3.316  0.5854 -0.5791 -0.3269
  114SAPE  H10R11921   3.244   6.122   3.213  0.8953 -3.4798 -0.0802
  114SAPE  H10S11922   3.337   6.232   3.301 -0.4743  0.2279  0.6327
  114SAPE  C21111923   3.169   6.147   3.409  1.0559  0.6824  0.4333
  114SAPE  H11R11924   3.069   6.125   3.369 -0.2377  3.7657  1.6376
  114SAPE  C21211925   3.172   6.201   3.533  0.2423  0.1847 -0.3934
  114SAPE  H12R11926   3.082   6.212   3.595  0.2034 -0.0590 -0.4056
  114SAPE  C21311927   3.295   6.250   3.606  0.1067 -0.2183  0.1035
  114SAPE  H13R11928   3.389   6.243   3.548  1.4074 -2.3237  2.2637
  114SAPE  H13S11929   3.328   6.174   3.680 -1.0161 -1.5251 -0.6660
  114SAPE  C21411930   3.286   6.383   3.680 -0.5769 -0.1060  0.1359
  114SAPE  H14R11931   3.317   6.479   3.637 -0.4719  0.0995  0.6581
  114SAPE  C21511932   3.246   6.397   3.806  0.0439  0.0184 -0.0140
  114SAPE  H15R11933   3.246   6.497   3.852  0.3933 -0.1321  0.3153
  114SAPE  C21611934   3.205   6.274   3.893 -0.2564  0.6571 -0.0651
  114SAPE  H16R11935   3.236   6.171   3.864 -0.0966  0.5329  0.5402
  114SAPE  H16S11936   3.097   6.253   3.907 -0.3263  0.6969 -0.5207
  114SAPE  C21711937   3.253   6.289   4.041  0.4723  0.3186 -0.1256
  114SAPE  H17R11938   3.222   6.195   4.091 -1.1578  0.6924 -0.3934
  114SAPE  H17S11939   3.191   6.371   4.082  2.4386  1.3820  0.8637
  114SAPE  C21811940   3.404   6.318   4.059  0.3290 -0.0330  0.1846
  114SAPE  H18R11941   3.418   6.416   4.009 -0.3529  0.2691  0.5694
  114SAPE  H18S11942   3.451   6.228   4.013  0.5987  0.1693  0.0635
  114SAPE  C21911943   3.443   6.326   4.208  0.0814  0.1283 -0.2132
  114SAPE  H19R11944   3.549   6.294   4.221  0.8134  2.1179 -0.8577
  114SAPE  H19S11945   3.394   6.244   4.264  1.6107 -1.3327 -0.9025
  114SAPE  C22011946   3.418   6.463   4.269  0.2881  0.0901  0.6300
  114SAPE  H20R11947   3.393   6.452   4.377  0.9843 -1.1757  0.6873
  114SAPE  H20S11948   3.333   6.517   4.223 -0.9248 -1.1393  1.3202
  114SAPE  H20T11949   3.508   6.527   4.268  1.5022 -1.5265  1.4706
  114SAPE   C3311950   3.788   5.919   2.740  0.0136  0.0493 -0.0974
  114SAPE   H3X11951   3.695   5.884   2.791  0.6788  0.4186  1.4343
  114SAPE   H3Y11952   3.758   5.995   2.665  0.0656  0.7928  0.6165
  114SAPE   C3411953   3.879   5.992   2.838  0.1750  0.0736 -0.5755
  114SAPE   H4X11954   3.979   6.026   2.805  0.6999  1.0663  1.8426
  114SAPE   H4Y11955   3.893   5.931   2.930 -0.0621  1.0815  0.1440
  114SAPE   C3511956   3.815   6.126   2.882  0.5088 -0.4741 -0.3387
  114SAPE   H5X11957   3.709   6.118   2.915  0.2798  0.4717 -0.7833
  114SAPE   H5Y11958   3.813   6.169   2.779  0.4196 -0.1968 -0.2235
  114SAPE   C3611959   3.900   6.217   2.981  0.2139 -0.2176  0.0282
  114SAPE   H6X11960   3.854   6.317   2.971  1.1017  0.0769 -1.3511
  114SAPE   H6Y11961   4.004   6.209   2.943 -0.0446  0.6903 -0.9076
  114SAPE   C3711962   3.911   6.178   3.129  0.4514 -0.1868 -0.0949
  114SAPE   H7X11963   4.002   6.227   3.168 -2.1639  3.2448  2.3563
  114SAPE   H7Y11964   3.929   6.068   3.124  1.5281 -0.0713  0.9798
  114SAPE   C3811965   3.786   6.226   3.215 -0.4115  0.4428  0.3900
  114SAPE   H8X11966   3.704   6.156   3.188  1.2363 -1.3438 -0.2515
  114SAPE   H8Y11967   3.772   6.334   3.193 -0.8766 -0.2081 -3.1212
  114SAPE   C3911968   3.809   6.206   3.366  0.5994  0.0557  0.3990
  114SAPE   H9X11969   3.919   6.207   3.382  0.9241 -0.2803 -1.5925
  114SAPE   H9Y11970   3.773   6.104   3.394  1.5953 -0.7055 -0.9683
  114SAPE  C31011971   3.730   6.314   3.443  0.1950 -0.1575  0.9447
  114SAPE  H10X11972   3.625   6.316   3.407  0.9196 -0.7808 -1.3461
  114SAPE  H10Y11973   3.778   6.410   3.417 -0.5018  0.2538  1.1664
  114SAPE  C31111974   3.728   6.288   3.595  0.0263 -0.3216  0.0966
  114SAPE  H11X11975   3.830   6.272   3.635 -0.2766 -2.5906  0.1222
  114SAPE  H11Y11976   3.668   6.195   3.609 -1.1146  0.3902  0.1430
  114SAPE  C31211977   3.666   6.408   3.667 -0.2743 -0.1351  0.1691
  114SAPE  H12X11978   3.565   6.415   3.621 -0.4543 -3.7880 -0.2905
  114SAPE  H12Y11979   3.727   6.497   3.639  0.8549 -0.6074  1.0683
  114SAPE  C31311980   3.672   6.391   3.819  0.4398  0.3010  0.1122
  114SAPE  H13X11981   3.614   6.299   3.842  0.3332  0.5650  0.9445
  114SAPE  H13Y11982   3.614   6.477   3.858  0.9966  0.3019  0.9854
  114SAPE  C31411983   3.805   6.377   3.885 -0.0685  0.4949  0.4970
  114SAPE  H14X11984   3.879   6.448   3.840  1.5579  0.3859  2.8188
  114SAPE  H14Y11985   3.838   6.274   3.861 -0.4146  0.2270  1.1381
  114SAPE  C31511986   3.802   6.394   4.043 -0.5228 -0.2453  0.8398
  114SAPE  H15X11987   3.753   6.304   4.087 -1.3845 -0.2025 -0.0108
  114SAPE  H15Y11988   3.734   6.477   4.071 -1.3142 -0.2387 -0.9881
  114SAPE  C31611989   3.941   6.415   4.102 -0.2531 -0.0428  0.1574
  114SAPE  H16X11990   3.983   6.511   4.066 -0.5620 -0.0917 -0.3520
  114SAPE  H16Y11991   4.013   6.340   4.063  0.6027 -0.4421  2.3906
  114SAPE  C31711992   3.951   6.397   4.249 -0.1232 -0.2372  0.3530
  114SAPE  H17X11993   3.913   6.294   4.257 -1.1847  0.2417  1.9354
  114SAPE  H17Y11994   3.878   6.464   4.301  0.4447  0.5582  0.1566
  114SAPE  C31811995   4.091   6.407   4.311  0.7797  0.1897  0.7665
  114SAPE  H18X11996   4.097   6.353   4.408 -3.4690 -1.3751  0.3852
  114SAPE  H18Y11997   4.129   6.511   4.312  1.8231 -0.1252 -0.9008
  114SAPE  H18Z11998   4.164   6.354   4.246 -0.0599 -2.0504  1.5330
  115SAPE     N11999   6.203   1.168   1.772 -0.5433  0.1731  0.1449
  115SAPE   HN112000   6.164   1.158   1.676 -1.5627  1.2177  0.4247
  115SAPE   HN212001   6.305   1.156   1.759 -0.9302 -1.0090 -2.3119
  115SAPE   HN312002   6.163   1.095   1.833 -0.3442  0.5393  0.7215
  115SAPE   C1212003   6.190   1.297   1.841 -0.2369  0.1177  0.7399
  115SAPE  H12A12004   6.083   1.323   1.855 -0.2751  0.2679  0.2063
  115SAPE  H12B12005   6.228   1.374   1.769 -1.5441  0.9665  0.9217
  115SAPE   C1112006   6.254   1.295   1.983 -0.1572 -0.0175  0.1419
  115SAPE  H11A12007   6.248   1.404   2.004 -1.2679 -0.3578  1.8471
  115SAPE  H11B12008   6.357   1.256   1.974 -0.0947  0.5323 -2.1836
  115SAPE     P12009   6.218   1.185   2.225 -0.2766 -0.3560 -0.6465
  115SAPE   O1312010   6.105   1.176   2.319 -0.2767  0.1197  0.5607
  115SAPE   O1412011   6.297   1.063   2.218  0.2396 -0.8095  0.6498
  115SAPE   O1212012   6.177   1.226   2.082 -0.0297  0.5014  0.9243
  115SAPE   O1112013   6.306   1.302   2.267 -0.5821  0.0406 -0.2900
  115SAPE    C112014   6.262   1.436   2.284  0.5054  0.8022  0.0075
  115SAPE    HA12015   6.296   1.502   2.202 -0.6343 -0.8096 -1.8542
  115SAPE    HB12016   6.152   1.443   2.271  0.5482 -0.3850 -1.2364
  115SAPE    C212017   6.283   1.488   2.424  0.5336 -0.0067 -0.9083
  115SAPE    HS12018   6.251   1.594   2.417 -0.5862 -0.1784  0.8327
  115SAPE   O2112019   6.419   1.480   2.478 -0.3223 -0.1458  0.0776
  115SAPE   C2112020   6.512   1.533   2.398 -0.0586 -0.5090 -0.0231
  115SAPE   O2212021   6.500   1.611   2.302 -0.0212  0.3282 -0.8542
  115SAPE   C2212022   6.652   1.502   2.452  0.4254  0.2391  0.2640
  115SAPE   H2R12023   6.654   1.412   2.518 -0.8867 -2.1370 -2.6681
  115SAPE   H2S12024   6.716   1.472   2.366  0.5727 -0.8565  0.7329
  115SAPE    C312025   6.190   1.432   2.531 -0.0310 -0.1817  0.2519
  115SAPE    HX12026   6.207   1.323   2.538 -1.7469 -0.6479 -1.8136
  115SAPE    HY12027   6.086   1.431   2.492 -0.7804  1.7271  2.0430
  115SAPE   O3112028   6.194   1.504   2.654  0.2410 -0.2220  0.4031
  115SAPE   C3112029   6.102   1.598   2.665  0.0044  0.1265  0.0443
  115SAPE   O3212030   6.011   1.621   2.585  0.6449 -0.3876  0.1257
  115SAPE   C3212031   6.126   1.676   2.788 -0.6978 -0.0492 -0.0508
  115SAPE   H2X12032   6.118   1.783   2.760  1.7362 -0.0314 -0.9050
  115SAPE   H2Y12033   6.231   1.682   2.823 -0.8859  2.9685  0.2520
  115SAPE   C2312034   6.726   1.622   2.523 -0.0186 -0.0663  0.0471
  115SAPE   H3R12035   6.741   1.697   2.442 -1.7438  1.2665  0.9012
  115SAPE   H3S12036   6.818   1.580   2.568 -0.6606 -3.4402 -1.4764
  115SAPE   C2412037   6.635   1.682   2.632 -0.6540 -0.4239 -0.4941
  115SAPE   H4R12038   6.548   1.735   2.589  0.5340  0.2975 -2.1372
  115SAPE   H4S12039   6.702   1.762   2.669  0.2699 -0.9729 -0.9295
  115SAPE   C2512040   6.602   1.573   2.733  0.2323 -0.5807  0.2229
  115SAPE   H5R12041   6.513   1.511   2.717 -0.6483  1.1681 -2.2011
  115SAPE   C2612042   6.677   1.544   2.842 -0.2249 -0.6944 -0.0681
  115SAPE   H6R12043   6.658   1.448   2.892  1.2462 -1.2153 -0.4719
  115SAPE   C2712044   6.803   1.617   2.881  0.2760 -0.2247  1.0207
  115SAPE   H7R12045   6.780   1.726   2.878  0.2567 -0.2409 -0.9300
  115SAPE   H7S12046   6.884   1.599   2.808  0.6739 -0.1931  1.4508
  115SAPE   C2812047   6.847   1.576   3.016 -0.5453  0.2003 -0.2994
  115SAPE   H8R12048   6.904   1.483   3.007 -0.0113  0.5006 -0.0378
  115SAPE   C2912049   6.836   1.637   3.137  0.1117 -0.5943  0.3627
  115SAPE   H9R12050   6.882   1.596   3.228  0.2207  1.2134  1.1789
  115SAPE  C21012051   6.777   1.773   3.155  0.0251  0.5920  0.4998
  115SAPE  H10R12052   6.742   1.823   3.062  1.1250 -2.7620 -1.9323
  115SAPE  H10S12053   6.858   1.841   3.189  0.4823 -0.6444  2.0129
  115SAPE  C21112054   6.664   1.763   3.255  0.1637  0.1491  0.4089
  115SAPE  H11R12055   6.564   1.744   3.213 -0.4104 -1.0555  2.1929
  115SAPE  C21212056   6.670   1.795   3.386  0.0166  0.2944 -0.6876
  115SAPE  H12R12057   6.572   1.774   3.432 -0.1287  1.0376 -0.6454
  115SAPE  C21312058   6.782   1.820   3.490  0.0798  0.6476  0.4081
  115SAPE  H13R12059   6.880   1.812   3.438  0.3523  1.7924  0.7251
  115SAPE  H13S12060   6.796   1.735   3.561 -0.0265 -0.3369 -0.7100
  115SAPE  C21412061   6.780   1.956   3.559  0.3962 -0.5830  0.1075
  115SAPE  H14R12062   6.755   2.042   3.494  3.4512  1.3281  1.2411
  115SAPE  C21512063   6.793   1.983   3.690 -0.5535  0.4256 -0.3223
  115SAPE  H15R12064   6.798   2.089   3.719  1.4788  0.3946 -0.4597
  115SAPE  C21612065   6.820   1.884   3.798 -0.2857  0.1591  0.7636
  115SAPE  H16R12066   6.830   1.779   3.761 -0.2197 -0.3548  2.1542
  115SAPE  H16S12067   6.726   1.867   3.855 -1.0850 -0.7419 -0.7631
  115SAPE  C21712068   6.933   1.922   3.889 -0.6552  0.2897  0.6342
  115SAPE  H17R12069   6.891   1.987   3.969 -1.7325  2.0839 -1.2974
  115SAPE  H17S12070   7.006   1.985   3.833 -0.8988 -0.0754 -0.1056
  115SAPE  C21812071   7.022   1.807   3.950  0.0034  0.2824 -0.2095
  115SAPE  H18R12072   7.122   1.798   3.903 -1.0980  1.3488 -2.9439
  115SAPE  H18S12073   6.982   1.704   3.940  0.8497 -0.2925  1.6697
  115SAPE  C21912074   7.037   1.829   4.102 -0.2247 -0.2372  0.4041
  115SAPE  H19R12075   6.936   1.817   4.148 -0.7034  1.9399  0.0313
  115SAPE  H19S12076   7.077   1.931   4.119 -0.8843  0.0704  0.1276
  115SAPE  C22012077   7.131   1.732   4.174 -0.3823 -0.7977 -0.3494
  115SAPE  H20R12078   7.125   1.736   4.284  0.4215  0.0020 -0.3247
  115SAPE  H20S12079   7.230   1.767   4.136 -1.4062  1.5378 -1.0401
  115SAPE  H20T12080   7.113   1.627   4.142  3.2714 -2.1517  1.4287
  115SAPE   C3312081   6.033   1.641   2.913  0.7025 -0.1453 -0.4408
  115SAPE   H3X12082   6.075   1.552   2.964  0.4590  0.6857  1.3013
  115SAPE   H3Y12083   5.930   1.611   2.884  0.6030  1.4569 -1.9707
  115SAPE   C3412084   6.015   1.752   3.008 -0.6679 -0.2395  1.1523
  115SAPE   H4X12085   5.951   1.826   2.956  1.0219 -0.2616 -1.1735
  115SAPE   H4Y12086   6.117   1.796   3.014 -1.0890  0.6582  1.8548
  115SAPE   C3512087   5.960   1.697   3.136  0.4963  0.0124  0.0058
  115SAPE   H5X12088   6.032   1.626   3.181  0.4366 -1.5356 -2.1821
  115SAPE   H5Y12089   5.875   1.630   3.110  0.1360 -0.7214  2.8206
  115SAPE   C3612090   5.928   1.803   3.240 -0.1579 -0.5929 -0.7433
  115SAPE   H6X12091   5.854   1.878   3.203  1.5522  1.2775 -0.5642
  115SAPE   H6Y12092   6.017   1.867   3.256 -2.4511  2.2865  2.0378
  115SAPE   C3712093   5.902   1.753   3.384  0.1297  0.2483  0.4363
  115SAPE   H7X12094   5.994   1.706   3.426  1.0912  1.8895  0.2411
  115SAPE   H7Y12095   5.825   1.672   3.382 -1.0861  1.2281 -4.0198
  115SAPE   C3812096   5.866   1.868   3.470  0.3164 -0.4098 -0.5186
  115SAPE   H8X12097   5.785   1.933   3.430  0.7325 -1.3066 -2.9264
  115SAPE   H8Y12098   5.954   1.932   3.492  0.3849 -1.1237  1.4878
  115SAPE   C3912099   5.813   1.817   3.607 -0.6230  0.0463  0.1975
  115SAPE   H9X12100   5.901   1.759   3.644 -2.4761 -0.5284  4.2002
  115SAPE   H9Y12101   5.725   1.751   3.594 -0.2201 -0.8591  1.7809
  115SAPE  C31012102   5.784   1.939   3.695 -0.1825 -0.6029 -0.3075
  115SAPE  H10X12103   5.697   1.998   3.662 -0.4744 -0.7531  0.1793
  115SAPE  H10Y12104   5.872   2.007   3.694  0.2648 -1.1686 -1.7271
  115SAPE  C31112105   5.767   1.892   3.841  0.1946 -0.3897 -0.5696
  115SAPE  H11X12106   5.855   1.839   3.883  1.0463  1.1233 -0.3828
  115SAPE  H11Y12107   5.678   1.826   3.852  2.0304 -2.9567 -0.1635
  115SAPE  C31212108   5.750   2.005   3.941  0.5945  0.0729  0.3096
  115SAPE  H12X12109   5.708   2.095   3.891 -0.9682 -1.1048 -0.6131
  115SAPE  H12Y12110   5.850   2.038   3.975  1.4069 -0.2949 -1.5705
  115SAPE  C31312111   5.657   1.960   4.055 -0.3221  0.4418  0.6922
  115SAPE  H13X12112   5.696   1.865   4.097  0.6786  1.2024  1.5375
  115SAPE  H13Y12113   5.558   1.931   4.014  0.6424 -1.4743 -0.4251
  115SAPE  C31412114   5.635   2.062   4.169 -0.3119  0.1960  0.3543
  115SAPE  H14X12115   5.739   2.083   4.202 -0.6235  0.6039  1.0905
  115SAPE  H14Y12116   5.562   2.014   4.237 -2.3296  0.4750 -1.4869
  115SAPE  C31512117   5.570   2.191   4.112 -0.3984  0.1078  0.5495
  115SAPE  H15X12118   5.484   2.144   4.061 -0.3980  1.5492 -0.8572
  115SAPE  H15Y12119   5.634   2.243   4.037 -2.3963  0.0919 -1.2468
  115SAPE  C31612120   5.539   2.279   4.231  0.5381  0.3358  0.3187
  115SAPE  H16X12121   5.639   2.310   4.269  1.5114 -1.3772 -0.7144
  115SAPE  H16Y12122   5.485   2.223   4.309 -1.7326  0.1489 -1.2842
  115SAPE  C31712123   5.447   2.397   4.184 -0.6179  0.2606 -0.9803
  115SAPE  H17X12124   5.412   2.445   4.277 -1.6912  0.0229 -1.2519
  115SAPE  H17Y12125   5.354   2.353   4.141 -1.6190 -0.7623  2.0180
  115SAPE  C31812126   5.513   2.505   4.092  0.1452  0.6561  0.1575
  115SAPE  H18X12127   5.444   2.591   4.072  0.7201  0.8189 -1.2539
  115SAPE  H18Y12128   5.542   2.460   3.995  1.3288 -1.1595  1.3112
  115SAPE  H18Z12129   5.601   2.547   4.145 -0.3041 -0.5336  1.9613
  116SAPE     N12130   6.865   3.212   1.889 -0.3885 -0.6468 -0.4875
  116SAPE   HN112131   6.835   3.222   1.988  1.9045 -2.7889  0.5330
  116SAPE   HN212132   6.911   3.118   1.887  0.0384 -0.5417  1.8785
  116SAPE   HN312133   6.932   3.288   1.866 -1.9393  0.6014 -1.0721
  116SAPE   C1212134   6.750   3.207   1.794  0.9317  0.0958  0.2093
  116SAPE  H12A12135   6.770   3.274   1.707  1.2600  0.6288  0.6838
  116SAPE  H12B12136   6.659   3.249   1.843  1.2724 -0.2738  1.1854
  116SAPE   C1112137   6.729   3.055   1.753 -0.1545  0.5186 -0.2802
  116SAPE  H11A12138   6.814   3.023   1.688 -0.5194 -0.2669 -0.3841
  116SAPE  H11B12139   6.632   3.044   1.700 -1.0052 -0.4191  1.4226
  116SAPE     P12140   6.656   2.833   1.870 -0.2644  0.1007  0.2895
  116SAPE   O1312141   6.519   2.847   1.802 -0.8681 -0.0673 -0.3978
  116SAPE   O1412142   6.746   2.723   1.821 -0.0786 -0.3537  0.0315
  116SAPE   O1212143   6.733   2.966   1.867 -0.4300 -0.4194  0.2702
  116SAPE   O1112144   6.637   2.811   2.023  0.9613  0.2523  0.2320
  116SAPE    C112145   6.606   2.933   2.097 -0.3984  0.0296 -0.8429
  116SAPE    HA12146   6.694   3.000   2.097 -0.1534 -0.2223  1.4797
  116SAPE    HB12147   6.518   2.988   2.057 -0.4459 -0.1195 -0.9429
  116SAPE    C212148   6.587   2.909   2.253 -0.9003 -0.1992  0.2608
  116SAPE    HS12149   6.610   3.011   2.293  0.9931 -0.4790 -0.0081
  116SAPE   O2112150   6.690   2.818   2.301  0.2449  0.1940 -0.4767
  116SAPE   C2112151   6.746   2.847   2.413  0.2571  0.1155  0.7541
  116SAPE   O2212152   6.713   2.939   2.484 -0.0270  0.2976  0.6247
  116SAPE   C2212153   6.866   2.755   2.440 -0.1718  0.8712 -0.3918
  116SAPE   H2R12154   6.849   2.651   2.406  0.8187  1.0039 -1.3374
  116SAPE   H2S12155   6.952   2.791   2.380  0.6521 -0.7096 -0.2277
  116SAPE    C312156   6.448   2.857   2.292 -0.2378  0.0281  0.7267
  116SAPE    HX12157   6.445   2.747   2.272  1.3591  0.0937 -0.0680
  116SAPE    HY12158   6.371   2.899   2.223 -0.2639 -0.4795  0.4360
  116SAPE   O3112159   6.402   2.886   2.419 -0.6307  0.8400  0.6038
  116SAPE   C3112160   6.405   3.005   2.472  0.6088 -0.1885  0.1740
  116SAPE   O3212161   6.416   3.113   2.412 -0.1292  0.4392 -0.1546
  116SAPE   C3212162   6.406   2.986   2.628 -0.0546 -0.9803  0.1527
  116SAPE   H2X12163   6.469   3.062   2.680  2.5518 -1.2739 -2.3692
  116SAPE   H2Y12164   6.457   2.894   2.663 -0.2555 -1.1611 -0.0350
  116SAPE   C2312165   6.903   2.737   2.589 -0.1254  0.3487  0.0516
  116SAPE   H3R12166   6.921   2.840   2.627  2.7627 -0.4572  1.0858
  116SAPE   H3S12167   6.991   2.670   2.589 -0.0932  0.3719 -0.9265
  116SAPE   C2412168   6.786   2.679   2.676 -0.3883 -0.1051 -0.3086
  116SAPE   H4R12169   6.763   2.573   2.654  1.1943 -0.5254 -0.1054
  116SAPE   H4S12170   6.699   2.747   2.667  0.4443  0.9148 -0.8148
  116SAPE   C2512171   6.830   2.676   2.821 -0.8455  0.1996 -0.0462
  116SAPE   H5R12172   6.888   2.589   2.855  1.9651  1.7913 -0.4214
  116SAPE   C2612173   6.800   2.764   2.917 -0.8398  0.7401 -0.4800
  116SAPE   H6R12174   6.848   2.751   3.015 -0.3284  2.1473 -0.5202
  116SAPE   C2712175   6.722   2.889   2.894  0.3566 -0.9222 -0.6027
  116SAPE   H7R12176   6.614   2.873   2.917  0.3915  0.4583  0.6453
  116SAPE   H7S12177   6.723   2.914   2.786  1.3639 -1.2590 -0.6819
  116SAPE   C2812178   6.754   3.012   2.980 -0.0260 -0.0888  1.2952
  116SAPE   H8R12179   6.825   3.076   2.925 -0.8891 -1.0182 -1.0393
  116SAPE   C2912180   6.706   3.057   3.100  0.6831 -0.0057  0.3800
  116SAPE   H9R12181   6.742   3.155   3.135 -2.0706  0.4592  2.2291
  116SAPE  C21012182   6.596   2.994   3.175  0.6262 -0.5113 -0.4428
  116SAPE  H10R12183   6.625   2.999   3.282  2.4352  2.5038 -0.9760
  116SAPE  H10S12184   6.596   2.886   3.149  2.5109 -0.4399 -0.8397
  116SAPE  C21112185   6.456   3.050   3.152 -0.5092 -0.5001 -0.9605
  116SAPE  H11R12186   6.449   3.088   3.049  0.3377  1.7167 -0.2553
  116SAPE  C21212187   6.356   3.065   3.244 -0.4903 -0.9387 -0.1209
  116SAPE  H12R12188   6.261   3.111   3.212  0.8458  0.6944 -2.0325
  116SAPE  C21312189   6.362   3.016   3.387  0.2519 -0.0067  0.1350
  116SAPE  H13R12190   6.460   2.972   3.416 -0.7177 -1.8840  0.7760
  116SAPE  H13S12191   6.285   2.939   3.409 -1.0041  1.0735 -0.3516
  116SAPE  C21412192   6.340   3.131   3.488  0.4198  0.2584  0.0486
  116SAPE  H14R12193   6.393   3.225   3.469 -1.9394  2.3859  3.0277
  116SAPE  C21512194   6.281   3.124   3.613 -0.3049 -0.5832 -0.5321
  116SAPE  H15R12195   6.274   3.211   3.679 -0.5438 -1.2587  0.3418
  116SAPE  C21612196   6.222   2.999   3.673  0.1466  1.0146  0.6543
  116SAPE  H16R12197   6.272   2.909   3.631 -2.2781  1.0313 -2.5942
  116SAPE  H16S12198   6.117   2.988   3.640 -0.0439  1.2074  1.1861
  116SAPE  C21712199   6.255   3.019   3.817 -0.6141  0.3361  0.4551
  116SAPE  H17R12200   6.198   3.104   3.861  0.2696  1.2282 -0.0782
  116SAPE  H17S12201   6.364   3.037   3.833 -0.1256 -0.6819 -1.5445
  116SAPE  C21812202   6.211   2.905   3.906  0.3586  0.2213 -0.0717
  116SAPE  H18R12203   6.251   2.811   3.864  0.0052 -1.7297  3.5570
  116SAPE  H18S12204   6.101   2.891   3.909  0.1401  1.8095  0.4272
  116SAPE  C21912205   6.262   2.920   4.048 -0.1473  0.1667  0.1055
  116SAPE  H19R12206   6.281   3.028   4.069  0.3358  0.3964 -1.3931
  116SAPE  H19S12207   6.366   2.881   4.046 -0.2233 -0.0713  0.6981
  116SAPE  C22012208   6.172   2.861   4.149 -0.2470 -0.0980 -0.4670
  116SAPE  H20R12209   6.231   2.851   4.242  1.6019 -1.5829 -1.7183
  116SAPE  H20S12210   6.145   2.758   4.116  1.5264 -0.5822 -0.5005
  116SAPE  H20T12211   6.083   2.925   4.171 -1.5688 -2.0781  0.2190
  116SAPE   C3312212   6.257   2.987   2.671  0.2691 -0.1489 -0.6916
  116SAPE   H3X12213   6.204   2.894   2.643  0.9343 -0.2426 -1.6859
  116SAPE   H3Y12214   6.199   3.067   2.618  0.1791  1.1221  1.2237
  116SAPE   C3412215   6.255   3.012   2.826 -0.3859  0.4796  0.8172
  116SAPE   H4X12216   6.342   3.076   2.850 -0.6744  1.6844 -1.1404
  116SAPE   H4Y12217   6.279   2.914   2.873  1.6062  0.4014 -0.2458
  116SAPE   C3512218   6.130   3.081   2.879 -0.1450 -0.3923 -0.7179
  116SAPE   H5X12219   6.123   3.063   2.989 -0.2108 -0.7954 -0.7852
  116SAPE   H5Y12220   6.036   3.046   2.831 -0.1485  0.4199 -1.3163
  116SAPE   C3612221   6.149   3.234   2.853 -0.3741 -0.1378 -0.6098
  116SAPE   H6X12222   6.049   3.279   2.833 -0.5502 -1.3728 -2.9249
  116SAPE   H6Y12223   6.213   3.242   2.763  0.0029 -0.0426 -0.3324
  116SAPE   C3712224   6.213   3.308   2.974  0.1625  1.0991 -0.2286
  116SAPE   H7X12225   6.242   3.246   3.062 -0.0340  1.3771  0.0345
  116SAPE   H7Y12226   6.155   3.395   3.013 -1.6514 -0.5008  0.8193
  116SAPE   C3812227   6.345   3.381   2.937  0.3659 -0.5151 -0.0975
  116SAPE   H8X12228   6.317   3.429   2.841 -0.7847  0.3913  0.6590
  116SAPE   H8Y12229   6.433   3.313   2.933  0.1622 -0.7751 -0.2024
  116SAPE   C3912230   6.383   3.498   3.036 -0.7348 -0.1775  0.1901
  116SAPE   H9X12231   6.293   3.561   3.054  1.6841  2.9050  2.5556
  116SAPE   H9Y12232   6.460   3.561   2.987 -1.0206 -0.4258 -0.6020
  116SAPE  C31012233   6.426   3.438   3.170 -0.2384  0.2940  0.6819
  116SAPE  H10X12234   6.508   3.367   3.147  1.6184  2.3234  0.6856
  116SAPE  H10Y12235   6.338   3.383   3.208  1.0708 -0.5431  2.6693
  116SAPE  C31112236   6.474   3.527   3.280 -0.4727  0.4290 -0.8208
  116SAPE  H11X12237   6.560   3.583   3.236  1.9462 -1.3806  1.2513
  116SAPE  H11Y12238   6.516   3.461   3.359 -1.9920 -0.7223 -0.9473
  116SAPE  C31212239   6.363   3.612   3.341 -0.1256 -0.1721 -0.4071
  116SAPE  H12X12240   6.268   3.557   3.359 -1.2899  2.7072  4.1653
  116SAPE  H12Y12241   6.342   3.695   3.270 -1.3539  1.1212  1.3636
  116SAPE  C31312242   6.388   3.657   3.488  0.0332  0.0490  0.3128
  116SAPE  H13X12243   6.310   3.729   3.521 -0.0937  0.1539 -0.2150
  116SAPE  H13Y12244   6.480   3.718   3.482  0.1286 -0.0224  0.9967
  116SAPE  C31412245   6.386   3.547   3.593 -0.3964 -0.3603  0.8825
  116SAPE  H14X12246   6.469   3.473   3.580  1.4202  1.7466 -0.2904
  116SAPE  H14Y12247   6.291   3.490   3.596 -0.0125 -1.1171 -0.3903
  116SAPE  C31512248   6.405   3.603   3.737  0.8496  0.8106  0.1387
  116SAPE  H15X12249   6.321   3.675   3.746  1.2100  1.1842  0.5873
  116SAPE  H15Y12250   6.504   3.653   3.745  1.6568 -0.5381 -0.8971
  116SAPE  C31612251   6.399   3.496   3.845 -0.1970  0.7736 -0.5234
  116SAPE  H16X12252   6.467   3.414   3.814 -1.1246 -0.5498  0.8367
  116SAPE  H16Y12253   6.297   3.453   3.848 -0.3443  0.9276 -2.4331
  116SAPE  C31712254   6.415   3.568   3.980 -0.7961  0.5982  0.5046
  116SAPE  H17X12255   6.339   3.649   3.979  0.5794  1.9653 -0.8425
  116SAPE  H17Y12256   6.514   3.617   3.992 -1.1032  0.7179  3.0811
  116SAPE  C31812257   6.399   3.466   4.097  0.5897 -0.8416 -0.3567
  116SAPE  H18X12258   6.446   3.372   4.060 -0.7305 -1.1611 -1.3088
  116SAPE  H18Y12259   6.293   3.447   4.124  1.2780 -2.0134  1.8069
  116SAPE  H18Z12260   6.449   3.506   4.188 -0.0548 -0.6653 -0.0733
  117SOPE     N12261   2.995   5.723   6.726 -0.4962 -0.4363 -0.4101
  117SOPE   HN112262   2.978   5.628   6.766  1.2635 -0.5618  0.1236
  117SOPE   HN212263   3.019   5.789   6.802  0.3458 -0.6143 -0.5065
  117SOPE   HN312264   2.909   5.745   6.671 -2.0145 -5.1902 -0.4128
  117SOPE   C1212265   3.104   5.728   6.626  0.0494 -0.4943  0.2916
  117SOPE  H12A12266   3.171   5.644   6.654  1.3699  0.5538  0.3890
  117SOPE  H12B12267   3.146   5.831   6.632  1.1608 -0.9607  0.6601
  117SOPE   C1112268   3.051   5.703   6.489  0.2453  0.2208  0.2340
  117SOPE  H11A12269   3.132   5.707   6.413  0.6260 -0.9195  0.5611
  117SOPE  H11B12270   2.976   5.777   6.454  0.0931  0.5573  1.2205
  117SOPE     P12271   3.030   5.445   6.426  0.0876 -0.1068  0.0539
  117SOPE   O1312272   2.944   5.342   6.488  0.0593  0.4018  0.5812
  117SOPE   O1412273   3.177   5.433   6.437  0.2380  0.4306 -0.7367
  117SOPE   O1212274   2.984   5.584   6.488 -0.2380  0.4867  0.5110
  117SOPE   O1112275   2.997   5.452   6.266 -0.2971  0.1222 -0.4849
  117SOPE    C112276   2.883   5.513   6.207  0.0094  0.9415  0.0053
  117SOPE    HA12277   2.876   5.617   6.244  0.7581  1.0439 -0.1157
  117SOPE    HB12278   2.797   5.449   6.236 -0.8249  1.7507 -0.6402
  117SOPE    C212279   2.909   5.515   6.058  0.5252 -1.1732 -0.1518
  117SOPE    HS12280   2.807   5.527   6.014  0.1718 -3.6077 -0.1500
  117SOPE   O2112281   2.966   5.385   6.010  0.4114 -0.1917 -0.1539
  117SOPE   C2112282   2.871   5.291   5.996 -0.0108 -0.2069  0.3278
  117SOPE   O2212283   2.752   5.300   6.024  0.0437 -0.1972  0.4421
  117SOPE   C2212284   2.936   5.165   5.941  0.1511  0.6851 -0.6600
  117SOPE   H2R12285   2.861   5.090   5.974  0.7978  0.8909  1.4333
  117SOPE   H2S12286   3.029   5.138   5.995  0.2933  0.5897 -0.9539
  117SOPE    C312287   3.005   5.635   6.010  1.2209  0.1658 -0.6817
  117SOPE    HX12288   3.104   5.654   6.057  0.9775  0.2813 -0.2164
  117SOPE    HY12289   2.952   5.724   6.050  1.3874  0.5603 -1.3189
  117SOPE   O3112290   2.998   5.647   5.864 -0.9437 -0.0382  0.3468
  117SOPE   C3112291   3.093   5.585   5.809  0.3803 -0.0388 -0.2064
  117SOPE   O3212292   3.188   5.536   5.871 -1.0050  0.8328  0.0882
  117SOPE   C3212293   3.060   5.565   5.664 -1.0047  0.1398 -0.5016
  117SOPE   H2X12294   3.044   5.663   5.616  0.5145  0.3785 -0.5611
  117SOPE   H2Y12295   2.960   5.518   5.652 -0.3923 -1.4905  0.4310
  117SOPE   C2312296   2.959   5.154   5.794 -1.0139 -0.0858  0.5830
  117SOPE   H3R12297   3.028   5.067   5.798 -1.4813 -0.4294  1.4571
  117SOPE   H3S12298   3.016   5.238   5.750  0.8537 -0.2999  2.4513
  117SOPE   C2412299   2.824   5.122   5.717  0.0856 -0.5374  0.1148
  117SOPE   H4R12300   2.838   5.056   5.629 -1.4833  0.4679 -0.9565
  117SOPE   H4S12301   2.754   5.072   5.786  0.4150 -0.0709  0.7971
  117SOPE   C2512302   2.772   5.256   5.654 -0.3092  0.2896 -0.5639
  117SOPE   H5R12303   2.733   5.313   5.741 -3.0688 -2.1110 -0.0790
  117SOPE   H5S12304   2.859   5.307   5.607 -0.5170  1.6573  0.4656
  117SOPE   C2612305   2.662   5.231   5.560 -0.3447 -0.2962 -0.0231
  117SOPE   H6R12306   2.698   5.154   5.489 -1.8890 -2.4287  1.3539
  117SOPE   H6S12307   2.585   5.171   5.614 -0.9563  0.3257 -0.1840
  117SOPE   C2712308   2.610   5.369   5.502 -0.0819  0.0545 -0.3720
  117SOPE   H7R12309   2.573   5.419   5.594  1.1807 -0.5446  0.4861
  117SOPE   H7S12310   2.697   5.425   5.463  0.5434 -0.1309  0.7116
  117SOPE   C2812311   2.491   5.366   5.409  0.0880  0.6632  0.2181
  117SOPE   H8R12312   2.400   5.335   5.466 -0.9773  0.8949 -1.2990
  117SOPE   H8S12313   2.474   5.469   5.372 -1.6746 -0.0933 -1.2336
  117SOPE   C2912314   2.510   5.275   5.290 -0.3058  0.1945 -0.5356
  117SOPE   H9112315   2.518   5.172   5.326  0.2738  0.1148 -0.8838
  117SOPE  C21012316   2.536   5.309   5.165  0.3848 -0.1267 -0.8683
  117SOPE  H10112317   2.551   5.226   5.095  1.6846  1.1163 -2.1373
  117SOPE  C21112318   2.537   5.447   5.097  0.6123 -0.6259 -0.2112
  117SOPE  H11R12319   2.560   5.527   5.170 -3.4967 -0.2550  0.9339
  117SOPE  H11S12320   2.434   5.473   5.066  0.4856  0.8696  1.3048
  117SOPE  C21212321   2.633   5.462   4.983  0.2001  0.9421 -0.0575
  117SOPE  H12R12322   2.734   5.437   5.020 -0.5756 -2.9505 -0.1124
  117SOPE  H12S12323   2.624   5.567   4.949 -1.2015  0.5742 -0.9256
  117SOPE  C21312324   2.586   5.370   4.864 -1.0336  0.9648 -0.0322
  117SOPE  H13R12325   2.478   5.383   4.842 -0.4050  2.2433 -2.8653
  117SOPE  H13S12326   2.598   5.261   4.884 -0.8426  0.8438 -0.7858
  117SOPE  C21412327   2.669   5.411   4.744  0.0861  0.3960  0.9464
  117SOPE  H14R12328   2.776   5.383   4.752 -0.2575 -2.8189 -2.5649
  117SOPE  H14S12329   2.663   5.521   4.731 -2.0198  0.6318  3.0838
  117SOPE  C21512330   2.638   5.346   4.608 -0.4985 -0.0593 -0.0528
  117SOPE  H15R12331   2.528   5.359   4.598 -0.2199  1.2880 -1.8367
  117SOPE  H15S12332   2.661   5.239   4.623  0.1993 -0.0766 -1.1808
  117SOPE  C21612333   2.708   5.406   4.485 -0.1940  0.2036 -0.7257
  117SOPE  H16R12334   2.799   5.344   4.471  1.6030  2.6526 -0.6132
  117SOPE  H16S12335   2.738   5.511   4.503 -0.8851  0.3950 -0.6537
  117SOPE  C21712336   2.627   5.399   4.357 -0.8015  0.2418 -0.5256
  117SOPE  H17R12337   2.677   5.452   4.273  0.8164 -1.1208 -0.4662
  117SOPE  H17S12338   2.533   5.457   4.369 -0.5199  0.3966  1.2561
  117SOPE  C21812339   2.606   5.258   4.312 -0.1533 -0.2804  0.0180
  117SOPE  H18R12340   2.705   5.227   4.271 -0.6967 -2.3005  0.1229
  117SOPE  H18S12341   2.528   5.248   4.234 -2.5265  1.2240  2.0334
  117SOPE  H18T12342   2.582   5.191   4.397 -0.4261 -1.4061 -0.9199
  117SOPE   C3312343   3.157   5.481   5.589 -0.7274 -0.2849  0.0679
  117SOPE   H3X12344   3.166   5.382   5.637  2.5851 -0.8858 -1.5095
  117SOPE   H3Y12345   3.259   5.525   5.588 -1.5703  1.8322 -0.2261
  117SOPE   C3412346   3.109   5.450   5.442  0.4089  0.4063  0.0969
  117SOPE   H4X12347   3.001   5.424   5.442  0.5685 -0.2887  0.3500
  117SOPE   H4Y12348   3.158   5.353   5.418 -0.9876 -0.3129  0.0720
  117SOPE   C3512349   3.145   5.547   5.339 -0.0769 -0.6116 -0.1300
  117SOPE   H5X12350   3.253   5.575   5.344 -0.4290  0.5519  3.5576
  117SOPE   H5Y12351   3.078   5.635   5.346  0.3949 -0.0698 -1.7595
  117SOPE   C3612352   3.124   5.486   5.193  0.7135  0.3482  0.0525
  117SOPE   H6X12353   3.016   5.469   5.171  0.7095 -0.2526  0.5049
  117SOPE   H6Y12354   3.179   5.391   5.174  0.2745  0.1910 -0.4699
  117SOPE   C3712355   3.161   5.590   5.083  0.2158  0.4947 -0.3122
  117SOPE   H7X12356   3.269   5.614   5.076 -0.0540  2.1051  0.5972
  117SOPE   H7Y12357   3.111   5.686   5.110  1.6581  1.4077 -0.7203
  117SOPE   C3812358   3.120   5.548   4.944  0.5698 -0.4684 -0.2704
  117SOPE   H8X12359   3.010   5.543   4.931  0.6790 -2.8673 -0.8226
  117SOPE   H8Y12360   3.150   5.441   4.938  2.0567 -0.0850 -0.0670
  117SOPE   C3912361   3.175   5.644   4.842  0.1342 -0.4817  0.4540
  117SOPE   H9X12362   3.285   5.634   4.834  0.3574  1.8689  0.0647
  117SOPE   H9Y12363   3.151   5.750   4.865  0.5062 -0.4429  0.6656
  117SOPE  C31012364   3.108   5.611   4.705 -1.0144  0.2342 -0.9223
  117SOPE  H10X12365   3.003   5.646   4.698 -0.6543  1.1084 -2.5655
  117SOPE  H10Y12366   3.113   5.501   4.690 -1.2892  0.1135 -0.1497
  117SOPE  C31112367   3.183   5.676   4.592  0.5648 -0.9272 -0.3133
  117SOPE  H11X12368   3.263   5.604   4.563 -0.4780 -2.6046  0.7931
  117SOPE  H11Y12369   3.227   5.770   4.630  1.5067 -1.5397  0.1694
  117SOPE  C31212370   3.101   5.696   4.463 -0.2897 -0.0609  1.1208
  117SOPE  H12X12371   3.038   5.788   4.459  0.7025  0.6115 -2.6343
  117SOPE  H12Y12372   3.036   5.611   4.435 -0.2049  0.0310  0.6333
  117SOPE  C31312373   3.196   5.726   4.342 -0.0208  0.0028  0.4508
  117SOPE  H13X12374   3.264   5.640   4.328  1.2482  1.1652 -0.9348
  117SOPE  H13Y12375   3.255   5.815   4.374 -2.0559  1.6394 -0.1274
  117SOPE  C31412376   3.123   5.747   4.200 -0.4725  0.4921 -0.2165
  117SOPE  H14X12377   3.041   5.819   4.221 -0.0970  0.5950  0.9852
  117SOPE  H14Y12378   3.073   5.650   4.181 -0.3065  0.8382 -2.6409
  117SOPE  C31512379   3.212   5.774   4.085 -0.1884 -0.2018 -0.4013
  117SOPE  H15X12380   3.277   5.685   4.075 -1.0543 -0.8976  0.0697
  117SOPE  H15Y12381   3.285   5.855   4.108  0.1304 -0.6240  0.1004
  117SOPE  C31612382   3.131   5.790   3.957  0.3835 -0.1568  0.7794
  117SOPE  H16X12383   3.051   5.866   3.972 -0.5776 -0.3427 -2.6110
  117SOPE  H16Y12384   3.074   5.696   3.938  1.6776 -1.3507  2.4173
  117SOPE  C31712385   3.222   5.832   3.834  0.3278 -0.0214  0.0882
  117SOPE  H17X12386   3.298   5.752   3.825 -0.1752 -0.4184 -0.6958
  117SOPE  H17Y12387   3.276   5.925   3.863 -1.4527  1.5489 -1.3897
  117SOPE  C31812388   3.144   5.854   3.701 -0.3542 -0.4016 -0.1320
  117SOPE  H18X12389   3.217   5.870   3.618 -0.4002 -1.0915 -0.3165
  117SOPE  H18Y12390   3.079   5.943   3.702  1.4715  1.0072 -0.4910
  117SOPE  H18Z12391   3.084   5.766   3.669 -4.0933  2.9300 -3.2090
  118SOPE     N12392   3.593   0.962   6.688 -0.0572 -0.2837 -0.4664
  118SOPE   HN112393   3.655   0.971   6.771 -0.5444 -0.2173 -0.1015
  118SOPE   HN212394   3.524   1.040   6.689 -0.8120 -0.8996  1.7198
  118SOPE   HN312395   3.546   0.871   6.703  0.9612 -1.0970 -2.0312
  118SOPE   C1212396   3.668   0.963   6.562 -0.5390 -0.7147 -0.3107
  118SOPE  H12A12397   3.607   0.909   6.488 -1.4186  1.0649 -0.9443
  118SOPE  H12B12398   3.765   0.909   6.567 -1.7280 -2.9852 -0.5005
  118SOPE   C1112399   3.689   1.112   6.535  0.4784  0.1950  0.0816
  118SOPE  H11A12400   3.734   1.114   6.433  0.5235 -3.1075 -0.0486
  118SOPE  H11B12401   3.761   1.152   6.610  1.8972  0.0404 -1.1344
  118SOPE     P12402   3.551   1.336   6.542 -0.2496 -0.2533  0.4205
  118SOPE   O1312403   3.575   1.381   6.679 -0.2288 -0.0418 -0.3923
  118SOPE   O1412404   3.435   1.397   6.467 -0.6177  0.1839 -0.0711
  118SOPE   O1212405   3.563   1.180   6.535  0.6475  0.4779 -0.0562
  118SOPE   O1112406   3.677   1.382   6.466 -0.4757  0.4774  0.1875
  118SOPE    C112407   3.684   1.506   6.387 -0.1305  0.4830 -0.1253
  118SOPE    HA12408   3.788   1.544   6.392 -0.3615  1.0452  0.5246
  118SOPE    HB12409   3.615   1.580   6.433  3.0642  1.6450  3.3219
  118SOPE    C212410   3.644   1.479   6.237  0.1655  0.0637  0.3832
  118SOPE    HS12411   3.544   1.431   6.245  0.6623 -0.7353  3.0572
  118SOPE   O2112412   3.752   1.409   6.181 -0.4164  1.0085 -0.1702
  118SOPE   C2112413   3.719   1.333   6.079  0.8049 -0.2718 -0.7491
  118SOPE   O2212414   3.611   1.280   6.057  0.7790  0.2923  0.1077
  118SOPE   C2212415   3.843   1.317   5.991 -0.8744 -0.1552  0.7843
  118SOPE   H2R12416   3.908   1.240   6.036 -1.1371 -0.4381  0.6820
  118SOPE   H2S12417   3.903   1.411   5.995 -0.1125 -0.5970 -0.0180
  118SOPE    C312418   3.630   1.616   6.162 -0.1140  0.0426 -0.3347
  118SOPE    HX12419   3.727   1.670   6.163  0.1624 -0.4417  0.0974
  118SOPE    HY12420   3.554   1.676   6.216 -0.0967  1.6804 -2.0334
  118SOPE   O3112421   3.595   1.598   6.022  0.5759  0.4942  0.0912
  118SOPE   C3112422   3.462   1.600   6.001  0.0240 -0.4632 -0.1162
  118SOPE   O3212423   3.379   1.600   6.095  0.2999  0.3146  0.0558
  118SOPE   C3212424   3.419   1.610   5.859 -0.0765 -0.2161 -0.7975
  118SOPE   H2X12425   3.309   1.627   5.854 -0.1538  0.3876  1.9177
  118SOPE   H2Y12426   3.468   1.517   5.821 -0.2539 -2.0089  2.8879
  118SOPE   C2312427   3.823   1.283   5.837  0.3207  0.4003  0.0645
  118SOPE   H3R12428   3.768   1.362   5.782 -3.6115 -1.1638  1.3569
  118SOPE   H3S12429   3.752   1.197   5.835 -0.7033  1.1928 -2.3348
  118SOPE   C2412430   3.947   1.243   5.764  0.2615  0.1931 -0.1421
  118SOPE   H4R12431   4.018   1.326   5.787 -2.0080  2.0923  0.3522
  118SOPE   H4S12432   3.982   1.149   5.812 -1.2055  0.1363  0.8799
  118SOPE   C2512433   3.942   1.233   5.612 -0.2971  1.0513 -0.1196
  118SOPE   H5R12434   3.861   1.163   5.583  0.0789  0.8386 -0.6786
  118SOPE   H5S12435   3.913   1.338   5.587 -1.5685  1.2831  2.0939
  118SOPE   C2612436   4.074   1.194   5.549  0.6995  0.0751  0.1798
  118SOPE   H6R12437   4.167   1.248   5.579  0.4349  0.0830  1.0207
  118SOPE   H6S12438   4.100   1.092   5.583  0.7908 -1.6710 -4.4655
  118SOPE   C2712439   4.051   1.201   5.398 -0.2365  0.6283  0.3741
  118SOPE   H7R12440   3.993   1.111   5.368  3.0562 -2.7215  3.1225
  118SOPE   H7S12441   3.986   1.285   5.365 -3.5068 -2.2961 -1.3642
  118SOPE   C2812442   4.182   1.214   5.318  0.1811  1.0840  0.0454
  118SOPE   H8R12443   4.140   1.256   5.224  0.2511 -0.3890 -0.6623
  118SOPE   H8S12444   4.254   1.281   5.371  1.1067 -1.2667  1.9927
  118SOPE   C2912445   4.250   1.087   5.301 -0.7866  0.5434 -0.0175
  118SOPE   H9112446   4.234   1.018   5.385 -0.9919  2.4616  1.6063
  118SOPE  C21012447   4.331   1.065   5.194  0.4198 -0.1571  0.0493
  118SOPE  H10112448   4.370   0.964   5.176  0.2976 -0.1040 -0.5432
  118SOPE  C21112449   4.356   1.170   5.085  0.8435  0.1171 -0.3610
  118SOPE  H11R12450   4.459   1.172   5.043  0.8670  1.1628 -0.2950
  118SOPE  H11S12451   4.342   1.272   5.128 -1.0246  0.2766 -1.2648
  118SOPE  C21212452   4.240   1.170   4.978 -0.0015  0.1266 -0.5703
  118SOPE  H12R12453   4.139   1.167   5.023 -0.9088 -0.8787 -2.5373
  118SOPE  H12S12454   4.245   1.081   4.910  0.5449  1.4197 -2.3033
  118SOPE  C21312455   4.248   1.295   4.893 -0.7703 -0.3591  0.9025
  118SOPE  H13R12456   4.356   1.309   4.871 -0.7314 -1.6828  0.1481
  118SOPE  H13S12457   4.196   1.377   4.948 -1.9420 -0.3198 -0.2211
  118SOPE  C21412458   4.186   1.267   4.758  0.0640  0.5425 -0.3091
  118SOPE  H14R12459   4.076   1.262   4.773  0.3443 -2.7375  1.6253
  118SOPE  H14S12460   4.216   1.174   4.706 -2.6809 -0.0177 -1.0795
  118SOPE  C21512461   4.220   1.383   4.664  0.3735 -0.4588  0.0262
  118SOPE  H15R12462   4.326   1.375   4.631  0.2702  1.2031 -0.8236
  118SOPE  H15S12463   4.212   1.483   4.713 -0.1531 -0.4117 -0.1516
  118SOPE  C21612464   4.130   1.398   4.539 -0.3504  0.4852  0.6386
  118SOPE  H16R12465   4.116   1.504   4.507 -1.6850 -0.0223 -0.5455
  118SOPE  H16S12466   4.030   1.354   4.561 -1.2209  2.8337  1.7504
  118SOPE  C21712467   4.178   1.319   4.420 -0.0797  0.1940 -0.0119
  118SOPE  H17R12468   4.166   1.210   4.437  2.1731 -0.2245 -0.7959
  118SOPE  H17S12469   4.287   1.333   4.408  0.2618  0.6128  2.9073
  118SOPE  C21812470   4.111   1.358   4.290  0.3671 -0.3650  0.3352
  118SOPE  H18R12471   4.003   1.333   4.301  0.4604 -1.6030 -1.2232
  118SOPE  H18S12472   4.163   1.301   4.210  0.3095  1.4028 -1.0044
  118SOPE  H18T12473   4.114   1.467   4.271  1.6445 -0.2621  0.9852
  118SOPE   C3312474   3.492   1.734   5.807 -0.0963  0.1948  0.5983
  118SOPE   H3X12475   3.601   1.714   5.795 -0.2350 -0.7172  0.7698
  118SOPE   H3Y12476   3.463   1.819   5.872 -2.2810 -1.0089  1.2930
  118SOPE   C3412477   3.432   1.764   5.666 -0.1628  0.5397 -0.2185
  118SOPE   H4X12478   3.496   1.844   5.622  3.0016 -2.3970 -1.4584
  118SOPE   H4Y12479   3.329   1.796   5.691  0.3268 -0.5261  3.7598
  118SOPE   C3512480   3.453   1.651   5.568  0.1425 -0.1751 -0.1138
  118SOPE   H5X12481   3.389   1.562   5.588 -2.8436  0.9098 -3.6086
  118SOPE   H5Y12482   3.558   1.620   5.585 -0.8610 -2.6140  2.5118
  118SOPE   C3612483   3.422   1.703   5.429  0.7078  0.0506  0.1385
  118SOPE   H6X12484   3.493   1.786   5.412  0.9077  0.0093  0.7543
  118SOPE   H6Y12485   3.324   1.755   5.434  0.7276  0.1623 -0.5825
  118SOPE   C3712486   3.444   1.590   5.326  0.1355  0.1319  0.2543
  118SOPE   H7X12487   3.367   1.511   5.340  1.1241 -0.6560  1.4315
  118SOPE   H7Y12488   3.541   1.537   5.338 -0.5136 -1.1285  0.0238
  118SOPE   C3812489   3.437   1.652   5.191 -0.1456 -0.6596 -0.6473
  118SOPE   H8X12490   3.507   1.738   5.183  1.0266 -1.4901  0.3255
  118SOPE   H8Y12491   3.336   1.691   5.168 -1.9845 -3.8471  1.2931
  118SOPE   C3912492   3.461   1.563   5.075 -0.1701  0.1072 -0.2495
  118SOPE   H9X12493   3.563   1.528   5.103  1.1457  2.8436 -1.2345
  118SOPE   H9Y12494   3.478   1.597   4.971 -1.2861 -0.9193 -0.7903
  118SOPE  C31012495   3.369   1.442   5.068 -0.3622  0.1579  0.4013
  118SOPE  H10X12496   3.268   1.481   5.095  0.6853  2.0891  1.7761
  118SOPE  H10Y12497   3.389   1.378   5.156  0.0464  0.1553  0.3094
  118SOPE  C31112498   3.372   1.367   4.932 -0.2068 -0.3146  0.9108
  118SOPE  H11X12499   3.291   1.291   4.929  0.3698 -0.9088  0.1525
  118SOPE  H11Y12500   3.467   1.313   4.913 -1.0207 -1.4833  0.0146
  118SOPE  C31212501   3.353   1.460   4.809  0.4593  0.0073 -0.0701
  118SOPE  H12X12502   3.445   1.519   4.788  1.6036 -2.3877 -2.3957
  118SOPE  H12Y12503   3.282   1.539   4.842  0.5936  0.7779 -1.5365
  118SOPE  C31312504   3.295   1.386   4.685 -0.3191  0.6601 -0.3404
  118SOPE  H13X12505   3.211   1.321   4.716 -0.6547  1.1203 -0.2798
  118SOPE  H13Y12506   3.369   1.322   4.632 -0.1236  0.5899  0.0110
  118SOPE  C31412507   3.245   1.493   4.584 -0.4891 -0.6067 -0.0476
  118SOPE  H14X12508   3.327   1.537   4.524 -3.3912  1.3527 -2.9435
  118SOPE  H14Y12509   3.196   1.567   4.651 -1.2456 -0.8510 -0.3148
  118SOPE  C31512510   3.148   1.442   4.482  0.6769 -0.0432  0.4116
  118SOPE  H15X12511   3.098   1.525   4.426  1.3151  0.2487  0.2704
  118SOPE  H15Y12512   3.055   1.405   4.530  1.1735 -0.5724  0.9846
  118SOPE  C31612513   3.197   1.336   4.383  0.0869  0.5450 -0.4324
  118SOPE  H16X12514   3.306   1.320   4.396 -0.4619 -1.2819  3.1719
  118SOPE  H16Y12515   3.159   1.367   4.283  0.4105 -0.9800 -1.0561
  118SOPE  C31712516   3.133   1.198   4.417  0.1099 -0.2929 -0.2226
  118SOPE  H17X12517   3.023   1.198   4.412  0.0759  0.2044  0.3692
  118SOPE  H17Y12518   3.168   1.183   4.522  0.4545  2.2184  0.0722
  118SOPE  C31812519   3.188   1.089   4.321  0.9918 -0.2402  0.2097
  118SOPE  H18X12520   3.171   1.131   4.219  3.1217  0.5392  0.1121
  118SOPE  H18Y12521   3.137   0.991   4.332  1.0295 -0.6966 -2.6922
  118SOPE  H18Z12522   3.297   1.069   4.327  1.2050  1.2188  2.1412
  119SOPE     N12523   4.216   0.665   6.843  0.2967 -0.2144  0.2123
  119SOPE   HN112524   4.253   0.570   6.864  1.9563  0.5211  0.7308
  119SOPE   HN212525   4.152   0.694   6.920 -1.7202 -0.6576 -1.1986
  119SOPE   HN312526   4.152   0.655   6.761 -0.1590 -1.4841  0.6838
  119SOPE   C1212527   4.335   0.754   6.815  0.8632 -0.1235 -0.7063
  119SOPE  H12A12528   4.383   0.739   6.915 -0.4262  1.9855  0.2975
  119SOPE  H12B12529   4.304   0.860   6.802  4.5817  1.3687  1.0066
  119SOPE   C1112530   4.420   0.691   6.703  0.3397 -0.4121  0.1680
  119SOPE  H11A12531   4.522   0.736   6.710  0.2145 -0.1049  0.0243
  119SOPE  H11B12532   4.386   0.715   6.600 -0.1112  0.3099  0.4838
  119SOPE     P12533   4.450   0.424   6.641  0.0402 -0.4105  0.1265
  119SOPE   O1312534   4.355   0.311   6.671 -0.0494 -0.3982 -0.4904
  119SOPE   O1412535   4.591   0.389   6.644  0.2849  0.5984  0.3147
  119SOPE   O1212536   4.432   0.552   6.732  0.2491  0.6441  0.4781
  119SOPE   O1112537   4.418   0.481   6.495 -0.5651 -0.4674  0.0484
  119SOPE    C112538   4.288   0.468   6.438 -0.0799 -0.1576 -0.3564
  119SOPE    HA12539   4.267   0.567   6.393 -0.2382 -0.1372 -0.2405
  119SOPE    HB12540   4.200   0.466   6.507 -1.6946  2.1995 -2.2052
  119SOPE    C212541   4.281   0.357   6.332 -0.3343  0.0883 -0.0270
  119SOPE    HS12542   4.267   0.260   6.385 -1.1324  0.5159  0.5646
  119SOPE   O2112543   4.412   0.366   6.259  0.6200  0.1639 -0.1720
  119SOPE   C2112544   4.468   0.252   6.236 -0.8477  0.7019  0.2800
  119SOPE   O2212545   4.462   0.147   6.301  0.0681  0.1526 -0.1745
  119SOPE   C2212546   4.555   0.273   6.114 -0.9056 -0.5568 -0.5445
  119SOPE   H2R12547   4.606   0.370   6.132 -1.8469  0.1499 -1.5812
  119SOPE   H2S12548   4.509   0.269   6.013 -0.5803 -1.0280 -0.6796
  119SOPE    C312549   4.179   0.374   6.220 -0.6530 -0.4825  0.2582
  119SOPE    HX12550   4.200   0.476   6.181  1.9503  0.1988  3.0830
  119SOPE    HY12551   4.080   0.377   6.271 -1.4133  1.5947 -1.1691
  119SOPE   O3112552   4.175   0.277   6.109 -0.1213 -0.0398  0.2678
  119SOPE   C3112553   4.224   0.316   5.992  0.0810 -0.2560 -0.3901
  119SOPE   O3212554   4.308   0.406   5.975 -0.2097  0.3289  0.3771
  119SOPE   C3212555   4.160   0.235   5.886 -0.0957 -0.3710  0.2175
  119SOPE   H2X12556   4.065   0.292   5.876 -0.7478 -1.8096 -3.2520
  119SOPE   H2Y12557   4.149   0.125   5.901  1.6010 -0.8020 -1.4123
  119SOPE   C2312558   4.675   0.175   6.114  0.0172  0.6001  0.0197
  119SOPE   H3R12559   4.645   0.071   6.090  1.1983  0.2127  0.1324
  119SOPE   H3S12560   4.734   0.176   6.208  0.9477  1.8627 -0.5544
  119SOPE   C2412561   4.766   0.229   6.000  0.0123 -0.1810  0.2671
  119SOPE   H4R12562   4.709   0.216   5.906  0.3960 -0.6467  0.0960
  119SOPE   H4S12563   4.777   0.340   6.004 -1.0205 -0.0789  0.7844
  119SOPE   C2512564   4.896   0.152   5.975 -0.4308 -0.4658 -0.4077
  119SOPE   H5R12565   4.976   0.188   6.043  1.8218  1.1018 -3.6044
  119SOPE   H5S12566   4.874   0.044   5.984 -1.2617 -0.2277  0.6667
  119SOPE   C2612567   4.953   0.179   5.835 -0.3944 -0.1201  0.1879
  119SOPE   H6R12568   4.868   0.174   5.764 -1.1766 -0.8125  1.1406
  119SOPE   H6S12569   5.008   0.274   5.851  0.3009 -0.5283  0.2478
  119SOPE   C2712570   5.054   0.065   5.787  0.1512 -0.0665  0.3893
  119SOPE   H7R12571   5.143   0.049   5.852  0.2323  1.1439  0.6099
  119SOPE   H7S12572   4.995  -0.028   5.778 -0.1538  0.2025 -0.5316
  119SOPE   C2812573   5.098   0.115   5.645 -0.2362 -0.1444  0.2863
  119SOPE   H8R12574   5.003   0.140   5.592  0.7664  0.8951 -1.0835
  119SOPE   H8S12575   5.165   0.200   5.667 -0.8345  0.4194 -0.0345
  119SOPE   C2912576   5.174   0.010   5.570 -0.3678  0.2764 -1.0027
  119SOPE   H9112577   5.258  -0.037   5.623 -0.7035 -1.0826 -1.6457
  119SOPE  C21012578   5.147  -0.036   5.448  0.0963 -0.0999 -0.3172
  119SOPE  H10112579   5.212  -0.107   5.395 -0.6686 -0.9535 -0.1335
  119SOPE  C21112580   5.027  -0.006   5.360 -0.0373  0.0749  0.4183
  119SOPE  H11R12581   5.010   0.103   5.367  0.7756  0.3153 -1.0280
  119SOPE  H11S12582   4.931  -0.049   5.396 -0.3422 -1.8983 -2.4225
  119SOPE  C21212583   5.052  -0.064   5.219 -0.8196  0.1144  0.4675
  119SOPE  H12R12584   5.057  -0.174   5.234  0.9547  0.2798  1.4690
  119SOPE  H12S12585   5.154  -0.033   5.189  0.0855 -2.5215  0.5917
  119SOPE  C21312586   4.935  -0.042   5.128  0.2689 -0.7610 -0.2297
  119SOPE  H13R12587   4.919   0.067   5.109 -0.7363 -1.0451 -1.1116
  119SOPE  H13S12588   4.855  -0.091   5.188  0.3840 -0.5789  0.0795
  119SOPE  C21412589   4.948  -0.094   4.984  0.2147  0.3599  0.1588
  119SOPE  H14R12590   4.850  -0.092   4.932  1.8310 -0.3477 -3.2119
  119SOPE  H14S12591   4.960  -0.204   4.998 -0.2323  0.2798 -0.0549
  119SOPE  C21512592   5.063  -0.024   4.907  0.2555  0.1614  0.5265
  119SOPE  H15R12593   5.155  -0.054   4.961  0.9446  1.5817  0.1700
  119SOPE  H15S12594   5.059   0.087   4.913  1.4062  0.2537 -0.2533
  119SOPE  C21612595   5.079  -0.077   4.764  0.0825 -0.6807  0.6690
  119SOPE  H16R12596   4.984  -0.060   4.709  0.8657 -1.2276 -0.9093
  119SOPE  H16S12597   5.084  -0.188   4.774  1.9347 -0.7371 -0.4789
  119SOPE  C21712598   5.190  -0.017   4.683 -0.6049 -0.0954 -0.0285
  119SOPE  H17R12599   5.279  -0.027   4.749  1.0640  2.3530 -1.7255
  119SOPE  H17S12600   5.175   0.093   4.679  1.5189  0.2480  0.5375
  119SOPE  C21812601   5.193  -0.064   4.542 -0.7624 -0.4019  0.4304
  119SOPE  H18R12602   5.277  -0.013   4.489  0.4051 -3.1392 -0.5500
  119SOPE  H18S12603   5.099  -0.041   4.488 -0.4640 -1.6098 -0.6344
  119SOPE  H18T12604   5.220  -0.171   4.530  0.3375 -0.0509 -0.4492
  119SOPE   C3312605   4.231   0.243   5.752  0.2489  0.1516 -0.2478
  119SOPE   H3X12606   4.328   0.189   5.763  1.4904  1.7061 -2.5910
  119SOPE   H3Y12607   4.257   0.349   5.731 -1.7512  0.4954 -1.1444
  119SOPE   C3412608   4.149   0.186   5.636  0.6939 -0.1435 -0.3626
  119SOPE   H4X12609   4.052   0.240   5.623  1.2424  0.7771 -0.7201
  119SOPE   H4Y12610   4.126   0.083   5.670 -0.6911  0.3781  0.3893
  119SOPE   C3512611   4.217   0.190   5.502  0.2077 -0.9512 -0.0810
  119SOPE   H5X12612   4.297   0.114   5.512 -1.3300 -2.5337  0.7761
  119SOPE   H5Y12613   4.255   0.294   5.493 -1.1698 -0.2895  1.3409
  119SOPE   C3612614   4.134   0.174   5.374 -0.6236  0.3981 -0.2076
  119SOPE   H6X12615   4.062   0.257   5.361 -0.0969  0.8334 -0.3665
  119SOPE   H6Y12616   4.075   0.080   5.385 -0.0065  0.0642  0.3474
  119SOPE   C3712617   4.222   0.160   5.252  0.0908 -0.1063  0.3587
  119SOPE   H7X12618   4.298   0.080   5.260  0.4540  0.3786  2.2320
  119SOPE   H7Y12619   4.284   0.252   5.258  0.5290 -0.4425  1.1295
  119SOPE   C3812620   4.147   0.149   5.118 -0.8755 -0.6370  0.1355
  119SOPE   H8X12621   4.057   0.214   5.115  1.0972  2.2558 -0.3372
  119SOPE   H8Y12622   4.122   0.044   5.092  1.2928 -1.2375  0.2658
  119SOPE   C3912623   4.233   0.199   5.003  0.4042  0.7503  0.3763
  119SOPE   H9X12624   4.316   0.127   4.986 -0.9012 -0.0819 -3.6506
  119SOPE   H9Y12625   4.268   0.305   5.004  2.3321  0.2825 -2.8817
  119SOPE  C31012626   4.133   0.196   4.883  0.1413  0.5257 -0.3293
  119SOPE  H10X12627   4.053   0.272   4.895 -0.2179 -0.0055  0.7392
  119SOPE  H10Y12628   4.093   0.093   4.892  0.9283  0.3984  4.2376
  119SOPE  C31112629   4.204   0.215   4.738  0.0884  1.0602 -0.4247
  119SOPE  H11X12630   4.127   0.185   4.664  1.0824 -0.4117 -0.8973
  119SOPE  H11Y12631   4.289   0.145   4.725  0.5233  1.6054 -0.5720
  119SOPE  C31212632   4.257   0.358   4.711 -0.7089  0.4454  0.0395
  119SOPE  H12X12633   4.354   0.360   4.764 -1.0996 -2.5690  1.0825
  119SOPE  H12Y12634   4.185   0.431   4.754  0.6864  2.0293 -0.1879
  119SOPE  C31312635   4.279   0.385   4.564 -0.4873  0.4507  0.2304
  119SOPE  H13X12636   4.324   0.484   4.543 -2.8426  1.2318 -1.6271
  119SOPE  H13Y12637   4.183   0.373   4.509  0.2572 -1.1523 -0.8128
  119SOPE  C31412638   4.381   0.292   4.493  0.4103 -0.5022 -0.7079
  119SOPE  H14X12639   4.344   0.187   4.502 -1.0792  0.1041  0.9605
  119SOPE  H14Y12640   4.478   0.291   4.546 -0.0045  0.8467  0.1212
  119SOPE  C31512641   4.401   0.335   4.343 -0.1779 -0.2903 -0.1397
  119SOPE  H15X12642   4.413   0.446   4.345  0.0599 -0.2848 -1.4260
  119SOPE  H15Y12643   4.310   0.321   4.281 -1.0053 -1.9908  1.3519
  119SOPE  C31612644   4.517   0.272   4.272 -0.0579 -0.4904  1.1010
  119SOPE  H16X12645   4.524   0.165   4.299 -0.6599 -0.9494 -0.4713
  119SOPE  H16Y12646   4.606   0.315   4.323  0.4913  1.0317 -1.0144
  119SOPE  C31712647   4.523   0.307   4.117  0.0400 -0.4543 -0.2006
  119SOPE  H17X12648   4.506   0.416   4.102  2.4229 -0.2216 -1.7556
  119SOPE  H17Y12649   4.447   0.247   4.063  0.4400  0.5655 -1.9824
  119SOPE  C31812650   4.665   0.280   4.058  0.4227  0.8252  0.3251
  119SOPE  H18X12651   4.713   0.184   4.087 -0.1672  0.6301  0.6890
  119SOPE  H18Y12652   4.729   0.367   4.083  1.8371  0.6366 -2.3590
  119SOPE  H18Z12653   4.638   0.278   3.951 -0.1562 -2.3910  0.4449
  120SOPE     N12654   5.527   0.556   6.416  0.3808  0.2432  0.4075
  120SOPE   HN112655   5.459   0.603   6.354  1.2171  5.2520  2.7895
  120SOPE   HN212656   5.590   0.490   6.366  2.8667  1.2709  1.9611
  120SOPE   HN312657   5.469   0.512   6.491  0.3844 -0.0111  0.2632
  120SOPE   C1212658   5.620   0.659   6.474  0.6187  0.4567 -0.0209
  120SOPE  H12A12659   5.716   0.659   6.419 -0.0021 -0.2591 -1.1492
  120SOPE  H12B12660   5.642   0.624   6.577  2.5319  0.8458 -0.2693
  120SOPE   C1112661   5.552   0.796   6.468  0.0142 -0.3970 -0.2759
  120SOPE  H11A12662   5.548   0.833   6.364 -0.6884  0.4281  0.0383
  120SOPE  H11B12663   5.625   0.835   6.542  1.0679 -2.7018 -0.0060
  120SOPE     P12664   5.346   0.944   6.549  0.2880  0.7480  0.4424
  120SOPE   O1312665   5.443   1.038   6.617  0.6692 -0.0296  0.5070
  120SOPE   O1412666   5.222   0.920   6.626 -0.9964 -0.2866 -0.0344
  120SOPE   O1212667   5.422   0.799   6.524  0.0101  0.1875  0.0698
  120SOPE   O1112668   5.322   0.996   6.403  0.1122  0.4409 -0.2241
  120SOPE    C112669   5.395   1.104   6.342  0.9713  0.0466  0.0188
  120SOPE    HA12670   5.408   1.070   6.237  0.0366 -2.8270  0.7626
  120SOPE    HB12671   5.495   1.135   6.380  0.8918 -0.4671  0.6600
  120SOPE    C212672   5.318   1.242   6.356  0.3027  0.3893 -0.1562
  120SOPE    HS12673   5.288   1.258   6.461 -0.4477  0.3561 -0.3618
  120SOPE   O2112674   5.196   1.227   6.273 -0.1572 -0.7230 -0.1525
  120SOPE   C2112675   5.126   1.331   6.269  0.2568  0.2036 -0.0202
  120SOPE   O2212676   5.140   1.437   6.331 -0.0073 -0.5994  0.5838
  120SOPE   C2212677   5.004   1.320   6.180 -0.7592 -0.3288  0.1904
  120SOPE   H2R12678   4.947   1.415   6.192 -1.8152 -0.9798  0.4588
  120SOPE   H2S12679   4.945   1.229   6.203  0.2138 -1.0705 -0.1585
  120SOPE    C312680   5.411   1.353   6.302  0.4213  0.3326 -0.0287
  120SOPE    HX12681   5.500   1.352   6.370 -0.6790 -1.6152  1.5005
  120SOPE    HY12682   5.366   1.453   6.316  1.8995  1.2060 -1.2125
  120SOPE   O3112683   5.450   1.326   6.161 -0.2982 -0.0852 -0.0647
  120SOPE   C3112684   5.420   1.428   6.083 -0.8710  0.3014  0.2034
  120SOPE   O3212685   5.400   1.545   6.108 -0.5666  0.7837 -0.4324
  120SOPE   C3212686   5.441   1.380   5.940  0.6137 -0.5776  0.4604
  120SOPE   H2X12687   5.375   1.290   5.930 -3.1521  1.6423  2.7620
  120SOPE   H2Y12688   5.545   1.344   5.926  0.0780 -2.4116  0.9529
  120SOPE   C2312689   5.053   1.312   6.032 -0.0514 -0.1901 -0.9876
  120SOPE   H3R12690   5.143   1.249   6.015  1.9245  2.2277 -0.0767
  120SOPE   H3S12691   5.076   1.417   6.003  0.7605 -0.3323 -0.8676
  120SOPE   C2412692   4.939   1.276   5.944  0.2536  0.3171  0.1331
  120SOPE   H4R12693   4.910   1.171   5.966 -0.6087  0.8519  1.6384
  120SOPE   H4S12694   4.852   1.343   5.957  0.4777  0.2897  1.9222
  120SOPE   C2512695   4.986   1.268   5.794  0.0039 -0.0399 -0.1907
  120SOPE   H5R12696   5.013   1.367   5.752  0.6726  0.4883  1.4297
  120SOPE   H5S12697   5.073   1.199   5.796  0.9146  1.0862 -0.1961
  120SOPE   C2612698   4.884   1.190   5.713  0.6398  0.0133  0.1319
  120SOPE   H6R12699   4.863   1.107   5.784  0.1384  1.2398  1.4665
  120SOPE   H6S12700   4.796   1.251   5.688  1.1059  0.7521  0.2724
  120SOPE   C2712701   4.936   1.135   5.580 -0.8892  0.0755  0.3860
  120SOPE   H7R12702   4.990   1.208   5.517  2.3463 -2.9663 -0.6808
  120SOPE   H7S12703   5.017   1.068   5.615  0.5385  1.4394 -0.2001
  120SOPE   C2812704   4.837   1.055   5.498  0.4034 -0.0962  0.0842
  120SOPE   H8R12705   4.887   0.971   5.446  2.4342  0.1705  1.5067
  120SOPE   H8S12706   4.768   1.002   5.568 -1.7928  0.3176 -1.6499
  120SOPE   C2912707   4.759   1.133   5.407  0.3544 -0.4025 -0.2950
  120SOPE   H9112708   4.744   1.231   5.454  2.3588  0.7996 -1.9591
  120SOPE  C21012709   4.728   1.117   5.275  0.3022 -0.4893  0.3454
  120SOPE  H10112710   4.672   1.201   5.233  0.5256  0.6474  2.1968
  120SOPE  C21112711   4.768   1.003   5.191 -0.5192 -0.4941  0.1384
  120SOPE  H11R12712   4.703   0.913   5.192 -0.2517 -0.6913  1.0595
  120SOPE  H11S12713   4.874   0.978   5.213 -0.1746  1.3563  0.7645
  120SOPE  C21212714   4.782   1.049   5.044 -0.6625 -0.0334  0.1693
  120SOPE  H12R12715   4.880   1.098   5.031 -1.4439  1.3537 -0.8086
  120SOPE  H12S12716   4.706   1.123   5.010 -0.3114 -0.4207 -1.5829
  120SOPE  C21312717   4.765   0.935   4.946 -0.2605  0.5376  0.5409
  120SOPE  H13R12718   4.663   0.892   4.944  0.4393 -1.2121 -0.8075
  120SOPE  H13S12719   4.836   0.858   4.984  0.2275  0.1950 -1.0204
  120SOPE  C21412720   4.830   0.966   4.813 -0.1670 -0.0898  0.3125
  120SOPE  H14R12721   4.843   0.877   4.748 -1.8552  0.1144 -0.3681
  120SOPE  H14S12722   4.936   0.999   4.822 -0.1342 -0.3222  0.8098
  120SOPE  C21512723   4.756   1.089   4.743  1.2796 -0.7359 -0.2576
  120SOPE  H15R12724   4.807   1.138   4.658 -1.2368  1.0264 -0.8629
  120SOPE  H15S12725   4.734   1.162   4.824  2.9039 -0.8910  0.3525
  120SOPE  C21612726   4.618   1.051   4.695  0.1063 -0.2003 -0.2815
  120SOPE  H16R12727   4.555   1.025   4.783 -0.3730 -0.9626 -0.8430
  120SOPE  H16S12728   4.622   0.958   4.635  0.8741 -4.1404  5.1067
  120SOPE  C21712729   4.554   1.172   4.633  0.4184 -0.3879  0.0866
  120SOPE  H17R12730   4.559   1.264   4.696 -0.7976 -0.3755  0.1868
  120SOPE  H17S12731   4.446   1.153   4.616  0.4131 -1.3667  1.1015
  120SOPE  C21812732   4.609   1.214   4.493 -0.1975 -0.3139 -0.3137
  120SOPE  H18R12733   4.565   1.145   4.417 -0.8945 -2.7179  2.1140
  120SOPE  H18S12734   4.717   1.224   4.472 -0.0437 -0.7778  0.2243
  120SOPE  H18T12735   4.579   1.320   4.485  1.9117  0.4608  1.3210
  120SOPE   C3312736   5.388   1.488   5.831 -0.3234  0.1993  0.7312
  120SOPE   H3X12737   5.420   1.588   5.865  1.4016 -0.3808  0.9312
  120SOPE   H3Y12738   5.278   1.479   5.824 -0.2814  0.5721 -0.8785
  120SOPE   C3412739   5.460   1.460   5.704  0.3231  0.5923 -0.0172
  120SOPE   H4X12740   5.571   1.468   5.709  0.2291  1.3151  1.5547
  120SOPE   H4Y12741   5.443   1.538   5.627 -0.8034  0.4269  0.0594
  120SOPE   C3512742   5.420   1.328   5.633  0.2975  0.1912  0.6377
  120SOPE   H5X12743   5.426   1.236   5.696 -0.4624  1.8012  3.2009
  120SOPE   H5Y12744   5.485   1.310   5.544 -3.5073 -1.2434 -2.1348
  120SOPE   C3612745   5.283   1.324   5.561  0.2194  0.0594 -0.4844
  120SOPE   H6X12746   5.202   1.378   5.614 -1.3039 -4.0547  1.8302
  120SOPE   H6Y12747   5.235   1.224   5.553  1.5595 -0.6436 -0.1180
  120SOPE   C3712748   5.278   1.383   5.417  0.4804  0.5823  0.3645
  120SOPE   H7X12749   5.366   1.369   5.351  0.0681  3.7713 -1.0547
  120SOPE   H7Y12750   5.273   1.493   5.433  2.5858  1.1371 -2.0916
  120SOPE   C3812751   5.138   1.351   5.343 -0.3326  0.5092 -0.6088
  120SOPE   H8X12752   5.053   1.377   5.409 -1.4258 -5.1341  0.7789
  120SOPE   H8Y12753   5.131   1.240   5.344 -1.9029  0.4795 -3.4307
  120SOPE   C3912754   5.119   1.408   5.206  0.2800 -0.4040  0.2082
  120SOPE   H9X12755   5.168   1.339   5.135 -0.4444  0.3567 -1.0675
  120SOPE   H9Y12756   5.158   1.511   5.192 -0.7816  0.1731  1.2818
  120SOPE  C31012757   4.966   1.416   5.168 -0.1130  0.9638 -0.4434
  120SOPE  H10X12758   4.907   1.477   5.240 -1.9466  1.5301 -2.3284
  120SOPE  H10Y12759   4.923   1.316   5.193 -1.7983  2.0609  1.3374
  120SOPE  C31112760   4.947   1.452   5.020  0.2559  0.1046  0.0895
  120SOPE  H11X12761   5.013   1.392   4.954 -0.1224 -0.9488  0.6453
  120SOPE  H11Y12762   4.975   1.559   5.011  0.1026  0.1450  0.0918
  120SOPE  C31212763   4.802   1.430   4.988  0.3686 -0.2622  0.5141
  120SOPE  H12X12764   4.740   1.492   5.056 -1.1511  0.4919 -1.4450
  120SOPE  H12Y12765   4.778   1.323   4.999  0.3537 -0.2552  0.5493
  120SOPE  C31312766   4.762   1.461   4.845  0.4328  0.3035  0.3430
  120SOPE  H13X12767   4.662   1.423   4.815  1.4142  0.3477 -3.4827
  120SOPE  H13Y12768   4.841   1.429   4.774  0.3310  3.2320 -1.2666
  120SOPE  C31412769   4.754   1.612   4.814  0.4710  0.0216 -1.1900
  120SOPE  H14X12770   4.860   1.644   4.816  0.3265  0.4744 -0.7843
  120SOPE  H14Y12771   4.694   1.662   4.893  0.2736 -0.9956 -0.6824
  120SOPE  C31512772   4.686   1.640   4.681  0.3172  0.1515 -0.0902
  120SOPE  H15X12773   4.673   1.750   4.681  1.0700  0.2944 -2.2492
  120SOPE  H15Y12774   4.585   1.597   4.662  0.0573  0.5040  0.4702
  120SOPE  C31612775   4.772   1.601   4.561 -0.1256  0.2624 -0.5818
  120SOPE  H16X12776   4.822   1.503   4.581 -0.1015  0.4794  0.4946
  120SOPE  H16Y12777   4.864   1.663   4.549  1.1468 -1.3216  0.4981
  120SOPE  C31712778   4.693   1.602   4.427 -0.1710  0.1482 -0.4870
  120SOPE  H17X12779   4.651   1.703   4.410  0.9374  1.0662  1.9202
  120SOPE  H17Y12780   4.611   1.530   4.447  0.4848 -0.0998  1.4989
  120SOPE  C31812781   4.772   1.570   4.301 -0.0401  0.4750 -0.4303
  120SOPE  H18X12782   4.860   1.637   4.293 -0.8929  1.4792 -1.5709
  120SOPE  H18Y12783   4.714   1.594   4.210 -2.2322 -0.4978  0.6316
  120SOPE  H18Z12784   4.789   1.460   4.291  1.4076  0.7696 -1.4969
  121SOPE     N12785   4.097   1.760   6.604 -0.0173  0.1674  0.1140
  121SOPE   HN112786   4.146   1.679   6.561 -1.6541 -0.9606  0.3043
  121SOPE   HN212787   4.017   1.718   6.654  0.4831 -1.3254 -0.3041
  121SOPE   HN312788   4.058   1.828   6.536 -0.7496  1.3993  1.6737
  121SOPE   C1212789   4.177   1.842   6.704 -0.2263  0.0526  0.6420
  121SOPE  H12A12790   4.243   1.778   6.765 -0.9911  0.7441  2.2485
  121SOPE  H12B12791   4.109   1.900   6.770 -0.4039 -0.3557  0.8191
  121SOPE   C1112792   4.281   1.929   6.631 -0.4322 -0.4364  0.4993
  121SOPE  H11A12793   4.357   1.874   6.572  0.4660  1.1735  0.0806
  121SOPE  H11B12794   4.344   1.987   6.703  2.1317  0.3562 -2.2028
  121SOPE     P12795   4.184   2.164   6.584 -0.4297 -0.2238 -0.1128
  121SOPE   O1312796   4.207   2.182   6.731  0.8756  0.1546  0.0884
  121SOPE   O1412797   4.053   2.200   6.526 -0.1097 -0.0478 -0.6225
  121SOPE   O1212798   4.211   2.015   6.542  0.3207 -0.1349 -0.1218
  121SOPE   O1112799   4.308   2.224   6.502 -0.7797  0.0021  0.3400
  121SOPE    C112800   4.287   2.324   6.403  0.0299 -0.1069  0.4534
  121SOPE    HA12801   4.368   2.399   6.415 -2.4289  2.7226  0.5224
  121SOPE    HB12802   4.192   2.380   6.419  0.9253  1.1230  1.6402
  121SOPE    C212803   4.301   2.262   6.253  0.3842  0.5634 -0.2298
  121SOPE    HS12804   4.399   2.296   6.211  0.7584  0.8453  0.8317
  121SOPE   O2112805   4.186   2.294   6.172  0.2351 -0.3247  0.4807
  121SOPE   C2112806   4.184   2.419   6.128 -0.1529  0.1738  0.0312
  121SOPE   O2212807   4.274   2.495   6.162  0.1352  0.1373 -0.1287
  121SOPE   C2212808   4.068   2.435   6.033 -0.0237 -0.5561  0.5104
  121SOPE   H2R12809   4.006   2.522   6.062  1.8895  1.6048 -1.4560
  121SOPE   H2S12810   4.004   2.344   6.030 -0.5647 -0.3590  3.2149
  121SOPE    C312811   4.313   2.107   6.250 -0.2834 -0.3565 -0.3445
  121SOPE    HX12812   4.219   2.070   6.296 -0.1754  0.5312  0.6199
  121SOPE    HY12813   4.397   2.084   6.319  2.3680 -1.7183 -3.7127
  121SOPE   O3112814   4.326   2.046   6.113  0.3213  0.3889 -0.3033
  121SOPE   C3112815   4.369   1.921   6.123  0.8621  0.4755 -0.0273
  121SOPE   O3212816   4.363   1.856   6.224 -0.0570  0.0607 -0.0995
  121SOPE   C3212817   4.438   1.883   5.992 -0.5483 -0.0907  0.3427
  121SOPE   H2X12818   4.545   1.864   6.013 -0.4983 -0.6686 -0.3862
  121SOPE   H2Y12819   4.431   1.968   5.922 -1.9127 -0.5019 -0.0491
  121SOPE   C2312820   4.112   2.461   5.879  0.0490  0.4736 -0.2209
  121SOPE   H3R12821   4.183   2.547   5.883 -0.8981  1.2154  2.1969
  121SOPE   H3S12822   4.024   2.483   5.816 -0.7766 -0.6928  0.4830
  121SOPE   C2412823   4.184   2.336   5.829 -0.3360  0.1275 -0.5140
  121SOPE   H4R12824   4.278   2.312   5.883  0.0451  0.2783 -1.1077
  121SOPE   H4S12825   4.117   2.249   5.844 -0.9863  0.6709 -0.2439
  121SOPE   C2512826   4.205   2.354   5.680  0.3030 -0.3934  0.6390
  121SOPE   H5R12827   4.218   2.262   5.618  0.5359  0.8449 -1.2476
  121SOPE   H5S12828   4.107   2.393   5.644  1.1532  0.1527 -1.1848
  121SOPE   C2612829   4.323   2.451   5.660 -0.6395 -0.4049 -0.1370
  121SOPE   H6R12830   4.315   2.545   5.719  0.3831  0.0428 -0.6845
  121SOPE   H6S12831   4.425   2.416   5.687 -0.4339  1.1271  1.2203
  121SOPE   C2712832   4.335   2.499   5.511 -0.2324 -0.1477 -0.4839
  121SOPE   H7R12833   4.323   2.411   5.444  0.2841  0.2694 -1.1412
  121SOPE   H7S12834   4.248   2.565   5.489  0.5863  0.8565 -0.7634
  121SOPE   C2812835   4.471   2.563   5.479 -0.2919  0.4596  0.2097
  121SOPE   H8R12836   4.457   2.671   5.499 -1.6559  0.3961 -0.2606
  121SOPE   H8S12837   4.538   2.522   5.557 -2.2855 -3.8071 -0.0044
  121SOPE   C2912838   4.537   2.546   5.340  0.9446 -0.2455  0.8406
  121SOPE   H9112839   4.594   2.455   5.315 -2.6161 -2.6212  0.6203
  121SOPE  C21012840   4.513   2.624   5.237 -0.0370 -0.0942  0.3539
  121SOPE  H10112841   4.569   2.600   5.145  1.1463 -0.6388  1.1997
  121SOPE  C21112842   4.408   2.731   5.238  0.1135 -0.3664 -0.5072
  121SOPE  H11R12843   4.329   2.722   5.316 -0.5139  0.9666 -0.9515
  121SOPE  H11S12844   4.352   2.724   5.142 -1.3360  0.2249  0.2519
  121SOPE  C21212845   4.477   2.869   5.258 -0.4379 -0.1614  1.5799
  121SOPE  H12R12846   4.527   2.879   5.357 -0.4083 -1.0073  1.6575
  121SOPE  H12S12847   4.399   2.949   5.257  1.0876  1.3971  2.1283
  121SOPE  C21312848   4.580   2.901   5.147 -0.1437 -0.4090  0.0396
  121SOPE  H13R12849   4.666   2.832   5.143 -0.8353 -1.3261  0.5960
  121SOPE  H13S12850   4.611   3.006   5.170 -1.3040  0.2778 -1.3436
  121SOPE  C21412851   4.509   2.906   5.010 -0.2047  0.6031 -0.0311
  121SOPE  H14R12852   4.430   2.983   5.007 -0.2502  0.5738  0.3475
  121SOPE  H14S12853   4.461   2.811   4.980 -1.8367  1.8154 -1.4323
  121SOPE  C21512854   4.599   2.945   4.892 -0.7673 -0.0343 -0.4685
  121SOPE  H15R12855   4.669   2.859   4.877 -2.7484 -2.1705  1.6921
  121SOPE  H15S12856   4.664   3.031   4.921 -1.2812 -0.3500  1.7576
  121SOPE  C21612857   4.527   2.981   4.761  0.3795  0.0739  0.4771
  121SOPE  H16R12858   4.470   3.076   4.777  0.9088  0.3563  0.7041
  121SOPE  H16S12859   4.463   2.897   4.727  1.4050  0.0971 -1.6799
  121SOPE  C21712860   4.614   3.027   4.640  0.5171 -0.4152 -0.6414
  121SOPE  H17R12861   4.548   3.036   4.551  0.4972 -0.6943 -0.6551
  121SOPE  H17S12862   4.679   2.940   4.618 -3.0809 -2.8241 -2.7796
  121SOPE  C21812863   4.706   3.146   4.654  0.0406  0.3915  0.4180
  121SOPE  H18R12864   4.778   3.154   4.569 -0.1999  1.7901  0.3304
  121SOPE  H18S12865   4.758   3.144   4.752  0.0029 -0.4620  0.4304
  121SOPE  H18T12866   4.636   3.232   4.659 -2.8643 -1.6810 -1.2467
  121SOPE   C3312867   4.382   1.762   5.924 -0.3842  0.3872 -0.3665
  121SOPE   H3X12868   4.402   1.668   5.978 -2.9425 -0.2951 -0.4737
  121SOPE   H3Y12869   4.420   1.737   5.822  0.7262 -0.6556  0.2846
  121SOPE   C3412870   4.233   1.778   5.894  0.1735 -1.0165 -0.7941
  121SOPE   H4X12871   4.223   1.870   5.832 -0.1829 -0.2058  0.4129
  121SOPE   H4Y12872   4.172   1.801   5.984  0.9872  1.2616 -0.7617
  121SOPE   C3512873   4.163   1.654   5.829  0.2522 -0.2928  0.3647
  121SOPE   H5X12874   4.149   1.573   5.903  0.4098  1.1296  2.0063
  121SOPE   H5Y12875   4.235   1.630   5.747 -0.9793 -0.7830 -0.6163
  121SOPE   C3612876   4.024   1.698   5.768  0.2340 -0.2931  0.1515
  121SOPE   H6X12877   4.025   1.802   5.730  0.7832  0.4596  2.1181
  121SOPE   H6Y12878   3.949   1.692   5.850 -1.5338  0.6662 -1.3246
  121SOPE   C3712879   3.970   1.607   5.655  0.5920  0.1162 -0.1974
  121SOPE   H7X12880   3.859   1.613   5.649  0.5581 -0.9777 -1.0450
  121SOPE   H7Y12881   4.003   1.502   5.671 -0.5694  0.1268  2.8582
  121SOPE   C3812882   4.024   1.654   5.523  0.3762  0.6384 -0.2004
  121SOPE   H8X12883   4.131   1.625   5.517  0.4867  0.5155  1.5925
  121SOPE   H8Y12884   4.017   1.765   5.522  0.4386  0.6917  1.4962
  121SOPE   C3912885   3.941   1.603   5.399  0.4682  0.0779  0.1055
  121SOPE   H9X12886   3.836   1.637   5.416 -1.0331 -3.1930 -1.6587
  121SOPE   H9Y12887   3.956   1.494   5.382  0.3258 -0.6042  3.6312
  121SOPE  C31012888   3.992   1.675   5.279 -0.2738 -1.0077  0.1448
  121SOPE  H10X12889   4.090   1.629   5.252 -1.4495 -3.1146 -0.8059
  121SOPE  H10Y12890   3.995   1.781   5.310  0.2913 -0.8198 -0.5168
  121SOPE  C31112891   3.904   1.642   5.153  0.1092  0.1572  0.7621
  121SOPE  H11X12892   3.815   1.706   5.168  0.2039  1.1160 -2.0853
  121SOPE  H11Y12893   3.862   1.540   5.141 -1.0234  0.7739 -0.8275
  121SOPE  C31212894   3.980   1.676   5.026  0.5046  0.5346  0.1269
  121SOPE  H12X12895   4.062   1.600   5.025  0.1090  0.0971  0.6022
  121SOPE  H12Y12896   4.004   1.785   5.027 -1.6804  1.0534  1.0612
  121SOPE  C31312897   3.902   1.675   4.894  0.2282 -0.4283 -0.8785
  121SOPE  H13X12898   3.962   1.708   4.806 -1.9979  3.5233 -1.1682
  121SOPE  H13Y12899   3.829   1.759   4.900  0.9252  0.0768  2.5139
  121SOPE  C31412900   3.824   1.545   4.865  0.3630  0.9461 -0.3555
  121SOPE  H14X12901   3.763   1.528   4.956 -2.2958  0.3925 -2.1363
  121SOPE  H14Y12902   3.895   1.462   4.850  1.8650  2.1372 -0.0593
  121SOPE  C31512903   3.740   1.568   4.742 -0.1117 -0.0435 -0.3211
  121SOPE  H15X12904   3.643   1.616   4.768 -0.2598  0.7432 -2.2006
  121SOPE  H15Y12905   3.722   1.465   4.703  1.4884 -0.8884  1.0347
  121SOPE  C31612906   3.792   1.648   4.625  1.0180 -0.6028 -0.2654
  121SOPE  H16X12907   3.889   1.609   4.588  1.8156  0.9741  0.1049
  121SOPE  H16Y12908   3.803   1.754   4.656  0.6938 -0.9193  1.0073
  121SOPE  C31712909   3.692   1.652   4.513 -1.3049  0.0106  1.3343
  121SOPE  H17X12910   3.596   1.697   4.545 -1.6245  1.0698 -0.8886
  121SOPE  H17Y12911   3.653   1.556   4.474  0.9324 -0.0319 -1.1292
  121SOPE  C31812912   3.747   1.734   4.391  0.1458  0.0503 -0.0005
  121SOPE  H18X12913   3.739   1.843   4.411 -0.4614  0.3221 -1.5819
  121SOPE  H18Y12914   3.681   1.707   4.305  1.3238  0.1398 -0.9546
  121SOPE  H18Z12915   3.850   1.701   4.366 -0.1247 -0.2963 -0.7074
  122SOPE     N12916   3.092   1.815   6.345  0.5266 -0.4349  0.4750
  122SOPE   HN112917   3.059   1.903   6.390 -1.4394 -0.7926 -0.1733
  122SOPE   HN212918   3.012   1.750   6.359  1.2112 -1.4689 -0.2222
  122SOPE   HN312919   3.171   1.768   6.394  1.7623 -0.3531 -1.3565
  122SOPE   C1212920   3.143   1.824   6.203 -0.3486 -0.4293  0.7679
  122SOPE  H12A12921   3.059   1.858   6.138 -1.6905 -2.1181  1.5481
  122SOPE  H12B12922   3.173   1.723   6.167 -0.9173 -0.8608  1.4861
  122SOPE   C1112923   3.264   1.915   6.172  0.3826  0.6444 -0.1010
  122SOPE  H11A12924   3.225   2.018   6.181 -0.4482  0.1806  2.1181
  122SOPE  H11B12925   3.305   1.912   6.068 -0.3216  0.8125 -0.3854
  122SOPE     P12926   3.507   1.960   6.258 -0.0784 -0.0370  0.0729
  122SOPE   O1312927   3.599   1.923   6.370 -0.0898 -0.0294  0.5268
  122SOPE   O1412928   3.474   2.104   6.260 -0.5899  0.1347 -0.5603
  122SOPE   O1212929   3.370   1.879   6.268 -0.2092 -0.0660 -0.0481
  122SOPE   O1112930   3.570   1.907   6.131  0.2597 -0.0405  0.2129
  122SOPE    C112931   3.681   1.972   6.063 -0.0369  0.1301  0.2274
  122SOPE    HA12932   3.727   1.906   5.987  0.8615  2.8352 -1.6888
  122SOPE    HB12933   3.770   1.987   6.128  0.7823 -0.3534 -0.7585
  122SOPE    C212934   3.630   2.094   5.989 -0.5137 -0.4224 -0.3407
  122SOPE    HS12935   3.612   2.169   6.069  0.9615  1.5257 -1.7080
  122SOPE   O2112936   3.505   2.057   5.920 -0.0822 -0.4536 -0.3806
  122SOPE   C2112937   3.440   2.169   5.873 -0.1216  0.3349  0.1367
  122SOPE   O2212938   3.475   2.284   5.897  0.5785 -0.0396  0.3979
  122SOPE   C2212939   3.308   2.133   5.806 -1.0560  0.4130  0.1480
  122SOPE   H2R12940   3.247   2.091   5.889 -0.8946  1.6867  0.9277
  122SOPE   H2S12941   3.329   2.055   5.730 -1.4930  0.8967 -0.4798
  122SOPE    C312942   3.747   2.149   5.895 -0.0363  0.1389 -0.1608
  122SOPE    HX12943   3.831   2.163   5.967  0.0988  0.9024 -0.4630
  122SOPE    HY12944   3.716   2.245   5.849 -0.5573  0.7352  1.3685
  122SOPE   O3112945   3.779   2.040   5.801  0.4017  0.2356 -0.4014
  122SOPE   C3112946   3.724   2.056   5.676  0.2355 -0.4704  0.2855
  122SOPE   O3212947   3.662   2.155   5.637 -0.5336  0.6501 -0.0481
  122SOPE   C3212948   3.770   1.949   5.581  0.0477  0.1534 -0.7203
  122SOPE   H2X12949   3.755   1.855   5.637 -0.6188  1.4263  1.3497
  122SOPE   H2Y12950   3.880   1.958   5.564 -0.4164  0.9681 -4.0158
  122SOPE   C2312951   3.232   2.244   5.728 -0.8042  0.2712 -0.0642
  122SOPE   H3R12952   3.229   2.341   5.782  2.3968  0.9134 -0.7835
  122SOPE   H3S12953   3.132   2.199   5.712 -0.9697 -0.1207  1.7954
  122SOPE   C2412954   3.284   2.261   5.588 -0.5604 -0.0830  0.5555
  122SOPE   H4R12955   3.227   2.349   5.551 -0.7128  0.5545  2.1952
  122SOPE   H4S12956   3.393   2.282   5.586 -0.8706  1.5834 -0.5591
  122SOPE   C2512957   3.258   2.140   5.497  0.5797 -0.1591 -0.0254
  122SOPE   H5R12958   3.305   2.050   5.542 -0.2101 -0.0386  1.0785
  122SOPE   H5S12959   3.149   2.121   5.485  0.2637  2.1418 -1.4855
  122SOPE   C2612960   3.321   2.165   5.363 -0.2157 -0.3492 -0.0976
  122SOPE   H6R12961   3.269   2.255   5.324  0.0612 -0.2679 -0.2825
  122SOPE   H6S12962   3.427   2.198   5.365 -0.5904  1.1096 -1.5609
  122SOPE   C2712963   3.305   2.054   5.262 -0.5739  0.6825  0.1783
  122SOPE   H7R12964   3.375   1.976   5.300 -1.9112 -0.1750  0.9526
  122SOPE   H7S12965   3.200   2.019   5.258 -1.2267  2.4396  0.6596
  122SOPE   C2812966   3.347   2.102   5.119  0.4727 -0.0617 -0.3363
  122SOPE   H8R12967   3.272   2.177   5.086 -1.9633 -1.7110  1.1909
  122SOPE   H8S12968   3.437   2.167   5.131 -0.6684  1.1174  3.0237
  122SOPE   C2912969   3.370   1.990   5.013  0.2685 -0.2681  0.0208
  122SOPE   H9112970   3.299   1.906   5.013  1.0142 -0.9521  1.7035
  122SOPE  C21012971   3.465   1.980   4.922  0.8336  0.2951 -0.4982
  122SOPE  H10112972   3.466   1.899   4.848  1.3872 -0.4956  0.3413
  122SOPE  C21112973   3.574   2.079   4.910 -0.4398 -0.3174  0.0587
  122SOPE  H11R12974   3.593   2.132   5.006  1.0715  1.1614 -0.9887
  122SOPE  H11S12975   3.561   2.157   4.832  2.6159 -0.8442 -1.0999
  122SOPE  C21212976   3.710   2.011   4.877 -0.1032  0.3478 -0.0605
  122SOPE  H12R12977   3.717   1.969   4.774  0.1079 -0.3800  0.2476
  122SOPE  H12S12978   3.709   1.919   4.939 -0.6276 -0.7874 -1.6661
  122SOPE  C21312979   3.830   2.102   4.909  0.0476  0.1988  0.5043
  122SOPE  H13R12980   3.925   2.044   4.916 -0.9849 -1.4533  1.4704
  122SOPE  H13S12981   3.826   2.133   5.016  3.0858 -2.2560  1.4986
  122SOPE  C21412982   3.853   2.227   4.820 -0.1848 -0.6367 -0.0497
  122SOPE  H14R12983   3.938   2.282   4.865 -0.1948 -1.1980  0.6733
  122SOPE  H14S12984   3.766   2.293   4.843 -0.0602 -0.5647  0.2170
  122SOPE  C21512985   3.871   2.197   4.672 -0.7384  0.6161 -0.1881
  122SOPE  H15R12986   3.853   2.291   4.617 -2.4411 -0.8365 -2.3011
  122SOPE  H15S12987   3.786   2.131   4.646 -0.6411  0.0558  0.8612
  122SOPE  C21612988   4.000   2.126   4.640 -1.1931 -0.1511 -0.2983
  122SOPE  H16R12989   4.005   2.035   4.704  1.7983  0.0053 -0.1473
  122SOPE  H16S12990   4.087   2.192   4.663 -1.9674  1.4783 -1.8164
  122SOPE  C21712991   4.000   2.086   4.491 -0.2666  0.0330 -0.5690
  122SOPE  H17R12992   4.009   2.174   4.423 -2.1161 -0.7537 -1.9333
  122SOPE  H17S12993   3.906   2.033   4.467 -0.0708 -0.3917 -0.3978
  122SOPE  C21812994   4.113   1.989   4.449  0.0405  0.5091 -0.0911
  122SOPE  H18R12995   4.115   1.892   4.503 -0.4076 -0.1534 -1.2461
  122SOPE  H18S12996   4.214   2.033   4.464 -0.0742  0.1337  2.1448
  122SOPE  H18T12997   4.097   1.961   4.343 -0.3295  0.5544 -0.0514
  122SOPE   C3312998   3.690   1.964   5.442  0.0860  0.4312 -0.1423
  122SOPE   H3X12999   3.580   1.975   5.454 -0.1919  0.0578 -2.1035
  122SOPE   H3Y13000   3.715   1.871   5.387  0.2313  0.2103  0.2906
  122SOPE   C3413001   3.736   2.087   5.359 -0.1919 -1.0004  0.1565
  122SOPE   H4X13002   3.678   2.172   5.399  1.7452 -0.4112  1.8771
  122SOPE   H4Y13003   3.693   2.075   5.257 -0.2995  0.3834  0.0204
  122SOPE   C3513004   3.887   2.128   5.342  0.1151  0.4429 -0.6144
  122SOPE   H5X13005   3.938   2.049   5.283  1.0894  2.4699 -2.6503
  122SOPE   H5Y13006   3.941   2.131   5.439 -0.3037  0.6223 -0.3829
  122SOPE   C3613007   3.903   2.266   5.285  0.8480 -0.0666 -0.6707
  122SOPE   H6X13008   3.874   2.343   5.359  1.0206 -1.6840  1.1710
  122SOPE   H6Y13009   3.827   2.273   5.205 -0.5949 -2.7746  0.3445
  122SOPE   C3713010   4.043   2.306   5.232  0.3949 -0.1117 -0.6722
  122SOPE   H7X13011   4.081   2.214   5.183 -1.0634 -2.3507  2.1149
  122SOPE   H7Y13012   4.113   2.326   5.316  2.3787  3.8810 -2.9710
  122SOPE   C3813013   4.045   2.440   5.152 -0.2296 -0.2254 -0.8315
  122SOPE   H8X13014   4.030   2.530   5.216 -1.6891  0.6131 -2.2723
  122SOPE   H8Y13015   3.967   2.451   5.073  0.7641 -2.3260 -2.2059
  122SOPE   C3913016   4.174   2.445   5.071 -0.0981 -0.3129  0.7206
  122SOPE   H9X13017   4.167   2.357   5.004 -1.2286  1.1909 -1.2550
  122SOPE   H9Y13018   4.267   2.448   5.131 -0.4132  0.6138  1.1788
  122SOPE  C31013019   4.167   2.571   4.974  0.0413 -0.3622 -0.8515
  122SOPE  H10X13020   4.268   2.614   4.956 -1.0790  3.4552  1.0220
  122SOPE  H10Y13021   4.117   2.659   5.020 -0.2568 -0.6321 -0.6497
  122SOPE  C31113022   4.092   2.549   4.839 -0.5706  0.1434 -0.2663
  122SOPE  H11X13023   4.028   2.638   4.820  0.5608  0.7960 -1.1566
  122SOPE  H11Y13024   4.022   2.463   4.842  0.1125 -0.4107  0.0143
  122SOPE  C31213025   4.178   2.520   4.718  0.3719  1.0941 -0.3615
  122SOPE  H12X13026   4.179   2.410   4.700 -0.6967  0.5171  2.5595
  122SOPE  H12Y13027   4.284   2.538   4.746  0.2765  0.6279  0.3188
  122SOPE  C31313028   4.146   2.582   4.586  0.3324 -1.1602 -0.3121
  122SOPE  H13X13029   4.151   2.693   4.582  0.7046 -0.9854  2.8299
  122SOPE  H13Y13030   4.041   2.551   4.572 -0.4446  0.1472  2.1215
  122SOPE  C31413031   4.226   2.538   4.462 -0.3929  0.0662  0.0470
  122SOPE  H14X13032   4.299   2.620   4.446  1.7663 -1.4584  1.5066
  122SOPE  H14Y13033   4.170   2.530   4.366 -0.0544 -1.6612 -0.0426
  122SOPE  C31513034   4.326   2.422   4.471  0.8033 -0.2510 -0.4081
  122SOPE  H15X13035   4.268   2.328   4.487 -1.8653  1.2785 -0.4394
  122SOPE  H15Y13036   4.390   2.441   4.560 -1.3377  0.3514  1.1107
  122SOPE  C31613037   4.404   2.390   4.341  0.9050 -0.4241 -0.2676
  122SOPE  H16X13038   4.453   2.486   4.315 -0.4062  0.4167  0.2608
  122SOPE  H16Y13039   4.318   2.375   4.273 -0.1429 -3.2431  1.4862
  122SOPE  C31713040   4.499   2.262   4.347  0.9073 -0.0466 -0.3970
  122SOPE  H17X13041   4.439   2.174   4.379  0.3357 -0.1533 -1.6950
  122SOPE  H17Y13042   4.568   2.277   4.433  0.1185 -2.4812  0.7713
  122SOPE  C31813043   4.568   2.227   4.214 -0.2298  0.4429  0.3704
  122SOPE  H18X13044   4.494   2.196   4.138 -0.1006  0.8715  0.0634
  122SOPE  H18Y13045   4.626   2.132   4.222  0.2197  0.6083 -0.7654
  122SOPE  H18Z13046   4.642   2.303   4.182 -0.4128 -0.1720 -1.6213
  123SOPE     N13047   2.799   1.736   2.257  0.1264 -0.3540  0.8241
  123SOPE   HN113048   2.819   1.673   2.337 -0.9958  1.1606  2.3705
  123SOPE   HN213049   2.710   1.712   2.208  1.4714 -1.3631 -1.2658
  123SOPE   HN313050   2.876   1.714   2.191  0.5840  0.1060  1.2010
  123SOPE   C1213051   2.807   1.879   2.311  0.2346 -0.6166 -0.3871
  123SOPE  H12A13052   2.746   1.871   2.403 -1.6850  1.6195 -1.3599
  123SOPE  H12B13053   2.770   1.954   2.238  2.6867  0.4875 -0.5830
  123SOPE   C1113054   2.956   1.915   2.331 -0.4307 -0.1382  0.5568
  123SOPE  H11A13055   3.018   1.841   2.387  0.2431 -0.7211 -0.9127
  123SOPE  H11B13056   2.958   2.002   2.401  2.0293  0.7553 -0.4957
  123SOPE     P13057   3.106   1.869   2.114 -0.0409 -0.7248  0.4923
  123SOPE   O1313058   3.179   1.946   2.010 -0.2215 -0.4691 -0.0817
  123SOPE   O1413059   3.011   1.759   2.069 -0.3837  0.1085  0.8146
  123SOPE   O1213060   3.033   1.965   2.217 -0.9100  0.7346  0.5651
  123SOPE   O1113061   3.218   1.805   2.202 -0.4855  0.7585  0.8724
  123SOPE    C113062   3.332   1.891   2.241  0.3785 -0.1659 -0.4208
  123SOPE    HA13063   3.299   1.997   2.249 -0.6071 -0.5679  1.5813
  123SOPE    HB13064   3.410   1.883   2.163  0.8947 -0.8487  0.1471
  123SOPE    C213065   3.395   1.844   2.376  0.4487  0.1164  0.4227
  123SOPE    HS13066   3.426   1.738   2.361 -0.2086 -0.0947  0.5551
  123SOPE   O2113067   3.292   1.860   2.475 -0.1762 -0.3034  0.7858
  123SOPE   C2113068   3.281   1.766   2.570 -0.3064 -0.2924 -0.4396
  123SOPE   O2213069   3.345   1.661   2.566 -0.0117 -0.1197 -0.7233
  123SOPE   C2213070   3.183   1.812   2.685 -0.7376  0.0073  0.2488
  123SOPE   H2R13071   3.117   1.724   2.700 -1.4714  0.6633  0.9421
  123SOPE   H2S13072   3.114   1.884   2.636  1.2383  2.1912  0.5405
  123SOPE    C313073   3.519   1.926   2.407 -0.5863 -0.1109 -0.9363
  123SOPE    HX13074   3.497   2.034   2.391  0.9673  0.2358 -0.8913
  123SOPE    HY13075   3.591   1.888   2.332  0.0251 -0.6563 -0.0913
  123SOPE   O3113076   3.565   1.923   2.541 -0.7970  0.0396 -0.3651
  123SOPE   C3113077   3.647   1.820   2.575 -0.4105 -0.6997 -0.1445
  123SOPE   O3213078   3.673   1.726   2.500  0.2660 -0.3488 -0.6001
  123SOPE   C3213079   3.696   1.839   2.722 -0.4977 -0.8982  0.1385
  123SOPE   H2X13080   3.682   1.945   2.752 -0.9358 -0.4467 -1.5394
  123SOPE   H2Y13081   3.804   1.818   2.707 -0.3352  1.3356 -2.6200
  123SOPE   C2313082   3.240   1.864   2.815 -0.4475 -0.5300 -0.1106
  123SOPE   H3R13083   3.269   1.970   2.799 -0.3887 -0.2254  1.7527
  123SOPE   H3S13084   3.329   1.807   2.849 -0.4468 -1.6760 -1.9271
  123SOPE   C2413085   3.142   1.863   2.931 -0.4155 -0.9653  0.2163
  123SOPE   H4R13086   3.046   1.905   2.894  0.2435  1.3648  0.9850
  123SOPE   H4S13087   3.113   1.762   2.967  0.3562 -2.7864 -3.7374
  123SOPE   C2513088   3.191   1.953   3.047  0.1317  0.4444  0.4729
  123SOPE   H5R13089   3.286   1.908   3.083  0.1923  0.1712 -0.0160
  123SOPE   H5S13090   3.226   2.050   3.003  3.2520 -1.7039 -2.3882
  123SOPE   C2613091   3.090   1.977   3.158  0.3705 -0.5014  0.5976
  123SOPE   H6R13092   2.990   2.009   3.121 -0.1949 -2.2664  0.5384
  123SOPE   H6S13093   3.081   1.880   3.210  0.6409 -0.0178  1.5670
  123SOPE   C2713094   3.140   2.073   3.258  0.2570  0.5230 -0.4666
  123SOPE   H7R13095   3.239   2.048   3.303 -0.0414 -0.5815 -0.3820
  123SOPE   H7S13096   3.145   2.173   3.211  0.1331  0.5974 -0.3216
  123SOPE   C2813097   3.025   2.105   3.365  0.4379  0.6091  0.3558
  123SOPE   H8R13098   3.037   2.212   3.390  1.8026  1.2908 -2.7475
  123SOPE   H8S13099   2.928   2.089   3.313  1.5281  1.3641 -2.0417
  123SOPE   C2913100   3.049   2.013   3.481  0.5787  0.1279 -0.0687
  123SOPE   H9113101   3.039   1.904   3.471 -1.5351  0.3418 -0.9627
  123SOPE  C21013102   3.060   2.049   3.611 -0.4827  0.3385  0.5630
  123SOPE  H10113103   3.093   1.971   3.681  3.1419  0.5365 -0.7094
  123SOPE  C21113104   3.069   2.196   3.657 -0.3823 -0.3873 -0.1868
  123SOPE  H11R13105   2.972   2.224   3.704 -1.1801 -0.3850 -1.7811
  123SOPE  H11S13106   3.081   2.267   3.573  2.3664 -1.3928 -0.7566
  123SOPE  C21213107   3.183   2.209   3.763 -0.3289  0.0514  0.5815
  123SOPE  H12R13108   3.284   2.174   3.729 -0.6270 -0.7124  0.4541
  123SOPE  H12S13109   3.153   2.142   3.846 -1.0647 -0.7248 -0.2925
  123SOPE  C21313110   3.197   2.350   3.825 -0.1079  0.4213 -0.1412
  123SOPE  H13R13111   3.092   2.377   3.849 -0.1707 -0.2435  0.3626
  123SOPE  H13S13112   3.237   2.418   3.747 -0.6363  0.2448 -0.5641
  123SOPE  C21413113   3.289   2.341   3.951 -0.0775 -0.7765 -0.2850
  123SOPE  H14R13114   3.386   2.291   3.926  0.3126  0.6922 -1.9121
  123SOPE  H14S13115   3.241   2.283   4.032  1.9823  0.4975  1.9918
  123SOPE  C21513116   3.313   2.475   3.999 -0.1001  0.1634 -0.2352
  123SOPE  H15R13117   3.225   2.542   3.985 -0.4487 -0.7772 -3.2096
  123SOPE  H15S13118   3.400   2.520   3.947 -0.4425  0.2097 -0.7839
  123SOPE  C21613119   3.346   2.481   4.152  0.0058 -0.5750  0.3672
  123SOPE  H16R13120   3.448   2.443   4.177  1.0555  1.1320 -1.0456
  123SOPE  H16S13121   3.277   2.412   4.204  0.5449 -1.0757  0.4351
  123SOPE  C21713122   3.346   2.625   4.215  0.5228  0.4299 -0.0151
  123SOPE  H17R13123   3.241   2.661   4.223 -0.0629 -1.0399 -0.8305
  123SOPE  H17S13124   3.410   2.695   4.157  3.8369 -0.9538  1.6991
  123SOPE  C21813125   3.403   2.628   4.357 -0.6627  0.2854  0.5424
  123SOPE  H18R13126   3.416   2.735   4.386  3.0164  0.1062  0.0728
  123SOPE  H18S13127   3.502   2.580   4.374 -0.6658 -0.5115 -1.4251
  123SOPE  H18T13128   3.332   2.575   4.424 -1.3552 -1.5741 -1.5634
  123SOPE   C3313129   3.628   1.732   2.811 -0.2618 -0.5201 -0.5343
  123SOPE   H3X13130   3.658   1.631   2.774 -2.1924 -1.2664 -0.1849
  123SOPE   H3Y13131   3.519   1.735   2.789 -0.2790  1.3907 -0.3635
  123SOPE   C3413132   3.655   1.760   2.957 -0.3168 -0.3268  0.1610
  123SOPE   H4X13133   3.657   1.870   2.968  3.1334 -0.5006  2.6486
  123SOPE   H4Y13134   3.761   1.738   2.983 -0.5748 -2.6281 -0.4479
  123SOPE   C3513135   3.552   1.698   3.047  0.0201  0.1508 -0.2982
  123SOPE   H5X13136   3.569   1.588   3.053  1.5460  0.4479  2.3341
  123SOPE   H5Y13137   3.448   1.701   3.007 -0.2343  1.1124  0.4052
  123SOPE   C3613138   3.535   1.756   3.189 -0.9289  0.5404  0.0283
  123SOPE   H6X13139   3.498   1.860   3.176 -0.4400  0.5419 -1.5695
  123SOPE   H6Y13140   3.629   1.755   3.248 -1.2375 -1.6966  0.5435
  123SOPE   C3713141   3.426   1.670   3.255 -1.1962 -0.1640 -0.2871
  123SOPE   H7X13142   3.472   1.571   3.276 -0.5417 -0.0537 -1.1453
  123SOPE   H7Y13143   3.339   1.665   3.186 -0.3336  0.4781 -1.4474
  123SOPE   C3813144   3.376   1.747   3.381  0.0348  0.3981  0.3347
  123SOPE   H8X13145   3.297   1.685   3.429  0.0489 -0.1883 -0.3849
  123SOPE   H8Y13146   3.340   1.850   3.357 -2.1995 -0.6687 -1.2176
  123SOPE   C3913147   3.480   1.761   3.487  0.1186  0.7640  0.0132
  123SOPE   H9X13148   3.551   1.837   3.446 -0.0302  0.9617  0.1215
  123SOPE   H9Y13149   3.528   1.663   3.509 -1.2814  0.2606  0.8672
  123SOPE  C31013150   3.420   1.812   3.616 -0.7373 -0.3059  0.2308
  123SOPE  H10X13151   3.347   1.745   3.666 -0.4621 -0.1209  0.9056
  123SOPE  H10Y13152   3.367   1.907   3.598  0.4232  0.3081 -0.0091
  123SOPE  C31113153   3.533   1.835   3.718 -0.5185 -0.4580 -1.1083
  123SOPE  H11X13154   3.608   1.905   3.674  1.8990 -2.2807 -0.1618
  123SOPE  H11Y13155   3.594   1.747   3.747  1.1144  0.7002 -0.8810
  123SOPE  C31213156   3.481   1.872   3.861 -0.3948  0.6234 -0.2040
  123SOPE  H12X13157   3.432   1.787   3.913 -2.2360  1.5237 -0.3785
  123SOPE  H12Y13158   3.398   1.942   3.837  0.6003  1.4380 -1.4214
  123SOPE  C31313159   3.574   1.951   3.956  0.3236 -0.4628  0.5286
  123SOPE  H13X13160   3.595   2.043   3.897 -2.7336 -0.2967 -0.4760
  123SOPE  H13Y13161   3.664   1.890   3.977  1.4721  1.1744  0.5699
  123SOPE  C31413162   3.499   1.994   4.087 -0.5586  0.1463  0.2354
  123SOPE  H14X13163   3.450   1.907   4.135 -0.2704 -0.4720 -0.5717
  123SOPE  H14Y13164   3.415   2.065   4.068 -0.6754  0.4549  1.7307
  123SOPE  C31513165   3.599   2.057   4.190  0.2584 -0.2656  0.5138
  123SOPE  H15X13166   3.666   2.125   4.135 -0.6841 -0.5817 -1.0942
  123SOPE  H15Y13167   3.655   1.977   4.244 -1.6388  0.1834  3.3727
  123SOPE  C31613168   3.531   2.139   4.292  0.5082 -0.0235  0.2027
  123SOPE  H16X13169   3.433   2.102   4.327 -0.2402  1.0281 -0.7017
  123SOPE  H16Y13170   3.527   2.244   4.256  0.3884  0.4507  1.5378
  123SOPE  C31713171   3.617   2.160   4.417 -0.0907  0.2248 -0.6706
  123SOPE  H17X13172   3.723   2.184   4.394 -0.0044 -1.8357 -2.9654
  123SOPE  H17Y13173   3.615   2.066   4.475 -3.4572  0.2077 -0.6591
  123SOPE  C31813174   3.552   2.262   4.504 -0.4631  0.0963  0.1632
  123SOPE  H18X13175   3.450   2.222   4.523 -0.0278  0.0929  2.8762
  123SOPE  H18Y13176   3.548   2.366   4.466  0.1591  0.1728  0.2967
  123SOPE  H18Z13177   3.609   2.254   4.599 -0.9152 -1.0334  0.3691
  124SOPE     N13178   0.452   0.747   1.782 -0.2616  0.1213 -0.6058
  124SOPE   HN113179   0.515   0.672   1.748  3.3740  1.1771  3.0792
  124SOPE   HN213180   0.358   0.708   1.805  0.8157 -0.9493  2.5107
  124SOPE   HN313181   0.435   0.820   1.710 -0.7743  0.6584  0.0429
  124SOPE   C1213182   0.513   0.816   1.899  0.4191 -0.6192  0.1066
  124SOPE  H12A13183   0.545   0.743   1.976  2.6272 -0.2093 -0.3655
  124SOPE  H12B13184   0.437   0.883   1.946 -0.2588 -1.8332  0.7927
  124SOPE   C1113185   0.638   0.898   1.862 -0.0352  0.0232 -0.7419
  124SOPE  H11A13186   0.715   0.830   1.821 -0.4447  0.0008 -1.5068
  124SOPE  H11B13187   0.681   0.956   1.946 -2.2996 -0.5972  0.9680
  124SOPE     P13188   0.522   1.127   1.774 -0.3957 -0.1576  0.3196
  124SOPE   O1313189   0.400   1.121   1.692 -0.4304  0.2290 -0.2653
  124SOPE   O1413190   0.605   1.246   1.745 -0.2767 -0.2358 -0.3946
  124SOPE   O1213191   0.610   0.994   1.756 -0.3223  0.5471 -0.0543
  124SOPE   O1113192   0.485   1.111   1.926  0.0854 -0.6593 -0.0725
  124SOPE    C113193   0.526   1.208   2.022 -0.1393  0.0752 -0.3162
  124SOPE    HA13194   0.489   1.307   1.985 -3.4095  0.5822  3.5780
  124SOPE    HB13195   0.634   1.208   2.044 -0.6013  0.4999  2.3510
  124SOPE    C213196   0.451   1.193   2.159 -0.2343  0.8950 -0.0470
  124SOPE    HS13197   0.499   1.102   2.202  0.5750  0.9573 -0.8173
  124SOPE   O2113198   0.307   1.171   2.146  0.0016  0.2625  0.0661
  124SOPE   C2113199   0.254   1.097   2.245 -0.2840 -0.6611  0.9355
  124SOPE   O2213200   0.309   1.026   2.318 -0.4047  0.0152 -0.0845
  124SOPE   C2213201   0.101   1.114   2.241 -0.1079 -0.2695  0.0382
  124SOPE   H2R13202   0.044   1.020   2.257 -0.8405  0.3900  1.5626
  124SOPE   H2S13203   0.080   1.156   2.140 -3.0110 -0.3825  0.5035
  124SOPE    C313204   0.487   1.308   2.260 -0.0624  0.1699 -0.2618
  124SOPE    HX13205   0.445   1.397   2.208  1.7203  1.2057  0.0017
  124SOPE    HY13206   0.597   1.325   2.261  0.0404 -0.4609 -0.0455
  124SOPE   O3113207   0.427   1.293   2.389  0.0431  0.4598 -0.5668
  124SOPE   C3113208   0.505   1.244   2.484 -0.6576 -0.0205 -0.5968
  124SOPE   O3213209   0.623   1.204   2.474 -0.0046  0.2937 -0.6358
  124SOPE   C3213210   0.429   1.238   2.616  0.3778 -0.3363 -0.7423
  124SOPE   H2X13211   0.370   1.145   2.603  1.7226 -1.2726 -0.3509
  124SOPE   H2Y13212   0.359   1.323   2.628 -0.8063 -1.5819  2.0394
  124SOPE   C2313213   0.068   1.219   2.348  0.5776 -0.2287  0.6372
  124SOPE   H3R13214  -0.035   1.256   2.332  0.8536  1.5807  2.6385
  124SOPE   H3S13215   0.136   1.305   2.328  1.6182 -1.0067  0.7280
  124SOPE   C2413216   0.073   1.162   2.494 -0.0320  0.4172 -0.2148
  124SOPE   H4R13217   0.009   1.072   2.500  0.8081 -0.1294  0.6667
  124SOPE   H4S13218   0.178   1.130   2.510  0.0869  1.0046  0.1873
  124SOPE   C2513219   0.049   1.265   2.600  0.1125 -0.1860  0.4101
  124SOPE   H5R13220   0.112   1.354   2.577 -2.5337  1.7488  0.2358
  124SOPE   H5S13221  -0.058   1.294   2.600 -0.0952 -0.4658 -3.2886
  124SOPE   C2613222   0.074   1.220   2.747 -0.3625  0.2774  0.6811
  124SOPE   H6R13223   0.182   1.205   2.767 -0.2646  0.7988  0.5610
  124SOPE   H6S13224   0.031   1.294   2.817  0.5305  1.1180  0.3691
  124SOPE   C2713225  -0.001   1.095   2.793  0.8725  0.1557 -0.1657
  124SOPE   H7R13226  -0.108   1.092   2.763  1.4392 -3.3689 -2.3376
  124SOPE   H7S13227   0.047   1.009   2.743  0.7697 -0.7953  1.2889
  124SOPE   C2813228   0.025   1.071   2.943  0.2335 -0.1522 -0.1957
  124SOPE   H8R13229  -0.005   0.964   2.950 -2.5793  0.4938 -1.0920
  124SOPE   H8S13230   0.135   1.079   2.956  0.6196 -0.0759 -3.0445
  124SOPE   C2913231  -0.069   1.141   3.040  0.0450 -1.1400 -0.4197
  124SOPE   H9113232  -0.174   1.142   3.008 -0.0259  2.3166 -0.4352
  124SOPE  C21013233  -0.043   1.198   3.155 -0.0045 -0.7813 -0.6908
  124SOPE  H10113234  -0.128   1.234   3.215 -1.3297 -1.6794 -1.9734
  124SOPE  C21113235   0.090   1.222   3.217 -0.1142 -0.5166 -0.5103
  124SOPE  H11R13236   0.145   1.280   3.140 -0.8699 -1.4048 -1.7529
  124SOPE  H11S13237   0.148   1.130   3.240 -0.8944 -0.7431  0.6562
  124SOPE  C21213238   0.094   1.293   3.357  0.1161  0.5072  0.3940
  124SOPE  H12R13239   0.040   1.390   3.365  0.8085  1.3103 -3.1579
  124SOPE  H12S13240   0.202   1.311   3.375  0.1221  0.0162  0.8856
  124SOPE  C21313241   0.045   1.206   3.474  0.3927  0.5045 -0.2099
  124SOPE  H13R13242   0.108   1.115   3.485 -2.5258 -1.4937  1.2155
  124SOPE  H13S13243  -0.058   1.166   3.459  0.6240 -1.2557  2.2493
  124SOPE  C21413244   0.044   1.282   3.605  0.1429 -0.0590 -1.0708
  124SOPE  H14R13245   0.012   1.214   3.687 -2.6917  0.9637 -1.2331
  124SOPE  H14S13246  -0.032   1.362   3.600  0.0321 -0.2035 -2.0482
  124SOPE  C21513247   0.179   1.337   3.643  0.4269  0.3716 -0.1622
  124SOPE  H15R13248   0.210   1.413   3.568 -0.5965  0.8526 -0.1272
  124SOPE  H15S13249   0.253   1.255   3.636  1.3140  0.7875  2.7253
  124SOPE  C21613250   0.203   1.403   3.781  0.0127 -0.2617  0.2213
  124SOPE  H16R13251   0.135   1.490   3.789 -1.4794 -1.3864  0.3285
  124SOPE  H16S13252   0.306   1.442   3.796 -0.5237  0.8921  1.0669
  124SOPE  C21713253   0.184   1.301   3.888  0.1647  0.3384  0.1568
  124SOPE  H17R13254   0.239   1.207   3.867 -0.9972 -0.1644 -0.7604
  124SOPE  H17S13255   0.078   1.268   3.881 -0.2189  1.5645 -0.0540
  124SOPE  C21813256   0.216   1.355   4.029 -0.2681  0.7717  0.1315
  124SOPE  H18R13257   0.187   1.283   4.108 -0.5372  0.1311 -0.5479
  124SOPE  H18S13258   0.157   1.448   4.047 -1.2448 -0.0031  0.9973
  124SOPE  H18T13259   0.325   1.376   4.026  0.1969 -1.4870 -2.6440
  124SOPE   C3313260   0.524   1.232   2.740  0.2086 -0.7240 -0.1696
  124SOPE   H3X13261   0.568   1.328   2.772  1.6998 -0.6263 -2.3048
  124SOPE   H3Y13262   0.613   1.169   2.719  0.0896 -0.8084 -0.4374
  124SOPE   C3413263   0.462   1.163   2.860 -0.3058 -0.0353 -0.5968
  124SOPE   H4X13264   0.435   1.061   2.828  2.3791 -1.3648  1.0443
  124SOPE   H4Y13265   0.369   1.217   2.890  0.2679  0.4105  0.4435
  124SOPE   C3513266   0.559   1.134   2.971 -0.2841  0.0193  0.0617
  124SOPE   H5X13267   0.592   1.231   3.016 -1.5693  0.2128  0.6245
  124SOPE   H5Y13268   0.646   1.074   2.938 -0.7391 -0.0080 -1.1538
  124SOPE   C3613269   0.490   1.062   3.084  0.2299  0.3114 -0.3654
  124SOPE   H6X13270   0.457   0.963   3.045  1.1755 -1.0565  2.0592
  124SOPE   H6Y13271   0.403   1.120   3.123 -0.1606 -1.3922  1.5119
  124SOPE   C3713272   0.587   1.049   3.202  0.4312 -0.0181 -0.6432
  124SOPE   H7X13273   0.691   1.049   3.164  0.2201  2.3331 -1.3907
  124SOPE   H7Y13274   0.558   0.958   3.258 -1.0599  1.1957  0.6256
  124SOPE   C3813275   0.568   1.162   3.305 -0.2098  0.3027 -0.5078
  124SOPE   H8X13276   0.459   1.183   3.305 -0.2795  0.1326 -2.3199
  124SOPE   H8Y13277   0.624   1.250   3.268  1.0079 -0.4011 -0.4061
  124SOPE   C3913278   0.618   1.112   3.435 -0.6513  0.7417 -0.2531
  124SOPE   H9X13279   0.729   1.118   3.428 -0.1904 -3.1591  1.1752
  124SOPE   H9Y13280   0.598   1.006   3.462 -1.3217  0.7715 -0.6289
  124SOPE  C31013281   0.563   1.193   3.560 -0.1603  0.1799  0.7106
  124SOPE  H10X13282   0.592   1.143   3.655 -1.4955 -1.9097  0.0884
  124SOPE  H10Y13283   0.453   1.184   3.549  0.0964 -0.2889 -2.7070
  124SOPE  C31113284   0.608   1.337   3.560  0.3460  0.1132 -0.5692
  124SOPE  H11X13285   0.568   1.388   3.470  0.3780  2.0176  0.4585
  124SOPE  H11Y13286   0.719   1.335   3.566  0.3373  2.4674  2.9707
  124SOPE  C31213287   0.552   1.414   3.679  0.5497  0.3676  0.2290
  124SOPE  H12X13288   0.533   1.341   3.760 -0.7092  0.6794  0.2322
  124SOPE  H12Y13289   0.458   1.463   3.648 -0.4233 -1.4247  0.2149
  124SOPE  C31313290   0.644   1.516   3.733 -0.2105 -0.6642 -0.2856
  124SOPE  H13X13291   0.652   1.599   3.660 -0.7631 -0.6040 -0.2861
  124SOPE  H13Y13292   0.748   1.478   3.726  0.0498  0.1444 -1.0148
  124SOPE  C31413293   0.606   1.567   3.871 -0.0083  0.0245  0.7189
  124SOPE  H14X13294   0.586   1.482   3.940 -1.1815 -0.5843 -0.3336
  124SOPE  H14Y13295   0.517   1.634   3.868 -0.1320 -0.0106  2.5896
  124SOPE  C31513296   0.717   1.636   3.943 -0.5790  0.2393  0.1266
  124SOPE  H15X13297   0.747   1.733   3.898 -0.3224 -0.6081 -1.5996
  124SOPE  H15Y13298   0.808   1.574   3.951 -0.3238  0.8049  2.7602
  124SOPE  C31613299   0.662   1.681   4.078 -0.6886  0.2131 -0.0086
  124SOPE  H16X13300   0.641   1.597   4.148  0.0590 -0.2585 -0.3325
  124SOPE  H16Y13301   0.574   1.747   4.062  1.2883  2.5213 -2.1956
  124SOPE  C31713302   0.765   1.763   4.157  0.2970 -0.0494 -0.7063
  124SOPE  H17X13303   0.706   1.851   4.190 -3.1794 -2.3819 -0.1890
  124SOPE  H17Y13304   0.858   1.778   4.099  0.1137  1.5143 -0.6265
  124SOPE  C31813305   0.812   1.688   4.282 -0.3884 -0.1304 -0.1094
  124SOPE  H18X13306   0.905   1.743   4.310 -0.8940  0.1275  1.1529
  124SOPE  H18Y13307   0.845   1.584   4.262  0.1533  0.1678 -0.7818
  124SOPE  H18Z13308   0.737   1.688   4.364  0.5954 -1.8641  0.8614
  125SOPE     N13309   1.410   1.303   2.138  0.2309  0.2460 -0.1301
  125SOPE   HN113310   1.320   1.341   2.103 -1.5082 -1.5438  2.1015
  125SOPE   HN213311   1.465   1.383   2.176 -0.5254  0.3351  0.8017
  125SOPE   HN313312   1.462   1.255   2.062  1.4940  0.9635  0.2394
  125SOPE   C1213313   1.393   1.202   2.249  0.1472 -0.4223 -0.0515
  125SOPE  H12A13314   1.317   1.127   2.217 -0.2152 -0.2759  0.4523
  125SOPE  H12B13315   1.355   1.250   2.342 -3.0188 -0.5429 -1.1442
  125SOPE   C1113316   1.515   1.098   2.266 -0.0664  0.1027  0.1174
  125SOPE  H11A13317   1.524   1.045   2.169  0.8315 -0.0354  0.2682
  125SOPE  H11B13318   1.503   1.027   2.350  2.5575 -0.4513  0.1178
  125SOPE     P13319   1.750   1.232   2.209 -0.1539  0.0559 -0.3831
  125SOPE   O1313320   1.808   1.346   2.283  0.2220  0.4703  0.4513
  125SOPE   O1413321   1.703   1.263   2.072 -0.3035 -0.6450 -0.6651
  125SOPE   O1213322   1.638   1.161   2.299 -0.0664 -0.7142  0.1289
  125SOPE   O1113323   1.866   1.124   2.194 -0.4715  0.1211  0.0011
  125SOPE    C113324   1.893   1.017   2.276 -0.3325  0.0230 -1.0341
  125SOPE    HA13325   1.961   0.949   2.221  2.0179  0.2959  1.3371
  125SOPE    HB13326   1.802   0.961   2.307  0.0113 -0.2306 -0.4648
  125SOPE    C213327   1.966   1.052   2.408  0.0824  0.1704  0.2718
  125SOPE    HS13328   1.998   0.962   2.466  1.0455 -0.3937 -1.0741
  125SOPE   O2113329   1.891   1.144   2.496 -0.0240  0.5621  0.0086
  125SOPE   C2113330   1.793   1.081   2.549 -0.6008  0.0250 -0.7539
  125SOPE   O2213331   1.755   0.965   2.531  0.0475  1.0658 -0.6544
  125SOPE   C2213332   1.729   1.173   2.658 -0.6913  0.2482  0.7430
  125SOPE   H2R13333   1.660   1.102   2.708 -0.5052 -0.3455  0.1906
  125SOPE   H2S13334   1.658   1.245   2.613 -0.2031  0.2612 -0.0397
  125SOPE    C313335   2.100   1.113   2.368 -0.2749  0.7131 -0.7232
  125SOPE    HX13336   2.085   1.207   2.310  1.6267  1.6794  0.2803
  125SOPE    HY13337   2.136   1.031   2.301  0.4012 -0.4469  0.9958
  125SOPE   O3113338   2.193   1.120   2.479  0.0547 -0.4841 -0.2693
  125SOPE   C3113339   2.179   1.227   2.550  0.2541 -0.1900 -0.3444
  125SOPE   O3213340   2.109   1.324   2.520 -0.3224 -0.5400  0.1314
  125SOPE   C3213341   2.272   1.226   2.665 -0.0501  0.2897  0.4716
  125SOPE   H2X13342   2.371   1.256   2.622 -0.6317 -0.4856 -1.5394
  125SOPE   H2Y13343   2.276   1.120   2.698 -1.9321  0.3989  1.1930
  125SOPE   C2313344   1.820   1.247   2.761 -0.4313  0.6496 -0.1777
  125SOPE   H3R13345   1.754   1.331   2.791 -2.6397 -1.3063  0.7776
  125SOPE   H3S13346   1.904   1.294   2.706 -0.9741  2.8459  0.7718
  125SOPE   C2413347   1.861   1.163   2.883  0.3929  0.4208  0.3457
  125SOPE   H4R13348   1.787   1.081   2.881 -1.0129  1.6316 -2.1598
  125SOPE   H4S13349   1.964   1.120   2.885 -0.3420 -1.3663  1.3673
  125SOPE   C2513350   1.842   1.250   3.007  0.6054 -0.3069  0.1310
  125SOPE   H5R13351   1.923   1.326   3.005  1.5011 -1.2059  1.1437
  125SOPE   H5S13352   1.742   1.299   3.001  1.7113  2.2214  0.9319
  125SOPE   C2613353   1.859   1.188   3.143  0.4800 -0.3982  0.6184
  125SOPE   H6R13354   1.791   1.101   3.145  2.7495 -2.2873  0.2559
  125SOPE   H6S13355   1.964   1.150   3.136  1.3898  2.0234  0.0453
  125SOPE   C2713356   1.830   1.280   3.264  0.4291  0.0739 -0.2343
  125SOPE   H7R13357   1.898   1.368   3.270 -1.4295  1.5232  0.2739
  125SOPE   H7S13358   1.723   1.307   3.269  0.5574  0.7462 -0.9015
  125SOPE   C2813359   1.882   1.215   3.396  0.5464  0.0723 -0.2036
  125SOPE   H8R13360   1.836   1.258   3.488 -2.5943 -3.6731  0.2280
  125SOPE   H8S13361   1.855   1.107   3.402  0.0771  0.1669 -0.5888
  125SOPE   C2913362   2.037   1.224   3.414  0.9323 -0.4506  0.2276
  125SOPE   H9113363   2.083   1.172   3.329 -0.7862 -1.5406 -0.0757
  125SOPE  C21013364   2.113   1.268   3.520  0.5072  0.1609  0.5939
  125SOPE  H10113365   2.223   1.265   3.512  0.4925 -1.5255  0.7603
  125SOPE  C21113366   2.058   1.336   3.640 -0.0092 -0.2513 -0.4105
  125SOPE  H11R13367   1.966   1.391   3.614 -0.8453 -1.6824 -0.5939
  125SOPE  H11S13368   2.127   1.417   3.673 -0.9858 -0.2160  1.7210
  125SOPE  C21213369   2.024   1.247   3.760 -0.2003 -0.2126 -0.1036
  125SOPE  H12R13370   2.110   1.188   3.799 -0.9000 -0.2845  1.3830
  125SOPE  H12S13371   1.940   1.177   3.741  1.1255 -1.5268 -1.4102
  125SOPE  C21313372   1.980   1.330   3.880  0.5894  0.0947  0.0072
  125SOPE  H13R13373   1.894   1.391   3.845  1.3976  1.1924 -0.1007
  125SOPE  H13S13374   2.058   1.405   3.904  0.5832  1.3064 -3.2542
  125SOPE  C21413375   1.960   1.245   3.996 -0.1243  0.2419  0.5949
  125SOPE  H14R13376   2.048   1.183   4.019 -0.5447 -0.6601 -0.1583
  125SOPE  H14S13377   1.885   1.165   3.977  1.5791 -1.3723  0.4156
  125SOPE  C21513378   1.908   1.315   4.121  0.0542 -0.2827 -0.1733
  125SOPE  H15R13379   1.798   1.327   4.116 -0.0655 -0.8357  0.7881
  125SOPE  H15S13380   1.938   1.422   4.123 -1.8157  0.2869  2.4550
  125SOPE  C21613381   1.952   1.255   4.256 -0.0879  0.1740 -0.0062
  125SOPE  H16R13382   1.940   1.333   4.334  0.8700 -1.8196  2.2475
  125SOPE  H16S13383   2.061   1.237   4.247  0.3305  1.0537  2.5277
  125SOPE  C21713384   1.871   1.131   4.301  0.5503  0.0767 -0.2096
  125SOPE  H17R13385   1.886   1.051   4.226 -1.0231  1.0260 -1.6138
  125SOPE  H17S13386   1.764   1.160   4.310  0.7019  0.0716  3.1675
  125SOPE  C21813387   1.922   1.093   4.441  0.0573 -0.1253 -0.2288
  125SOPE  H18R13388   1.998   1.014   4.431  1.3192  1.0074  0.0781
  125SOPE  H18S13389   1.841   1.049   4.503 -0.2400  1.4441  0.5703
  125SOPE  H18T13390   1.954   1.178   4.505  0.1226  1.7343 -2.5827
  125SOPE   C3313391   2.234   1.315   2.781 -0.3051  0.0147 -0.0907
  125SOPE   H3X13392   2.128   1.313   2.817 -0.4145 -0.5954 -0.4350
  125SOPE   H3Y13393   2.255   1.418   2.746  0.6925 -0.0702  0.2257
  125SOPE   C3413394   2.318   1.297   2.905  0.0019 -0.0916  0.3424
  125SOPE   H4X13395   2.333   1.388   2.967  0.1267  0.0741  0.0730
  125SOPE   H4Y13396   2.418   1.274   2.863 -0.0635 -0.2183  0.2570
  125SOPE   C3513397   2.274   1.180   2.997 -0.5918 -0.1034  0.2246
  125SOPE   H5X13398   2.282   1.083   2.943 -1.9061 -0.0818 -0.0337
  125SOPE   H5Y13399   2.170   1.205   3.028 -0.6921  4.5296 -2.7977
  125SOPE   C3613400   2.350   1.182   3.130 -0.6946 -0.0544 -0.8891
  125SOPE   H6X13401   2.331   1.270   3.194 -1.5659 -1.5881  1.1040
  125SOPE   H6Y13402   2.458   1.180   3.105 -0.8369 -1.4810 -1.5047
  125SOPE   C3713403   2.306   1.070   3.225 -0.3601  0.3648 -0.1308
  125SOPE   H7X13404   2.226   1.005   3.182  0.6276  0.2091 -1.8232
  125SOPE   H7Y13405   2.271   1.115   3.321 -0.4439  0.7601 -0.3431
  125SOPE   C3813406   2.425   0.984   3.263  0.0675  0.0824 -0.7496
  125SOPE   H8X13407   2.503   1.061   3.280 -1.0471  1.3320 -1.1735
  125SOPE   H8Y13408   2.450   0.923   3.173 -1.5690  1.6658 -2.3354
  125SOPE   C3913409   2.417   0.891   3.384  0.3991 -0.0964  0.2791
  125SOPE   H9X13410   2.504   0.823   3.385 -0.0388 -0.6684  0.8915
  125SOPE   H9Y13411   2.326   0.827   3.380 -0.3322  0.7860  1.8947
  125SOPE  C31013412   2.415   0.960   3.523  0.4823 -0.2648 -0.4175
  125SOPE  H10X13413   2.339   1.040   3.538  1.0373  0.3548 -0.8433
  125SOPE  H10Y13414   2.505   1.024   3.534 -1.7127  3.1585 -0.8928
  125SOPE  C31113415   2.405   0.857   3.639 -0.3325  0.5690 -1.0004
  125SOPE  H11X13416   2.470   0.773   3.606  0.2351  0.3161  0.6510
  125SOPE  H11Y13417   2.301   0.819   3.632 -0.1289 -0.1309 -0.3994
  125SOPE  C31213418   2.449   0.920   3.781 -0.1622  0.2399  0.3689
  125SOPE  H12X13419   2.558   0.940   3.774 -0.0628 -0.7612 -2.8406
  125SOPE  H12Y13420   2.420   0.853   3.864 -0.7705  2.9159  2.4610
  125SOPE  C31313421   2.365   1.054   3.805 -0.0379  1.1761  0.7461
  125SOPE  H13X13422   2.257   1.032   3.815  0.2337 -0.7716 -0.1936
  125SOPE  H13Y13423   2.390   1.131   3.729  0.3844  1.1936  0.9016
  125SOPE  C31413424   2.409   1.114   3.938  0.4920  1.3279 -0.3346
  125SOPE  H14X13425   2.519   1.133   3.936  0.7328  0.0324 -1.6613
  125SOPE  H14Y13426   2.380   1.047   4.022 -0.6655  1.8591 -0.2899
  125SOPE  C31513427   2.345   1.249   3.974 -0.2473  0.0108  0.1231
  125SOPE  H15X13428   2.235   1.249   3.983 -0.2854 -0.8435 -0.2355
  125SOPE  H15Y13429   2.366   1.322   3.893 -0.8201 -1.5618 -1.5253
  125SOPE  C31613430   2.389   1.303   4.108 -0.3306  0.5585 -0.1077
  125SOPE  H16X13431   2.498   1.321   4.116  0.0651 -1.6571  0.2127
  125SOPE  H16Y13432   2.375   1.230   4.191 -0.3129 -0.0290 -0.6242
  125SOPE  C31713433   2.314   1.437   4.149  0.0903 -0.1498  0.1082
  125SOPE  H17X13434   2.348   1.462   4.251  1.9920 -2.6264  0.1928
  125SOPE  H17Y13435   2.207   1.405   4.150  0.0113  0.0682 -0.7063
  125SOPE  C31813436   2.321   1.547   4.045 -0.1659  0.6919  0.0143
  125SOPE  H18X13437   2.274   1.515   3.950  0.7827  2.3011 -1.0468
  125SOPE  H18Y13438   2.426   1.549   4.010 -0.2041 -2.5562 -0.6731
  125SOPE  H18Z13439   2.277   1.644   4.075  0.7063  1.3337 -0.7406
  126SOPE     N13440   4.131   1.507   1.913 -0.5700 -0.1910 -0.0713
  126SOPE   HN113441   4.200   1.457   1.972  0.7114  0.7728 -0.6890
  126SOPE   HN213442   4.057   1.443   1.880 -0.5098  0.4566 -1.5780
  126SOPE   HN313443   4.185   1.535   1.828 -1.3176 -1.0910 -0.8637
  126SOPE   C1213444   4.082   1.628   1.987  0.5603  0.4005 -0.0526
  126SOPE  H12A13445   4.035   1.587   2.079 -0.1907  0.8536 -0.2321
  126SOPE  H12B13446   4.007   1.687   1.930  0.4862  0.8226  0.4762
  126SOPE   C1113447   4.200   1.718   2.027  0.7041  0.9281 -0.3904
  126SOPE  H11A13448   4.264   1.665   2.101 -0.8394  0.4689  0.6538
  126SOPE  H11B13449   4.156   1.809   2.072 -0.8754 -0.0930  0.2340
  126SOPE     P13450   4.414   1.812   1.929  0.2407  0.3066  0.0818
  126SOPE   O1313451   4.462   1.882   1.806 -0.1096  0.5844  0.3001
  126SOPE   O1413452   4.504   1.713   1.983 -0.3079  0.2412  0.0138
  126SOPE   O1213453   4.270   1.748   1.910  0.1070  0.2778  0.9004
  126SOPE   O1113454   4.386   1.922   2.043  0.0507 -0.5022 -0.4532
  126SOPE    C113455   4.313   2.036   2.012  0.4879  0.4584  0.8767
  126SOPE    HA13456   4.209   2.017   2.047  0.2984 -2.8415 -1.0283
  126SOPE    HB13457   4.304   2.060   1.904  2.7742  3.3241  1.2079
  126SOPE    C213458   4.378   2.164   2.081  0.2559 -0.3046 -0.6790
  126SOPE    HS13459   4.482   2.184   2.047  0.4058 -0.7365 -0.4735
  126SOPE   O2113460   4.369   2.145   2.223 -0.6051 -0.1523  0.3217
  126SOPE   C2113461   4.484   2.105   2.271  0.4009 -0.5493  0.0167
  126SOPE   O2213462   4.584   2.073   2.207  0.0341  0.2849  0.5033
  126SOPE   C2213463   4.469   2.094   2.419 -0.0107 -0.0787 -0.0560
  126SOPE   H2R13464   4.388   2.023   2.447 -0.1674  0.5207  1.1193
  126SOPE   H2S13465   4.427   2.190   2.458  1.6102  0.1174  1.3421
  126SOPE    C313466   4.305   2.291   2.037  0.1248  0.4599 -0.0399
  126SOPE    HX13467   4.194   2.285   2.048  0.0044  4.1942  2.2524
  126SOPE    HY13468   4.325   2.294   1.927 -1.3491  1.2779 -0.3085
  126SOPE   O3113469   4.363   2.405   2.103  0.1412  0.0167 -0.2280
  126SOPE   C3113470   4.291   2.453   2.201 -0.5014  0.7706 -0.2746
  126SOPE   O3213471   4.195   2.408   2.250  0.7132  0.5602 -0.0411
  126SOPE   C3213472   4.385   2.565   2.255 -0.1844 -0.3305 -0.1553
  126SOPE   H2X13473   4.368   2.659   2.200  1.7951 -0.3630 -0.9129
  126SOPE   H2Y13474   4.494   2.545   2.244  0.1928  0.8995  1.0653
  126SOPE   C2313475   4.600   2.053   2.491  0.4132 -0.0898 -1.1054
  126SOPE   H3R13476   4.652   2.146   2.522 -1.4527  0.0336  2.0882
  126SOPE   H3S13477   4.662   2.007   2.411  0.2617  0.4370 -1.5269
  126SOPE   C2413478   4.579   1.950   2.607  0.3264 -0.4278 -0.0460
  126SOPE   H4R13479   4.520   1.987   2.693 -0.6437  0.3058 -0.9882
  126SOPE   H4S13480   4.525   1.862   2.565 -2.0628  0.5740  0.7430
  126SOPE   C2513481   4.717   1.900   2.664  0.9684  0.8695 -0.2087
  126SOPE   H5R13482   4.776   1.867   2.576  0.5499  0.3721 -0.3032
  126SOPE   H5S13483   4.781   1.977   2.711 -0.7478  1.0283  2.0276
  126SOPE   C2613484   4.703   1.785   2.768 -0.8549  0.5141 -0.1949
  126SOPE   H6R13485   4.629   1.722   2.714  0.0844 -0.3595 -0.4970
  126SOPE   H6S13486   4.800   1.733   2.780 -1.5585 -1.1562 -1.2837
  126SOPE   C2713487   4.651   1.831   2.908 -1.0710  0.3496  0.5245
  126SOPE   H7R13488   4.734   1.874   2.968  0.0128 -0.3809 -0.4323
  126SOPE   H7S13489   4.571   1.908   2.896  0.3945  1.4582 -4.1949
  126SOPE   C2813490   4.592   1.725   3.001 -0.4374 -0.2765 -0.4985
  126SOPE   H8R13491   4.660   1.638   2.988 -0.4581 -0.3039 -0.4192
  126SOPE   H8S13492   4.598   1.752   3.108 -1.3459  1.1112 -0.7782
  126SOPE   C2913493   4.451   1.701   2.959  0.9043  0.4350 -0.4219
  126SOPE   H9113494   4.428   1.641   2.870  0.0364  0.4526 -0.2122
  126SOPE  C21013495   4.343   1.749   3.031 -0.3903  0.3345  0.4410
  126SOPE  H10113496   4.242   1.737   2.990  0.6890 -0.7916 -2.1034
  126SOPE  C21113497   4.346   1.831   3.157 -0.3610 -1.1745  0.3067
  126SOPE  H11R13498   4.249   1.881   3.175 -0.7194 -0.9107 -2.0842
  126SOPE  H11S13499   4.416   1.916   3.144  1.1003 -2.3551  0.1170
  126SOPE  C21213500   4.387   1.746   3.279  0.8087 -0.7307 -0.0655
  126SOPE  H12R13501   4.493   1.715   3.276  1.6219  1.4957  2.1098
  126SOPE  H12S13502   4.316   1.662   3.299  0.8160 -0.7334 -0.0495
  126SOPE  C21313503   4.405   1.829   3.409 -0.2621 -0.8584 -0.5896
  126SOPE  H13R13504   4.315   1.894   3.418  0.2443 -0.0671 -1.1145
  126SOPE  H13S13505   4.491   1.895   3.388 -0.2969 -1.4508 -2.8131
  126SOPE  C21413506   4.433   1.749   3.538  0.0174 -0.5910  0.1792
  126SOPE  H14R13507   4.529   1.698   3.513  0.2078 -0.3893  0.5040
  126SOPE  H14S13508   4.356   1.674   3.566  0.2351 -0.6563  0.6086
  126SOPE  C21513509   4.469   1.842   3.651 -0.0750 -0.5352  0.1839
  126SOPE  H15R13510   4.383   1.905   3.679  0.8131 -0.1811  2.2841
  126SOPE  H15S13511   4.539   1.919   3.612  0.2925 -1.5129 -1.1764
  126SOPE  C21613512   4.540   1.774   3.773 -0.1108 -0.6799  0.2717
  126SOPE  H16R13513   4.623   1.713   3.731 -0.5131  0.8766 -3.1414
  126SOPE  H16S13514   4.457   1.727   3.829 -1.8480  1.9152  0.0209
  126SOPE  C21713515   4.605   1.874   3.873 -0.2879  0.5698 -0.2410
  126SOPE  H17R13516   4.535   1.958   3.855 -1.4047 -0.6237 -1.7779
  126SOPE  H17S13517   4.704   1.907   3.833 -0.2927  1.5490  0.5231
  126SOPE  C21813518   4.639   1.817   4.010 -0.1856  0.2449 -0.0360
  126SOPE  H18R13519   4.675   1.901   4.073  0.2754  0.9768 -1.2410
  126SOPE  H18S13520   4.724   1.747   4.009 -2.1724 -2.3695 -2.2700
  126SOPE  H18T13521   4.545   1.766   4.040 -0.3602 -1.1118 -2.6199
  126SOPE   C3313522   4.354   2.603   2.404  0.8948 -0.0701  0.2733
  126SOPE   H3X13523   4.245   2.599   2.425  1.3967 -2.5536  3.2945
  126SOPE   H3Y13524   4.378   2.710   2.420  2.0895 -0.3649  0.6354
  126SOPE   C3413525   4.425   2.503   2.498 -0.1770  0.6430 -0.3236
  126SOPE   H4X13526   4.534   2.524   2.492 -0.0383  0.3670  0.8568
  126SOPE   H4Y13527   4.404   2.410   2.442  0.2198 -0.1244  0.7558
  126SOPE   C3513528   4.356   2.520   2.630 -0.1009  0.0002 -0.5451
  126SOPE   H5X13529   4.264   2.457   2.625 -0.4871 -0.0219  3.4278
  126SOPE   H5Y13530   4.327   2.625   2.649  1.1525  0.8064 -2.7767
  126SOPE   C3613531   4.433   2.463   2.750 -0.5602  0.6671 -0.3456
  126SOPE   H6X13532   4.485   2.553   2.789 -0.4828  0.7557 -0.6522
  126SOPE   H6Y13533   4.498   2.381   2.712  0.3694 -0.1172  2.6717
  126SOPE   C3713534   4.341   2.414   2.870  0.3463  0.1069  0.4826
  126SOPE   H7X13535   4.285   2.320   2.848  0.6906 -0.1085  0.5128
  126SOPE   H7Y13536   4.277   2.502   2.893 -1.4238 -0.7159 -1.0215
  126SOPE   C3813537   4.421   2.380   3.001  0.7308  0.3334  0.1365
  126SOPE   H8X13538   4.451   2.478   3.042  1.0430 -0.0277  0.7929
  126SOPE   H8Y13539   4.512   2.326   2.967 -1.4308 -1.6352 -3.1508
  126SOPE   C3913540   4.349   2.293   3.101 -1.1375 -0.2553 -0.3522
  126SOPE   H9X13541   4.314   2.202   3.047 -4.0069  1.7393 -2.1668
  126SOPE   H9Y13542   4.254   2.339   3.137  0.1462  1.4242  1.0780
  126SOPE  C31013543   4.444   2.242   3.216  0.5922 -0.5334  0.2322
  126SOPE  H10X13544   4.528   2.193   3.163 -2.2906 -1.9874 -3.3886
  126SOPE  H10Y13545   4.389   2.168   3.277  1.9656 -0.6406  1.3910
  126SOPE  C31113546   4.496   2.356   3.309 -0.4781  0.0860 -0.1548
  126SOPE  H11X13547   4.419   2.436   3.304  0.9560  1.4643 -0.9614
  126SOPE  H11Y13548   4.594   2.398   3.278  0.1248 -0.2422  1.2253
  126SOPE  C31213549   4.514   2.306   3.454  0.2141  0.0500  0.0986
  126SOPE  H12X13550   4.551   2.381   3.528  0.1763 -1.0439  1.2526
  126SOPE  H12Y13551   4.581   2.218   3.448  1.4054  0.9597 -0.4501
  126SOPE  C31313552   4.380   2.264   3.518 -0.5800 -0.0443 -0.5211
  126SOPE  H13X13553   4.333   2.179   3.465 -0.9050 -0.1730 -0.0379
  126SOPE  H13Y13554   4.319   2.356   3.504  1.0234  0.7571 -2.8188
  126SOPE  C31413555   4.396   2.230   3.667 -0.0623  0.4574  0.0880
  126SOPE  H14X13556   4.467   2.300   3.715  1.3387 -0.4808 -0.5558
  126SOPE  H14Y13557   4.444   2.131   3.681 -1.2822 -0.2155 -0.3148
  126SOPE  C31513558   4.268   2.236   3.750  0.2181  0.2932  0.6491
  126SOPE  H15X13559   4.206   2.160   3.697  1.4632 -0.1814 -0.1985
  126SOPE  H15Y13560   4.226   2.337   3.733  2.7584  1.1879 -0.8224
  126SOPE  C31613561   4.283   2.192   3.899  0.3421 -0.6605 -0.2019
  126SOPE  H16X13562   4.362   2.256   3.943 -1.2305  0.0437  1.7560
  126SOPE  H16Y13563   4.311   2.084   3.899  2.3225 -0.1813 -0.5154
  126SOPE  C31713564   4.157   2.200   3.984  0.2264 -0.3660  0.3638
  126SOPE  H17X13565   4.075   2.178   3.912 -0.0216 -0.1179  0.5643
  126SOPE  H17Y13566   4.137   2.307   4.008 -0.4824 -0.8354  2.0284
  126SOPE  C31813567   4.161   2.114   4.105  0.1196 -0.2118  0.4252
  126SOPE  H18X13568   4.170   2.175   4.197 -2.3520  3.0749 -1.3111
  126SOPE  H18Y13569   4.238   2.035   4.090 -2.4644 -2.6955 -0.5557
  126SOPE  H18Z13570   4.064   2.062   4.116  0.2906 -0.2063  2.2910
  127SOPE     N13571   4.959   4.997   2.261  0.0621  0.2202 -0.3802
  127SOPE   HN113572   4.984   4.986   2.361 -0.4154  2.6522  0.0513
  127SOPE   HN213573   4.859   4.971   2.251  0.2411 -0.3345 -0.8093
  127SOPE   HN313574   5.011   4.933   2.197  2.1073  0.0932  1.2852
  127SOPE   C1213575   4.972   5.141   2.222 -0.4912 -0.4620 -0.8144
  127SOPE  H12A13576   4.889   5.196   2.271  0.1556 -1.2885  1.3025
  127SOPE  H12B13577   4.967   5.152   2.111 -1.6265 -1.9005 -0.9319
  127SOPE   C1113578   5.108   5.209   2.258 -0.6510  0.2193  0.4931
  127SOPE  H11A13579   5.138   5.192   2.364  1.2422  0.5580  0.0484
  127SOPE  H11B13580   5.093   5.317   2.237 -1.8781 -0.3249 -1.6609
  127SOPE     P13581   5.370   5.201   2.188  0.1863 -0.0426 -0.3974
  127SOPE   O1313582   5.375   5.346   2.196  0.0001  0.3530 -0.3754
  127SOPE   O1413583   5.453   5.142   2.088  0.0523  0.3547 -0.2014
  127SOPE   O1213584   5.215   5.160   2.172  0.4380  0.1260 -0.1214
  127SOPE   O1113585   5.413   5.140   2.329 -0.1219  0.2931 -0.1716
  127SOPE    C113586   5.402   4.999   2.355 -0.1668  0.0234  0.4282
  127SOPE    HA13587   5.379   4.938   2.265  0.0719  2.3209 -1.2967
  127SOPE    HB13588   5.308   4.980   2.412 -1.4766  2.5950 -0.6954
  127SOPE    C213589   5.531   4.943   2.420 -0.7976 -0.4711  0.5327
  127SOPE    HS13590   5.528   4.832   2.425  0.9745 -0.6689 -1.2991
  127SOPE   O2113591   5.553   5.011   2.547  0.2196 -0.2733 -0.2128
  127SOPE   C2113592   5.565   4.933   2.651  0.0617 -0.1492  0.4638
  127SOPE   O2213593   5.569   4.810   2.639  0.8728 -0.1664 -0.4484
  127SOPE   C2213594   5.578   5.010   2.782 -0.2535  0.4009  0.0569
  127SOPE   H2R13595   5.475   5.033   2.815  0.2588  1.1894  1.2067
  127SOPE   H2S13596   5.640   5.101   2.761  1.2868 -0.7486 -0.5609
  127SOPE    C313597   5.655   4.979   2.327 -0.0873  0.3597 -0.8065
  127SOPE    HX13598   5.664   5.090   2.325 -0.5524  0.3953 -0.9717
  127SOPE    HY13599   5.640   4.946   2.222 -0.4056 -0.2482 -0.5709
  127SOPE   O3113600   5.775   4.919   2.383 -0.1324 -0.0025  0.1526
  127SOPE   C3113601   5.786   4.781   2.361 -0.2171 -0.7614 -0.1855
  127SOPE   O3213602   5.710   4.721   2.284  0.0323 -0.0307  0.5765
  127SOPE   C3213603   5.906   4.718   2.428  0.3806  0.0723  0.0747
  127SOPE   H2X13604   5.952   4.777   2.511  1.9827 -0.3982 -0.4589
  127SOPE   H2Y13605   5.985   4.721   2.351  1.6188 -1.2017  1.2279
  127SOPE   C2313606   5.670   4.940   2.884 -0.5439 -0.4258 -0.2883
  127SOPE   H3R13607   5.776   4.968   2.867 -0.1849 -0.1025  2.2243
  127SOPE   H3S13608   5.671   4.830   2.872  3.3478 -0.5251 -0.2215
  127SOPE   C2413609   5.653   4.994   3.024 -0.0318  0.2766 -0.2987
  127SOPE   H4R13610   5.659   5.105   3.020  0.8041  0.2445 -0.0232
  127SOPE   H4S13611   5.548   4.984   3.060 -0.5830  1.8640 -1.3775
  127SOPE   C2513612   5.759   4.953   3.127  0.3196 -0.0964 -0.0000
  127SOPE   H5R13613   5.733   4.853   3.167 -0.0530  0.0736  0.1866
  127SOPE   H5S13614   5.855   4.945   3.071  0.4178  0.8554  0.0136
  127SOPE   C2613615   5.793   5.055   3.235  0.0082 -0.4658  0.0604
  127SOPE   H6R13616   5.894   5.043   3.279  1.2331  0.1994 -2.3664
  127SOPE   H6S13617   5.800   5.149   3.176 -1.9228 -0.9287 -0.9819
  127SOPE   C2713618   5.687   5.044   3.341 -0.2993  0.5030 -0.1816
  127SOPE   H7R13619   5.586   5.043   3.294  0.1264 -0.8321 -1.1222
  127SOPE   H7S13620   5.707   4.947   3.392  3.6240  1.1828 -0.1762
  127SOPE   C2813621   5.711   5.158   3.442 -0.5694  0.6347 -0.2978
  127SOPE   H8R13622   5.791   5.127   3.513 -0.6963  2.6587  0.8267
  127SOPE   H8S13623   5.748   5.250   3.392  1.8452  0.3501  0.8277
  127SOPE   C2913624   5.581   5.191   3.508 -0.1376  0.0375 -0.0236
  127SOPE   H9113625   5.491   5.220   3.450 -0.3878  1.2185  0.9187
  127SOPE  C21013626   5.555   5.202   3.636 -0.3151  0.2358  0.1331
  127SOPE  H10113627   5.454   5.224   3.671 -0.9778 -3.9457  1.4641
  127SOPE  C21113628   5.658   5.179   3.745  0.8418 -0.0801  0.4461
  127SOPE  H11R13629   5.657   5.270   3.809 -0.4308 -1.0296  1.8457
  127SOPE  H11S13630   5.762   5.180   3.707  1.3229  1.1489  1.6964
  127SOPE  C21213631   5.645   5.063   3.844  0.2545 -0.4093 -0.3992
  127SOPE  H12R13632   5.720   5.088   3.922 -0.7012  1.4474  0.0037
  127SOPE  H12S13633   5.655   4.964   3.795  0.8023 -1.2787  1.3746
  127SOPE  C21313634   5.509   5.060   3.920  0.2291  0.5866  0.2628
  127SOPE  H13R13635   5.428   5.039   3.847 -0.6860 -1.4724  1.7639
  127SOPE  H13S13636   5.481   5.157   3.966 -0.6778 -0.0577  1.1065
  127SOPE  C21413637   5.510   4.934   4.007  0.3262 -1.1100  0.5707
  127SOPE  H14R13638   5.575   4.953   4.095 -1.7142  4.3371  1.3079
  127SOPE  H14S13639   5.547   4.848   3.948  0.5928  1.1020 -2.7367
  127SOPE  C21513640   5.372   4.905   4.060  0.3109 -0.6736 -0.4650
  127SOPE  H15R13641   5.300   4.899   3.975 -0.8237 -0.4972  0.4511
  127SOPE  H15S13642   5.340   4.995   4.117 -0.9350 -0.4504 -1.4680
  127SOPE  C21613643   5.373   4.795   4.162  0.2547  0.1950 -0.0814
  127SOPE  H16R13644   5.267   4.765   4.176  0.6157 -1.5015 -0.7423
  127SOPE  H16S13645   5.425   4.844   4.247 -0.8833 -0.5414  1.0762
  127SOPE  C21713646   5.444   4.654   4.138 -0.2326  0.1097  0.2865
  127SOPE  H17R13647   5.516   4.666   4.053  1.8268 -0.5593  1.8601
  127SOPE  H17S13648   5.371   4.578   4.102 -0.8473  0.1832  1.3446
  127SOPE  C21813649   5.521   4.606   4.264 -0.7570 -0.2249  0.4120
  127SOPE  H18R13650   5.598   4.680   4.291 -0.8167 -0.6311  1.7336
  127SOPE  H18S13651   5.570   4.507   4.249  2.5683  1.2852  0.2626
  127SOPE  H18T13652   5.449   4.612   4.348 -0.2799 -1.2104  0.9080
  127SOPE   C3313653   5.895   4.571   2.475 -0.4322  0.5264 -0.8227
  127SOPE   H3X13654   5.993   4.529   2.502 -2.2754 -2.9437  1.1248
  127SOPE   H3Y13655   5.851   4.512   2.392  0.6585 -0.4012 -0.7454
  127SOPE   C3413656   5.824   4.557   2.607  0.1400  0.2988  0.4888
  127SOPE   H4X13657   5.825   4.450   2.635 -1.0585 -0.2007 -1.2032
  127SOPE   H4Y13658   5.719   4.594   2.601  0.3287  0.6481 -1.0529
  127SOPE   C3513659   5.891   4.631   2.715  0.6936 -0.2113  0.2621
  127SOPE   H5X13660   5.850   4.731   2.741  0.2114  0.4763 -2.8166
  127SOPE   H5Y13661   5.995   4.653   2.683  0.8322 -0.7633  0.3100
  127SOPE   C3613662   5.893   4.553   2.844 -0.0279 -0.0920 -1.0406
  127SOPE   H6X13663   5.940   4.456   2.818  2.3667  0.3575  1.1764
  127SOPE   H6Y13664   5.790   4.530   2.879 -0.2965  0.2087 -1.6089
  127SOPE   C3713665   5.959   4.635   2.959 -0.2981 -0.0648 -0.1524
  127SOPE   H7X13666   5.890   4.718   2.985 -0.3190 -0.6033  1.6863
  127SOPE   H7Y13667   6.056   4.683   2.935  0.0285 -0.1459  0.9327
  127SOPE   C3813668   5.984   4.550   3.082 -1.0985 -0.3600 -0.3015
  127SOPE   H8X13669   6.068   4.482   3.056 -0.3113  0.4987 -0.0765
  127SOPE   H8Y13670   5.886   4.501   3.102 -1.6448  0.6352 -0.5003
  127SOPE   C3913671   6.014   4.645   3.205 -0.8184 -0.2603  0.0264
  127SOPE   H9X13672   5.938   4.725   3.220  0.0120  0.5810 -0.1066
  127SOPE   H9Y13673   6.110   4.695   3.181 -1.2424  0.8586  0.5824
  127SOPE  C31013674   6.021   4.562   3.332 -0.2093 -0.0533 -1.1933
  127SOPE  H10X13675   6.093   4.478   3.319  2.2048  0.9541  3.6136
  127SOPE  H10Y13676   5.923   4.516   3.358  1.5397 -3.3988  0.0943
  127SOPE  C31113677   6.075   4.642   3.452  0.2281 -0.3252  0.2182
  127SOPE  H11X13678   6.176   4.681   3.427  0.5919 -1.4306 -0.0647
  127SOPE  H11Y13679   6.085   4.575   3.540 -0.8294 -0.6314  0.1194
  127SOPE  C31213680   5.991   4.768   3.482  0.3171 -0.4762 -0.3245
  127SOPE  H12X13681   5.892   4.743   3.524  0.3326  1.1067  0.7416
  127SOPE  H12Y13682   5.993   4.831   3.390  1.3334  0.3952  0.2649
  127SOPE  C31313683   6.050   4.852   3.594 -0.2799 -1.2820 -0.0372
  127SOPE  H13X13684   6.004   4.953   3.594  1.9333 -0.1850  1.3269
  127SOPE  H13Y13685   6.159   4.869   3.581 -0.8954  1.6867 -2.3901
  127SOPE  C31413686   6.019   4.784   3.729 -0.5251 -0.6113 -0.5675
  127SOPE  H14X13687   6.078   4.691   3.744 -3.5062 -2.3027  1.8153
  127SOPE  H14Y13688   5.912   4.753   3.724 -0.8441  0.4360 -0.3385
  127SOPE  C31513689   6.040   4.869   3.853 -0.5232 -1.0348  0.0040
  127SOPE  H15X13690   5.961   4.946   3.853  0.8366  0.4293  0.8065
  127SOPE  H15Y13691   6.143   4.910   3.845 -0.9920 -0.0333 -1.1924
  127SOPE  C31613692   6.023   4.786   3.983 -0.2660  0.3022  0.1422
  127SOPE  H16X13693   6.109   4.716   3.977 -0.8919 -0.3963 -0.9019
  127SOPE  H16Y13694   5.933   4.722   3.977  0.7981 -1.2921  0.5669
  127SOPE  C31713695   6.024   4.860   4.118  0.0574 -0.1387 -0.5917
  127SOPE  H17X13696   6.049   4.787   4.198  2.7613  2.5574  1.2425
  127SOPE  H17Y13697   5.923   4.899   4.142  0.1864 -0.4217  0.4765
  127SOPE  C31813698   6.131   4.973   4.123 -0.0936 -0.2394  0.3289
  127SOPE  H18X13699   6.092   5.054   4.057  0.7531 -0.3150 -0.2758
  127SOPE  H18Y13700   6.225   4.941   4.073 -1.0936 -1.0891 -1.1082
  127SOPE  H18Z13701   6.142   5.023   4.221  1.4258  0.3990 -0.1420
  128SOPE     N13702   2.957   3.489   2.581 -0.7182 -0.3413 -0.4708
  128SOPE   HN113703   2.909   3.553   2.513 -2.8469  1.1581  2.2253
  128SOPE   HN213704   2.932   3.521   2.676  1.6526 -0.3285  0.2012
  128SOPE   HN313705   3.060   3.493   2.571 -0.5118 -0.3021  1.3798
  128SOPE   C1213706   2.909   3.359   2.561 -0.6135  0.4823 -0.3262
  128SOPE  H12A13707   2.802   3.355   2.532 -0.0593 -1.9512 -2.3207
  128SOPE  H12B13708   2.926   3.296   2.652 -1.2499 -1.3061 -1.4075
  128SOPE   C1113709   2.975   3.288   2.442 -0.9805 -0.1319 -0.6207
  128SOPE  H11A13710   3.085   3.288   2.460 -0.7719 -3.8455 -1.1035
  128SOPE  H11B13711   2.945   3.348   2.354 -3.4984 -1.0118 -0.4394
  128SOPE     P13712   2.994   3.061   2.330  0.0374  0.1808  0.3576
  128SOPE   O1313713   3.002   3.140   2.201 -0.5876 -0.0028 -0.2725
  128SOPE   O1413714   2.933   2.923   2.314  0.1161 -0.0617 -0.1477
  128SOPE   O1213715   2.939   3.150   2.442 -0.3027  0.0327 -0.5810
  128SOPE   O1113716   3.140   3.048   2.374 -0.2138  0.1388  0.5831
  128SOPE    C113717   3.165   2.979   2.497  0.2344 -0.4216  0.4480
  128SOPE    HA13718   3.249   2.910   2.476 -0.1037 -0.2053 -1.8203
  128SOPE    HB13719   3.078   2.919   2.533 -0.1858 -0.8873 -1.2636
  128SOPE    C213720   3.209   3.069   2.612  0.3371  0.0918  0.4415
  128SOPE    HS13721   3.126   3.142   2.619  0.0650 -0.1188 -0.4471
  128SOPE   O2113722   3.334   3.134   2.582  0.1946 -0.7672  0.1310
  128SOPE   C2113723   3.334   3.253   2.653 -0.3454 -0.2652 -0.2032
  128SOPE   O2213724   3.240   3.304   2.708 -0.2100  0.4405  0.3796
  128SOPE   C2213725   3.466   3.315   2.644  0.1710 -0.3490 -0.7079
  128SOPE   H2R13726   3.470   3.388   2.560  1.4509  1.6944  1.0196
  128SOPE   H2S13727   3.536   3.231   2.627  1.9864  1.0065 -0.2960
  128SOPE    C313728   3.226   2.979   2.739 -0.0026  0.3054 -0.0752
  128SOPE    HX13729   3.316   2.917   2.720 -0.4102 -1.0623  2.0511
  128SOPE    HY13730   3.144   2.905   2.752  1.9892 -1.6047  2.8031
  128SOPE   O3113731   3.258   3.051   2.860  0.1504 -0.5420  0.3487
  128SOPE   C3113732   3.150   3.108   2.917 -0.1455  0.2662 -0.4925
  128SOPE   O3213733   3.041   3.116   2.863  0.3346 -0.1651  0.0957
  128SOPE   C3213734   3.191   3.165   3.058  0.3063  0.1117 -0.3063
  128SOPE   H2X13735   3.092   3.179   3.105  0.6740 -0.0403  0.5284
  128SOPE   H2Y13736   3.224   3.268   3.035 -1.8372  0.8286 -0.3605
  128SOPE   C2313737   3.526   3.390   2.772  0.6620  0.3566  0.4777
  128SOPE   H3R13738   3.447   3.463   2.800 -0.3177 -0.2611 -0.5850
  128SOPE   H3S13739   3.620   3.445   2.751 -0.3786  0.9648 -3.3242
  128SOPE   C2413740   3.554   3.302   2.891 -0.0587 -0.0156  0.5165
  128SOPE   H4R13741   3.477   3.234   2.933  0.1406  0.6568  2.0454
  128SOPE   H4S13742   3.640   3.233   2.881 -0.6474 -0.4533 -2.1929
  128SOPE   C2513743   3.579   3.394   3.016  0.0894  0.1591 -0.5894
  128SOPE   H5R13744   3.637   3.482   2.983 -0.0477  0.7818  0.7735
  128SOPE   H5S13745   3.476   3.431   3.035 -0.4987 -2.2321  1.4792
  128SOPE   C2613746   3.642   3.345   3.146  0.3126 -0.1897 -0.4457
  128SOPE   H6R13747   3.559   3.280   3.181 -0.3124  1.8420  2.1365
  128SOPE   H6S13748   3.737   3.288   3.148 -0.2928 -1.1977  1.0094
  128SOPE   C2713749   3.643   3.459   3.246  0.7065  0.5646 -0.3833
  128SOPE   H7R13750   3.732   3.526   3.242 -0.5354  2.2933 -0.0580
  128SOPE   H7S13751   3.558   3.527   3.224  2.7030  2.6862 -2.1734
  128SOPE   C2813752   3.628   3.417   3.393  0.0074 -0.3822 -0.4132
  128SOPE   H8R13753   3.525   3.377   3.405  0.2285 -0.4140  1.6887
  128SOPE   H8S13754   3.704   3.341   3.422  0.7921  0.8847  1.0627
  128SOPE   C2913755   3.632   3.526   3.503  0.0788 -0.0736 -0.2307
  128SOPE   H9113756   3.599   3.626   3.470  0.3068  0.5092  1.2095
  128SOPE  C21013757   3.653   3.521   3.632  0.1979  0.8972 -0.1482
  128SOPE  H10113758   3.636   3.603   3.704 -0.7077 -0.4891  1.2718
  128SOPE  C21113759   3.664   3.395   3.711 -0.0400  1.0132 -0.1334
  128SOPE  H11R13760   3.630   3.302   3.660 -1.2367  1.7435 -0.6900
  128SOPE  H11S13761   3.598   3.405   3.800  0.1180  1.2198 -0.0401
  128SOPE  C21213762   3.812   3.359   3.753  0.8193  0.0021 -0.1726
  128SOPE  H12R13763   3.864   3.355   3.655 -0.9594 -0.2181 -1.1577
  128SOPE  H12S13764   3.812   3.258   3.801 -2.2953 -0.1420 -0.2826
  128SOPE  C21313765   3.867   3.463   3.852 -0.0495 -0.1995  0.1835
  128SOPE  H13R13766   3.794   3.477   3.934  1.7623 -1.3301  2.0816
  128SOPE  H13S13767   3.874   3.560   3.799 -0.0278 -0.5972 -0.5689
  128SOPE  C21413768   4.001   3.423   3.904  0.9058  0.2056  0.0442
  128SOPE  H14R13769   4.066   3.398   3.817 -0.1964  0.0677 -0.7587
  128SOPE  H14S13770   3.987   3.326   3.954  0.0073 -0.1377 -0.8342
  128SOPE  C21513771   4.075   3.519   3.998 -0.3131 -0.2548  0.3286
  128SOPE  H15R13772   4.044   3.622   3.971 -1.3413 -0.9296 -1.1808
  128SOPE  H15S13773   4.184   3.500   3.989  0.1557  2.6262 -1.4986
  128SOPE  C21613774   4.024   3.498   4.143 -0.7087 -0.0746  0.7287
  128SOPE  H16R13775   3.993   3.391   4.153 -1.7901  0.2726  1.2162
  128SOPE  H16S13776   3.935   3.564   4.154  0.3560  1.3617  0.8710
  128SOPE  C21713777   4.124   3.549   4.243  0.0809  0.1638  0.1611
  128SOPE  H17R13778   4.145   3.654   4.214  2.2234 -0.4208 -0.6463
  128SOPE  H17S13779   4.224   3.499   4.238  0.2579  0.4236  0.9637
  128SOPE  C21813780   4.077   3.554   4.388 -0.7544 -0.1687  0.6021
  128SOPE  H18R13781   4.165   3.588   4.446 -0.8069 -0.3968  0.8176
  128SOPE  H18S13782   4.054   3.453   4.429 -0.5300  0.1035  1.4255
  128SOPE  H18T13783   3.987   3.616   4.411  0.2580  1.6072 -0.0446
  128SOPE   C3313784   3.284   3.085   3.154  0.6632 -0.1435  0.1841
  128SOPE   H3X13785   3.391   3.082   3.121  0.1391 -0.6471 -1.5848
  128SOPE   H3Y13786   3.255   2.978   3.153  1.6286 -0.4325  1.0709
  128SOPE   C3413787   3.266   3.128   3.300 -0.9122 -0.6406 -0.3077
  128SOPE   H4X13788   3.158   3.135   3.328 -0.7823  3.6295 -0.2539
  128SOPE   H4Y13789   3.308   3.229   3.319 -0.8198 -0.8106  0.4041
  128SOPE   C3513790   3.330   3.019   3.393  0.0373 -0.0025 -0.7251
  128SOPE   H5X13791   3.439   3.007   3.373 -0.1817 -2.4598 -0.6991
  128SOPE   H5Y13792   3.284   2.922   3.363 -0.7530  0.2921 -0.4918
  128SOPE   C3613793   3.320   3.029   3.548 -0.4925 -0.5248  0.2462
  128SOPE   H6X13794   3.217   3.063   3.573 -0.5646  0.2879 -1.0481
  128SOPE   H6Y13795   3.391   3.105   3.586 -1.3480 -0.6893  2.3248
  128SOPE   C3713796   3.362   2.903   3.620 -0.0692  0.2742 -0.4899
  128SOPE   H7X13797   3.473   2.892   3.614 -0.0746 -0.0398  0.0078
  128SOPE   H7Y13798   3.315   2.815   3.571 -0.5476 -1.2844  2.5666
  128SOPE   C3813799   3.340   2.894   3.768  0.2524 -0.1568 -0.2430
  128SOPE   H8X13800   3.368   2.793   3.804 -1.1862 -1.1420 -1.7915
  128SOPE   H8Y13801   3.236   2.923   3.792 -0.3024 -1.0272 -1.5125
  128SOPE   C3913802   3.419   2.998   3.851 -0.2909  0.2053  0.0708
  128SOPE   H9X13803   3.427   3.094   3.796 -1.0786  0.1582 -0.1383
  128SOPE   H9Y13804   3.521   2.955   3.857  0.3115  1.4619 -0.7476
  128SOPE  C31013805   3.368   3.024   3.989 -0.4610  0.4888 -0.1218
  128SOPE  H10X13806   3.382   2.953   4.073  0.5501  3.3141  2.2419
  128SOPE  H10Y13807   3.257   3.027   3.992 -0.6208 -2.2162 -0.6946
  128SOPE  C31113808   3.442   3.138   4.060 -0.2708  0.2996 -0.5244
  128SOPE  H11X13809   3.553   3.141   4.057 -0.2883  1.7291 -0.5041
  128SOPE  H11Y13810   3.418   3.128   4.168 -0.3619  1.5117 -0.4230
  128SOPE  C31213811   3.401   3.278   3.997  0.0350 -0.0513  0.6393
  128SOPE  H12X13812   3.291   3.289   4.003  0.0854 -0.1725  2.1852
  128SOPE  H12Y13813   3.424   3.273   3.888  3.7004  1.4865  1.1912
  128SOPE  C31313814   3.489   3.381   4.060  0.7242  0.3211  1.3379
  128SOPE  H13X13815   3.498   3.474   3.999  1.3474  0.1905  1.2260
  128SOPE  H13Y13816   3.594   3.349   4.043  0.2802  0.3343 -2.0349
  128SOPE  C31413817   3.466   3.409   4.211 -0.0649 -0.4907 -0.2867
  128SOPE  H14X13818   3.480   3.319   4.275 -0.9802  0.2992  1.0920
  128SOPE  H14Y13819   3.360   3.436   4.229 -0.2981 -1.9205  0.6486
  128SOPE  C31513820   3.572   3.509   4.268  0.6805  0.5191  0.7029
  128SOPE  H15X13821   3.590   3.588   4.192 -1.9988 -0.8623 -1.5484
  128SOPE  H15Y13822   3.671   3.460   4.280  0.4839 -0.3656 -1.0784
  128SOPE  C31613823   3.518   3.571   4.398 -0.2112 -0.1922  0.0554
  128SOPE  H16X13824   3.498   3.489   4.470  2.0041 -0.5103  0.3711
  128SOPE  H16Y13825   3.422   3.623   4.376  0.1232  1.0489  1.3860
  128SOPE  C31713826   3.606   3.678   4.459 -0.7074  0.0933  0.6660
  128SOPE  H17X13827   3.619   3.772   4.401 -2.4151 -0.6399 -0.9649
  128SOPE  H17Y13828   3.711   3.643   4.471 -1.1570 -1.3663  0.5186
  128SOPE  C31813829   3.549   3.710   4.597 -0.2791 -0.3964 -0.0319
  128SOPE  H18X13830   3.443   3.741   4.582 -0.4314  0.1820  1.9416
  128SOPE  H18Y13831   3.608   3.800   4.624 -0.6023 -0.0789 -0.3679
  128SOPE  H18Z13832   3.570   3.627   4.667  0.3955 -0.2519 -0.0566
  129OSM      N13833   1.996   5.447   6.719  0.5971  0.1399  0.9538
  129OSM    C1513834   1.858   5.384   6.716 -0.4056  0.4932  0.5400
  129OSM   H15A13835   1.800   5.443   6.647 -1.4457 -2.2577 -1.0948
  129OSM   H15B13836   1.808   5.374   6.811 -0.8370 -1.7304  0.1370
  129OSM   H15C13837   1.859   5.282   6.681  0.0846  0.4758  0.5912
  129OSM    C1413838   1.983   5.585   6.771 -0.3556  0.8076  0.0862
  129OSM   H14A13839   1.939   5.587   6.870  1.5662  2.2742  0.9845
  129OSM   H14B13840   1.900   5.629   6.718 -0.7907  0.2248  0.2827
  129OSM   H14C13841   2.079   5.635   6.777  0.1761 -0.2894  1.2542
  129OSM    C1313842   2.091   5.368   6.806 -0.7242  0.2176  0.7062
  129OSM   H13A13843   2.088   5.263   6.782  0.3194  0.0786  1.1247
  129OSM   H13B13844   2.070   5.378   6.912 -0.4620 -0.4077  0.8209
  129OSM   H13C13845   2.188   5.410   6.789  0.0544 -1.7548 -0.0043
  129OSM    C1213846   2.050   5.459   6.575  0.6411 -0.2295 -0.2558
  129OSM   H12A13847   1.974   5.500   6.510  2.0634  0.3377 -1.6140
  129OSM   H12B13848   2.067   5.361   6.533  1.6415  0.2404 -0.9716
  129OSM    C1113849   2.185   5.530   6.546  0.5631 -0.1574  0.0745
  129OSM   H11A13850   2.169   5.636   6.578 -1.3985 -0.2558 -0.4872
  129OSM   H11B13851   2.184   5.538   6.435  2.8219 -0.1024  0.0057
  129OSM      P13852   2.345   5.332   6.548 -0.0537 -0.2549  0.3547
  129OSM    O1313853   2.486   5.314   6.593  0.2059 -0.0522  0.3122
  129OSM    O1413854   2.246   5.230   6.579  0.3729  0.2775 -0.0032
  129OSM    O1113855   2.336   5.353   6.390 -0.3140  0.0896  0.0928
  129OSM    O1213856   2.297   5.477   6.602  0.5966  0.2178  0.2551
  129OSM    C1S13857   2.431   5.286   6.299  0.2068 -0.1926  0.0909
  129OSM    H1S13858   2.407   5.179   6.282  0.8565 -0.0775 -1.8463
  129OSM    H1T13859   2.534   5.284   6.341 -0.8483  1.0627  3.0316
  129OSM     NF13860   2.486   5.263   6.059 -0.2733 -0.3388 -0.3031
  129OSM    HNF13861   2.584   5.275   6.049 -0.3888  1.0356  0.0591
  129OSM    C2S13862   2.427   5.358   6.154 -0.3820  0.1233  0.1504
  129OSM    H2S13863   2.319   5.371   6.130 -0.6247  2.0938  2.0232
  129OSM    C3S13864   2.486   5.499   6.165  0.6614 -0.0313 -0.2060
  129OSM    H3S13865   2.594   5.484   6.186  0.0088 -1.0512  2.9288
  129OSM     O313866   2.440   5.576   6.272  0.7664 -0.2397 -0.0066
  129OSM    HO313867   2.388   5.512   6.321 -0.8593  0.3783 -0.8743
  129OSM    C4S13868   2.463   5.580   6.039 -0.5500 -0.1531  0.1578
  129OSM    H4S13869   2.557   5.589   5.982 -0.4858  0.9536  0.4226
  129OSM    C5S13870   2.349   5.637   6.005  0.4416 -0.4738 -0.9809
  129OSM    H5S13871   2.261   5.622   6.069  0.1211  0.0094 -1.3052
  129OSM    C6S13872   2.354   5.727   5.889  0.2040  0.1845 -0.0049
  129OSM    H6S13873   2.454   5.767   5.865 -0.6735  2.2389 -0.4499
  129OSM    H6T13874   2.289   5.816   5.903  0.1068  0.0716  0.2631
  129OSM    C7S13875   2.306   5.661   5.756  0.7076 -0.0406 -0.3782
  129OSM    H7S13876   2.206   5.615   5.772  0.7264  0.1358  0.2453
  129OSM    H7T13877   2.391   5.591   5.745  3.6445  2.8138  2.4031
  129OSM    C8S13878   2.294   5.762   5.641  0.4538  0.4479  0.4203
  129OSM    H8S13879   2.395   5.798   5.611  0.5243  1.0523  1.3684
  129OSM    H8T13880   2.235   5.853   5.666 -0.1258  0.1157  0.2928
  129OSM    C9S13881   2.233   5.692   5.523 -0.3706  0.8209  0.1541
  129OSM    H9S13882   2.131   5.655   5.546 -0.9078  2.0234 -0.1951
  129OSM    H9T13883   2.299   5.607   5.495 -0.7589  0.4748  0.2773
  129OSM   C10S13884   2.220   5.784   5.404  0.6011 -0.6825  0.1386
  129OSM   H10S13885   2.324   5.823   5.391 -0.1457  1.9958  1.5562
  129OSM   H10T13886   2.143   5.863   5.417 -0.0147 -1.2939  0.2589
  129OSM   C11S13887   2.188   5.712   5.274 -0.4032  0.7995 -0.3611
  129OSM   H11S13888   2.089   5.662   5.282 -0.7595  1.4446 -0.6972
  129OSM   H11T13889   2.262   5.629   5.270  1.3465  2.3004 -0.4294
  129OSM   C12S13890   2.193   5.796   5.142 -0.2565 -0.1731  0.7458
  129OSM   H12S13891   2.296   5.833   5.122  0.5765 -2.8011 -0.2426
  129OSM   H12T13892   2.131   5.882   5.174 -0.6296 -0.7503  1.6111
  129OSM   C13S13893   2.135   5.721   5.022  0.5990 -0.1296  0.3114
  129OSM   H13S13894   2.029   5.697   5.044  0.5111  0.0132  0.0491
  129OSM   H13T13895   2.208   5.640   5.002  1.0438  0.2450  0.3902
  129OSM   C14S13896   2.145   5.809   4.899  0.3553 -0.2054  0.0295
  129OSM   H14S13897   2.249   5.810   4.859 -0.4097 -1.9283 -2.1919
  129OSM   H14T13898   2.113   5.911   4.932 -1.3705 -0.6596 -0.1402
  129OSM   C15S13899   2.063   5.754   4.776 -0.6888  1.0504 -0.4775
  129OSM   H15S13900   1.963   5.724   4.815  0.7884 -0.5846  2.4080
  129OSM   H15T13901   2.115   5.657   4.762 -3.0695  0.0367 -3.1713
  129OSM   C16S13902   2.051   5.852   4.662  0.3959 -0.6621 -0.5456
  129OSM   H16S13903   2.029   5.953   4.701  2.8643  0.5828 -2.1783
  129OSM   H16T13904   1.968   5.829   4.591  2.0391  1.7605 -3.4882
  129OSM   C17S13905   2.176   5.872   4.575  0.0554  0.0606 -0.1026
  129OSM   H17S13906   2.241   5.922   4.650 -0.7883 -1.9599  2.1370
  129OSM   H17T13907   2.148   5.946   4.498 -2.2297  0.4453  1.0049
  129OSM   C18S13908   2.230   5.742   4.516  0.1953  0.6699 -0.2996
  129OSM   H18S13909   2.150   5.673   4.482 -0.5368  1.1578  0.3818
  129OSM   H18T13910   2.296   5.702   4.596  1.6537  1.6927 -0.9435
  129OSM   H18U13911   2.291   5.777   4.430 -0.5823  2.6980 -0.0987
  129OSM    C1F13912   2.427   5.153   6.019  0.3813 -1.0220 -1.0501
  129OSM     OF13913   2.318   5.119   6.057 -0.3638  0.1464  0.1472
  129OSM    C2F13914   2.506   5.072   5.923 -0.0770 -0.2201  0.3719
  129OSM    H2F13915   2.602   5.038   5.969  0.7207  0.9978 -0.3365
  129OSM    H2G13916   2.543   5.147   5.850  0.4670  0.5235  1.3868
  129OSM    C3F13917   2.442   4.951   5.858 -0.3618  0.2634 -0.6451
  129OSM    H3F13918   2.344   4.988   5.821 -0.4023  0.7169 -0.0956
  129OSM    H3G13919   2.418   4.880   5.940 -0.7304  0.0125 -0.9671
  129OSM    C4F13920   2.520   4.893   5.743 -0.1253  0.1869 -0.1826
  129OSM    H4F13921   2.589   4.816   5.784 -1.0596 -0.4721  0.1900
  129OSM    H4G13922   2.571   4.968   5.680 -1.5774  1.1604 -0.2441
  129OSM    C5F13923   2.413   4.826   5.649 -0.2622 -0.3784  0.6492
  129OSM    H5F13924   2.326   4.790   5.708 -0.0251 -1.7328  0.2134
  129OSM    H5G13925   2.452   4.733   5.602  0.9469  0.4425 -0.0250
  129OSM    C6F13926   2.353   4.922   5.547  0.2425  0.3124  0.6169
  129OSM    H6F13927   2.421   4.958   5.467 -0.7203 -0.1709 -0.4621
  129OSM    H6G13928   2.335   5.017   5.602 -0.8343  1.8273 -2.1418
  129OSM    C7F13929   2.220   4.870   5.484  0.2895 -0.0292  0.1033
  129OSM    H7F13930   2.175   4.938   5.408 -2.4908 -2.7889 -0.9231
  129OSM    H7G13931   2.144   4.852   5.563 -0.0275 -1.4385 -0.4992
  129OSM    C8F13932   2.220   4.737   5.407  0.3425 -0.4606  0.2595
  129OSM    H8F13933   2.118   4.719   5.368  0.6617  0.5061 -1.1031
  129OSM    H8G13934   2.243   4.654   5.477  1.3832  0.0486  0.5542
  129OSM    C9F13935   2.326   4.722   5.306 -0.3781 -0.2594 -0.5326
  129OSM    H9F13936   2.415   4.682   5.356 -0.2465  0.7227  0.0532
  129OSM   C10F13937   2.321   4.750   5.172 -0.1707  0.1779  0.1487
  129OSM   H10F13938   2.417   4.751   5.118 -0.6542  0.2410 -0.7353
  129OSM   C11F13939   2.201   4.813   5.108  0.3986  0.7151  0.2906
  129OSM   H11F13940   2.111   4.803   5.172 -1.1579  1.6807 -1.6188
  129OSM   H11G13941   2.178   4.751   5.019 -1.4291 -0.1261  1.3025
  129OSM   C12F13942   2.232   4.963   5.064  0.3488 -0.2440  0.4739
  129OSM   H12F13943   2.240   5.016   5.161 -0.7276  1.0592 -0.1217
  129OSM   H12G13944   2.146   4.997   5.002 -1.2300  0.2297  2.7890
  129OSM   C13F13945   2.370   4.986   4.991 -0.0895 -0.6440 -0.0372
  129OSM   H13F13946   2.456   4.973   5.061 -1.2296 -0.1400  1.5052
  129OSM   H13G13947   2.370   5.093   4.962  1.1826 -0.8858 -1.0237
  129OSM   C14F13948   2.390   4.898   4.863 -1.0006  0.0842  0.1937
  129OSM   H14F13949   2.406   4.792   4.890 -0.5868 -0.1481 -0.9111
  129OSM   H14G13950   2.485   4.936   4.818 -2.1964  1.6011 -1.1603
  129OSM   C15F13951   2.290   4.896   4.754  0.4031  0.0036 -1.0382
  129OSM   H15F13952   2.275   5.004   4.730  1.0919  0.2424 -0.4343
  129OSM   H15G13953   2.194   4.861   4.798  0.9178  0.2428  0.3178
  129OSM   C16F13954   2.345   4.813   4.640  0.8948 -0.3191 -0.2108
  129OSM   H16F13955   2.359   4.711   4.681 -0.5766 -0.9804 -1.2684
  129OSM   H16G13956   2.447   4.852   4.616  2.3904 -4.6209 -1.8218
  129OSM   C17F13957   2.249   4.821   4.520 -0.5398 -0.0209 -1.0337
  129OSM   H17F13958   2.248   4.932   4.520 -1.5409  0.0408  1.3814
  129OSM   H17G13959   2.145   4.791   4.545 -0.4615 -0.6868 -1.4905
  129OSM   C18F13960   2.293   4.748   4.396  0.1291 -0.2958  0.0608
  129OSM   H18F13961   2.326   4.646   4.425  2.1836  0.1318 -0.6501
  129OSM   H18G13962   2.383   4.799   4.355  0.5603 -0.5377  0.6914
  129OSM   H18H13963   2.216   4.748   4.316  2.3048  0.9311 -2.1364
  130OSM      N13964   3.686   6.017   6.443  0.7176 -0.4346 -0.0298
  130OSM    C1513965   3.768   5.970   6.331  0.2543  0.2568 -1.1079
  130OSM   H15A13966   3.727   5.993   6.234  0.8675  0.4420 -1.3257
  130OSM   H15B13967   3.783   5.863   6.335  2.9336  0.6232  0.6666
  130OSM   H15C13968   3.869   6.007   6.328 -0.2944  1.8268 -1.3422
  130OSM    C1413969   3.545   5.961   6.437  0.1259  0.3910  0.5519
  130OSM   H14A13970   3.496   5.970   6.340 -2.0114  0.6696  1.6000
  130OSM   H14B13971   3.479   6.014   6.503  0.9495  0.3068  1.4539
  130OSM   H14C13972   3.551   5.861   6.476  0.2566 -0.4741 -1.5202
  130OSM    C1313973   3.741   5.972   6.574  0.1228 -0.1154 -0.0273
  130OSM   H13A13974   3.698   6.029   6.655  2.0463  3.6742 -1.4321
  130OSM   H13B13975   3.846   5.996   6.582  0.0497  0.4917 -0.8334
  130OSM   H13C13976   3.736   5.864   6.580  0.7812 -0.4090 -3.2232
  130OSM    C1213977   3.669   6.172   6.453 -0.4968 -0.3453 -0.2289
  130OSM   H12A13978   3.671   6.210   6.351 -2.4719  1.7195  0.4216
  130OSM   H12B13979   3.770   6.196   6.483 -1.0905  0.4103  1.2339
  130OSM    C1113980   3.561   6.243   6.540 -0.3890 -0.2551 -0.3381
  130OSM   H11A13981   3.572   6.193   6.639 -2.0505 -0.9003 -0.4500
  130OSM   H11B13982   3.456   6.226   6.507 -0.5582  1.6265 -0.8606
  130OSM      P13983   3.526   6.478   6.442 -0.4488 -0.0682 -0.1195
  130OSM    O1313984   3.389   6.447   6.395  0.0696  0.4098  0.3121
  130OSM    O1413985   3.551   6.617   6.480 -0.0992  0.6146 -0.1592
  130OSM    O1113986   3.616   6.434   6.320 -0.2786 -0.1856 -0.2829
  130OSM    O1213987   3.590   6.382   6.554  0.4170  0.1216 -0.0800
  130OSM    C1S13988   3.635   6.527   6.216  0.1532  0.2711  1.0069
  130OSM    H1S13989   3.729   6.579   6.243  0.4124 -0.6093  1.8666
  130OSM    H1T13990   3.553   6.598   6.194 -0.6674 -1.2723 -1.2767
  130OSM     NF13991   3.680   6.544   5.971 -0.3708  0.0294 -0.2865
  130OSM    HNF13992   3.606   6.555   5.904 -0.9939 -0.4726  0.3069
  130OSM    C2S13993   3.658   6.449   6.081  0.3344 -0.1503  0.1000
  130OSM    H2S13994   3.751   6.391   6.091  0.2875  0.1093  2.7338
  130OSM    C3S13995   3.548   6.341   6.054  0.0130 -0.2783  0.1853
  130OSM    H3S13996   3.449   6.392   6.054  0.5116  0.7103 -0.1697
  130OSM     O313997   3.549   6.246   6.158  0.3516 -0.1800  0.0796
  130OSM    HO313998   3.593   6.295   6.227  3.2814 -1.1148 -0.9550
  130OSM    C4S13999   3.556   6.275   5.923  0.0487  0.6695  0.2047
  130OSM    H4S14000   3.510   6.319   5.834 -1.5664 -0.0169  0.6615
  130OSM    C5S14001   3.628   6.164   5.895  0.0926  0.0034 -0.1770
  130OSM    H5S14002   3.685   6.123   5.979 -0.8076  2.1323  1.6011
  130OSM    C6S14003   3.632   6.101   5.756 -1.0170  0.1941 -0.0989
  130OSM    H6S14004   3.549   6.147   5.699 -1.0895  0.0170 -0.1364
  130OSM    H6T14005   3.622   5.990   5.766  2.1631 -0.0838  1.4233
  130OSM    C7S14006   3.765   6.135   5.686  0.3601 -0.1760 -0.6207
  130OSM    H7S14007   3.847   6.088   5.743  0.3354 -1.4791 -1.6227
  130OSM    H7T14008   3.771   6.246   5.682 -3.3319  0.2760  1.9811
  130OSM    C8S14009   3.767   6.091   5.543  0.1282  0.5017 -0.1975
  130OSM    H8S14010   3.684   6.139   5.488  1.0037  0.9330 -1.1769
  130OSM    H8T14011   3.753   5.981   5.535 -0.4089  0.6595 -1.6230
  130OSM    C9S14012   3.895   6.132   5.474 -0.0905 -0.1007 -0.5490
  130OSM    H9S14013   3.972   6.065   5.518 -1.0328 -1.5085 -0.9707
  130OSM    H9T14014   3.913   6.240   5.496 -0.6829  0.1576 -1.2650
  130OSM   C10S14015   3.903   6.113   5.318 -0.8863 -0.1044 -1.5554
  130OSM   H10S14016   3.861   6.013   5.297 -0.4341 -1.0893  1.7124
  130OSM   H10T14017   4.009   6.116   5.286  0.9127 -1.5037  3.4142
  130OSM   C11S14018   3.824   6.205   5.234 -0.2595  0.2333 -0.0452
  130OSM   H11S14019   3.852   6.308   5.265 -0.2982  0.7217 -1.5387
  130OSM   H11T14020   3.715   6.198   5.256 -0.1968 -0.7232  0.0117
  130OSM   C12S14021   3.840   6.172   5.085  0.9010  0.1814  0.3663
  130OSM   H12S14022   3.812   6.069   5.056  0.1570  0.7573 -1.0488
  130OSM   H12T14023   3.947   6.188   5.057  0.5202 -0.2106 -1.4722
  130OSM   C13S14024   3.754   6.256   4.996  0.4344 -0.3294  0.3591
  130OSM   H13S14025   3.731   6.351   5.049  0.1018 -1.3110  2.0260
  130OSM   H13T14026   3.656   6.203   5.000 -1.3681  2.8226  2.0669
  130OSM   C14S14027   3.813   6.272   4.854  0.1156  0.1637  0.2971
  130OSM   H14S14028   3.816   6.168   4.816 -1.0789 -0.1336  0.9840
  130OSM   H14T14029   3.919   6.307   4.854  0.7107 -1.5355 -0.2127
  130OSM   C15S14030   3.719   6.363   4.779  1.0320 -0.0737  0.2925
  130OSM   H15S14031   3.719   6.466   4.820 -1.9137  1.8004 -3.7582
  130OSM   H15T14032   3.621   6.314   4.797  1.1065 -0.2778  0.1517
  130OSM   C16S14033   3.751   6.375   4.631 -0.2439 -0.3895  0.1065
  130OSM   H16S14034   3.736   6.268   4.605  0.3006 -0.3629 -0.3245
  130OSM   H16T14035   3.852   6.420   4.620 -0.7916  1.2601  1.3315
  130OSM   C17S14036   3.648   6.464   4.555 -0.1249 -0.6493 -0.6126
  130OSM   H17S14037   3.545   6.430   4.579 -0.6984  2.5290  2.2013
  130OSM   H17T14038   3.674   6.452   4.447  1.0663  0.5675 -0.4855
  130OSM   C18S14039   3.652   6.607   4.597  0.7546 -0.6769 -0.2764
  130OSM   H18S14040   3.751   6.657   4.588  0.4504  0.8635  3.0552
  130OSM   H18T14041   3.634   6.614   4.707  1.4189 -4.1188  0.1656
  130OSM   H18U14042   3.571   6.671   4.554 -1.6465 -1.4220  2.7743
  130OSM    C1F14043   3.797   6.614   5.972 -0.5814  0.2884  0.6537
  130OSM     OF14044   3.894   6.573   6.033 -0.0204  0.4791 -0.5498
  130OSM    C2F14045   3.800   6.747   5.903  0.3394 -0.1428 -0.0549
  130OSM    H2F14046   3.832   6.824   5.976  0.1577  0.2755 -0.4077
  130OSM    H2G14047   3.700   6.782   5.869 -0.1680 -1.2242  0.2732
  130OSM    C3F14048   3.897   6.754   5.786  0.2568  0.4515  0.5911
  130OSM    H3F14049   4.001   6.724   5.812 -1.1052 -3.2859  2.5127
  130OSM    H3G14050   3.901   6.859   5.750  2.0062  1.1156  2.4790
  130OSM    C4F14051   3.866   6.661   5.661 -0.2825  0.2430 -0.3585
  130OSM    H4F14052   3.765   6.702   5.638 -0.4431  0.6514  0.9571
  130OSM    H4G14053   3.858   6.558   5.702  0.5440 -0.8757 -2.8162
  130OSM    C5F14054   3.978   6.675   5.554  0.0339 -0.2020 -0.3707
  130OSM    H5F14055   4.060   6.612   5.595  0.1454 -0.3298 -0.7888
  130OSM    H5G14056   4.017   6.777   5.530 -0.4063  0.3374  1.0970
  130OSM    C6F14057   3.946   6.614   5.414 -0.1509  0.3197 -0.3873
  130OSM    H6F14058   3.879   6.684   5.360 -0.4544  2.7588  2.8824
  130OSM    H6G14059   3.908   6.510   5.423 -1.5083  0.8483  0.2435
  130OSM    C7F14060   4.077   6.603   5.339  0.6234 -0.0691  1.5020
  130OSM    H7F14061   4.155   6.565   5.408  1.8687 -0.9487 -0.3129
  130OSM    H7G14062   4.114   6.702   5.305  1.5401 -1.4797 -2.0984
  130OSM    C8F14063   4.064   6.515   5.210  0.2011  0.0413  0.5622
  130OSM    H8F14064   3.984   6.543   5.139  0.6901 -1.9048 -0.8425
  130OSM    H8G14065   4.063   6.407   5.237 -0.3158 -0.6861 -2.1434
  130OSM    C9F14066   4.189   6.520   5.124 -0.4971  0.0101  0.3286
  130OSM    H9F14067   4.283   6.481   5.166  0.4260  1.5975 -0.1426
  130OSM   C10F14068   4.193   6.568   4.994  0.0234 -0.1968 -0.4262
  130OSM   H10F14069   4.296   6.564   4.954  1.3816  0.9590  2.6266
  130OSM   C11F14070   4.089   6.630   4.900  0.1374  0.6052 -0.5900
  130OSM   H11F14071   4.032   6.719   4.937 -0.5079 -0.6339  1.5978
  130OSM   H11G14072   4.016   6.548   4.881 -0.2317  0.4028  1.4482
  130OSM   C12F14073   4.152   6.664   4.763 -0.2161 -0.1082 -0.1356
  130OSM   H12F14074   4.200   6.575   4.716 -0.9373  0.6623 -2.4531
  130OSM   H12G14075   4.234   6.739   4.772  0.3387 -0.8995  2.4445
  130OSM   C13F14076   4.045   6.725   4.671  0.4009  0.3115 -0.4356
  130OSM   H13F14077   4.031   6.832   4.699  0.7185  0.2579 -0.0709
  130OSM   H13G14078   3.946   6.676   4.686  0.4673  0.1674 -0.4635
  130OSM   C14F14079   4.092   6.716   4.525 -0.1138 -0.1340 -0.7409
  130OSM   H14F14080   4.118   6.610   4.504  1.2288  0.3246 -1.4777
  130OSM   H14G14081   4.192   6.756   4.501  0.3681 -2.3238 -2.7405
  130OSM   C15F14082   3.995   6.761   4.417 -0.1659 -0.0476  0.0447
  130OSM   H15F14083   3.902   6.706   4.442 -0.0923  0.0006  0.4279
  130OSM   H15G14084   4.025   6.737   4.312  2.3968  1.0016  0.4643
  130OSM   C16F14085   3.955   6.911   4.428 -0.6228 -0.0504  0.4120
  130OSM   H16F14086   3.945   6.925   4.537  0.1783 -1.3383  0.6755
  130OSM   H16G14087   3.850   6.915   4.393 -0.3630 -0.5111 -0.4731
  130OSM   C17F14088   4.041   7.011   4.345 -0.0370  0.2384 -1.3264
  130OSM   H17F14089   4.146   7.010   4.383 -0.4497  0.0490 -0.1379
  130OSM   H17G14090   4.011   7.117   4.363  0.2034  0.3883 -1.8094
  130OSM   C18F14091   4.041   6.987   4.193 -0.1596  0.1568  0.0797
  130OSM   H18F14092   4.089   6.887   4.185  1.6686  1.0290 -0.5648
  130OSM   H18G14093   4.096   7.065   4.135 -1.1852  0.4062 -0.5868
  130OSM   H18H14094   3.937   6.981   4.155  0.5100 -0.9707 -1.7368
  131OSM      N14095   5.591   3.152   6.986 -0.2978  0.2172  0.3501
  131OSM    C1514096   5.570   3.292   6.948  0.9902  0.6587  0.3296
  131OSM   H15A14097   5.466   3.317   6.935  0.9215  1.0143  1.4705
  131OSM   H15B14098   5.619   3.325   6.858 -1.4498  1.9388 -0.6241
  131OSM   H15C14099   5.618   3.352   7.024  1.8216  1.6716 -0.9445
  131OSM    C1414100   5.717   3.140   7.051 -0.5469 -0.5381  0.5379
  131OSM   H14A14101   5.750   3.039   7.066 -0.9281 -0.7199  0.1590
  131OSM   H14B14102   5.708   3.185   7.149 -0.7765 -0.2668  0.3938
  131OSM   H14C14103   5.793   3.184   6.988 -1.7989 -2.0096 -2.1364
  131OSM    C1314104   5.480   3.109   7.075 -0.6627  1.0010 -0.2438
  131OSM   H13A14105   5.508   3.014   7.116 -0.1105  1.5832  0.7743
  131OSM   H13B14106   5.391   3.086   7.019  0.7498 -3.3563 -1.0199
  131OSM   H13C14107   5.464   3.177   7.158 -1.4691 -0.1606  0.5743
  131OSM    C1214108   5.595   3.059   6.865 -0.4707  0.1381  0.4362
  131OSM   H12A14109   5.495   3.055   6.825 -1.6414  1.0820  3.0691
  131OSM   H12B14110   5.628   2.960   6.893 -1.3811 -0.8789 -1.8506
  131OSM    C1114111   5.682   3.107   6.743 -0.6778  0.0165 -0.6194
  131OSM   H11A14112   5.694   3.021   6.675 -1.7953  1.3141 -2.5452
  131OSM   H11B14113   5.787   3.132   6.770  0.0581 -1.8346 -1.6158
  131OSM      P14114   5.482   3.215   6.598 -0.5703 -0.0665  0.2586
  131OSM    O1314115   5.376   3.223   6.698 -0.2016 -0.1031 -0.1791
  131OSM    O1414116   5.496   3.315   6.491  0.6155  0.0841 -0.0242
  131OSM    O1114117   5.473   3.070   6.540 -0.1297  0.2966 -0.2346
  131OSM    O1214118   5.616   3.220   6.680  0.5799 -0.4364  0.5810
  131OSM    C1S14119   5.401   3.050   6.416 -0.8284 -0.1125 -0.0884
  131OSM    H1S14120   5.327   3.131   6.397 -0.7182  0.2500  0.9290
  131OSM    H1T14121   5.349   2.952   6.415 -0.3243 -0.3800 -0.2676
  131OSM     NF14122   5.425   3.021   6.148 -0.2597  0.4162 -0.2999
  131OSM    HNF14123   5.433   2.929   6.109  1.0915 -0.0564  0.9911
  131OSM    C2S14124   5.491   3.040   6.282 -0.0081  0.7030  0.0880
  131OSM    H2S14125   5.555   3.130   6.273  0.8782 -0.0430 -1.4500
  131OSM    C3S14126   5.581   2.911   6.307 -1.3537 -0.6303 -0.1826
  131OSM    H3S14127   5.512   2.826   6.321 -2.0539 -0.4545 -2.2191
  131OSM     O314128   5.658   2.919   6.423  0.1090 -0.1766  0.2424
  131OSM    HO314129   5.636   3.008   6.451  1.3316  0.8550 -1.8999
  131OSM    C4S14130   5.674   2.886   6.190  0.1461  0.1647 -0.3712
  131OSM    H4S14131   5.730   2.978   6.169 -1.7873  1.8301  1.3610
  131OSM    C5S14132   5.662   2.779   6.112  0.1247  0.7357 -0.2323
  131OSM    H5S14133   5.587   2.706   6.149  0.1634  1.5332  1.5273
  131OSM    C6S14134   5.732   2.760   5.985 -0.2354  1.0496  0.3654
  131OSM    H6S14135   5.794   2.669   5.999 -1.9284  0.0456  1.7891
  131OSM    H6T14136   5.797   2.848   5.968 -3.3458  3.0164 -2.5977
  131OSM    C7S14137   5.644   2.736   5.861  0.5158 -0.0498  0.5839
  131OSM    H7S14138   5.562   2.666   5.886  0.9609 -0.6279  0.4528
  131OSM    H7T14139   5.697   2.690   5.775  0.3695  2.0212 -0.6926
  131OSM    C8S14140   5.594   2.871   5.815 -0.0275  0.1614 -0.4853
  131OSM    H8S14141   5.673   2.943   5.782  0.0242  0.1736 -0.3369
  131OSM    H8T14142   5.560   2.918   5.910  2.9368 -0.5731  1.0745
  131OSM    C9S14143   5.490   2.872   5.704  0.1519  0.4461 -0.4820
  131OSM    H9S14144   5.458   2.978   5.696 -1.2608 -0.0043 -1.0113
  131OSM    H9T14145   5.401   2.813   5.734  0.5987 -0.0197 -0.0496
  131OSM   C10S14146   5.542   2.830   5.564  0.1078 -0.4769 -0.5123
  131OSM   H10S14147   5.613   2.746   5.580  0.8834  0.3533  0.6068
  131OSM   H10T14148   5.603   2.902   5.505  0.1167  0.0643  0.1474
  131OSM   C11S14149   5.428   2.784   5.477 -0.6019  0.0065  0.0504
  131OSM   H11S14150   5.360   2.871   5.468 -0.1941  0.2302 -1.1659
  131OSM   H11T14151   5.364   2.706   5.523 -1.6368  0.9149  0.1997
  131OSM   C12S14152   5.491   2.740   5.343 -0.3469  0.4176 -0.8655
  131OSM   H12S14153   5.545   2.646   5.367 -2.9629 -0.9274  0.2228
  131OSM   H12T14154   5.548   2.824   5.298 -1.1787  1.8465  0.6532
  131OSM   C13S14155   5.379   2.717   5.247 -0.1660  0.1408  0.1754
  131OSM   H13S14156   5.317   2.809   5.256 -2.1334 -1.1403  0.3951
  131OSM   H13T14157   5.317   2.628   5.272 -1.0843  1.0369  1.2406
  131OSM   C14S14158   5.430   2.702   5.108  0.2451  0.4833  0.1860
  131OSM   H14S14159   5.501   2.617   5.115  1.3650  1.1550 -2.0822
  131OSM   H14T14160   5.492   2.789   5.077  2.6954 -1.6070 -1.2274
  131OSM   C15S14161   5.319   2.662   5.009  0.4763 -0.3529 -0.9964
  131OSM   H15S14162   5.251   2.750   4.997  1.8752  0.9433  0.1114
  131OSM   H15T14163   5.261   2.573   5.041  0.4513 -0.8292 -2.3094
  131OSM   C16S14164   5.393   2.620   4.877 -0.0774  1.3309 -0.3546
  131OSM   H16S14165   5.426   2.516   4.896  1.5127  1.9304  0.3816
  131OSM   H16T14166   5.485   2.679   4.859  0.7734 -0.1758 -1.1613
  131OSM   C17S14167   5.303   2.625   4.760 -0.4665  0.0649  0.0616
  131OSM   H17S14168   5.260   2.727   4.747  0.1364  0.4445  0.9609
  131OSM   H17T14169   5.219   2.554   4.774 -0.9270  0.9386  1.9833
  131OSM   C18S14170   5.368   2.584   4.627  0.1982  0.3118 -0.4150
  131OSM   H18S14171   5.304   2.596   4.537 -1.1714  0.2964  0.5280
  131OSM   H18T14172   5.406   2.479   4.629 -1.5866 -0.4014 -1.4237
  131OSM   H18U14173   5.465   2.638   4.625  0.2293  0.2516 -0.5384
  131OSM    C1F14174   5.358   3.126   6.102 -0.2485 -0.1793 -0.0729
  131OSM     OF14175   5.349   3.226   6.168  0.5774 -0.0853 -0.3972
  131OSM    C2F14176   5.289   3.109   5.972 -0.5833  0.1622  0.1423
  131OSM    H2F14177   5.250   3.007   5.956 -4.0856  1.4052 -0.0937
  131OSM    H2G14178   5.369   3.127   5.896  0.6039 -2.3603  0.7190
  131OSM    C3F14179   5.171   3.206   5.962  0.0345  0.0624  0.1750
  131OSM    H3F14180   5.208   3.310   5.949  0.9286 -0.4500 -1.7588
  131OSM    H3G14181   5.108   3.183   6.050 -0.6564 -3.3311 -1.0601
  131OSM    C4F14182   5.084   3.175   5.838 -0.7640  0.9819 -0.3676
  131OSM    H4F14183   4.986   3.221   5.860 -0.3426  1.4988  0.4748
  131OSM    H4G14184   5.066   3.066   5.833 -3.4782  1.4062 -1.4979
  131OSM    C5F14185   5.148   3.219   5.704  1.0035  0.0023 -0.6153
  131OSM    H5F14186   5.224   3.146   5.667  0.4105  0.3190 -2.6213
  131OSM    H5G14187   5.194   3.319   5.717  1.6770 -0.3225 -0.4575
  131OSM    C6F14188   5.046   3.218   5.589  0.1716 -0.2116  0.5165
  131OSM    H6F14189   5.055   3.315   5.536  2.4016  0.1094  1.3818
  131OSM    H6G14190   4.947   3.220   5.639  0.2130  3.3584  0.7808
  131OSM    C7F14191   5.061   3.097   5.494  0.3889  0.0635 -0.2474
  131OSM    H7F14192   4.971   3.080   5.432 -0.8014 -2.1127  1.9110
  131OSM    H7G14193   5.063   3.013   5.567 -3.2929 -0.0034 -0.0536
  131OSM    C8F14194   5.197   3.102   5.421  0.5787 -0.6725  0.3659
  131OSM    H8F14195   5.209   3.005   5.369 -0.1622 -1.8473  2.2859
  131OSM    H8G14196   5.287   3.103   5.485  0.1108 -1.6006  1.0696
  131OSM    C9F14197   5.204   3.224   5.323 -0.7500 -0.1866 -0.4798
  131OSM    H9F14198   5.218   3.321   5.374 -0.9550 -0.4896  0.1629
  131OSM   C10F14199   5.184   3.226   5.190  0.4722 -0.0712  0.0929
  131OSM   H10F14200   5.191   3.317   5.129 -0.6887 -1.1797 -1.8061
  131OSM   C11F14201   5.150   3.102   5.113  0.3808  0.0606  0.5780
  131OSM   H11F14202   5.067   3.041   5.154 -0.4799 -0.2069 -1.4440
  131OSM   H11G14203   5.234   3.030   5.115 -1.4261 -2.2577 -0.9028
  131OSM   C12F14204   5.129   3.124   4.957 -0.1412 -0.1247  0.1413
  131OSM   H12F14205   5.231   3.132   4.915  0.3516  0.8853  1.4448
  131OSM   H12G14206   5.075   3.221   4.944 -1.2532 -0.7174  0.2259
  131OSM   C13F14207   5.059   3.013   4.877  0.3473  0.0984  0.7496
  131OSM   H13F14208   4.951   3.021   4.903  0.4583 -1.5727  1.8277
  131OSM   H13G14209   5.090   2.913   4.912  1.0405 -0.2680 -0.8216
  131OSM   C14F14210   5.071   3.027   4.723 -0.1562 -0.9510 -0.1719
  131OSM   H14F14211   5.029   3.129   4.705 -1.7082 -1.9452 -2.7309
  131OSM   H14G14212   5.010   2.955   4.664 -3.0526  2.7416 -2.1623
  131OSM   C15F14213   5.225   3.020   4.684  0.5805 -0.2380 -0.9129
  131OSM   H15F14214   5.281   2.935   4.729  0.2917 -0.6737 -1.3591
  131OSM   H15G14215   5.272   3.116   4.714 -1.4399  1.5631 -3.0869
  131OSM   C16F14216   5.233   3.004   4.529  0.5638 -0.4510 -0.2319
  131OSM   H16F14217   5.183   3.083   4.468 -0.5478  0.7707  2.1176
  131OSM   H16G14218   5.171   2.913   4.509  0.8640 -0.3240 -1.8194
  131OSM   C17F14219   5.375   3.002   4.479 -0.4368 -0.9886  0.4923
  131OSM   H17F14220   5.449   2.994   4.562  0.5725 -0.6795 -0.3515
  131OSM   H17G14221   5.391   3.096   4.421 -2.5477 -1.3719 -0.8141
  131OSM   C18F14222   5.411   2.895   4.378 -0.9685 -0.6860  0.0655
  131OSM   H18F14223   5.404   2.789   4.412  2.4918 -1.3265 -0.8322
  131OSM   H18G14224   5.516   2.906   4.343 -0.1815 -0.5479  2.2763
  131OSM   H18H14225   5.340   2.903   4.293 -2.4239 -2.1448  1.0739
  132OSM      N14226   5.608   5.449   6.824  0.1743 -0.0697  0.3823
  132OSM    C1514227   5.636   5.313   6.883  0.5005  0.5229 -0.0602
  132OSM   H15A14228   5.564   5.239   6.849 -0.2779  0.8409  0.8386
  132OSM   H15B14229   5.650   5.312   6.990  0.4248  1.0052 -0.0435
  132OSM   H15C14230   5.727   5.268   6.848 -0.1019  0.2433 -1.3193
  132OSM    C1414231   5.476   5.502   6.872 -0.2391  0.0965 -0.3642
  132OSM   H14A14232   5.453   5.587   6.809 -2.2763  0.7058  1.1091
  132OSM   H14B14233   5.480   5.539   6.973  1.7801 -2.4887  0.6206
  132OSM   H14C14234   5.394   5.433   6.861 -2.1489  2.4237 -2.0961
  132OSM    C1314235   5.715   5.538   6.874 -0.5162 -0.2277  0.5678
  132OSM   H13A14236   5.702   5.637   6.832  1.2068  0.2395  1.0263
  132OSM   H13B14237   5.815   5.506   6.848 -0.8839 -0.0722 -1.1533
  132OSM   H13C14238   5.708   5.553   6.980  0.1386  0.1694  0.5620
  132OSM    C1214239   5.614   5.439   6.675  0.0112  0.1772 -0.1685
  132OSM   H12A14240   5.525   5.395   6.632 -0.5351  2.4249 -1.5059
  132OSM   H12B14241   5.691   5.371   6.642  0.5253  1.4776 -1.7880
  132OSM    C1114242   5.629   5.576   6.602  0.1115 -0.7020 -0.0825
  132OSM   H11A14243   5.632   5.565   6.492 -1.4620 -1.7047 -0.0537
  132OSM   H11B14244   5.729   5.622   6.619 -0.3042  0.4022 -0.5828
  132OSM      P14245   5.400   5.683   6.553  0.1872  0.0742 -0.1226
  132OSM    O1314246   5.325   5.552   6.547 -0.1406 -0.0853 -0.5771
  132OSM    O1414247   5.330   5.805   6.601 -0.6571 -0.4932  0.2518
  132OSM    O1114248   5.462   5.720   6.412 -0.4778 -0.2389  0.4736
  132OSM    O1214249   5.528   5.668   6.643 -0.1210 -0.0792  0.3609
  132OSM    C1S14250   5.378   5.781   6.313 -0.3539 -0.6837  0.3725
  132OSM    H1S14251   5.346   5.882   6.347 -1.4006 -0.7166 -0.4649
  132OSM    H1T14252   5.289   5.718   6.296 -1.7664  1.0828  0.8350
  132OSM     NF14253   5.357   5.879   6.088 -0.3675  0.0728 -0.5756
  132OSM    HNF14254   5.287   5.831   6.036 -0.0040 -1.1162 -0.0140
  132OSM    C2S14255   5.443   5.790   6.171  0.0403  0.1627  0.3219
  132OSM    H2S14256   5.539   5.842   6.190  0.3245 -0.3054  0.1838
  132OSM    C3S14257   5.469   5.649   6.121  0.2253 -0.5341  0.3719
  132OSM    H3S14258   5.378   5.588   6.141 -0.7945  0.2537 -1.6149
  132OSM     O314259   5.566   5.573   6.194 -0.1613  0.2411 -0.0590
  132OSM    HO314260   5.593   5.623   6.271  0.0832 -0.5428  0.3835
  132OSM    C4S14261   5.500   5.645   5.972 -0.7898  0.1383 -0.0757
  132OSM    H4S14262   5.567   5.726   5.938 -2.4803  2.4540  1.7237
  132OSM    C5S14263   5.423   5.585   5.879  0.8775 -0.2083  1.2026
  132OSM    H5S14264   5.329   5.542   5.916 -0.0103  0.3141 -0.3837
  132OSM    C6S14265   5.441   5.590   5.733 -0.0875 -0.6778  0.5808
  132OSM    H6S14266   5.505   5.675   5.701  0.3436 -0.7132  1.3305
  132OSM    H6T14267   5.347   5.615   5.679  0.4469  1.2755  0.4914
  132OSM    C7S14268   5.506   5.455   5.688 -0.1451  0.4761  0.0216
  132OSM    H7S14269   5.441   5.370   5.718 -2.0977  2.1455  0.6678
  132OSM    H7T14270   5.609   5.445   5.731 -0.2753  2.5638  0.9418
  132OSM    C8S14271   5.515   5.446   5.538  0.0337 -0.1660  0.0348
  132OSM    H8S14272   5.414   5.451   5.492  0.4959 -0.4864 -1.0584
  132OSM    H8T14273   5.567   5.354   5.504  1.6090  1.2847 -1.7003
  132OSM    C9S14274   5.603   5.558   5.475 -0.0976  0.1013 -0.0710
  132OSM    H9S14275   5.708   5.553   5.512  0.2496  0.1421 -1.0201
  132OSM    H9T14276   5.578   5.656   5.521 -1.0707 -1.0892  2.0276
  132OSM   C10S14277   5.589   5.578   5.326  0.1672  0.4603  0.6980
  132OSM   H10S14278   5.655   5.665   5.303  2.0377 -0.1633  3.2137
  132OSM   H10T14279   5.480   5.598   5.318 -0.1062 -0.0748  2.5873
  132OSM   C11S14280   5.629   5.452   5.237 -0.2982  0.2153  0.0786
  132OSM   H11S14281   5.586   5.471   5.136 -0.7737 -0.5799  0.1245
  132OSM   H11T14282   5.569   5.366   5.274  0.8706 -1.5143 -1.8044
  132OSM   C12S14283   5.776   5.419   5.235 -0.6831  0.5718  0.2577
  132OSM   H12S14284   5.803   5.396   5.340  0.9672 -2.2820 -0.6734
  132OSM   H12T14285   5.833   5.507   5.200 -2.9459  1.0336 -2.7136
  132OSM   C13S14286   5.817   5.290   5.158 -0.6626  0.3110  0.6257
  132OSM   H13S14287   5.773   5.204   5.212  1.0064  0.0847  1.6959
  132OSM   H13T14288   5.928   5.279   5.158 -0.2053  3.7798 -0.3960
  132OSM   C14S14289   5.764   5.288   5.010 -0.2591 -0.5582  0.3561
  132OSM   H14S14290   5.814   5.372   4.958  1.8770 -1.5574  0.7030
  132OSM   H14T14291   5.653   5.296   5.015 -0.1974  0.0553  0.9154
  132OSM   C15S14292   5.794   5.153   4.937 -0.1050  0.2351 -0.6386
  132OSM   H15S14293   5.763   5.067   5.001 -0.8085  1.1159  0.2479
  132OSM   H15T14294   5.903   5.133   4.932 -0.0566 -0.5696  2.0649
  132OSM   C16S14295   5.745   5.151   4.796 -0.2232  1.0273 -0.0761
  132OSM   H16S14296   5.792   5.226   4.728 -0.6792 -0.0646 -1.6562
  132OSM   H16T14297   5.637   5.176   4.795 -1.3226 -3.0732 -0.5934
  132OSM   C17S14298   5.764   5.025   4.714  0.4028  0.2542  0.1611
  132OSM   H17S14299   5.729   4.943   4.781 -1.1294  0.6006 -0.1773
  132OSM   H17T14300   5.868   5.002   4.680 -0.1524  0.8005 -2.0258
  132OSM   C18S14301   5.682   5.031   4.580 -0.0725  0.0732 -0.5278
  132OSM   H18S14302   5.682   4.930   4.533  0.5160 -1.0368  1.7444
  132OSM   H18T14303   5.710   5.104   4.501 -1.4381  0.4699 -0.6773
  132OSM   H18U14304   5.575   5.053   4.599 -0.3003 -1.5937  0.3104
  132OSM    C1F14305   5.341   6.018   6.114 -0.4211  0.4614  0.1481
  132OSM     OF14306   5.426   6.078   6.172 -0.1981  0.3536  0.0097
  132OSM    C2F14307   5.216   6.090   6.075  0.3798 -0.1821 -0.1143
  132OSM    H2F14308   5.235   6.199   6.066 -3.1086  0.3877 -2.8764
  132OSM    H2G14309   5.145   6.077   6.159  0.6221 -1.7611 -0.1166
  132OSM    C3F14310   5.143   6.044   5.945  0.5844 -0.0732 -0.1339
  132OSM    H3F14311   5.061   6.116   5.922 -1.3540 -1.7196  1.2567
  132OSM    H3G14312   5.104   5.941   5.958  2.4109 -0.9224 -1.0526
  132OSM    C4F14313   5.238   6.046   5.826  0.0308  0.1668  0.5460
  132OSM    H4F14314   5.312   5.965   5.841  0.7632  0.1492 -2.5214
  132OSM    H4G14315   5.287   6.146   5.824  0.4150 -0.0376 -0.5573
  132OSM    C5F14316   5.161   6.020   5.698 -0.7213 -0.6705  0.0158
  132OSM    H5F14317   5.080   6.093   5.674 -1.3870 -1.3297  0.2179
  132OSM    H5G14318   5.104   5.925   5.710 -1.7583 -0.0841 -0.1646
  132OSM    C6F14319   5.256   5.997   5.583 -0.6177  0.3781 -0.0259
  132OSM    H6F14320   5.304   5.909   5.632 -0.1293  1.3090  1.2110
  132OSM    H6G14321   5.317   6.088   5.570  1.5742 -0.9149  0.5871
  132OSM    C7F14322   5.188   5.966   5.445  0.5172 -0.8405  0.0081
  132OSM    H7F14323   5.151   6.058   5.395  3.4403  0.7444  0.4943
  132OSM    H7G14324   5.103   5.899   5.465 -0.1266 -0.5137 -1.5006
  132OSM    C8F14325   5.279   5.901   5.350 -0.3504  0.3782  0.0860
  132OSM    H8F14326   5.231   5.829   5.279  0.9314  1.4950 -2.0199
  132OSM    H8G14327   5.351   5.828   5.391  0.6813  1.2303 -0.1791
  132OSM    C9F14328   5.352   6.004   5.275  0.0860 -0.0438  0.3956
  132OSM    H9F14329   5.382   6.091   5.336  1.9132  0.7682 -1.5454
  132OSM   C10F14330   5.387   6.007   5.139  0.4816 -0.2216  0.2473
  132OSM   H10F14331   5.441   6.099   5.115 -0.5764  0.3851  0.1371
  132OSM   C11F14332   5.358   5.898   5.038 -0.3290 -0.0184  0.0663
  132OSM   H11F14333   5.322   5.800   5.074  1.2643 -0.7984 -0.3357
  132OSM   H11G14334   5.456   5.888   4.985  0.3674  2.5184  0.7231
  132OSM   C12F14335   5.256   5.952   4.931  0.4387  0.0677  0.3885
  132OSM   H12F14336   5.313   6.025   4.870  1.1094 -0.7436  0.0237
  132OSM   H12G14337   5.173   6.006   4.983 -1.4183  1.3644 -3.5256
  132OSM   C13F14338   5.208   5.843   4.832  0.6606  0.1106  0.3253
  132OSM   H13F14339   5.157   5.765   4.892  2.7121 -0.5321  1.3399
  132OSM   H13G14340   5.302   5.794   4.796  0.1177 -0.0218 -0.9827
  132OSM   C14F14341   5.119   5.888   4.717  0.1830 -0.1131  0.2075
  132OSM   H14F14342   5.047   5.967   4.746  0.7145  0.1610  0.7990
  132OSM   H14G14343   5.060   5.806   4.670  1.2276 -0.8479  0.1412
  132OSM   C15F14344   5.205   5.951   4.605 -0.0331  0.2513 -0.1534
  132OSM   H15F14345   5.290   5.880   4.597  1.5926  1.7278  2.5726
  132OSM   H15G14346   5.253   6.047   4.634 -0.6515 -0.0796  2.2624
  132OSM   C16F14347   5.140   5.953   4.459  0.1655  0.1568 -0.1414
  132OSM   H16F14348   5.053   6.023   4.465 -0.0381  0.1002 -1.8452
  132OSM   H16G14349   5.089   5.863   4.418 -1.4140  0.4827  1.0090
  132OSM   C17F14350   5.244   6.011   4.363 -0.2698 -0.2115  0.2759
  132OSM   H17F14351   5.292   6.099   4.411 -1.9462  2.3788 -2.4409
  132OSM   H17G14352   5.183   6.044   4.276  1.8673  2.1270 -0.4668
  132OSM   C18F14353   5.354   5.911   4.311 -0.0288 -0.1811 -0.8086
  132OSM   H18F14354   5.399   5.870   4.404  0.0233 -0.2593 -0.8677
  132OSM   H18G14355   5.436   5.959   4.254 -0.4694  1.3944 -0.1447
  132OSM   H18H14356   5.313   5.829   4.248  0.0799  1.0450 -2.5534
  133OSM      N14357   6.822   1.167   6.406 -0.7909  0.1078 -0.1461
  133OSM    C1514358   6.799   1.271   6.518  1.0769 -0.3432  0.3296
  133OSM   H15A14359   6.870   1.280   6.599  1.0615  0.4272  0.2625
  133OSM   H15B14360   6.705   1.246   6.565  0.5016 -0.8312 -1.0366
  133OSM   H15C14361   6.793   1.372   6.481  2.9780  0.3685  1.7909
  133OSM    C1414362   6.713   1.176   6.310  0.5347 -0.0981 -0.7679
  133OSM   H14A14363   6.621   1.143   6.355  0.7128 -2.2420 -1.8151
  133OSM   H14B14364   6.741   1.109   6.229 -0.4801 -1.9906  0.3587
  133OSM   H14C14365   6.694   1.276   6.275 -0.1432  0.8648  2.1401
  133OSM    C1314366   6.951   1.192   6.329 -0.1711  0.5643  0.1047
  133OSM   H13A14367   7.027   1.143   6.389 -1.5046  0.3500  1.7051
  133OSM   H13B14368   6.978   1.294   6.304 -0.1008  0.1363 -1.6702
  133OSM   H13C14369   6.938   1.130   6.242  0.8679  1.2620 -0.5664
  133OSM    C1214370   6.821   1.028   6.471  0.1068 -0.1852  0.0962
  133OSM   H12A14371   6.736   1.020   6.536 -0.3218 -1.5353 -0.5852
  133OSM   H12B14372   6.913   1.018   6.526  0.3023 -0.7581 -0.3259
  133OSM    C1114373   6.808   0.900   6.380  0.5289 -0.3541 -0.2113
  133OSM   H11A14374   6.707   0.895   6.332  0.5515 -1.6210 -0.1519
  133OSM   H11B14375   6.806   0.810   6.445 -1.7551  1.1982  2.0824
  133OSM      P14376   7.061   0.864   6.324  0.1850 -0.2311 -0.1545
  133OSM    O1314377   7.112   0.955   6.428 -0.1701 -0.2979  0.0669
  133OSM    O1414378   7.060   0.723   6.365  0.8781  0.3992  0.1905
  133OSM    O1114379   7.134   0.880   6.187 -0.5840 -0.8019  0.2051
  133OSM    O1214380   6.910   0.907   6.286 -0.2827 -0.2178  0.1792
  133OSM    C1S14381   7.088   0.893   6.055  1.1603 -0.0074 -0.0961
  133OSM    H1S14382   7.061   1.000   6.038 -2.8526 -0.9511 -0.7031
  133OSM    H1T14383   6.997   0.831   6.042 -0.0526  1.5964  0.4403
  133OSM     NF14384   7.124   0.874   5.818 -0.5674  0.4391 -0.0401
  133OSM    HNF14385   7.086   0.796   5.770 -1.8826  1.5467 -0.8656
  133OSM    C2S14386   7.189   0.863   5.945  0.6938 -0.6190  0.1633
  133OSM    H2S14387   7.266   0.942   5.955  0.7466 -0.4631 -1.2328
  133OSM    C3S14388   7.264   0.729   5.989  0.5636 -0.5195  0.5369
  133OSM    H3S14389   7.174   0.664   5.993 -0.3693  0.7343  0.6823
  133OSM     O314390   7.340   0.723   6.110  0.3010  0.1772  0.6090
  133OSM    HO314391   7.285   0.778   6.168  0.3092  0.0604  0.7291
  133OSM    C4S14392   7.354   0.683   5.876 -0.8112 -0.2801 -0.6806
  133OSM    H4S14393   7.306   0.605   5.816  0.3923 -2.7124  1.3261
  133OSM    C5S14394   7.486   0.710   5.855  0.4477  0.0549  0.3333
  133OSM    H5S14395   7.546   0.773   5.922  0.7633 -0.3105  0.4021
  133OSM    C6S14396   7.566   0.638   5.747  0.2125  0.4134 -0.6232
  133OSM    H6S14397   7.632   0.568   5.802 -1.5038 -0.7998 -0.0295
  133OSM    H6T14398   7.627   0.708   5.686 -0.3294  0.3190 -1.2722
  133OSM    C7S14399   7.489   0.572   5.642 -0.1150 -0.4542  0.7247
  133OSM    H7S14400   7.409   0.643   5.610  2.0244  1.7224 -0.1569
  133OSM    H7T14401   7.436   0.482   5.680  0.3458 -0.6430  0.9306
  133OSM    C8S14402   7.573   0.520   5.521  0.7067  0.8635 -0.2007
  133OSM    H8S14403   7.641   0.437   5.547  1.6815  1.8389  0.4719
  133OSM    H8T14404   7.638   0.605   5.488  0.4182  1.7323  1.3856
  133OSM    C9S14405   7.483   0.489   5.399 -0.0235  0.2567  0.1208
  133OSM    H9S14406   7.404   0.567   5.387  0.9635  1.1957 -0.4487
  133OSM    H9T14407   7.437   0.392   5.428  0.9479  0.2372  1.7865
  133OSM   C10S14408   7.559   0.496   5.267  0.0506 -0.1474 -0.0729
  133OSM   H10S14409   7.654   0.437   5.267  0.1746  0.0527 -0.2758
  133OSM   H10T14410   7.582   0.604   5.258  0.1957 -0.2904 -1.5876
  133OSM   C11S14411   7.479   0.466   5.143 -0.3331  0.1976  0.1410
  133OSM   H11S14412   7.391   0.534   5.146  0.4751  1.2591  3.1426
  133OSM   H11T14413   7.440   0.362   5.139 -1.7615  0.5586  2.5767
  133OSM   C12S14414   7.566   0.488   5.017  0.5727 -0.1763 -0.0742
  133OSM   H12S14415   7.660   0.428   5.021 -0.2373 -1.4599  0.0389
  133OSM   H12T14416   7.596   0.595   5.023 -1.7658  0.5084  0.0856
  133OSM   C13S14417   7.488   0.465   4.887 -0.2168  0.0050 -0.1474
  133OSM   H13S14418   7.405   0.539   4.885  0.5383  1.0359  2.1860
  133OSM   H13T14419   7.454   0.360   4.885 -0.6577  0.1506 -0.4255
  133OSM   C14S14420   7.581   0.490   4.767  0.1257 -0.3309 -0.4785
  133OSM   H14S14421   7.651   0.404   4.772 -1.8815 -2.0696 -0.9314
  133OSM   H14T14422   7.627   0.592   4.763 -0.1991 -0.2279 -2.3559
  133OSM   C15S14423   7.517   0.465   4.636 -1.0684  0.2244  0.4322
  133OSM   H15S14424   7.456   0.552   4.604 -3.3061 -2.0215 -1.7763
  133OSM   H15T14425   7.454   0.374   4.646 -0.1270 -0.3848  0.9784
  133OSM   C16S14426   7.621   0.442   4.523 -0.7444 -0.1421  0.4618
  133OSM   H16S14427   7.691   0.359   4.543 -0.5174  0.1457  0.8859
  133OSM   H16T14428   7.685   0.532   4.510 -0.5318  0.0039  2.1936
  133OSM   C17S14429   7.560   0.424   4.385 -0.0934  0.3193  0.2271
  133OSM   H17S14430   7.650   0.409   4.321 -0.4114 -1.7443  0.1906
  133OSM   H17T14431   7.503   0.515   4.360  2.4733  1.7330 -0.8564
  133OSM   C18S14432   7.466   0.303   4.386  0.8760  0.6363  0.2662
  133OSM   H18S14433   7.444   0.283   4.279 -0.4404  0.0528  0.6252
  133OSM   H18T14434   7.366   0.333   4.425  0.3549  1.4199 -1.5700
  133OSM   H18U14435   7.513   0.212   4.431 -1.6638 -0.2985  1.2157
  133OSM    C1F14436   7.086   0.991   5.774 -0.2720 -0.0656  0.1841
  133OSM     OF14437   7.136   1.100   5.808  0.4897  0.1238  0.6415
  133OSM    C2F14438   6.973   0.990   5.675  0.4464  0.6933  0.5068
  133OSM    H2F14439   6.906   0.904   5.699 -2.2090  2.4028 -0.3274
  133OSM    H2G14440   7.016   0.980   5.574 -0.6827  1.1370 -0.0366
  133OSM    C3F14441   6.891   1.116   5.667  0.5819  0.1478 -0.5353
  133OSM    H3F14442   6.963   1.195   5.636  0.0418  0.7014 -0.4089
  133OSM    H3G14443   6.846   1.144   5.765 -0.8662 -2.3191 -0.3995
  133OSM    C4F14444   6.771   1.114   5.566 -0.4299 -0.4780  0.2226
  133OSM    H4F14445   6.737   1.217   5.541 -1.1183 -0.9899 -1.0380
  133OSM    H4G14446   6.680   1.081   5.620 -1.2312  0.0028 -0.7878
  133OSM    C5F14447   6.819   1.047   5.438 -0.0268 -0.5337 -0.0705
  133OSM    H5F14448   6.827   0.938   5.457 -2.1643 -0.3892  2.1231
  133OSM    H5G14449   6.913   1.099   5.409  0.4469 -0.7612  1.0182
  133OSM    C6F14450   6.715   1.061   5.330 -0.1367  0.0364  0.4982
  133OSM    H6F14451   6.687   1.167   5.311  1.8130  0.2896 -1.2263
  133OSM    H6G14452   6.626   1.011   5.374 -1.1430  1.0834 -0.2824
  133OSM    C7F14453   6.748   1.003   5.196  0.2088 -0.0382 -1.2982
  133OSM    H7F14454   6.656   0.983   5.138  0.7821 -0.5871 -2.0314
  133OSM    H7G14455   6.773   0.896   5.217  0.3908 -0.2531 -2.5745
  133OSM    C8F14456   6.866   1.063   5.119  1.0461  0.3780  0.0344
  133OSM    H8F14457   6.897   0.989   5.042  0.8410 -1.6485  1.7894
  133OSM    H8G14458   6.944   1.076   5.197 -0.3429  0.0633  1.5386
  133OSM    C9F14459   6.839   1.199   5.061 -1.1266 -0.1715 -0.3990
  133OSM    H9F14460   6.789   1.272   5.127 -0.7801  0.7415 -1.1271
  133OSM   C10F14461   6.867   1.241   4.932 -0.2414 -0.1887 -0.2741
  133OSM   H10F14462   6.832   1.343   4.912  1.6424  0.1851 -2.0007
  133OSM   C11F14463   6.932   1.162   4.824 -0.1005 -0.1816 -0.5796
  133OSM   H11F14464   6.973   1.064   4.857  1.2564  0.1259 -1.2938
  133OSM   H11G14465   7.004   1.228   4.771 -1.1730  0.0369 -1.8088
  133OSM   C12F14466   6.833   1.116   4.713 -0.4860 -0.1375 -0.1047
  133OSM   H12F14467   6.783   1.202   4.663 -0.0306  1.4385  2.0092
  133OSM   H12G14468   6.755   1.056   4.765  1.2484 -0.4275  2.3610
  133OSM   C13F14469   6.909   1.032   4.612  0.2188  0.1391  0.4054
  133OSM   H13F14470   6.913   0.928   4.650 -1.1815 -0.8399 -1.9270
  133OSM   H13G14471   7.013   1.072   4.608  0.2280  0.1597  0.7809
  133OSM   C14F14472   6.834   1.022   4.475 -0.2210  0.0193 -0.3439
  133OSM   H14F14473   6.807   1.120   4.430  0.4589  1.2096  1.7242
  133OSM   H14G14474   6.744   0.960   4.495  0.6573 -0.7048  1.6705
  133OSM   C15F14475   6.919   0.941   4.374  0.2069 -0.2230  0.6239
  133OSM   H15F14476   6.841   0.896   4.309 -0.9970  0.1397  1.7671
  133OSM   H15G14477   6.976   0.862   4.427  0.8950  0.4611  0.9241
  133OSM   C16F14478   7.024   1.024   4.293  0.4924  0.4710 -0.2037
  133OSM   H16F14479   7.077   1.096   4.359  3.5054  0.0353 -1.9988
  133OSM   H16G14480   6.968   1.082   4.217 -1.8424 -1.8101 -0.3775
  133OSM   C17F14481   7.131   0.934   4.231  0.3899 -0.0555  0.0908
  133OSM   H17F14482   7.084   0.844   4.188 -0.2371  0.5717 -0.5559
  133OSM   H17G14483   7.194   0.898   4.315  2.1573  3.6104  0.5416
  133OSM   C18F14484   7.214   1.003   4.121 -0.3710  0.0692 -0.4042
  133OSM   H18F14485   7.285   1.087   4.142  1.1740 -0.7607 -2.0395
  133OSM   H18G14486   7.155   1.054   4.042  1.8738  0.8192 -1.6860
  133OSM   H18H14487   7.277   0.919   4.085 -0.6375 -0.6339  0.7320
  134OSM      N14488   0.694   0.399   6.229  0.6366  0.2030 -0.4124
  134OSM    C1514489   0.769   0.472   6.340  0.0053 -0.5265  0.4436
  134OSM   H15A14490   0.720   0.448   6.433  1.4221  0.8944  1.5889
  134OSM   H15B14491   0.768   0.580   6.333 -1.6475 -0.5204  0.2999
  134OSM   H15C14492   0.874   0.451   6.355  0.2834  1.6638  2.0010
  134OSM    C1414493   0.558   0.446   6.210 -0.4989  0.6833  0.7668
  134OSM   H14A14494   0.516   0.405   6.119 -0.2689 -1.7227  1.6684
  134OSM   H14B14495   0.563   0.553   6.195  0.1421  0.7647  1.4912
  134OSM   H14C14496   0.485   0.418   6.285 -0.2330  1.0187  1.1532
  134OSM    C1314497   0.760   0.404   6.097 -0.5450  0.1547 -0.0015
  134OSM   H13A14498   0.867   0.403   6.112 -0.3565 -1.6952 -1.0749
  134OSM   H13B14499   0.735   0.487   6.033 -1.0288 -0.0741 -0.1178
  134OSM   H13C14500   0.738   0.311   6.044 -0.5441 -0.6738  1.4115
  134OSM    C1214501   0.696   0.245   6.267  1.0687 -0.7037 -0.6691
  134OSM   H12A14502   0.658   0.243   6.369  0.9955 -1.4331 -0.7109
  134OSM   H12B14503   0.798   0.210   6.263  1.4224  0.0983  0.4520
  134OSM    C1114504   0.608   0.144   6.186 -0.4718  0.0959 -0.8356
  134OSM   H11A14505   0.502   0.179   6.190 -0.8029 -0.9550  1.5086
  134OSM   H11B14506   0.634   0.055   6.247  2.7301  1.4657 -0.0057
  134OSM      P14507   0.785   0.028   6.030 -0.2819  0.0416  0.0138
  134OSM    O1314508   0.853   0.039   5.905  0.4389  0.4135 -0.2936
  134OSM    O1414509   0.877   0.053   6.147  0.2047  0.1782  0.0801
  134OSM    O1114510   0.743  -0.116   6.045  0.3885  0.1668 -0.4114
  134OSM    O1214511   0.656   0.117   6.051  0.8060 -0.0171 -0.0883
  134OSM    C1S14512   0.637  -0.153   5.963  0.8092  0.7972  0.3464
  134OSM    H1S14513   0.564  -0.073   5.937  0.5244  0.3756 -0.1655
  134OSM    H1T14514   0.575  -0.227   6.017  2.0155  0.0583  0.7523
  134OSM     NF14515   0.574  -0.216   5.725 -0.5820  0.0621 -0.1589
  134OSM    HNF14516   0.541  -0.299   5.680  0.4251 -1.4695  1.7747
  134OSM    C2S14517   0.677  -0.228   5.830 -0.2291 -0.5353 -0.4254
  134OSM    H2S14518   0.763  -0.169   5.790  1.4181 -1.6214  1.3294
  134OSM    C3S14519   0.724  -0.368   5.856  0.8979  0.1994  0.1809
  134OSM    H3S14520   0.639  -0.437   5.876  0.7667 -0.0878 -1.2586
  134OSM     O314521   0.815  -0.375   5.968 -0.6825 -0.0094  0.9260
  134OSM    HO314522   0.812  -0.287   6.005  2.1247  0.0972  1.0560
  134OSM    C4S14523   0.770  -0.427   5.722  0.2451 -0.0472 -0.1469
  134OSM    H4S14524   0.685  -0.460   5.661 -0.8604  1.6438  0.4136
  134OSM    C5S14525   0.899  -0.438   5.677 -0.0629 -0.0673 -0.1264
  134OSM    H5S14526   0.979  -0.400   5.743 -0.0312 -2.6016  1.3979
  134OSM    C6S14527   0.931  -0.473   5.535 -0.0160  0.1907 -0.5916
  134OSM    H6S14528   0.974  -0.576   5.533  0.5165  0.4177 -2.1299
  134OSM    H6T14529   1.012  -0.406   5.499 -2.0955  2.0492 -2.0406
  134OSM    C7S14530   0.819  -0.475   5.432  0.2460 -0.1850 -0.0218
  134OSM    H7S14531   0.776  -0.375   5.409 -0.0020 -0.0999  0.7751
  134OSM    H7T14532   0.744  -0.546   5.472 -1.3584  1.0139 -0.7676
  134OSM    C8S14533   0.869  -0.530   5.296 -0.0310 -0.7841 -0.0434
  134OSM    H8S14534   0.895  -0.637   5.312  2.1052 -0.2026  0.7156
  134OSM    H8T14535   0.963  -0.474   5.276 -0.6088  0.7699  1.3978
  134OSM    C9S14536   0.758  -0.523   5.183 -0.1139 -0.7476  0.4757
  134OSM    H9S14537   0.717  -0.421   5.172 -0.2103 -0.9417 -1.2522
  134OSM    H9T14538   0.683  -0.594   5.224 -0.1694 -0.4475  0.9027
  134OSM   C10S14539   0.807  -0.573   5.045 -0.2671 -0.1043 -0.1360
  134OSM   H10S14540   0.851  -0.675   5.056  1.9993  0.9096  0.8379
  134OSM   H10T14541   0.879  -0.492   5.023  0.7672 -0.6449  1.1167
  134OSM   C11S14542   0.687  -0.573   4.946  0.4941  0.6923  0.0863
  134OSM   H11S14543   0.625  -0.482   4.956  1.4871  1.6432 -1.8987
  134OSM   H11T14544   0.632  -0.666   4.973  0.5258  0.3294 -1.0508
  134OSM   C12S14545   0.716  -0.567   4.793  0.1449 -0.4340 -0.4694
  134OSM   H12S14546   0.622  -0.559   4.734 -1.8241 -1.2269  2.3697
  134OSM   H12T14547   0.768  -0.658   4.759  3.1355  1.2554 -0.7546
  134OSM   C13S14548   0.786  -0.446   4.756  0.4814 -0.1853 -0.8709
  134OSM   H13S14549   0.886  -0.436   4.804 -0.5588 -2.1447  1.9180
  134OSM   H13T14550   0.728  -0.356   4.783  0.6106 -0.3802  0.0868
  134OSM   C14S14551   0.815  -0.451   4.611  0.8551  0.5841  0.2677
  134OSM   H14S14552   0.848  -0.555   4.589  3.4275  1.4395 -0.2904
  134OSM   H14T14553   0.899  -0.391   4.570  1.7277 -0.2154  0.8631
  134OSM   C15S14554   0.689  -0.411   4.523  0.4115 -0.6129  0.1906
  134OSM   H15S14555   0.659  -0.309   4.555  1.1216 -0.5989  0.8349
  134OSM   H15T14556   0.607  -0.485   4.535  0.7507 -1.1654 -0.7189
  134OSM   C16S14557   0.724  -0.412   4.371  0.2607  0.1869 -0.1693
  134OSM   H16S14558   0.766  -0.514   4.362  0.3439  0.1967  0.1187
  134OSM   H16T14559   0.796  -0.334   4.339 -0.0838  0.0405 -1.3472
  134OSM   C17S14560   0.596  -0.407   4.295 -0.2022 -0.4226 -0.2764
  134OSM   H17S14561   0.529  -0.322   4.320 -1.2948 -1.8204  1.8726
  134OSM   H17T14562   0.544  -0.501   4.325 -0.9310  0.2957  0.7654
  134OSM   C18S14563   0.626  -0.405   4.139  0.1936  0.7229  0.2409
  134OSM   H18S14564   0.537  -0.435   4.079  1.5644 -2.5834 -0.3259
  134OSM   H18T14565   0.704  -0.480   4.117 -1.1503 -0.1255 -2.0186
  134OSM   H18U14566   0.656  -0.304   4.103  1.9913  0.2876  0.4398
  134OSM    C1F14567   0.539  -0.097   5.665 -0.6206  0.1066 -0.5212
  134OSM     OF14568   0.613  -0.000   5.679  0.3116  0.2693 -0.0547
  134OSM    C2F14569   0.415  -0.093   5.586 -0.0186 -0.0975  0.0331
  134OSM    H2F14570   0.347  -0.165   5.636 -0.4887 -1.6428 -2.6633
  134OSM    H2G14571   0.439  -0.129   5.484 -1.4366  0.9148 -0.6933
  134OSM    C3F14572   0.340   0.043   5.576 -0.1160 -0.0353 -0.8094
  134OSM    H3F14573   0.398   0.113   5.514 -0.9403 -0.0015 -1.5590
  134OSM    H3G14574   0.327   0.085   5.678  0.5432  1.2954 -1.2509
  134OSM    C4F14575   0.199   0.027   5.523  0.5522  0.1424  0.6470
  134OSM    H4F14576   0.135   0.116   5.540 -0.2546 -0.7616  2.6142
  134OSM    H4G14577   0.153  -0.056   5.580  1.1520 -0.6704 -0.0394
  134OSM    C5F14578   0.206  -0.009   5.377 -0.0304  0.7331  0.2173
  134OSM    H5F14579   0.277  -0.091   5.357 -1.1031 -0.5141  1.3671
  134OSM    H5G14580   0.251   0.079   5.327 -0.8188  1.0349  0.0150
  134OSM    C6F14581   0.071  -0.024   5.307  0.6631 -0.6149  0.2107
  134OSM    H6F14582   0.013   0.069   5.322  0.7027 -0.5435 -0.0731
  134OSM    H6G14583   0.023  -0.110   5.357  2.4854 -0.5571  2.1889
  134OSM    C7F14584   0.106  -0.043   5.164  0.0272  0.3555 -0.0982
  134OSM    H7F14585   0.164  -0.136   5.144 -2.0257 -1.0088 -0.0787
  134OSM    H7G14586   0.173   0.036   5.124  0.5420 -0.9497 -1.9747
  134OSM    C8F14587  -0.013  -0.030   5.072  0.4741 -0.2291 -0.9264
  134OSM    H8F14588   0.025   0.001   4.972  0.5024  1.6152 -0.3784
  134OSM    H8G14589  -0.072   0.058   5.105  1.2875  0.5624 -1.5325
  134OSM    C9F14590  -0.092  -0.159   5.080  0.7097 -0.3634 -0.5514
  134OSM    H9F14591  -0.088  -0.206   5.179 -0.9731 -2.0611 -1.2396
  134OSM   C10F14592  -0.135  -0.238   4.983  0.9415 -0.3544  0.8203
  134OSM   H10F14593  -0.196  -0.324   5.018  0.5754  0.1969  1.5565
  134OSM   C11F14594  -0.131  -0.203   4.828  0.2870  0.0438 -0.2392
  134OSM   H11F14595  -0.093  -0.297   4.781  0.0878  0.0044 -0.3216
  134OSM   H11G14596  -0.045  -0.137   4.802 -1.1546  2.3863  0.6604
  134OSM   C12F14597  -0.266  -0.165   4.760 -0.2414  0.0075  0.0405
  134OSM   H12F14598  -0.310  -0.078   4.813 -0.4724 -0.7270  1.0727
  134OSM   H12G14599  -0.334  -0.253   4.765  1.2970 -1.2502 -0.4182
  134OSM   C13F14600  -0.253  -0.135   4.605 -0.4001 -0.0356 -0.1338
  134OSM   H13F14601  -0.171  -0.062   4.590 -0.5890  0.0467 -0.8553
  134OSM   H13G14602  -0.349  -0.087   4.576 -1.3969 -1.0824  1.3220
  134OSM   C14F14603  -0.232  -0.261   4.521 -0.1771  1.0193 -0.1410
  134OSM   H14F14604  -0.310  -0.333   4.553  0.9529  0.8887  2.6127
  134OSM   H14G14605  -0.132  -0.309   4.532 -0.8101 -0.1313  0.7570
  134OSM   C15F14606  -0.236  -0.242   4.366 -0.5288  0.3153 -0.5233
  134OSM   H15F14607  -0.184  -0.148   4.337  0.8546 -0.5732 -0.9672
  134OSM   H15G14608  -0.339  -0.229   4.327 -1.2650 -1.3457  0.7327
  134OSM   C16F14609  -0.168  -0.360   4.295  0.4318  0.3768 -0.4671
  134OSM   H16F14610  -0.236  -0.444   4.322 -0.4640  1.7904  2.0664
  134OSM   H16G14611  -0.066  -0.368   4.338  0.0877  3.6403  1.2885
  134OSM   C17F14612  -0.165  -0.334   4.145  0.1423 -0.7577 -0.5343
  134OSM   H17F14613  -0.101  -0.415   4.103 -1.2672 -3.1298  1.5934
  134OSM   H17G14614  -0.109  -0.238   4.138  0.4506 -0.4447  3.6354
  134OSM   C18F14615  -0.295  -0.317   4.065 -0.2875 -0.7424 -0.3335
  134OSM   H18F14616  -0.369  -0.395   4.093 -0.3050 -0.4335  0.4830
  134OSM   H18G14617  -0.272  -0.333   3.957  1.0595  0.9096 -0.3388
  134OSM   H18H14618  -0.337  -0.217   4.087  0.8390 -0.5649  1.1628
  135OSM      N14619   2.175   4.871   6.705  0.5056 -0.0876  0.2953
  135OSM    C1514620   2.107   4.760   6.644 -0.6518 -0.0066 -0.8892
  135OSM   H15A14621   2.106   4.756   6.537 -0.4259 -2.2284 -0.8440
  135OSM   H15B14622   2.005   4.758   6.681 -0.3118 -1.9615  0.1058
  135OSM   H15C14623   2.166   4.671   6.659  0.1739  0.3272 -2.0364
  135OSM    C1414624   2.201   4.842   6.850 -0.4955 -0.5551  1.0880
  135OSM   H14A14625   2.247   4.746   6.864 -1.0510 -0.9760  0.0995
  135OSM   H14B14626   2.107   4.846   6.903 -0.4109 -0.2176  1.2178
  135OSM   H14C14627   2.264   4.916   6.897 -0.1581  0.9593 -1.5086
  135OSM    C1314628   2.308   4.888   6.636 -0.2579  0.7788  0.3775
  135OSM   H13A14629   2.350   4.789   6.640 -3.2069 -0.6546 -1.3657
  135OSM   H13B14630   2.377   4.952   6.689  0.8166  0.8955 -1.0995
  135OSM   H13C14631   2.296   4.912   6.531 -0.5899 -2.1615 -0.3539
  135OSM    C1214632   2.095   4.998   6.681 -0.3663  0.0745 -0.2560
  135OSM   H12A14633   2.103   5.034   6.579 -0.1412  0.7190 -0.0176
  135OSM   H12B14634   2.150   5.079   6.728 -1.2279  0.2249  0.5197
  135OSM    C1114635   1.947   5.013   6.730  0.1144 -0.0228  0.1385
  135OSM   H11A14636   1.912   5.116   6.752 -2.4283 -0.8000  0.0765
  135OSM   H11B14637   1.947   4.950   6.821  1.7466 -0.1252  0.0937
  135OSM      P14638   1.779   5.037   6.529  0.2551 -0.0364 -0.2548
  135OSM    O1314639   1.708   4.945   6.439 -0.2693  0.3005  0.2632
  135OSM    O1414640   1.709   5.138   6.608  0.0562  0.0024  0.5221
  135OSM    O1114641   1.907   5.097   6.454  0.1515  0.0341 -0.2650
  135OSM    O1214642   1.861   4.947   6.636  0.2888 -0.1350  0.1207
  135OSM    C1S14643   1.986   5.024   6.360  0.5122  0.0537  0.0407
  135OSM    H1S14644   1.958   4.917   6.354 -0.0963  0.0728  1.7498
  135OSM    H1T14645   2.087   5.035   6.405  0.9322 -0.6773 -0.7091
  135OSM     NF14646   2.057   5.007   6.124 -0.5473 -0.0260 -0.5359
  135OSM    HNF14647   2.138   5.053   6.090  1.1643  0.1857  3.3595
  135OSM    C2S14648   1.978   5.088   6.222 -0.1580  0.6672  0.3388
  135OSM    H2S14649   1.869   5.077   6.206  0.0301 -1.5509  0.1840
  135OSM    C3S14650   2.017   5.238   6.222  0.3763 -0.5153 -0.7892
  135OSM    H3S14651   2.125   5.240   6.247  0.4435 -1.5188 -0.9837
  135OSM     O314652   1.950   5.326   6.312 -0.0257  0.4065 -0.2725
  135OSM    HO314653   1.910   5.272   6.380 -0.7444  0.9426 -0.2533
  135OSM    C4S14654   2.017   5.293   6.083 -0.0931 -0.1563  1.0979
  135OSM    H4S14655   2.116   5.296   6.036 -1.1637  0.6080 -1.2779
  135OSM    C5S14656   1.912   5.332   6.009 -0.4767  0.2415 -0.2242
  135OSM    H5S14657   1.807   5.323   6.043 -0.0213 -2.3079  0.7275
  135OSM    C6S14658   1.927   5.384   5.866  0.5878 -0.4199 -0.7692
  135OSM    H6S14659   1.907   5.494   5.861  2.8090  0.0165 -1.3551
  135OSM    H6T14660   1.849   5.340   5.800  0.5600 -0.6503 -0.5797
  135OSM    C7S14661   2.062   5.356   5.796  0.7138 -0.0878 -0.4360
  135OSM    H7S14662   2.092   5.249   5.802  1.0693 -0.0888 -1.7693
  135OSM    H7T14663   2.149   5.405   5.844  1.2100  0.3655 -1.7527
  135OSM    C8S14664   2.067   5.396   5.647  0.1510 -0.2853  0.3655
  135OSM    H8S14665   2.170   5.391   5.606  0.2078  0.8415  0.3460
  135OSM    H8T14666   2.045   5.504   5.637  0.9811  0.0949  2.2464
  135OSM    C9S14667   1.977   5.313   5.560  0.5732  0.9453 -0.3041
  135OSM    H9S14668   1.882   5.294   5.615  1.1266 -0.1866  0.2791
  135OSM    H9T14669   2.017   5.210   5.571 -0.3566  0.7886  2.5289
  135OSM   C10S14670   1.974   5.354   5.418  0.2113  0.0401  0.5491
  135OSM   H10S14671   1.949   5.462   5.411 -0.2997 -0.1623 -1.2692
  135OSM   H10T14672   1.887   5.306   5.369  0.5706 -0.0511 -0.0057
  135OSM   C11S14673   2.106   5.324   5.347 -0.0631  0.4441  0.2831
  135OSM   H11S14674   2.130   5.215   5.343  1.7421  0.8002  0.7481
  135OSM   H11T14675   2.190   5.375   5.398  1.0593 -0.6552 -0.4098
  135OSM   C12S14676   2.111   5.364   5.195 -0.3720  1.4667 -0.1178
  135OSM   H12S14677   2.220   5.362   5.173 -0.0170 -0.9084  1.3769
  135OSM   H12T14678   2.078   5.468   5.178 -1.4328  0.9937 -1.0557
  135OSM   C13S14679   2.036   5.268   5.104  0.2999  0.8231 -0.0674
  135OSM   H13S14680   1.936   5.250   5.149  1.2513  0.9670  2.2103
  135OSM   H13T14681   2.079   5.168   5.082  0.0592  0.4043  1.2995
  135OSM   C14S14682   2.009   5.321   4.962  0.0547  0.3149 -0.7341
  135OSM   H14S14683   1.959   5.420   4.965 -0.1162  0.2069  1.5291
  135OSM   H14T14684   1.936   5.252   4.915 -1.3217  0.6619  0.8023
  135OSM   C15S14685   2.140   5.336   4.881 -0.1485  0.2747 -0.1946
  135OSM   H15S14686   2.226   5.273   4.914  0.2763  0.4609 -0.9163
  135OSM   H15T14687   2.173   5.442   4.876  1.6984 -0.2313  0.5488
  135OSM   C16S14688   2.117   5.316   4.731 -0.6953  0.9284 -0.4427
  135OSM   H16S14689   2.029   5.377   4.701 -1.0799  0.8797  0.5592
  135OSM   H16T14690   2.080   5.212   4.720 -1.0621  0.6999  2.2474
  135OSM   C17S14691   2.241   5.333   4.638  0.5107 -0.3804  0.0941
  135OSM   H17S14692   2.324   5.260   4.654  1.1609 -0.1552 -1.9453
  135OSM   H17T14693   2.278   5.437   4.643 -1.3191  0.5078 -2.5997
  135OSM   C18S14694   2.198   5.304   4.487  0.8217  0.1698  0.5037
  135OSM   H18S14695   2.279   5.314   4.411 -0.8300  3.9730 -1.0081
  135OSM   H18T14696   2.114   5.359   4.439  0.9742 -0.8375 -0.9872
  135OSM   H18U14697   2.175   5.198   4.465 -1.6714  1.0558 -1.6314
  135OSM    C1F14698   2.011   4.885   6.086  0.2240  0.3070  0.6238
  135OSM     OF14699   1.902   4.843   6.125 -0.2550  0.6177  0.4887
  135OSM    C2F14700   2.092   4.800   5.998  0.2156 -0.1136 -0.0712
  135OSM    H2F14701   2.169   4.747   6.057 -0.7139 -1.9344 -0.4030
  135OSM    H2G14702   2.135   4.867   5.921 -0.1185 -1.2044 -1.2456
  135OSM    C3F14703   2.012   4.673   5.944  0.2110 -0.1173 -0.2413
  135OSM    H3F14704   1.913   4.696   5.899  0.0016 -2.0400 -0.8534
  135OSM    H3G14705   1.981   4.618   6.035  0.1092  0.3315 -0.0004
  135OSM    C4F14706   2.098   4.578   5.860  0.3129  0.0216 -0.1362
  135OSM    H4F14707   2.159   4.645   5.795 -0.1419 -1.1863 -1.8838
  135OSM    H4G14708   2.170   4.529   5.928  1.1648  1.8780  0.3673
  135OSM    C5F14709   2.007   4.477   5.784 -0.2185  0.5328  0.4848
  135OSM    H5F14710   1.913   4.527   5.751  0.2550  1.0616 -0.0787
  135OSM    H5G14711   1.969   4.393   5.846 -2.8595 -1.0567 -2.9192
  135OSM    C6F14712   2.080   4.419   5.652  0.0882  0.2126 -0.9070
  135OSM    H6F14713   2.146   4.330   5.662  0.6591  0.6415 -0.7615
  135OSM    H6G14714   2.147   4.505   5.629 -2.3083  3.1132  1.9482
  135OSM    C7F14715   1.986   4.393   5.533  0.5403  0.1113 -1.0548
  135OSM    H7F14716   1.942   4.491   5.507  0.9639  0.8109  0.7753
  135OSM    H7G14717   1.906   4.317   5.548  0.3282  0.4301 -0.5810
  135OSM    C8F14718   2.064   4.351   5.400  0.1260 -0.5141  0.2140
  135OSM    H8F14719   2.149   4.286   5.431  0.3455 -0.2602  0.1493
  135OSM    H8G14720   2.123   4.439   5.368  0.3437 -0.8232 -0.2603
  135OSM    C9F14721   1.961   4.304   5.298 -0.0092  0.0532  0.3043
  135OSM    H9F14722   1.894   4.220   5.322 -2.1754  1.1922 -1.4242
  135OSM   C10F14723   1.940   4.356   5.174 -0.6449  0.6076  0.0744
  135OSM   H10F14724   1.865   4.301   5.115  0.4226 -0.7583 -0.0683
  135OSM   C11F14725   2.015   4.464   5.107  0.2152 -0.1502 -0.3166
  135OSM   H11F14726   2.086   4.509   5.180 -0.5151  0.7018 -0.1176
  135OSM   H11G14727   1.945   4.547   5.082  0.7555  0.7386  1.0031
  135OSM   C12F14728   2.090   4.418   4.983 -0.3177 -0.0951 -0.6703
  135OSM   H12F14729   2.142   4.325   5.014 -1.6612 -0.8533 -0.6240
  135OSM   H12G14730   2.167   4.497   4.970 -0.0567 -0.0805  0.7877
  135OSM   C13F14731   2.006   4.399   4.858 -0.0476  0.0714  0.0434
  135OSM   H13F14732   1.941   4.485   4.833  1.7184  1.8586  1.3284
  135OSM   H13G14733   1.932   4.319   4.878 -0.6283 -0.1890 -2.6931
  135OSM   C14F14734   2.090   4.369   4.732  0.5903  0.0923  0.3564
  135OSM   H14F14735   2.176   4.304   4.755  1.2637  0.5913 -0.6794
  135OSM   H14G14736   2.128   4.461   4.682 -1.3025  0.9630  0.4280
  135OSM   C15F14737   2.020   4.286   4.624  0.9408  0.6882  0.2909
  135OSM   H15F14738   1.982   4.193   4.672  0.2683  0.8289  0.0464
  135OSM   H15G14739   2.092   4.247   4.549  1.7345  3.7679 -0.6935
  135OSM   C16F14740   1.903   4.353   4.554  0.4504 -0.2973  0.3785
  135OSM   H16F14741   1.937   4.422   4.474  2.3289 -0.4085  1.0439
  135OSM   H16G14742   1.854   4.421   4.627  2.4245  1.0100  0.5416
  135OSM   C17F14743   1.804   4.253   4.485  0.4870  0.1396  0.0898
  135OSM   H17F14744   1.743   4.195   4.557 -0.8968  0.4916 -0.7625
  135OSM   H17G14745   1.859   4.175   4.429 -2.1944 -1.0052 -1.0822
  135OSM   C18F14746   1.716   4.330   4.397  0.4710  0.4744  0.0382
  135OSM   H18F14747   1.784   4.398   4.341  2.5816 -1.6848 -0.1453
  135OSM   H18G14748   1.651   4.398   4.456  2.0382  1.9418  0.1579
  135OSM   H18H14749   1.662   4.259   4.331 -0.4835  0.8568  0.3850
  136OSM      N14750   4.407   4.983   7.030  0.0729  0.2635 -0.0076
  136OSM    C1514751   4.296   4.984   7.130 -0.0778  0.2098  1.0755
  136OSM   H15A14752   4.288   4.898   7.194 -2.7194 -1.1559 -0.9049
  136OSM   H15B14753   4.203   4.978   7.076 -1.1573 -0.7358  2.9248
  136OSM   H15C14754   4.301   5.082   7.177  3.0903  0.9862 -0.5694
  136OSM    C1414755   4.542   4.999   7.104  0.2200 -0.0032  0.1981
  136OSM   H14A14756   4.615   4.996   7.025  0.8889 -4.0480  0.7452
  136OSM   H14B14757   4.554   4.914   7.171 -1.7231 -0.5817 -0.1231
  136OSM   H14C14758   4.546   5.092   7.159 -1.3042  0.0644  0.2430
  136OSM    C1314759   4.401   4.850   6.963 -0.1602 -0.1643  0.3169
  136OSM   H13A14760   4.304   4.833   6.921  0.5069 -0.3510 -1.2014
  136OSM   H13B14761   4.415   4.765   7.029  0.3211 -1.4204 -1.3332
  136OSM   H13C14762   4.469   4.859   6.879 -0.9331  0.2813 -0.2686
  136OSM    C1214763   4.389   5.087   6.916 -0.0546  0.6295 -0.0126
  136OSM   H12A14764   4.410   5.177   6.971 -1.9526 -0.8304  3.4166
  136OSM   H12B14765   4.284   5.092   6.890 -0.4358  2.5646  1.6869
  136OSM    C1114766   4.485   5.086   6.799  0.3104 -0.4899  0.7271
  136OSM   H11A14767   4.419   5.138   6.726 -0.0101 -1.8737 -0.0140
  136OSM   H11B14768   4.500   4.985   6.756 -0.3127 -0.2477 -0.0885
  136OSM      P14769   4.633   5.301   6.778 -0.1451 -0.0904  0.1311
  136OSM    O1314770   4.529   5.385   6.845 -0.8629  0.3502  0.0457
  136OSM    O1414771   4.773   5.336   6.805  0.2906  0.0715 -0.0449
  136OSM    O1114772   4.596   5.286   6.620 -0.4890 -0.4448  0.0124
  136OSM    O1214773   4.609   5.146   6.827  0.0931 -0.8452  0.2690
  136OSM    C1S14774   4.665   5.195   6.535  0.3739  0.5272  0.7105
  136OSM    H1S14775   4.626   5.091   6.543  1.0736  0.1307 -0.6061
  136OSM    H1T14776   4.775   5.196   6.555  0.3241  0.6557  0.9834
  136OSM     NF14777   4.697   5.152   6.287 -0.2792 -0.2612  0.4023
  136OSM    HNF14778   4.790   5.163   6.252 -0.7539  0.0991 -0.7856
  136OSM    C2S14779   4.652   5.253   6.381  0.1014  0.5840  0.4522
  136OSM    H2S14780   4.543   5.267   6.365  0.1081 -0.0147 -0.1709
  136OSM    C3S14781   4.714   5.395   6.360 -0.1103  0.3797 -0.5655
  136OSM    H3S14782   4.821   5.388   6.386 -0.0021  2.3492 -0.3426
  136OSM     O314783   4.663   5.489   6.455 -0.0609 -0.2215  0.2929
  136OSM    HO314784   4.633   5.438   6.530 -0.2525  1.0747  1.1329
  136OSM    C4S14785   4.695   5.428   6.212 -0.1117 -0.6230 -0.4618
  136OSM    H4S14786   4.774   5.384   6.150  2.8099  0.1330  2.4650
  136OSM    C5S14787   4.599   5.512   6.157  0.1775  0.7052  0.3476
  136OSM    H5S14788   4.527   5.562   6.224  0.7903  1.0770  0.7304
  136OSM    C6S14789   4.584   5.543   6.013  0.3071  0.0801  0.0310
  136OSM    H6S14790   4.639   5.634   5.981 -0.5781  0.8927  0.7529
  136OSM    H6T14791   4.477   5.569   5.998  0.1197 -0.2062  0.7997
  136OSM    C7S14792   4.625   5.431   5.913 -0.6252 -0.4076  0.7802
  136OSM    H7S14793   4.562   5.343   5.938  0.6315 -1.2129  1.2081
  136OSM    H7T14794   4.733   5.409   5.927 -0.2420  0.6335 -0.3737
  136OSM    C8S14795   4.612   5.465   5.762 -0.1478 -0.2228 -0.0055
  136OSM    H8S14796   4.670   5.560   5.761  0.7629 -0.6481  3.0819
  136OSM    H8T14797   4.507   5.473   5.724  0.1356  1.5508 -0.5031
  136OSM    C9S14798   4.672   5.360   5.663 -0.0710 -0.8263 -0.1391
  136OSM    H9S14799   4.634   5.262   5.700 -0.9270 -0.9997 -1.3946
  136OSM    H9T14800   4.783   5.365   5.665  0.0245 -1.6497 -1.8135
  136OSM   C10S14801   4.654   5.390   5.519 -0.2982  0.2253  0.3381
  136OSM   H10S14802   4.699   5.489   5.497 -0.9168 -0.1716 -3.3433
  136OSM   H10T14803   4.548   5.395   5.485 -0.3821  1.7140  0.7395
  136OSM   C11S14804   4.712   5.272   5.427  1.1011  0.0848  0.3950
  136OSM   H11S14805   4.672   5.173   5.458  3.3787 -0.7473  0.8618
  136OSM   H11T14806   4.823   5.274   5.433  1.2545 -1.9639 -0.7705
  136OSM   C12S14807   4.677   5.288   5.276 -0.0638  0.8558  0.0968
  136OSM   H12S14808   4.719   5.385   5.242 -2.1446  1.1409 -1.8277
  136OSM   H12T14809   4.570   5.307   5.254  0.5644  2.5312 -1.7549
  136OSM   C13S14810   4.724   5.166   5.200  0.4116  0.4770 -0.3423
  136OSM   H13S14811   4.657   5.082   5.228  0.9701  0.5859  1.4876
  136OSM   H13T14812   4.828   5.141   5.230  0.2902 -1.5163 -1.3907
  136OSM   C14S14813   4.730   5.184   5.044 -0.2641  0.5681 -0.6012
  136OSM   H14S14814   4.788   5.276   5.022 -0.4869  0.7867 -0.2791
  136OSM   H14T14815   4.632   5.206   4.998 -0.4964  3.2145  0.9855
  136OSM   C15S14816   4.785   5.062   4.966  0.4344  0.1031 -0.6165
  136OSM   H15S14817   4.716   4.975   4.971  0.1721  0.2976 -0.8101
  136OSM   H15T14818   4.886   5.034   5.002  1.1761  3.0431 -0.1874
  136OSM   C16S14819   4.802   5.109   4.822 -0.7469 -0.2615 -0.1593
  136OSM   H16S14820   4.856   5.205   4.812 -1.5079  0.0499 -1.5717
  136OSM   H16T14821   4.699   5.120   4.781 -0.4891 -0.8777 -1.0075
  136OSM   C17S14822   4.867   5.004   4.734 -0.8489  0.5108  0.2551
  136OSM   H17S14823   4.841   5.042   4.633  1.3866  0.6511 -0.3270
  136OSM   H17T14824   4.816   4.905   4.731  0.2952 -0.1323 -2.9053
  136OSM   C18S14825   5.023   4.986   4.741 -0.0185  0.0074  0.2757
  136OSM   H18S14826   5.066   5.088   4.755  1.1444 -0.3616 -0.5460
  136OSM   H18T14827   5.069   4.943   4.650  0.6955  0.8053  0.2425
  136OSM   H18U14828   5.049   4.913   4.821  2.2336  0.0588 -0.3567
  136OSM    C1F14829   4.636   5.034   6.269  0.1167  0.5952 -0.1628
  136OSM     OF14830   4.517   5.010   6.299 -0.4074  0.3379  1.4704
  136OSM    C2F14831   4.738   4.930   6.228  0.3393  0.6241  0.8755
  136OSM    H2F14832   4.791   4.895   6.319 -0.1143  1.3378  1.4347
  136OSM    H2G14833   4.810   4.993   6.172 -0.1762  0.4686  0.0248
  136OSM    C3F14834   4.678   4.819   6.139  1.0999 -0.1448 -0.6034
  136OSM    H3F14835   4.606   4.748   6.185 -0.3679  1.2699 -0.6046
  136OSM    H3G14836   4.767   4.760   6.109 -0.3686 -3.1475  0.4598
  136OSM    C4F14837   4.607   4.888   6.023 -0.4514  0.4738 -0.0456
  136OSM    H4F14838   4.663   4.973   5.978  0.9258 -0.2988  0.1468
  136OSM    H4G14839   4.508   4.923   6.058 -2.0736 -0.9507 -2.8528
  136OSM    C5F14840   4.559   4.791   5.918  0.4275 -0.3494  0.7006
  136OSM    H5F14841   4.522   4.704   5.977  0.6577 -0.4941  0.6335
  136OSM    H5G14842   4.636   4.747   5.851 -0.5326  0.7861 -1.2439
  136OSM    C6F14843   4.461   4.870   5.817  0.0147  1.0164 -0.1288
  136OSM    H6F14844   4.507   4.967   5.789  1.3604  0.6398  0.6864
  136OSM    H6G14845   4.367   4.886   5.874 -1.1074 -1.0258 -1.2781
  136OSM    C7F14846   4.413   4.777   5.701 -0.1312  0.4850  0.5629
  136OSM    H7F14847   4.352   4.697   5.747 -0.0900 -0.2424 -0.6148
  136OSM    H7G14848   4.505   4.738   5.654  1.6328  1.6906  2.7725
  136OSM    C8F14849   4.325   4.846   5.598  0.6471 -0.2236  0.1651
  136OSM    H8F14850   4.251   4.906   5.655 -0.5088 -0.4007 -1.1067
  136OSM    H8G14851   4.276   4.768   5.536  0.2380  2.7933 -3.7289
  136OSM    C9F14852   4.426   4.928   5.517  0.1833  0.6875  0.5734
  136OSM    H9F14853   4.492   5.001   5.566  2.2330  1.2289 -2.6547
  136OSM   C10F14854   4.443   4.921   5.386 -0.1345  0.2226  0.7140
  136OSM   H10F14855   4.529   4.964   5.333 -1.2309  0.3150 -1.0821
  136OSM   C11F14856   4.358   4.837   5.301  0.6427 -0.6835 -0.0416
  136OSM   H11F14857   4.259   4.817   5.347  1.2781 -1.1817  1.1472
  136OSM   H11G14858   4.408   4.739   5.284 -0.1058 -1.0056 -0.4507
  136OSM   C12F14859   4.324   4.905   5.158 -0.4974 -0.1299  0.1869
  136OSM   H12F14860   4.418   4.925   5.103  0.2278  0.7567  1.6797
  136OSM   H12G14861   4.276   5.004   5.174 -0.1512  0.4599 -2.1238
  136OSM   C13F14862   4.227   4.821   5.078 -0.0225 -0.2932 -0.4819
  136OSM   H13F14863   4.133   4.814   5.137 -1.4131  0.0776 -2.5676
  136OSM   H13G14864   4.264   4.719   5.052 -0.9043 -0.4114 -1.3387
  136OSM   C14F14865   4.189   4.900   4.950  0.0754 -0.6190 -0.4848
  136OSM   H14F14866   4.185   5.009   4.970  0.1861 -0.5847 -0.6435
  136OSM   H14G14867   4.094   4.868   4.903  0.4781 -0.2474 -1.5907
  136OSM   C15F14868   4.289   4.864   4.838  0.3202  0.3183 -0.2660
  136OSM   H15F14869   4.308   4.754   4.834  0.3527  0.2427  1.2145
  136OSM   H15G14870   4.389   4.910   4.856 -0.1114  1.0572  0.2732
  136OSM   C16F14871   4.252   4.915   4.692 -0.5568  0.3169 -0.2764
  136OSM   H16F14872   4.342   4.897   4.629 -1.4059  2.1015 -2.1257
  136OSM   H16G14873   4.261   5.026   4.703  1.9496 -0.0343  2.8030
  136OSM   C17F14874   4.133   4.846   4.639  0.5070  0.0391 -0.3803
  136OSM   H17F14875   4.043   4.891   4.686  0.8313 -0.4259  0.7053
  136OSM   H17G14876   4.142   4.737   4.660 -0.8092 -0.7397 -3.2577
  136OSM   C18F14877   4.119   4.861   4.488  0.5501  0.2095 -0.3326
  136OSM   H18F14878   4.063   4.774   4.445 -0.0176  0.4515 -0.0965
  136OSM   H18G14879   4.215   4.859   4.432  0.1196 -1.6024 -1.1030
  136OSM   H18H14880   4.068   4.958   4.470  1.6878  1.3162  2.0849
  137OSM      N14881   0.872   4.245   6.428  0.4218 -0.9675  0.9868
  137OSM    C1514882   0.950   4.346   6.507  0.3442  0.1207  0.1035
  137OSM   H15A14883   1.019   4.295   6.573  0.3410  0.0652  0.0631
  137OSM   H15B14884   0.890   4.402   6.578  0.6063  0.5793 -0.0294
  137OSM   H15C14885   1.006   4.416   6.446  0.0975  0.6600  0.4800
  137OSM    C1414886   0.739   4.308   6.396 -0.0274  0.0805  0.8618
  137OSM   H14A14887   0.689   4.357   6.478 -1.5108  0.7853 -0.4217
  137OSM   H14B14888   0.672   4.243   6.342  1.4373  0.0888 -1.0959
  137OSM   H14C14889   0.761   4.391   6.330 -3.0992 -1.1180 -1.9468
  137OSM    C1314890   0.941   4.219   6.303  0.2698 -0.4637  0.6758
  137OSM   H13A14891   0.949   4.310   6.245  0.6486 -0.1165  1.2621
  137OSM   H13B14892   0.882   4.143   6.253 -0.4088 -0.4247  1.4080
  137OSM   H13C14893   1.038   4.173   6.315  0.0487 -1.9208 -2.1580
  137OSM    C1214894   0.843   4.112   6.497 -0.6094 -0.7658 -0.2092
  137OSM   H12A14895   0.789   4.122   6.590 -0.0086 -1.5562  0.2382
  137OSM   H12B14896   0.936   4.069   6.529  0.6075  1.2635 -0.8438
  137OSM    C1114897   0.767   4.010   6.414 -0.4858  0.1780  0.1443
  137OSM   H11A14898   0.783   3.911   6.461  0.4955  0.3059  0.1075
  137OSM   H11B14899   0.813   4.002   6.313 -1.0207  0.0244 -0.0901
  137OSM      P14900   0.540   3.955   6.299  0.4566 -0.2903  0.0442
  137OSM    O1314901   0.545   3.814   6.349 -0.4290  0.0437  1.1959
  137OSM    O1414902   0.407   4.016   6.276 -0.1567 -0.0599  0.0591
  137OSM    O1114903   0.626   3.958   6.164  0.6336  0.4150 -0.1549
  137OSM    O1214904   0.629   4.050   6.395 -0.3643  0.0226 -0.0002
  137OSM    C1S14905   0.584   3.880   6.058 -0.2051 -0.4181 -0.2748
  137OSM    H1S14906   0.475   3.861   6.061 -0.0663 -1.1383  0.5016
  137OSM    H1T14907   0.655   3.794   6.054  0.3038 -0.2141  2.3917
  137OSM     NF14908   0.553   3.897   5.805 -0.1337 -0.1949 -0.8684
  137OSM    HNF14909   0.614   3.829   5.764 -0.6009 -1.2173  0.0718
  137OSM    C2S14910   0.622   3.957   5.928  0.6073  0.1554  0.1814
  137OSM    H2S14911   0.588   4.063   5.934  0.2433 -0.0291  1.6591
  137OSM    C3S14912   0.776   3.959   5.922 -0.5062  0.4521  1.0121
  137OSM    H3S14913   0.799   3.853   5.899 -0.3890  0.3427  1.6387
  137OSM     O314914   0.843   3.987   6.033 -0.0271  0.0489  0.0909
  137OSM    HO314915   0.764   4.003   6.086  1.3187  0.4302  2.0736
  137OSM    C4S14916   0.835   4.038   5.799 -0.2981 -0.4963 -0.0168
  137OSM    H4S14917   0.815   3.975   5.711 -1.4933 -2.7059  1.7352
  137OSM    C5S14918   0.901   4.157   5.801  0.4985  0.0792 -1.0667
  137OSM    H5S14919   0.929   4.189   5.902 -0.5322 -1.1686 -0.3633
  137OSM    C6S14920   0.963   4.237   5.692  0.9062 -0.0954 -0.1350
  137OSM    H6S14921   1.070   4.211   5.693  0.5698 -1.6066 -0.7498
  137OSM    H6T14922   0.953   4.345   5.717 -0.4404 -0.5362  1.4412
  137OSM    C7S14923   0.907   4.206   5.558  0.9449 -0.0616  1.6579
  137OSM    H7S14924   0.809   4.256   5.545 -0.1219 -2.4602 -0.2530
  137OSM    H7T14925   0.891   4.099   5.535 -2.6880  0.6316  0.2598
  137OSM    C8S14926   0.998   4.264   5.447 -0.2367 -0.1913  0.3070
  137OSM    H8S14927   1.090   4.203   5.441  0.3718  0.8254 -1.4903
  137OSM    H8T14928   1.033   4.365   5.480  0.6964 -0.2748 -0.4135
  137OSM    C9S14929   0.926   4.265   5.314 -0.7931 -0.1804 -0.5743
  137OSM    H9S14930   0.839   4.334   5.318 -0.7353 -0.1215 -0.3004
  137OSM    H9T14931   0.894   4.159   5.303 -0.9676 -0.0237 -1.7434
  137OSM   C10S14932   1.021   4.286   5.198  0.0763  0.6387  0.3894
  137OSM   H10S14933   1.096   4.205   5.211  0.0438  0.6490  0.6455
  137OSM   H10T14934   1.074   4.383   5.209  4.8471 -1.6616  0.1137
  137OSM   C11S14935   0.970   4.270   5.051 -0.3704  0.4707  0.2918
  137OSM   H11S14936   1.068   4.263   5.000  0.7331  1.4088  2.1804
  137OSM   H11T14937   0.919   4.360   5.010 -0.0230  0.6468  0.2433
  137OSM   C12S14938   0.875   4.154   5.007  0.9842 -0.6245 -0.1625
  137OSM   H12S14939   0.771   4.183   5.032  0.6726 -1.7852 -0.1017
  137OSM   H12T14940   0.912   4.053   5.033  1.1246 -0.9938 -1.6699
  137OSM   C13S14941   0.867   4.140   4.850 -0.4045  0.3832  0.1112
  137OSM   H13S14942   0.972   4.148   4.814 -0.7039 -0.1351 -0.9271
  137OSM   H13T14943   0.830   4.239   4.817 -0.7811  0.5322  0.9590
  137OSM   C14S14944   0.789   4.028   4.781 -0.2752  0.6482 -0.2742
  137OSM   H14S14945   0.810   3.926   4.818 -1.7138  0.4572  0.0865
  137OSM   H14T14946   0.815   4.029   4.673 -0.5718  0.8597 -0.3474
  137OSM   C15S14947   0.636   4.061   4.793  0.5573 -0.1660 -0.0539
  137OSM   H15S14948   0.624   4.106   4.894  1.9149 -0.9487  0.4772
  137OSM   H15T14949   0.583   3.963   4.796  0.1716  0.0517  0.4134
  137OSM   C16S14950   0.577   4.153   4.686  0.2465 -0.1239  0.0302
  137OSM   H16S14951   0.626   4.253   4.689 -2.1895  1.1126  1.0491
  137OSM   H16T14952   0.471   4.174   4.710  0.0087 -2.0311  0.8386
  137OSM   C17S14953   0.591   4.099   4.540 -0.3631 -0.3297  0.6407
  137OSM   H17S14954   0.564   3.992   4.550  2.9878 -1.1639  2.1117
  137OSM   H17T14955   0.698   4.108   4.511 -0.6012 -0.7266 -0.4073
  137OSM   C18S14956   0.497   4.166   4.437  0.8574 -0.4212  0.2226
  137OSM   H18S14957   0.393   4.159   4.477 -0.1950 -1.1818 -2.3748
  137OSM   H18T14958   0.509   4.130   4.332  2.9110 -1.0449  0.6422
  137OSM   H18U14959   0.526   4.273   4.426  2.3478 -0.8980 -0.7282
  137OSM    C1F14960   0.431   3.933   5.779  0.2816  0.8117 -0.6081
  137OSM     OF14961   0.371   4.014   5.843 -0.4029 -0.3619  0.3922
  137OSM    C2F14962   0.371   3.865   5.665 -1.1690  0.0529  0.4758
  137OSM    H2F14963   0.419   3.767   5.643 -0.4947  0.7724 -1.5407
  137OSM    H2G14964   0.390   3.917   5.569 -1.6361  1.5368  1.1552
  137OSM    C3F14965   0.218   3.844   5.675  0.4423 -0.5705  0.2195
  137OSM    H3F14966   0.168   3.943   5.682  4.1330  1.6016 -1.1663
  137OSM    H3G14967   0.191   3.797   5.772 -2.6419  0.8293  0.1421
  137OSM    C4F14968   0.154   3.759   5.557  0.1281  0.3219 -0.2374
  137OSM    H4F14969   0.052   3.719   5.577 -0.6282  2.1667 -0.1981
  137OSM    H4G14970   0.226   3.675   5.543  1.2527  1.0978  0.7131
  137OSM    C5F14971   0.155   3.839   5.426  0.2890 -0.0637  0.4698
  137OSM    H5F14972   0.255   3.884   5.407  0.0107  0.4120  0.1089
  137OSM    H5G14973   0.074   3.915   5.440  0.1257 -0.1303 -0.0883
  137OSM    C6F14974   0.134   3.753   5.301  0.9133 -0.6274  0.3758
  137OSM    H6F14975   0.106   3.827   5.222  1.7680  0.3255  0.9296
  137OSM    H6G14976   0.048   3.684   5.316  0.8316 -0.5604  0.2182
  137OSM    C7F14977   0.250   3.665   5.251  0.0844  0.0045  0.3319
  137OSM    H7F14978   0.277   3.605   5.340  1.3771 -1.3783 -0.9453
  137OSM    H7G14979   0.335   3.730   5.220 -0.0265 -0.5039 -1.1114
  137OSM    C8F14980   0.209   3.570   5.135  0.0335  0.1658  0.5204
  137OSM    H8F14981   0.172   3.637   5.054  1.6106 -1.8509 -2.0463
  137OSM    H8G14982   0.119   3.521   5.176 -1.3207  1.2692 -0.9808
  137OSM    C9F14983   0.321   3.479   5.084  0.2044  0.4440  0.3500
  137OSM    H9F14984   0.374   3.526   5.000 -0.4023  0.1342 -0.2250
  137OSM   C10F14985   0.358   3.360   5.125 -0.0469 -0.7980  0.3026
  137OSM   H10F14986   0.438   3.303   5.076 -0.4835 -0.9878 -0.1971
  137OSM   C11F14987   0.298   3.291   5.245 -0.7191 -0.5239 -0.7852
  137OSM   H11F14988   0.281   3.184   5.223  0.8857 -0.6578 -1.5611
  137OSM   H11G14989   0.196   3.329   5.265 -0.3122  0.2512 -0.0939
  137OSM   C12F14990   0.382   3.305   5.373  0.0759 -0.3304 -0.4684
  137OSM   H12F14991   0.420   3.408   5.389 -1.9905  0.2575  1.2456
  137OSM   H12G14992   0.462   3.229   5.360  0.8584  0.6153 -1.3151
  137OSM   C13F14993   0.318   3.264   5.504 -0.1121 -0.2350 -0.0789
  137OSM   H13F14994   0.291   3.157   5.493 -1.1441  0.0220 -0.2295
  137OSM   H13G14995   0.228   3.329   5.508  0.1091 -0.0015  1.9350
  137OSM   C14F14996   0.405   3.303   5.623 -0.4808  0.0142 -0.4118
  137OSM   H14F14997   0.505   3.334   5.586 -0.1823 -0.2668  0.1468
  137OSM   H14G14998   0.414   3.217   5.693 -0.9710 -0.7708 -1.2863
  137OSM   C15F14999   0.345   3.419   5.707 -0.9220  0.5362  0.3534
  137OSM   H15F15000   0.249   3.394   5.758 -0.9780  1.4629  0.7136
  137OSM   H15G15001   0.320   3.509   5.647 -1.6372 -0.2322 -0.5298
  137OSM   C16F15002   0.432   3.466   5.821 -0.2242  0.4913  0.3755
  137OSM   H16F15003   0.535   3.492   5.788 -0.5771 -1.5210 -2.7825
  137OSM   H16G15004   0.451   3.373   5.879  3.0367  0.1307 -1.0202
  137OSM   C17F15005   0.379   3.578   5.913 -0.2880  0.2960 -0.6590
  137OSM   H17F15006   0.269   3.575   5.928 -0.2813  1.2947 -0.3493
  137OSM   H17G15007   0.402   3.675   5.864 -0.1276  1.3350  1.3650
  137OSM   C18F15008   0.446   3.572   6.055 -0.2730 -0.2880  0.7278
  137OSM   H18F15009   0.454   3.471   6.101  3.2484  0.4767  2.1587
  137OSM   H18G15010   0.402   3.642   6.129  0.2848  0.0890  0.7039
  137OSM   H18H15011   0.549   3.613   6.054 -0.6850  0.8267  1.4533
  138OSM      N15012   6.210   3.710   6.828 -0.2595 -0.0821 -0.1358
  138OSM    C1515013   6.322   3.665   6.741 -0.0914 -0.5137 -0.1226
  138OSM   H15A15014   6.316   3.727   6.653  1.5279  1.1315  0.8550
  138OSM   H15B15015   6.329   3.558   6.725  1.8368 -0.1950 -1.8023
  138OSM   H15C15016   6.411   3.683   6.799 -1.4932  2.0470  1.4175
  138OSM    C1415017   6.219   3.645   6.965  0.4117  0.0050  0.0625
  138OSM   H14A15018   6.193   3.541   6.959 -2.0944  0.4861  1.4424
  138OSM   H14B15019   6.145   3.688   7.030  1.4481 -0.3509  1.5465
  138OSM   H14C15020   6.315   3.654   7.014  0.4228 -1.7546  0.4049
  138OSM    C1315021   6.229   3.857   6.844 -0.0105  0.1893  0.4786
  138OSM   H13A15022   6.317   3.885   6.900 -0.5453  1.2641  0.8130
  138OSM   H13B15023   6.144   3.905   6.890  0.6390  1.3402  0.4984
  138OSM   H13C15024   6.241   3.901   6.746  0.2322 -0.3803  0.2505
  138OSM    C1215025   6.076   3.676   6.757  0.2841 -0.5963 -0.1019
  138OSM   H12A15026   6.074   3.572   6.727 -0.9687 -0.2915 -1.1355
  138OSM   H12B15027   6.084   3.724   6.661  0.3814 -2.3122 -0.9983
  138OSM    C1115028   5.943   3.705   6.833  0.2476 -0.2794  0.1009
  138OSM   H11A15029   5.944   3.639   6.922 -0.8577  0.1328  0.4308
  138OSM   H11B15030   5.856   3.684   6.767 -0.4804  1.7908  0.3094
  138OSM      P15031   5.804   3.909   6.877  0.1800 -0.1233  0.1396
  138OSM    O1315032   5.697   3.823   6.929  0.0781  0.9886 -0.1379
  138OSM    O1415033   5.810   4.041   6.942 -0.9376 -0.5033  0.5930
  138OSM    O1115034   5.787   3.925   6.718 -0.0788 -0.0538  0.4506
  138OSM    O1215035   5.937   3.838   6.892  0.2621  0.0948  0.1461
  138OSM    C1S15036   5.894   3.981   6.647 -0.4089 -0.2821  0.5876
  138OSM    H1S15037   5.996   3.949   6.680 -0.6438 -2.1351 -0.3403
  138OSM    H1T15038   5.882   4.090   6.637  2.7709  0.0718 -0.3956
  138OSM     NF15039   6.020   3.975   6.415  0.0008 -0.2090 -0.7497
  138OSM    HNF15040   5.989   4.036   6.342  0.3859  0.4725 -0.3631
  138OSM    C2S15041   5.900   3.936   6.495  0.0404  0.8053  0.5195
  138OSM    H2S15042   5.900   3.825   6.487 -3.2276  0.7777 -0.6023
  138OSM    C3S15043   5.767   3.980   6.427  0.9488 -0.1417  0.3331
  138OSM    H3S15044   5.765   4.091   6.430 -1.8173 -0.1117  1.1342
  138OSM     O315045   5.644   3.950   6.499 -0.6459 -0.4891 -0.1645
  138OSM    HO315046   5.669   3.929   6.589  0.9106 -0.3550 -0.5393
  138OSM    C4S15047   5.735   3.918   6.296 -0.4385  0.0252  0.0634
  138OSM    H4S15048   5.719   3.810   6.292 -2.5699  0.2936  0.1767
  138OSM    C5S15049   5.686   3.992   6.198 -0.0366 -0.7169  0.4375
  138OSM    H5S15050   5.679   4.099   6.221  1.5245 -0.5829  0.3895
  138OSM    C6S15051   5.629   3.943   6.068 -0.3915  0.2290  1.1043
  138OSM    H6S15052   5.519   3.958   6.072 -0.0698  3.6664  0.5143
  138OSM    H6T15053   5.652   3.836   6.049  2.0678  0.9663 -0.5890
  138OSM    C7S15054   5.679   4.022   5.940  0.1514  0.3450 -0.9868
  138OSM    H7S15055   5.788   4.013   5.918  0.2593 -2.5832  0.2617
  138OSM    H7T15056   5.653   4.130   5.952 -1.0181 -0.1221  1.1321
  138OSM    C8S15057   5.597   3.969   5.819 -0.4630 -0.0709  0.1493
  138OSM    H8S15058   5.493   3.954   5.856  0.1113 -1.8890  1.1648
  138OSM    H8T15059   5.632   3.865   5.799  1.1423 -0.1501  2.8287
  138OSM    C9S15060   5.618   4.052   5.693  0.1843  0.5994 -0.0811
  138OSM    H9S15061   5.728   4.060   5.681  0.3826 -3.0873 -2.2531
  138OSM    H9T15062   5.571   4.149   5.720  0.7160  0.2882  2.1567
  138OSM   C10S15063   5.555   3.995   5.565 -0.4870 -0.2121 -0.1018
  138OSM   H10S15064   5.444   4.000   5.565 -0.5070 -0.5494 -0.6322
  138OSM   H10T15065   5.587   3.889   5.572 -0.1974 -0.0119  3.7896
  138OSM   C11S15066   5.623   4.051   5.436 -0.0716 -0.0696 -0.6021
  138OSM   H11S15067   5.733   4.037   5.441  0.0774  0.9618 -0.6965
  138OSM   H11T15068   5.597   4.159   5.431 -3.0903 -0.6701  0.1527
  138OSM   C12S15069   5.573   3.985   5.306  0.2365  0.4282  0.0345
  138OSM   H12S15070   5.462   3.985   5.296  0.1144 -0.8703  1.1245
  138OSM   H12T15071   5.607   3.880   5.307 -0.6981  0.0455 -2.1087
  138OSM   C13S15072   5.633   4.053   5.178 -0.5341 -0.7719 -0.0352
  138OSM   H13S15073   5.742   4.073   5.176 -0.7495  0.4579 -0.7277
  138OSM   H13T15074   5.592   4.157   5.175  1.0129 -0.1452 -0.4028
  138OSM   C14S15075   5.592   3.973   5.054  0.0950 -0.5129 -0.3529
  138OSM   H14S15076   5.632   4.022   4.962 -4.3021 -1.3140 -3.0240
  138OSM   H14T15077   5.481   3.976   5.051  0.0379  0.2713  1.3895
  138OSM   C15S15078   5.630   3.828   5.042  0.1581 -0.6789  0.6022
  138OSM   H15S15079   5.558   3.767   5.102 -2.3642  2.0770  0.6065
  138OSM   H15T15080   5.739   3.819   5.061  0.6746  2.6218 -0.3588
  138OSM   C16S15081   5.606   3.793   4.894  0.2187 -0.5416  0.3923
  138OSM   H16S15082   5.683   3.843   4.831 -0.9431  0.0712 -0.5760
  138OSM   H16T15083   5.512   3.837   4.857  0.6677  0.6592  0.6463
  138OSM   C17S15084   5.612   3.640   4.863 -0.2109  0.4899 -0.2485
  138OSM   H17S15085   5.559   3.637   4.766 -0.6483 -2.8020  0.0015
  138OSM   H17T15086   5.574   3.576   4.945  2.7580 -0.0891  0.8251
  138OSM   C18S15087   5.765   3.604   4.847 -0.6582 -0.6728  0.7573
  138OSM   H18S15088   5.816   3.680   4.783 -0.3382 -0.3000  1.4485
  138OSM   H18T15089   5.776   3.506   4.796 -1.3174  0.1541 -1.0819
  138OSM   H18U15090   5.817   3.606   4.945 -1.2554 -0.0267  1.0660
  138OSM    C1F15091   6.150   3.963   6.450 -0.6332 -0.0687  0.5452
  138OSM     OF15092   6.180   3.874   6.535  0.5970  0.0381 -0.2814
  138OSM    C2F15093   6.251   4.051   6.391 -0.0288  0.4767  0.8730
  138OSM    H2F15094   6.340   4.056   6.456 -0.2998 -0.3078  1.3034
  138OSM    H2G15095   6.209   4.151   6.364 -0.5633  0.1011  0.2784
  138OSM    C3F15096   6.311   3.981   6.258  0.2561  0.3053  0.4816
  138OSM    H3F15097   6.359   3.886   6.291  0.4319  0.3967  0.4868
  138OSM    H3G15098   6.391   4.051   6.226 -0.3406  0.9351  0.3493
  138OSM    C4F15099   6.213   3.954   6.147 -0.5070 -0.7464  0.4373
  138OSM    H4F15100   6.193   4.055   6.106  0.0694 -0.9114 -0.2666
  138OSM    H4G15101   6.115   3.917   6.183 -0.3970  0.3769  1.9815
  138OSM    C5F15102   6.258   3.872   6.024 -0.5244 -0.3099 -0.4750
  138OSM    H5F15103   6.255   3.768   6.061 -0.4978  0.9141  3.4624
  138OSM    H5G15104   6.363   3.891   5.993 -0.8599  0.5021 -1.1462
  138OSM    C6F15105   6.162   3.900   5.911 -0.5093  0.6164 -0.1344
  138OSM    H6F15106   6.159   4.009   5.886 -2.2040  0.6657  0.2164
  138OSM    H6G15107   6.060   3.864   5.934 -1.0664  1.6692 -0.8531
  138OSM    C7F15108   6.203   3.825   5.780  0.0158 -0.0098 -0.6637
  138OSM    H7F15109   6.173   3.718   5.773 -0.2531 -0.0515  0.8731
  138OSM    H7G15110   6.314   3.821   5.776  0.3170  1.7005  2.5328
  138OSM    C8F15111   6.159   3.882   5.642 -0.5645  0.1988  0.1670
  138OSM    H8F15112   6.215   3.826   5.564 -2.4043 -0.8948 -0.4233
  138OSM    H8G15113   6.193   3.988   5.633 -1.9487  0.7421  1.0896
  138OSM    C9F15114   6.011   3.881   5.640 -0.6790 -0.4542  0.2904
  138OSM    H9F15115   5.962   3.917   5.732 -1.4650 -0.4062 -0.1368
  138OSM   C10F15116   5.932   3.834   5.543 -0.6316  1.0181 -0.0705
  138OSM   H10F15117   5.823   3.851   5.549 -0.9415 -0.5614 -0.7310
  138OSM   C11F15118   5.980   3.763   5.418 -0.1422 -0.3280 -0.4042
  138OSM   H11F15119   5.903   3.694   5.377 -0.4310 -0.1372 -0.1797
  138OSM   H11G15120   6.070   3.699   5.435  1.8297  2.2915 -0.3956
  138OSM   C12F15121   6.010   3.848   5.301 -0.5158  0.4566  0.5607
  138OSM   H12F15122   6.079   3.930   5.331  0.3441 -0.5452  1.4236
  138OSM   H12G15123   5.922   3.889   5.248  0.0270 -0.4258 -1.1089
  138OSM   C13F15124   6.083   3.780   5.190 -0.1550 -0.7431 -0.2075
  138OSM   H13F15125   6.016   3.699   5.153 -1.2842  0.2183 -0.3178
  138OSM   H13G15126   6.166   3.720   5.234 -1.7145 -2.8824 -0.0125
  138OSM   C14F15127   6.126   3.873   5.079  0.0792  0.0963  0.4038
  138OSM   H14F15128   6.208   3.935   5.120 -0.0311 -0.2838  1.2212
  138OSM   H14G15129   6.042   3.938   5.048  0.6173 -1.2878 -4.8827
  138OSM   C15F15130   6.167   3.787   4.952  0.4101 -0.7298 -0.2751
  138OSM   H15F15131   6.079   3.724   4.929  0.1689 -0.4224 -0.1966
  138OSM   H15G15132   6.249   3.715   4.973 -1.3488 -3.1959 -1.4509
  138OSM   C16F15133   6.182   3.877   4.829  0.9680 -0.2892 -0.4897
  138OSM   H16F15134   6.262   3.951   4.848  0.0602  0.7971 -0.7793
  138OSM   H16G15135   6.088   3.936   4.830 -0.8028 -2.9229 -0.8246
  138OSM   C17F15136   6.197   3.811   4.692  0.0232  0.5360  0.2943
  138OSM   H17F15137   6.107   3.747   4.682 -0.6397  1.6613 -1.1086
  138OSM   H17G15138   6.285   3.743   4.689 -0.5559 -0.2423  0.6053
  138OSM   C18F15139   6.209   3.905   4.571 -0.1505 -0.6211  0.0100
  138OSM   H18F15140   6.118   3.968   4.569  0.7837  0.7744 -0.9114
  138OSM   H18G15141   6.221   3.840   4.481 -0.1472 -0.6709  0.0465
  138OSM   H18H15142   6.292   3.978   4.583 -0.7186 -0.1486  1.2512
  139OSM      N15143   6.238   5.573   7.055 -0.4642  0.2437 -0.1048
  139OSM    C1515144   6.138   5.484   7.119 -0.0719  0.0673  0.0732
  139OSM   H15A15145   6.105   5.403   7.055 -1.1973  1.3194 -0.9862
  139OSM   H15B15146   6.043   5.532   7.139  0.1711  0.7562 -0.3997
  139OSM   H15C15147   6.172   5.446   7.214 -2.4744 -2.2996  0.1066
  139OSM    C1415148   6.258   5.691   7.146 -0.2691 -0.3689 -0.3335
  139OSM   H14A15149   6.320   5.769   7.103 -3.3347  2.7113  0.3338
  139OSM   H14B15150   6.287   5.664   7.246 -2.8019  0.4058  0.7041
  139OSM   H14C15151   6.162   5.741   7.143 -0.6253 -1.0264 -0.1141
  139OSM    C1315152   6.364   5.500   7.035 -0.5341 -0.3915 -0.2254
  139OSM   H13A15153   6.436   5.558   6.980 -2.5578  1.0821 -1.4905
  139OSM   H13B15154   6.349   5.412   6.975 -0.8884  0.5591 -1.5865
  139OSM   H13C15155   6.406   5.467   7.129 -3.1745 -3.1444  0.1365
  139OSM    C1215156   6.175   5.621   6.923 -0.0999 -0.1467 -0.2354
  139OSM   H12A15157   6.249   5.688   6.880  0.7918 -0.1754  1.1921
  139OSM   H12B15158   6.088   5.683   6.938  0.4759  0.6481 -0.0578
  139OSM    C1115159   6.137   5.511   6.822 -0.1889 -0.5232 -0.4899
  139OSM   H11A15160   6.226   5.449   6.800 -0.9454 -1.5614 -0.6800
  139OSM   H11B15161   6.109   5.570   6.732 -0.6788 -0.2400 -0.1554
  139OSM      P15162   6.024   5.279   6.847  0.0759  0.2171 -0.2471
  139OSM    O1315163   6.161   5.234   6.877 -0.4270 -0.3259 -0.1663
  139OSM    O1415164   5.922   5.233   6.949 -0.0029 -0.2180 -0.1378
  139OSM    O1115165   5.967   5.248   6.695  0.2139 -0.2967  0.0978
  139OSM    O1215166   6.021   5.442   6.848  0.2039  0.2221 -0.4767
  139OSM    C1S15167   6.040   5.293   6.578  1.3693  0.0765  0.1610
  139OSM    H1S15168   6.148   5.269   6.585  1.2013 -0.5825  0.5971
  139OSM    H1T15169   6.026   5.403   6.563  4.4813  0.3224 -1.8101
  139OSM     NF15170   6.059   5.283   6.330  0.1063  0.4085 -0.7074
  139OSM    HNF15171   6.012   5.345   6.268  1.3726  1.9994 -0.1536
  139OSM    C2S15172   5.983   5.228   6.449  0.1085 -0.3607  0.5116
  139OSM    H2S15173   6.004   5.119   6.456 -0.9723 -0.9670 -3.3086
  139OSM    C3S15174   5.832   5.248   6.435 -0.4569  0.9608  0.3178
  139OSM    H3S15175   5.816   5.358   6.434 -1.2358  0.8517  0.6356
  139OSM     O315176   5.753   5.202   6.552 -0.1472  0.5163 -0.0380
  139OSM    HO315177   5.823   5.187   6.616 -0.9921  0.5136  0.9222
  139OSM    C4S15178   5.769   5.175   6.308 -0.1222 -0.5413  0.0813
  139OSM    H4S15179   5.775   5.066   6.324  0.2945 -0.2877  1.8498
  139OSM    C5S15180   5.701   5.231   6.203  0.4373  0.4840 -0.5371
  139OSM    H5S15181   5.688   5.340   6.195  0.2807  0.5571  0.5930
  139OSM    C6S15182   5.635   5.154   6.092  0.6544 -0.5629  0.2867
  139OSM    H6S15183   5.565   5.218   6.035 -1.1652 -2.3124  0.4432
  139OSM    H6T15184   5.559   5.083   6.132 -0.4440  0.5949  0.3280
  139OSM    C7S15185   5.737   5.074   6.009 -0.3167 -0.1388 -0.1319
  139OSM    H7S15186   5.810   5.035   6.083  1.1612  0.3991 -1.2526
  139OSM    H7T15187   5.787   5.137   5.933  0.7264  0.0097  0.6618
  139OSM    C8S15188   5.674   4.956   5.917 -0.1409  0.0603  0.8898
  139OSM    H8S15189   5.611   4.901   5.991 -2.0108 -1.5809 -1.7576
  139OSM    H8T15190   5.747   4.878   5.888 -0.9763  0.1078 -1.5510
  139OSM    C9S15191   5.585   4.994   5.795 -0.1179  0.4092  0.0607
  139OSM    H9S15192   5.514   5.077   5.814 -1.3679 -1.1371  2.7005
  139OSM    H9T15193   5.531   4.904   5.758  0.4018  0.0587  0.1369
  139OSM   C10S15194   5.667   5.029   5.673 -0.0693 -0.2556  0.5326
  139OSM   H10S15195   5.740   4.949   5.648  0.5219  0.3569  0.2519
  139OSM   H10T15196   5.735   5.116   5.678  1.5016 -1.3861 -0.3604
  139OSM   C11S15197   5.581   5.057   5.551  0.0292  0.4714  0.0652
  139OSM   H11S15198   5.611   5.152   5.502 -1.1181  0.7156 -0.2001
  139OSM   H11T15199   5.481   5.075   5.596 -0.6525 -1.3976 -0.6016
  139OSM   C12S15200   5.590   4.940   5.451  0.1165 -0.6272 -0.4175
  139OSM   H12S15201   5.530   4.849   5.476 -2.4624  0.9939 -0.2785
  139OSM   H12T15202   5.692   4.899   5.439  0.6806 -0.5891  3.1549
  139OSM   C13S15203   5.536   4.989   5.305 -0.3806 -0.3558 -0.3348
  139OSM   H13S15204   5.601   5.073   5.272  1.6856 -1.2641  1.2112
  139OSM   H13T15205   5.430   5.021   5.314 -0.1951  0.0674  0.4115
  139OSM   C14S15206   5.532   4.879   5.204 -0.0805  0.5783  0.0828
  139OSM   H14S15207   5.472   4.801   5.255 -0.0691  1.0137  0.7785
  139OSM   H14T15208   5.632   4.835   5.186 -0.0795  0.0988  1.1944
  139OSM   C15S15209   5.471   4.923   5.070 -0.2188 -0.3542 -0.1856
  139OSM   H15S15210   5.525   5.016   5.040  0.0686 -0.4998 -0.1240
  139OSM   H15T15211   5.367   4.958   5.088 -0.3681 -1.1867  0.6547
  139OSM   C16S15212   5.492   4.822   4.953 -0.1173  0.1940 -0.0553
  139OSM   H16S15213   5.442   4.729   4.990 -0.4451  0.2135 -0.4461
  139OSM   H16T15214   5.602   4.815   4.947  0.0081 -0.2699  1.9309
  139OSM   C17S15215   5.432   4.864   4.820 -0.3945  0.4583  0.2882
  139OSM   H17S15216   5.493   4.951   4.785 -1.0248 -0.1972 -2.7193
  139OSM   H17T15217   5.328   4.896   4.840 -0.3514 -0.0045  1.3323
  139OSM   C18S15218   5.435   4.750   4.714 -0.3102  0.4534 -0.4236
  139OSM   H18S15219   5.531   4.723   4.666 -2.0666 -2.7215 -2.5111
  139OSM   H18T15220   5.369   4.778   4.628  0.3354 -0.0561 -1.1015
  139OSM   H18U15221   5.397   4.660   4.767  0.0973  1.3006  1.3747
  139OSM    C1F15222   6.184   5.252   6.287  0.4945  0.0973  0.3827
  139OSM     OF15223   6.252   5.151   6.320  0.5260  0.2944 -0.4834
  139OSM    C2F15224   6.240   5.341   6.178 -0.2074 -0.3941 -0.3939
  139OSM    H2F15225   6.328   5.394   6.220 -1.3779  0.1457  1.5035
  139OSM    H2G15226   6.169   5.418   6.140 -0.5772 -0.7957 -0.5270
  139OSM    C3F15227   6.291   5.251   6.063  0.0069 -0.2632 -0.9064
  139OSM    H3F15228   6.207   5.187   6.029  0.8468 -1.6089 -0.5113
  139OSM    H3G15229   6.361   5.173   6.100  3.6927  2.3920 -1.6669
  139OSM    C4F15230   6.354   5.314   5.951 -0.2764 -1.2786  0.7485
  139OSM    H4F15231   6.284   5.387   5.906 -0.4547 -1.5022  0.6640
  139OSM    H4G15232   6.370   5.233   5.877 -0.4748  0.8016 -1.6720
  139OSM    C5F15233   6.487   5.389   5.978 -0.7363  0.0882 -0.3298
  139OSM    H5F15234   6.557   5.323   6.034  0.1091 -1.4426 -2.9863
  139OSM    H5G15235   6.483   5.486   6.031 -2.3132 -0.3631  0.4141
  139OSM    C6F15236   6.560   5.433   5.849  0.4694 -0.3713  0.5241
  139OSM    H6F15237   6.478   5.478   5.789  1.3233  0.9095  0.2843
  139OSM    H6G15238   6.606   5.349   5.792  2.4049  0.2779  1.0702
  139OSM    C7F15239   6.685   5.523   5.865  0.9518 -0.5861 -0.5641
  139OSM    H7F15240   6.755   5.466   5.929  0.0942 -0.1702  0.7844
  139OSM    H7G15241   6.646   5.609   5.923 -0.0742 -0.6837 -1.0802
  139OSM    C8F15242   6.749   5.584   5.739  0.5664 -0.0105 -0.0818
  139OSM    H8F15243   6.823   5.658   5.777 -1.5301  1.2608  1.7800
  139OSM    H8G15244   6.673   5.645   5.686 -0.9367 -1.2820  0.5235
  139OSM    C9F15245   6.828   5.491   5.654 -0.1180 -0.8148  0.5763
  139OSM    H9F15246   6.930   5.472   5.693  0.7627  1.5886 -0.3703
  139OSM   C10F15247   6.803   5.468   5.524 -0.4794 -0.1642  0.0957
  139OSM   H10F15248   6.861   5.391   5.471 -1.8913 -1.6109  0.5753
  139OSM   C11F15249   6.685   5.528   5.447  0.1215 -0.3312 -0.2057
  139OSM   H11F15250   6.726   5.619   5.398  1.6274 -0.3135  0.9996
  139OSM   H11G15251   6.602   5.559   5.514  1.1349 -0.4124  1.1325
  139OSM   C12F15252   6.630   5.421   5.352 -0.5231  0.2543 -0.0095
  139OSM   H12F15253   6.525   5.442   5.322 -0.2170 -0.3260 -1.6269
  139OSM   H12G15254   6.628   5.321   5.400  0.1970 -1.0203 -2.4455
  139OSM   C13F15255   6.699   5.424   5.214 -0.7960  0.1153  0.1843
  139OSM   H13F15256   6.806   5.397   5.211 -1.1865 -1.5668  0.2712
  139OSM   H13G15257   6.703   5.531   5.184 -0.2662  0.7095  2.2150
  139OSM   C14F15258   6.628   5.345   5.106  0.6048 -0.5547  0.0473
  139OSM   H14F15259   6.540   5.407   5.080  0.5159  0.2487  2.0761
  139OSM   H14G15260   6.581   5.250   5.141 -0.2199 -0.6319 -1.2124
  139OSM   C15F15261   6.720   5.308   4.988 -0.0072  0.3754  0.9810
  139OSM   H15F15262   6.802   5.239   5.017  1.4693  2.5518  2.2930
  139OSM   H15G15263   6.771   5.403   4.959 -0.1911  0.9696  2.5269
  139OSM   C16F15264   6.634   5.266   4.872 -0.2507  0.0646 -0.3043
  139OSM   H16F15265   6.540   5.324   4.855 -0.8712 -0.5915  0.7814
  139OSM   H16G15266   6.589   5.166   4.893 -0.6770 -0.7611 -4.3266
  139OSM   C17F15267   6.700   5.257   4.731  0.2434 -0.3056 -0.6757
  139OSM   H17F15268   6.792   5.195   4.744  1.6008  1.3449 -1.8887
  139OSM   H17G15269   6.734   5.359   4.703 -0.0412  0.5976  1.9571
  139OSM   C18F15270   6.616   5.206   4.621 -0.0960  1.0188 -0.7322
  139OSM   H18F15271   6.510   5.234   4.641  0.0871  0.9881  0.3400
  139OSM   H18G15272   6.616   5.095   4.633  0.4108  1.1939  1.1675
  139OSM   H18H15273   6.641   5.221   4.514 -0.3700 -0.7542 -1.0801
  140OSM      N15274   6.441   4.620   6.625 -1.1203  0.1947 -0.4647
  140OSM    C1515275   6.429   4.765   6.585 -0.1541  0.0794 -0.3486
  140OSM   H15A15276   6.468   4.781   6.486  2.6630 -1.1527  0.4708
  140OSM   H15B15277   6.482   4.827   6.656 -2.8321  1.5122  0.5666
  140OSM   H15C15278   6.325   4.793   6.594 -0.8470 -2.7926  2.8958
  140OSM    C1415279   6.582   4.574   6.620 -0.0952  0.2823  0.0841
  140OSM   H14A15280   6.647   4.627   6.688 -0.9505  2.2587 -0.5426
  140OSM   H14B15281   6.630   4.589   6.525  0.6019 -2.2182 -0.0219
  140OSM   H14C15282   6.585   4.467   6.634 -1.8772 -0.1095 -1.9909
  140OSM    C1315283   6.381   4.591   6.758  0.9223 -0.1217 -0.8779
  140OSM   H13A15284   6.445   4.631   6.835  1.5611  3.4599 -3.0558
  140OSM   H13B15285   6.363   4.486   6.773  1.2634 -0.1615 -0.7443
  140OSM   H13C15286   6.287   4.644   6.769  0.8068 -0.3825 -0.5686
  140OSM    C1215287   6.375   4.539   6.509  0.2282  0.0941 -0.3732
  140OSM   H12A15288   6.424   4.555   6.415  0.2637 -1.9229 -0.7569
  140OSM   H12B15289   6.281   4.590   6.496  0.7847  1.3840  0.4125
  140OSM    C1115290   6.347   4.386   6.524 -0.0496 -0.3438  0.5759
  140OSM   H11A15291   6.448   4.340   6.535  0.6120  1.0356  0.5126
  140OSM   H11B15292   6.305   4.354   6.426  1.1738  1.4470 -0.6155
  140OSM      P15293   6.100   4.379   6.635 -0.7090  0.4572 -0.0633
  140OSM    O1315294   6.031   4.267   6.701 -0.6030  0.5060 -0.4067
  140OSM    O1415295   6.081   4.515   6.688 -0.0912  0.2909 -0.0103
  140OSM    O1115296   6.037   4.373   6.485 -0.1642  0.3103 -0.1384
  140OSM    O1215297   6.258   4.354   6.630 -0.4038 -0.2590  0.1923
  140OSM    C1S15298   6.003   4.492   6.414 -0.3832  0.2261  0.4957
  140OSM    H1S15299   6.064   4.582   6.439 -0.3031  0.0782  0.8418
  140OSM    H1T15300   5.897   4.523   6.427 -0.3416  0.4632  0.2865
  140OSM     NF15301   6.019   4.605   6.185  0.3155  0.1696  0.1102
  140OSM    HNF15302   5.926   4.626   6.154  0.4793  0.5996 -0.0889
  140OSM    C2S15303   6.025   4.476   6.257 -0.1472  0.0680 -0.4904
  140OSM    H2S15304   6.127   4.444   6.228 -0.1231 -0.3907  0.0775
  140OSM    C3S15305   5.940   4.361   6.202  0.3505  0.9404  0.0135
  140OSM    H3S15306   5.836   4.374   6.238  0.0154  1.9854 -1.2584
  140OSM     O315307   5.981   4.232   6.256 -0.1322  0.1885 -0.4849
  140OSM    HO315308   6.017   4.258   6.342  3.8221 -1.5040 -1.3857
  140OSM    C4S15309   5.935   4.352   6.050 -0.9418  0.5450  0.4982
  140OSM    H4S15310   5.873   4.428   6.001  0.8761  0.9115 -1.3787
  140OSM    C5S15311   6.005   4.266   5.975  0.1860  0.5571  0.4865
  140OSM    H5S15312   6.067   4.185   6.015  2.0529  1.0073 -1.2994
  140OSM    C6S15313   6.010   4.272   5.823 -0.1599  0.0180  0.5079
  140OSM    H6S15314   5.994   4.169   5.784  0.1187 -0.4516  1.6029
  140OSM    H6T15315   6.114   4.301   5.796 -0.6559  0.7456 -0.6785
  140OSM    C7S15316   5.926   4.378   5.753 -0.4761 -0.1723 -0.4657
  140OSM    H7S15317   5.922   4.472   5.813 -0.0479 -0.1246 -0.5134
  140OSM    H7T15318   5.820   4.344   5.742  0.1486 -1.7220 -2.1332
  140OSM    C8S15319   5.983   4.416   5.615  0.4556  0.4352  0.0408
  140OSM    H8S15320   6.085   4.461   5.618 -0.0819  1.7170 -0.5007
  140OSM    H8T15321   5.922   4.498   5.572  1.1985  1.0155  0.0692
  140OSM    C9S15322   5.984   4.296   5.517  0.5010  0.1386  0.6637
  140OSM    H9S15323   5.875   4.279   5.510  0.3718  0.7887  0.9632
  140OSM    H9T15324   6.035   4.201   5.543 -0.8734 -1.2966 -1.6477
  140OSM   C10S15325   6.035   4.329   5.384 -0.5623 -0.1164  0.1414
  140OSM   H10S15326   6.144   4.351   5.378 -0.5145  0.0356  1.2349
  140OSM   H10T15327   5.989   4.422   5.344 -1.4018 -1.0537 -1.1599
  140OSM   C11S15328   5.991   4.224   5.283 -0.1803  0.1487  0.1101
  140OSM   H11S15329   5.883   4.244   5.261 -0.9413 -0.3648  2.9902
  140OSM   H11T15330   5.990   4.123   5.331 -1.3426  0.0077 -0.1604
  140OSM   C12S15331   6.068   4.222   5.146  0.0744  0.0750 -0.6307
  140OSM   H12S15332   6.012   4.157   5.076 -1.5650  0.5653  0.1639
  140OSM   H12T15333   6.164   4.169   5.158 -0.3478 -0.2970  1.4614
  140OSM   C13S15334   6.087   4.358   5.086 -0.1072 -0.0078 -0.1091
  140OSM   H13S15335   6.141   4.435   5.146 -0.6487  1.3334 -1.2978
  140OSM   H13T15336   5.983   4.396   5.082 -0.3681 -0.6110  0.6486
  140OSM   C14S15337   6.128   4.360   4.930 -0.1873  0.0969 -0.9150
  140OSM   H14S15338   6.144   4.462   4.889 -1.8041  0.8822  0.2637
  140OSM   H14T15339   6.046   4.305   4.881  0.7472 -0.0918 -2.3284
  140OSM   C15S15340   6.263   4.282   4.894  0.5978  0.2555 -0.2366
  140OSM   H15S15341   6.260   4.187   4.951  0.9884 -0.1641 -0.9012
  140OSM   H15T15342   6.352   4.346   4.910 -0.1274  1.1739  0.2188
  140OSM   C16S15343   6.258   4.249   4.751 -0.1481  0.1876 -0.1487
  140OSM   H16S15344   6.163   4.196   4.725 -0.6321  0.4977  0.9495
  140OSM   H16T15345   6.343   4.180   4.738  0.4861  0.7833  0.7551
  140OSM   C17S15346   6.283   4.368   4.653  0.4350 -0.4187 -0.3761
  140OSM   H17S15347   6.379   4.418   4.674  0.0312  0.3871 -0.4051
  140OSM   H17T15348   6.216   4.455   4.672  1.3729  0.1256  0.5124
  140OSM   C18S15349   6.270   4.315   4.507  0.1688  0.4185 -0.8700
  140OSM   H18S15350   6.349   4.238   4.492 -2.0320 -1.4762 -4.0367
  140OSM   H18T15351   6.271   4.390   4.426 -0.3974  1.5930  0.1757
  140OSM   H18U15352   6.174   4.260   4.492 -0.4036  1.4259 -0.9787
  140OSM    C1F15353   6.103   4.703   6.193 -0.2067 -0.2878  0.0960
  140OSM     OF15354   6.216   4.687   6.249 -0.1701  0.2979  0.5434
  140OSM    C2F15355   6.069   4.840   6.124 -0.1941  0.0863  0.6527
  140OSM    H2F15356   6.109   4.916   6.194  2.7450  0.6093 -1.3734
  140OSM    H2G15357   5.958   4.851   6.120 -0.1273  0.8067  0.5606
  140OSM    C3F15358   6.135   4.878   5.988  0.7139  1.1006  0.2207
  140OSM    H3F15359   6.246   4.874   5.998  0.6535 -1.3821  0.5165
  140OSM    H3G15360   6.113   4.982   5.955  0.8292  0.2693 -2.7635
  140OSM    C4F15361   6.078   4.777   5.877  0.2041 -0.3420  0.4739
  140OSM    H4F15362   5.978   4.735   5.898 -0.8520  1.8350  0.0214
  140OSM    H4G15363   6.145   4.688   5.885 -2.0440 -2.3569 -1.6236
  140OSM    C5F15364   6.078   4.854   5.745  0.6488 -0.2358 -0.0150
  140OSM    H5F15365   6.182   4.890   5.725  0.3835  0.4200 -0.2337
  140OSM    H5G15366   6.009   4.940   5.760  1.5676  0.5160 -0.0055
  140OSM    C6F15367   6.010   4.775   5.634 -0.0923 -0.0777 -1.1190
  140OSM    H6F15368   5.905   4.744   5.655 -0.0205 -1.7782 -2.9291
  140OSM    H6G15369   6.060   4.679   5.608  0.6711 -0.0596  0.1896
  140OSM    C7F15370   5.997   4.860   5.507 -0.7080 -0.0359  0.5972
  140OSM    H7F15371   6.098   4.885   5.467 -0.7197  3.2997  2.3123
  140OSM    H7G15372   5.945   4.955   5.532 -1.5725 -0.3821  0.1554
  140OSM    C8F15373   5.933   4.788   5.387  0.2346  0.2002 -0.2667
  140OSM    H8F15374   5.832   4.745   5.400 -0.8068  2.2426 -1.0906
  140OSM    H8G15375   6.004   4.704   5.370 -0.3716 -0.6518  1.2376
  140OSM    C9F15376   5.928   4.884   5.269  0.4084  0.1012 -0.2587
  140OSM    H9F15377   5.848   4.959   5.280 -2.6590 -2.7275 -1.5691
  140OSM   C10F15378   6.007   4.892   5.163  0.4487  0.4020  0.2487
  140OSM   H10F15379   5.998   4.972   5.088  1.7487  1.1057  0.7961
  140OSM   C11F15380   6.116   4.791   5.129  0.4233 -0.5772 -0.2006
  140OSM   H11F15381   6.119   4.712   5.207 -1.1318 -0.0596  0.4301
  140OSM   H11G15382   6.223   4.821   5.137  0.7109 -1.4768 -0.5744
  140OSM   C12F15383   6.090   4.730   4.986  0.3521 -0.1487  0.3333
  140OSM   H12F15384   6.035   4.633   4.991  2.3302 -1.3496 -0.0564
  140OSM   H12G15385   6.189   4.687   4.959  1.1930  2.2410 -0.6073
  140OSM   C13F15386   6.042   4.822   4.874  0.5329  0.4481 -0.0510
  140OSM   H13F15387   6.119   4.902   4.868 -0.0572  1.4875  3.5655
  140OSM   H13G15388   5.944   4.867   4.899 -0.2970 -1.5651  0.4869
  140OSM   C14F15389   6.038   4.752   4.731  0.6049 -0.7454 -0.6379
  140OSM   H14F15390   6.138   4.708   4.714  0.6014 -2.0330  2.2024
  140OSM   H14G15391   6.019   4.824   4.648  2.4808  2.2698  1.3338
  140OSM   C15F15392   5.928   4.651   4.739 -0.5701  0.1650 -0.3901
  140OSM   H15F15393   5.851   4.686   4.811 -0.4484  0.2249 -0.2888
  140OSM   H15G15394   5.967   4.554   4.777  1.1354 -0.2852 -3.0013
  140OSM   C16F15395   5.850   4.656   4.609 -0.3482 -0.3150  0.7541
  140OSM   H16F15396   5.836   4.760   4.573  1.2099  0.0847  1.2012
  140OSM   H16G15397   5.749   4.612   4.612 -1.1082  1.3166  0.3467
  140OSM   C17F15398   5.928   4.580   4.503  0.2364  0.1525  0.4129
  140OSM   H17F15399   5.967   4.485   4.546  1.5784  1.8427  3.2118
  140OSM   H17G15400   6.020   4.631   4.469 -0.5235  0.2564 -1.6366
  140OSM   C18F15401   5.842   4.553   4.370 -0.1489  0.4057 -0.6660
  140OSM   H18F15402   5.878   4.480   4.293  1.6393  0.3161  0.2036
  140OSM   H18G15403   5.840   4.651   4.319  0.3561 -0.4954 -2.5360
  140OSM   H18H15404   5.741   4.518   4.403  0.8962  0.3463  2.8646
  141OSM      N15405   0.023   4.271   6.823 -0.1962  0.1290 -0.2208
  141OSM    C1515406   0.142   4.196   6.771 -0.9396 -0.1531 -0.0057
  141OSM   H15A15407   0.171   4.124   6.846 -1.9849 -0.0762  0.5014
  141OSM   H15B15408   0.229   4.260   6.763  0.1697 -1.7057 -0.6805
  141OSM   H15C15409   0.106   4.149   6.681 -0.3746  1.0149 -0.8680
  141OSM    C1415410  -0.094   4.178   6.810  0.3693  0.0372 -0.4088
  141OSM   H14A15411  -0.122   4.162   6.708 -0.0222  0.5334 -0.3795
  141OSM   H14B15412  -0.183   4.231   6.840  0.0275 -0.4028 -0.6456
  141OSM   H14C15413  -0.094   4.083   6.862 -2.0940 -0.5792 -1.4024
  141OSM    C1315414   0.046   4.277   6.965 -0.6529  0.2476 -0.7222
  141OSM   H13A15415   0.045   4.177   7.006 -0.8416  0.3211 -0.5433
  141OSM   H13B15416  -0.038   4.323   7.016  0.5254  0.5800  1.0233
  141OSM   H13C15417   0.141   4.323   6.989  0.5180 -1.1190 -2.5403
  141OSM    C1215418   0.008   4.399   6.740  0.6514  0.1514 -0.7348
  141OSM   H12A15419  -0.091   4.431   6.768  0.6699 -2.7358  3.7400
  141OSM   H12B15420   0.018   4.378   6.634  5.3028 -0.9879 -0.3288
  141OSM    C1115421   0.101   4.513   6.779  0.0615 -0.4220  0.4935
  141OSM   H11A15422   0.074   4.539   6.884  0.4233  0.8377  0.2904
  141OSM   H11B15423   0.073   4.602   6.719  0.5709  0.3470  1.3634
  141OSM      P15424   0.323   4.502   6.638  0.4361  0.0532  0.0868
  141OSM    O1315425   0.370   4.645   6.638  0.0338  0.2688 -0.0297
  141OSM    O1415426   0.428   4.398   6.641  0.1650 -1.0494  0.8398
  141OSM    O1115427   0.225   4.475   6.514 -0.3162 -0.1935  0.2917
  141OSM    O1215428   0.241   4.477   6.770  0.9363  0.2164  0.3947
  141OSM    C1S15429   0.235   4.345   6.453  0.2300 -0.2264  0.5230
  141OSM    H1S15430   0.184   4.266   6.512 -0.5638  1.6210  2.4802
  141OSM    H1T15431   0.337   4.304   6.442 -0.3454 -1.7636  0.7474
  141OSM     NF15432   0.148   4.215   6.254 -0.2036 -0.2430  0.1917
  141OSM    HNF15433   0.205   4.190   6.176 -1.0577  0.2269 -0.6023
  141OSM    C2S15434   0.176   4.346   6.306  0.1743 -0.2402  0.4556
  141OSM    H2S15435   0.078   4.394   6.325 -0.4037 -0.5270 -1.5710
  141OSM    C3S15436   0.253   4.439   6.206 -0.6926 -0.0897 -0.2729
  141OSM    H3S15437   0.345   4.383   6.178  0.4572  0.8160  1.5251
  141OSM     O315438   0.300   4.561   6.268 -0.5754  0.0235 -0.6514
  141OSM    HO315439   0.299   4.543   6.363  1.6379  2.4414 -0.0509
  141OSM    C4S15440   0.187   4.462   6.071 -0.0151 -0.0109  0.6702
  141OSM    H4S15441   0.192   4.375   6.003 -0.3297  1.0623 -0.7698
  141OSM    C5S15442   0.146   4.581   6.024  0.4504 -0.3636  0.2299
  141OSM    H5S15443   0.140   4.662   6.098  2.2665 -1.0713  1.1906
  141OSM    C6S15444   0.090   4.600   5.881  0.0780 -0.3982 -0.4359
  141OSM    H6S15445   0.132   4.690   5.833  1.0847 -1.8114 -2.3211
  141OSM    H6T15446  -0.021   4.603   5.890  0.1086 -2.3924  1.9765
  141OSM    C7S15447   0.120   4.491   5.786 -0.5947 -0.2128  0.1099
  141OSM    H7S15448   0.090   4.392   5.828  0.6742 -0.0560  1.4729
  141OSM    H7T15449   0.226   4.479   5.755 -0.9044  0.0212 -1.1115
  141OSM    C8S15450   0.044   4.525   5.658  0.3066  0.0919 -0.3125
  141OSM    H8S15451   0.066   4.630   5.629  0.5942 -0.2730 -1.4805
  141OSM    H8T15452  -0.066   4.512   5.669  0.5459 -1.7136  0.2494
  141OSM    C9S15453   0.096   4.438   5.540 -0.5815  0.0456  0.9972
  141OSM    H9S15454   0.084   4.329   5.556  0.8036 -0.0312  1.6999
  141OSM    H9T15455   0.202   4.468   5.524 -0.6757 -0.1867 -0.1377
  141OSM   C10S15456   0.019   4.466   5.411  0.5859 -0.4091 -0.0317
  141OSM   H10S15457   0.024   4.576   5.395 -1.6986 -0.0664  1.1535
  141OSM   H10T15458  -0.088   4.444   5.428  0.6999 -0.1726  1.0845
  141OSM   C11S15459   0.076   4.386   5.288 -0.1036  0.3780 -0.0171
  141OSM   H11S15460   0.081   4.278   5.313  0.7349  0.9601  2.5596
  141OSM   H11T15461   0.180   4.419   5.266 -0.4017  0.2885 -1.7380
  141OSM   C12S15462  -0.002   4.408   5.158  0.1513  1.4626  0.0035
  141OSM   H12S15463  -0.022   4.517   5.155 -2.3696  1.1719  2.2413
  141OSM   H12T15464  -0.097   4.351   5.156  0.4701  0.9030  0.4687
  141OSM   C13S15465   0.070   4.389   5.021  0.4825  0.3132  0.0868
  141OSM   H13S15466   0.093   4.281   5.006 -2.4893 -0.0165 -3.6249
  141OSM   H13T15467   0.168   4.441   5.018 -0.1539  1.4955 -1.6379
  141OSM   C14S15468  -0.015   4.431   4.907  0.4711 -0.3815  0.2670
  141OSM   H14S15469  -0.043   4.538   4.919  2.4765  0.3615 -1.0057
  141OSM   H14T15470  -0.105   4.367   4.915  0.4237 -0.2794  0.5667
  141OSM   C15S15471   0.055   4.420   4.767 -0.2799  0.9317  0.2518
  141OSM   H15S15472   0.090   4.316   4.749 -1.9897  0.6413 -1.9772
  141OSM   H15T15473   0.141   4.489   4.762 -0.9524  2.2097  3.7235
  141OSM   C16S15474  -0.047   4.463   4.658 -0.2912  0.0877  0.0590
  141OSM   H16S15475  -0.077   4.569   4.674 -0.7699  0.0486 -0.5398
  141OSM   H16T15476  -0.139   4.402   4.667  0.5390 -1.1127  0.7116
  141OSM   C17S15477   0.008   4.464   4.516 -0.6024 -0.0482  0.1376
  141OSM   H17S15478   0.094   4.534   4.508 -0.8325  0.0311 -3.1331
  141OSM   H17T15479  -0.068   4.498   4.442  1.0006 -2.2575 -2.7556
  141OSM   C18S15480   0.077   4.334   4.465  0.0346  0.3830  0.5704
  141OSM   H18S15481   0.010   4.245   4.469  2.6492 -1.8265 -1.2880
  141OSM   H18T15482   0.166   4.320   4.530  1.6352  2.8902 -0.9197
  141OSM   H18U15483   0.118   4.353   4.364 -1.3174  0.8660  0.0787
  141OSM    C1F15484   0.067   4.122   6.304  0.2309 -0.3163 -0.1694
  141OSM     OF15485   0.007   4.144   6.411 -0.5845  0.1222  0.2520
  141OSM    C2F15486   0.054   3.992   6.230 -0.0047  0.6211  0.1028
  141OSM    H2F15487   0.140   3.926   6.255 -0.2741 -0.0030 -0.5470
  141OSM    H2G15488   0.057   4.009   6.120 -0.1021  0.1079  0.0139
  141OSM    C3F15489  -0.083   3.923   6.277 -0.5819 -0.1603  0.1797
  141OSM    H3F15490  -0.165   3.997   6.283 -0.3741  0.0811  0.0774
  141OSM    H3G15491  -0.068   3.887   6.381  1.3403  2.0424  0.7412
  141OSM    C4F15492  -0.129   3.803   6.199  0.1414  0.2945 -1.1349
  141OSM    H4F15493  -0.213   3.764   6.260  0.7574  1.6038  0.6676
  141OSM    H4G15494  -0.048   3.727   6.197  0.8644  0.8663  1.4852
  141OSM    C5F15495  -0.175   3.843   6.061 -0.5520 -0.6600 -0.7107
  141OSM    H5F15496  -0.089   3.896   6.014 -0.7694 -1.9079 -2.6564
  141OSM    H5G15497  -0.265   3.908   6.053 -2.3865 -2.8599  0.8084
  141OSM    C6F15498  -0.197   3.726   5.957 -0.1496 -0.3446 -0.2817
  141OSM    H6F15499  -0.282   3.666   5.999  1.0496 -0.1316  2.7065
  141OSM    H6G15500  -0.110   3.658   5.956 -0.3449 -0.7337  2.2965
  141OSM    C7F15501  -0.220   3.774   5.811  0.2913 -0.3079  0.0693
  141OSM    H7F15502  -0.117   3.802   5.782 -0.2648 -0.9378 -2.7488
  141OSM    H7G15503  -0.275   3.871   5.820  1.0037 -0.0202  1.8583
  141OSM    C8F15504  -0.297   3.682   5.724 -0.5562  0.8321 -0.1425
  141OSM    H8F15505  -0.313   3.740   5.630 -0.8536  0.5823 -0.2457
  141OSM    H8G15506  -0.401   3.676   5.763 -0.3511  0.3091  0.3319
  141OSM    C9F15507  -0.219   3.553   5.711  0.1513 -0.3733 -0.2659
  141OSM    H9F15508  -0.208   3.493   5.803  1.2947  1.7021  1.0279
  141OSM   C10F15509  -0.179   3.503   5.593  0.2064  0.4540  0.0489
  141OSM   H10F15510  -0.127   3.407   5.585  0.6564  0.7283 -0.3730
  141OSM   C11F15511  -0.193   3.559   5.446  0.0738 -0.2958  0.1711
  141OSM   H11F15512  -0.098   3.548   5.391  0.2239  0.0530  0.3605
  141OSM   H11G15513  -0.214   3.668   5.455 -1.8054 -0.5197 -0.9195
  141OSM   C12F15514  -0.314   3.497   5.377 -0.3084  0.1040 -0.0925
  141OSM   H12F15515  -0.403   3.537   5.431 -0.7006  0.5322 -1.0493
  141OSM   H12G15516  -0.299   3.390   5.401  0.9187  0.0443 -1.0407
  141OSM   C13F15517  -0.312   3.509   5.228  0.3952 -0.2690  0.1820
  141OSM   H13F15518  -0.316   3.614   5.192  3.3720  0.1397  0.8367
  141OSM   H13G15519  -0.407   3.464   5.192  0.6013  0.8235 -1.8761
  141OSM   C14F15520  -0.181   3.453   5.166  0.6892  0.8697  0.1881
  141OSM   H14F15521  -0.157   3.362   5.225  0.9968  0.5696 -0.3864
  141OSM   H14G15522  -0.100   3.527   5.185  2.0847  0.1960 -2.5395
  141OSM   C15F15523  -0.191   3.414   5.022 -0.1041 -0.1644  0.1701
  141OSM   H15F15524  -0.231   3.495   4.958 -2.2432 -1.8065 -0.6772
  141OSM   H15G15525  -0.279   3.347   5.012 -0.2609  0.4487 -4.1499
  141OSM   C16F15526  -0.063   3.352   4.958 -0.4430  0.2597 -0.5864
  141OSM   H16F15527   0.024   3.417   4.981  1.4751 -2.3375 -0.0744
  141OSM   H16G15528  -0.067   3.340   4.847  0.7434 -0.4547 -0.5686
  141OSM   C17F15529  -0.035   3.211   5.017  0.0550  0.1241 -0.2563
  141OSM   H17F15530  -0.125   3.146   5.008  0.4792 -0.3604 -1.1682
  141OSM   H17G15531  -0.023   3.240   5.124  0.1366  0.7905 -0.4405
  141OSM   C18F15532   0.081   3.129   4.965  0.3519  0.2626  0.1036
  141OSM   H18F15533   0.155   3.198   4.919  2.1141  0.3092  2.7594
  141OSM   H18G15534   0.045   3.062   4.884 -1.2126  2.2634 -0.9387
  141OSM   H18H15535   0.126   3.059   5.039  1.5544  0.7159 -0.1676
  142OSM      N15536   4.995   1.627   6.629  0.2980 -0.3893  0.7282
  142OSM    C1515537   4.939   1.627   6.489 -0.1508  0.0550  0.6445
  142OSM   H15A15538   5.006   1.677   6.420 -0.4917  1.4043  1.2515
  142OSM   H15B15539   4.849   1.687   6.495  1.0091  1.7520  1.9714
  142OSM   H15C15540   4.914   1.535   6.438  0.8797 -0.0899  0.3808
  142OSM    C1415541   5.120   1.537   6.623  0.6545 -0.4730  0.3882
  142OSM   H14A15542   5.175   1.533   6.716  1.9350  0.5605 -0.2791
  142OSM   H14B15543   5.195   1.582   6.560 -0.0783  0.6970  0.3181
  142OSM   H14C15544   5.099   1.441   6.579  1.2050 -1.2947  1.8459
  142OSM    C1315545   5.053   1.762   6.668  0.2784  0.1258 -0.1271
  142OSM   H13A15546   4.972   1.834   6.661  0.7075  0.9902  2.7249
  142OSM   H13B15547   5.123   1.793   6.591  1.8600 -0.7365  0.9018
  142OSM   H13C15548   5.097   1.764   6.766 -0.2140  1.2210  0.0915
  142OSM    C1215549   4.898   1.576   6.737 -0.0042  0.3262  0.0098
  142OSM   H12A15550   4.954   1.574   6.830  1.9363 -1.2784 -1.0892
  142OSM   H12B15551   4.883   1.470   6.723  0.0603  0.1950  0.8934
  142OSM    C1115552   4.762   1.635   6.769  0.1487 -0.4305 -0.0438
  142OSM   H11A15553   4.714   1.562   6.837 -0.0995  0.7281  1.0582
  142OSM   H11B15554   4.703   1.628   6.675 -2.0776 -1.9332  1.3743
  142OSM      P15555   4.655   1.852   6.860 -0.3918  0.6682 -0.0459
  142OSM    O1315556   4.550   1.764   6.916 -0.0606 -0.0419  0.1268
  142OSM    O1415557   4.701   1.945   6.962  0.1314 -0.3573  0.0991
  142OSM    O1115558   4.612   1.925   6.726  0.8040 -0.1116  0.6403
  142OSM    O1215559   4.784   1.767   6.819  0.2961 -0.1382 -0.2411
  142OSM    C1S15560   4.692   1.928   6.606 -0.6559  0.3599 -0.7084
  142OSM    H1S15561   4.654   1.853   6.534  2.0929  0.3034 -2.2046
  142OSM    H1T15562   4.796   1.900   6.629 -0.4996  1.5748  0.2018
  142OSM     NF15563   4.797   2.041   6.402  0.6620  0.1001 -0.0202
  142OSM    HNF15564   4.884   2.088   6.412  2.7635 -3.0748 -1.6627
  142OSM    C2S15565   4.702   2.055   6.515  0.3802 -0.6227 -0.4870
  142OSM    H2S15566   4.600   2.068   6.473 -1.4148 -0.2606  3.4883
  142OSM    C3S15567   4.735   2.180   6.604  0.2737  0.3370 -0.3221
  142OSM    H3S15568   4.828   2.164   6.662 -0.0758 -0.4255  0.0364
  142OSM     O315569   4.643   2.213   6.699  0.0906 -0.3367  0.0876
  142OSM    HO315570   4.592   2.131   6.707 -0.5653  0.2377  2.8261
  142OSM    C4S15571   4.764   2.301   6.528  0.1728 -0.0022 -0.0606
  142OSM    H4S15572   4.873   2.314   6.523  0.1349 -0.1151 -2.1995
  142OSM    C5S15573   4.682   2.386   6.462  0.3304 -0.3036 -0.0081
  142OSM    H5S15574   4.573   2.376   6.462  0.3511 -0.5580 -0.3892
  142OSM    C6S15575   4.730   2.513   6.401  0.5035  0.1938 -0.0241
  142OSM    H6S15576   4.841   2.516   6.396  0.4512  0.2952 -2.9723
  142OSM    H6T15577   4.687   2.602   6.451 -1.0695  1.4472 -3.3168
  142OSM    C7S15578   4.676   2.506   6.260 -0.0050 -0.5336 -0.4160
  142OSM    H7S15579   4.686   2.607   6.216 -2.6832 -0.6459 -1.5121
  142OSM    H7T15580   4.567   2.482   6.256 -0.3759  0.8550  0.5765
  142OSM    C8S15581   4.754   2.417   6.170  0.2968 -0.0740 -0.8224
  142OSM    H8S15582   4.783   2.325   6.226 -0.8557 -0.0428 -0.1591
  142OSM    H8T15583   4.854   2.462   6.149  1.2734 -0.4969  2.3896
  142OSM    C9S15584   4.686   2.379   6.040  0.2736 -0.6271  0.4110
  142OSM    H9S15585   4.658   2.472   5.987  2.0727  0.3330  1.0544
  142OSM    H9T15586   4.590   2.332   6.072  0.4172 -0.2758  1.4076
  142OSM   C10S15587   4.773   2.289   5.941  0.1397  0.3762 -0.0651
  142OSM   H10S15588   4.802   2.199   5.999 -0.2420  0.6347  0.5441
  142OSM   H10T15589   4.855   2.355   5.906  0.5476  0.1228  0.4041
  142OSM   C11S15590   4.685   2.237   5.825 -0.5299 -0.5324  0.2224
  142OSM   H11S15591   4.647   2.324   5.767 -0.4512 -0.6601 -0.0193
  142OSM   H11T15592   4.595   2.185   5.864  0.2460 -0.4684  2.1895
  142OSM   C12S15593   4.764   2.147   5.727 -0.7111 -0.2619  0.6469
  142OSM   H12S15594   4.776   2.050   5.780 -0.1843 -0.0044  1.0107
  142OSM   H12T15595   4.863   2.196   5.717 -0.2544 -1.3221 -0.2262
  142OSM   C13S15596   4.691   2.125   5.595 -0.7595 -0.4705  0.5990
  142OSM   H13S15597   4.757   2.068   5.527 -1.1257 -0.2092  0.0180
  142OSM   H13T15598   4.671   2.228   5.559 -2.2564  0.5500  3.9118
  142OSM   C14S15599   4.566   2.055   5.621 -0.0632 -0.0389 -0.1736
  142OSM   H14S15600   4.484   2.120   5.658 -0.2618 -1.1301  1.3696
  142OSM   H14T15601   4.569   1.974   5.696 -3.7040  0.0945  0.2638
  142OSM   C15S15602   4.499   1.989   5.495  0.1772  0.4803  0.1790
  142OSM   H15S15603   4.415   1.931   5.539  1.2391  0.2182  1.9808
  142OSM   H15T15604   4.584   1.924   5.463  0.3997  0.8193  0.0644
  142OSM   C16S15605   4.461   2.087   5.392 -0.5565  0.0359 -0.8720
  142OSM   H16S15606   4.552   2.128   5.344 -1.1573  0.3428 -1.7741
  142OSM   H16T15607   4.423   2.178   5.444  0.2323  0.5973 -1.2523
  142OSM   C17S15608   4.382   2.033   5.269  0.6274  0.3620 -0.9485
  142OSM   H17S15609   4.426   1.948   5.213  0.6309 -0.2610 -0.0171
  142OSM   H17T15610   4.371   2.118   5.199  2.3054  0.7754 -0.7368
  142OSM   C18S15611   4.248   1.988   5.312 -0.6221  0.7014  0.5147
  142OSM   H18S15612   4.204   2.064   5.379 -0.2758  0.6006  0.8551
  142OSM   H18T15613   4.249   1.901   5.381 -0.5963  0.9434  0.8200
  142OSM   H18U15614   4.164   1.972   5.241 -0.2471  0.1672  0.1850
  142OSM    C1F15615   4.795   1.949   6.306  0.3772  0.2187 -0.4780
  142OSM     OF15616   4.697   1.872   6.297  0.3000  0.0089  0.5336
  142OSM    C2F15617   4.900   1.951   6.207 -0.0554 -0.6046  0.1398
  142OSM    H2F15618   4.993   1.900   6.241 -0.4536 -0.6130  1.2728
  142OSM    H2G15619   4.917   2.059   6.187 -0.1153 -1.0796 -2.8472
  142OSM    C3F15620   4.854   1.892   6.069 -0.0233  0.2735  0.0980
  142OSM    H3F15621   4.921   1.938   5.993 -0.8819 -1.2142 -1.6191
  142OSM    H3G15622   4.760   1.938   6.034  0.2327 -0.0502 -1.0480
  142OSM    C4F15623   4.852   1.743   6.067  0.7155 -0.4195  0.2074
  142OSM    H4F15624   4.755   1.713   6.112  0.2354  0.9613  0.1356
  142OSM    H4G15625   4.930   1.705   6.137 -1.6044 -2.3382  1.9187
  142OSM    C5F15626   4.892   1.695   5.934 -0.4255  0.1667 -0.5263
  142OSM    H5F15627   4.918   1.587   5.942  0.5434  0.4903  1.2535
  142OSM    H5G15628   4.978   1.747   5.887  1.2714 -2.3698 -0.4100
  142OSM    C6F15629   4.778   1.681   5.843  0.0347 -0.0080  0.3100
  142OSM    H6F15630   4.734   1.781   5.820 -1.1364 -0.7810 -1.0074
  142OSM    H6G15631   4.701   1.610   5.880 -0.6447 -0.5008 -1.9080
  142OSM    C7F15632   4.821   1.621   5.714 -0.5548 -0.7285 -0.0890
  142OSM    H7F15633   4.873   1.528   5.746  0.0764  0.4736  2.6414
  142OSM    H7G15634   4.887   1.688   5.655 -0.9724 -1.0614 -0.9477
  142OSM    C8F15635   4.695   1.596   5.619 -0.3091  0.1562 -0.4540
  142OSM    H8F15636   4.663   1.698   5.592  2.4350  0.9493 -1.0513
  142OSM    H8G15637   4.610   1.552   5.676  0.3307 -0.2009  0.2566
  142OSM    C9F15638   4.732   1.505   5.504  0.5457  0.0054  0.2848
  142OSM    H9F15639   4.837   1.473   5.495  0.8412  0.2410  2.3468
  142OSM   C10F15640   4.642   1.471   5.406  0.7876 -0.9863  0.5617
  142OSM   H10F15641   4.679   1.409   5.323  1.4124 -0.0216  0.0972
  142OSM   C11F15642   4.494   1.515   5.398 -0.1908  0.5196 -0.6678
  142OSM   H11F15643   4.453   1.554   5.493  0.6963 -0.4046  0.1205
  142OSM   H11G15644   4.424   1.438   5.361 -1.5283  1.8207 -0.9493
  142OSM   C12F15645   4.477   1.623   5.292 -0.2605  0.7285  1.1271
  142OSM   H12F15646   4.560   1.696   5.304  0.7335  0.2490 -2.0595
  142OSM   H12G15647   4.382   1.680   5.303 -1.3234 -0.9963  1.3009
  142OSM   C13F15648   4.474   1.575   5.148  0.9014  0.6725  0.0796
  142OSM   H13F15649   4.385   1.508   5.148  1.2396  0.0800  2.9810
  142OSM   H13G15650   4.567   1.516   5.132  0.3906 -0.0061 -0.4984
  142OSM   C14F15651   4.462   1.697   5.051  0.1674  0.3602 -0.2078
  142OSM   H14F15652   4.491   1.655   4.952 -0.1135 -2.1236  0.6946
  142OSM   H14G15653   4.534   1.779   5.074  1.1411  0.6317 -3.5791
  142OSM   C15F15654   4.323   1.756   5.034 -0.2599  0.4570  0.5061
  142OSM   H15F15655   4.299   1.802   5.132 -0.1196  1.6161  0.0144
  142OSM   H15G15656   4.250   1.680   4.998  0.8717  0.2675 -1.5450
  142OSM   C16F15657   4.309   1.886   4.944 -0.2769  1.3228 -0.1764
  142OSM   H16F15658   4.405   1.941   4.954  0.5030  0.3816 -1.8647
  142OSM   H16G15659   4.235   1.955   4.988 -0.7668  0.1746  0.8846
  142OSM   C17F15660   4.299   1.856   4.800 -0.7403  0.2961  0.0973
  142OSM   H17F15661   4.189   1.839   4.793 -1.5793  4.0252  1.7585
  142OSM   H17G15662   4.367   1.772   4.774  1.7779  2.1743  0.3054
  142OSM   C18F15663   4.338   1.973   4.708 -0.2726  0.0892 -0.2639
  142OSM   H18F15664   4.437   2.007   4.744 -0.5826  0.0912  0.6187
  142OSM   H18G15665   4.259   2.051   4.716 -2.2935 -1.8938  0.2498
  142OSM   H18H15666   4.343   1.939   4.603 -0.4513  3.0987 -1.3211
  143OSM      N15667   3.902   6.476   7.001 -0.0996 -0.7051  0.2720
  143OSM    C1515668   3.931   6.482   7.149  0.0477  0.2523  0.3766
  143OSM   H15A15669   4.006   6.412   7.183 -0.6867 -0.4161  0.6635
  143OSM   H15B15670   3.845   6.473   7.215 -0.7271 -1.8230 -0.8394
  143OSM   H15C15671   3.965   6.582   7.174 -2.9274  1.5424 -0.2565
  143OSM    C1415672   3.780   6.561   6.971  0.1294  0.3082 -0.7699
  143OSM   H14A15673   3.786   6.657   7.020 -2.4982  0.1211  0.0971
  143OSM   H14B15674   3.690   6.513   7.007  0.8963 -2.7321 -2.5667
  143OSM   H14C15675   3.770   6.570   6.864  4.2309 -1.0000 -1.4609
  143OSM    C1315676   4.015   6.538   6.935  0.3364  0.2032  0.6230
  143OSM   H13A15677   4.003   6.541   6.827 -0.3488 -0.3367  0.6784
  143OSM   H13B15678   4.106   6.481   6.928  0.1527  0.0805 -3.3102
  143OSM   H13C15679   4.046   6.627   6.987  0.2899  0.4115  0.3013
  143OSM    C1215680   3.879   6.341   6.955 -0.0385  0.6012  0.3087
  143OSM   H12A15681   3.799   6.283   6.998 -1.2310  1.4536 -0.7007
  143OSM   H12B15682   3.970   6.287   6.978 -0.3838  0.2382  0.8271
  143OSM    C1115683   3.866   6.325   6.802 -0.2912 -0.5899 -0.2326
  143OSM   H11A15684   3.808   6.414   6.768 -0.4854 -0.6207  0.0164
  143OSM   H11B15685   3.802   6.236   6.784 -2.2476  0.8831 -0.9723
  143OSM      P15686   4.046   6.199   6.655  0.1255 -0.2044 -0.1522
  143OSM    O1315687   4.189   6.222   6.651  0.5244  0.1778 -0.5743
  143OSM    O1415688   3.995   6.066   6.702  0.7136 -0.1982 -0.1315
  143OSM    O1115689   3.985   6.238   6.514 -0.4760 -0.4629 -0.3605
  143OSM    O1215690   3.992   6.311   6.746  0.3062 -0.3086  0.5355
  143OSM    C1S15691   3.967   6.369   6.462  0.2535 -0.1742  0.0956
  143OSM    H1S15692   4.005   6.450   6.527 -0.2268  0.6188 -0.5949
  143OSM    H1T15693   3.859   6.389   6.445 -0.7780 -3.8097  1.3542
  143OSM     NF15694   4.031   6.523   6.276  0.0053 -0.3606 -0.3716
  143OSM    HNF15695   3.986   6.538   6.189 -1.2712  1.5972  0.5551
  143OSM    C2S15696   4.049   6.387   6.324  0.5379 -0.1966  0.3204
  143OSM    H2S15697   4.157   6.367   6.341  0.3787 -2.7471 -1.2273
  143OSM    C3S15698   4.008   6.282   6.216  0.3043 -0.2165 -0.3776
  143OSM    H3S15699   3.900   6.292   6.192  0.8980 -0.3131 -3.5808
  143OSM     O315700   4.023   6.144   6.253  0.4165  0.0048 -0.1214
  143OSM    HO315701   4.036   6.157   6.348 -0.6833 -1.3622  0.2450
  143OSM    C4S15702   4.079   6.304   6.083  0.8607  0.4955 -0.3815
  143OSM    H4S15703   4.005   6.327   6.005  1.8473  1.6378 -1.0059
  143OSM    C5S15704   4.205   6.266   6.050  0.1260 -0.3619  0.2778
  143OSM    H5S15705   4.250   6.192   6.117 -0.8885 -0.8409  0.4487
  143OSM    C6S15706   4.277   6.275   5.919  0.1206 -0.1794 -0.0525
  143OSM    H6S15707   4.342   6.187   5.899  3.4234  2.0622 -0.0321
  143OSM    H6T15708   4.355   6.354   5.930 -1.7415  2.0071 -1.4587
  143OSM    C7S15709   4.188   6.305   5.795  0.4003 -0.0978  0.2146
  143OSM    H7S15710   4.131   6.397   5.820  2.3029  1.0536  0.5333
  143OSM    H7T15711   4.112   6.227   5.777  0.5517 -0.1515 -0.1953
  143OSM    C8S15712   4.262   6.331   5.660  0.3154 -0.6125  0.2880
  143OSM    H8S15713   4.304   6.434   5.654  1.8169 -1.1263  1.3953
  143OSM    H8T15714   4.182   6.329   5.583  0.2041  1.0866  0.3266
  143OSM    C9S15715   4.374   6.231   5.622 -0.0253 -0.4071 -0.0995
  143OSM    H9S15716   4.321   6.134   5.624 -3.7337  1.4552 -0.0525
  143OSM    H9T15717   4.457   6.246   5.695  0.3039  1.5952 -0.8152
  143OSM   C10S15718   4.432   6.250   5.481 -0.0087 -0.6191  0.0583
  143OSM   H10S15719   4.531   6.200   5.485  1.1930  1.5561 -0.5791
  143OSM   H10T15720   4.453   6.359   5.490 -2.8758 -0.0559  1.3326
  143OSM   C11S15721   4.346   6.208   5.365 -0.5906 -0.2992 -0.5219
  143OSM   H11S15722   4.257   6.274   5.374 -1.8981 -1.9839 -0.6854
  143OSM   H11T15723   4.299   6.109   5.380  0.2945 -1.0865 -2.6292
  143OSM   C12S15724   4.421   6.225   5.230  0.1534  0.1080  0.0619
  143OSM   H12S15725   4.521   6.178   5.234  0.1535  0.0125 -0.8160
  143OSM   H12T15726   4.437   6.331   5.200 -0.5498  0.3492  0.5192
  143OSM   C13S15727   4.347   6.156   5.118 -0.5407  1.2260  0.2199
  143OSM   H13S15728   4.248   6.206   5.109 -2.3743 -1.8733  1.4317
  143OSM   H13T15729   4.333   6.048   5.143  1.3312  1.5033  2.8375
  143OSM   C14S15730   4.410   6.163   4.981 -0.2695 -0.4010  0.1540
  143OSM   H14S15731   4.472   6.255   4.973  2.1272 -2.0378 -1.4404
  143OSM   H14T15732   4.346   6.161   4.891 -1.9063 -2.0271  1.2833
  143OSM   C15S15733   4.498   6.031   4.957  0.0460 -0.5733  0.1983
  143OSM   H15S15734   4.439   5.942   4.985 -0.5257 -1.9857 -4.5814
  143OSM   H15T15735   4.586   6.049   5.023 -0.7693 -0.3726  1.2429
  143OSM   C16S15736   4.548   6.030   4.803 -0.3646 -0.5572 -0.8036
  143OSM   H16S15737   4.571   6.134   4.771 -0.8887 -0.6598 -1.5609
  143OSM   H16T15738   4.475   5.977   4.737 -2.8107 -0.9022  1.9483
  143OSM   C17S15739   4.674   5.950   4.783 -0.4016 -0.3550  0.3996
  143OSM   H17S15740   4.671   5.840   4.792 -1.2886 -0.2393  1.8907
  143OSM   H17T15741   4.762   5.989   4.839 -0.0803 -0.4543 -0.0232
  143OSM   C18S15742   4.717   5.964   4.631 -0.2165 -0.2443 -0.0498
  143OSM   H18S15743   4.812   5.910   4.612 -0.1053  0.1551 -0.6440
  143OSM   H18T15744   4.731   6.067   4.591 -1.9646  1.1121  2.4990
  143OSM   H18U15745   4.645   5.911   4.565 -1.4451 -0.4271  1.3733
  143OSM    C1F15746   4.095   6.625   6.337 -0.0026 -0.3479  0.0846
  143OSM     OF15747   4.149   6.622   6.448 -0.3581  0.0932  0.4525
  143OSM    C2F15748   4.097   6.749   6.252 -0.1751  0.8037 -0.3232
  143OSM    H2F15749   4.062   6.832   6.316 -1.1917 -0.7966  1.3038
  143OSM    H2G15750   4.017   6.746   6.174 -1.6493  2.6531  1.0489
  143OSM    C3F15751   4.231   6.786   6.191 -0.4182  0.0899 -0.1217
  143OSM    H3F15752   4.315   6.767   6.260  0.6851 -1.3182 -1.7709
  143OSM    H3G15753   4.235   6.895   6.168  0.7027  0.3127  1.0222
  143OSM    C4F15754   4.271   6.704   6.068 -0.1707  1.1298 -0.0913
  143OSM    H4F15755   4.177   6.689   6.011 -0.9971 -1.0623  1.6867
  143OSM    H4G15756   4.316   6.604   6.088 -0.7875  0.9279  0.3023
  143OSM    C5F15757   4.372   6.780   5.984 -0.4798  0.2584  1.0175
  143OSM    H5F15758   4.465   6.799   6.042  0.9762 -0.5265 -0.9590
  143OSM    H5G15759   4.341   6.881   5.948  1.7245 -0.5208 -3.8433
  143OSM    C6F15760   4.418   6.710   5.854  0.4172 -0.1028  0.3456
  143OSM    H6F15761   4.332   6.728   5.786 -1.5734 -2.4697  2.0614
  143OSM    H6G15762   4.436   6.602   5.874  1.5559 -0.1989 -0.9811
  143OSM    C7F15763   4.547   6.776   5.799 -0.1101  0.6288 -0.1953
  143OSM    H7F15764   4.630   6.759   5.870 -0.0653  1.6104 -0.0127
  143OSM    H7G15765   4.529   6.884   5.783  0.0994  0.4420 -1.8602
  143OSM    C8F15766   4.579   6.711   5.663 -0.7134  0.2282  0.2216
  143OSM    H8F15767   4.569   6.602   5.678  0.8963 -0.0097 -0.2647
  143OSM    H8G15768   4.684   6.736   5.634 -0.8219  1.9084  1.1670
  143OSM    C9F15769   4.470   6.748   5.557 -0.0064 -0.1360  0.6636
  143OSM    H9F15770   4.391   6.813   5.595  0.5787  1.3301 -0.5362
  143OSM   C10F15771   4.488   6.740   5.423 -0.2650  0.1033 -0.1751
  143OSM   H10F15772   4.412   6.788   5.360 -2.3907 -1.2898  1.2255
  143OSM   C11F15773   4.604   6.671   5.352  0.2602 -0.7875 -0.7569
  143OSM   H11F15774   4.658   6.598   5.417  1.1885  1.1532  0.7536
  143OSM   H11G15775   4.672   6.750   5.313 -2.2121  0.9587 -1.7477
  143OSM   C12F15776   4.544   6.587   5.241 -0.0862 -0.6017  0.6801
  143OSM   H12F15777   4.446   6.544   5.272 -0.0412 -1.0559  0.2070
  143OSM   H12G15778   4.612   6.501   5.218 -0.1550 -0.3011 -0.6870
  143OSM   C13F15779   4.541   6.666   5.109 -0.4423 -0.1788 -0.6089
  143OSM   H13F15780   4.605   6.755   5.125 -0.9022  0.1963 -0.8487
  143OSM   H13G15781   4.443   6.716   5.092  0.2727  1.3139 -0.4633
  143OSM   C14F15782   4.594   6.582   4.985  0.6114 -0.3211  0.4288
  143OSM   H14F15783   4.537   6.489   4.965 -1.8385  0.1388  4.1419
  143OSM   H14G15784   4.699   6.549   4.990  0.3734 -1.1515  0.0726
  143OSM   C15F15785   4.581   6.670   4.855 -0.2389  0.0827 -0.2100
  143OSM   H15F15786   4.640   6.764   4.859 -1.9775  1.2894 -1.4390
  143OSM   H15G15787   4.476   6.699   4.830  0.5266  1.7804 -1.7164
  143OSM   C16F15788   4.635   6.601   4.730 -0.2302  0.8255  0.0452
  143OSM   H16F15789   4.595   6.499   4.712  0.4337  0.5320  0.2208
  143OSM   H16G15790   4.742   6.582   4.751 -0.7476 -0.5389  1.7177
  143OSM   C17F15791   4.606   6.661   4.589 -0.1520 -0.0063 -0.3039
  143OSM   H17F15792   4.510   6.627   4.546 -0.3420  0.8521 -0.5703
  143OSM   H17G15793   4.678   6.622   4.513  0.1768  0.6641 -0.3511
  143OSM   C18F15794   4.596   6.810   4.595 -0.2984  0.0073  0.1516
  143OSM   H18F15795   4.609   6.857   4.494  0.5982 -0.2902  0.1211
  143OSM   H18G15796   4.667   6.856   4.668  0.7057  0.9896 -1.3532
  143OSM   H18H15797   4.498   6.840   4.636  0.2702  2.3056 -0.0031
  144OSM      N15798   1.319   4.876   6.444 -0.1402 -0.0567 -0.4401
  144OSM    C1515799   1.403   4.934   6.332  0.1201 -0.2345 -0.0307
  144OSM   H15A15800   1.390   5.040   6.316  1.3340 -0.3791 -2.2847
  144OSM   H15B15801   1.395   4.878   6.240  4.0001  0.6901 -1.1288
  144OSM   H15C15802   1.509   4.926   6.351 -0.3050  1.9797  4.8000
  144OSM    C1415803   1.339   4.728   6.450 -0.3513  0.5999 -0.2361
  144OSM   H14A15804   1.300   4.677   6.536  1.5597 -2.0159 -0.8040
  144OSM   H14B15805   1.444   4.704   6.442 -0.8518 -1.1494 -3.5524
  144OSM   H14C15806   1.287   4.681   6.367 -1.7942 -2.6157  2.3008
  144OSM    C1315807   1.356   4.946   6.572  0.0200  0.6882 -0.3928
  144OSM   H13A15808   1.335   5.051   6.566 -0.8592  0.5173 -0.3755
  144OSM   H13B15809   1.459   4.935   6.602  0.3534  2.4990 -0.7346
  144OSM   H13C15810   1.304   4.905   6.657  0.7981  1.7084  0.6128
  144OSM    C1215811   1.174   4.914   6.406  0.3135  0.1832 -0.3382
  144OSM   H12A15812   1.157   5.021   6.409 -2.1902 -0.1725  0.6482
  144OSM   H12B15813   1.110   4.868   6.479 -0.9121  0.1533 -1.3861
  144OSM    C1115814   1.111   4.871   6.269  0.0460 -0.2784  0.1661
  144OSM   H11A15815   1.162   4.914   6.180  0.4774  0.6966  0.8753
  144OSM   H11B15816   1.013   4.921   6.278  1.1288  1.6486  2.5775
  144OSM      P15817   0.981   4.645   6.305 -0.0126 -0.4325  0.1536
  144OSM    O1315818   0.986   4.503   6.267 -0.6706 -0.3091 -0.5838
  144OSM    O1415819   0.964   4.678   6.450 -0.0290 -0.4383 -0.1438
  144OSM    O1115820   0.854   4.707   6.233  0.0466  0.3150  0.0456
  144OSM    O1215821   1.104   4.725   6.254  0.2233 -0.6813  0.6756
  144OSM    C1S15822   0.870   4.733   6.086  0.3661 -0.4155  0.1157
  144OSM    H1S15823   0.968   4.781   6.066  0.3628 -0.8835 -1.1104
  144OSM    H1T15824   0.794   4.808   6.056  0.2221 -0.9444 -0.8777
  144OSM     NF15825   0.836   4.680   5.854 -0.1281 -0.0315  0.2159
  144OSM    HNF15826   0.752   4.687   5.801  0.4003 -2.4741 -1.1336
  144OSM    C2S15827   0.839   4.620   5.985 -0.4512 -0.2250  0.0246
  144OSM    H2S15828   0.916   4.540   5.989 -0.6426 -0.4006  0.3046
  144OSM    C3S15829   0.704   4.552   6.031 -0.5851 -0.2909 -0.2991
  144OSM    H3S15830   0.620   4.624   6.034 -1.1983 -0.9447 -1.0502
  144OSM     O315831   0.706   4.497   6.168 -0.1107  0.1171 -0.5114
  144OSM    HO315832   0.792   4.510   6.208 -1.3933  1.6808  1.9953
  144OSM    C4S15833   0.659   4.437   5.942 -0.8224 -0.5112  0.2722
  144OSM    H4S15834   0.724   4.348   5.944 -0.3428 -0.1937 -0.7911
  144OSM    C5S15835   0.554   4.437   5.865 -0.3578  0.7361 -0.1308
  144OSM    H5S15836   0.486   4.523   5.854  0.0106  0.8236 -2.1623
  144OSM    C6S15837   0.517   4.317   5.781  0.1114  0.1844 -0.0479
  144OSM    H6S15838   0.419   4.272   5.808  0.2685 -0.4828 -0.5739
  144OSM    H6T15839   0.582   4.227   5.784  2.2617  1.6239 -0.9445
  144OSM    C7S15840   0.516   4.368   5.637  0.4557 -0.1205  0.0609
  144OSM    H7S15841   0.613   4.385   5.587 -0.0332  0.6450 -0.6615
  144OSM    H7T15842   0.462   4.465   5.631  0.7182 -0.0448 -1.2872
  144OSM    C8S15843   0.438   4.273   5.547 -0.3390  0.3173  0.3392
  144OSM    H8S15844   0.332   4.281   5.577 -0.1677  0.3502  0.9634
  144OSM    H8T15845   0.474   4.173   5.579  0.2956  0.4536  0.0724
  144OSM    C9S15846   0.459   4.300   5.397  0.1950 -1.0404 -0.1620
  144OSM    H9S15847   0.559   4.344   5.378  0.7471 -2.4212 -0.5870
  144OSM    H9T15848   0.376   4.371   5.375  0.6370 -0.8033 -1.1214
  144OSM   C10S15849   0.453   4.168   5.313  0.2372  0.7095  0.5738
  144OSM   H10S15850   0.406   4.089   5.376 -2.6524  0.4858 -1.6397
  144OSM   H10T15851   0.554   4.124   5.303 -0.7054 -2.1061  2.2260
  144OSM   C11S15852   0.384   4.184   5.175 -0.1574  0.7801 -0.7450
  144OSM   H11S15853   0.455   4.245   5.115 -0.2919  2.6059  0.8384
  144OSM   H11T15854   0.287   4.238   5.190  0.2783  1.3930 -0.0334
  144OSM   C12S15855   0.362   4.047   5.108 -0.3200  0.6042 -0.7236
  144OSM   H12S15856   0.292   3.989   5.172 -0.2411  3.8575  2.6786
  144OSM   H12T15857   0.458   3.990   5.111 -0.3021  0.6664  1.5983
  144OSM   C13S15858   0.305   4.050   4.971  0.5797  1.1398  0.5065
  144OSM   H13S15859   0.367   4.119   4.910 -0.4333  1.0579 -0.6487
  144OSM   H13T15860   0.199   4.085   4.968  1.1841  3.1845  1.5489
  144OSM   C14S15861   0.306   3.918   4.899  0.1678 -0.0344 -0.5138
  144OSM   H14S15862   0.220   3.864   4.945 -0.2533  0.0321 -1.2031
  144OSM   H14T15863   0.399   3.858   4.913  0.1543  0.3440  1.4282
  144OSM   C15S15864   0.276   3.933   4.747  0.0320  0.1189 -0.4142
  144OSM   H15S15865   0.371   3.915   4.692  1.1048  0.0742  1.3896
  144OSM   H15T15866   0.249   4.036   4.715  0.4587  0.2057 -0.5037
  144OSM   C16S15867   0.156   3.849   4.710  0.2841  0.1300 -0.0227
  144OSM   H16S15868   0.069   3.895   4.762  0.2335  0.7416 -0.6419
  144OSM   H16T15869   0.176   3.745   4.744  2.6120 -0.0472 -1.7210
  144OSM   C17S15870   0.134   3.850   4.555  0.0473  0.1673 -0.1940
  144OSM   H17S15871   0.101   3.944   4.505 -0.7724 -0.9065 -1.7729
  144OSM   H17T15872   0.050   3.783   4.526  0.6342 -0.9335  0.6136
  144OSM   C18S15873   0.265   3.803   4.489  0.2164  0.1741 -0.1569
  144OSM   H18S15874   0.293   3.709   4.540 -0.2622 -0.0113 -0.2318
  144OSM   H18T15875   0.350   3.875   4.495  1.8711 -1.6928 -0.3101
  144OSM   H18U15876   0.243   3.782   4.382  0.6403 -0.8173 -0.0650
  144OSM    C1F15877   0.948   4.717   5.796 -0.5314  0.2328 -0.4359
  144OSM     OF15878   1.055   4.706   5.859 -0.2605  0.4164 -0.3092
  144OSM    C2F15879   0.942   4.763   5.651 -0.2906 -0.3559  0.9419
  144OSM    H2F15880   0.952   4.874   5.642  1.2906 -0.5725 -0.4988
  144OSM    H2G15881   0.842   4.742   5.609 -0.0105  1.1840 -0.6690
  144OSM    C3F15882   1.051   4.697   5.554 -0.6752  0.3347 -0.7142
  144OSM    H3F15883   1.008   4.595   5.541  0.1655 -0.1610  0.2775
  144OSM    H3G15884   1.145   4.685   5.612  0.3080  0.6386 -2.1963
  144OSM    C4F15885   1.084   4.767   5.422  0.0171 -0.5432 -0.4218
  144OSM    H4F15886   1.160   4.841   5.454 -0.3619 -0.0496 -0.6483
  144OSM    H4G15887   0.992   4.813   5.379  1.2817  0.9510 -1.6777
  144OSM    C5F15888   1.132   4.675   5.317 -0.3387  1.1769  0.2498
  144OSM    H5F15889   1.085   4.574   5.326  0.3160  0.7619 -0.8215
  144OSM    H5G15890   1.239   4.650   5.333 -0.1972 -0.5303 -2.6387
  144OSM    C6F15891   1.110   4.732   5.171 -0.2775 -0.4371 -0.0695
  144OSM    H6F15892   1.157   4.831   5.159  1.2091 -0.9837  0.9036
  144OSM    H6G15893   1.002   4.757   5.160  0.5632  3.9303  0.1254
  144OSM    C7F15894   1.179   4.644   5.068  0.5573  0.0480 -0.2104
  144OSM    H7F15895   1.159   4.535   5.068  0.3771  0.0079 -3.0345
  144OSM    H7G15896   1.286   4.653   5.098 -0.1471 -0.0481  2.6364
  144OSM    C8F15897   1.163   4.701   4.927 -0.1416  0.7231  0.0773
  144OSM    H8F15898   1.248   4.656   4.871  0.5239  0.9837  0.8544
  144OSM    H8G15899   1.172   4.811   4.919  1.1419  0.5621 -0.9626
  144OSM    C9F15900   1.027   4.658   4.876 -0.2052  0.9259 -0.0468
  144OSM    H9F15901   0.942   4.712   4.919 -2.0567 -0.6860 -1.4916
  144OSM   C10F15902   0.995   4.557   4.791 -0.7151  0.2967  0.5212
  144OSM   H10F15903   0.889   4.544   4.764 -0.0778  0.7602 -2.5747
  144OSM   C11F15904   1.091   4.467   4.716 -0.1112 -0.3199  0.2298
  144OSM   H11F15905   1.063   4.362   4.739 -0.3596 -0.5553 -1.0648
  144OSM   H11G15906   1.194   4.483   4.754  0.3440 -1.4859 -0.4721
  144OSM   C12F15907   1.095   4.495   4.571  0.3312 -0.3939  0.3958
  144OSM   H12F15908   1.181   4.435   4.534  0.5829 -0.4758  1.1125
  144OSM   H12G15909   1.123   4.596   4.534 -1.1537 -0.5752 -1.4346
  144OSM   C13F15910   0.972   4.459   4.485  0.7988 -0.7104  0.4252
  144OSM   H13F15911   1.001   4.511   4.392  3.6527  0.0347  1.6061
  144OSM   H13G15912   0.883   4.509   4.529  0.6180 -1.0214  0.4109
  144OSM   C14F15913   0.959   4.306   4.478 -0.8892 -0.6149 -0.6559
  144OSM   H14F15914   0.852   4.274   4.479 -0.5430 -1.8429  0.7317
  144OSM   H14G15915   0.999   4.260   4.571  2.4547  1.3769 -0.9528
  144OSM   C15F15916   1.043   4.243   4.367 -0.4142 -0.2124 -0.1854
  144OSM   H15F15917   1.146   4.285   4.372 -0.2800 -0.6712  1.7586
  144OSM   H15G15918   0.991   4.265   4.271 -2.1057 -1.7414  0.3138
  144OSM   C16F15919   1.064   4.091   4.383  0.2974  0.3114  0.6464
  144OSM   H16F15920   0.967   4.040   4.365 -0.3782  1.1759  1.6993
  144OSM   H16G15921   1.093   4.067   4.488  0.9887  1.3360  0.7011
  144OSM   C17F15922   1.177   4.033   4.283  0.2306 -0.3259  0.0393
  144OSM   H17F15923   1.273   4.070   4.325 -1.9355  1.0702  4.5169
  144OSM   H17G15924   1.167   4.070   4.179 -3.5509 -1.4774 -0.1741
  144OSM   C18F15925   1.161   3.887   4.270  0.8557 -0.2663 -0.6174
  144OSM   H18F15926   1.195   3.833   4.361  0.4498  0.9251  0.2754
  144OSM   H18G15927   1.205   3.846   4.177  1.7935  1.5479 -1.0021
  144OSM   H18H15928   1.053   3.875   4.246  1.2453  1.8062 -3.9117
  145OSM      N15929   1.426   3.945   6.438 -0.7002 -0.0607  0.0126
  145OSM    C1515930   1.498   4.074   6.392  0.0541 -0.6881  0.0885
  145OSM   H15A15931   1.601   4.047   6.373 -0.0175 -1.8642  1.2149
  145OSM   H15B15932   1.491   4.149   6.470  2.2368 -1.6610  1.3409
  145OSM   H15C15933   1.448   4.112   6.305  1.5452  0.1707 -0.4362
  145OSM    C1415934   1.293   3.991   6.492 -0.5349 -0.5935  0.1446
  145OSM   H14A15935   1.233   3.913   6.537 -0.4018  0.1161  1.5969
  145OSM   H14B15936   1.239   4.036   6.410 -1.6244 -0.5497  0.8698
  145OSM   H14C15937   1.318   4.064   6.567  2.4627 -0.9638 -0.3749
  145OSM    C1315938   1.401   3.851   6.321  0.0218  0.1115  0.0331
  145OSM   H13A15939   1.497   3.806   6.302  0.8288  0.8610  2.0357
  145OSM   H13B15940   1.376   3.909   6.233  1.9021  0.3409 -0.3871
  145OSM   H13C15941   1.334   3.772   6.352 -0.3818 -0.9226 -3.1099
  145OSM    C1215942   1.507   3.880   6.539  0.1394 -0.2522  0.0740
  145OSM   H12A15943   1.445   3.814   6.598  0.4300  1.4570  2.4722
  145OSM   H12B15944   1.530   3.952   6.617  2.2285 -0.2839 -0.4369
  145OSM    C1115945   1.642   3.806   6.506 -0.1975 -0.4246  0.2803
  145OSM   H11A15946   1.700   3.787   6.599  1.0800  0.7042 -0.2478
  145OSM   H11B15947   1.708   3.879   6.455  2.3443 -1.8393  1.3342
  145OSM      P15948   1.558   3.548   6.486 -0.1710  0.1918 -0.1835
  145OSM    O1315949   1.651   3.485   6.583  0.3729  0.3487 -0.2179
  145OSM    O1415950   1.422   3.570   6.536  0.3945 -0.1339 -0.3748
  145OSM    O1115951   1.548   3.463   6.349 -0.2969 -0.0943 -0.2777
  145OSM    O1215952   1.627   3.685   6.433 -0.3674 -0.1730  0.7246
  145OSM    C1S15953   1.457   3.498   6.244 -0.6266  0.0140 -0.3599
  145OSM    H1S15954   1.426   3.605   6.238 -0.4228  0.1450  0.7778
  145OSM    H1T15955   1.369   3.430   6.247 -0.5410 -0.1855 -1.6106
  145OSM     NF15956   1.429   3.514   5.984  0.0900 -0.9393 -0.2728
  145OSM    HNF15957   1.406   3.434   5.930 -0.9516 -1.0688  0.3365
  145OSM    C2S15958   1.522   3.477   6.101  0.1590 -0.8086  0.3987
  145OSM    H2S15959   1.592   3.563   6.090  0.2316 -0.6167  2.1033
  145OSM    C3S15960   1.603   3.348   6.087 -0.4528  0.1092 -0.1652
  145OSM    H3S15961   1.538   3.260   6.103 -0.0964 -0.9139 -3.5667
  145OSM     O315962   1.703   3.346   6.187  0.3948  0.1371  0.6795
  145OSM    HO315963   1.653   3.375   6.263 -0.0894 -2.4815  1.4242
  145OSM    C4S15964   1.672   3.339   5.951 -0.1191 -0.1558 -0.5915
  145OSM    H4S15965   1.777   3.372   5.954 -0.3579  0.6084 -0.4343
  145OSM    C5S15966   1.633   3.262   5.848 -0.0034  0.3548 -0.0063
  145OSM    H5S15967   1.546   3.195   5.858  1.7927 -2.5377 -2.1288
  145OSM    C6S15968   1.722   3.239   5.729  0.2362  0.2725  0.0048
  145OSM    H6S15969   1.755   3.134   5.740  0.4749  0.0039 -2.5371
  145OSM    H6T15970   1.815   3.300   5.731  1.6645 -1.4990 -3.4463
  145OSM    C7S15971   1.642   3.276   5.602 -0.3844 -0.0570  0.3341
  145OSM    H7S15972   1.623   3.385   5.607 -0.7449 -0.1374  0.8026
  145OSM    H7T15973   1.545   3.224   5.584  0.0758 -1.2250  1.0768
  145OSM    C8S15974   1.716   3.233   5.478 -0.4068 -0.8859  0.2514
  145OSM    H8S15975   1.737   3.124   5.485  1.3988 -0.5366  0.8641
  145OSM    H8T15976   1.818   3.278   5.478 -0.9106  0.3276  1.8713
  145OSM    C9S15977   1.647   3.263   5.343  0.5520 -0.4407  0.2533
  145OSM    H9S15978   1.640   3.372   5.325 -0.7452 -0.6468 -0.6561
  145OSM    H9T15979   1.541   3.228   5.351  0.7235 -1.0641 -0.1123
  145OSM   C10S15980   1.712   3.204   5.221  0.2869 -0.3324  0.3645
  145OSM   H10S15981   1.713   3.093   5.225  2.5172 -0.3897 -0.2455
  145OSM   H10T15982   1.818   3.232   5.204  0.6580 -1.1641  1.2241
  145OSM   C11S15983   1.635   3.235   5.095 -0.4090  0.0949  0.2500
  145OSM   H11S15984   1.643   3.344   5.076 -0.8202 -0.2638 -2.3320
  145OSM   H11T15985   1.524   3.231   5.109 -0.3003 -1.9159  0.7687
  145OSM   C12S15986   1.685   3.154   4.979 -0.1423  0.2902 -0.0558
  145OSM   H12S15987   1.622   3.063   4.985 -0.1848  0.2505 -0.9106
  145OSM   H12T15988   1.792   3.122   4.981  0.2837  1.6414 -0.1611
  145OSM   C13S15989   1.654   3.229   4.845  0.6247 -0.0610 -0.5660
  145OSM   H13S15990   1.711   3.324   4.850 -0.8584  0.8050  2.7694
  145OSM   H13T15991   1.548   3.263   4.841  0.7586  0.2572 -3.4662
  145OSM   C14S15992   1.685   3.140   4.718  0.1354 -0.2798  0.0651
  145OSM   H14S15993   1.617   3.055   4.694 -0.4058 -0.0408  0.6976
  145OSM   H14T15994   1.791   3.114   4.736 -0.3686 -2.0066  0.7677
  145OSM   C15S15995   1.678   3.235   4.596  0.1410 -0.8568  0.6021
  145OSM   H15S15996   1.753   3.317   4.584 -0.0472 -0.6886  0.5849
  145OSM   H15T15997   1.576   3.277   4.588  0.6865  0.1880 -1.8969
  145OSM   C16S15998   1.720   3.142   4.475 -0.2215 -0.5871 -1.1977
  145OSM   H16S15999   1.677   3.040   4.483 -0.5557 -0.4889 -1.6849
  145OSM   H16T16000   1.831   3.142   4.475 -0.0435  3.4014  0.1151
  145OSM   C17S16001   1.664   3.180   4.341 -0.4278 -0.2618  0.7168
  145OSM   H17S16002   1.562   3.138   4.331 -0.2655 -0.8978  1.6207
  145OSM   H17T16003   1.735   3.123   4.277 -0.7380 -0.0382  0.1706
  145OSM   C18S16004   1.669   3.330   4.313 -0.2618 -0.7476  0.0636
  145OSM   H18S16005   1.651   3.353   4.205  2.1212  2.7164  0.2515
  145OSM   H18T16006   1.768   3.373   4.339 -0.3489  0.0721 -0.8792
  145OSM   H18U16007   1.591   3.382   4.373 -1.0692  0.3894 -1.8787
  145OSM    C1F16008   1.368   3.634   5.961  0.4214 -0.2436  0.4738
  145OSM     OF16009   1.344   3.722   6.046  0.3115 -0.2683 -0.7421
  145OSM    C2F16010   1.327   3.651   5.820  0.9202  0.0683  0.3361
  145OSM    H2F16011   1.330   3.553   5.769 -1.0428  0.5037 -0.7049
  145OSM    H2G16012   1.397   3.722   5.771 -2.2586  2.8737 -0.5003
  145OSM    C3F16013   1.179   3.704   5.817 -0.6108 -0.0017 -0.6652
  145OSM    H3F16014   1.172   3.807   5.858 -0.1022 -0.2962  0.1858
  145OSM    H3G16015   1.115   3.623   5.856  1.8447 -1.5701  0.3370
  145OSM    C4F16016   1.135   3.731   5.669 -0.4324 -0.5511 -0.0602
  145OSM    H4F16017   1.039   3.788   5.674  0.0248  0.1319  2.0841
  145OSM    H4G16018   1.108   3.633   5.623  1.5514 -1.1521 -0.0431
  145OSM    C5F16019   1.235   3.794   5.564  0.5623  0.1205 -0.6409
  145OSM    H5F16020   1.326   3.730   5.563  0.2577 -0.3257 -0.2642
  145OSM    H5G16021   1.265   3.895   5.600 -0.7234  0.2157  0.2675
  145OSM    C6F16022   1.174   3.789   5.423 -0.5646 -0.1932 -0.5229
  145OSM    H6F16023   1.087   3.859   5.429 -1.4485 -1.3406  0.8038
  145OSM    H6G16024   1.145   3.686   5.394  2.2630 -1.7303  1.6356
  145OSM    C7F16025   1.260   3.845   5.315 -0.4214 -0.1421  0.3977
  145OSM    H7F16026   1.343   3.772   5.317  0.0054  0.3422  1.0010
  145OSM    H7G16027   1.287   3.950   5.340  1.2375 -0.0345 -1.5860
  145OSM    C8F16028   1.203   3.827   5.175  0.2987 -0.0811 -0.4903
  145OSM    H8F16029   1.117   3.897   5.172  0.9156  0.6521 -1.7192
  145OSM    H8G16030   1.157   3.726   5.176  0.2469 -0.0624  0.7222
  145OSM    C9F16031   1.301   3.855   5.065  0.5492 -0.0551  0.5029
  145OSM    H9F16032   1.284   3.953   5.019  1.5738 -0.2161 -0.2364
  145OSM   C10F16033   1.387   3.772   5.004 -0.5145  0.4609 -0.0472
  145OSM   H10F16034   1.464   3.808   4.933  3.2779 -1.6978  2.6155
  145OSM   C11F16035   1.413   3.630   5.044 -0.0122 -0.1679  0.1138
  145OSM   H11F16036   1.331   3.600   5.113 -0.1358 -1.6426 -0.6277
  145OSM   H11G16037   1.509   3.631   5.100 -1.6934  1.4563  3.2857
  145OSM   C12F16038   1.402   3.536   4.919  0.2353  0.7073  0.7258
  145OSM   H12F16039   1.453   3.442   4.951  0.7994  0.3963 -1.0043
  145OSM   H12G16040   1.473   3.572   4.841 -0.9629  1.0392 -0.2378
  145OSM   C13F16041   1.264   3.533   4.863  0.2071 -0.2757  0.9385
  145OSM   H13F16042   1.252   3.621   4.796 -2.7595 -1.5235 -0.3286
  145OSM   H13G16043   1.184   3.544   4.939 -0.1313 -0.2299  0.5762
  145OSM   C14F16044   1.208   3.407   4.797  0.6512  0.4360 -0.3295
  145OSM   H14F16045   1.097   3.415   4.797  0.3570 -2.4769 -0.0401
  145OSM   H14G16046   1.230   3.331   4.875 -1.6271  1.2580  1.2193
  145OSM   C15F16047   1.260   3.383   4.652 -0.3647  0.2935  0.2027
  145OSM   H15F16048   1.370   3.365   4.649 -0.5126 -0.5807 -1.7682
  145OSM   H15G16049   1.236   3.468   4.585 -0.4953  0.6429  0.6861
  145OSM   C16F16050   1.195   3.256   4.593 -0.7061  0.0178 -0.7221
  145OSM   H16F16051   1.090   3.241   4.628  0.1663 -0.9708  1.7143
  145OSM   H16G16052   1.250   3.162   4.611 -1.3085 -0.1056  0.6220
  145OSM   C17F16053   1.190   3.276   4.441 -0.1398  0.0789 -0.1708
  145OSM   H17F16054   1.153   3.378   4.415 -0.5062  0.6039  2.1337
  145OSM   H17G16055   1.134   3.193   4.393 -2.2636  2.4578 -2.1209
  145OSM   C18F16056   1.336   3.281   4.375  0.5898 -0.0837  0.3085
  145OSM   H18F16057   1.385   3.185   4.404  2.1859  0.8477  0.8084
  145OSM   H18G16058   1.401   3.368   4.398  1.7122 -1.1029  1.0797
  145OSM   H18H16059   1.324   3.275   4.264  0.2284  1.2736  0.2598
  146OSM      N16060   5.619   1.796   6.956 -0.1654  0.1971  0.6264
  146OSM    C1516061   5.627   1.883   6.837 -0.1089  0.0779 -0.5926
  146OSM   H15A16062   5.534   1.934   6.817 -0.7420  0.7194  3.1968
  146OSM   H15B16063   5.658   1.833   6.746 -2.6425  0.1762 -1.5908
  146OSM   H15C16064   5.699   1.961   6.854 -0.3712 -0.2154  2.3526
  146OSM    C1416065   5.766   1.769   7.007  0.7505  0.1489  0.4720
  146OSM   H14A16066   5.818   1.718   6.927  1.7142  1.0212  0.5330
  146OSM   H14B16067   5.768   1.708   7.097 -0.1740  0.6130  0.8168
  146OSM   H14C16068   5.806   1.866   7.034 -0.9273  1.4267 -1.3924
  146OSM    C1316069   5.553   1.865   7.068  0.1942 -0.8025 -1.0224
  146OSM   H13A16070   5.608   1.950   7.108  0.6102 -0.9304 -1.3172
  146OSM   H13B16071   5.534   1.786   7.140 -0.2948 -0.5506 -0.8719
  146OSM   H13C16072   5.457   1.903   7.038  0.2526 -1.1767 -1.6860
  146OSM    C1216073   5.541   1.667   6.920 -0.1428 -0.5587 -0.2758
  146OSM   H12A16074   5.455   1.701   6.865 -0.2939  0.2208  0.4179
  146OSM   H12B16075   5.508   1.616   7.010  1.0777  0.4386  0.7697
  146OSM    C1116076   5.614   1.571   6.826 -0.0215 -0.1623  0.4382
  146OSM   H11A16077   5.563   1.472   6.829 -1.3493  0.3365 -2.2373
  146OSM   H11B16078   5.721   1.555   6.850  0.0412 -1.3265 -0.4960
  146OSM      P16079   5.480   1.607   6.605 -0.0029 -0.2295 -0.2396
  146OSM    O1316080   5.440   1.470   6.595  0.2292  0.1757  0.3256
  146OSM    O1416081   5.383   1.701   6.662  0.1565  0.3115 -0.2684
  146OSM    O1116082   5.524   1.663   6.464 -0.2128 -0.2579 -0.0519
  146OSM    O1216083   5.618   1.619   6.689 -0.0409 -0.4202 -0.4950
  146OSM    C1S16084   5.666   1.664   6.425 -0.2000  0.1104 -0.3667
  146OSM    H1S16085   5.716   1.565   6.435  0.9016  0.6672 -0.3184
  146OSM    H1T16086   5.715   1.742   6.487 -1.0964 -0.7114  1.4657
  146OSM     NF16087   5.807   1.658   6.209 -0.0060 -0.1995 -0.5798
  146OSM    HNF16088   5.855   1.738   6.175  0.0212 -0.5399 -1.3757
  146OSM    C2S16089   5.678   1.684   6.269  0.0221 -0.0498  0.2019
  146OSM    H2S16090   5.598   1.626   6.219  0.9328  0.4949 -1.9600
  146OSM    C3S16091   5.639   1.832   6.234  0.4666  0.4395 -0.3982
  146OSM    H3S16092   5.687   1.895   6.312  1.6654 -2.4750  1.3447
  146OSM     O316093   5.504   1.865   6.268  0.0108  0.0001  0.3037
  146OSM    HO316094   5.488   1.786   6.320  0.1421 -0.4997 -0.3875
  146OSM    C4S16095   5.678   1.882   6.093 -0.3119  0.5791 -0.1425
  146OSM    H4S16096   5.768   1.943   6.078 -1.8299  2.4724 -2.3252
  146OSM    C5S16097   5.607   1.853   5.979 -0.3244  0.2195 -0.1142
  146OSM    H5S16098   5.517   1.790   5.995  0.7740 -2.0343 -2.1854
  146OSM    C6S16099   5.655   1.894   5.838  0.3425  0.4724 -0.2665
  146OSM    H6S16100   5.746   1.958   5.836  0.5670  0.3545  2.7420
  146OSM    H6T16101   5.575   1.952   5.787  0.6208 -0.7803 -2.2456
  146OSM    C7S16102   5.685   1.753   5.772 -0.0091  0.4170  0.2910
  146OSM    H7S16103   5.605   1.676   5.771  1.6198 -1.3713 -2.3316
  146OSM    H7T16104   5.762   1.702   5.834 -0.0990  0.0972  0.1430
  146OSM    C8S16105   5.737   1.757   5.626  0.6014 -0.2433  0.4656
  146OSM    H8S16106   5.781   1.659   5.596  0.2619 -0.4402  0.6132
  146OSM    H8T16107   5.821   1.830   5.621  2.7441 -2.6066 -2.4076
  146OSM    C9S16108   5.619   1.779   5.527 -0.0191 -0.3683  0.9059
  146OSM    H9S16109   5.579   1.879   5.553  1.9228  0.4576  0.9122
  146OSM    H9T16110   5.542   1.702   5.547 -0.5383  0.2759  1.4324
  146OSM   C10S16111   5.660   1.771   5.376  0.2062  0.1886  0.5202
  146OSM   H10S16112   5.675   1.664   5.352  1.4673  0.1510  1.3598
  146OSM   H10T16113   5.760   1.819   5.363  0.9564 -0.8014  2.2762
  146OSM   C11S16114   5.543   1.809   5.283  0.3858 -0.2512  0.0081
  146OSM   H11S16115   5.540   1.919   5.295  0.3881 -0.4712  2.5763
  146OSM   H11T16116   5.451   1.769   5.331 -0.5671 -0.3490 -1.8207
  146OSM   C12S16117   5.580   1.747   5.148 -0.3925 -0.5326 -0.2482
  146OSM   H12S16118   5.598   1.638   5.149  0.9627 -0.3197  0.0757
  146OSM   H12T16119   5.673   1.794   5.110 -2.1178  1.4805 -2.3232
  146OSM   C13S16120   5.472   1.762   5.039  0.3955  0.0538  0.3100
  146OSM   H13S16121   5.493   1.815   4.944 -4.5151 -0.5424 -1.4103
  146OSM   H13T16122   5.394   1.824   5.088 -1.9584 -2.9285  0.6429
  146OSM   C14S16123   5.410   1.630   5.016 -0.8162  0.0255  0.0250
  146OSM   H14S16124   5.366   1.603   5.114  1.2241  0.8994  1.2666
  146OSM   H14T16125   5.478   1.552   4.976 -0.6582  0.2178 -0.0909
  146OSM   C15S16126   5.286   1.645   4.929 -0.2687  0.1169 -0.2844
  146OSM   H15S16127   5.224   1.728   4.970 -0.2315  0.8266 -1.6121
  146OSM   H15T16128   5.220   1.556   4.927 -1.0301  0.6593  0.2163
  146OSM   C16S16129   5.310   1.669   4.782 -0.0422 -0.1417  0.6180
  146OSM   H16S16130   5.371   1.580   4.754 -2.0046 -1.2753 -0.2241
  146OSM   H16T16131   5.378   1.755   4.765 -0.5132  0.1160 -0.0075
  146OSM   C17S16132   5.181   1.669   4.697 -0.4791 -0.7017  0.2606
  146OSM   H17S16133   5.098   1.738   4.722  0.1493  0.5288 -0.9414
  146OSM   H17T16134   5.140   1.566   4.702 -2.1252 -0.1581 -0.9879
  146OSM   C18S16135   5.216   1.697   4.551  0.1905  0.3321  0.8161
  146OSM   H18S16136   5.132   1.682   4.480 -1.0366  0.9133  2.1022
  146OSM   H18T16137   5.302   1.633   4.521 -1.2143 -0.4731 -1.7552
  146OSM   H18U16138   5.230   1.807   4.537 -3.6157  0.6391 -2.1949
  146OSM    C1F16139   5.862   1.538   6.214  0.0142 -0.4978  0.2541
  146OSM     OF16140   5.804   1.443   6.268 -0.0334 -0.1849  0.7998
  146OSM    C2F16141   6.001   1.522   6.162  0.0346 -0.1390 -0.4011
  146OSM    H2F16142   6.068   1.504   6.249 -0.3442 -0.8159 -0.2398
  146OSM    H2G16143   6.029   1.621   6.122 -1.3763  1.9885  3.3722
  146OSM    C3F16144   6.015   1.403   6.067 -0.4722 -1.0625  0.1700
  146OSM    H3F16145   6.003   1.308   6.123 -2.6977 -1.4892 -0.8952
  146OSM    H3G16146   6.120   1.413   6.034  0.1026  0.8119  2.2813
  146OSM    C4F16147   5.918   1.408   5.951 -0.0728 -0.4691 -0.3357
  146OSM    H4F16148   5.907   1.514   5.921 -2.0725 -0.1353  1.3897
  146OSM    H4G16149   5.818   1.371   5.979 -0.3037 -0.3847 -1.0319
  146OSM    C5F16150   5.968   1.338   5.818  0.2174 -0.4290  0.2446
  146OSM    H5F16151   5.945   1.229   5.824 -0.4543 -0.2883  0.2502
  146OSM    H5G16152   6.078   1.347   5.806  0.0738  0.9594 -0.1531
  146OSM    C6F16153   5.896   1.386   5.690  0.1097 -0.2716  0.4039
  146OSM    H6F16154   5.885   1.496   5.704  2.7771 -0.0314  1.1470
  146OSM    H6G16155   5.790   1.354   5.685 -0.5658  1.5108  2.0484
  146OSM    C7F16156   5.977   1.364   5.561  0.1735 -0.5648 -0.5437
  146OSM    H7F16157   6.019   1.261   5.561  2.7498  0.3747  1.7209
  146OSM    H7G16158   6.070   1.424   5.559  0.0588 -0.2949  1.0380
  146OSM    C8F16159   5.898   1.417   5.443 -0.2389 -0.2115  0.1045
  146OSM    H8F16160   5.969   1.434   5.360  0.5786  2.1539  1.1987
  146OSM    H8G16161   5.861   1.521   5.459  0.1216  0.3430 -2.3611
  146OSM    C9F16162   5.783   1.334   5.405 -0.3649 -0.6258 -0.5372
  146OSM    H9F16163   5.756   1.261   5.483  1.6140 -1.3205 -0.4302
  146OSM   C10F16164   5.723   1.327   5.282 -0.1421  0.7532 -0.1666
  146OSM   H10F16165   5.646   1.252   5.259 -1.9657  2.7181 -0.8292
  146OSM   C11F16166   5.762   1.405   5.169 -0.3426 -0.0474  0.7894
  146OSM   H11F16167   5.798   1.505   5.202 -0.2340  0.5409 -1.0096
  146OSM   H11G16168   5.670   1.422   5.110 -0.3077 -0.6366  0.5592
  146OSM   C12F16169   5.872   1.325   5.092 -0.1391 -0.2647 -0.6565
  146OSM   H12F16170   5.956   1.318   5.165 -0.9473  3.7605  0.8915
  146OSM   H12G16171   5.904   1.386   5.005 -0.5591  1.9162  0.6487
  146OSM   C13F16172   5.819   1.192   5.038  0.2504 -0.3246  0.0301
  146OSM   H13F16173   5.724   1.224   4.990 -0.6575 -1.3601  1.0987
  146OSM   H13G16174   5.792   1.125   5.122  1.4033 -0.3134  0.4299
  146OSM   C14F16175   5.920   1.127   4.948  0.5411  0.1217 -0.1389
  146OSM   H14F16176   5.963   1.207   4.884  0.1702  0.8338  0.4766
  146OSM   H14G16177   6.004   1.077   5.000  0.7033 -2.2476 -2.4450
  146OSM   C15F16178   5.868   1.011   4.874  0.1497  0.0957  0.8830
  146OSM   H15F16179   5.765   1.025   4.836  0.4088  1.7780  0.6799
  146OSM   H15G16180   5.865   0.925   4.944  0.1330  0.5756  1.4788
  146OSM   C16F16181   5.964   0.954   4.762  0.1733  0.0587  0.3645
  146OSM   H16F16182   6.067   0.949   4.803 -0.7925  0.6115  3.1363
  146OSM   H16G16183   5.968   1.030   4.681 -1.6905 -0.1923 -0.0019
  146OSM   C17F16184   5.931   0.818   4.711 -0.0502  0.2653 -0.7583
  146OSM   H17F16185   5.831   0.823   4.664 -1.3815 -1.5514  1.6593
  146OSM   H17G16186   5.908   0.758   4.802  1.4856 -0.2254 -0.6671
  146OSM   C18F16187   6.039   0.736   4.634  0.3875  0.5139  0.2305
  146OSM   H18F16188   6.124   0.731   4.706 -0.4291  0.4160  1.2156
  146OSM   H18G16189   6.066   0.791   4.542  0.5780 -0.2543 -0.1841
  146OSM   H18H16190   6.013   0.629   4.618 -0.0312  0.5307  0.7697
  147OSM      N16191   3.123   2.339   2.124  1.2174 -0.6432 -0.2768
  147OSM    C1516192   3.252   2.322   2.197 -0.3233 -0.0805 -0.1812
  147OSM   H15A16193   3.258   2.375   2.291 -0.8784 -0.2751 -0.0293
  147OSM   H15B16194   3.334   2.349   2.133  0.1775  3.3414  1.6780
  147OSM   H15C16195   3.267   2.220   2.230 -0.8357 -1.9717 -5.0023
  147OSM    C1416196   3.117   2.485   2.083 -0.3823  0.5865 -0.3102
  147OSM   H14A16197   3.208   2.498   2.026 -0.9359 -1.8892 -1.9589
  147OSM   H14B16198   3.107   2.542   2.174  0.4965 -1.6888  1.2954
  147OSM   H14C16199   3.036   2.506   2.014 -0.0651 -2.0734 -1.6415
  147OSM    C1316200   3.117   2.254   1.996 -0.4939 -0.1508  0.4331
  147OSM   H13A16201   3.133   2.147   2.005 -1.0917 -0.4807 -1.7933
  147OSM   H13B16202   3.194   2.300   1.936  0.9708 -0.5586  1.9150
  147OSM   H13C16203   3.026   2.270   1.941 -0.0525  0.8531 -0.0240
  147OSM    C1216204   3.001   2.312   2.207  0.0094 -0.2764  0.3251
  147OSM   H12A16205   3.014   2.206   2.222  2.9487 -0.3171 -1.6731
  147OSM   H12B16206   2.913   2.324   2.146 -0.0167  1.4805  0.6526
  147OSM    C1116207   2.983   2.384   2.339 -0.0337 -0.4444  0.2328
  147OSM   H11A16208   2.964   2.493   2.331  0.6043 -0.4728 -2.9685
  147OSM   H11B16209   3.075   2.374   2.400  0.5362 -0.0751 -0.5431
  147OSM      P16210   2.735   2.333   2.393  0.2630 -0.4023 -0.1803
  147OSM    O1316211   2.682   2.297   2.264 -0.2871  1.1713 -0.2149
  147OSM    O1416212   2.680   2.268   2.514 -0.4900  0.1454 -0.7587
  147OSM    O1116213   2.725   2.488   2.408 -0.3721  1.0806  0.2398
  147OSM    O1216214   2.889   2.305   2.409  0.5727 -0.6160 -0.0413
  147OSM    C1S16215   2.759   2.541   2.539  0.0891 -0.2405  0.2820
  147OSM    H1S16216   2.862   2.517   2.575  0.9347  1.8206 -0.5802
  147OSM    H1T16217   2.690   2.507   2.619 -0.2009  2.3806  1.2398
  147OSM     NF16218   2.789   2.750   2.679  0.2735  0.3036 -0.0197
  147OSM    HNF16219   2.718   2.814   2.709 -1.4131 -0.1586 -2.7278
  147OSM    C2S16220   2.760   2.702   2.543 -0.0887  0.6963  0.3623
  147OSM    H2S16221   2.848   2.730   2.482 -0.6015  1.2208 -0.1461
  147OSM    C3S16222   2.631   2.753   2.481 -1.0529 -0.0639  0.1816
  147OSM    H3S16223   2.548   2.708   2.540 -0.6045  1.6113  2.2087
  147OSM     O316224   2.604   2.718   2.344 -0.4423  0.1673 -0.2840
  147OSM    HO316225   2.651   2.635   2.335  0.6923  0.6279  0.9588
  147OSM    C4S16226   2.635   2.902   2.489 -0.3152  0.4178  0.4631
  147OSM    H4S16227   2.729   2.947   2.453  0.1948 -1.3090 -0.4985
  147OSM    C5S16228   2.529   2.975   2.521  0.1960  0.2213 -0.2609
  147OSM    H5S16229   2.434   2.927   2.551  1.6032 -1.5252  1.6517
  147OSM    C6S16230   2.542   3.122   2.536  0.6352  0.3081  0.0994
  147OSM    H6S16231   2.468   3.167   2.466  0.5630 -1.1705 -0.8254
  147OSM    H6T16232   2.635   3.153   2.485  0.2921  0.1604 -0.6229
  147OSM    C7S16233   2.503   3.182   2.677 -0.4668 -0.6686  0.5113
  147OSM    H7S16234   2.407   3.139   2.713 -0.5633  0.0987  1.1901
  147OSM    H7T16235   2.498   3.293   2.683  2.5632 -0.2281 -2.0445
  147OSM    C8S16236   2.611   3.142   2.779 -0.8614  0.1758 -0.0515
  147OSM    H8S16237   2.714   3.167   2.747 -0.4541 -2.3967 -0.9735
  147OSM    H8T16238   2.602   3.032   2.791 -0.7759  0.2829  1.1077
  147OSM    C9S16239   2.596   3.199   2.918 -0.1463 -0.0122 -0.5819
  147OSM    H9S16240   2.487   3.193   2.939 -0.1422  0.7957 -0.2696
  147OSM    H9T16241   2.629   3.305   2.928 -1.6368  0.2762  2.8068
  147OSM   C10S16242   2.673   3.123   3.036  0.0077 -0.3669  0.7907
  147OSM   H10S16243   2.779   3.118   3.002 -0.1651  0.4590  0.1014
  147OSM   H10T16244   2.641   3.018   3.019 -0.7060 -0.0238 -0.0214
  147OSM   C11S16245   2.659   3.193   3.173 -0.8134 -0.0791 -0.0712
  147OSM   H11S16246   2.553   3.202   3.205 -1.3424  0.6873 -1.9100
  147OSM   H11T16247   2.715   3.289   3.168  1.6994 -1.4899 -0.8714
  147OSM   C12S16248   2.758   3.120   3.269 -0.6693 -0.5443 -0.1100
  147OSM   H12S16249   2.862   3.122   3.230  0.1861  1.0819  2.0734
  147OSM   H12T16250   2.726   3.014   3.272  0.2799 -0.8240  0.3945
  147OSM   C13S16251   2.751   3.181   3.401  0.1836 -0.0187 -0.5873
  147OSM   H13S16252   2.654   3.152   3.448 -0.0454  1.3286 -0.1920
  147OSM   H13T16253   2.768   3.290   3.402  0.6840 -0.0857 -1.3466
  147OSM   C14S16254   2.859   3.121   3.495 -0.0514  0.3150  0.7326
  147OSM   H14S16255   2.960   3.150   3.460 -0.2781  0.8939  0.5432
  147OSM   H14T16256   2.844   3.011   3.497 -1.5153  0.4670 -0.2279
  147OSM   C15S16257   2.841   3.178   3.635  0.0068  0.5711 -0.3643
  147OSM   H15S16258   2.744   3.130   3.660  0.5142 -0.7940 -0.8822
  147OSM   H15T16259   2.835   3.289   3.641 -0.5692  0.5066  0.4252
  147OSM   C16S16260   2.947   3.118   3.726 -0.5456  0.4610  0.2560
  147OSM   H16S16261   3.019   3.058   3.666 -0.8425  1.5523 -1.2699
  147OSM   H16T16262   2.909   3.052   3.807  0.7531 -3.6143 -2.1796
  147OSM   C17S16263   3.050   3.217   3.788  0.0778 -0.3104  0.8894
  147OSM   H17S16264   3.129   3.152   3.830 -0.3288 -0.9061  0.7403
  147OSM   H17T16265   2.996   3.263   3.874 -2.0833  1.4227 -1.2661
  147OSM   C18S16266   3.103   3.317   3.688  0.1332 -0.5668 -0.6552
  147OSM   H18S16267   3.136   3.270   3.593  2.1317  0.3299 -0.4674
  147OSM   H18T16268   3.201   3.364   3.714 -0.6129  2.1541 -2.4041
  147OSM   H18U16269   3.018   3.386   3.669 -0.0316 -0.7954 -0.7505
  147OSM    C1F16270   2.902   2.738   2.749 -0.1956  0.0390  0.1463
  147OSM     OF16271   3.002   2.687   2.697 -0.3887  0.1097  0.0042
  147OSM    C2F16272   2.892   2.789   2.886  0.8738  0.7174  0.0197
  147OSM    H2F16273   2.787   2.777   2.922  2.0481 -1.6753  3.0767
  147OSM    H2G16274   2.888   2.900   2.897 -0.7441  0.7202 -0.2913
  147OSM    C3F16275   2.981   2.713   2.975  0.7454  0.3261  0.2910
  147OSM    H3F16276   3.086   2.737   2.947  1.2387 -1.3021  0.5911
  147OSM    H3G16277   2.959   2.605   2.964  0.2755  0.4036  0.4426
  147OSM    C4F16278   2.954   2.743   3.127  0.5774 -0.0980  0.0197
  147OSM    H4F16279   2.875   2.680   3.173  1.6229 -0.7726  0.9683
  147OSM    H4G16280   2.923   2.850   3.131  1.7084  0.2450 -0.0140
  147OSM    C5F16281   3.069   2.710   3.222 -0.3992  0.1160  0.0746
  147OSM    H5F16282   3.162   2.762   3.189 -0.1877  0.1077  0.6479
  147OSM    H5G16283   3.091   2.601   3.227 -0.0681  0.1892  0.2759
  147OSM    C6F16284   3.049   2.763   3.366  0.7347 -0.5249 -0.0671
  147OSM    H6F16285   3.010   2.866   3.358  0.9833 -0.1366  2.6246
  147OSM    H6G16286   3.144   2.763   3.424  0.9561 -2.1713 -0.3693
  147OSM    C7F16287   2.956   2.669   3.443 -0.3943  0.4274 -0.4356
  147OSM    H7F16288   3.010   2.573   3.456 -1.8440 -0.6300 -1.7683
  147OSM    H7G16289   2.879   2.646   3.366 -0.5613  0.6356 -0.3313
  147OSM    C8F16290   2.898   2.721   3.568 -0.1328 -0.7546 -0.3446
  147OSM    H8F16291   2.840   2.814   3.546  1.5689  0.1137 -1.4091
  147OSM    H8G16292   2.982   2.751   3.633  2.3478 -1.5299 -2.9922
  147OSM    C9F16293   2.805   2.622   3.639 -0.2630 -0.1957 -0.2882
  147OSM    H9F16294   2.715   2.598   3.581 -0.3980  0.8264 -0.5103
  147OSM   C10F16295   2.822   2.563   3.759 -0.4008  0.2214  0.4289
  147OSM   H10F16296   2.767   2.472   3.789  0.7780  0.0088  2.0936
  147OSM   C11F16297   2.933   2.596   3.852 -0.3852 -0.4604 -0.1605
  147OSM   H11F16298   3.027   2.618   3.796 -0.5471 -1.9422 -1.0727
  147OSM   H11G16299   2.947   2.515   3.927 -2.8236  0.0163  0.9007
  147OSM   C12F16300   2.890   2.729   3.921 -0.7403 -0.6230  0.6481
  147OSM   H12F16301   2.805   2.707   3.989  0.8353  0.9345  3.2821
  147OSM   H12G16302   2.859   2.799   3.841  1.8245 -0.5060 -0.3453
  147OSM   C13F16303   3.003   2.798   4.007  0.4082  0.0473 -0.2083
  147OSM   H13F16304   3.070   2.860   3.943  1.8570 -1.0744  0.1599
  147OSM   H13G16305   3.076   2.723   4.044  0.0965 -1.0371 -1.6788
  147OSM   C14F16306   2.946   2.888   4.122  0.6175  0.7040  0.3537
  147OSM   H14F16307   2.898   2.828   4.203  0.8082  3.5905  2.7980
  147OSM   H14G16308   2.860   2.948   4.087  1.0504  1.8741  1.2442
  147OSM   C15F16309   3.053   2.974   4.183 -0.8000 -0.2553  0.6342
  147OSM   H15F16310   3.074   3.040   4.097 -1.7426 -0.0890  0.5188
  147OSM   H15G16311   3.143   2.910   4.196 -2.6829 -3.1070  0.3850
  147OSM   C16F16312   3.011   3.063   4.298  0.9124 -0.4381 -0.5294
  147OSM   H16F16313   3.002   3.004   4.392 -0.3475  1.6501  0.7603
  147OSM   H16G16314   2.911   3.111   4.286  0.4288 -1.5701 -1.1341
  147OSM   C17F16315   3.097   3.186   4.339  0.2891  0.5145  0.6409
  147OSM   H17F16316   3.100   3.255   4.251 -1.2219  0.5779  0.6052
  147OSM   H17G16317   3.196   3.145   4.365  0.7313  1.0609 -0.1409
  147OSM   C18F16318   3.041   3.260   4.464  0.3019 -0.1462 -0.4202
  147OSM   H18F16319   2.938   3.300   4.451 -0.1975 -1.7355 -1.6506
  147OSM   H18G16320   3.112   3.342   4.488  1.4592 -1.6097  1.4744
  147OSM   H18H16321   3.052   3.179   4.540 -1.0685 -0.3268 -0.3932
  148OSM      N16322   2.051   1.540   2.104 -0.0730 -0.7618 -0.3852
  148OSM    C1516323   1.938   1.615   2.174  0.3147 -0.3347 -0.3744
  148OSM   H15A16324   1.882   1.547   2.237  2.2301  0.5268  2.4396
  148OSM   H15B16325   1.869   1.653   2.100  0.8473  0.0164 -0.6927
  148OSM   H15C16326   1.980   1.698   2.229  2.0716  0.1680 -2.3533
  148OSM    C1416327   2.124   1.469   2.218 -0.2083  0.6011 -0.3406
  148OSM   H14A16328   2.207   1.408   2.185  0.7209  0.3368  2.2564
  148OSM   H14B16329   2.057   1.416   2.283  1.0722 -0.2243  0.3468
  148OSM   H14C16330   2.165   1.548   2.278 -0.7416  0.5266  0.1245
  148OSM    C1316331   1.993   1.436   2.014 -0.4434 -0.0985  0.4119
  148OSM   H13A16332   2.070   1.377   1.968 -0.2592  0.2222  0.3022
  148OSM   H13B16333   1.926   1.483   1.943 -0.7274  0.0119  0.7470
  148OSM   H13C16334   1.929   1.372   2.073 -1.2230 -0.0196 -0.3319
  148OSM    C1216335   2.146   1.643   2.043  0.8716 -0.0140  0.8984
  148OSM   H12A16336   2.085   1.720   1.997  0.1205  0.3895  2.4805
  148OSM   H12B16337   2.194   1.596   1.959  1.8162  2.1265  0.1781
  148OSM    C1116338   2.248   1.716   2.136  0.6803 -0.4845 -0.4298
  148OSM   H11A16339   2.310   1.636   2.181  0.1490 -1.7024 -1.7512
  148OSM   H11B16340   2.193   1.770   2.216 -0.4244  2.2864 -2.8554
  148OSM      P16341   2.456   1.863   2.128  0.1273 -0.1504 -0.2942
  148OSM    O1316342   2.548   1.754   2.161  0.0438  0.3495  0.5457
  148OSM    O1416343   2.505   1.977   2.049 -0.4238 -0.4012  0.2243
  148OSM    O1116344   2.397   1.912   2.268 -0.3779  0.3166  0.2123
  148OSM    O1216345   2.325   1.808   2.063 -0.1926 -0.2080  0.2339
  148OSM    C1S16346   2.432   2.043   2.319  0.0687 -0.3357  0.3741
  148OSM    H1S16347   2.369   2.120   2.269  1.5114 -0.4575 -1.7636
  148OSM    H1T16348   2.532   2.085   2.295 -0.1652 -0.0772 -0.1600
  148OSM     NF16349   2.413   2.181   2.536 -0.1256 -0.2249 -0.0203
  148OSM    HNF16350   2.504   2.212   2.562 -0.5382 -0.0877  1.3306
  148OSM    C2S16351   2.416   2.050   2.475 -0.0459  0.8963 -0.3926
  148OSM    H2S16352   2.316   2.003   2.486  0.3837 -0.6116 -2.3395
  148OSM    C3S16353   2.508   1.944   2.549 -0.8496 -0.4092 -0.1808
  148OSM    H3S16354   2.612   1.982   2.552 -0.4235 -1.6111  0.8927
  148OSM     O316355   2.522   1.825   2.473 -0.6706 -0.0584  0.0806
  148OSM    HO316356   2.458   1.843   2.403 -2.1667 -2.5276  0.6884
  148OSM    C4S16357   2.469   1.921   2.689  0.1657  0.5239  0.2299
  148OSM    H4S16358   2.549   1.954   2.757  0.3169 -0.3637  0.4925
  148OSM    C5S16359   2.355   1.851   2.727  0.1941  0.0818  0.3882
  148OSM    H5S16360   2.293   1.810   2.646 -0.4903  3.1912 -0.8198
  148OSM    C6S16361   2.314   1.816   2.861  0.4398  0.0797 -0.3602
  148OSM    H6S16362   2.232   1.887   2.882  3.5606  3.4190  1.8357
  148OSM    H6T16363   2.393   1.844   2.934 -0.4485  3.0410 -0.4198
  148OSM    C7S16364   2.250   1.676   2.884 -0.0479 -0.6555  0.4272
  148OSM    H7S16365   2.330   1.602   2.900  1.1230  0.5974  0.5121
  148OSM    H7T16366   2.189   1.634   2.801 -0.3604 -0.2958  0.4715
  148OSM    C8S16367   2.157   1.668   3.004 -0.1004 -0.0233 -0.3579
  148OSM    H8S16368   2.143   1.559   3.019  5.3932 -0.8565  0.6269
  148OSM    H8T16369   2.057   1.711   2.981 -0.9358 -1.0693  1.1235
  148OSM    C9S16370   2.221   1.717   3.137 -0.3733 -0.6341 -0.0012
  148OSM    H9S16371   2.208   1.827   3.139 -0.2638 -0.6078 -0.5255
  148OSM    H9T16372   2.329   1.695   3.153  0.1085  2.7982  2.8204
  148OSM   C10S16373   2.157   1.653   3.259  0.0947 -0.1182 -0.2520
  148OSM   H10S16374   2.216   1.566   3.293  1.4862  1.3106  1.1512
  148OSM   H10T16375   2.049   1.631   3.243 -0.2754  0.4338  1.3218
  148OSM   C11S16376   2.164   1.755   3.374  0.0255  0.9339 -0.2082
  148OSM   H11S16377   2.102   1.845   3.352  1.4625  2.2560  0.9682
  148OSM   H11T16378   2.270   1.783   3.387  0.4180 -0.7916  0.5647
  148OSM   C12S16379   2.098   1.693   3.498  0.2084 -0.1015  0.2258
  148OSM   H12S16380   2.157   1.601   3.520  1.0114  0.0277 -1.2518
  148OSM   H12T16381   1.997   1.664   3.463  0.2575  0.7280 -0.6755
  148OSM   C13S16382   2.073   1.779   3.620  0.2658 -0.4541  0.4057
  148OSM   H13S16383   2.023   1.874   3.593  0.0268 -0.9715 -1.0689
  148OSM   H13T16384   2.177   1.812   3.639  0.0794 -0.5461  1.6957
  148OSM   C14S16385   2.020   1.703   3.742  0.2338  0.5445  0.5855
  148OSM   H14S16386   2.086   1.615   3.759 -0.1409 -0.2984 -1.8629
  148OSM   H14T16387   1.918   1.660   3.733 -0.5381  1.5004  3.6176
  148OSM   C15S16388   2.009   1.781   3.864  0.3869  0.3086 -0.2321
  148OSM   H15S16389   1.925   1.853   3.867  0.4626  0.3792  2.2237
  148OSM   H15T16390   2.108   1.829   3.882 -0.4127  2.0307 -0.2611
  148OSM   C16S16391   1.983   1.686   3.979 -0.6909 -0.3716 -0.6108
  148OSM   H16S16392   2.045   1.595   3.972  1.4341  1.0959 -2.4295
  148OSM   H16T16393   1.875   1.659   3.971 -1.2781  0.8707  2.0441
  148OSM   C17S16394   2.003   1.764   4.112 -0.3269 -0.6142 -0.2414
  148OSM   H17S16395   1.946   1.858   4.121  0.7975 -0.0803  2.1718
  148OSM   H17T16396   2.110   1.785   4.134  0.5357 -2.7356 -2.0147
  148OSM   C18S16397   1.967   1.677   4.226 -0.0294  0.6418  0.0033
  148OSM   H18S16398   2.057   1.612   4.229 -0.2340  0.1393 -2.6143
  148OSM   H18T16399   1.873   1.623   4.199 -0.5082  2.1450 -1.5004
  148OSM   H18U16400   1.960   1.725   4.326  0.4274 -0.3273  0.5217
  148OSM    C1F16401   2.320   2.275   2.514  0.0951  0.6114  0.5092
  148OSM     OF16402   2.213   2.248   2.457 -0.3598  0.0372 -0.3942
  148OSM    C2F16403   2.368   2.415   2.528  0.7360 -0.3339 -0.2812
  148OSM    H2F16404   2.425   2.444   2.437  0.6779 -0.4538 -0.3553
  148OSM    H2G16405   2.441   2.429   2.611  0.9365  0.0800 -0.5236
  148OSM    C3F16406   2.258   2.521   2.555  0.5012 -0.2497 -0.1627
  148OSM    H3F16407   2.170   2.510   2.487  0.8947  0.2389 -0.7642
  148OSM    H3G16408   2.297   2.623   2.536 -1.3701  0.4489 -0.4540
  148OSM    C4F16409   2.208   2.522   2.697 -0.4172  0.1101  0.0010
  148OSM    H4F16410   2.166   2.425   2.733  3.2616 -1.5285  0.4530
  148OSM    H4G16411   2.139   2.606   2.719 -0.3066 -0.0213  0.9257
  148OSM    C5F16412   2.308   2.531   2.811 -0.7877  0.0699  0.2244
  148OSM    H5F16413   2.374   2.441   2.816 -0.5182  0.2630  0.1735
  148OSM    H5G16414   2.240   2.522   2.899 -1.2798 -0.0060 -0.1635
  148OSM    C6F16415   2.396   2.666   2.820  0.6124 -0.0454  0.3992
  148OSM    H6F16416   2.342   2.763   2.812  1.3237  0.2046 -1.9278
  148OSM    H6G16417   2.460   2.649   2.731 -1.6999 -2.0546 -1.0085
  148OSM    C7F16418   2.483   2.690   2.945  0.0133  0.0153  0.6705
  148OSM    H7F16419   2.538   2.786   2.936 -2.1890  1.3425  0.7323
  148OSM    H7G16420   2.558   2.608   2.945 -2.3740 -2.3766 -1.5639
  148OSM    C8F16421   2.406   2.687   3.082 -0.1373  0.6716  0.0584
  148OSM    H8F16422   2.333   2.604   3.087  1.6685 -1.2237 -2.1492
  148OSM    H8G16423   2.343   2.779   3.083  1.2289  1.7148  2.9190
  148OSM    C9F16424   2.500   2.668   3.201  0.0474  0.1013  0.3519
  148OSM    H9F16425   2.584   2.597   3.190 -0.7879 -0.6397 -1.8636
  148OSM   C10F16426   2.496   2.737   3.310 -0.0619 -0.3036  1.3422
  148OSM   H10F16427   2.571   2.710   3.386  0.2265  2.2035  2.0437
  148OSM   C11F16428   2.398   2.841   3.356 -0.2137 -0.4268 -0.3557
  148OSM   H11F16429   2.313   2.866   3.290 -0.5973 -1.3433 -0.2190
  148OSM   H11G16430   2.453   2.938   3.361 -0.7810 -0.1757  2.1433
  148OSM   C12F16431   2.344   2.801   3.503 -0.7282  0.4753  0.4763
  148OSM   H12F16432   2.305   2.697   3.500 -0.4814  0.1338  4.2369
  148OSM   H12G16433   2.258   2.866   3.528 -2.1511  0.4257 -3.5227
  148OSM   C13F16434   2.451   2.806   3.623  0.7987 -0.1675 -0.5105
  148OSM   H13F16435   2.479   2.913   3.636 -2.8896  0.7778  0.9886
  148OSM   H13G16436   2.533   2.740   3.590  1.4743  0.1897  0.4111
  148OSM   C14F16437   2.382   2.765   3.753  0.6192 -0.0160  0.0867
  148OSM   H14F16438   2.329   2.670   3.732  0.8791 -0.3366  0.8595
  148OSM   H14G16439   2.306   2.843   3.776 -1.9486 -2.3589  0.0205
  148OSM   C15F16440   2.482   2.735   3.861  0.0375 -0.3431 -0.3561
  148OSM   H15F16441   2.531   2.828   3.896  2.6628 -1.0898 -1.7696
  148OSM   H15G16442   2.567   2.669   3.833  1.1766 -0.7547  3.4847
  148OSM   C16F16443   2.418   2.677   3.995  1.1426 -0.0652  0.1758
  148OSM   H16F16444   2.363   2.583   3.975 -0.7326  0.3813  2.6775
  148OSM   H16G16445   2.355   2.754   4.043  0.5148 -0.7522  0.4721
  148OSM   C17F16446   2.523   2.649   4.099  0.6055 -0.5750 -0.0980
  148OSM   H17F16447   2.488   2.698   4.193  0.0015  1.2141 -1.2054
  148OSM   H17G16448   2.613   2.710   4.077  1.9302 -1.4691  2.3900
  148OSM   C18F16449   2.554   2.502   4.104 -0.6134 -0.0885 -0.1985
  148OSM   H18F16450   2.600   2.481   4.005 -0.9542  1.8788 -0.8279
  148OSM   H18G16451   2.472   2.429   4.117 -0.5511 -0.0918  0.1829
  148OSM   H18H16452   2.627   2.479   4.184 -0.7140  0.7755  0.1499
  149OSM      N16453   3.728   2.072   1.662 -0.2664 -0.5137  0.0065
  149OSM    C1516454   3.670   2.198   1.610  0.3668 -0.7138  0.4886
  149OSM   H15A16455   3.739   2.267   1.564 -0.2785 -0.8628 -0.7630
  149OSM   H15B16456   3.621   2.254   1.687  0.0259 -2.0577  1.2819
  149OSM   H15C16457   3.596   2.170   1.535 -0.0100  0.0570  0.5664
  149OSM    C1416458   3.624   1.978   1.711 -0.2841 -0.5756  0.8912
  149OSM   H14A16459   3.577   2.027   1.795  1.1335  0.1013  1.3332
  149OSM   H14B16460   3.666   1.883   1.738  1.2636 -0.3640 -0.5637
  149OSM   H14C16461   3.547   1.962   1.637  1.3717 -2.9467 -0.4328
  149OSM    C1316462   3.804   2.006   1.551  0.7343 -0.7859  0.3845
  149OSM   H13A16463   3.746   1.993   1.461  0.2106  0.3048  0.5403
  149OSM   H13B16464   3.855   1.915   1.576 -0.0199 -1.5401 -0.7377
  149OSM   H13C16465   3.879   2.075   1.515 -0.5752 -0.0934 -1.1029
  149OSM    C1216466   3.828   2.099   1.777 -0.5928  0.1171 -0.3352
  149OSM   H12A16467   3.790   2.164   1.855  3.1536  0.5973  1.3137
  149OSM   H12B16468   3.910   2.160   1.740  0.6267 -0.9082  0.5858
  149OSM    C1116469   3.898   1.968   1.833 -0.5643 -0.2564 -0.6606
  149OSM   H11A16470   3.985   1.997   1.896 -0.7893 -1.5365  0.2629
  149OSM   H11B16471   3.948   1.907   1.755 -0.1178 -0.8426  0.0693
  149OSM      P16472   3.731   1.922   2.028 -0.1399  0.0173 -0.0231
  149OSM    O1316473   3.637   2.037   2.013 -0.5899 -0.2420  0.2067
  149OSM    O1416474   3.679   1.801   2.100  0.3431 -0.2437 -0.1154
  149OSM    O1116475   3.854   1.970   2.111  0.0833  0.5195  0.2102
  149OSM    O1216476   3.803   1.879   1.895 -0.5385  0.3572 -0.2865
  149OSM    C1S16477   3.882   2.107   2.141  0.2466 -0.2852 -0.1229
  149OSM    H1S16478   3.804   2.177   2.103 -0.8786 -1.5936 -0.2824
  149OSM    H1T16479   3.975   2.140   2.090 -0.4639 -1.4455 -2.3099
  149OSM     NF16480   3.919   2.281   2.310 -0.1468 -0.8582 -0.6395
  149OSM    HNF16481   4.013   2.313   2.306 -0.3419  0.5498  2.4977
  149OSM    C2S16482   3.902   2.132   2.295  0.2011 -0.2328  0.2740
  149OSM    H2S16483   3.814   2.090   2.348 -1.7666  1.0794 -1.7376
  149OSM    C3S16484   4.038   2.061   2.340 -0.0895 -0.0898  0.0006
  149OSM    H3S16485   4.112   2.099   2.267 -1.7191 -1.0694 -2.2877
  149OSM     O316486   4.032   1.919   2.319  0.5197  0.3630  0.1991
  149OSM    HO316487   3.950   1.914   2.268  1.3864 -1.8311 -1.1494
  149OSM    C4S16488   4.060   2.090   2.484 -0.4895  0.0530 -0.0789
  149OSM    H4S16489   4.035   2.190   2.522  0.5624  1.0410 -1.8371
  149OSM    C5S16490   4.107   2.006   2.577 -0.0810  0.3148  1.0158
  149OSM    H5S16491   4.140   1.904   2.551 -0.5722  0.1504  1.0246
  149OSM    C6S16492   4.128   2.049   2.716  0.1217 -0.8056  0.3025
  149OSM    H6S16493   4.099   2.156   2.732  0.0970 -0.8616  0.6372
  149OSM    H6T16494   4.236   2.049   2.744 -0.0800  1.1448  1.2854
  149OSM    C7S16495   4.048   1.954   2.816  0.4040 -0.3675  0.3822
  149OSM    H7S16496   4.092   1.853   2.824 -0.5859 -0.6954  2.5858
  149OSM    H7T16497   3.943   1.946   2.780  0.7239 -1.1799 -0.3817
  149OSM    C8S16498   4.038   2.024   2.949  0.2985 -0.0520 -0.1843
  149OSM    H8S16499   3.993   2.125   2.945  1.4317  0.4634 -0.2533
  149OSM    H8T16500   4.142   2.036   2.986 -0.3359 -0.5940  1.9431
  149OSM    C9S16501   3.971   1.951   3.070 -1.0154  0.2468  0.3114
  149OSM    H9S16502   4.003   1.844   3.068 -1.0955  0.2302 -0.6393
  149OSM    H9T16503   3.861   1.961   3.063 -0.9812  1.6715  1.4072
  149OSM   C10S16504   4.000   2.000   3.211 -0.4428  0.3731 -0.2001
  149OSM   H10S16505   3.933   2.087   3.227 -0.1257  1.4314 -3.7183
  149OSM   H10T16506   4.104   2.036   3.229 -0.6757 -0.4651  3.6111
  149OSM   C11S16507   3.963   1.893   3.317  0.6162  0.6647  0.4108
  149OSM   H11S16508   4.034   1.808   3.313 -1.3203 -1.0091 -0.5610
  149OSM   H11T16509   3.858   1.868   3.291  0.0689  0.8656  2.2608
  149OSM   C12S16510   3.952   1.956   3.459  0.5194  0.9648  0.8657
  149OSM   H12S16511   3.851   2.000   3.478 -0.4152 -1.1808  1.1025
  149OSM   H12T16512   4.034   2.030   3.472  0.2629  1.3999  0.0836
  149OSM   C13S16513   3.965   1.850   3.564 -0.0420  0.2964 -0.2712
  149OSM   H13S16514   4.051   1.781   3.556 -1.1704 -1.1321 -0.4259
  149OSM   H13T16515   3.868   1.796   3.569  0.5933 -0.7725  2.7384
  149OSM   C14S16516   3.986   1.924   3.700 -0.1870 -0.3701  0.2635
  149OSM   H14S16517   3.903   1.998   3.713 -0.8215 -1.2783  1.6166
  149OSM   H14T16518   4.078   1.986   3.691 -1.1350  0.9345 -1.0832
  149OSM   C15S16519   3.994   1.834   3.824 -0.0213 -0.1719 -0.4122
  149OSM   H15S16520   3.909   1.765   3.842 -1.1196  1.1941 -0.2450
  149OSM   H15T16521   3.984   1.911   3.903 -1.9311 -1.0005  0.2274
  149OSM   C16S16522   4.120   1.751   3.834 -0.1903 -0.5138  0.4889
  149OSM   H16S16523   4.215   1.808   3.847  1.7765 -3.3547 -0.2219
  149OSM   H16T16524   4.141   1.678   3.753  2.2346  2.4250 -1.7910
  149OSM   C17S16525   4.123   1.678   3.976  0.2840  1.3651 -0.2634
  149OSM   H17S16526   4.059   1.587   3.975 -0.3879  1.8317 -0.7298
  149OSM   H17T16527   4.081   1.741   4.058 -3.4226 -0.5549 -0.4448
  149OSM   C18S16528   4.266   1.638   4.024  0.4986 -0.6881 -0.2950
  149OSM   H18S16529   4.252   1.600   4.127 -1.8870  0.6685 -0.0238
  149OSM   H18T16530   4.338   1.723   4.021 -0.2688  0.0043  0.2395
  149OSM   H18U16531   4.307   1.560   3.956 -0.4674 -0.7866 -0.7877
  149OSM    C1F16532   3.817   2.363   2.323  0.0819  0.1979 -0.6852
  149OSM     OF16533   3.706   2.312   2.303  0.2656  0.6350 -0.2103
  149OSM    C2F16534   3.837   2.508   2.351 -0.8221 -0.0293  0.2336
  149OSM    H2F16535   3.743   2.554   2.388 -1.6314 -0.9481 -0.6319
  149OSM    H2G16536   3.873   2.565   2.263  2.2072 -1.0824  0.6628
  149OSM    C3F16537   3.940   2.534   2.469 -0.0454  0.8034  0.5071
  149OSM    H3F16538   3.963   2.643   2.466 -0.3297  0.8469 -1.1334
  149OSM    H3G16539   4.032   2.481   2.436 -0.1628  2.4377 -2.8911
  149OSM    C4F16540   3.900   2.487   2.610 -0.6369 -0.7726  0.2104
  149OSM    H4F16541   3.907   2.376   2.612 -1.1062 -0.8051 -0.0084
  149OSM    H4G16542   3.792   2.511   2.621 -0.6893 -1.4304  1.2104
  149OSM    C5F16543   3.982   2.546   2.726  0.7741  0.2556  0.1919
  149OSM    H5F16544   3.990   2.655   2.746  2.4258 -0.0253  1.2098
  149OSM    H5G16545   4.086   2.510   2.710  0.9787  0.8290  0.2024
  149OSM    C6F16546   3.925   2.483   2.849  0.9106 -0.3345 -0.2608
  149OSM    H6F16547   3.954   2.376   2.846  1.2000 -0.2896  0.5347
  149OSM    H6G16548   3.814   2.490   2.847  0.9583  0.4494 -2.2407
  149OSM    C7F16549   3.975   2.550   2.981  0.0349 -0.0548  0.2280
  149OSM    H7F16550   3.975   2.659   2.958  0.4957  0.2728  1.7044
  149OSM    H7G16551   4.081   2.520   2.991 -0.1540 -1.3042 -1.1808
  149OSM    C8F16552   3.895   2.524   3.109  0.0228  0.9185 -0.8175
  149OSM    H8F16553   3.787   2.523   3.082 -0.4551  1.8665  0.8859
  149OSM    H8G16554   3.922   2.610   3.174 -2.4008 -0.1197  1.7820
  149OSM    C9F16555   3.934   2.393   3.178 -0.5319  0.3968  1.1466
  149OSM    H9F16556   3.889   2.307   3.126 -0.1463  1.1745 -0.5434
  149OSM   C10F16557   4.018   2.386   3.288  0.3976 -0.2606  0.4690
  149OSM   H10F16558   4.031   2.287   3.335  1.0697  0.2733  1.4208
  149OSM   C11F16559   4.080   2.496   3.366  0.0726 -0.4087  0.6289
  149OSM   H11F16560   4.084   2.592   3.311  1.3986 -0.5086  0.5339
  149OSM   H11G16561   4.186   2.471   3.385  0.6574  1.9302  0.7310
  149OSM   C12F16562   4.030   2.525   3.508 -0.1298  0.7234  0.4791
  149OSM   H12F16563   4.052   2.430   3.563 -2.4166 -0.3980 -0.4089
  149OSM   H12G16564   3.919   2.532   3.509 -0.1001  1.2757  1.7231
  149OSM   C13F16565   4.103   2.636   3.588 -0.1246 -0.5025  0.2465
  149OSM   H13F16566   4.097   2.727   3.525  0.0535 -1.3947 -1.1138
  149OSM   H13G16567   4.213   2.617   3.587  0.7531  3.5746 -2.2085
  149OSM   C14F16568   4.053   2.645   3.733  0.0275 -0.8887 -0.4295
  149OSM   H14F16569   4.036   2.541   3.767  1.2120 -0.7403  0.6947
  149OSM   H14G16570   3.963   2.710   3.738  1.8686  1.8567 -0.8605
  149OSM   C15F16571   4.155   2.701   3.837 -0.4480  0.0142  0.6324
  149OSM   H15F16572   4.103   2.726   3.932  0.6858  1.7533  0.8336
  149OSM   H15G16573   4.209   2.793   3.807  2.8616 -1.7492  0.6864
  149OSM   C16F16574   4.264   2.599   3.875  0.1285  0.4968  0.1880
  149OSM   H16F16575   4.314   2.571   3.780  2.7517 -1.6747  2.0859
  149OSM   H16G16576   4.224   2.501   3.909  1.4576 -0.5656 -1.1852
  149OSM   C17F16577   4.366   2.652   3.982  0.8111 -0.0668 -0.3763
  149OSM   H17F16578   4.313   2.681   4.075 -0.1352  0.6746 -1.1212
  149OSM   H17G16579   4.410   2.746   3.941  0.6949  0.5458  0.8379
  149OSM   C18F16580   4.477   2.551   4.007 -0.4688  0.0552 -0.4008
  149OSM   H18F16581   4.530   2.593   4.095  0.5264  2.4038 -2.0542
  149OSM   H18G16582   4.550   2.546   3.924  0.4675 -2.0821  0.4689
  149OSM   H18H16583   4.437   2.451   4.036  0.4084 -0.6028 -1.4128
  150OSM      N16584   0.960   6.731   1.684  0.7174  0.3559 -0.3261
  150OSM    C1516585   1.107   6.748   1.685 -0.4045  0.5126 -0.2195
  150OSM   H15A16586   1.157   6.737   1.590  2.7274  2.1254  1.0960
  150OSM   H15B16587   1.150   6.670   1.746 -1.3952 -0.8640 -1.2007
  150OSM   H15C16588   1.147   6.840   1.726  3.2747 -1.3753  0.8530
  150OSM    C1416589   0.894   6.806   1.568 -0.2529  0.5063 -0.4630
  150OSM   H14A16590   0.922   6.760   1.474  0.6072  0.7261 -0.3213
  150OSM   H14B16591   0.925   6.909   1.563  0.1591  0.3415 -2.0509
  150OSM   H14C16592   0.787   6.807   1.580 -0.2241  1.9227 -0.2220
  150OSM    C1316593   0.942   6.581   1.667 -0.4723  0.4172  0.0930
  150OSM   H13A16594   0.979   6.516   1.745 -3.2661  1.7933  2.7514
  150OSM   H13B16595   0.977   6.544   1.571 -1.8239 -0.5887 -0.0321
  150OSM   H13C16596   0.837   6.558   1.667 -0.6417  1.1109  1.4207
  150OSM    C1216597   0.895   6.785   1.810 -0.0557 -0.0971 -0.2913
  150OSM   H12A16598   0.929   6.733   1.898 -0.4046 -0.8783 -0.6119
  150OSM   H12B16599   0.787   6.774   1.803 -0.0773 -1.1982  1.3273
  150OSM    C1116600   0.912   6.937   1.838 -0.4644 -0.1503 -0.2480
  150OSM   H11A16601   0.839   6.969   1.916  0.4663  1.5592 -0.0349
  150OSM   H11B16602   0.879   6.999   1.752  0.8419  0.0551 -0.6167
  150OSM      P16603   1.099   7.113   1.839 -0.0736  0.3197 -0.2223
  150OSM    O1316604   1.236   7.079   1.787  0.3842  0.0409  0.7503
  150OSM    O1416605   1.013   7.195   1.758 -0.0109 -0.0379 -0.0183
  150OSM    O1116606   1.123   7.195   1.971 -0.5049 -0.4066 -0.7733
  150OSM    O1216607   1.038   6.971   1.889  0.3378  0.0428  0.5259
  150OSM    C1S16608   1.218   7.159   2.068  0.2775 -0.6126 -0.8573
  150OSM    H1S16609   1.316   7.207   2.046  0.5475 -0.8778 -0.2647
  150OSM    H1T16610   1.233   7.049   2.075 -1.1088 -0.7350  1.4608
  150OSM     NF16611   1.283   7.172   2.309  0.2383  0.3754  0.4251
  150OSM    HNF16612   1.270   7.082   2.350 -0.9665  0.9159  1.2943
  150OSM    C2S16613   1.172   7.206   2.212 -0.8966  0.8498  0.5867
  150OSM    H2S16614   1.165   7.316   2.200  0.9096  0.8548 -0.8379
  150OSM    C3S16615   1.026   7.140   2.227  0.0517 -0.5356 -0.0902
  150OSM    H3S16616   1.037   7.033   2.200 -0.4544 -0.6914  0.3008
  150OSM     O316617   0.921   7.203   2.145  0.0066 -0.3656 -0.2109
  150OSM    HO316618   0.967   7.266   2.089 -2.6380  1.7370 -0.2342
  150OSM    C4S16619   0.987   7.146   2.373  1.1945 -0.3291 -0.2118
  150OSM    H4S16620   1.027   7.061   2.430  0.2527 -0.0367  0.9342
  150OSM    C5S16621   0.911   7.241   2.428  0.0213  0.3791  0.3042
  150OSM    H5S16622   0.869   7.322   2.367 -0.4945 -0.4187 -0.4224
  150OSM    C6S16623   0.871   7.258   2.569 -0.7334 -0.3474 -0.1660
  150OSM    H6S16624   0.760   7.247   2.575 -0.9025  0.1750 -1.8603
  150OSM    H6T16625   0.906   7.363   2.584 -0.9283 -0.2740 -0.2248
  150OSM    C7S16626   0.936   7.169   2.674  0.6429  0.6494  0.1945
  150OSM    H7S16627   1.046   7.186   2.674  0.3611  2.7116 -0.7017
  150OSM    H7T16628   0.918   7.062   2.648  3.0608  0.2494 -0.0911
  150OSM    C8S16629   0.888   7.196   2.819  0.0950  0.5929 -0.4578
  150OSM    H8S16630   0.778   7.184   2.819  0.2199 -0.8620  0.6531
  150OSM    H8T16631   0.912   7.296   2.861 -0.6402  0.7412 -0.3731
  150OSM    C9S16632   0.935   7.089   2.915  0.5237  0.3235 -0.6830
  150OSM    H9S16633   1.037   7.053   2.890  0.5328  0.5657 -1.0099
  150OSM    H9T16634   0.870   6.999   2.910  1.6916 -0.4994 -1.4747
  150OSM   C10S16635   0.960   7.144   3.053 -0.0116 -0.8189 -0.8932
  150OSM   H10S16636   0.865   7.192   3.085 -0.2267 -0.8081 -1.5137
  150OSM   H10T16637   1.041   7.218   3.035 -0.1879 -0.4602 -0.2419
  150OSM   C11S16638   1.004   7.039   3.149  0.0765  0.5575  0.3765
  150OSM   H11S16639   1.096   6.987   3.115 -1.0596 -0.2911 -1.5721
  150OSM   H11T16640   0.920   6.966   3.150 -0.8432  1.5506  1.8047
  150OSM   C12S16641   1.010   7.089   3.300  0.2480 -0.1824 -0.0747
  150OSM   H12S16642   0.907   7.120   3.327 -1.4271 -3.0024 -2.5710
  150OSM   H12T16643   1.089   7.167   3.297  1.2792 -1.2216 -1.1516
  150OSM   C13S16644   1.067   6.993   3.411 -0.5059 -0.0398 -0.2436
  150OSM   H13S16645   1.150   6.932   3.370 -1.0459 -1.3083  0.4986
  150OSM   H13T16646   0.988   6.917   3.429  0.4813 -1.3078 -1.0738
  150OSM   C14S16647   1.122   7.060   3.539 -0.0569  0.5598 -0.3546
  150OSM   H14S16648   1.032   7.111   3.579 -1.2255 -0.5627 -1.4338
  150OSM   H14T16649   1.210   7.121   3.509 -0.6325  1.0786 -1.0405
  150OSM   C15S16650   1.167   6.950   3.640  0.4859  0.0506 -0.3041
  150OSM   H15S16651   1.091   6.869   3.645  1.8318 -1.2629 -0.3704
  150OSM   H15T16652   1.173   6.998   3.740 -1.3171  1.4818 -0.8395
  150OSM   C16S16653   1.297   6.882   3.602 -0.3079  0.3250 -0.0633
  150OSM   H16S16654   1.373   6.963   3.598 -0.0206 -0.0051 -2.2861
  150OSM   H16T16655   1.290   6.830   3.504  1.4730 -2.5090  1.1573
  150OSM   C17S16656   1.343   6.768   3.701  0.9513 -0.6735 -0.4712
  150OSM   H17S16657   1.253   6.719   3.744 -0.2857  1.6936 -0.1871
  150OSM   H17T16658   1.399   6.818   3.783  1.9595 -0.7512 -1.0865
  150OSM   C18S16659   1.434   6.671   3.632  0.0599  0.6874 -0.3683
  150OSM   H18S16660   1.377   6.612   3.557 -1.3832  0.0304  1.1731
  150OSM   H18T16661   1.484   6.606   3.707 -0.4245  0.2099 -0.4521
  150OSM   H18U16662   1.524   6.722   3.593  0.1096 -0.3252 -1.6443
  150OSM    C1F16663   1.403   7.231   2.310 -0.1435  0.6091  0.3501
  150OSM     OF16664   1.430   7.333   2.246  0.3403  0.2905 -0.4293
  150OSM    C2F16665   1.513   7.164   2.388  0.3575  0.3001 -0.2649
  150OSM    H2F16666   1.580   7.120   2.312  0.1167  1.5861 -1.2454
  150OSM    H2G16667   1.459   7.107   2.467 -0.7646  0.2830 -1.0243
  150OSM    C3F16668   1.601   7.264   2.466  0.0482 -0.0323  0.4516
  150OSM    H3F16669   1.529   7.321   2.527 -0.4022  1.4795 -1.3875
  150OSM    H3G16670   1.652   7.326   2.389  1.4855 -0.2163  1.2228
  150OSM    C4F16671   1.712   7.202   2.546  0.0097 -0.6849 -0.8132
  150OSM    H4F16672   1.773   7.139   2.478 -0.2049  0.2032 -1.8625
  150OSM    H4G16673   1.676   7.135   2.628  0.3016  0.1763  0.0335
  150OSM    C5F16674   1.818   7.311   2.604 -0.3371 -0.2022 -0.4700
  150OSM    H5F16675   1.859   7.371   2.521 -1.8010  0.5126 -0.7072
  150OSM    H5G16676   1.906   7.253   2.640 -0.2729  0.2835  0.1718
  150OSM    C6F16677   1.755   7.368   2.729 -0.2500  0.5192 -0.0798
  150OSM    H6F16678   1.718   7.293   2.802  2.0276  0.0756  0.7113
  150OSM    H6G16679   1.669   7.430   2.699 -1.4130 -0.7546  0.5234
  150OSM    C7F16680   1.851   7.466   2.801 -0.1805 -0.6313  0.2781
  150OSM    H7F16681   1.889   7.543   2.731  4.5247  0.2299  3.3534
  150OSM    H7G16682   1.949   7.424   2.832  1.6208  1.9794 -1.4505
  150OSM    C8F16683   1.778   7.535   2.921  0.2200 -0.7784 -0.2639
  150OSM    H8F16684   1.768   7.463   3.005  0.7771 -0.5290  0.0207
  150OSM    H8G16685   1.681   7.581   2.893  0.7973  1.1603  0.7612
  150OSM    C9F16686   1.872   7.640   2.972  0.3647 -0.6853  0.0934
  150OSM    H9F16687   1.925   7.690   2.890  3.5423 -0.4044  2.1599
  150OSM   C10F16688   1.891   7.693   3.094  0.3441  0.6136 -0.0989
  150OSM   H10F16689   1.949   7.785   3.107  0.3059  1.0432 -2.4834
  150OSM   C11F16690   1.817   7.639   3.219  0.4023  0.4551 -0.0560
  150OSM   H11F16691   1.800   7.530   3.208  1.2716  0.5252 -2.7774
  150OSM   H11G16692   1.720   7.693   3.222  0.1179 -0.0796  0.6379
  150OSM   C12F16693   1.900   7.666   3.342 -0.8606 -0.3262  0.3181
  150OSM   H12F16694   1.915   7.776   3.334 -2.6150 -0.0954 -0.3444
  150OSM   H12G16695   1.992   7.605   3.335 -0.4552  0.2168  0.9043
  150OSM   C13F16696   1.843   7.634   3.480 -0.4265 -0.0480  0.9286
  150OSM   H13F16697   1.807   7.530   3.485 -2.8474  0.6019 -0.8756
  150OSM   H13G16698   1.762   7.710   3.489  0.7477  1.4574 -0.4856
  150OSM   C14F16699   1.947   7.647   3.589  0.5122 -0.5317 -0.0643
  150OSM   H14F16700   2.013   7.732   3.560  1.2161 -0.3636  1.9013
  150OSM   H14G16701   2.011   7.556   3.603  2.3037  0.8754  1.2926
  150OSM   C15F16702   1.891   7.680   3.722  0.5483 -0.2855 -0.2155
  150OSM   H15F16703   1.813   7.606   3.752  0.2537  0.6258  1.4105
  150OSM   H15G16704   1.843   7.780   3.721 -0.7737 -0.8949 -0.7844
  150OSM   C16F16705   2.000   7.687   3.828 -0.7178 -0.4493  0.0821
  150OSM   H16F16706   2.082   7.757   3.802 -1.3248  0.3603  0.2946
  150OSM   H16G16707   2.047   7.587   3.838 -1.2450 -0.9789 -2.1625
  150OSM   C17F16708   1.958   7.734   3.968  1.0164  0.3653 -0.8417
  150OSM   H17F16709   1.882   7.667   4.014  1.1893  0.0516 -1.0043
  150OSM   H17G16710   1.902   7.828   3.953 -0.8915 -0.6927 -0.7569
  150OSM   C18F16711   2.078   7.772   4.059  0.1139 -0.0972 -0.3802
  150OSM   H18F16712   2.138   7.855   4.016  0.8177  0.1215  0.9504
  150OSM   H18G16713   2.144   7.684   4.073  0.9022  0.3207 -1.3093
  150OSM   H18H16714   2.039   7.811   4.156 -3.3558 -0.0322 -1.6862
  151OSM      N16715   0.487   5.901   1.593 -0.6564 -0.1371 -0.2326
  151OSM    C1516716   0.395   5.830   1.503  0.7261  0.4637  0.3148
  151OSM   H15A16717   0.334   5.901   1.452  1.6863  1.3764  0.3987
  151OSM   H15B16718   0.336   5.763   1.564  1.4592 -0.7481 -0.2655
  151OSM   H15C16719   0.450   5.772   1.430 -0.5841 -0.5734  0.1022
  151OSM    C1416720   0.554   5.801   1.678 -0.4576  0.2110 -0.2652
  151OSM   H14A16721   0.483   5.746   1.738  1.0749 -1.5558  0.0216
  151OSM   H14B16722   0.619   5.865   1.736 -1.8180  0.4313  1.0644
  151OSM   H14C16723   0.611   5.736   1.613  0.3270 -1.5673  2.0439
  151OSM    C1316724   0.590   5.970   1.517 -0.1425 -0.2234  0.4103
  151OSM   H13A16725   0.635   5.906   1.443  0.2115  0.8570 -0.3304
  151OSM   H13B16726   0.666   6.006   1.585  1.2465 -1.3094 -0.4907
  151OSM   H13C16727   0.547   6.053   1.464  2.0749 -1.2466 -3.3486
  151OSM    C1216728   0.423   5.994   1.698 -1.0482 -0.7935  0.0460
  151OSM   H12A16729   0.358   5.946   1.770 -1.5362 -0.1227  0.0596
  151OSM   H12B16730   0.359   6.061   1.642  0.5879  0.1348 -0.8045
  151OSM    C1116731   0.517   6.102   1.759  0.1577  0.3961  0.6989
  151OSM   H11A16732   0.607   6.053   1.801 -1.5774 -3.2318  0.6083
  151OSM   H11B16733   0.459   6.145   1.843  1.2535  0.5144  1.4167
  151OSM      P16734   0.642   6.325   1.687 -0.0787 -0.0652 -0.2633
  151OSM    O1316735   0.767   6.313   1.611 -0.0653  0.3865 -0.1414
  151OSM    O1416736   0.565   6.445   1.653 -0.0580 -0.1902 -0.3290
  151OSM    O1116737   0.663   6.324   1.844  0.1822 -0.1314 -0.1990
  151OSM    O1216738   0.551   6.201   1.662  0.4810  0.0080  0.4222
  151OSM    C1S16739   0.787   6.313   1.908  0.3361 -0.1650  0.0554
  151OSM    H1S16740   0.863   6.363   1.844  0.3135 -0.2595 -0.0465
  151OSM    H1T16741   0.810   6.205   1.911 -2.8444 -0.9081  1.6014
  151OSM     NF16742   0.917   6.372   2.116 -0.0368  0.3459 -0.1134
  151OSM    HNF16743   0.937   6.295   2.175  0.4751 -0.2657 -1.0535
  151OSM    C2S16744   0.781   6.379   2.049  0.3009 -0.3026 -0.5866
  151OSM    H2S16745   0.762   6.489   2.050  1.7385  0.0012  2.0236
  151OSM    C3S16746   0.659   6.305   2.131 -0.0262  0.0449 -0.0140
  151OSM    H3S16747   0.676   6.196   2.119  0.2046  0.2184 -1.3366
  151OSM     O316748   0.533   6.347   2.082  0.0349  0.3395 -1.0252
  151OSM    HO316749   0.557   6.359   1.990  1.8978 -0.1170 -0.6550
  151OSM    C4S16750   0.652   6.341   2.276  0.3685  0.4273 -0.1338
  151OSM    H4S16751   0.611   6.442   2.291  3.1994  1.7728 -0.6477
  151OSM    C5S16752   0.687   6.256   2.382 -0.5234  0.3827 -0.6897
  151OSM    H5S16753   0.726   6.155   2.363 -0.8422  0.0010  0.5688
  151OSM    C6S16754   0.677   6.289   2.535  0.0117 -0.1636  0.2964
  151OSM    H6S16755   0.780   6.303   2.575  0.2334 -2.0786  0.4802
  151OSM    H6T16756   0.635   6.201   2.588 -2.4760  1.0174  0.4088
  151OSM    C7S16757   0.605   6.413   2.567  0.4044  0.3941  0.8725
  151OSM    H7S16758   0.502   6.423   2.528  1.5675  0.1391 -2.5690
  151OSM    H7T16759   0.671   6.495   2.530  0.7348 -0.3094 -0.1531
  151OSM    C8S16760   0.589   6.434   2.714  0.7722 -0.2633  0.6387
  151OSM    H8S16761   0.664   6.381   2.776  0.9732  1.9817  2.4767
  151OSM    H8T16762   0.490   6.398   2.748 -0.2624  1.3340 -0.5267
  151OSM    C9S16763   0.592   6.585   2.755 -0.4072  0.4072 -0.3619
  151OSM    H9S16764   0.505   6.636   2.708 -2.1222 -1.7195  0.3006
  151OSM    H9T16765   0.684   6.640   2.727  0.1355 -0.1502  0.2863
  151OSM   C10S16766   0.582   6.590   2.907 -0.5110  0.0142  1.0757
  151OSM   H10S16767   0.665   6.526   2.942 -0.7437  0.0480  1.6984
  151OSM   H10T16768   0.488   6.542   2.942  0.0969 -1.6574  0.5513
  151OSM   C11S16769   0.600   6.729   2.974 -0.5237 -0.4713 -0.0739
  151OSM   H11S16770   0.519   6.789   2.928  0.7864  0.3339 -1.4401
  151OSM   H11T16771   0.696   6.775   2.941 -0.6441 -0.8208 -0.9360
  151OSM   C12S16772   0.582   6.728   3.133 -0.4864  0.7284  0.4069
  151OSM   H12S16773   0.502   6.654   3.156 -0.1473 -0.1685 -1.2163
  151OSM   H12T16774   0.553   6.829   3.169  0.6639  1.4591 -0.6691
  151OSM   C13S16775   0.708   6.674   3.198 -0.3126  0.5644  0.1679
  151OSM   H13S16776   0.782   6.751   3.166 -1.1647  1.2029 -0.3241
  151OSM   H13T16777   0.744   6.582   3.148 -0.2443  0.2909  0.7111
  151OSM   C14S16778   0.693   6.660   3.352  0.3202 -0.2736 -0.0831
  151OSM   H14S16779   0.620   6.586   3.390 -0.8282  0.7384 -0.2657
  151OSM   H14T16780   0.675   6.763   3.389 -1.7324 -1.2419  1.8145
  151OSM   C15S16781   0.827   6.619   3.426 -0.5154  0.2655 -0.3669
  151OSM   H15S16782   0.912   6.657   3.366 -0.1995  2.2197  1.2222
  151OSM   H15T16783   0.832   6.509   3.410 -1.7592  0.2403 -0.7052
  151OSM   C16S16784   0.836   6.664   3.567  0.1123  0.4435  0.5007
  151OSM   H16S16785   0.801   6.769   3.568 -1.2275  0.0162  0.7366
  151OSM   H16T16786   0.943   6.657   3.595 -0.5123 -1.5474  2.6627
  151OSM   C17S16787   0.761   6.584   3.673  1.1889  0.0650 -0.0012
  151OSM   H17S16788   0.783   6.475   3.668  2.2360  0.1997  1.1845
  151OSM   H17T16789   0.651   6.588   3.659  1.3515  1.6965 -1.0988
  151OSM   C18S16790   0.803   6.628   3.817  0.3098 -0.1543 -0.3806
  151OSM   H18S16791   0.913   6.624   3.833  0.6133  1.0129 -1.9115
  151OSM   H18T16792   0.746   6.558   3.882 -0.6511  0.6390 -0.3448
  151OSM   H18U16793   0.761   6.726   3.847  0.0537 -0.6056  0.7932
  151OSM    C1F16794   1.023   6.454   2.092  0.1140  0.6808 -0.5641
  151OSM     OF16795   1.008   6.554   2.020  0.4192 -0.3508 -0.3776
  151OSM    C2F16796   1.154   6.417   2.159 -0.0309  0.1057  0.5002
  151OSM    H2F16797   1.235   6.434   2.085 -0.2147 -1.8239 -0.1932
  151OSM    H2G16798   1.154   6.313   2.199 -0.7800  0.2435  0.8754
  151OSM    C3F16799   1.187   6.497   2.287  0.1392  0.1316 -0.2074
  151OSM    H3F16800   1.247   6.584   2.253  1.7380 -0.9606 -0.2893
  151OSM    H3G16801   1.263   6.442   2.347  0.0713 -0.4588 -0.6564
  151OSM    C4F16802   1.086   6.530   2.388 -0.1617 -0.0033  0.2845
  151OSM    H4F16803   1.016   6.450   2.421 -1.1228  1.0316  0.8272
  151OSM    H4G16804   1.027   6.619   2.356 -0.1548 -0.9024 -2.4691
  151OSM    C5F16805   1.153   6.550   2.524 -0.5388  0.4301 -0.1377
  151OSM    H5F16806   1.238   6.621   2.519 -1.8104  2.0229 -0.1123
  151OSM    H5G16807   1.194   6.451   2.553 -0.1737  0.2483 -1.2602
  151OSM    C6F16808   1.055   6.597   2.626  0.9302 -0.7224 -0.1078
  151OSM    H6F16809   0.964   6.536   2.614  0.1723  0.7949 -2.9843
  151OSM    H6G16810   1.027   6.702   2.601  3.6741  0.3664  0.9337
  151OSM    C7F16811   1.112   6.594   2.759  0.4063  0.0533 -0.1256
  151OSM    H7F16812   1.202   6.659   2.763  0.5469 -0.1152 -0.4474
  151OSM    H7G16813   1.145   6.494   2.796  0.6420  1.0793  2.5946
  151OSM    C8F16814   0.997   6.629   2.869 -0.2289 -0.2178 -0.1297
  151OSM    H8F16815   0.920   6.549   2.860  0.9562 -1.4483  0.3837
  151OSM    H8G16816   0.976   6.734   2.838  1.6412  0.3599  0.4264
  151OSM    C9F16817   1.039   6.650   3.015 -0.1043  0.0759  0.3926
  151OSM    H9F16818   1.086   6.743   3.047 -0.3001 -0.4253  2.2648
  151OSM   C10F16819   1.022   6.563   3.118  1.0670 -0.1162 -0.3718
  151OSM   H10F16820   1.058   6.593   3.218 -2.8045 -0.3351  1.2849
  151OSM   C11F16821   0.983   6.416   3.095 -0.4011  0.3866  0.1305
  151OSM   H11F16822   0.921   6.396   3.004  2.0175 -0.7148 -1.3611
  151OSM   H11G16823   0.921   6.384   3.182 -2.0269  1.0686 -0.7355
  151OSM   C12F16824   1.108   6.330   3.100 -0.0381 -0.2128  0.7632
  151OSM   H12F16825   1.181   6.369   3.026  1.5866 -2.7799  0.8712
  151OSM   H12G16826   1.090   6.224   3.071  0.5261 -0.4052  1.0914
  151OSM   C13F16827   1.191   6.341   3.226 -0.1548  1.0144 -0.4988
  151OSM   H13F16828   1.223   6.445   3.248  0.6223  0.6295  0.2551
  151OSM   H13G16829   1.283   6.278   3.218 -0.7579  0.1044 -0.4045
  151OSM   C14F16830   1.123   6.299   3.365 -0.2937 -0.1627 -0.2603
  151OSM   H14F16831   1.113   6.188   3.358 -0.8101 -0.1217 -0.2075
  151OSM   H14G16832   1.020   6.341   3.370 -0.4817 -0.4653 -1.3756
  151OSM   C15F16833   1.199   6.342   3.485  0.1953  0.1285 -0.1179
  151OSM   H15F16834   1.236   6.447   3.485  0.2066  0.1256 -0.5530
  151OSM   H15G16835   1.289   6.277   3.485  0.7500  0.8517  1.6409
  151OSM   C16F16836   1.113   6.319   3.613  0.4952 -0.0167  0.4962
  151OSM   H16F16837   1.076   6.214   3.617 -2.9637  0.7740 -3.3434
  151OSM   H16G16838   1.025   6.386   3.598  0.2718 -0.7410 -1.9916
  151OSM   C17F16839   1.185   6.367   3.743  0.5066  0.2278  0.2711
  151OSM   H17F16840   1.115   6.371   3.829  0.0664 -1.8335  0.0440
  151OSM   H17G16841   1.217   6.474   3.746  1.2415  0.2315 -3.3201
  151OSM   C18F16842   1.296   6.259   3.779  0.3468  0.0364  0.3434
  151OSM   H18F16843   1.344   6.240   3.680 -1.4407 -0.5116 -0.4594
  151OSM   H18G16844   1.262   6.165   3.827  1.0376  0.2552  1.2856
  151OSM   H18H16845   1.376   6.304   3.842 -1.0094  1.6069  1.0035
  152OSM      N16846   2.853   5.771   1.773  0.5741  0.5608  0.5175
  152OSM    C1516847   2.984   5.835   1.758 -0.1069  0.3351 -0.2327
  152OSM   H15A16848   3.005   5.865   1.656  0.4745  3.5946  0.7231
  152OSM   H15B16849   3.069   5.770   1.777  0.1009  0.3842 -0.9418
  152OSM   H15C16850   2.998   5.925   1.817  1.4955  0.0416 -0.1177
  152OSM    C1416851   2.752   5.850   1.696 -0.5018 -0.2641 -0.2621
  152OSM   H14A16852   2.653   5.823   1.729  0.0424 -0.5355  1.2385
  152OSM   H14B16853   2.777   5.838   1.592  1.0008 -1.5412  0.2130
  152OSM   H14C16854   2.769   5.956   1.709 -0.5010 -0.5700  2.9338
  152OSM    C1316855   2.856   5.639   1.705 -0.7522  0.4481 -0.6688
  152OSM   H13A16856   2.771   5.572   1.707  0.3141 -0.9894 -1.0428
  152OSM   H13B16857   2.939   5.580   1.744 -1.3508  0.0097 -0.0391
  152OSM   H13C16858   2.885   5.652   1.602  1.1023 -1.0923 -0.3996
  152OSM    C1216859   2.817   5.749   1.923 -0.3879 -0.2243  0.4156
  152OSM   H12A16860   2.891   5.685   1.970  0.1954  2.3104  3.2770
  152OSM   H12B16861   2.721   5.700   1.930 -0.0307 -0.9686  0.2692
  152OSM    C1116862   2.815   5.863   2.023  0.0341 -0.0734  0.4151
  152OSM   H11A16863   2.800   5.830   2.128 -1.9072  2.3223  0.9867
  152OSM   H11B16864   2.729   5.929   1.997 -0.3320 -0.7838 -0.2063
  152OSM      P16865   3.068   5.877   2.074 -0.4559 -0.2685  0.0704
  152OSM    O1316866   3.038   5.750   2.141  0.2020 -0.2297  0.2131
  152OSM    O1416867   3.167   5.872   1.963 -0.4378 -0.1780  0.4909
  152OSM    O1116868   3.103   5.991   2.178 -0.7815 -0.1111 -0.3618
  152OSM    O1216869   2.933   5.933   2.014  0.0060 -0.3950  0.2236
  152OSM    C1S16870   3.015   6.033   2.276  0.1643 -0.6205 -0.1784
  152OSM    H1S16871   2.943   5.955   2.309  0.1523 -0.7584 -0.5255
  152OSM    H1T16872   2.962   6.125   2.244  1.4897  0.7410  1.3676
  152OSM     NF16873   3.007   6.115   2.516  0.4993 -0.0586 -0.3778
  152OSM    HNF16874   3.004   6.210   2.548  0.5714 -0.2114  0.0758
  152OSM    C2S16875   3.095   6.075   2.408 -0.4339 -0.1068 -0.1365
  152OSM    H2S16876   3.151   5.988   2.450 -0.9810 -1.1913 -1.5819
  152OSM    C3S16877   3.206   6.185   2.379  0.8316 -0.0071  0.5392
  152OSM    H3S16878   3.153   6.279   2.354 -2.0994 -1.9311 -1.0740
  152OSM     O316879   3.296   6.153   2.276 -0.4513 -0.5853 -0.3619
  152OSM    HO316880   3.261   6.076   2.232 -0.8709  0.3445 -1.7229
  152OSM    C4S16881   3.293   6.216   2.506  0.4302  0.4141  0.3070
  152OSM    H4S16882   3.238   6.282   2.575 -0.5887 -1.1726  1.0545
  152OSM    C5S16883   3.412   6.172   2.545  0.1799  0.8923 -0.2886
  152OSM    H5S16884   3.464   6.093   2.489 -2.5394 -2.0175  1.0247
  152OSM    C6S16885   3.489   6.207   2.675  0.1920  0.0183 -0.5102
  152OSM    H6S16886   3.582   6.263   2.651 -0.0156  1.2621  1.3748
  152OSM    H6T16887   3.515   6.114   2.730 -1.1211 -0.0472  0.0434
  152OSM    C7S16888   3.403   6.299   2.763  0.0496  0.0105  0.6682
  152OSM    H7S16889   3.306   6.255   2.793 -0.1320  0.6116  0.9777
  152OSM    H7T16890   3.385   6.391   2.704  0.3756 -0.5350 -0.2937
  152OSM    C8S16891   3.489   6.346   2.881 -0.0435  0.0414  0.0171
  152OSM    H8S16892   3.582   6.400   2.853 -0.2943  0.1418 -0.6351
  152OSM    H8T16893   3.524   6.259   2.941  1.1026  1.8774  2.1669
  152OSM    C9S16894   3.409   6.445   2.968  0.5365 -0.0623 -0.5021
  152OSM    H9S16895   3.332   6.391   3.028  0.6098 -0.3458 -0.6586
  152OSM    H9T16896   3.353   6.523   2.912 -0.3585  1.4210  2.2724
  152OSM   C10S16897   3.502   6.516   3.065  0.3412 -0.4393  0.1670
  152OSM   H10S16898   3.568   6.586   3.010 -0.2111  0.0579  0.1287
  152OSM   H10T16899   3.565   6.432   3.101 -0.4386 -1.1197 -0.0055
  152OSM   C11S16900   3.421   6.585   3.172  0.5034  0.5456 -0.7156
  152OSM   H11S16901   3.348   6.511   3.211  0.3471  0.8689 -0.3979
  152OSM   H11T16902   3.360   6.672   3.139 -0.7226  1.6738  3.8547
  152OSM   C12S16903   3.496   6.634   3.289 -0.3617  0.5885  0.0471
  152OSM   H12S16904   3.559   6.718   3.250  0.1012  0.1513 -0.1628
  152OSM   H12T16905   3.559   6.548   3.319 -0.6483  0.5211  0.4664
  152OSM   C13S16906   3.399   6.694   3.395 -0.0733  0.1122 -1.0020
  152OSM   H13S16907   3.323   6.626   3.439  1.8830 -0.6658  1.3802
  152OSM   H13T16908   3.341   6.778   3.353 -0.2777 -0.2786 -1.5085
  152OSM   C14S16909   3.471   6.756   3.517 -0.2440 -0.1788  0.8105
  152OSM   H14S16910   3.536   6.843   3.495 -1.9750  0.9943  0.1485
  152OSM   H14T16911   3.541   6.680   3.559  2.2067  1.3802 -0.2329
  152OSM   C15S16912   3.379   6.787   3.635  0.4207 -0.2366 -0.0971
  152OSM   H15S16913   3.319   6.697   3.661  2.1671 -1.2445  0.6222
  152OSM   H15T16914   3.308   6.869   3.609  0.1372 -0.2354  0.6526
  152OSM   C16S16915   3.456   6.829   3.762  0.0654  0.1706  0.8215
  152OSM   H16S16916   3.469   6.940   3.762  0.3573  0.1864 -1.2635
  152OSM   H16T16917   3.558   6.786   3.760  0.4764  1.1064 -0.4657
  152OSM   C17S16918   3.377   6.809   3.893 -0.2761 -0.5973 -0.8544
  152OSM   H17S16919   3.351   6.701   3.892  1.0642 -0.9427 -1.1625
  152OSM   H17T16920   3.283   6.867   3.896 -0.9397 -1.6855  0.9467
  152OSM   C18S16921   3.451   6.849   4.019  0.1232 -0.0747 -0.2675
  152OSM   H18S16922   3.543   6.786   4.021 -0.7421 -1.4373 -1.3106
  152OSM   H18T16923   3.394   6.836   4.113  2.7443  1.9981  1.7681
  152OSM   H18U16924   3.503   6.947   4.022  0.1382 -0.0657  3.2549
  152OSM    C1F16925   2.930   6.027   2.574 -0.0038 -0.4077  0.0566
  152OSM     OF16926   2.940   5.912   2.537 -0.0376 -0.2815  0.4916
  152OSM    C2F16927   2.848   6.066   2.683  0.6501 -0.5526  0.3087
  152OSM    H2F16928   2.772   5.987   2.699  0.4414 -0.6340 -0.9901
  152OSM    H2G16929   2.797   6.161   2.657  0.1739 -0.5866  1.0794
  152OSM    C3F16930   2.939   6.080   2.811 -0.2973 -0.2299  0.6425
  152OSM    H3F16931   3.008   6.163   2.785 -1.8722  1.2545  1.0201
  152OSM    H3G16932   3.003   5.989   2.821  1.6024  0.6582 -2.2379
  152OSM    C4F16933   2.867   6.083   2.949 -0.4808  0.0339  0.6714
  152OSM    H4F16934   2.942   6.053   3.025  1.2696  0.0144 -0.9856
  152OSM    H4G16935   2.785   6.008   2.947  0.9804 -1.6977 -2.2400
  152OSM    C5F16936   2.825   6.230   2.983 -0.1249  0.7259 -0.6667
  152OSM    H5F16937   2.778   6.277   2.894 -2.1861 -2.2531 -1.2979
  152OSM    H5G16938   2.919   6.280   3.014 -0.6854  1.5478 -0.2607
  152OSM    C6F16939   2.741   6.247   3.110 -0.3159 -0.8752  0.2386
  152OSM    H6F16940   2.721   6.354   3.129  2.1054 -0.6738  2.0478
  152OSM    H6G16941   2.797   6.211   3.199  0.3991  1.5493  0.8413
  152OSM    C7F16942   2.602   6.172   3.092  0.9254 -0.0657 -0.7720
  152OSM    H7F16943   2.619   6.063   3.085 -2.5909 -0.7500 -0.2794
  152OSM    H7G16944   2.557   6.193   2.993  0.4542 -0.7170 -0.7038
  152OSM    C8F16945   2.509   6.194   3.215  0.6829  0.4903 -0.2225
  152OSM    H8F16946   2.559   6.168   3.310  0.8459 -2.7790 -1.0682
  152OSM    H8G16947   2.422   6.127   3.202  0.0945  1.2483 -0.2714
  152OSM    C9F16948   2.455   6.335   3.207  0.2751 -0.3980  0.8983
  152OSM    H9F16949   2.408   6.369   3.113 -1.0940 -0.4266  1.5540
  152OSM   C10F16950   2.460   6.424   3.304 -0.0183  0.7057 -0.2609
  152OSM   H10F16951   2.413   6.522   3.290  1.7328  1.4500 -1.3776
  152OSM   C11F16952   2.514   6.409   3.445 -0.0666  0.6255  0.4610
  152OSM   H11F16953   2.569   6.503   3.466  0.7801 -0.5978  4.5380
  152OSM   H11G16954   2.590   6.330   3.457 -1.6692 -0.8434  1.3724
  152OSM   C12F16955   2.395   6.379   3.540 -0.4454 -0.2852 -0.7824
  152OSM   H12F16956   2.317   6.451   3.508 -0.8959 -0.8388 -0.9445
  152OSM   H12G16957   2.423   6.400   3.646 -1.4217 -0.7445 -0.4144
  152OSM   C13F16958   2.317   6.246   3.539  0.1178 -0.7370  0.3430
  152OSM   H13F16959   2.390   6.162   3.536  2.2836  1.0947 -0.3142
  152OSM   H13G16960   2.254   6.245   3.447 -0.3634  1.2892  0.6172
  152OSM   C14F16961   2.214   6.230   3.653  0.2953 -0.9301 -0.0425
  152OSM   H14F16962   2.121   6.284   3.626 -0.2528 -0.6046  2.2542
  152OSM   H14G16963   2.249   6.280   3.746  0.4875  0.1559 -0.6822
  152OSM   C15F16964   2.180   6.088   3.692 -0.3168 -0.9269  0.4631
  152OSM   H15F16965   2.269   6.027   3.716  2.0176  1.4656 -1.5048
  152OSM   H15G16966   2.131   6.041   3.604 -0.1290 -0.5895  0.1754
  152OSM   C16F16967   2.076   6.084   3.801  0.3285 -0.3753 -0.2268
  152OSM   H16F16968   1.979   6.120   3.760  1.3038  1.1110 -1.3376
  152OSM   H16G16969   2.119   6.141   3.885 -1.2328  1.0716 -0.3604
  152OSM   C17F16970   2.060   5.937   3.846 -0.7895 -0.8798  0.2127
  152OSM   H17F16971   2.158   5.899   3.879 -1.5511 -2.4574  0.7261
  152OSM   H17G16972   2.026   5.865   3.769  2.2189 -0.7983 -1.3637
  152OSM   C18F16973   1.968   5.929   3.971 -1.0374 -0.3975 -0.0502
  152OSM   H18F16974   1.935   5.826   3.995  1.5317 -1.0730  0.9845
  152OSM   H18G16975   1.876   5.984   3.944 -1.3676 -0.8767  0.0880
  152OSM   H18H16976   2.022   5.964   4.062  1.4132 -1.9746 -0.8137
  153OSM      N16977   2.602   6.544   1.952  0.4026  0.0892 -0.6768
  153OSM    C1516978   2.626   6.666   1.867  0.2112 -0.2319 -0.1768
  153OSM   H15A16979   2.670   6.635   1.774 -1.9271  0.0057 -1.3245
  153OSM   H15B16980   2.689   6.730   1.927 -1.2995 -1.3941  2.8905
  153OSM   H15C16981   2.524   6.701   1.858  0.2909  0.7226  2.0697
  153OSM    C1416982   2.528   6.569   2.087  0.9838 -0.0162 -0.6942
  153OSM   H14A16983   2.432   6.616   2.072  1.4475  0.2088 -3.6656
  153OSM   H14B16984   2.590   6.631   2.150 -1.7590  1.0766  1.1064
  153OSM   H14C16985   2.509   6.476   2.138 -2.2285  0.5271 -0.7277
  153OSM    C1316986   2.523   6.446   1.874  0.6375 -0.5368 -0.0173
  153OSM   H13A16987   2.433   6.499   1.847 -1.4726 -2.3479  2.8435
  153OSM   H13B16988   2.475   6.368   1.932  1.4185 -0.8372  0.2414
  153OSM   H13C16989   2.586   6.396   1.802 -1.2935 -0.6654 -1.6824
  153OSM    C1216990   2.733   6.480   1.995 -0.2461 -0.0105  0.2856
  153OSM   H12A16991   2.790   6.452   1.908 -1.1837 -0.0489 -0.3280
  153OSM   H12B16992   2.715   6.381   2.034 -2.0720 -1.1967 -3.1710
  153OSM    C1116993   2.831   6.552   2.093  0.3929  0.1941  0.0012
  153OSM   H11A16994   2.852   6.657   2.062 -0.9216  1.2153  2.2861
  153OSM   H11B16995   2.933   6.509   2.092  1.0760  1.7336 -0.2031
  153OSM      P16996   2.770   6.418   2.314  0.2701  0.5557 -0.5338
  153OSM    O1316997   2.675   6.431   2.425  0.1710  0.6641  0.5026
  153OSM    O1416998   2.746   6.297   2.230 -0.1496 -0.0971 -0.7713
  153OSM    O1116999   2.916   6.415   2.382 -0.4541 -0.0631  0.3347
  153OSM    O1217000   2.770   6.547   2.225 -0.1373 -0.3930 -0.3514
  153OSM    C1S17001   2.989   6.541   2.406 -0.3211 -0.4392 -0.3431
  153OSM    H1S17002   2.965   6.624   2.336 -1.9788 -0.3908  0.2242
  153OSM    H1T17003   3.093   6.521   2.371  0.5183  0.4198  1.5008
  153OSM     NF17004   3.072   6.727   2.552 -1.0203  0.2540 -0.3754
  153OSM    HNF17005   3.169   6.709   2.567 -0.4530  1.9827 -1.6815
  153OSM    C2S17006   2.990   6.606   2.551 -0.2041  0.2773  0.0418
  153OSM    H2S17007   2.884   6.633   2.572 -0.5534 -1.5592  0.8196
  153OSM    C3S17008   3.032   6.494   2.658 -0.0305  0.0703 -0.5752
  153OSM    H3S17009   3.134   6.458   2.634  0.4891  1.4200 -0.4903
  153OSM     O317010   2.961   6.374   2.655 -0.0833  0.0329 -0.0683
  153OSM    HO317011   2.909   6.385   2.576 -1.8923  2.8348  1.3593
  153OSM    C4S17012   3.043   6.553   2.800 -0.0301  0.9560  0.1777
  153OSM    H4S17013   3.145   6.582   2.828  0.9704 -0.7181 -1.4980
  153OSM    C5S17014   2.933   6.573   2.883 -0.1809 -0.2803  0.0554
  153OSM    H5S17015   2.832   6.568   2.841 -0.6767  1.0425  1.0406
  153OSM    C6S17016   2.948   6.658   3.009  0.1946  0.1481  0.5275
  153OSM    H6S17017   2.857   6.720   3.017 -0.4762 -0.7493 -0.0264
  153OSM    H6T17018   3.038   6.723   3.014  0.4095 -0.1307  0.2841
  153OSM    C7S17019   2.965   6.570   3.135  0.1692  0.3960  1.0683
  153OSM    H7S17020   3.050   6.499   3.130 -0.9849 -0.9671 -0.2382
  153OSM    H7T17021   2.881   6.499   3.147  0.0962  0.3702  0.4615
  153OSM    C8S17022   2.990   6.645   3.257 -0.1597 -0.0192  0.2172
  153OSM    H8S17023   2.906   6.717   3.267  1.7373  2.5059 -0.9069
  153OSM    H8T17024   3.075   6.715   3.238 -1.9410  2.3331  0.3928
  153OSM    C9S17025   3.020   6.553   3.383  0.3271 -0.7131 -0.5320
  153OSM    H9S17026   3.106   6.486   3.361  1.2710  0.5966 -0.9992
  153OSM    H9T17027   2.924   6.504   3.411 -0.6514  0.7565 -1.1817
  153OSM   C10S17028   3.047   6.636   3.508 -0.0822 -0.4789 -0.2570
  153OSM   H10S17029   3.135   6.703   3.499  0.2979 -1.0530 -0.9106
  153OSM   H10T17030   3.081   6.575   3.595  0.3197  1.1074  0.7556
  153OSM   C11S17031   2.922   6.718   3.558  0.5125  0.2399 -0.1574
  153OSM   H11S17032   2.884   6.786   3.480  0.4949  0.9781  0.4817
  153OSM   H11T17033   2.947   6.781   3.646 -0.4610 -0.0852  0.3722
  153OSM   C12S17034   2.797   6.630   3.605 -0.3818 -0.3655 -0.0001
  153OSM   H12S17035   2.838   6.526   3.604  0.4945 -0.0995  2.1508
  153OSM   H12T17036   2.723   6.642   3.524  1.6961  0.1346 -1.9338
  153OSM   C13S17037   2.741   6.661   3.743 -0.0125  1.0716 -0.1238
  153OSM   H13S17038   2.726   6.770   3.756 -1.3724  1.0470 -1.2533
  153OSM   H13T17039   2.818   6.629   3.817  0.2141 -2.5676 -1.6931
  153OSM   C14S17040   2.599   6.603   3.779  0.2838 -0.5304  0.0507
  153OSM   H14S17041   2.611   6.493   3.769  3.0865 -0.2064 -1.1769
  153OSM   H14T17042   2.533   6.638   3.697  0.6340 -0.3432 -0.1552
  153OSM   C15S17043   2.550   6.654   3.916  0.4391  0.1131  0.1808
  153OSM   H15S17044   2.516   6.760   3.911 -0.0545 -0.0919 -1.1171
  153OSM   H15T17045   2.628   6.642   3.994  1.0273 -3.1781 -0.7493
  153OSM   C16S17046   2.429   6.567   3.963  0.2199 -0.9372  0.4795
  153OSM   H16S17047   2.404   6.584   4.070  0.8678  4.3137  0.0648
  153OSM   H16T17048   2.465   6.462   3.958  4.1313  0.2730 -0.5582
  153OSM   C17S17049   2.305   6.593   3.888  0.4282  0.1559 -0.0204
  153OSM   H17S17050   2.323   6.581   3.779  1.8916  0.8422  0.1127
  153OSM   H17T17051   2.276   6.699   3.901 -2.8742 -0.7770  1.0353
  153OSM   C18S17052   2.182   6.516   3.948  0.5141  0.4284 -0.6360
  153OSM   H18S17053   2.086   6.525   3.893 -1.7978 -1.6476  2.6905
  153OSM   H18T17054   2.170   6.539   4.056  2.0188  1.4976 -0.6649
  153OSM   H18U17055   2.210   6.408   3.951 -0.5242  0.1626 -0.0025
  153OSM    C1F17056   3.034   6.845   2.530 -0.1469 -0.7310  0.0834
  153OSM     OF17057   2.916   6.870   2.514 -0.3312 -0.4991  0.1081
  153OSM    C2F17058   3.139   6.950   2.542  0.0765 -0.3307 -0.1064
  153OSM    H2F17059   3.168   6.972   2.437  0.7079  2.3409  0.5541
  153OSM    H2G17060   3.237   6.915   2.582  0.2922 -0.1849 -0.4963
  153OSM    C3F17061   3.095   7.082   2.608 -0.2510 -0.1376  0.5576
  153OSM    H3F17062   3.016   7.120   2.540  0.0936 -0.6032 -0.1138
  153OSM    H3G17063   3.182   7.150   2.593 -1.4962  1.1804 -1.1277
  153OSM    C4F17064   3.042   7.089   2.751  0.3103 -0.3003 -0.2504
  153OSM    H4F17065   2.965   7.011   2.769 -1.6519  1.8088  1.0316
  153OSM    H4G17066   3.003   7.192   2.761  0.5736 -0.4141  2.8526
  153OSM    C5F17067   3.152   7.063   2.861 -0.2762  0.5364  0.3893
  153OSM    H5F17068   3.243   7.112   2.819 -0.0156  0.3142  0.6870
  153OSM    H5G17069   3.175   6.956   2.878 -0.8542  0.2751 -0.4110
  153OSM    C6F17070   3.104   7.122   2.997  0.1617  0.4559  0.0085
  153OSM    H6F17071   3.026   7.050   3.032  0.1843  0.4380  0.0220
  153OSM    H6G17072   3.060   7.224   2.994 -0.2389  0.2654 -0.8256
  153OSM    C7F17073   3.212   7.120   3.108  0.5365  0.9013  0.1725
  153OSM    H7F17074   3.250   7.222   3.131  1.8633  0.1417  1.5255
  153OSM    H7G17075   3.294   7.052   3.076 -0.8712 -0.5618 -0.4629
  153OSM    C8F17076   3.169   7.062   3.239 -0.4977 -0.0589 -0.3276
  153OSM    H8F17077   3.143   6.954   3.231  0.6651 -0.5016  1.2874
  153OSM    H8G17078   3.072   7.109   3.266 -0.5517 -0.8551  0.9425
  153OSM    C9F17079   3.253   7.078   3.368  0.5868  0.4115  0.1286
  153OSM    H9F17080   3.362   7.062   3.360  0.4083 -0.4039 -0.9452
  153OSM   C10F17081   3.217   7.118   3.490 -0.4600 -0.4954  0.1769
  153OSM   H10F17082   3.295   7.125   3.568  1.1150 -1.2771 -1.2773
  153OSM   C11F17083   3.076   7.148   3.539 -0.1961  0.2697 -0.2402
  153OSM   H11F17084   3.001   7.101   3.471 -1.1356  0.6510  0.5125
  153OSM   H11G17085   3.059   7.256   3.555  1.6884  0.6437 -0.5972
  153OSM   C12F17086   3.057   7.094   3.681 -0.8513  0.2106  0.3655
  153OSM   H12F17087   3.074   6.984   3.679 -1.6856  0.0766  0.2844
  153OSM   H12G17088   2.950   7.121   3.699 -0.3312  2.4591  0.4201
  153OSM   C13F17089   3.144   7.145   3.793 -0.7642  0.3356 -0.0199
  153OSM   H13F17090   3.250   7.115   3.776 -0.4162 -0.6034  3.1381
  153OSM   H13G17091   3.129   7.081   3.882  1.8271 -0.7764 -0.2726
  153OSM   C14F17092   3.131   7.287   3.834  0.2620  0.1693  0.5645
  153OSM   H14F17093   3.026   7.294   3.867  0.4522  1.6602  0.9213
  153OSM   H14G17094   3.144   7.363   3.754 -2.9747  1.2250  0.9086
  153OSM   C15F17095   3.215   7.298   3.960 -0.2827 -0.1494 -0.1440
  153OSM   H15F17096   3.322   7.277   3.936 -0.5941  0.2605 -2.0449
  153OSM   H15G17097   3.179   7.224   4.035 -0.3668 -0.7314 -0.7570
  153OSM   C16F17098   3.202   7.436   4.038 -0.5447 -0.1672  0.3581
  153OSM   H16F17099   3.093   7.452   4.051 -0.9714  0.1050 -2.6871
  153OSM   H16G17100   3.251   7.516   3.977  1.7342 -0.3038  1.8897
  153OSM   C17F17101   3.267   7.431   4.177  0.9233 -0.0866  1.0158
  153OSM   H17F17102   3.378   7.417   4.176  1.1854  1.8253  0.7267
  153OSM   H17G17103   3.224   7.334   4.212 -0.3052 -0.7289 -1.9722
  153OSM   C18F17104   3.226   7.555   4.262  0.2175  0.0104 -0.0208
  153OSM   H18F17105   3.117   7.553   4.283 -0.3206  1.2477 -2.2984
  153OSM   H18G17106   3.237   7.650   4.206  1.6023  1.2780  2.2600
  153OSM   H18H17107   3.281   7.567   4.357 -2.3588  1.5025  1.3857
  154OSM      N17108   6.475   6.118   1.782  0.4739 -0.1056 -0.6780
  154OSM    C1517109   6.534   6.231   1.704  0.3812 -0.1418  0.0888
  154OSM   H15A17110   6.637   6.214   1.677 -0.1563 -0.1919 -2.1380
  154OSM   H15B17111   6.543   6.324   1.758 -2.4042  0.6040 -0.5444
  154OSM   H15C17112   6.478   6.230   1.612  1.3704  1.0245 -0.5444
  154OSM    C1417113   6.544   6.104   1.914  0.4241 -0.4635 -0.2211
  154OSM   H14A17114   6.494   6.031   1.976 -0.1965  0.7476  0.7517
  154OSM   H14B17115   6.544   6.189   1.981  3.9922 -0.1575 -0.4333
  154OSM   H14C17116   6.650   6.087   1.908  0.6729  0.7858  0.3653
  154OSM    C1317117   6.333   6.148   1.813  0.0519  0.0869 -0.1506
  154OSM   H13A17118   6.281   6.189   1.727 -0.1028  1.3308  0.5149
  154OSM   H13B17119   6.328   6.219   1.894  1.0270 -0.5209  0.4574
  154OSM   H13C17120   6.286   6.058   1.848 -0.2460  0.9107  1.7268
  154OSM    C1217121   6.488   5.987   1.712  1.2545  0.3665  0.2153
  154OSM   H12A17122   6.584   5.971   1.664  0.3589 -1.9439 -0.9728
  154OSM   H12B17123   6.426   5.987   1.623 -0.9015 -0.1637  1.6592
  154OSM    C1117124   6.440   5.859   1.788  0.1849  0.1190 -0.2871
  154OSM   H11A17125   6.473   5.862   1.894 -0.4533 -0.0084 -0.0809
  154OSM   H11B17126   6.483   5.771   1.736  2.5137  0.8314  0.3273
  154OSM      P17127   6.228   5.710   1.811 -0.1871 -0.0953 -0.1185
  154OSM    O1317128   6.091   5.725   1.766 -0.4512 -0.1331  0.2688
  154OSM    O1417129   6.309   5.609   1.747 -0.3758  0.4284  0.0388
  154OSM    O1117130   6.230   5.688   1.965  0.0868 -0.1390 -0.4757
  154OSM    O1217131   6.299   5.850   1.793  0.0774 -0.1949  0.0031
  154OSM    C1S17132   6.183   5.802   2.045  0.2043 -0.0544 -0.1219
  154OSM    H1S17133   6.087   5.836   2.002  1.5793  0.7977 -2.7191
  154OSM    H1T17134   6.257   5.883   2.028  0.2280 -0.5842 -3.0905
  154OSM     NF17135   6.129   5.865   2.273  0.8168  0.5242  0.0274
  154OSM    HNF17136   6.185   5.932   2.321 -0.6338 -0.0275  2.6848
  154OSM    C2S17137   6.196   5.769   2.192 -0.4614 -0.1511  0.3406
  154OSM    H2S17138   6.143   5.674   2.215 -0.0948 -1.0868 -2.3548
  154OSM    C3S17139   6.345   5.746   2.238 -0.5504  0.3655 -0.3407
  154OSM    H3S17140   6.402   5.841   2.231  1.5556 -0.9612 -2.7548
  154OSM     O317141   6.426   5.667   2.149  0.5905 -0.0984  0.5335
  154OSM    HO317142   6.359   5.649   2.084 -1.7312 -1.9743  3.2091
  154OSM    C4S17143   6.349   5.689   2.376 -0.2338 -0.2638  0.0650
  154OSM    H4S17144   6.269   5.614   2.383 -1.7880  1.2102 -1.0168
  154OSM    C5S17145   6.419   5.738   2.479  0.0978  0.3015 -0.4407
  154OSM    H5S17146   6.496   5.817   2.474 -0.9075  1.3467  0.2324
  154OSM    C6S17147   6.413   5.674   2.615 -0.1637  0.0701 -0.0970
  154OSM    H6S17148   6.515   5.651   2.652 -0.0006  0.6141 -0.1999
  154OSM    H6T17149   6.369   5.573   2.606  0.3554 -0.3017  1.2480
  154OSM    C7S17150   6.340   5.764   2.717 -0.5330  0.1701 -0.2406
  154OSM    H7S17151   6.240   5.784   2.673 -0.6599  0.0555 -0.0027
  154OSM    H7T17152   6.391   5.862   2.733 -2.2259  0.9453  0.6637
  154OSM    C8S17153   6.308   5.707   2.851  0.3957  0.0217 -0.0900
  154OSM    H8S17154   6.255   5.792   2.900 -0.5634  0.7079 -2.1721
  154OSM    H8T17155   6.400   5.692   2.911  0.5353 -1.9335 -0.7410
  154OSM    C9S17156   6.225   5.584   2.868  0.2935 -0.3753 -0.1222
  154OSM    H9S17157   6.286   5.498   2.833  4.0324  2.2799 -0.6409
  154OSM    H9T17158   6.129   5.579   2.812  0.5802 -0.3711 -0.6175
  154OSM   C10S17159   6.195   5.556   3.025 -1.3398 -0.8545  0.5359
  154OSM   H10S17160   6.136   5.642   3.064  2.2785  1.0110  2.4188
  154OSM   H10T17161   6.291   5.572   3.079 -0.8406 -1.3527 -0.1920
  154OSM   C11S17162   6.148   5.424   3.066 -0.1308 -0.4002 -0.3071
  154OSM   H11S17163   6.227   5.351   3.039  0.0550 -0.4319  0.3084
  154OSM   H11T17164   6.054   5.388   3.020 -0.8951  2.5492 -1.3208
  154OSM   C12S17165   6.130   5.422   3.218  0.2211 -0.7757  0.6958
  154OSM   H12S17166   6.054   5.493   3.256  1.0066 -0.5883  1.9646
  154OSM   H12T17167   6.231   5.461   3.242  0.6540 -1.3438 -0.1322
  154OSM   C13S17168   6.115   5.274   3.275  0.1941 -0.5302  0.1030
  154OSM   H13S17169   6.216   5.228   3.282 -0.7315 -2.5651  0.6224
  154OSM   H13T17170   6.061   5.215   3.198  0.1685 -1.7504  1.0384
  154OSM   C14S17171   6.053   5.274   3.411  0.1864 -0.1202  0.8106
  154OSM   H14S17172   6.017   5.173   3.440  0.5124 -0.0131  1.6089
  154OSM   H14T17173   5.965   5.340   3.395  1.5237  1.0372 -2.5762
  154OSM   C15S17174   6.148   5.336   3.517 -0.2940  0.0029  0.6783
  154OSM   H15S17175   6.170   5.445   3.511  0.7999 -0.0214  3.0292
  154OSM   H15T17176   6.249   5.288   3.511 -0.6805 -1.3151  3.2577
  154OSM   C16S17177   6.099   5.321   3.660  0.1170 -0.4139  0.3759
  154OSM   H16S17178   5.991   5.339   3.678  0.0671 -2.7139  2.9888
  154OSM   H16T17179   6.156   5.395   3.719 -1.0309  1.2753 -0.5667
  154OSM   C17S17180   6.136   5.188   3.721 -0.0014 -0.2299  0.4804
  154OSM   H17S17181   6.130   5.113   3.639  0.3123  2.0883 -1.7809
  154OSM   H17T17182   6.059   5.172   3.800 -1.6608  0.7309 -0.8883
  154OSM   C18S17183   6.265   5.190   3.802 -0.1074  0.0903  1.4260
  154OSM   H18S17184   6.266   5.257   3.891  0.6123  0.4267  1.1659
  154OSM   H18T17185   6.345   5.228   3.736 -1.3870 -0.9889 -0.8785
  154OSM   H18U17186   6.289   5.088   3.838 -0.0075  0.2813  1.9101
  154OSM    C1F17187   5.994   5.870   2.270 -0.4571  0.0515 -0.2381
  154OSM     OF17188   5.931   5.787   2.209  0.8973  0.4323 -0.0286
  154OSM    C2F17189   5.928   5.989   2.334 -0.2920 -0.2864  0.4393
  154OSM    H2F17190   5.877   6.038   2.249 -0.8467  0.4259  1.1663
  154OSM    H2G17191   6.008   6.052   2.377 -0.4238 -0.4192  0.8830
  154OSM    C3F17192   5.821   5.950   2.441  0.4654 -0.2742  0.5641
  154OSM    H3F17193   5.760   5.866   2.403  0.4677 -0.7519  1.5949
  154OSM    H3G17194   5.743   6.028   2.451 -0.5159 -1.1823  0.1681
  154OSM    C4F17195   5.872   5.912   2.577  0.2558 -0.1924 -0.3938
  154OSM    H4F17196   5.945   5.828   2.574  3.2677  2.1332  1.4915
  154OSM    H4G17197   5.781   5.883   2.633 -0.1505  1.3020 -0.2447
  154OSM    C5F17198   5.938   6.030   2.643 -0.1752 -0.6867 -0.0301
  154OSM    H5F17199   5.874   6.120   2.631  2.2086  0.9460 -1.2492
  154OSM    H5G17200   6.030   6.053   2.586 -1.3993 -1.1363 -2.3247
  154OSM    C6F17201   5.977   6.005   2.784  0.4925 -0.3676 -0.3133
  154OSM    H6F17202   6.032   6.097   2.812  0.5143 -0.6003  0.4268
  154OSM    H6G17203   6.053   5.924   2.794  0.9326 -0.2586 -2.4343
  154OSM    C7F17204   5.868   5.976   2.885  0.0275  0.3394 -0.2338
  154OSM    H7F17205   5.816   5.880   2.867  0.1152  0.4896 -1.3940
  154OSM    H7G17206   5.791   6.055   2.871  0.0585  0.1273 -1.7085
  154OSM    C8F17207   5.920   5.973   3.030 -0.1248  0.8992  0.1090
  154OSM    H8F17208   5.986   5.888   3.059 -2.7985 -0.6170  2.1701
  154OSM    H8G17209   5.829   5.961   3.092 -0.7574  0.0413 -0.9542
  154OSM    C9F17210   5.988   6.107   3.076 -0.1171  0.0819  0.8711
  154OSM    H9F17211   5.966   6.194   3.012  3.2590  1.2901  1.1157
  154OSM   C10F17212   6.095   6.107   3.151 -0.3795  0.2725 -0.0959
  154OSM   H10F17213   6.154   6.200   3.162  0.9112 -0.1033 -2.9459
  154OSM   C11F17214   6.159   6.009   3.249 -0.4499  0.0131 -0.3109
  154OSM   H11F17215   6.255   6.049   3.287  0.4379 -0.6908 -1.7128
  154OSM   H11G17216   6.172   5.913   3.194 -0.1183 -0.5950  0.8031
  154OSM   C12F17217   6.072   5.970   3.373 -0.0438  0.2528 -0.4082
  154OSM   H12F17218   6.109   5.869   3.398 -0.6382 -0.3031 -1.6655
  154OSM   H12G17219   5.966   5.950   3.348  0.0257  0.6793 -1.1037
  154OSM   C13F17220   6.093   6.072   3.484 -0.4186 -0.9659 -0.8021
  154OSM   H13F17221   6.037   6.164   3.454 -0.7165 -0.8636  0.0485
  154OSM   H13G17222   6.198   6.109   3.489 -0.1799 -1.4357 -2.0923
  154OSM   C14F17223   6.038   6.025   3.619 -0.8483 -0.6039  0.9320
  154OSM   H14F17224   6.114   5.946   3.637 -0.7003 -0.5013  0.7537
  154OSM   H14G17225   5.937   5.978   3.617 -0.5009 -1.3478  0.4645
  154OSM   C15F17226   6.033   6.141   3.717 -0.0341  0.2763  0.5191
  154OSM   H15F17227   5.978   6.227   3.674  1.8202  2.1849  1.7411
  154OSM   H15G17228   6.137   6.180   3.728 -0.1528  0.9251 -0.5241
  154OSM   C16F17229   5.989   6.107   3.862 -0.3044 -0.0371  0.6150
  154OSM   H16F17230   6.028   6.007   3.890  1.7309  0.7105  0.5671
  154OSM   H16G17231   5.878   6.114   3.860 -0.1808  2.9219 -0.6762
  154OSM   C17F17232   6.034   6.222   3.953 -0.6268 -0.4505 -0.6022
  154OSM   H17F17233   5.988   6.317   3.918 -1.4442 -1.0782 -1.2544
  154OSM   H17G17234   6.145   6.223   3.950 -0.6134 -1.9826 -2.2661
  154OSM   C18F17235   5.989   6.197   4.101  0.4774  0.2190  0.0103
  154OSM   H18F17236   6.044   6.255   4.178 -0.2379  0.4786  0.3296
  154OSM   H18G17237   6.009   6.091   4.129  0.8817  0.4807  0.7417
  154OSM   H18H17238   5.880   6.217   4.103  0.4931  0.3071 -0.0253
  155OSM      N17239   4.512   6.464   1.983 -0.3873  0.2439  0.0549
  155OSM    C1517240   4.439   6.342   1.938 -0.7876  0.2094  0.4021
  155OSM   H15A17241   4.381   6.299   2.018 -0.0290 -0.5860  0.5467
  155OSM   H15B17242   4.513   6.269   1.907 -1.2341 -0.8016  1.6090
  155OSM   H15C17243   4.377   6.373   1.855 -0.4939  4.7043  1.6052
  155OSM    C1417244   4.582   6.534   1.873 -0.6905 -0.1672  0.1221
  155OSM   H14A17245   4.513   6.579   1.804 -0.1373  0.3440 -0.1109
  155OSM   H14B17246   4.644   6.466   1.817 -0.2745 -1.3085  1.8883
  155OSM   H14C17247   4.639   6.617   1.911 -0.4933  0.3653 -1.2899
  155OSM    C1317248   4.413   6.559   2.042  0.0004  0.0855 -0.2572
  155OSM   H13A17249   4.357   6.506   2.117  0.0619  0.2811 -0.0725
  155OSM   H13B17250   4.339   6.593   1.970 -2.8355 -1.4893  1.7491
  155OSM   H13C17251   4.459   6.639   2.099  1.1215 -0.6393 -0.1241
  155OSM    C1217252   4.610   6.414   2.095  1.3488 -0.6901 -0.0219
  155OSM   H12A17253   4.666   6.329   2.059  0.1993 -1.6827  0.4864
  155OSM   H12B17254   4.551   6.370   2.173  1.0182  0.6650  0.5198
  155OSM    C1117255   4.700   6.509   2.173  0.3270 -0.5041  0.2295
  155OSM   H11A17256   4.752   6.465   2.260 -0.7770  0.2753  1.3165
  155OSM   H11B17257   4.639   6.594   2.213 -0.5710  0.5965 -3.1163
  155OSM      P17258   4.919   6.504   2.028 -0.0408  0.2798 -0.2248
  155OSM    O1317259   4.888   6.364   2.000 -0.2777  0.1786  0.5498
  155OSM    O1417260   4.977   6.585   1.921 -0.4338  0.0755 -0.0110
  155OSM    O1117261   5.014   6.503   2.155 -0.9014  0.4911 -0.4875
  155OSM    O1217262   4.786   6.572   2.073 -0.1928 -0.3749 -0.6591
  155OSM    C1S17263   5.027   6.630   2.231  0.2485 -0.1596  0.3068
  155OSM    H1S17264   4.929   6.681   2.229  0.6834  0.6736 -0.8909
  155OSM    H1T17265   5.106   6.695   2.188  0.6064 -1.0818 -0.4667
  155OSM     NF17266   5.067   6.737   2.459 -0.0956  0.3461  0.3828
  155OSM    HNF17267   5.153   6.766   2.499  0.0703  0.0445  0.2520
  155OSM    C2S17268   5.072   6.610   2.379 -0.6680 -0.2516  0.4493
  155OSM    H2S17269   5.000   6.540   2.426  0.7836 -2.2446 -0.1341
  155OSM    C3S17270   5.212   6.537   2.376 -0.6100 -0.4932  0.2972
  155OSM    H3S17271   5.275   6.606   2.316 -1.8794  0.2878 -0.1795
  155OSM     O317272   5.220   6.418   2.295 -0.2063 -0.4778 -0.5655
  155OSM    HO317273   5.130   6.421   2.260  0.0333  1.6186 -1.1601
  155OSM    C4S17274   5.273   6.511   2.506  0.3656  0.4285 -0.5194
  155OSM    H4S17275   5.215   6.429   2.550  1.5786 -1.0037 -1.4925
  155OSM    C5S17276   5.387   6.555   2.557 -0.3284 -0.7361 -0.7540
  155OSM    H5S17277   5.446   6.631   2.502 -2.3610  1.3721 -0.1780
  155OSM    C6S17278   5.450   6.507   2.684 -0.0230 -0.7599  0.5614
  155OSM    H6S17279   5.400   6.415   2.721 -0.4018 -0.2730  1.2879
  155OSM    H6T17280   5.434   6.593   2.752  2.1497  0.0048  0.1878
  155OSM    C7S17281   5.599   6.459   2.666 -0.0985  0.1433 -0.0862
  155OSM    H7S17282   5.661   6.550   2.652  1.5839 -1.2962 -2.7566
  155OSM    H7T17283   5.603   6.393   2.577  0.5458 -0.5610  0.4494
  155OSM    C8S17284   5.669   6.382   2.788 -0.3221  0.2428  0.6491
  155OSM    H8S17285   5.778   6.383   2.765 -0.6344  1.0881 -0.9022
  155OSM    H8T17286   5.633   6.276   2.790 -0.4355  0.2783  0.5256
  155OSM    C9S17287   5.640   6.431   2.923 -0.4593  0.1223 -0.0795
  155OSM    H9S17288   5.529   6.428   2.927 -0.4463 -0.1906  0.0459
  155OSM    H9T17289   5.669   6.538   2.936  0.6740  0.0373 -1.6304
  155OSM   C10S17290   5.688   6.338   3.037  0.2469  0.0633 -0.0310
  155OSM   H10S17291   5.798   6.340   3.054  0.4368  1.7607 -1.2520
  155OSM   H10T17292   5.657   6.236   3.005 -1.3982  1.2351 -2.4706
  155OSM   C11S17293   5.627   6.367   3.168 -0.2975 -0.3953  0.0724
  155OSM   H11S17294   5.529   6.414   3.147  0.0183 -0.2703 -1.2110
  155OSM   H11T17295   5.695   6.441   3.216 -1.4466 -1.1038  2.9601
  155OSM   C12S17296   5.601   6.254   3.265  1.3567  0.1662 -0.2919
  155OSM   H12S17297   5.552   6.174   3.206 -1.0129  1.4420 -0.1631
  155OSM   H12T17298   5.535   6.291   3.346  0.8942 -0.4771 -0.3717
  155OSM   C13S17299   5.723   6.193   3.337 -0.3871  0.3433 -0.0321
  155OSM   H13S17300   5.813   6.251   3.307  1.9960 -0.5557  4.4014
  155OSM   H13T17301   5.731   6.086   3.307  0.3901  0.1879  0.6719
  155OSM   C14S17302   5.724   6.230   3.488 -0.1894 -0.0919  0.0622
  155OSM   H14S17303   5.815   6.182   3.530  0.5034 -0.0849 -1.3716
  155OSM   H14T17304   5.637   6.199   3.549  1.8943 -0.1952  3.2198
  155OSM   C15S17305   5.720   6.384   3.510  0.4476  0.2407 -0.2717
  155OSM   H15S17306   5.643   6.436   3.449  0.7976  0.5365 -0.4652
  155OSM   H15T17307   5.819   6.425   3.481  0.4673  1.7033  1.6783
  155OSM   C16S17308   5.705   6.424   3.658 -0.3802 -0.0859 -0.2548
  155OSM   H16S17309   5.767   6.353   3.716  1.0236  0.0060 -1.5898
  155OSM   H16T17310   5.596   6.414   3.677  0.1320 -2.9397  1.7499
  155OSM   C17S17311   5.758   6.570   3.692 -0.3015 -0.0022 -0.0920
  155OSM   H17S17312   5.699   6.643   3.633 -1.1036  0.5685  1.3440
  155OSM   H17T17313   5.867   6.567   3.674 -0.0343 -1.2161  1.4713
  155OSM   C18S17314   5.756   6.611   3.839 -0.2694  1.0188 -0.1193
  155OSM   H18S17315   5.663   6.583   3.892  1.1611 -3.3102  0.5141
  155OSM   H18T17316   5.793   6.712   3.868  1.0473 -0.0310  2.0995
  155OSM   H18U17317   5.821   6.543   3.897  0.0835  2.0144  0.6783
  155OSM    C1F17318   4.949   6.802   2.475 -0.7831  0.0305 -0.8165
  155OSM     OF17319   4.844   6.741   2.465  0.7695  0.2208  0.2902
  155OSM    C2F17320   4.959   6.947   2.522  0.2653 -0.1410  0.2019
  155OSM    H2F17321   5.020   6.996   2.444  0.0193  1.5161  1.0101
  155OSM    H2G17322   5.000   6.952   2.626 -2.2958  1.2291  1.2223
  155OSM    C3F17323   4.822   7.022   2.520 -0.3798  0.3501 -0.4094
  155OSM    H3F17324   4.750   6.966   2.583 -1.0438 -0.2928 -1.7038
  155OSM    H3G17325   4.780   7.028   2.417  0.9646 -3.8135 -1.4129
  155OSM    C4F17326   4.839   7.164   2.578 -0.1620 -0.0500 -0.2587
  155OSM    H4F17327   4.748   7.224   2.562  0.7368  1.4036 -0.0958
  155OSM    H4G17328   4.919   7.218   2.524 -0.1890  0.0010 -0.2476
  155OSM    C5F17329   4.865   7.162   2.732  0.3339  0.1589  0.3504
  155OSM    H5F17330   4.853   7.266   2.769 -2.5253  0.5558 -1.4155
  155OSM    H5G17331   4.968   7.125   2.752  0.1549  0.0384  1.0788
  155OSM    C6F17332   4.766   7.083   2.816  0.1975  0.2364 -0.8956
  155OSM    H6F17333   4.799   6.977   2.824 -0.9882 -0.1485 -0.8750
  155OSM    H6G17334   4.672   7.080   2.757 -0.6731  1.1554  0.4205
  155OSM    C7F17335   4.731   7.142   2.952  0.5957  0.1206  0.2107
  155OSM    H7F17336   4.647   7.085   2.996  0.5389 -0.4257 -0.5700
  155OSM    H7G17337   4.703   7.247   2.928  3.2253  1.0369  0.8490
  155OSM    C8F17338   4.849   7.155   3.050  0.6617  0.3409 -0.1391
  155OSM    H8F17339   4.938   7.177   2.988  2.5245  1.9768  2.8736
  155OSM    H8G17340   4.863   7.056   3.099  0.3910 -0.9713 -2.5643
  155OSM    C9F17341   4.841   7.264   3.155 -0.3410  0.4412  0.3825
  155OSM    H9F17342   4.887   7.358   3.121 -0.7037  0.2478 -0.6897
  155OSM   C10F17343   4.798   7.255   3.283  0.5421 -0.6179  0.8237
  155OSM   H10F17344   4.808   7.338   3.355  0.7399 -1.5084  1.8480
  155OSM   C11F17345   4.736   7.138   3.348  0.5500  1.0358 -0.1762
  155OSM   H11F17346   4.691   7.071   3.271  0.9952 -1.1597  1.3914
  155OSM   H11G17347   4.646   7.176   3.400  0.7589 -0.1489  1.0867
  155OSM   C12F17348   4.842   7.072   3.439 -0.0374  0.1089 -0.2182
  155OSM   H12F17349   4.942   7.058   3.393 -0.4191 -0.7176 -0.8195
  155OSM   H12G17350   4.802   6.973   3.471  0.1193  0.0113 -0.3268
  155OSM   C13F17351   4.857   7.146   3.571  0.0748  0.3057  0.3378
  155OSM   H13F17352   4.760   7.136   3.623 -0.7019 -0.4042 -1.1828
  155OSM   H13G17353   4.881   7.252   3.548  0.4167 -0.2045 -1.9556
  155OSM   C14F17354   4.961   7.070   3.660  0.0973  0.8703  0.3405
  155OSM   H14F17355   5.064   7.104   3.636  0.1395  1.4638  1.3107
  155OSM   H14G17356   4.946   6.960   3.658 -1.9022  1.0584  1.8937
  155OSM   C15F17357   4.958   7.114   3.806 -0.3967 -0.4964  0.1832
  155OSM   H15F17358   4.853   7.113   3.843  0.3083 -3.2024  2.4758
  155OSM   H15G17359   4.996   7.218   3.800 -0.1588 -0.3824  2.6277
  155OSM   C16F17360   5.061   7.041   3.900 -0.1037 -0.3962  0.3541
  155OSM   H16F17361   5.071   7.095   3.996  2.0492 -0.6951  0.3498
  155OSM   H16G17362   5.164   7.052   3.858 -1.0744  1.3676 -1.7899
  155OSM   C17F17363   5.030   6.891   3.913 -0.4555  0.2611 -0.1229
  155OSM   H17F17364   5.093   6.838   3.838 -2.8783 -1.5763 -0.9833
  155OSM   H17G17365   4.923   6.864   3.900 -0.5777  1.1889 -1.1619
  155OSM   C18F17366   5.047   6.839   4.058 -0.2731  0.1798 -0.3033
  155OSM   H18F17367   4.969   6.884   4.123 -0.7000  0.7726 -1.2176
  155OSM   H18G17368   5.146   6.871   4.099  0.2398 -1.1886 -0.4065
  155OSM   H18H17369   5.048   6.728   4.063 -0.8671  0.2085  1.0951
  156OSM      N17370   5.111   0.616   1.981  0.1430  0.3284 -0.9057
  156OSM    C1517371   5.090   0.567   1.837  0.1443 -0.2934 -0.1099
  156OSM   H15A17372   5.104   0.460   1.833 -1.0163 -0.4529 -0.1814
  156OSM   H15B17373   5.158   0.611   1.765  1.2477 -0.4169  0.8321
  156OSM   H15C17374   4.990   0.588   1.802  0.7825  2.1977 -0.6967
  156OSM    C1417375   5.144   0.764   1.972  0.1912  0.2076 -0.2772
  156OSM   H14A17376   5.243   0.786   1.935  1.5529 -0.7298  2.4807
  156OSM   H14B17377   5.142   0.806   2.071 -1.7876  0.0276 -0.2060
  156OSM   H14C17378   5.070   0.817   1.915 -0.2460 -1.5056 -1.3942
  156OSM    C1317379   4.979   0.592   2.054 -0.5608  0.2002  0.1804
  156OSM   H13A17380   4.941   0.491   2.054  2.2570 -1.0084  2.2259
  156OSM   H13B17381   4.909   0.662   2.012 -1.2539 -1.9910 -2.6100
  156OSM   H13C17382   4.989   0.636   2.152  1.3936 -0.3369  0.2722
  156OSM    C1217383   5.227   0.534   2.037 -0.4762 -0.6304 -0.6868
  156OSM   H12A17384   5.246   0.571   2.137  1.1456 -1.5223 -0.6389
  156OSM   H12B17385   5.320   0.562   1.990 -0.7253 -0.9871 -1.4106
  156OSM    C1117386   5.219   0.383   2.039  0.4423  0.1479  0.3698
  156OSM   H11A17387   5.314   0.342   2.079  1.4203  1.9393 -0.0331
  156OSM   H11B17388   5.199   0.345   1.937 -0.8010  1.1483  0.2127
  156OSM      P17389   5.062   0.195   2.126 -0.3250 -0.1481 -0.1743
  156OSM    O1317390   4.939   0.188   2.210  0.0909 -0.7000  0.0806
  156OSM    O1417391   5.057   0.147   1.983 -0.0040  0.2599  0.5575
  156OSM    O1117392   5.177   0.113   2.197 -0.1968 -0.1630  0.0553
  156OSM    O1217393   5.112   0.344   2.128  0.1611 -0.6854  0.2472
  156OSM    C1S17394   5.265   0.164   2.291  0.3424 -0.3374 -0.0815
  156OSM    H1S17395   5.216   0.170   2.390  1.4726 -0.3223  0.4857
  156OSM    H1T17396   5.294   0.270   2.274 -0.5954  0.1537  1.2308
  156OSM     NF17397   5.479   0.113   2.406 -0.0798 -0.3846 -0.5012
  156OSM    HNF17398   5.557   0.173   2.393  0.4029 -0.7488  0.5338
  156OSM    C2S17399   5.394   0.078   2.297  0.1161  0.1735  0.2969
  156OSM    H2S17400   5.367  -0.030   2.297  1.8106 -0.3115 -1.2903
  156OSM    C3S17401   5.469   0.088   2.163  0.4516  0.0997  0.5873
  156OSM    H3S17402   5.504   0.194   2.164  0.1793  0.2077 -0.4582
  156OSM     O317403   5.391   0.083   2.040 -0.2594  0.3402 -0.1576
  156OSM    HO317404   5.303   0.071   2.076 -0.1404 -0.1506 -0.0208
  156OSM    C4S17405   5.584  -0.006   2.165 -0.4893  0.1090  0.4073
  156OSM    H4S17406   5.677   0.041   2.200  0.0387 -0.4338 -0.2465
  156OSM    C5S17407   5.579  -0.142   2.132  0.5521  0.1400 -0.1289
  156OSM    H5S17408   5.477  -0.175   2.110  0.5487 -0.7009  1.0388
  156OSM    C6S17409   5.695  -0.230   2.160  0.0904 -0.2093 -0.8194
  156OSM    H6S17410   5.798  -0.186   2.165  0.3821 -0.5570 -2.8618
  156OSM    H6T17411   5.700  -0.280   2.061 -2.6427 -1.0014 -0.6322
  156OSM    C7S17412   5.668  -0.325   2.281 -0.2252  0.1049  0.1363
  156OSM    H7S17413   5.573  -0.379   2.262 -0.4667  0.5815  0.0014
  156OSM    H7T17414   5.666  -0.261   2.372  2.4092 -0.8727  0.9940
  156OSM    C8S17415   5.785  -0.422   2.304  0.0478 -0.4368 -0.0141
  156OSM    H8S17416   5.795  -0.486   2.214 -2.4447 -0.7513 -0.1475
  156OSM    H8T17417   5.773  -0.486   2.394  3.1346 -0.0077  0.8149
  156OSM    C9S17418   5.914  -0.352   2.336  0.7912  0.6430 -0.4909
  156OSM    H9S17419   5.889  -0.258   2.389 -1.9989 -0.7630  0.8871
  156OSM    H9T17420   5.970  -0.324   2.244  1.2469 -2.0841 -1.1365
  156OSM   C10S17421   6.012  -0.438   2.418  0.4840 -0.2915  0.1770
  156OSM   H10S17422   6.117  -0.404   2.402  0.9290 -0.6072  2.0944
  156OSM   H10T17423   6.016  -0.536   2.367  2.2774  0.9284 -2.2254
  156OSM   C11S17424   5.986  -0.452   2.564  0.0738  0.4968  1.1906
  156OSM   H11S17425   5.956  -0.555   2.595 -0.7881  0.6578  0.9188
  156OSM   H11T17426   5.895  -0.396   2.594 -1.3704 -1.4812  0.7977
  156OSM   C12S17427   6.102  -0.392   2.641  0.0429 -0.1861  0.0925
  156OSM   H12S17428   6.121  -0.289   2.603 -2.6701 -0.0530 -1.1390
  156OSM   H12T17429   6.197  -0.445   2.622 -0.7024 -2.4870  2.2897
  156OSM   C13S17430   6.073  -0.396   2.794 -0.8231  0.2549  0.0628
  156OSM   H13S17431   6.079  -0.505   2.817  1.6518  0.2611 -0.3023
  156OSM   H13T17432   5.971  -0.356   2.808 -0.4729  0.7307  1.3365
  156OSM   C14S17433   6.169  -0.318   2.886 -0.3796 -0.1361  0.9412
  156OSM   H14S17434   6.125  -0.216   2.890 -0.8528 -0.3785  2.2325
  156OSM   H14T17435   6.271  -0.321   2.841 -0.7483  0.3801  0.0390
  156OSM   C15S17436   6.171  -0.362   3.030 -0.6926  0.2086 -0.1291
  156OSM   H15S17437   6.264  -0.333   3.084 -0.7145 -1.9549  1.2005
  156OSM   H15T17438   6.174  -0.473   3.033 -0.7621  0.2221  0.5058
  156OSM   C16S17439   6.044  -0.314   3.104 -0.6481 -0.8452  0.2574
  156OSM   H16S17440   5.958  -0.364   3.054 -2.5961  2.4541  0.0231
  156OSM   H16T17441   6.032  -0.205   3.086  1.0570 -0.7821 -0.6906
  156OSM   C17S17442   6.047  -0.358   3.251 -0.4268  0.1843  0.3867
  156OSM   H17S17443   6.074  -0.465   3.262 -2.4722 -0.4655 -0.3289
  156OSM   H17T17444   5.944  -0.363   3.295 -0.5157  0.8226  0.2521
  156OSM   C18S17445   6.127  -0.256   3.335 -0.2406 -0.4341  0.2951
  156OSM   H18S17446   6.235  -0.263   3.308  0.5140 -1.2940  3.1640
  156OSM   H18T17447   6.129  -0.278   3.444  0.5180 -0.7684  0.2246
  156OSM   H18U17448   6.083  -0.156   3.316 -0.9280 -0.4483  1.6973
  156OSM    C1F17449   5.454   0.071   2.529  0.6520 -0.0876 -0.1162
  156OSM     OF17450   5.345   0.015   2.549  0.7777 -0.0236 -0.3264
  156OSM    C2F17451   5.556   0.094   2.635 -0.4555 -0.3497 -0.1473
  156OSM    H2F17452   5.516   0.151   2.721 -0.3129 -0.5303  0.0385
  156OSM    H2G17453   5.642   0.154   2.598 -0.2557  0.1707  1.1330
  156OSM    C3F17454   5.630  -0.034   2.682 -0.1418 -0.1635  0.3666
  156OSM    H3F17455   5.689  -0.068   2.594 -0.0202  0.6099  0.1448
  156OSM    H3G17456   5.565  -0.120   2.707 -1.5203  0.0265 -2.2475
  156OSM    C4F17457   5.723  -0.017   2.802  0.1062 -0.7644  0.7828
  156OSM    H4F17458   5.780   0.078   2.793 -1.0364 -0.2323 -1.4509
  156OSM    H4G17459   5.796  -0.101   2.806  0.2938 -0.5803  1.4320
  156OSM    C5F17460   5.653  -0.024   2.939  0.1070 -0.4697  0.5880
  156OSM    H5F17461   5.590  -0.114   2.954 -2.7458  0.9505 -1.7750
  156OSM    H5G17462   5.580   0.059   2.939  0.7986  0.1578  0.0908
  156OSM    C6F17463   5.742  -0.022   3.062  0.2325 -0.4437 -0.0082
  156OSM    H6F17464   5.776   0.083   3.063  0.3082 -0.4492 -0.9557
  156OSM    H6G17465   5.834  -0.085   3.064  1.9333  1.9451  0.3909
  156OSM    C7F17466   5.677  -0.062   3.194  0.3142 -0.7422 -0.4999
  156OSM    H7F17467   5.648  -0.170   3.200 -2.0078 -0.1066  1.6693
  156OSM    H7G17468   5.589   0.004   3.211  1.2638  0.4513 -0.1657
  156OSM    C8F17469   5.760  -0.013   3.308 -0.1804  0.6522 -1.0002
  156OSM    H8F17470   5.776   0.096   3.291 -0.2140  1.0196  1.1435
  156OSM    H8G17471   5.864  -0.052   3.315 -0.7396 -1.0577 -1.7148
  156OSM    C9F17472   5.696  -0.042   3.443  1.0238 -0.2052 -0.0865
  156OSM    H9F17473   5.623  -0.125   3.446 -0.7492  1.2647 -0.7505
  156OSM   C10F17474   5.716   0.040   3.554  0.2161 -1.0567  0.8790
  156OSM   H10F17475   5.657   0.020   3.645 -0.6921 -1.3326  0.2361
  156OSM   C11F17476   5.797   0.166   3.562  0.5909  0.3951 -0.2202
  156OSM   H11F17477   5.772   0.244   3.487  1.9076  1.1888  0.1302
  156OSM   H11G17478   5.892   0.126   3.523  0.6656  1.9050 -1.7352
  156OSM   C12F17479   5.818   0.243   3.697  0.1723  0.5987  0.1306
  156OSM   H12F17480   5.721   0.293   3.718 -1.8358 -3.0836  0.4559
  156OSM   H12G17481   5.896   0.311   3.656  0.2769 -0.7557 -2.0565
  156OSM   C13F17482   5.872   0.171   3.809 -0.0419  1.0357 -0.3107
  156OSM   H13F17483   5.972   0.135   3.775  0.0292  1.7291 -0.8441
  156OSM   H13G17484   5.816   0.077   3.832  0.2351  1.1404  0.8833
  156OSM   C14F17485   5.880   0.260   3.937  0.1256  0.5151 -0.6900
  156OSM   H14F17486   5.775   0.290   3.957 -0.2042 -1.0711  0.1606
  156OSM   H14G17487   5.959   0.337   3.927  0.3801 -0.0382 -4.0022
  156OSM   C15F17488   5.917   0.171   4.057 -0.1969 -0.4610 -0.7450
  156OSM   H15F17489   6.024   0.147   4.040  0.0128  1.4567 -2.5812
  156OSM   H15G17490   5.852   0.080   4.058  0.1799 -0.7275  0.2612
  156OSM   C16F17491   5.887   0.245   4.188  0.2983 -0.2647 -0.1537
  156OSM   H16F17492   5.877   0.172   4.271 -1.0068 -1.1431 -1.0465
  156OSM   H16G17493   5.787   0.291   4.181  1.2160  2.0274  0.8072
  156OSM   C17F17494   5.984   0.361   4.231  0.0928  0.7208  0.3768
  156OSM   H17F17495   6.016   0.430   4.150  2.3881 -0.5597  0.1199
  156OSM   H17G17496   6.071   0.307   4.274 -0.7966 -0.8416  0.2797
  156OSM   C18F17497   5.917   0.441   4.335  0.8958 -0.4651  0.2715
  156OSM   H18F17498   5.989   0.518   4.371  0.5484 -0.3250  0.6601
  156OSM   H18G17499   5.892   0.369   4.416  1.2415 -0.7950  0.0875
  156OSM   H18H17500   5.827   0.487   4.290 -0.2021 -1.7462  1.0982
  157OSM      N17501   1.553   4.289   1.691 -0.3538  0.4414  0.8307
  157OSM    C1517502   1.605   4.161   1.757  0.3599 -0.8464  0.1004
  157OSM   H15A17503   1.525   4.096   1.786 -0.9500  0.3575 -0.6892
  157OSM   H15B17504   1.669   4.171   1.844  0.6189 -0.2539 -0.1499
  157OSM   H15C17505   1.656   4.105   1.680  0.4609  0.1004 -0.5458
  157OSM    C1417506   1.666   4.375   1.650  0.2219 -0.3090 -0.1753
  157OSM   H14A17507   1.716   4.398   1.743 -0.1281 -2.9994  0.7571
  157OSM   H14B17508   1.633   4.470   1.611  1.3417 -0.1378 -0.7505
  157OSM   H14C17509   1.731   4.329   1.577 -0.3061  0.5822 -1.2508
  157OSM    C1317510   1.484   4.249   1.564  0.4217  0.4627  0.5708
  157OSM   H13A17511   1.395   4.191   1.584 -0.7543  1.4997 -1.2902
  157OSM   H13B17512   1.543   4.182   1.504  0.1993 -2.6584  3.5404
  157OSM   H13C17513   1.448   4.333   1.506  1.9619  0.4847 -0.3998
  157OSM    C1217514   1.464   4.363   1.789 -0.1047  0.1146  0.8029
  157OSM   H12A17515   1.433   4.457   1.746  1.3028  0.9865  1.6259
  157OSM   H12B17516   1.521   4.387   1.877 -0.5377  0.6601  0.9400
  157OSM    C1117517   1.339   4.291   1.854  0.0058  0.7265 -0.3271
  157OSM   H11A17518   1.280   4.237   1.777  0.6339 -1.0096  0.3452
  157OSM   H11B17519   1.267   4.366   1.892 -1.2948 -1.6953  2.3212
  157OSM      P17520   1.434   4.246   2.101 -0.2146  0.1430 -0.4669
  157OSM    O1317521   1.447   4.122   2.183  0.3900 -0.3939 -0.7075
  157OSM    O1417522   1.555   4.326   2.070  0.4645  0.0070 -0.1933
  157OSM    O1117523   1.323   4.349   2.154  0.0256  0.6220 -0.5979
  157OSM    O1217524   1.379   4.195   1.959  0.0732 -0.7056  0.4930
  157OSM    C1S17525   1.197   4.292   2.182  0.8935 -0.3522 -0.6074
  157OSM    H1S17526   1.175   4.201   2.123 -0.3348 -0.0111 -0.6947
  157OSM    H1T17527   1.124   4.363   2.138  0.6497  1.3162  2.2145
  157OSM     NF17528   1.036   4.229   2.358  0.3866  0.5617 -0.2880
  157OSM    HNF17529   0.953   4.284   2.366 -0.2465 -0.5593  1.5308
  157OSM    C2S17530   1.164   4.294   2.336 -0.0965 -0.1760  1.3038
  157OSM    H2S17531   1.244   4.231   2.381  0.3374  0.8137  1.9428
  157OSM    C3S17532   1.187   4.436   2.397  0.3128 -0.2017  0.3763
  157OSM    H3S17533   1.105   4.495   2.350 -0.9674 -3.6041 -2.0389
  157OSM     O317534   1.314   4.501   2.363 -0.3692  0.2970  0.2222
  157OSM    HO317535   1.342   4.447   2.289  1.9330  1.0699  0.4457
  157OSM    C4S17536   1.176   4.436   2.547  0.1548  0.6593 -0.3651
  157OSM    H4S17537   1.267   4.405   2.600 -0.1254  0.8770  0.2620
  157OSM    C5S17538   1.079   4.481   2.622  0.0954  0.2861 -0.0277
  157OSM    H5S17539   0.987   4.517   2.575  0.8169  0.8529 -1.0509
  157OSM    C6S17540   1.080   4.481   2.768  0.0775  1.0553 -0.8139
  157OSM    H6S17541   1.099   4.578   2.818  1.0910  1.0171 -1.1087
  157OSM    H6T17542   1.158   4.411   2.805  0.6183  1.4647 -1.1595
  157OSM    C7S17543   0.953   4.413   2.834  0.2208  0.9189  0.1525
  157OSM    H7S17544   0.950   4.304   2.813  0.4371  0.1760  3.4160
  157OSM    H7T17545   0.857   4.463   2.807 -0.0882  0.2466 -0.0250
  157OSM    C8S17546   0.962   4.420   2.986 -0.0364 -0.3623 -0.1046
  157OSM    H8S17547   0.972   4.527   3.013  3.0623 -0.6175  0.0999
  157OSM    H8T17548   1.057   4.369   3.011  0.2321  0.0694 -0.2337
  157OSM    C9S17549   0.846   4.354   3.060 -0.4538  1.1370 -0.9419
  157OSM    H9S17550   0.846   4.249   3.021  1.8878  1.6923 -2.7262
  157OSM    H9T17551   0.754   4.405   3.027 -0.4795  0.8069 -1.3980
  157OSM   C10S17552   0.873   4.351   3.210 -0.1479 -0.0255  0.0059
  157OSM   H10S17553   0.873   4.454   3.252  1.2806 -0.2279  0.5451
  157OSM   H10T17554   0.963   4.292   3.236  1.5630  1.8170 -1.4297
  157OSM   C11S17555   0.767   4.283   3.295  0.1654  0.1227  0.0302
  157OSM   H11S17556   0.744   4.179   3.260 -3.3295  1.1785 -1.2906
  157OSM   H11T17557   0.675   4.345   3.288  1.1717  1.8931  1.6509
  157OSM   C12S17558   0.802   4.294   3.444 -0.6365  0.4480  0.5072
  157OSM   H12S17559   0.792   4.399   3.479  1.1797  0.6017  0.6714
  157OSM   H12T17560   0.908   4.264   3.459 -1.3952 -1.7952  1.8850
  157OSM   C13S17561   0.728   4.193   3.533  0.0429 -0.1376 -0.3511
  157OSM   H13S17562   0.768   4.093   3.504 -0.3770 -1.4598  3.1426
  157OSM   H13T17563   0.621   4.211   3.513  0.2642  2.7061  0.5710
  157OSM   C14S17564   0.765   4.209   3.682 -0.5655  0.4743  0.6619
  157OSM   H14S17565   0.762   4.316   3.710  2.6984  0.3583  1.7858
  157OSM   H14T17566   0.872   4.186   3.696 -0.6388 -1.0929 -0.8862
  157OSM   C15S17567   0.684   4.124   3.785 -0.3327  0.2626 -0.5873
  157OSM   H15S17568   0.691   4.015   3.763  0.9949  0.2371 -0.0990
  157OSM   H15T17569   0.575   4.148   3.786 -0.1218  1.6535 -3.1784
  157OSM   C16S17570   0.743   4.145   3.919 -0.4226  0.5976  0.0306
  157OSM   H16S17571   0.846   4.106   3.934 -0.8511 -0.7439 -0.3854
  157OSM   H16T17572   0.677   4.089   3.988 -1.1027 -0.2836 -1.2850
  157OSM   C17S17573   0.736   4.287   3.961 -1.3823  0.0688 -0.4524
  157OSM   H17S17574   0.648   4.332   3.910 -0.7224 -0.6572 -2.3266
  157OSM   H17T17575   0.819   4.347   3.919 -0.4247 -1.6634 -1.1184
  157OSM   C18S17576   0.721   4.306   4.111 -0.5377 -0.6971 -0.1888
  157OSM   H18S17577   0.778   4.238   4.177 -0.1954  0.6718  0.9704
  157OSM   H18T17578   0.615   4.301   4.144  0.4490  2.3006  4.3981
  157OSM   H18U17579   0.751   4.412   4.126 -4.2438  0.2726  1.6721
  157OSM    C1F17580   1.020   4.100   2.326  0.0699 -0.1398  0.1547
  157OSM     OF17581   1.126   4.040   2.306 -0.4461  0.2606 -0.3891
  157OSM    C2F17582   0.887   4.034   2.297 -0.7288 -0.4683  0.5063
  157OSM    H2F17583   0.904   3.925   2.305 -0.9216 -0.5063  0.3895
  157OSM    H2G17584   0.869   4.057   2.190  1.0288 -0.0823  0.2638
  157OSM    C3F17585   0.769   4.081   2.378 -0.3950 -0.1510 -0.3521
  157OSM    H3F17586   0.685   4.013   2.352 -2.1265  0.8747  2.1761
  157OSM    H3G17587   0.743   4.180   2.334 -1.1948 -0.4444 -0.5541
  157OSM    C4F17588   0.789   4.083   2.534 -0.6530  0.1535  0.4601
  157OSM    H4F17589   0.877   4.145   2.560  1.0067 -0.8982 -2.2809
  157OSM    H4G17590   0.802   3.980   2.572 -0.5701  0.3446  0.9649
  157OSM    C5F17591   0.662   4.137   2.604 -0.1431  0.5319 -0.3277
  157OSM    H5F17592   0.576   4.077   2.568 -0.4582 -1.0452  2.6963
  157OSM    H5G17593   0.642   4.243   2.580 -2.7045  0.5445  1.4747
  157OSM    C6F17594   0.661   4.121   2.754 -0.4774 -0.4945 -0.7817
  157OSM    H6F17595   0.739   4.186   2.797  1.8505 -2.7054 -1.4027
  157OSM    H6G17596   0.693   4.017   2.778 -2.2378 -0.7988  0.4308
  157OSM    C7F17597   0.527   4.153   2.826 -0.3125 -0.1836  0.0439
  157OSM    H7F17598   0.447   4.102   2.768 -1.4632  0.9872  0.5499
  157OSM    H7G17599   0.520   4.263   2.815 -0.8809 -0.2940 -0.8730
  157OSM    C8F17600   0.512   4.107   2.974 -0.3088 -0.1111  0.6068
  157OSM    H8F17601   0.430   4.169   3.016 -0.3276 -0.1524  0.6308
  157OSM    H8G17602   0.596   4.133   3.042 -1.3288  0.2448  1.7720
  157OSM    C9F17603   0.482   3.956   2.981 -0.4896 -0.2747 -1.2371
  157OSM    H9F17604   0.527   3.901   2.897  0.3499 -0.0911 -0.9221
  157OSM   C10F17605   0.428   3.883   3.085 -0.1163  0.6331  0.2769
  157OSM   H10F17606   0.401   3.778   3.071 -1.2207  0.8602  0.6526
  157OSM   C11F17607   0.365   3.940   3.210 -0.7987  0.3140 -0.4170
  157OSM   H11F17608   0.260   3.901   3.210 -0.6888  0.0147 -0.4254
  157OSM   H11G17609   0.357   4.050   3.203  1.4981  0.4783 -0.9108
  157OSM   C12F17610   0.437   3.912   3.339 -0.3217  0.4684 -0.2368
  157OSM   H12F17611   0.533   3.966   3.327  0.1978 -0.2722  0.4934
  157OSM   H12G17612   0.455   3.804   3.361 -0.2449  0.7706  1.3286
  157OSM   C13F17613   0.352   3.970   3.452 -0.2263 -0.4306  0.0708
  157OSM   H13F17614   0.262   3.905   3.454 -1.2031  0.8602 -0.5894
  157OSM   H13G17615   0.328   4.078   3.436  0.7404  0.2993  2.9120
  157OSM   C14F17616   0.416   3.964   3.599  0.2595 -0.4325  0.7723
  157OSM   H14F17617   0.498   4.037   3.611  0.2824 -0.1287 -1.0230
  157OSM   H14G17618   0.450   3.859   3.615  2.5261  0.1098 -0.1545
  157OSM   C15F17619   0.305   3.991   3.704  0.2205  0.1301  0.3934
  157OSM   H15F17620   0.205   3.948   3.684 -1.2101  2.3424  2.2452
  157OSM   H15G17621   0.281   4.100   3.708 -3.2374 -0.4079 -1.6908
  157OSM   C16F17622   0.341   3.932   3.843 -0.0010 -0.1133  0.4359
  157OSM   H16F17623   0.442   3.967   3.873  0.0997  1.6652 -1.7000
  157OSM   H16G17624   0.339   3.822   3.827  0.1764 -0.1140  0.4188
  157OSM   C17F17625   0.239   3.968   3.956  0.3819 -0.7967 -0.4070
  157OSM   H17F17626   0.142   3.929   3.919 -0.2044 -0.2353  0.5162
  157OSM   H17G17627   0.231   4.079   3.951  2.2181 -0.6605 -1.2210
  157OSM   C18F17628   0.284   3.924   4.096  0.0638 -0.5748  0.4282
  157OSM   H18F17629   0.274   3.814   4.101 -4.0010 -0.3098  1.1393
  157OSM   H18G17630   0.212   3.952   4.176 -0.8932 -2.1428  0.1394
  157OSM   H18H17631   0.383   3.963   4.128 -0.4668 -0.0927  1.5386
  158OSM      N17632   1.649   0.655   1.943  0.3193  0.3621  0.0212
  158OSM    C1517633   1.668   0.746   2.062  0.2757  0.4202  0.4518
  158OSM   H15A17634   1.744   0.701   2.123 -0.7394  0.4598  1.7981
  158OSM   H15B17635   1.582   0.774   2.121 -0.4068  1.2292 -0.8701
  158OSM   H15C17636   1.701   0.842   2.025  1.0118  0.4572  1.1852
  158OSM    C1417637   1.523   0.707   1.888  0.1624 -0.3091 -0.3211
  158OSM   H14A17638   1.489   0.644   1.808  1.9477 -1.9848  0.1725
  158OSM   H14B17639   1.537   0.807   1.848  0.3549 -0.3168 -0.2732
  158OSM   H14C17640   1.447   0.718   1.965  1.5074  0.7881  0.9137
  158OSM    C1317641   1.764   0.663   1.838  0.4477  0.2645 -0.5128
  158OSM   H13A17642   1.753   0.589   1.761 -1.2835 -0.3813  0.2936
  158OSM   H13B17643   1.860   0.651   1.887  0.5343  0.3388 -0.6641
  158OSM   H13C17644   1.761   0.760   1.791 -0.1671  0.1961 -0.6258
  158OSM    C1217645   1.626   0.504   1.986  0.0045  0.4381  0.0814
  158OSM   H12A17646   1.602   0.453   1.894 -0.2685  1.2421 -0.3126
  158OSM   H12B17647   1.545   0.503   2.058 -1.3199 -0.3931 -1.3689
  158OSM    C1117648   1.752   0.437   2.047 -0.6109 -0.0276 -0.0074
  158OSM   H11A17649   1.745   0.345   2.109  0.1778 -0.7729 -0.9924
  158OSM   H11B17650   1.784   0.511   2.124 -0.1254  0.8252 -1.0039
  158OSM      P17651   1.874   0.283   1.864  0.2447  0.0951  0.0932
  158OSM    O1317652   1.738   0.271   1.789  0.4024 -0.6084 -0.1852
  158OSM    O1417653   1.993   0.302   1.776 -0.7110  0.5630 -0.3358
  158OSM    O1117654   1.895   0.155   1.957 -0.2166  0.2836 -0.0482
  158OSM    O1217655   1.861   0.409   1.959 -0.2122 -0.4508  0.7538
  158OSM    C1S17656   2.014   0.155   2.036 -0.2591  0.0813  0.0476
  158OSM    H1S17657   2.066   0.253   2.031 -1.4685  0.6887 -1.0533
  158OSM    H1T17658   2.079   0.069   2.006  2.0742  1.8858 -0.3746
  158OSM     NF17659   2.104   0.127   2.264  0.0732 -0.4406 -0.2181
  158OSM    HNF17660   2.140   0.035   2.276 -0.9757 -0.9937 -1.2036
  158OSM    C2S17661   1.988   0.129   2.193  0.0824 -0.3439  0.3292
  158OSM    H2S17662   1.923   0.213   2.225  0.5031  0.2260 -0.2966
  158OSM    C3S17663   1.914  -0.011   2.200 -0.6954  0.7788 -0.4806
  158OSM    H3S17664   1.980  -0.096   2.173 -0.6571 -0.1694  2.2737
  158OSM     O317665   1.810  -0.025   2.110  0.5079 -0.3849  0.3051
  158OSM    HO317666   1.821   0.046   2.047  0.6056  0.0820  0.8513
  158OSM    C4S17667   1.857  -0.029   2.340 -0.2383 -0.1954 -0.4298
  158OSM    H4S17668   1.780   0.044   2.368 -1.9025 -1.9733 -0.1414
  158OSM    C5S17669   1.899  -0.125   2.423  0.0286 -0.0105 -0.4334
  158OSM    H5S17670   1.965  -0.209   2.395 -0.1978 -0.6293  0.7725
  158OSM    C6S17671   1.860  -0.130   2.570  0.0905 -0.0030 -0.2572
  158OSM    H6S17672   1.771  -0.197   2.574 -0.2282  0.0687 -3.5601
  158OSM    H6T17673   1.825  -0.030   2.603 -1.7879 -0.3541 -1.0507
  158OSM    C7S17674   1.970  -0.180   2.669  0.2826  0.7861  0.0037
  158OSM    H7S17675   2.066  -0.133   2.639  0.1915  0.0559 -1.5768
  158OSM    H7T17676   1.991  -0.286   2.642  0.7927  0.7176  0.6693
  158OSM    C8S17677   1.927  -0.168   2.817 -0.6459  0.0999  0.3119
  158OSM    H8S17678   1.822  -0.204   2.818 -0.5680 -0.4715 -2.6262
  158OSM    H8T17679   1.918  -0.060   2.844 -0.7914  0.1188  0.1923
  158OSM    C9S17680   2.013  -0.256   2.911  0.1488 -0.2235 -0.3356
  158OSM    H9S17681   2.121  -0.240   2.888 -0.2756  3.8663 -0.1845
  158OSM    H9T17682   1.994  -0.366   2.919 -0.3608 -0.0147  2.8339
  158OSM   C10S17683   1.989  -0.198   3.046  0.4942 -0.3362  0.1110
  158OSM   H10S17684   1.880  -0.195   3.065 -0.0557  1.6491 -2.6877
  158OSM   H10T17685   2.022  -0.093   3.031  0.2310 -0.2828 -0.1108
  158OSM   C11S17686   2.064  -0.264   3.159  0.3752 -0.4251  0.2762
  158OSM   H11S17687   2.168  -0.276   3.123  0.0311  0.5768 -1.1485
  158OSM   H11T17688   2.030  -0.368   3.181  1.1780 -1.0663 -1.3340
  158OSM   C12S17689   2.060  -0.178   3.284 -0.3644 -0.2468  0.2547
  158OSM   H12S17690   1.957  -0.184   3.326 -0.3307 -2.3390  0.1464
  158OSM   H12T17691   2.083  -0.075   3.249  0.6527 -1.1299 -1.8688
  158OSM   C13S17692   2.148  -0.230   3.401 -0.5350 -0.4865  0.0321
  158OSM   H13S17693   2.250  -0.206   3.366 -0.4945  0.3792  0.7297
  158OSM   H13T17694   2.133  -0.340   3.414  3.0385 -1.2857 -1.4617
  158OSM   C14S17695   2.119  -0.157   3.534  0.4101 -0.4270  0.0620
  158OSM   H14S17696   2.110  -0.049   3.511 -3.8920  0.3036  3.8705
  158OSM   H14T17697   2.206  -0.169   3.602 -0.3181  0.1767  1.1174
  158OSM   C15S17698   1.994  -0.187   3.604 -0.2218  0.3995 -0.1921
  158OSM   H15S17699   2.013  -0.284   3.654  1.3836  0.4018 -0.7406
  158OSM   H15T17700   1.914  -0.192   3.527  0.7634  2.5752 -1.4362
  158OSM   C16S17701   1.953  -0.089   3.716  0.2621  0.2176 -0.1124
  158OSM   H16S17702   1.983   0.015   3.692  2.3997  0.0715  1.6178
  158OSM   H16T17703   2.016  -0.119   3.803  1.0165  1.8434 -0.0660
  158OSM   C17S17704   1.804  -0.086   3.743  0.5823 -0.0492 -0.2028
  158OSM   H17S17705   1.765  -0.190   3.751 -0.7362  0.4566  0.2783
  158OSM   H17T17706   1.742  -0.053   3.657  1.8964 -1.4734 -1.7690
  158OSM   C18S17707   1.767  -0.008   3.870  0.0026  0.0456 -0.3566
  158OSM   H18S17708   1.662  -0.009   3.906  0.6056  2.6844  1.7530
  158OSM   H18T17709   1.806   0.095   3.885 -1.9729  0.5166  2.1541
  158OSM   H18U17710   1.811  -0.067   3.954 -0.6324 -0.4547 -0.3704
  158OSM    C1F17711   2.168   0.239   2.303 -0.2562  0.8558  0.5490
  158OSM     OF17712   2.123   0.349   2.270 -0.6917  0.5200  0.6413
  158OSM    C2F17713   2.295   0.218   2.395  0.2995 -0.0639  1.4794
  158OSM    H2F17714   2.381   0.270   2.348 -1.3517  1.0233 -0.5094
  158OSM    H2G17715   2.306   0.108   2.405 -0.3191 -0.5751 -2.1189
  158OSM    C3F17716   2.280   0.278   2.533  0.3396 -0.6136  0.1953
  158OSM    H3F17717   2.259   0.386   2.521 -2.7952 -1.0219  0.9898
  158OSM    H3G17718   2.379   0.274   2.584  2.5294 -0.4007 -3.6941
  158OSM    C4F17719   2.163   0.224   2.631  0.2008  0.3973 -0.5862
  158OSM    H4F17720   2.171   0.114   2.624 -0.2092  0.4367 -1.8072
  158OSM    H4G17721   2.067   0.246   2.580 -0.7170 -1.3221  0.3153
  158OSM    C5F17722   2.178   0.273   2.779 -0.3059  0.0590 -0.3214
  158OSM    H5F17723   2.166   0.383   2.770  2.6018  0.3078 -2.9404
  158OSM    H5G17724   2.278   0.248   2.821 -0.3901 -1.6783 -1.1054
  158OSM    C6F17725   2.072   0.206   2.874 -0.2092 -0.3770  0.0376
  158OSM    H6F17726   2.105   0.101   2.887  0.4344 -0.3474 -1.1941
  158OSM    H6G17727   1.975   0.205   2.819 -1.2309  1.9340  1.6355
  158OSM    C7F17728   2.041   0.279   3.007  0.1127 -0.4874  0.4077
  158OSM    H7F17729   2.022   0.386   2.982  1.2419 -0.0724  1.2601
  158OSM    H7G17730   2.127   0.294   3.075  0.9742 -0.1230 -0.7131
  158OSM    C8F17731   1.932   0.199   3.080  0.2073 -0.6711 -0.4010
  158OSM    H8F17732   1.974   0.118   3.142 -0.0111  1.6159  3.0531
  158OSM    H8G17733   1.867   0.153   3.002 -1.0633 -0.3378  0.4239
  158OSM    C9F17734   1.853   0.289   3.167  0.2555  0.1388 -0.0719
  158OSM    H9F17735   1.833   0.389   3.127  0.4636 -0.1130 -0.8187
  158OSM   C10F17736   1.800   0.264   3.288  1.0194 -0.3806 -1.0111
  158OSM   H10F17737   1.753   0.344   3.347 -1.4060 -1.0470 -1.9144
  158OSM   C11F17738   1.818   0.135   3.359 -0.7635 -0.2343  0.2302
  158OSM   H11F17739   1.873   0.151   3.454 -1.8961 -1.4834  1.1375
  158OSM   H11G17740   1.865   0.056   3.296 -2.0221  0.7026 -1.9906
  158OSM   C12F17741   1.677   0.074   3.386  0.5390 -0.1289 -0.2706
  158OSM   H12F17742   1.623   0.133   3.463 -0.8119 -0.5177 -0.8841
  158OSM   H12G17743   1.697  -0.026   3.429  1.4739 -0.6861 -1.9089
  158OSM   C13F17744   1.598   0.048   3.253 -0.0126 -0.5099 -0.1660
  158OSM   H13F17745   1.672  -0.009   3.193  1.4376  0.7278  0.3653
  158OSM   H13G17746   1.581   0.147   3.205 -0.7393 -0.5514 -0.0002
  158OSM   C14F17747   1.472  -0.025   3.263  0.7178 -0.5664 -0.1022
  158OSM   H14F17748   1.404   0.052   3.304  1.3500  1.0066 -1.8398
  158OSM   H14G17749   1.485  -0.118   3.323 -2.7214 -0.2525  1.3344
  158OSM   C15F17750   1.419  -0.060   3.124  0.6926  0.3800 -0.0975
  158OSM   H15F17751   1.320  -0.111   3.129  0.1539  1.5004  2.4941
  158OSM   H15G17752   1.491  -0.125   3.070  0.5661 -0.6984  0.9842
  158OSM   C16F17753   1.388   0.067   3.039  0.5624  0.3562  0.1003
  158OSM   H16F17754   1.476   0.133   3.020  0.1936  0.5885 -0.8687
  158OSM   H16G17755   1.329   0.125   3.113  1.0212  0.5905  0.2919
  158OSM   C17F17756   1.319   0.051   2.907  0.1675  0.4273 -0.0829
  158OSM   H17F17757   1.273   0.149   2.881  0.0955  0.6878  0.9740
  158OSM   H17G17758   1.237  -0.024   2.914  1.4882 -1.2400 -1.8131
  158OSM   C18F17759   1.421   0.006   2.798 -0.3591  0.5006  0.5699
  158OSM   H18F17760   1.372   0.025   2.700 -0.0373 -1.1119  0.0633
  158OSM   H18G17761   1.468  -0.094   2.807  1.5091  1.2629 -0.2155
  158OSM   H18H17762   1.511   0.071   2.801  0.0137  0.1275 -1.1560
  159OSM      N17763   5.570   1.485   1.658  0.8710  0.6297  0.0073
  159OSM    C1517764   5.524   1.351   1.705 -0.9814 -1.0919  0.1384
  159OSM   H15A17765   5.551   1.339   1.809  0.0493 -1.4980 -0.1627
  159OSM   H15B17766   5.580   1.278   1.649  0.2212  0.9057 -1.4104
  159OSM   H15C17767   5.420   1.329   1.687 -0.6901 -2.2159 -0.2758
  159OSM    C1417768   5.709   1.502   1.709  0.1356  0.3175 -0.9091
  159OSM   H14A17769   5.755   1.599   1.698 -1.2791  0.8950 -2.1859
  159OSM   H14B17770   5.780   1.425   1.683  2.9243  1.6344  2.1490
  159OSM   H14C17771   5.696   1.486   1.816 -0.4137 -2.5076 -1.3266
  159OSM    C1317772   5.567   1.472   1.509 -0.9497 -0.1403  0.3432
  159OSM   H13A17773   5.476   1.423   1.475 -1.0412 -0.5254  1.1341
  159OSM   H13B17774   5.643   1.400   1.482  1.1121  1.7691  0.7455
  159OSM   H13C17775   5.587   1.567   1.462  1.2737 -1.1109 -0.8498
  159OSM    C1217776   5.477   1.601   1.701  0.3741 -0.1030  0.3230
  159OSM   H12A17777   5.495   1.609   1.807 -0.1392  0.9856  0.3506
  159OSM   H12B17778   5.373   1.575   1.688 -0.6171  3.0345  0.9578
  159OSM    C1117779   5.511   1.741   1.646 -0.4049 -1.0572  0.4803
  159OSM   H11A17780   5.441   1.814   1.691  0.7512  2.1179 -2.4562
  159OSM   H11B17781   5.492   1.751   1.537  0.4151  2.3081  0.5356
  159OSM      P17782   5.713   1.838   1.799  0.0779 -0.1402 -0.3095
  159OSM    O1317783   5.824   1.743   1.828 -0.9261  0.0253 -0.0130
  159OSM    O1417784   5.745   1.982   1.774 -0.3152  0.8637  0.3245
  159OSM    O1117785   5.599   1.824   1.905  0.3968  0.0489  0.4756
  159OSM    O1217786   5.646   1.787   1.665  0.7200  0.3401  0.3275
  159OSM    C1S17787   5.622   1.831   2.047 -0.7230 -0.1653  0.2245
  159OSM    H1S17788   5.702   1.906   2.069  0.7590 -1.8383  0.8113
  159OSM    H1T17789   5.656   1.731   2.081  1.3875  0.5493  0.3427
  159OSM     NF17790   5.529   1.892   2.268  0.5517  0.0916  0.1404
  159OSM    HNF17791   5.516   1.818   2.333  0.0455  0.4598  0.4638
  159OSM    C2S17792   5.491   1.878   2.126 -0.4737  0.1882 -0.1950
  159OSM    H2S17793   5.453   1.976   2.089 -2.1144  0.2285  1.4102
  159OSM    C3S17794   5.378   1.772   2.102 -0.2353  0.6292  1.0512
  159OSM    H3S17795   5.408   1.679   2.156  1.6748  1.1689  1.0009
  159OSM     O317796   5.359   1.733   1.960  0.3004  0.2255 -0.1773
  159OSM    HO317797   5.436   1.771   1.919  0.8315 -2.0000 -1.3811
  159OSM    C4S17798   5.250   1.824   2.164 -0.4177 -0.5330 -1.1825
  159OSM    H4S17799   5.216   1.910   2.105  0.1204 -0.1171 -0.8874
  159OSM    C5S17800   5.182   1.785   2.276 -0.0428 -0.3676 -0.4462
  159OSM    H5S17801   5.211   1.697   2.336  0.5383  1.2364  1.7720
  159OSM    C6S17802   5.047   1.836   2.312  0.4873  0.7491  0.0653
  159OSM    H6S17803   4.969   1.756   2.311  0.8133  0.3830  1.3960
  159OSM    H6T17804   5.011   1.909   2.236 -1.2984 -1.8774 -1.8029
  159OSM    C7S17805   5.059   1.892   2.458  0.3803  0.5107 -0.1464
  159OSM    H7S17806   4.954   1.913   2.490  0.6531 -0.0082  1.1358
  159OSM    H7T17807   5.122   1.983   2.446 -0.4069  0.8432 -2.2255
  159OSM    C8S17808   5.119   1.781   2.552  0.0548  0.1026 -0.3889
  159OSM    H8S17809   5.229   1.767   2.538  0.0926  0.3047 -0.3031
  159OSM    H8T17810   5.074   1.682   2.528 -2.9131  0.9892  1.0292
  159OSM    C9S17811   5.083   1.817   2.698  0.5673 -0.1340 -0.3287
  159OSM    H9S17812   5.085   1.731   2.769 -0.5829 -0.5266 -0.7626
  159OSM    H9T17813   4.979   1.850   2.715  1.0472  1.1452  0.2786
  159OSM   C10S17814   5.162   1.936   2.755 -1.0142  0.5715 -0.6215
  159OSM   H10S17815   5.123   2.030   2.709 -1.7680  1.0959  1.0145
  159OSM   H10T17816   5.271   1.933   2.733 -0.6664 -0.1930  1.0502
  159OSM   C11S17817   5.158   1.952   2.905  0.2016 -0.0080 -0.3476
  159OSM   H11S17818   5.177   1.854   2.954 -2.3685  0.1140  1.1334
  159OSM   H11T17819   5.055   1.991   2.923  0.1485 -0.7260  1.0309
  159OSM   C12S17820   5.244   2.062   2.961 -0.9862  0.1680 -0.4032
  159OSM   H12S17821   5.275   2.129   2.878 -1.1948 -0.9449 -1.4123
  159OSM   H12T17822   5.336   2.013   2.998 -0.9682  2.0797  2.4384
  159OSM   C13S17823   5.183   2.147   3.076 -0.5362  0.9110 -0.1114
  159OSM   H13S17824   5.099   2.204   3.031  0.6810  1.4127 -1.8676
  159OSM   H13T17825   5.261   2.219   3.108  0.6941 -0.1700 -0.6140
  159OSM   C14S17826   5.107   2.073   3.195 -0.4643 -0.8316 -0.8032
  159OSM   H14S17827   5.096   2.155   3.269 -0.6311  0.1617 -1.9002
  159OSM   H14T17828   5.176   2.006   3.251  2.7606  2.8206  0.0445
  159OSM   C15S17829   4.970   2.016   3.164  0.2548 -0.3051  0.1770
  159OSM   H15S17830   4.981   1.913   3.124  1.6010 -0.2572  0.3732
  159OSM   H15T17831   4.913   2.073   3.087 -3.1458  0.0027  2.6723
  159OSM   C16S17832   4.881   2.021   3.283  0.0695 -0.2193 -0.7155
  159OSM   H16S17833   4.777   1.987   3.267 -0.1215  0.0705 -0.1544
  159OSM   H16T17834   4.863   2.126   3.316 -1.7231 -0.8457  0.4813
  159OSM   C17S17835   4.931   1.943   3.408  0.2178 -0.8390  1.3059
  159OSM   H17S17836   5.019   1.986   3.459  1.2195 -1.2141 -0.0368
  159OSM   H17T17837   4.968   1.839   3.391 -0.2564 -0.9746  1.0927
  159OSM   C18S17838   4.816   1.938   3.504 -0.2058  0.8343  0.0999
  159OSM   H18S17839   4.743   1.869   3.456  1.1792 -1.0540  0.5917
  159OSM   H18T17840   4.772   2.037   3.526  0.9031  0.9014  2.3221
  159OSM   H18U17841   4.853   1.889   3.597  0.6014  1.3612  0.0646
  159OSM    C1F17842   5.613   1.981   2.321  0.2712 -0.2001 -0.5836
  159OSM     OF17843   5.668   2.069   2.253 -0.5807 -0.5271  0.7906
  159OSM    C2F17844   5.655   1.958   2.466  0.3779  0.2823 -0.0397
  159OSM    H2F17845   5.745   2.020   2.488  1.7120 -1.3461 -0.6599
  159OSM    H2G17846   5.685   1.851   2.469 -0.2668  0.1199  1.4658
  159OSM    C3F17847   5.545   1.996   2.571 -0.3734 -0.4678  0.0236
  159OSM    H3F17848   5.589   1.994   2.673  0.1605  0.0025 -0.1949
  159OSM    H3G17849   5.457   1.929   2.570 -0.4320 -0.5168  2.4196
  159OSM    C4F17850   5.511   2.143   2.554  0.3247 -0.1618  0.2476
  159OSM    H4F17851   5.433   2.143   2.475  0.6974  0.6707 -0.1272
  159OSM    H4G17852   5.593   2.189   2.496  0.5929 -4.2484 -3.1489
  159OSM    C5F17853   5.457   2.204   2.679 -0.1125 -0.2989 -0.0260
  159OSM    H5F17854   5.519   2.165   2.763  0.4045  1.5581  0.5129
  159OSM    H5G17855   5.349   2.181   2.688 -0.2070 -0.1818 -0.7935
  159OSM    C6F17856   5.467   2.357   2.685  0.1787 -0.6480  0.4990
  159OSM    H6F17857   5.439   2.396   2.584 -2.3027 -2.9174  0.1813
  159OSM    H6G17858   5.563   2.396   2.723 -0.1467  2.7982 -1.7076
  159OSM    C7F17859   5.371   2.431   2.780 -0.3564  0.1732 -0.1670
  159OSM    H7F17860   5.390   2.392   2.882 -1.5395 -1.8629 -0.6645
  159OSM    H7G17861   5.263   2.415   2.761 -1.1741  0.6413  3.3535
  159OSM    C8F17862   5.399   2.581   2.782  0.0871 -0.3412  0.1280
  159OSM    H8F17863   5.312   2.635   2.825  2.1044  1.8410  1.7259
  159OSM    H8G17864   5.398   2.627   2.681  1.1614  1.5097  0.8950
  159OSM    C9F17865   5.523   2.632   2.858  0.5415  0.2117 -0.1716
  159OSM    H9F17866   5.595   2.549   2.854  1.4831  1.0092 -0.0641
  159OSM   C10F17867   5.544   2.747   2.922  0.3408 -0.7757 -0.5865
  159OSM   H10F17868   5.639   2.765   2.974 -1.4373  2.0689  2.0048
  159OSM   C11F17869   5.450   2.859   2.949  0.0719 -0.6269  0.2987
  159OSM   H11F17870   5.347   2.840   2.915  0.0491  0.3727 -0.2162
  159OSM   H11G17871   5.491   2.945   2.892  1.2202 -0.3692  1.4612
  159OSM   C12F17872   5.436   2.923   3.091 -0.5088  0.1480  0.0088
  159OSM   H12F17873   5.381   3.019   3.085 -2.7582 -1.0100  1.0332
  159OSM   H12G17874   5.542   2.939   3.122 -0.1439 -1.8810 -0.0612
  159OSM   C13F17875   5.353   2.833   3.184 -0.2651 -0.0608 -0.5121
  159OSM   H13F17876   5.406   2.735   3.191 -0.4195 -0.2179 -1.4274
  159OSM   H13G17877   5.251   2.808   3.149 -0.3928  0.8732 -0.8152
  159OSM   C14F17878   5.337   2.898   3.326  0.0507 -0.3083  0.1945
  159OSM   H14F17879   5.271   2.986   3.312 -0.2529 -0.5119  0.3509
  159OSM   H14G17880   5.445   2.909   3.349  1.0033 -2.4967 -2.6451
  159OSM   C15F17881   5.264   2.806   3.431 -0.5670  0.4146  0.3582
  159OSM   H15F17882   5.286   2.698   3.417  0.8948  0.9788 -2.4702
  159OSM   H15G17883   5.155   2.808   3.411 -0.2802  3.0367 -1.3770
  159OSM   C16F17884   5.281   2.859   3.577  0.5209 -0.7006 -0.0220
  159OSM   H16F17885   5.260   2.968   3.569 -0.9306 -0.6934  2.6821
  159OSM   H16G17886   5.385   2.852   3.616  0.8009  0.6366 -0.4600
  159OSM   C17F17887   5.166   2.808   3.658  0.3986 -0.5263 -0.1587
  159OSM   H17F17888   5.163   2.697   3.667  2.4609 -0.6669 -0.6673
  159OSM   H17G17889   5.072   2.837   3.607  0.2923  3.3737  1.9035
  159OSM   C18F17890   5.175   2.875   3.798 -0.1882 -0.3910 -0.0140
  159OSM   H18F17891   5.096   2.832   3.864  1.4784 -1.3894  1.3939
  159OSM   H18G17892   5.173   2.986   3.798  1.4977 -0.2891  2.1639
  159OSM   H18H17893   5.276   2.851   3.838  0.1188 -0.9779 -1.0948
  160OSM      N17894   3.943   6.266   1.751  0.4579  0.1488 -0.2972
  160OSM    C1517895   3.922   6.403   1.695 -0.3009  0.7567  0.5886
  160OSM   H15A17896   3.883   6.470   1.770 -1.9997 -0.5247  0.8934
  160OSM   H15B17897   3.871   6.399   1.600  2.0749 -0.7952 -0.7082
  160OSM   H15C17898   4.020   6.445   1.677 -0.0211  0.2767  0.9854
  160OSM    C1417899   3.814   6.196   1.781  0.0021  0.6949 -0.0594
  160OSM   H14A17900   3.761   6.232   1.868  0.2096 -1.0453  0.8427
  160OSM   H14B17901   3.830   6.092   1.808 -1.9222  0.3958  0.0358
  160OSM   H14C17902   3.747   6.194   1.697 -1.2405 -0.0423  0.9217
  160OSM    C1317903   4.020   6.181   1.647  0.5985 -0.8166  0.1476
  160OSM   H13A17904   4.117   6.217   1.619 -0.2710  1.2823 -0.3292
  160OSM   H13B17905   3.957   6.175   1.559  0.0103 -1.9120  0.6058
  160OSM   H13C17906   4.043   6.084   1.689 -0.0699  0.2808  3.3529
  160OSM    C1217907   4.020   6.283   1.879 -0.5177  0.6084  0.4328
  160OSM   H12A17908   4.116   6.331   1.867  1.3262 -2.9476 -0.3587
  160OSM   H12B17909   4.052   6.186   1.913 -0.1461  0.9929  1.2113
  160OSM    C1117910   3.946   6.342   1.996  0.1909  0.1036 -0.1795
  160OSM   H11A17911   4.007   6.337   2.089 -0.5691  2.5666  0.5332
  160OSM   H11B17912   3.857   6.283   2.026 -0.7039  1.7145  0.4592
  160OSM      P17913   4.003   6.596   1.994 -0.2031 -1.1664  0.0126
  160OSM    O1317914   4.129   6.568   1.916 -0.5671  0.3488  0.0872
  160OSM    O1417915   3.928   6.721   1.962 -0.5246 -0.2957  0.2258
  160OSM    O1117916   4.035   6.584   2.150 -0.0963  0.6831  0.2629
  160OSM    O1217917   3.904   6.473   1.966 -0.4295  0.0348  0.2734
  160OSM    C1S17918   3.995   6.694   2.237  0.7367 -0.1298  0.4590
  160OSM    H1S17919   3.888   6.677   2.261  0.0370 -0.5710 -2.5197
  160OSM    H1T17920   4.009   6.794   2.190 -0.2233 -0.1945  0.0089
  160OSM     NF17921   4.026   6.815   2.447 -0.1496 -0.0900  0.3391
  160OSM    HNF17922   4.094   6.883   2.473  2.4262 -2.3412  0.0305
  160OSM    C2S17923   4.069   6.702   2.374  0.0413  0.3887 -0.0344
  160OSM    H2S17924   4.032   6.616   2.434 -0.8577  0.5061 -0.3960
  160OSM    C3S17925   4.224   6.687   2.362 -0.4760  0.6741  0.1593
  160OSM    H3S17926   4.264   6.776   2.309 -1.3146  0.5208 -0.7816
  160OSM     O317927   4.257   6.571   2.279  0.1630 -0.2587 -0.4617
  160OSM    HO317928   4.172   6.559   2.235 -0.2192  1.1235 -0.1484
  160OSM    C4S17929   4.291   6.681   2.493 -0.4554  0.7636 -0.5903
  160OSM    H4S17930   4.260   6.595   2.554 -1.9854  0.1586 -2.1436
  160OSM    C5S17931   4.398   6.759   2.526  0.0754 -0.3325 -0.2629
  160OSM    H5S17932   4.426   6.831   2.447  0.9924 -3.4700 -3.0255
  160OSM    C6S17933   4.483   6.753   2.648  0.3345 -0.2407  0.4393
  160OSM    H6S17934   4.581   6.804   2.639  0.6656 -1.0961 -1.1483
  160OSM    H6T17935   4.500   6.647   2.675  0.1874 -0.3496  0.1018
  160OSM    C7S17936   4.406   6.814   2.770 -0.2676  0.0622  0.2836
  160OSM    H7S17937   4.310   6.760   2.781  0.1660 -0.6343  0.7232
  160OSM    H7T17938   4.394   6.923   2.749  2.5666  0.4348  0.1337
  160OSM    C8S17939   4.499   6.790   2.892  0.0876  0.4582  0.0396
  160OSM    H8S17940   4.601   6.829   2.870  0.0877  0.6711  0.4173
  160OSM    H8T17941   4.508   6.679   2.896  0.8624  0.3324 -2.9109
  160OSM    C9S17942   4.445   6.836   3.031  1.2110  0.1660 -0.2156
  160OSM    H9S17943   4.335   6.817   3.033  1.1268  0.4946 -1.2409
  160OSM    H9T17944   4.466   6.945   3.035  1.6817  0.0984 -0.7870
  160OSM   C10S17945   4.518   6.768   3.141  0.4534 -0.1047 -0.1953
  160OSM   H10S17946   4.626   6.794   3.143  0.4048  0.5414 -2.5156
  160OSM   H10T17947   4.505   6.658   3.129 -1.2176  0.0192  0.2972
  160OSM   C11S17948   4.451   6.804   3.281 -0.3675  0.4683  1.0446
  160OSM   H11S17949   4.357   6.746   3.294 -1.2656  1.6537  0.0894
  160OSM   H11T17950   4.432   6.913   3.287 -0.1482  0.4505  2.0777
  160OSM   C12S17951   4.545   6.752   3.393 -0.4507  0.4112 -0.3031
  160OSM   H12S17952   4.647   6.795   3.389  0.0406 -0.3861  1.8281
  160OSM   H12T17953   4.558   6.642   3.390  1.5406  0.6089 -0.1241
  160OSM   C13S17954   4.498   6.786   3.537  1.1090  0.2767  0.2392
  160OSM   H13S17955   4.395   6.754   3.563  0.7293  1.7985  0.6923
  160OSM   H13T17956   4.488   6.894   3.560  0.4209  0.7599 -2.0105
  160OSM   C14S17957   4.597   6.747   3.652  0.2182 -0.0729 -0.5791
  160OSM   H14S17958   4.700   6.782   3.626  1.3275 -2.0147  0.8874
  160OSM   H14T17959   4.601   6.637   3.668 -0.7716  0.3238  3.7625
  160OSM   C15S17960   4.563   6.805   3.789 -0.1450  0.3397  0.0669
  160OSM   H15S17961   4.527   6.909   3.779  2.6613  1.4450  0.6981
  160OSM   H15T17962   4.653   6.819   3.852  1.4772 -1.7150 -1.6449
  160OSM   C16S17963   4.450   6.722   3.865  0.2998 -0.6308  0.4895
  160OSM   H16S17964   4.480   6.615   3.877 -0.5483 -0.9351 -0.0717
  160OSM   H16T17965   4.347   6.741   3.831 -0.1157  0.4382  2.2072
  160OSM   C17S17966   4.442   6.763   4.011 -0.5038  0.1013 -0.0113
  160OSM   H17S17967   4.351   6.708   4.043 -1.2862 -1.7188 -4.5586
  160OSM   H17T17968   4.428   6.873   4.017  0.5267  0.4272 -2.3772
  160OSM   C18S17969   4.554   6.716   4.102 -0.3087  0.0514  0.3709
  160OSM   H18S17970   4.539   6.755   4.205  1.2379 -1.3856  1.2083
  160OSM   H18T17971   4.651   6.750   4.060 -2.1180  1.5433 -2.9883
  160OSM   H18U17972   4.553   6.605   4.111  3.2636 -0.3388 -1.9079
  160OSM    C1F17973   3.894   6.849   2.478  0.0376 -0.5242 -0.4429
  160OSM     OF17974   3.807   6.764   2.472  0.1902 -0.0171 -0.9876
  160OSM    C2F17975   3.873   6.993   2.530  0.4980  0.4518  0.1780
  160OSM    H2F17976   3.779   7.022   2.478  0.6636 -0.9994 -0.9976
  160OSM    H2G17977   3.945   7.061   2.480 -1.8231  2.6772 -0.3245
  160OSM    C3F17978   3.882   7.026   2.676  0.1855  0.3644 -0.2378
  160OSM    H3F17979   3.822   6.953   2.735  0.9495  0.2015  0.3596
  160OSM    H3G17980   3.838   7.127   2.688 -0.0296  0.2207  0.2369
  160OSM    C4F17981   4.024   7.017   2.734  0.1919 -0.2731 -0.0107
  160OSM    H4F17982   4.099   7.067   2.670  0.9632 -0.8470  0.4154
  160OSM    H4G17983   4.073   6.919   2.754  0.5465 -0.0433  0.2697
  160OSM    C5F17984   4.025   7.065   2.884  0.7168 -0.2958  0.6389
  160OSM    H5F17985   4.015   6.976   2.950  0.2094 -0.0153  0.9497
  160OSM    H5G17986   3.933   7.126   2.899  2.9067  3.5662 -0.1512
  160OSM    C6F17987   4.135   7.156   2.915 -0.8875 -0.2896 -0.1551
  160OSM    H6F17988   4.131   7.230   2.832 -2.8820 -1.7246 -1.4197
  160OSM    H6G17989   4.232   7.101   2.913 -0.9508 -0.3745 -1.3170
  160OSM    C7F17990   4.122   7.234   3.051 -0.5948  0.5005  0.3132
  160OSM    H7F17991   4.105   7.158   3.129  1.8748 -0.6556 -0.1770
  160OSM    H7G17992   4.023   7.285   3.050 -0.0573  1.6140  1.2564
  160OSM    C8F17993   4.235   7.334   3.087 -0.0318 -0.0049 -0.4273
  160OSM    H8F17994   4.197   7.403   3.166 -0.3977 -0.4040 -0.2473
  160OSM    H8G17995   4.241   7.401   2.999 -2.2618 -0.7017 -1.1751
  160OSM    C9F17996   4.362   7.269   3.130 -0.3987  0.3867 -0.7077
  160OSM    H9F17997   4.436   7.267   3.048 -0.3907 -0.7779 -0.6880
  160OSM   C10F17998   4.393   7.225   3.256  0.2266  0.1527  0.3623
  160OSM   H10F17999   4.484   7.165   3.269  1.8113  2.4208  0.3306
  160OSM   C11F18000   4.309   7.239   3.370  0.1022  0.4467 -0.8162
  160OSM   H11F18001   4.205   7.273   3.348 -0.2589 -0.4897 -0.5857
  160OSM   H11G18002   4.349   7.320   3.434 -0.2030  1.6203 -2.0467
  160OSM   C12F18003   4.294   7.109   3.460  0.0305  0.9698 -0.0599
  160OSM   H12F18004   4.392   7.083   3.504 -1.2109 -0.0068  2.3209
  160OSM   H12G18005   4.257   7.031   3.388 -1.5456  0.9640  0.7058
  160OSM   C13F18006   4.193   7.110   3.575  0.1746 -0.1934  0.0523
  160OSM   H13F18007   4.115   7.185   3.548  0.3176  0.0803  0.3926
  160OSM   H13G18008   4.255   7.152   3.658  1.8807 -2.2282 -0.1253
  160OSM   C14F18009   4.126   6.984   3.614 -0.4751  0.7580  0.0414
  160OSM   H14F18010   4.193   6.896   3.601 -0.9746  0.5545 -1.3070
  160OSM   H14G18011   4.035   6.967   3.552 -2.4451 -0.4262  3.0243
  160OSM   C15F18012   4.065   6.985   3.755 -0.2512 -0.2175 -0.0399
  160OSM   H15F18013   3.990   7.065   3.768 -0.4907 -0.2805 -0.9875
  160OSM   H15G18014   4.136   6.980   3.841 -0.7160 -0.0235  0.3544
  160OSM   C16F18015   3.951   6.877   3.763  0.0877  0.1355 -0.3023
  160OSM   H16F18016   3.986   6.772   3.748 -1.3626 -0.5619  0.9163
  160OSM   H16G18017   3.888   6.906   3.675 -0.3851  2.9641  0.8627
  160OSM   C17F18018   3.858   6.883   3.891  0.0958  0.6383  0.7626
  160OSM   H17F18019   3.756   6.916   3.865 -0.0943  0.5578  1.4065
  160OSM   H17G18020   3.905   6.951   3.965  0.0042  0.0896  1.3272
  160OSM   C18F18021   3.851   6.758   3.976 -0.1840 -0.0376 -0.5288
  160OSM   H18F18022   3.777   6.686   3.934 -0.1826 -0.3736  0.0353
  160OSM   H18G18023   3.807   6.775   4.077  1.0190  0.3272 -0.0562
  160OSM   H18H18024   3.949   6.715   4.005 -0.2757 -0.0221 -0.1887
  161OSM      N18025   6.089   0.303   1.598 -0.3139 -0.4592 -0.0624
  161OSM    C1518026   6.154   0.260   1.470  0.4047  0.0213 -0.4931
  161OSM   H15A18027   6.166   0.153   1.467 -1.8439 -0.3050  0.2006
  161OSM   H15B18028   6.249   0.310   1.456 -0.3414  1.2913 -1.2761
  161OSM   H15C18029   6.093   0.296   1.389 -1.1102  0.6088  0.8451
  161OSM    C1418030   6.121   0.448   1.609  0.3055 -0.5386  0.0027
  161OSM   H14A18031   6.228   0.456   1.596  0.5494  2.0754  2.5563
  161OSM   H14B18032   6.106   0.493   1.706  0.4062 -0.5116  0.0063
  161OSM   H14C18033   6.063   0.504   1.537  0.2856 -0.9750 -0.3199
  161OSM    C1318034   5.934   0.283   1.592 -0.6748 -0.1860  0.2067
  161OSM   H13A18035   5.885   0.350   1.523  0.1011  2.4540  2.0533
  161OSM   H13B18036   5.892   0.297   1.690 -1.0188  2.2964 -0.2346
  161OSM   H13C18037   5.906   0.182   1.565 -2.0553  0.4916 -1.0224
  161OSM    C1218038   6.146   0.220   1.708  0.4911 -0.4104 -0.0252
  161OSM   H12A18039   6.253   0.231   1.698  0.3966  1.7822  0.8921
  161OSM   H12B18040   6.118   0.117   1.691  0.6764 -0.3274 -0.9164
  161OSM    C1118041   6.103   0.252   1.854  0.1542 -0.2920 -0.4118
  161OSM   H11A18042   6.139   0.356   1.873  0.3838 -0.2159 -1.2027
  161OSM   H11B18043   6.162   0.193   1.927  1.2351  2.6948  1.2954
  161OSM      P18044   5.895   0.099   1.920  0.1705 -0.2673  0.0252
  161OSM    O1318045   5.751   0.096   1.901 -0.0066 -0.6255  0.0652
  161OSM    O1418046   5.969  -0.017   1.862  0.1968 -0.5295  0.1058
  161OSM    O1118047   5.925   0.106   2.074  0.0604  0.0683 -0.3750
  161OSM    O1218048   5.960   0.240   1.870 -0.4633  0.7663 -0.2664
  161OSM    C1S18049   5.919   0.229   2.152 -0.4594 -0.3112 -0.0485
  161OSM    H1S18050   5.820   0.279   2.150  0.2463  1.1470 -2.4124
  161OSM    H1T18051   5.986   0.307   2.110 -1.2500 -0.6725 -2.1431
  161OSM     NF18052   5.907   0.310   2.392 -0.1971 -0.9196  0.4558
  161OSM    HNF18053   5.983   0.364   2.427 -0.7133 -0.9537  1.6849
  161OSM    C2S18054   5.942   0.204   2.304 -0.1091 -0.4190  0.4570
  161OSM    H2S18055   5.864   0.131   2.333 -0.3056 -0.5478 -0.3790
  161OSM    C3S18056   6.084   0.151   2.317 -0.3682  0.1492 -0.0372
  161OSM    H3S18057   6.153   0.227   2.274 -2.2426  1.1084 -1.5392
  161OSM     O318058   6.113   0.029   2.243 -0.2580 -0.0500  0.5405
  161OSM    HO318059   6.028   0.009   2.203 -0.4944  0.6964  0.6452
  161OSM    C4S18060   6.119   0.124   2.465  0.5274  0.0343  0.6085
  161OSM    H4S18061   6.173   0.209   2.510 -0.0519  1.0888 -0.5973
  161OSM    C5S18062   6.079   0.011   2.531 -0.4068 -0.2375 -0.3785
  161OSM    H5S18063   5.998  -0.047   2.483 -0.7908 -0.3288  0.3554
  161OSM    C6S18064   6.094  -0.015   2.683 -0.5664 -0.3163  0.6947
  161OSM    H6S18065   6.160  -0.102   2.700  0.2484  0.4705  1.6695
  161OSM    H6T18066   5.990  -0.034   2.718 -0.4317 -1.3281  0.5756
  161OSM    C7S18067   6.132   0.103   2.770  0.1663 -0.8083 -0.4197
  161OSM    H7S18068   6.060   0.185   2.754 -0.5381 -0.9493  1.7258
  161OSM    H7T18069   6.231   0.149   2.746  0.3018 -1.0325 -0.2953
  161OSM    C8S18070   6.119   0.062   2.915 -0.4507  0.7524  0.0471
  161OSM    H8S18071   6.150  -0.041   2.943 -3.7904 -0.5084 -0.3528
  161OSM    H8T18072   6.008   0.051   2.912 -0.2413 -1.8578 -1.7312
  161OSM    C9S18073   6.175   0.155   3.015 -0.3480  0.5056  0.0597
  161OSM    H9S18074   6.137   0.253   2.980  1.4527  0.9071 -0.9263
  161OSM    H9T18075   6.286   0.157   3.013 -0.3691  2.3045 -0.7664
  161OSM   C10S18076   6.119   0.143   3.159  0.1177 -0.6619  1.1611
  161OSM   H10S18077   6.135   0.037   3.189  0.3415 -1.3601 -1.2558
  161OSM   H10T18078   6.008   0.152   3.157  0.1298 -0.2328 -1.4666
  161OSM   C11S18079   6.196   0.235   3.251  0.0859 -0.4243 -0.5400
  161OSM   H11S18080   6.180   0.343   3.229 -0.9260 -0.8463 -2.0089
  161OSM   H11T18081   6.303   0.213   3.232  0.6096 -1.4509  2.8872
  161OSM   C12S18082   6.181   0.199   3.397 -0.3013 -0.7441  0.0762
  161OSM   H12S18083   6.192   0.091   3.420 -0.5804 -0.8102 -0.0975
  161OSM   H12T18084   6.084   0.233   3.440 -1.1646 -1.9486 -0.8752
  161OSM   C13S18085   6.294   0.278   3.474 -0.5206  0.7134  0.5166
  161OSM   H13S18086   6.285   0.385   3.447  1.2421  0.4001 -1.6626
  161OSM   H13T18087   6.390   0.249   3.426  0.5456  3.5929  0.7416
  161OSM   C14S18088   6.307   0.245   3.617 -0.0763  0.2567 -1.1148
  161OSM   H14S18089   6.312   0.137   3.642  1.2802  0.4494 -0.4523
  161OSM   H14T18090   6.213   0.272   3.669 -0.1872 -0.0673 -1.1417
  161OSM   C15S18091   6.422   0.320   3.689 -0.1514  0.1643 -0.6105
  161OSM   H15S18092   6.421   0.431   3.678 -0.3994  0.2698  0.3996
  161OSM   H15T18093   6.514   0.284   3.638 -0.3400  0.0585 -0.8785
  161OSM   C16S18094   6.425   0.290   3.836  0.1061  0.4244 -1.0124
  161OSM   H16S18095   6.504   0.356   3.877  0.0911  1.0735 -1.9859
  161OSM   H16T18096   6.447   0.183   3.853  0.4967  0.5863 -0.4835
  161OSM   C17S18097   6.306   0.309   3.925 -0.1544 -0.5629  0.1338
  161OSM   H17S18098   6.339   0.280   4.027 -0.1234 -1.7223 -0.1918
  161OSM   H17T18099   6.214   0.250   3.902 -0.6112  0.0421  0.3741
  161OSM   C18S18100   6.269   0.458   3.935  0.3410  0.5057 -0.1604
  161OSM   H18S18101   6.226   0.505   3.844 -2.3265  0.5695  1.0304
  161OSM   H18T18102   6.354   0.513   3.980 -0.0427 -0.1813  1.4806
  161OSM   H18U18103   6.187   0.461   4.010  1.2756  1.9459  0.8425
  161OSM    C1F18104   5.789   0.357   2.420  0.2206 -0.5092 -0.6491
  161OSM     OF18105   5.691   0.293   2.389  0.1098 -0.3572  0.0579
  161OSM    C2F18106   5.778   0.497   2.485 -0.2288  0.0286  0.2251
  161OSM    H2F18107   5.692   0.557   2.447 -0.2393 -0.6530 -0.8439
  161OSM    H2G18108   5.876   0.542   2.459 -0.4248 -0.4085 -1.3468
  161OSM    C3F18109   5.753   0.492   2.639  0.0518  0.4041 -0.8453
  161OSM    H3F18110   5.650   0.453   2.650  1.0685 -2.3366 -0.4172
  161OSM    H3G18111   5.751   0.600   2.665 -1.4254  0.1854  0.1220
  161OSM    C4F18112   5.839   0.404   2.719 -0.1270 -0.2746 -0.2146
  161OSM    H4F18113   5.946   0.431   2.705 -0.2778  0.2475 -0.4023
  161OSM    H4G18114   5.817   0.305   2.675 -1.1083  1.2267 -3.4047
  161OSM    C5F18115   5.810   0.393   2.871  0.6801  0.2987  0.2442
  161OSM    H5F18116   5.878   0.320   2.919 -1.4175 -0.1448  2.7469
  161OSM    H5G18117   5.704   0.366   2.890  1.5674 -2.0548  2.5329
  161OSM    C6F18118   5.841   0.521   2.937 -0.0980  0.5635 -0.7036
  161OSM    H6F18119   5.813   0.610   2.877 -0.3785 -1.0248 -3.0917
  161OSM    H6G18120   5.950   0.525   2.956  0.0920 -0.7737 -1.4093
  161OSM    C7F18121   5.783   0.532   3.080 -0.0887 -0.1129 -0.4638
  161OSM    H7F18122   5.802   0.436   3.132 -0.2684  0.5796  0.9279
  161OSM    H7G18123   5.673   0.549   3.072  0.3643  2.5995 -2.0096
  161OSM    C8F18124   5.849   0.648   3.164 -0.4488 -0.0249  0.9996
  161OSM    H8F18125   5.862   0.723   3.083 -0.8205 -0.8099  0.1920
  161OSM    H8G18126   5.949   0.612   3.196 -0.4400 -0.2331  0.7390
  161OSM    C9F18127   5.771   0.699   3.274 -0.1496 -0.1733  0.0838
  161OSM    H9F18128   5.714   0.793   3.264 -0.7300 -0.0948  3.2797
  161OSM   C10F18129   5.782   0.662   3.404 -0.0047 -0.3091  0.3138
  161OSM   H10F18130   5.714   0.703   3.480  0.1725 -2.4206  1.7022
  161OSM   C11F18131   5.874   0.550   3.452  0.1687 -0.6492 -0.1756
  161OSM   H11F18132   5.947   0.516   3.376  1.5364  0.8853  0.3921
  161OSM   H11G18133   5.811   0.466   3.488  0.1807 -0.5949 -0.0275
  161OSM   C12F18134   5.957   0.588   3.584 -0.1984  0.1110 -0.0520
  161OSM   H12F18135   6.018   0.679   3.563 -0.8669  0.7911  0.8950
  161OSM   H12G18136   6.022   0.500   3.601 -0.5753  0.2236  2.1868
  161OSM   C13F18137   5.880   0.613   3.715  0.0069 -0.3442 -0.1635
  161OSM   H13F18138   5.839   0.516   3.752  0.0095 -0.2999 -0.0428
  161OSM   H13G18139   5.799   0.689   3.714  1.1260  0.9271  1.2775
  161OSM   C14F18140   5.973   0.667   3.828  0.4441  0.1084  0.1237
  161OSM   H14F18141   6.007   0.767   3.794  0.6747  0.4547  1.3163
  161OSM   H14G18142   6.064   0.603   3.828  0.9157  0.7689 -0.0906
  161OSM   C15F18143   5.905   0.676   3.963 -0.2833  0.0748 -0.2396
  161OSM   H15F18144   5.896   0.570   3.994 -0.0082 -0.6763 -2.5328
  161OSM   H15G18145   5.797   0.704   3.954 -0.2132  0.6153  0.5869
  161OSM   C16F18146   5.982   0.756   4.062  0.0713 -0.0393  0.1429
  161OSM   H16F18147   5.926   0.767   4.157  1.3084  1.0016  0.7756
  161OSM   H16G18148   5.994   0.859   4.024  0.0658 -0.0460  0.1226
  161OSM   C17F18149   6.122   0.707   4.111  0.8974 -0.3375  0.1770
  161OSM   H17F18150   6.192   0.706   4.024  0.0688 -1.8610 -0.5258
  161OSM   H17G18151   6.111   0.607   4.158  0.5934  0.2107  1.2942
  161OSM   C18F18152   6.184   0.799   4.226  0.7755  0.4694  1.0339
  161OSM   H18F18153   6.101   0.825   4.294  0.6814  0.7925  0.7979
  161OSM   H18G18154   6.230   0.889   4.180  1.1009 -2.0798 -4.4052
  161OSM   H18H18155   6.270   0.738   4.261  0.9645 -1.0297 -1.7629
  162OSM      N18156   0.540   2.460   1.605  0.1485  0.0803  0.2916
  162OSM    C1518157   0.524   2.566   1.505  0.6511 -0.5167  0.3940
  162OSM   H15A18158   0.424   2.607   1.511  1.1140  0.4143  2.2009
  162OSM   H15B18159   0.538   2.526   1.405  2.0844  0.8179  0.0225
  162OSM   H15C18160   0.588   2.650   1.526 -1.7434  1.5143  0.0543
  162OSM    C1418161   0.437   2.357   1.578  0.4154  0.3201  0.0655
  162OSM   H14A18162   0.340   2.395   1.606 -0.6859 -1.9341 -0.4662
  162OSM   H14B18163   0.450   2.269   1.640 -1.3148  1.1644  1.7012
  162OSM   H14C18164   0.428   2.337   1.473 -0.4401 -0.7720  0.3300
  162OSM    C1318165   0.678   2.403   1.582 -0.5543  0.1306  0.5560
  162OSM   H13A18166   0.678   2.329   1.503  1.5422 -1.6353  2.0774
  162OSM   H13B18167   0.720   2.354   1.668 -0.7490  0.1426  0.6588
  162OSM   H13C18168   0.741   2.486   1.551 -1.7242  0.8498 -0.0031
  162OSM    C1218169   0.519   2.514   1.744 -0.5793  0.2111 -0.4816
  162OSM   H12A18170   0.414   2.537   1.750 -0.7835 -0.5293 -1.1410
  162OSM   H12B18171   0.561   2.613   1.759 -1.9563  1.1197 -2.2237
  162OSM    C1118172   0.573   2.421   1.855 -0.1026 -0.0502  0.8112
  162OSM   H11A18173   0.553   2.314   1.835 -0.5895 -0.0368  1.2060
  162OSM   H11B18174   0.530   2.442   1.955 -0.9073 -3.5852  1.3257
  162OSM      P18175   0.782   2.567   1.918  0.3386 -0.2568 -0.1285
  162OSM    O1318176   0.926   2.549   1.953 -0.4550  0.2944 -0.4338
  162OSM    O1418177   0.747   2.687   1.838  0.1185  0.4316  0.6505
  162OSM    O1118178   0.704   2.580   2.050  0.0885 -0.4224 -0.1650
  162OSM    O1218179   0.717   2.436   1.860  0.1777 -0.3986  0.1051
  162OSM    C1S18180   0.694   2.486   2.152  0.0796  0.8063 -0.2215
  162OSM    H1S18181   0.786   2.426   2.172  0.8960  1.4235 -1.9637
  162OSM    H1T18182   0.625   2.405   2.119  1.7343 -0.1866 -1.4082
  162OSM     NF18183   0.626   2.430   2.378 -0.3780  0.0403 -0.3053
  162OSM    HNF18184   0.536   2.407   2.414  0.6110 -1.8152  1.1960
  162OSM    C2S18185   0.651   2.543   2.290 -0.4409  0.4231  0.0856
  162OSM    H2S18186   0.725   2.603   2.345 -0.7277  0.0134  0.9349
  162OSM    C3S18187   0.532   2.642   2.274  0.1328  0.4712 -0.0488
  162OSM    H3S18188   0.446   2.589   2.229 -0.3445 -1.1656  2.5986
  162OSM     O318189   0.571   2.753   2.190  0.8796 -0.6496 -0.0502
  162OSM    HO318190   0.648   2.719   2.144  0.8910 -0.4017 -0.2097
  162OSM    C4S18191   0.476   2.686   2.411 -0.9427  0.1151  0.1140
  162OSM    H4S18192   0.431   2.611   2.477  2.8072 -0.7024  1.9735
  162OSM    C5S18193   0.473   2.807   2.464  0.0686 -0.3395  0.2472
  162OSM    H5S18194   0.501   2.898   2.409 -1.4929  0.8032  1.2654
  162OSM    C6S18195   0.424   2.829   2.605  0.0939 -0.2485 -0.5152
  162OSM    H6S18196   0.314   2.829   2.594  0.0858 -1.9347 -0.5896
  162OSM    H6T18197   0.453   2.927   2.649 -0.1768 -1.0499  1.5642
  162OSM    C7S18198   0.450   2.719   2.712  0.4693  0.4199 -0.0532
  162OSM    H7S18199   0.558   2.722   2.736  0.2977  3.8063  0.7658
  162OSM    H7T18200   0.417   2.622   2.670  2.3357 -0.4512  0.3922
  162OSM    C8S18201   0.383   2.739   2.845  0.0208 -0.3026  0.1086
  162OSM    H8S18202   0.275   2.764   2.834 -0.1670 -1.0972  0.0950
  162OSM    H8T18203   0.448   2.818   2.889  1.8997 -1.0552 -1.1800
  162OSM    C9S18204   0.389   2.617   2.937 -0.2130  0.0441  0.0368
  162OSM    H9S18205   0.494   2.581   2.930  0.2468  0.6775  2.7979
  162OSM    H9T18206   0.333   2.550   2.868 -1.0077  0.0441  0.6731
  162OSM   C10S18207   0.330   2.614   3.079 -0.2923  0.1113 -0.0703
  162OSM   H10S18208   0.379   2.526   3.125  1.4231  0.8810 -0.3526
  162OSM   H10T18209   0.221   2.593   3.073 -0.3939 -0.0044  1.7630
  162OSM   C11S18210   0.351   2.745   3.163  0.7564 -0.4201 -0.0423
  162OSM   H11S18211   0.314   2.836   3.111  2.6903 -0.2167 -1.1628
  162OSM   H11T18212   0.462   2.754   3.165  0.7131  0.6844 -1.3280
  162OSM   C12S18213   0.311   2.727   3.309 -0.2075 -0.6469 -0.1774
  162OSM   H12S18214   0.384   2.784   3.371  1.3738 -0.8508 -1.7793
  162OSM   H12T18215   0.317   2.619   3.336  0.9966 -0.2627  1.2447
  162OSM   C13S18216   0.175   2.786   3.332  0.4722  0.1807 -0.6315
  162OSM   H13S18217   0.094   2.723   3.290  1.1384 -0.8468 -0.3972
  162OSM   H13T18218   0.166   2.884   3.280  2.0667  0.0831 -1.1302
  162OSM   C14S18219   0.136   2.806   3.482 -0.0067  0.7820 -0.0138
  162OSM   H14S18220   0.200   2.877   3.538  1.7256 -0.4189 -0.3700
  162OSM   H14T18221   0.153   2.707   3.530 -0.5256  0.0769 -1.2261
  162OSM   C15S18222  -0.004   2.863   3.518 -0.0821  0.4551  0.0760
  162OSM   H15S18223  -0.085   2.811   3.462  0.6968 -0.8046  0.0737
  162OSM   H15T18224  -0.011   2.964   3.472 -0.8939 -0.2459 -1.4353
  162OSM   C16S18225  -0.035   2.851   3.668 -0.1072  0.0431  0.1958
  162OSM   H16S18226   0.041   2.915   3.719 -1.6320  1.1333  1.1894
  162OSM   H16T18227  -0.027   2.749   3.710 -0.7985 -0.9175 -1.8785
  162OSM   C17S18228  -0.174   2.885   3.697 -0.0538 -0.5800 -0.3260
  162OSM   H17S18229  -0.242   2.816   3.642 -0.7007  0.3216 -0.6732
  162OSM   H17T18230  -0.204   2.984   3.657  2.0222 -0.0270 -0.6671
  162OSM   C18S18231  -0.213   2.870   3.842 -0.2803 -0.6448  0.0512
  162OSM   H18S18232  -0.311   2.916   3.864  0.2811 -0.1416  1.6577
  162OSM   H18T18233  -0.141   2.931   3.901 -0.9516  1.5567 -1.2797
  162OSM   H18U18234  -0.213   2.765   3.879  0.3615 -0.8283 -0.4579
  162OSM    C1F18235   0.712   2.325   2.398  0.5002 -0.2995 -0.0426
  162OSM     OF18236   0.831   2.330   2.382 -0.2006 -0.1838  0.1267
  162OSM    C2F18237   0.659   2.202   2.455 -0.0563 -0.3921 -0.0325
  162OSM    H2F18238   0.727   2.114   2.449 -0.2679 -0.7818  2.1661
  162OSM    H2G18239   0.555   2.188   2.421 -0.5098  0.5935  0.8860
  162OSM    C3F18240   0.655   2.217   2.610  0.5219 -0.0607  0.4535
  162OSM    H3F18241   0.574   2.287   2.639 -1.0118 -0.5806 -2.2613
  162OSM    H3G18242   0.748   2.265   2.649  2.2480 -2.0123 -1.0543
  162OSM    C4F18243   0.624   2.083   2.678 -0.5904 -0.2389  0.0066
  162OSM    H4F18244   0.697   2.005   2.648 -1.0403 -0.4876 -0.4772
  162OSM    H4G18245   0.521   2.058   2.643 -0.8479  1.4395 -0.5219
  162OSM    C5F18246   0.617   2.099   2.828  0.7266 -0.4343 -0.1572
  162OSM    H5F18247   0.526   2.160   2.841 -0.3780 -2.3123  1.4369
  162OSM    H5G18248   0.701   2.163   2.864 -1.7305  1.6574  2.2962
  162OSM    C6F18249   0.610   1.971   2.898 -0.3509  0.3075 -0.0413
  162OSM    H6F18250   0.697   1.912   2.863 -0.0011  1.1987 -0.7088
  162OSM    H6G18251   0.514   1.922   2.870 -0.0174  0.0350 -0.7456
  162OSM    C7F18252   0.616   1.980   3.049 -0.2641 -0.4651 -0.1077
  162OSM    H7F18253   0.719   2.015   3.073  0.0756 -0.4772 -1.4826
  162OSM    H7G18254   0.607   1.878   3.091 -0.5939 -0.5325 -0.3455
  162OSM    C8F18255   0.511   2.063   3.123  0.0588 -0.0273 -0.0349
  162OSM    H8F18256   0.513   2.164   3.077  0.6783  0.0618  0.1796
  162OSM    H8G18257   0.548   2.079   3.227  2.5646  0.6814 -0.9734
  162OSM    C9F18258   0.376   2.003   3.118 -0.5346 -0.1037 -0.0033
  162OSM    H9F18259   0.342   1.954   3.025 -1.1142  2.2598 -1.1130
  162OSM   C10F18260   0.289   1.993   3.222  0.4264  0.0644 -0.0499
  162OSM   H10F18261   0.188   1.952   3.206 -0.4230  1.8650  0.4561
  162OSM   C11F18262   0.300   2.031   3.365  0.2989 -0.0068 -0.6208
  162OSM   H11F18263   0.405   2.031   3.402 -0.1407 -0.9439  0.6719
  162OSM   H11G18264   0.242   1.956   3.422 -1.3169  0.9225 -0.9536
  162OSM   C12F18265   0.240   2.177   3.388 -0.1763  0.2526 -0.1044
  162OSM   H12F18266   0.132   2.154   3.392 -0.2984  0.3878 -1.7912
  162OSM   H12G18267   0.277   2.246   3.308 -0.7772 -0.6443 -1.1795
  162OSM   C13F18268   0.295   2.227   3.517  0.5514 -0.1365  0.1326
  162OSM   H13F18269   0.400   2.255   3.494  0.4554  0.2552  0.1610
  162OSM   H13G18270   0.305   2.150   3.597 -0.7618  1.3028  1.7727
  162OSM   C14F18271   0.215   2.346   3.583 -0.6835 -0.3622 -0.5671
  162OSM   H14F18272   0.111   2.307   3.587  0.4288 -3.5770 -0.4444
  162OSM   H14G18273   0.231   2.444   3.533  1.4396  0.7700  2.0684
  162OSM   C15F18274   0.261   2.376   3.734 -0.1966 -0.4652  0.1924
  162OSM   H15F18275   0.361   2.425   3.732 -0.5238  0.2132  0.4185
  162OSM   H15G18276   0.271   2.279   3.787 -2.0638 -1.7041 -1.5550
  162OSM   C16F18277   0.158   2.465   3.809  0.3068 -0.4859 -0.2574
  162OSM   H16F18278   0.149   2.558   3.749  0.5118  0.2149  0.7760
  162OSM   H16G18279   0.206   2.494   3.905 -4.9684  0.8635  2.3746
  162OSM   C17F18280   0.022   2.405   3.841  0.3162  0.6410 -0.1026
  162OSM   H17F18281   0.022   2.309   3.897 -1.5928  0.0937 -0.9579
  162OSM   H17G18282  -0.032   2.379   3.748  0.0378 -1.5730  0.6235
  162OSM   C18F18283  -0.077   2.496   3.921 -0.3525  0.2847 -0.6504
  162OSM   H18F18284  -0.047   2.493   4.027  0.6905  1.4597 -0.8871
  162OSM   H18G18285  -0.184   2.471   3.903 -0.1403 -0.2101 -1.2401
  162OSM   H18H18286  -0.068   2.602   3.886 -2.2568  0.9985  0.8388
  163OSM      N18287   5.819   1.027   2.043  0.3484 -0.0544  0.4002
  163OSM    C1518288   5.910   0.906   2.023  0.3676 -0.7680  0.2034
  163OSM   H15A18289   6.007   0.925   2.066 -0.5674 -0.3299  2.2458
  163OSM   H15B18290   5.931   0.889   1.919 -1.7730  0.7189 -0.5398
  163OSM   H15C18291   5.860   0.813   2.047 -1.4293 -0.1153 -0.7813
  163OSM    C1418292   5.885   1.162   2.007  0.6957  0.4559  0.2734
  163OSM   H14A18293   5.817   1.245   2.024 -0.1016 -0.4288  1.5533
  163OSM   H14B18294   5.919   1.159   1.904  2.5667 -0.0864  0.8672
  163OSM   H14C18295   5.976   1.180   2.061  1.4724  0.2361 -0.9302
  163OSM    C1318296   5.688   1.007   1.970  0.1091  0.4884 -0.5244
  163OSM   H13A18297   5.689   1.040   1.867 -1.3707  0.3783 -0.6036
  163OSM   H13B18298   5.610   1.068   2.014 -0.1846  1.4054 -2.2055
  163OSM   H13C18299   5.657   0.904   1.971  0.2941  0.3500 -3.0523
  163OSM    C1218300   5.780   1.033   2.190 -0.4488  0.7665  0.2868
  163OSM   H12A18301   5.869   1.020   2.249  1.1483  0.2856 -2.0851
  163OSM   H12B18302   5.723   0.946   2.221 -0.3539  0.5946 -0.0160
  163OSM    C1118303   5.711   1.162   2.246  0.3793  0.3597  0.0789
  163OSM   H11A18304   5.785   1.245   2.239  0.5007  0.2198 -0.2956
  163OSM   H11B18305   5.690   1.136   2.352 -0.1078 -1.6698 -0.4934
  163OSM      P18306   5.548   1.309   2.091 -0.0173 -0.2396  0.4674
  163OSM    O1318307   5.664   1.361   2.019 -0.5860  0.5948  0.3558
  163OSM    O1418308   5.442   1.264   2.000  0.3223 -0.6704 -0.2633
  163OSM    O1118309   5.484   1.417   2.188 -0.3349 -0.3427  0.1298
  163OSM    O1218310   5.583   1.187   2.183 -0.5865 -0.0958 -0.0694
  163OSM    C1S18311   5.385   1.362   2.278  0.1616  0.0839  0.0932
  163OSM    H1S18312   5.361   1.254   2.270  2.0237 -0.3235 -0.4318
  163OSM    H1T18313   5.289   1.416   2.261  1.4026  2.3504 -0.0230
  163OSM     NF18314   5.338   1.302   2.511  0.2396 -0.1750 -0.4848
  163OSM    HNF18315   5.254   1.344   2.543 -0.3233 -1.7847  0.2879
  163OSM    C2S18316   5.424   1.379   2.427 -0.4539 -0.2390  0.1044
  163OSM    H2S18317   5.530   1.346   2.422  0.1456  1.6244 -0.1632
  163OSM    C3S18318   5.423   1.531   2.459 -0.0569  0.5273  0.0407
  163OSM    H3S18319   5.324   1.571   2.431 -1.3107 -1.5043  1.3126
  163OSM     O318320   5.520   1.607   2.384  0.1201 -0.0768 -0.1469
  163OSM    HO318321   5.531   1.550   2.307 -1.5495 -1.9759  0.9237
  163OSM    C4S18322   5.438   1.559   2.608  0.6853  0.0423 -0.0113
  163OSM    H4S18323   5.338   1.535   2.647  0.4473 -2.1465 -1.7742
  163OSM    C5S18324   5.534   1.622   2.680  0.5979  0.4769 -0.4811
  163OSM    H5S18325   5.614   1.674   2.624 -0.1551  0.9115 -1.1676
  163OSM    C6S18326   5.511   1.657   2.827 -0.3921  0.0282 -0.2124
  163OSM    H6S18327   5.493   1.565   2.887  1.4987 -1.6041 -1.9779
  163OSM    H6T18328   5.411   1.706   2.826 -0.7722 -0.7195  0.2251
  163OSM    C7S18329   5.635   1.741   2.876  0.0741  0.6537 -0.4895
  163OSM    H7S18330   5.664   1.810   2.795  2.1552  0.6381  0.1755
  163OSM    H7T18331   5.717   1.670   2.902 -1.9852 -0.9343  2.2675
  163OSM    C8S18332   5.594   1.812   3.008  0.4927 -0.3682  0.1391
  163OSM    H8S18333   5.499   1.868   2.993 -0.5429 -1.1588  3.0763
  163OSM    H8T18334   5.675   1.883   3.034  0.5606 -0.6175  0.6160
  163OSM    C9S18335   5.573   1.735   3.132  0.3032 -0.4656  0.7055
  163OSM    H9S18336   5.669   1.700   3.176  0.6138  1.1547  1.3688
  163OSM    H9T18337   5.511   1.648   3.102  0.4903 -0.7578  1.1498
  163OSM   C10S18338   5.495   1.821   3.233  0.1500 -0.5747 -0.7288
  163OSM   H10S18339   5.417   1.876   3.176  0.0609  0.5964  0.4823
  163OSM   H10T18340   5.555   1.909   3.263  0.2708 -0.7082 -0.5807
  163OSM   C11S18341   5.445   1.751   3.357  0.6266 -0.0391 -0.8298
  163OSM   H11S18342   5.526   1.689   3.401  1.3257  0.4143 -1.4491
  163OSM   H11T18343   5.364   1.688   3.315 -0.5204  1.2411 -0.6052
  163OSM   C12S18344   5.374   1.851   3.456  0.2746 -0.0233 -0.0465
  163OSM   H12S18345   5.330   1.938   3.402 -0.9345  0.5453  1.7743
  163OSM   H12T18346   5.459   1.891   3.515 -0.0984  0.9049 -0.1212
  163OSM   C13S18347   5.282   1.771   3.550  0.4935 -0.2335 -0.6254
  163OSM   H13S18348   5.349   1.693   3.590  1.1722  0.4379 -0.4292
  163OSM   H13T18349   5.187   1.729   3.509 -0.2832 -1.8380  2.5010
  163OSM   C14S18350   5.232   1.859   3.669 -0.7498 -0.1643  0.1972
  163OSM   H14S18351   5.129   1.898   3.657 -0.4639  0.1405 -1.4703
  163OSM   H14T18352   5.299   1.945   3.688 -0.9707 -0.1125  0.7532
  163OSM   C15S18353   5.245   1.767   3.799 -0.6363  0.1131 -0.8642
  163OSM   H15S18354   5.352   1.739   3.805 -0.5892  0.5399  0.7496
  163OSM   H15T18355   5.183   1.675   3.799  0.5200 -0.6933  0.5966
  163OSM   C16S18356   5.215   1.832   3.938  0.3845 -0.2769  0.0823
  163OSM   H16S18357   5.237   1.941   3.938  0.6643 -0.3289  0.4349
  163OSM   H16T18358   5.287   1.791   4.013 -0.2782  1.9188  2.0613
  163OSM   C17S18359   5.073   1.819   3.985  0.3851  0.0664  0.7771
  163OSM   H17S18360   5.032   1.721   3.951 -1.5124  0.6298  1.3106
  163OSM   H17T18361   5.012   1.898   3.936  0.6089  0.5250  1.2325
  163OSM   C18S18362   5.055   1.840   4.137  0.5503  0.8857 -0.1605
  163OSM   H18S18363   5.113   1.770   4.200 -3.1457 -0.6647  1.8039
  163OSM   H18T18364   4.948   1.847   4.167 -0.1457 -3.0683 -1.2101
  163OSM   H18U18365   5.080   1.945   4.165 -3.3655  2.1341 -0.6883
  163OSM    C1F18366   5.346   1.174   2.503 -0.1632  0.3505 -1.0392
  163OSM     OF18367   5.432   1.117   2.444  0.0606 -0.1180  0.3084
  163OSM    C2F18368   5.249   1.096   2.583  0.0846 -0.0335 -0.1064
  163OSM    H2F18369   5.193   1.021   2.523 -0.6716 -1.0231  1.7457
  163OSM    H2G18370   5.176   1.168   2.625  1.2664  0.6303  0.8424
  163OSM    C3F18371   5.318   1.003   2.687 -0.3997 -0.4603  0.2250
  163OSM    H3F18372   5.424   0.986   2.658 -0.7044 -2.1450 -0.0219
  163OSM    H3G18373   5.254   0.912   2.687 -0.8392 -0.1522  0.4628
  163OSM    C4F18374   5.320   1.066   2.827 -0.2665 -0.3849 -0.2442
  163OSM    H4F18375   5.216   1.080   2.864 -1.4599 -2.0765 -2.7308
  163OSM    H4G18376   5.363   1.168   2.814  1.2873 -1.1606 -1.5465
  163OSM    C5F18377   5.406   0.988   2.916 -0.4964 -0.3701 -0.2120
  163OSM    H5F18378   5.504   0.959   2.872  0.8886  1.2758  1.6159
  163OSM    H5G18379   5.348   0.892   2.921  0.7142 -1.0991  0.1898
  163OSM    C6F18380   5.438   1.047   3.056  0.5154  0.2859 -0.2702
  163OSM    H6F18381   5.475   1.149   3.033 -2.7000  1.3218 -1.4710
  163OSM    H6G18382   5.527   0.996   3.097  1.0457  2.4111  1.3518
  163OSM    C7F18383   5.319   1.030   3.153  0.0160 -0.5794 -0.0373
  163OSM    H7F18384   5.284   0.925   3.157  1.5323 -1.1004  0.2382
  163OSM    H7G18385   5.231   1.087   3.117 -0.0606  0.4368  1.6354
  163OSM    C8F18386   5.349   1.066   3.299 -0.5403  0.7152  0.6806
  163OSM    H8F18387   5.252   1.060   3.353 -0.2094 -0.5714  1.1588
  163OSM    H8G18388   5.388   1.170   3.304 -0.7553  0.8584 -0.2503
  163OSM    C9F18389   5.455   0.981   3.358  0.5732 -0.3061 -0.0507
  163OSM    H9F18390   5.542   0.968   3.292  0.6256  1.8135 -0.4852
  163OSM   C10F18391   5.453   0.912   3.474  0.4353  0.0774  0.3238
  163OSM   H10F18392   5.545   0.861   3.506  1.9094  0.9605 -2.2350
  163OSM   C11F18393   5.352   0.921   3.585  0.6555  0.3981 -0.4107
  163OSM   H11F18394   5.292   0.828   3.589  1.2832 -0.0152 -0.5796
  163OSM   H11G18395   5.289   1.008   3.556  2.1927  0.6201 -3.4730
  163OSM   C12F18396   5.409   0.952   3.725 -0.0991  0.4861 -0.0331
  163OSM   H12F18397   5.329   0.992   3.791 -2.1067  1.0370 -2.6292
  163OSM   H12G18398   5.492   1.025   3.724  1.0164 -0.7215  0.8368
  163OSM   C13F18399   5.459   0.825   3.797 -0.5326 -0.3107 -0.2220
  163OSM   H13F18400   5.527   0.769   3.731 -2.2127  0.0232 -2.3458
  163OSM   H13G18401   5.379   0.748   3.811 -1.4130  0.5437 -0.4206
  163OSM   C14F18402   5.529   0.846   3.935 -0.0984 -0.0999 -0.0747
  163OSM   H14F18403   5.626   0.895   3.912  1.0049 -1.3711  1.6007
  163OSM   H14G18404   5.553   0.745   3.975 -0.6801  0.6929  2.4154
  163OSM   C15F18405   5.454   0.929   4.036 -0.4483 -0.7132 -0.5844
  163OSM   H15F18406   5.355   0.882   4.056 -1.0743  1.1761  1.0648
  163OSM   H15G18407   5.436   1.032   3.999  1.4866  0.2166  0.8947
  163OSM   C16F18408   5.532   0.916   4.168  0.2823 -0.1481 -0.1305
  163OSM   H16F18409   5.530   0.817   4.220  0.8522  0.7399  1.6805
  163OSM   H16G18410   5.471   0.974   4.241  2.2984 -0.2510  1.7419
  163OSM   C17F18411   5.672   0.972   4.179  0.3153 -0.6073 -0.3884
  163OSM   H17F18412   5.673   1.074   4.134  0.7404  0.0343  1.0127
  163OSM   H17G18413   5.736   0.898   4.126 -1.2098 -3.0901  1.0441
  163OSM   C18F18414   5.712   0.991   4.325  0.2453 -0.1179 -0.3536
  163OSM   H18F18415   5.711   0.893   4.378  0.1007  0.6806  1.2009
  163OSM   H18G18416   5.640   1.054   4.382  2.0945  1.3659  0.4339
  163OSM   H18H18417   5.811   1.041   4.332  1.5848 -2.5959 -0.4671
  164OSM      N18418   3.241   6.283   1.874  0.3526  0.2115 -0.2174
  164OSM    C1518419   3.377   6.243   1.924 -0.3333 -0.2717 -0.0074
  164OSM   H15A18420   3.421   6.324   1.980  0.2932 -0.4331 -0.2597
  164OSM   H15B18421   3.445   6.219   1.844 -2.4084  0.6087 -2.1689
  164OSM   H15C18422   3.375   6.153   1.983 -0.2533 -0.3380 -0.1069
  164OSM    C1418423   3.179   6.171   1.803  1.0879  0.0764 -0.5688
  164OSM   H14A18424   3.080   6.195   1.768 -0.3459 -2.9462  1.0485
  164OSM   H14B18425   3.167   6.082   1.862 -1.7664 -0.3723 -1.6808
  164OSM   H14C18426   3.225   6.149   1.708  0.0722 -0.2298 -1.0013
  164OSM    C1318427   3.148   6.308   1.993 -0.3122 -0.4501  0.1080
  164OSM   H13A18428   3.135   6.220   2.054 -0.7815 -0.0106  0.6470
  164OSM   H13B18429   3.050   6.331   1.954  0.1904 -0.4204 -1.1720
  164OSM   H13C18430   3.194   6.387   2.051  0.2428 -1.6979  1.4132
  164OSM    C1218431   3.261   6.411   1.786 -0.0031  0.0549 -0.0882
  164OSM   H12A18432   3.177   6.446   1.729 -0.6103  2.0194  1.8420
  164OSM   H12B18433   3.335   6.391   1.711 -0.0571  0.5178 -0.2669
  164OSM    C1118434   3.305   6.531   1.862  0.3602 -0.1226  0.2281
  164OSM   H11A18435   3.305   6.613   1.787 -1.0917 -0.8070 -0.5583
  164OSM   H11B18436   3.407   6.508   1.899  0.0236 -2.3428 -0.1193
  164OSM      P18437   3.231   6.682   2.071  0.0585 -0.0420  0.2022
  164OSM    O1318438   3.309   6.793   2.010 -0.0854 -0.1421  0.3925
  164OSM    O1418439   3.104   6.710   2.141 -0.3505  0.2573  0.0424
  164OSM    O1118440   3.330   6.600   2.168 -0.2800 -1.1752  0.4586
  164OSM    O1218441   3.204   6.574   1.960  0.2744  0.0964  0.3001
  164OSM    C1S18442   3.412   6.667   2.262 -0.5233 -0.3637 -0.3419
  164OSM    H1S18443   3.346   6.734   2.321  0.6048 -1.3847  2.2368
  164OSM    H1T18444   3.486   6.729   2.208 -0.8128 -0.6532 -1.0864
  164OSM     NF18445   3.540   6.653   2.469  0.2007  0.0571  0.2190
  164OSM    HNF18446   3.637   6.673   2.460  0.5600 -1.1507  1.0460
  164OSM    C2S18447   3.493   6.570   2.357  0.4746  0.2745  0.8799
  164OSM    H2S18448   3.423   6.500   2.407 -2.7977  2.0979 -0.7819
  164OSM    C3S18449   3.596   6.496   2.275  0.3520  0.1972 -0.3550
  164OSM    H3S18450   3.670   6.569   2.237  1.6453 -1.2694 -0.7840
  164OSM     O318451   3.536   6.427   2.163 -0.4383 -0.0397  0.2648
  164OSM    HO318452   3.451   6.472   2.156 -0.3496 -0.0910 -1.3322
  164OSM    C4S18453   3.667   6.397   2.357 -0.3805  0.0370 -0.4153
  164OSM    H4S18454   3.603   6.329   2.414  1.8658 -4.4453 -2.7145
  164OSM    C5S18455   3.803   6.390   2.375  0.3924  0.3268 -0.0264
  164OSM    H5S18456   3.879   6.460   2.336  2.6796 -1.0259  1.7272
  164OSM    C6S18457   3.868   6.295   2.471  0.0832 -0.0443  0.4549
  164OSM    H6S18458   3.933   6.224   2.416  1.2564 -0.9713  2.8850
  164OSM    H6T18459   3.796   6.240   2.536 -0.6556 -0.3657 -0.6102
  164OSM    C7S18460   3.966   6.366   2.575  0.2015  0.6915  0.0565
  164OSM    H7S18461   4.060   6.406   2.533  2.2524 -2.5358  1.2086
  164OSM    H7T18462   4.002   6.279   2.634 -1.0864  0.7856  1.0442
  164OSM    C8S18463   3.898   6.466   2.667  0.3436  0.2089  0.3032
  164OSM    H8S18464   3.818   6.429   2.734 -0.1134 -0.7174 -0.7304
  164OSM    H8T18465   3.836   6.538   2.609 -0.0944  1.5525  2.3394
  164OSM    C9S18466   3.996   6.552   2.740  0.1669 -1.0218 -0.1453
  164OSM    H9S18467   4.040   6.637   2.683  0.0190 -1.6739 -1.2621
  164OSM    H9T18468   4.079   6.482   2.760 -0.1927 -1.5185 -0.3797
  164OSM   C10S18469   3.937   6.608   2.877  0.7515 -0.4251  0.2218
  164OSM   H10S18470   3.861   6.536   2.914 -0.6335  0.0304 -1.5758
  164OSM   H10T18471   3.887   6.706   2.861  0.6699 -0.4338  0.4156
  164OSM   C11S18472   4.036   6.612   2.991 -1.3628 -0.2539  0.0355
  164OSM   H11S18473   4.127   6.673   2.977 -2.4206  1.4070  0.0862
  164OSM   H11T18474   4.082   6.512   3.009 -0.9349  0.1104  0.9956
  164OSM   C12S18475   3.967   6.655   3.120  0.0978  0.2597  0.7108
  164OSM   H12S18476   3.878   6.593   3.147 -0.2038  1.0096  1.4509
  164OSM   H12T18477   3.914   6.751   3.105 -2.3866 -1.3684 -2.1471
  164OSM   C13S18478   4.060   6.668   3.242 -0.3247  0.8297  0.2805
  164OSM   H13S18479   4.024   6.742   3.317  0.6197  1.0830  0.4934
  164OSM   H13T18480   4.159   6.711   3.217  0.0487  0.1920  0.6309
  164OSM   C14S18481   4.079   6.540   3.321 -0.7435 -1.0283 -0.3986
  164OSM   H14S18482   4.148   6.474   3.264 -0.3299  0.1007 -1.2351
  164OSM   H14T18483   3.986   6.479   3.316 -1.1084 -0.8615  2.5817
  164OSM   C15S18484   4.136   6.577   3.460  0.3835 -0.3884 -0.0669
  164OSM   H15S18485   4.068   6.655   3.500  1.9565  0.4698  0.9971
  164OSM   H15T18486   4.233   6.630   3.451 -0.4173  1.6213  2.2680
  164OSM   C16S18487   4.154   6.459   3.557  0.1363  0.5299 -0.6710
  164OSM   H16S18488   4.190   6.379   3.488  1.6022 -0.3111  0.9741
  164OSM   H16T18489   4.055   6.418   3.587  0.0182  0.6291 -0.9244
  164OSM   C17S18490   4.251   6.493   3.670  0.0795 -0.2010 -0.3693
  164OSM   H17S18491   4.217   6.575   3.736  1.3860  1.4626 -1.6666
  164OSM   H17T18492   4.348   6.530   3.631  0.3046  1.3263  1.5061
  164OSM   C18S18493   4.286   6.373   3.756  0.2107  0.3764  0.6777
  164OSM   H18S18494   4.321   6.294   3.687  0.3937  0.3727  0.7744
  164OSM   H18T18495   4.192   6.337   3.803  1.0513 -2.7425  0.2011
  164OSM   H18U18496   4.365   6.393   3.832  1.0672  2.0232 -0.5574
  164OSM    C1F18497   3.470   6.710   2.574 -0.0982  0.2254  0.3423
  164OSM     OF18498   3.352   6.703   2.585  0.4056  0.4378  0.3879
  164OSM    C2F18499   3.550   6.793   2.670  0.0016 -0.0691 -0.0380
  164OSM    H2F18500   3.561   6.891   2.617 -2.3586 -0.4909 -1.4373
  164OSM    H2G18501   3.652   6.756   2.696 -0.1961 -0.0749  0.7300
  164OSM    C3F18502   3.466   6.819   2.798 -0.4167 -0.1669  0.0785
  164OSM    H3F18503   3.407   6.730   2.828 -0.4833 -1.4398 -3.4564
  164OSM    H3G18504   3.392   6.899   2.777  1.7888  1.9824  0.1059
  164OSM    C4F18505   3.557   6.854   2.909 -1.1030 -0.3395 -0.8411
  164OSM    H4F18506   3.661   6.816   2.892 -0.1451  2.4003 -1.6212
  164OSM    H4G18507   3.519   6.808   3.002  2.3419 -1.8246 -0.0090
  164OSM    C5F18508   3.583   6.999   2.935  0.5669 -0.8157  0.3182
  164OSM    H5F18509   3.494   7.052   2.975  2.0507  0.3010  2.3464
  164OSM    H5G18510   3.596   7.035   2.831  1.1235 -0.3272  0.5490
  164OSM    C6F18511   3.699   7.035   3.026 -0.4910 -0.0981 -0.6077
  164OSM    H6F18512   3.730   7.142   3.033 -0.3372 -0.2156  0.7111
  164OSM    H6G18513   3.789   6.980   2.991 -0.5007 -1.7397  1.7434
  164OSM    C7F18514   3.651   7.002   3.171 -0.3509 -0.4676 -0.5143
  164OSM    H7F18515   3.618   6.896   3.173 -0.0621 -0.5621 -0.7394
  164OSM    H7G18516   3.558   7.061   3.187 -1.3302 -1.2724 -2.8779
  164OSM    C8F18517   3.764   7.021   3.282  0.3189  0.1221  0.4338
  164OSM    H8F18518   3.853   6.957   3.262  0.0325 -1.3001  3.2013
  164OSM    H8G18519   3.722   6.963   3.367 -0.7848  0.0437 -0.1459
  164OSM    C9F18520   3.800   7.163   3.332  0.1335 -0.0401  1.2174
  164OSM    H9F18521   3.894   7.202   3.291 -0.1722 -0.2833  0.2485
  164OSM   C10F18522   3.730   7.221   3.426  0.3153  0.0811 -0.4015
  164OSM   H10F18523   3.755   7.324   3.457 -0.9792 -0.0193  1.1285
  164OSM   C11F18524   3.609   7.162   3.497  0.8053  0.1483  0.2553
  164OSM   H11F18525   3.622   7.058   3.533  1.2876  0.2080  0.2601
  164OSM   H11G18526   3.528   7.167   3.421 -0.9899 -0.5468  2.0345
  164OSM   C12F18527   3.567   7.239   3.620  0.6056 -0.0735  0.6801
  164OSM   H12F18528   3.466   7.214   3.660  0.6423  2.3937  2.5715
  164OSM   H12G18529   3.558   7.344   3.582  0.6123 -0.2401  0.2078
  164OSM   C13F18530   3.669   7.226   3.725 -0.5472 -0.6401  0.5792
  164OSM   H13F18531   3.765   7.278   3.710 -0.2930 -1.8355 -2.6061
  164OSM   H13G18532   3.691   7.117   3.730  0.1310 -0.4771  1.3173
  164OSM   C14F18533   3.617   7.257   3.867  0.3386 -0.2604 -0.0353
  164OSM   H14F18534   3.529   7.192   3.886  0.1524 -0.9907 -2.9150
  164OSM   H14G18535   3.586   7.361   3.891 -0.9116 -0.3039 -1.3430
  164OSM   C15F18536   3.722   7.224   3.979 -0.4473  0.6809  0.3315
  164OSM   H15F18537   3.809   7.292   3.964 -0.2738  0.8693  2.0372
  164OSM   H15G18538   3.754   7.117   3.973  0.5086  0.9757  0.0108
  164OSM   C16F18539   3.662   7.251   4.119 -0.2305  0.3828 -0.0767
  164OSM   H16F18540   3.582   7.187   4.161  0.6707 -0.4162  0.4804
  164OSM   H16G18541   3.623   7.353   4.103 -1.3774  0.0822  0.6793
  164OSM   C17F18542   3.760   7.251   4.237  0.6022 -0.2573  1.1125
  164OSM   H17F18543   3.866   7.270   4.210  0.5534 -0.2835  0.8995
  164OSM   H17G18544   3.759   7.145   4.271 -0.6141 -0.0611  1.7351
  164OSM   C18F18545   3.733   7.342   4.352 -0.0281 -0.3966  0.7683
  164OSM   H18F18546   3.634   7.329   4.401 -0.8324  0.9942 -0.4063
  164OSM   H18G18547   3.724   7.443   4.307 -3.1139 -0.6416  0.6109
  164OSM   H18H18548   3.817   7.353   4.424  1.7227 -1.3805 -1.0012
  165SAPS     N18549   3.118   6.462   6.463  0.4739  0.5842 -0.6382
  165SAPS   HN118550   3.055   6.379   6.462 -0.7727  1.4174 -3.1870
  165SAPS   HN218551   3.084   6.517   6.381 -1.7858  2.1339  1.2206
  165SAPS   HN318552   3.218   6.441   6.446  0.7776 -0.3566  1.8805
  165SAPS   C1218553   3.104   6.558   6.578  0.3688 -0.1290 -0.3759
  165SAPS  H12A18554   3.002   6.585   6.601  1.1024  1.3469  1.4695
  165SAPS   C1318555   3.167   6.513   6.714  0.1056  0.1509 -0.1143
  165SAPS  O13A18556   3.208   6.392   6.727  0.2171  0.6159  0.4399
  165SAPS  O13B18557   3.162   6.598   6.806 -0.9219  0.1739  0.1885
  165SAPS   C1118558   3.163   6.692   6.522  0.0306 -0.2502 -0.0156
  165SAPS  H11A18559   3.266   6.672   6.487  0.3748  1.8749 -0.3682
  165SAPS  H11B18560   3.167   6.763   6.608 -0.1561 -0.7087  0.3799
  165SAPS     P18561   3.097   6.751   6.276  0.0386 -0.0423 -0.1604
  165SAPS   O1318562   2.976   6.797   6.201 -0.0082  0.6916 -0.3847
  165SAPS   O1418563   3.219   6.834   6.262 -0.4589  0.9011 -0.0545
  165SAPS   O1218564   3.064   6.751   6.431 -0.6826  0.7881 -0.4342
  165SAPS   O1118565   3.125   6.603   6.243 -0.1626  0.1398 -0.1660
  165SAPS    C118566   3.216   6.559   6.141  0.3260  0.5453  0.0724
  165SAPS    HA18567   3.301   6.628   6.123  3.0862 -2.4461  0.7056
  165SAPS    HB18568   3.268   6.464   6.165  1.4787  0.7115 -1.5502
  165SAPS    C218569   3.146   6.537   6.000 -0.3937 -0.1638  0.4569
  165SAPS    HS18570   3.229   6.500   5.936 -0.7745 -3.5017  1.7132
  165SAPS   O2118571   3.085   6.653   5.950 -0.2408 -0.2377 -0.4007
  165SAPS   C2118572   3.165   6.749   5.906 -0.4696 -0.0712 -0.0063
  165SAPS   O2218573   3.286   6.750   5.914  0.1781 -0.1889 -0.6423
  165SAPS   C2218574   3.079   6.859   5.845 -0.5862  0.4552 -0.1106
  165SAPS   H2R18575   2.989   6.857   5.910  1.3193  1.2762  2.7561
  165SAPS   H2S18576   3.131   6.957   5.853 -1.4929  1.2308 -2.7126
  165SAPS    C318577   3.038   6.424   6.029 -0.2016 -0.4814  0.0978
  165SAPS    HX18578   2.977   6.446   6.119  0.9030 -2.5482  1.4534
  165SAPS    HY18579   3.100   6.337   6.061  0.1088 -0.2649  0.0913
  165SAPS   O3118580   2.943   6.395   5.924  0.0628  0.2925 -0.2248
  165SAPS   C3118581   2.990   6.369   5.804  0.2651 -0.2128 -0.3303
  165SAPS   O3218582   3.105   6.351   5.772 -0.1435  0.0845  0.0134
  165SAPS   C3218583   2.862   6.369   5.710  0.2765  0.4694  0.3664
  165SAPS   H2X18584   2.780   6.423   5.761  0.9579  0.6781  1.2631
  165SAPS   H2Y18585   2.848   6.262   5.684  2.6049  0.2791 -0.3905
  165SAPS   C2318586   3.057   6.835   5.694 -0.3358  0.4297  0.2408
  165SAPS   H3R18587   3.011   6.735   5.677 -0.2213  0.7195 -2.2610
  165SAPS   H3S18588   3.156   6.826   5.644  0.3565 -0.5495  1.7218
  165SAPS   C2418589   2.983   6.951   5.634  0.0297 -0.4977  0.3004
  165SAPS   H4R18590   2.884   6.969   5.683  1.2042  2.5482  1.8096
  165SAPS   H4S18591   2.980   6.923   5.527  1.2889 -0.0899  0.1453
  165SAPS   C2518592   3.061   7.079   5.645  0.1126  0.0576 -0.1085
  165SAPS   H5R18593   3.038   7.145   5.729  0.8692  0.0165  0.1381
  165SAPS   C2618594   3.145   7.122   5.553 -0.3087 -0.5236 -0.3796
  165SAPS   H6R18595   3.177   7.225   5.575 -2.1469  0.4544 -1.9640
  165SAPS   C2718596   3.187   7.049   5.428 -0.4848  0.3604 -0.7363
  165SAPS   H7R18597   3.101   7.038   5.359 -1.3923 -0.8032  0.5356
  165SAPS   H7S18598   3.221   6.946   5.453 -3.7368 -1.1894 -2.0842
  165SAPS   C2818599   3.300   7.126   5.356  0.2237 -0.2169 -1.3708
  165SAPS   H8R18600   3.349   7.205   5.415  0.1496  0.4702 -2.2145
  165SAPS   C2918601   3.342   7.103   5.234  0.3870 -0.2473  0.2811
  165SAPS   H9R18602   3.413   7.174   5.189 -1.1230  1.4372  0.4112
  165SAPS  C21018603   3.291   6.998   5.144  0.3862 -0.9375  0.2225
  165SAPS  H10R18604   3.253   6.905   5.191  0.0587 -0.5050  0.8251
  165SAPS  H10S18605   3.381   6.963   5.088  0.3257 -1.5869  0.5164
  165SAPS  C21118606   3.193   7.053   5.039 -0.7652  0.2227 -0.0770
  165SAPS  H11R18607   3.087   7.047   5.068  0.0418 -0.9470  3.0639
  165SAPS  C21218608   3.223   7.100   4.914  0.2615 -0.5602  0.1088
  165SAPS  H12R18609   3.146   7.138   4.845  1.3560  3.3174  0.7979
  165SAPS  C21318610   3.357   7.112   4.852  0.0036  0.0988 -0.6498
  165SAPS  H13R18611   3.442   7.102   4.924 -0.8814 -0.9253  0.3035
  165SAPS  H13S18612   3.380   7.214   4.815  2.1826 -0.4008 -0.8319
  165SAPS  C21418613   3.368   7.010   4.740 -0.3236 -0.5138 -0.2912
  165SAPS  H14R18614   3.284   6.941   4.729 -1.6607  1.1460 -0.9675
  165SAPS  C21518615   3.478   6.977   4.676  0.1929  0.5027 -0.8575
  165SAPS  H15R18616   3.468   6.904   4.594 -1.1644  1.5072 -1.6522
  165SAPS  C21618617   3.603   7.050   4.677  0.4594 -0.2962  0.4511
  165SAPS  H16R18618   3.591   7.149   4.725  0.5216  1.3769 -2.7224
  165SAPS  H16S18619   3.645   7.072   4.577 -1.0356 -1.9141 -0.5913
  165SAPS  C21718620   3.718   6.972   4.752 -0.5270  0.2218  0.6897
  165SAPS  H17R18621   3.792   7.053   4.763  0.1167  0.3005 -2.8892
  165SAPS  H17S18622   3.748   6.884   4.691 -1.3286 -1.6173  2.8080
  165SAPS  C21818623   3.680   6.904   4.889 -0.0086  0.7535  0.3527
  165SAPS  H18R18624   3.588   6.845   4.868  0.4580  0.7574 -1.9844
  165SAPS  H18S18625   3.661   6.977   4.971  0.5048 -1.1836  2.2638
  165SAPS  C21918626   3.782   6.801   4.936 -0.5842  1.0190  0.5241
  165SAPS  H19R18627   3.879   6.854   4.949  0.8220 -1.1926 -0.3968
  165SAPS  H19S18628   3.808   6.740   4.847 -0.1190  1.8463  0.0772
  165SAPS  C22018629   3.735   6.727   5.056  0.2163 -0.0359  0.1055
  165SAPS  H20R18630   3.830   6.687   5.097  0.1552 -1.3076 -0.9220
  165SAPS  H20S18631   3.663   6.645   5.032  0.3507 -1.0244  2.7584
  165SAPS  H20T18632   3.681   6.799   5.121 -1.1368 -1.9802  1.2525
  165SAPS   C3318633   2.878   6.436   5.571  0.4138 -0.7329 -0.0681
  165SAPS   H3X18634   2.988   6.437   5.558  1.0285 -3.3455  3.5710
  165SAPS   H3Y18635   2.858   6.542   5.601 -1.5312 -1.7723  2.7223
  165SAPS   C3418636   2.786   6.379   5.465 -0.9130  0.4402  0.5013
  165SAPS   H4X18637   2.684   6.382   5.510 -1.8216 -0.1589 -1.4307
  165SAPS   H4Y18638   2.818   6.274   5.444 -0.1842  0.9583 -1.1229
  165SAPS   C3518639   2.790   6.469   5.340 -0.4336  0.1944 -0.5599
  165SAPS   H5X18640   2.876   6.453   5.271  0.1706 -0.7335  0.3803
  165SAPS   H5Y18641   2.802   6.575   5.369 -0.2775 -0.1011  0.5122
  165SAPS   C3618642   2.678   6.445   5.246  0.4080  0.4707  0.5519
  165SAPS   H6X18643   2.578   6.460   5.292 -0.5271 -0.7558 -0.9911
  165SAPS   H6Y18644   2.671   6.338   5.219 -2.4119  0.9821 -1.1422
  165SAPS   C3718645   2.689   6.529   5.115  0.0871  0.1492 -0.0101
  165SAPS   H7X18646   2.624   6.478   5.040  0.6844 -0.0429 -0.4096
  165SAPS   H7Y18647   2.794   6.520   5.079 -0.1395 -0.0420 -0.6426
  165SAPS   C3818648   2.650   6.678   5.131 -0.5850  0.3296 -0.4900
  165SAPS   H8X18649   2.666   6.721   5.030 -0.3668 -1.7955 -1.4025
  165SAPS   H8Y18650   2.722   6.730   5.197 -0.4017 -0.8932  0.2932
  165SAPS   C3918651   2.513   6.712   5.201  0.3401  0.3281  0.2853
  165SAPS   H9X18652   2.514   6.804   5.264 -1.9099  0.2883  0.4664
  165SAPS   H9Y18653   2.478   6.631   5.268  0.8673  0.4789  0.7532
  165SAPS  C31018654   2.408   6.737   5.095 -0.2101  0.1873  0.2723
  165SAPS  H10X18655   2.385   6.638   5.049  0.6541  0.0955  0.0188
  165SAPS  H10Y18656   2.445   6.799   5.011 -0.0678 -1.4187 -0.9150
  165SAPS  C31118657   2.277   6.793   5.153 -0.2066 -0.0744  0.1372
  165SAPS  H11X18658   2.292   6.892   5.201 -2.4512  0.4361 -0.0900
  165SAPS  H11Y18659   2.236   6.730   5.235 -0.6181 -1.5565 -1.1497
  165SAPS  C31218660   2.181   6.814   5.036  0.0862  0.5842 -0.0478
  165SAPS  H12X18661   2.091   6.860   5.081 -1.0015  1.6904 -3.0945
  165SAPS  H12Y18662   2.154   6.714   4.994  0.8866 -0.5466  1.9758
  165SAPS  C31318663   2.222   6.911   4.921 -0.6572  0.4488 -0.3168
  165SAPS  H13X18664   2.316   6.881   4.869  1.7421  1.5790  3.0328
  165SAPS  H13Y18665   2.248   7.003   4.978 -1.8276  0.0605  0.8830
  165SAPS  C31418666   2.119   6.940   4.813 -0.0070 -0.7123  0.1701
  165SAPS  H14X18667   2.090   6.845   4.765 -2.0553 -0.6378  1.1488
  165SAPS  H14Y18668   2.167   6.991   4.727 -1.8378  0.7376 -0.0622
  165SAPS  C31518669   2.001   7.027   4.858 -0.0374  0.1003 -0.1304
  165SAPS  H15X18670   1.981   6.998   4.964  3.9780  0.3765  0.8507
  165SAPS  H15Y18671   1.913   7.011   4.792 -0.0798 -0.2503  0.0089
  165SAPS  C31618672   2.033   7.174   4.855  0.3199 -0.5366 -0.1484
  165SAPS  H16X18673   2.056   7.217   4.755  0.6046  0.3548  0.2850
  165SAPS  H16Y18674   2.120   7.205   4.918 -0.8265  1.7917  0.4264
  165SAPS  C31718675   1.917   7.252   4.909 -0.2369  0.1478 -0.1876
  165SAPS  H17X18676   1.821   7.239   4.855 -1.9245  3.2917  1.7349
  165SAPS  H17Y18677   1.932   7.361   4.893 -1.1776  0.7033  2.2712
  165SAPS  C31818678   1.886   7.245   5.063 -0.1241 -0.1657  0.5230
  165SAPS  H18X18679   1.952   7.311   5.124 -0.2626 -0.6973  1.2750
  165SAPS  H18Y18680   1.900   7.143   5.106  2.7139 -0.0379  0.0923
  165SAPS  H18Z18681   1.784   7.284   5.085 -0.1091  0.7741 -0.9544
  166SAPS     N18682   0.732   6.578   6.388  0.0828 -0.4382 -0.5534
  166SAPS   HN118683   0.807   6.615   6.326  0.3730  0.8035  0.5005
  166SAPS   HN218684   0.682   6.498   6.343 -0.6576  0.5783 -1.5839
  166SAPS   HN318685   0.663   6.653   6.406  0.2669 -0.2184 -0.7567
  166SAPS   C1218686   0.795   6.538   6.513 -0.3986 -0.2995  0.3454
  166SAPS  H12A18687   0.830   6.631   6.555 -1.4363  1.1214 -1.7644
  166SAPS   C1318688   0.696   6.472   6.617 -0.7322 -0.1459  0.1758
  166SAPS  O13A18689   0.573   6.469   6.590  0.1910 -0.0866 -0.3855
  166SAPS  O13B18690   0.733   6.469   6.737 -0.0370 -0.0202 -0.1320
  166SAPS   C1118691   0.909   6.431   6.489  0.7952 -0.6471  0.3270
  166SAPS  H11A18692   0.868   6.328   6.480 -3.2813  0.8271 -0.6356
  166SAPS  H11B18693   0.983   6.426   6.571  1.5629 -2.2413 -0.4250
  166SAPS     P18694   1.123   6.503   6.352 -0.3951  0.0798  0.1019
  166SAPS   O1318695   1.129   6.649   6.372  0.0510  0.0696  0.2173
  166SAPS   O1418696   1.199   6.411   6.440  0.0768 -0.0566 -0.1744
  166SAPS   O1218697   0.978   6.463   6.364  0.6446 -0.0039 -0.1658
  166SAPS   O1118698   1.168   6.461   6.208  0.2287 -0.3025 -0.0183
  166SAPS    C118699   1.300   6.426   6.181  0.0561  0.1196  0.2008
  166SAPS    HA18700   1.335   6.349   6.252 -1.6342 -1.6028 -0.7359
  166SAPS    HB18701   1.308   6.379   6.080 -1.0459 -3.9379  1.8233
  166SAPS    C218702   1.395   6.549   6.174  0.1986  0.5163 -0.2804
  166SAPS    HS18703   1.369   6.616   6.258  0.6368 -1.3191  1.3976
  166SAPS   O2118704   1.370   6.626   6.057 -0.7101  0.1246  0.1212
  166SAPS   C2118705   1.414   6.752   6.053 -0.1104  1.0249  0.0058
  166SAPS   O2218706   1.441   6.817   6.152 -0.1462 -0.9781 -0.1668
  166SAPS   C2218707   1.398   6.811   5.917 -0.3625  0.1483  0.2732
  166SAPS   H2R18708   1.293   6.798   5.880 -0.1882 -0.5344 -0.0060
  166SAPS   H2S18709   1.426   6.919   5.918 -0.1007  0.0808  0.2644
  166SAPS    C318710   1.548   6.508   6.190 -0.5740  0.2990 -0.1567
  166SAPS    HX18711   1.569   6.445   6.280  1.0069  1.4561  0.3194
  166SAPS    HY18712   1.607   6.599   6.212 -1.8403  0.5049  3.0031
  166SAPS   O3118713   1.592   6.444   6.063  0.3316 -0.3350  0.2114
  166SAPS   C3118714   1.581   6.319   6.051 -0.6710  0.1395  0.2167
  166SAPS   O3218715   1.554   6.243   6.144  0.2516  0.6110 -0.8246
  166SAPS   C3218716   1.606   6.269   5.909 -0.3158 -0.0161  0.0814
  166SAPS   H2X18717   1.673   6.181   5.922 -1.2357 -0.7518 -0.0283
  166SAPS   H2Y18718   1.667   6.348   5.861  1.0821  0.0038  1.7498
  166SAPS   C2318719   1.489   6.738   5.809 -0.2674 -0.4256  0.0050
  166SAPS   H3R18720   1.454   6.639   5.774 -0.9413 -0.3559  0.4658
  166SAPS   H3S18721   1.590   6.719   5.851 -0.5615 -0.3259  0.7644
  166SAPS   C2418722   1.501   6.824   5.675  0.9986  0.2393 -0.2664
  166SAPS   H4R18723   1.536   6.924   5.710 -0.2346  0.1668  1.2797
  166SAPS   H4S18724   1.399   6.833   5.633 -0.0612 -1.6940  1.6624
  166SAPS   C2518725   1.599   6.757   5.580  0.1735  0.5818  0.3847
  166SAPS   H5R18726   1.699   6.751   5.625 -1.0051  0.1029  3.0957
  166SAPS   C2618727   1.558   6.717   5.457 -0.6262  0.4859 -0.1560
  166SAPS   H6R18728   1.628   6.662   5.391  0.7773 -0.9903  2.4156
  166SAPS   C2718729   1.413   6.707   5.403  0.1417  0.0518  0.0899
  166SAPS   H7R18730   1.386   6.803   5.354  0.1129  0.4658  0.9005
  166SAPS   H7S18731   1.348   6.703   5.493  2.0878 -0.4084  1.5421
  166SAPS   C2818732   1.395   6.578   5.318  0.5617 -0.0117 -0.4869
  166SAPS   H8R18733   1.428   6.481   5.358 -0.7200 -0.3615 -0.2476
  166SAPS   C2918734   1.325   6.566   5.210 -0.6225 -0.1801 -0.0326
  166SAPS   H9R18735   1.329   6.469   5.159 -1.2495 -1.2080  1.8026
  166SAPS  C21018736   1.242   6.670   5.146 -0.2493 -0.3168  0.0932
  166SAPS  H10R18737   1.205   6.757   5.204  1.5527  0.1288  0.6296
  166SAPS  H10S18738   1.153   6.624   5.098  0.2262 -0.0940 -1.0249
  166SAPS  C21118739   1.314   6.722   5.020  0.4918 -0.7201  0.0203
  166SAPS  H11R18740   1.387   6.801   5.043 -0.9656  1.0421 -1.1847
  166SAPS  C21218741   1.304   6.683   4.893  0.5705 -0.4420  0.5410
  166SAPS  H12R18742   1.379   6.729   4.826 -1.0046 -0.7486 -1.5252
  166SAPS  C21318743   1.213   6.579   4.832 -0.1434  0.2696 -0.5503
  166SAPS  H13R18744   1.156   6.524   4.911  1.6605  0.3777  0.8776
  166SAPS  H13S18745   1.282   6.505   4.787  0.1844 -0.9183  1.7481
  166SAPS  C21418746   1.122   6.660   4.733  0.0726  0.1979  0.1709
  166SAPS  H14R18747   1.048   6.731   4.772 -0.9559 -0.3375 -0.7355
  166SAPS  C21518748   1.113   6.640   4.600  0.7317  0.3447  0.4295
  166SAPS  H15R18749   1.047   6.693   4.530  0.0484  0.2692  1.0066
  166SAPS  C21618750   1.203   6.552   4.519 -0.5894  0.3177  0.8866
  166SAPS  H16R18751   1.146   6.495   4.442  0.6014  0.0345  0.1816
  166SAPS  H16S18752   1.259   6.475   4.575 -0.7792 -1.1583 -0.8368
  166SAPS  C21718753   1.306   6.650   4.457 -0.1318 -0.2892  0.9070
  166SAPS  H17R18754   1.374   6.682   4.539  0.2091  0.2830  0.4079
  166SAPS  H17S18755   1.259   6.738   4.409 -0.9166 -2.0254 -1.7327
  166SAPS  C21818756   1.384   6.597   4.337  0.0057 -0.0847 -0.1492
  166SAPS  H18R18757   1.428   6.504   4.378  0.0883  1.1245  2.7836
  166SAPS  H18S18758   1.468   6.660   4.298  0.5386 -0.4953  0.3190
  166SAPS  C21918759   1.302   6.562   4.210 -0.5346  0.1805 -0.9636
  166SAPS  H19R18760   1.225   6.641   4.196  0.0642  1.0879  0.6416
  166SAPS  H19S18761   1.256   6.466   4.243  2.7819 -1.5459 -0.8964
  166SAPS  C22018762   1.371   6.525   4.082  0.4896  0.0644 -0.1299
  166SAPS  H20R18763   1.288   6.498   4.012 -1.2660 -1.6039  2.4262
  166SAPS  H20S18764   1.438   6.437   4.090 -0.6952 -0.9742 -1.1965
  166SAPS  H20T18765   1.431   6.607   4.036 -0.7125  1.7743  1.1960
  166SAPS   C3318766   1.478   6.236   5.827 -0.5022 -0.0500 -0.7532
  166SAPS   H3X18767   1.413   6.172   5.890 -1.0787  0.4989 -0.7843
  166SAPS   H3Y18768   1.529   6.183   5.743  0.0077 -1.9815  0.7065
  166SAPS   C3418769   1.403   6.353   5.770  0.1043 -0.5032  0.2901
  166SAPS   H4X18770   1.476   6.418   5.716  0.1083 -1.0982 -0.4218
  166SAPS   H4Y18771   1.361   6.418   5.850 -0.5077  1.5062 -1.5591
  166SAPS   C3518772   1.299   6.311   5.667 -0.0682 -0.2914  0.3448
  166SAPS   H5X18773   1.242   6.399   5.632  0.0660 -0.4536 -0.2897
  166SAPS   H5Y18774   1.222   6.250   5.718 -0.6672  0.8929  0.8929
  166SAPS   C3618775   1.360   6.246   5.536  0.3711 -0.3676 -0.3415
  166SAPS   H6X18776   1.385   6.140   5.560  1.0355 -0.3814 -1.0769
  166SAPS   H6Y18777   1.456   6.302   5.533 -0.8267  1.7395 -1.6119
  166SAPS   C3718778   1.269   6.253   5.408  0.1387  0.2895  0.7467
  166SAPS   H7X18779   1.249   6.362   5.392  1.3349  0.2960 -0.9340
  166SAPS   H7Y18780   1.177   6.203   5.444 -0.4936  1.0514  0.2298
  166SAPS   C3818781   1.313   6.192   5.282 -0.2488 -0.0369  0.1547
  166SAPS   H8X18782   1.351   6.091   5.309 -1.2195 -0.0445  1.6021
  166SAPS   H8Y18783   1.404   6.245   5.247  0.2189 -0.5201  0.6323
  166SAPS   C3918784   1.212   6.187   5.170 -0.3209 -0.4081  0.8468
  166SAPS   H9X18785   1.161   6.286   5.169  0.1911 -0.1466  0.1652
  166SAPS   H9Y18786   1.131   6.113   5.191 -0.8757 -0.1549 -0.3128
  166SAPS  C31018787   1.277   6.145   5.040 -0.4371 -0.2775 -0.3197
  166SAPS  H10X18788   1.333   6.049   5.035  2.1294  1.1460 -0.3088
  166SAPS  H10Y18789   1.342   6.228   5.006  0.1869 -1.3018 -1.7766
  166SAPS  C31118790   1.170   6.142   4.928 -0.1668 -0.3910  0.1354
  166SAPS  H11X18791   1.104   6.232   4.925 -1.9769 -1.6500  0.6939
  166SAPS  H11Y18792   1.104   6.055   4.944  2.0093 -2.3327 -0.8380
  166SAPS  C31218793   1.227   6.129   4.784 -0.5297  0.0886  0.8031
  166SAPS  H12X18794   1.312   6.058   4.788  0.2020  0.9351  0.6814
  166SAPS  H12Y18795   1.269   6.228   4.756  0.4212 -0.5380 -0.0517
  166SAPS  C31318796   1.127   6.073   4.679 -0.7690 -0.5134  0.3227
  166SAPS  H13X18797   1.035   6.134   4.682  0.7729  1.9419  0.8997
  166SAPS  H13Y18798   1.104   5.976   4.726  0.8015  0.2533  2.8640
  166SAPS  C31418799   1.180   6.041   4.537  0.3387  0.0580 -0.2031
  166SAPS  H14X18800   1.121   5.972   4.472  0.7995  1.7211 -2.5065
  166SAPS  H14Y18801   1.278   5.991   4.551  0.3487 -0.6215 -2.3036
  166SAPS  C31518802   1.206   6.166   4.462  0.4630 -0.5963  0.2338
  166SAPS  H15X18803   1.264   6.239   4.522 -1.2813 -1.5048  3.2035
  166SAPS  H15Y18804   1.102   6.202   4.442 -0.5033 -2.7669  0.9670
  166SAPS  C31618805   1.282   6.150   4.327  0.7263 -0.5715  0.1812
  166SAPS  H16X18806   1.375   6.093   4.349  1.5391  0.2899 -0.9280
  166SAPS  H16Y18807   1.303   6.243   4.272 -1.1820 -0.7500 -0.9486
  166SAPS  C31718808   1.204   6.070   4.217 -0.5770 -0.0299  0.5589
  166SAPS  H17X18809   1.099   6.107   4.205 -0.3147 -0.0175 -2.5038
  166SAPS  H17Y18810   1.199   5.962   4.242  0.3653 -0.8129 -2.2763
  166SAPS  C31818811   1.268   6.069   4.074  0.1324 -0.5150 -0.5765
  166SAPS  H18X18812   1.203   6.017   4.001 -1.1754 -0.6096  0.5913
  166SAPS  H18Y18813   1.365   6.017   4.077  1.3541  1.6664  0.5816
  166SAPS  H18Z18814   1.278   6.175   4.042  0.4389 -0.3812 -0.0600
  167SAPS     N18815   0.305   1.952   6.495 -0.1940  0.0671  0.0013
  167SAPS   HN118816   0.287   2.029   6.562 -3.0609 -1.5379  1.2580
  167SAPS   HN218817   0.394   1.966   6.443 -0.8309  2.3566 -0.6244
  167SAPS   HN318818   0.241   1.955   6.413 -0.3589 -2.1323 -0.0029
  167SAPS   C1218819   0.305   1.825   6.568  0.0471 -0.3144 -0.6384
  167SAPS  H12A18820   0.363   1.755   6.510  1.2371  1.4768 -1.6926
  167SAPS   C1318821   0.370   1.844   6.707  0.1643  0.5300  0.2198
  167SAPS  O13A18822   0.422   1.950   6.752 -0.1311 -0.6915  0.0939
  167SAPS  O13B18823   0.365   1.741   6.781  0.5909  0.0582 -0.0995
  167SAPS   C1118824   0.161   1.780   6.572 -0.0793 -0.0350 -0.5817
  167SAPS  H11A18825   0.097   1.855   6.624  0.9254 -1.0537  2.3535
  167SAPS  H11B18826   0.156   1.688   6.636 -0.2403  0.7210  0.5267
  167SAPS     P18827   0.069   1.608   6.389 -0.0940  0.3368 -0.0523
  167SAPS   O1318828   0.186   1.518   6.407 -0.0792 -0.2348 -0.1850
  167SAPS   O1418829  -0.058   1.566   6.451 -0.2822  0.1800 -0.4900
  167SAPS   O1218830   0.111   1.753   6.441  0.1634 -0.8246 -0.3016
  167SAPS   O1118831   0.043   1.625   6.241 -0.2427 -0.6841  0.3916
  167SAPS    C118832   0.036   1.754   6.180 -0.1304  0.0217 -0.0780
  167SAPS    HA18833  -0.032   1.760   6.092  1.2760  2.0019 -1.1002
  167SAPS    HB18834  -0.005   1.829   6.251  1.8598  0.7993  0.2991
  167SAPS    C218835   0.175   1.795   6.123 -0.3627  0.0835  0.8613
  167SAPS    HS18836   0.248   1.787   6.206 -0.5209 -2.0683  0.8554
  167SAPS   O2118837   0.161   1.919   6.060 -0.1694  0.0006 -0.6141
  167SAPS   C2118838   0.170   2.025   6.143  0.3027  0.8025 -0.1904
  167SAPS   O2218839   0.186   2.022   6.264 -1.0590  0.1476  0.3695
  167SAPS   C2218840   0.154   2.153   6.066  0.4343  0.9813  0.3872
  167SAPS   H2R18841   0.256   2.190   6.044  0.8522 -0.6430 -0.6171
  167SAPS   H2S18842   0.107   2.127   5.968  0.5605 -1.2520  0.8594
  167SAPS    C318843   0.235   1.697   6.014  0.4819 -0.2650 -0.0210
  167SAPS    HX18844   0.263   1.604   6.068 -1.4027  0.4579  2.3607
  167SAPS    HY18845   0.327   1.757   5.994  0.8562 -0.2020  1.6972
  167SAPS   O3118846   0.153   1.683   5.900 -0.4147  0.3750  0.1224
  167SAPS   C3118847   0.083   1.573   5.871  0.5700  0.0497 -0.1444
  167SAPS   O3218848   0.084   1.467   5.929  0.0290  0.0211  0.4262
  167SAPS   C3218849   0.011   1.602   5.739 -0.3955 -0.3427  0.2431
  167SAPS   H2X18850   0.053   1.686   5.680 -3.2308  1.7046  0.9397
  167SAPS   H2Y18851  -0.090   1.633   5.774 -0.6440  1.1730 -1.6115
  167SAPS   C2318852   0.072   2.263   6.130  0.1508 -0.8503  0.0584
  167SAPS   H3R18853   0.136   2.318   6.202 -0.4934  0.3470 -0.2569
  167SAPS   H3S18854  -0.010   2.209   6.182  0.8901 -0.6857  1.4435
  167SAPS   C2418855   0.012   2.363   6.024 -0.5874  0.1694  0.0658
  167SAPS   H4R18856  -0.056   2.437   6.071 -0.3232  1.5436 -1.6230
  167SAPS   H4S18857  -0.051   2.304   5.955 -1.1866  1.3177 -0.3964
  167SAPS   C2518858   0.130   2.424   5.948 -0.5958 -0.6024  0.0460
  167SAPS   H5R18859   0.213   2.461   6.010 -1.6953  0.5793  0.8823
  167SAPS   C2618860   0.151   2.426   5.815 -0.3833  0.4085  0.0116
  167SAPS   H6R18861   0.243   2.470   5.775 -0.2958  1.1231  0.9667
  167SAPS   C2718862   0.052   2.375   5.710 -0.3558  0.1475  0.1176
  167SAPS   H7R18863  -0.044   2.355   5.763  1.1958 -1.1435  2.6093
  167SAPS   H7S18864   0.088   2.278   5.671 -0.0622 -0.6922  2.3504
  167SAPS   C2818865   0.018   2.481   5.611 -0.3776 -0.0311 -0.3086
  167SAPS   H8R18866  -0.068   2.544   5.638 -1.7051 -1.8949  0.0346
  167SAPS   C2918867   0.056   2.486   5.480  0.3574 -0.0658 -0.0023
  167SAPS   H9R18868   0.027   2.581   5.434 -0.2141 -0.2046  0.0694
  167SAPS  C21018869   0.138   2.405   5.390 -0.2512  0.8865 -0.2617
  167SAPS  H10R18870   0.208   2.345   5.453 -0.3085  1.9372  0.8269
  167SAPS  H10S18871   0.192   2.466   5.313  1.0480 -1.3572 -1.2531
  167SAPS  C21118872   0.046   2.308   5.308 -0.5254  0.1818  0.6561
  167SAPS  H11R18873   0.007   2.223   5.366 -2.8949  0.8502  0.1542
  167SAPS  C21218874   0.002   2.320   5.176  0.3720  0.3611 -0.3979
  167SAPS  H12R18875  -0.045   2.235   5.125  0.0654 -1.9737  3.4709
  167SAPS  C21318876   0.022   2.442   5.090 -0.1797 -0.7119  0.9398
  167SAPS  H13R18877   0.114   2.447   5.027  0.4517  0.7074  1.9372
  167SAPS  H13S18878   0.036   2.530   5.156 -0.3147 -1.1718  1.5839
  167SAPS  C21418879  -0.088   2.481   4.992  0.2496  0.4482  0.1136
  167SAPS  H14R18880  -0.169   2.543   5.032  1.7938  1.8329  1.2108
  167SAPS  C21518881  -0.085   2.452   4.854 -0.2285 -0.8081 -0.1606
  167SAPS  H15R18882  -0.175   2.491   4.804 -0.1752  1.1662  1.1562
  167SAPS  C21618883   0.022   2.388   4.776  0.6715 -0.2239 -0.5670
  167SAPS  H16R18884  -0.028   2.335   4.692  0.0670 -1.2527  0.4310
  167SAPS  H16S18885   0.077   2.310   4.833  0.6906  1.1932  1.4406
  167SAPS  C21718886   0.113   2.484   4.713  0.0121 -0.0795  0.0452
  167SAPS  H17R18887   0.195   2.429   4.664 -1.5173 -3.2201  0.7410
  167SAPS  H17S18888   0.173   2.539   4.789 -1.0386 -0.5672  1.2653
  167SAPS  C21818889   0.044   2.577   4.618  0.4139 -0.0786 -1.3312
  167SAPS  H18R18890  -0.040   2.628   4.670  2.2132 -0.7279  2.5616
  167SAPS  H18S18891   0.005   2.524   4.528  1.3366 -0.2699 -1.6313
  167SAPS  C21918892   0.130   2.690   4.571 -1.2923 -0.0735  0.1914
  167SAPS  H19R18893   0.190   2.653   4.485 -0.0453 -0.0086  1.0071
  167SAPS  H19S18894   0.209   2.724   4.641 -1.7508  1.5196 -0.0260
  167SAPS  C22018895   0.044   2.815   4.528  0.3455 -0.3277  0.1789
  167SAPS  H20R18896  -0.016   2.788   4.438  0.1225 -2.0474  0.8025
  167SAPS  H20S18897   0.099   2.911   4.514  1.1401 -0.9022 -0.8194
  167SAPS  H20T18898  -0.032   2.840   4.604  0.0519  0.1546 -0.2687
  167SAPS   C3318899   0.004   1.476   5.650 -0.1487  0.1289 -0.3164
  167SAPS   H3X18900  -0.078   1.413   5.691  1.8273 -0.7481  2.6159
  167SAPS   H3Y18901   0.100   1.424   5.672  0.0630  1.7577  3.4427
  167SAPS   C3418902  -0.031   1.500   5.504 -0.5061  0.1875  1.1424
  167SAPS   H4X18903  -0.059   1.402   5.461 -0.3556  0.2710  0.8536
  167SAPS   H4Y18904   0.058   1.543   5.452 -2.6976  0.5282 -2.7032
  167SAPS   C3518905  -0.145   1.603   5.475  0.8078  0.0659 -0.1582
  167SAPS   H5X18906  -0.108   1.707   5.484  0.0907  0.2367  0.9440
  167SAPS   H5Y18907  -0.214   1.585   5.560  3.9046  0.7226  2.6992
  167SAPS   C3618908  -0.212   1.574   5.338 -0.3310  0.4374  0.1330
  167SAPS   H6X18909  -0.301   1.637   5.320  1.1321  2.7035  0.3302
  167SAPS   H6Y18910  -0.238   1.466   5.327 -1.2542  0.8244 -1.8890
  167SAPS   C3718911  -0.112   1.590   5.217  0.0065 -0.0733  0.1158
  167SAPS   H7X18912  -0.045   1.502   5.204  1.3419  0.5354  2.2901
  167SAPS   H7Y18913  -0.039   1.669   5.244 -0.3799 -0.1215  1.3546
  167SAPS   C3818914  -0.175   1.645   5.086  0.2587  0.4363 -0.2127
  167SAPS   H8X18915  -0.101   1.665   5.006  0.5190  1.9152  0.3605
  167SAPS   H8Y18916  -0.220   1.745   5.109 -2.2247 -0.8784  1.1759
  167SAPS   C3918917  -0.292   1.557   5.047 -0.0162 -0.3137 -0.5179
  167SAPS   H9X18918  -0.369   1.559   5.127 -0.5885  0.3157 -1.0721
  167SAPS   H9Y18919  -0.265   1.450   5.036  0.5377 -0.3412  0.9136
  167SAPS  C31018920  -0.351   1.590   4.907 -0.0407 -0.2539 -0.0254
  167SAPS  H10X18921  -0.379   1.696   4.890 -0.7800 -0.1313  1.7141
  167SAPS  H10Y18922  -0.446   1.532   4.902  0.0167 -0.2604 -1.1243
  167SAPS  C31118923  -0.247   1.551   4.801  0.4139  0.7913  0.3082
  167SAPS  H11X18924  -0.227   1.442   4.798 -0.6391  0.5903 -1.7430
  167SAPS  H11Y18925  -0.148   1.597   4.820  2.5311 -3.1039 -0.1956
  167SAPS  C31218926  -0.290   1.595   4.661  0.6406 -0.8584 -0.3474
  167SAPS  H12X18927  -0.346   1.691   4.668  1.4268 -0.5520  3.0683
  167SAPS  H12Y18928  -0.366   1.524   4.623 -1.1537  0.6817  0.2187
  167SAPS  C31318929  -0.172   1.605   4.559  0.9677  0.4118 -0.0691
  167SAPS  H13X18930  -0.126   1.504   4.570 -1.2766 -0.5918  0.6550
  167SAPS  H13Y18931  -0.094   1.683   4.577 -2.1122  3.1113  2.8362
  167SAPS  C31418932  -0.223   1.627   4.417  0.3209 -0.0958 -0.4858
  167SAPS  H14X18933  -0.258   1.729   4.394 -0.4881 -0.0755  0.7483
  167SAPS  H14Y18934  -0.308   1.559   4.395 -0.6449  1.7685 -2.9231
  167SAPS  C31518935  -0.129   1.585   4.314 -0.2913 -0.3317  0.6687
  167SAPS  H15X18936  -0.108   1.476   4.315 -3.7457 -1.0961  0.4981
  167SAPS  H15Y18937  -0.031   1.637   4.319  0.6347 -1.7685 -1.1290
  167SAPS  C31618938  -0.192   1.599   4.175  0.0077 -0.9286 -0.4509
  167SAPS  H16X18939  -0.196   1.708   4.152  0.9172 -0.8423 -0.2459
  167SAPS  H16Y18940  -0.295   1.559   4.180 -0.6379  0.7342 -0.1156
  167SAPS  C31718941  -0.118   1.527   4.068 -0.7645  0.2506  0.4234
  167SAPS  H17X18942  -0.101   1.419   4.090 -1.3279 -0.3985 -1.9837
  167SAPS  H17Y18943  -0.015   1.570   4.064 -0.4022 -0.1695  3.2608
  167SAPS  C31818944  -0.191   1.530   3.928  0.5353  0.1910 -0.4797
  167SAPS  H18X18945  -0.145   1.478   3.841  1.5059  1.5346 -0.7965
  167SAPS  H18Y18946  -0.202   1.639   3.910  1.7128  0.4793  0.3781
  167SAPS  H18Z18947  -0.291   1.485   3.946  0.0630  1.1222 -0.7260
  168SAPS     N18948   2.251   3.040   6.752  0.4660 -0.0420  0.6677
  168SAPS   HN118949   2.200   3.123   6.790 -1.1801 -2.5335  4.4667
  168SAPS   HN218950   2.310   3.054   6.668  0.5197 -0.4120  0.6430
  168SAPS   HN318951   2.181   2.968   6.724 -0.2026  0.3728  1.2297
  168SAPS   C1218952   2.345   2.997   6.858 -0.1770  0.5937 -0.6626
  168SAPS  H12A18953   2.433   3.053   6.830  1.7342 -1.6275  0.5827
  168SAPS   C1318954   2.319   3.015   7.007  0.0288  0.0556  0.1303
  168SAPS  O13A18955   2.206   3.044   7.043  0.3304  0.0720 -0.1785
  168SAPS  O13B18956   2.408   2.993   7.093  0.3096 -0.2657 -0.0136
  168SAPS   C1118957   2.400   2.850   6.836 -0.1152 -0.2521  0.0786
  168SAPS  H11A18958   2.330   2.775   6.879 -0.8809 -0.8519 -2.0441
  168SAPS  H11B18959   2.498   2.846   6.887 -0.5965 -2.4352  0.9395
  168SAPS     P18960   2.514   2.727   6.632 -0.2980 -0.3706 -0.2319
  168SAPS   O1318961   2.631   2.760   6.713  0.5353  0.1560  0.1473
  168SAPS   O1418962   2.467   2.588   6.639  0.6792 -0.0497 -0.2080
  168SAPS   O1218963   2.401   2.818   6.693 -0.1047  0.3879 -0.2189
  168SAPS   O1118964   2.517   2.766   6.481 -0.2060  0.4174 -0.0438
  168SAPS    C118965   2.614   2.855   6.423  0.0153  0.1452 -0.6079
  168SAPS    HA18966   2.589   2.960   6.451  1.5144  0.7458 -1.4431
  168SAPS    HB18967   2.714   2.837   6.468 -1.2193  0.9305  2.7374
  168SAPS    C218968   2.610   2.830   6.276  0.5228 -0.3566  0.6973
  168SAPS    HS18969   2.507   2.850   6.240  1.4971 -1.8391 -3.5041
  168SAPS   O2118970   2.631   2.694   6.253  0.5113  0.1669  0.1271
  168SAPS   C2118971   2.603   2.655   6.126  0.1153 -0.1561  0.3116
  168SAPS   O2218972   2.536   2.715   6.043 -0.3281  0.0345 -0.7650
  168SAPS   C2218973   2.677   2.526   6.100 -0.5831 -0.5568  0.7516
  168SAPS   H2R18974   2.743   2.556   6.016 -1.4511  0.5563  0.4412
  168SAPS   H2S18975   2.742   2.493   6.184  0.5019 -1.5189 -0.4395
  168SAPS    C318976   2.717   2.927   6.204  0.1547  0.3274 -0.0832
  168SAPS    HX18977   2.812   2.872   6.218 -0.2948 -0.2177  0.9453
  168SAPS    HY18978   2.726   3.024   6.257  1.0413  1.8984 -2.8939
  168SAPS   O3118979   2.681   2.949   6.066  0.7043 -0.3625 -0.0860
  168SAPS   C3118980   2.765   2.918   5.970  0.0393 -0.2795  0.2431
  168SAPS   O3218981   2.858   2.843   5.984 -0.3789 -0.5331 -0.0838
  168SAPS   C3218982   2.717   2.976   5.841 -0.5775  0.4432  0.3594
  168SAPS   H2X18983   2.801   3.039   5.804  0.1043  0.0534  1.2353
  168SAPS   H2Y18984   2.638   3.050   5.865 -1.0556  0.4500 -1.1320
  168SAPS   C2318985   2.572   2.422   6.052  0.8005 -0.0884  0.4737
  168SAPS   H3R18986   2.467   2.457   6.065  1.7681  2.5120  2.3825
  168SAPS   H3S18987   2.586   2.340   6.126  1.0260  0.5354  1.1476
  168SAPS   C2418988   2.604   2.370   5.907  0.9600  0.3064  0.2443
  168SAPS   H4R18989   2.544   2.279   5.884 -0.1708  1.4151 -1.4145
  168SAPS   H4S18990   2.708   2.333   5.893  0.6602 -0.4897  0.0921
  168SAPS   C2518991   2.578   2.473   5.799 -0.0856 -0.0256 -0.6304
  168SAPS   H5R18992   2.647   2.557   5.814 -0.8504  0.6156 -0.6420
  168SAPS   C2618993   2.514   2.468   5.683 -0.1119 -0.3949 -0.1559
  168SAPS   H6R18994   2.518   2.563   5.628 -1.1936  1.9501  3.5020
  168SAPS   C2718995   2.429   2.351   5.640  0.3645 -0.3662  0.0954
  168SAPS   H7R18996   2.392   2.295   5.728 -2.5852 -1.5664 -1.7597
  168SAPS   H7S18997   2.500   2.289   5.581  2.6116  1.6983  0.4574
  168SAPS   C2818998   2.307   2.386   5.562 -0.3366  0.3934  0.3931
  168SAPS   H8R18999   2.220   2.417   5.622 -0.3648  2.0009 -0.3937
  168SAPS   C2919000   2.298   2.386   5.426  0.0496  0.3129 -0.4891
  168SAPS   H9R19001   2.203   2.414   5.379  0.1262  2.5086  0.5363
  168SAPS  C21019002   2.388   2.343   5.314 -0.2566  0.1833  0.0646
  168SAPS  H10R19003   2.337   2.319   5.218  1.4712  2.9314 -1.6823
  168SAPS  H10S19004   2.446   2.253   5.339 -1.0731 -0.6092 -0.8140
  168SAPS  C21119005   2.493   2.440   5.282 -0.5168 -0.4583 -0.0458
  168SAPS  H11R19006   2.544   2.469   5.375 -1.3594 -0.8951  0.5574
  168SAPS  C21219007   2.543   2.468   5.162  0.5706  0.4465 -0.3481
  168SAPS  H12R19008   2.622   2.544   5.148  1.1292  0.7262  3.3012
  168SAPS  C21319009   2.474   2.431   5.030 -0.1588  0.9358 -1.2563
  168SAPS  H13R19010   2.478   2.320   5.024  1.0839  0.9042 -0.2072
  168SAPS  H13S19011   2.535   2.465   4.944  0.9033 -0.3768 -1.0362
  168SAPS  C21419012   2.333   2.477   4.996  0.1380  0.3087  0.1454
  168SAPS  H14R19013   2.312   2.580   5.026 -2.5177 -0.2702  0.5649
  168SAPS  C21519014   2.244   2.398   4.930 -0.2943 -0.4685 -0.0522
  168SAPS  H15R19015   2.144   2.435   4.903  1.0032  0.9468 -3.5850
  168SAPS  C21619016   2.279   2.267   4.875  0.5774  0.4942  0.8450
  168SAPS  H16R19017   2.180   2.217   4.877  1.1150 -0.5942  0.6176
  168SAPS  H16S19018   2.347   2.204   4.936  3.2870  0.2864 -2.0838
  168SAPS  C21719019   2.355   2.273   4.741  0.3182  0.2532  0.5531
  168SAPS  H17R19020   2.368   2.170   4.703  1.3482  0.7620 -0.5623
  168SAPS  H17S19021   2.458   2.317   4.744 -0.2361  1.8359 -1.4622
  168SAPS  C21819022   2.278   2.349   4.629  0.4615 -0.0485 -0.1711
  168SAPS  H18R19023   2.307   2.456   4.634 -0.4174  0.1631  2.8210
  168SAPS  H18S19024   2.168   2.339   4.643  0.1807 -0.1606 -2.2488
  168SAPS  C21919025   2.312   2.288   4.494 -0.3642 -0.4199 -0.1180
  168SAPS  H19R19026   2.239   2.342   4.432 -1.2547  0.3391  1.5172
  168SAPS  H19S19027   2.285   2.181   4.506  0.2837 -0.8568 -2.2324
  168SAPS  C22019028   2.454   2.303   4.445  1.2035 -0.3560  0.8286
  168SAPS  H20R19029   2.528   2.267   4.519 -0.4680  0.8417  3.2254
  168SAPS  H20S19030   2.470   2.409   4.414 -1.2783 -0.3870 -0.8053
  168SAPS  H20T19031   2.469   2.245   4.351 -0.8882 -1.2851  1.0188
  168SAPS   C3319032   2.684   2.875   5.728 -0.2462 -0.2792  0.2351
  168SAPS   H3X19033   2.596   2.812   5.754 -0.4743 -0.1226 -0.1415
  168SAPS   H3Y19034   2.773   2.809   5.721  0.1490  0.2822 -0.0703
  168SAPS   C3419035   2.654   2.935   5.594 -0.1623 -0.8126 -0.0671
  168SAPS   H4X19036   2.711   3.030   5.584 -4.0292  1.8508  0.9227
  168SAPS   H4Y19037   2.556   2.987   5.587 -0.4521 -1.4644 -1.1348
  168SAPS   C3519038   2.682   2.847   5.475 -0.8664  0.2398  0.4496
  168SAPS   H5X19039   2.595   2.782   5.451  0.7276 -1.5934 -0.7880
  168SAPS   H5Y19040   2.766   2.778   5.499  0.1382  0.7426 -1.3829
  168SAPS   C3619041   2.728   2.934   5.356  0.1261  0.1141  0.2348
  168SAPS   H6X19042   2.815   2.996   5.387 -0.9938  2.4582 -0.9794
  168SAPS   H6Y19043   2.648   2.995   5.309 -0.5573 -1.4417 -0.7062
  168SAPS   C3719044   2.781   2.846   5.241  0.2692  0.0595 -0.1138
  168SAPS   H7X19045   2.715   2.757   5.229 -0.2678  0.1272  2.0728
  168SAPS   H7Y19046   2.878   2.797   5.265  0.3111  0.1052 -0.1888
  168SAPS   C3819047   2.800   2.924   5.112  0.0668 -0.0212  0.9826
  168SAPS   H8X19048   2.892   2.885   5.062 -0.4100 -1.2657  1.0405
  168SAPS   H8Y19049   2.842   3.022   5.144  1.7036 -1.1049  2.4224
  168SAPS   C3919050   2.670   2.936   5.023  0.3837 -0.2843 -0.3954
  168SAPS   H9X19051   2.587   2.955   5.094  1.4657  0.3602  0.7338
  168SAPS   H9Y19052   2.660   2.840   4.967 -0.0871 -0.7526  0.4589
  168SAPS  C31019053   2.682   3.047   4.923  0.6424  1.0211  0.5032
  168SAPS  H10X19054   2.791   3.049   4.905  0.7228 -3.0813 -0.4505
  168SAPS  H10Y19055   2.639   3.140   4.966 -1.8339 -0.3907  1.3200
  168SAPS  C31119056   2.614   3.021   4.783 -0.0369  0.2433  0.4012
  168SAPS  H11X19057   2.510   3.060   4.791  0.0450  0.6971 -0.6079
  168SAPS  H11Y19058   2.620   2.911   4.765  2.2361  0.2701  0.8175
  168SAPS  C31219059   2.684   3.100   4.672  0.4424 -0.5706  0.0448
  168SAPS  H12X19060   2.786   3.060   4.655 -0.2520 -2.6141  0.4038
  168SAPS  H12Y19061   2.698   3.207   4.697 -1.1563 -0.3728  0.1739
  168SAPS  C31319062   2.620   3.099   4.531  0.7673  0.0609  1.4787
  168SAPS  H13X19063   2.667   3.177   4.467  0.4022 -1.7626 -1.1750
  168SAPS  H13Y19064   2.511   3.120   4.541  0.6445  0.0107  0.3972
  168SAPS  C31419065   2.637   2.965   4.453  0.5742  0.7549 -0.1586
  168SAPS  H14X19066   2.600   2.880   4.515  0.1137  0.4075 -0.9031
  168SAPS  H14Y19067   2.745   2.961   4.427  1.7809 -0.6492  4.1571
  168SAPS  C31519068   2.562   2.962   4.326  0.4200  0.1296  0.6425
  168SAPS  H15X19069   2.451   2.969   4.325  0.4434  0.9140 -1.3065
  168SAPS  H15Y19070   2.581   2.866   4.274  0.0151 -0.2167  1.1288
  168SAPS  C31619071   2.613   3.077   4.233  0.6624  0.6467 -0.0819
  168SAPS  H16X19072   2.724   3.078   4.234  0.6787  0.1503 -0.8051
  168SAPS  H16Y19073   2.570   3.173   4.271 -0.3790  0.0963  0.1613
  168SAPS  C31719074   2.579   3.059   4.082  0.5854 -0.4534  0.0530
  168SAPS  H17X19075   2.630   2.965   4.050  2.5724  0.5801  0.0830
  168SAPS  H17Y19076   2.625   3.144   4.029  0.8308 -0.4597  0.2582
  168SAPS  C31819077   2.433   3.054   4.053 -0.0807  0.2083  0.3446
  168SAPS  H18X19078   2.377   3.148   4.072 -0.4999  0.0714 -0.1938
  168SAPS  H18Y19079   2.386   2.967   4.104  0.3340  0.5472  1.3335
  168SAPS  H18Z19080   2.429   3.021   3.947  1.1194 -0.5317  0.5133
  169SAPS     N19081   5.152   3.317   6.600  0.0167 -0.6400  0.0821
  169SAPS   HN119082   5.231   3.260   6.636 -1.2037 -2.6863 -0.2835
  169SAPS   HN219083   5.149   3.321   6.496  1.2224  0.0734  0.0563
  169SAPS   HN319084   5.167   3.417   6.626  2.0618 -0.6134 -0.9888
  169SAPS   C1219085   5.030   3.259   6.658  0.5083 -0.6803  0.2627
  169SAPS  H12A19086   5.052   3.247   6.763 -1.2615  3.4458  1.3353
  169SAPS   C1319087   4.905   3.358   6.648 -0.2180 -0.0667  0.3858
  169SAPS  O13A19088   4.927   3.479   6.627  0.2678 -0.1183  0.1350
  169SAPS  O13B19089   4.794   3.311   6.675 -0.1680 -0.1234  0.0572
  169SAPS   C1119090   5.010   3.113   6.602  0.1250 -0.6529  0.7261
  169SAPS  H11A19091   4.980   3.120   6.495  1.4707 -0.2690  0.3488
  169SAPS  H11B19092   4.926   3.084   6.668 -1.7580 -0.4995 -1.4498
  169SAPS     P19093   5.094   2.869   6.575  0.0450  0.3384 -0.2675
  169SAPS   O1319094   5.215   2.796   6.543  0.7789  0.6639 -0.0237
  169SAPS   O1419095   5.013   2.813   6.683  0.2053  0.0408  0.5751
  169SAPS   O1219096   5.123   3.025   6.606 -0.1650 -0.7050  0.1043
  169SAPS   O1119097   5.005   2.876   6.437 -0.7518  0.4312  0.9249
  169SAPS    C119098   5.064   2.943   6.327  0.0613  0.2648  0.2662
  169SAPS    HA19099   4.984   3.008   6.286 -1.3093 -1.5861 -0.1335
  169SAPS    HB19100   5.155   3.003   6.349  0.6567  0.0171 -1.3865
  169SAPS    C219101   5.084   2.852   6.199  0.2637 -0.5072  0.5156
  169SAPS    HS19102   5.124   2.918   6.119 -0.1159  0.6238  1.2423
  169SAPS   O2119103   4.956   2.797   6.155  0.1180 -0.5705  0.0427
  169SAPS   C2119104   4.878   2.866   6.067 -1.1152  0.6401 -0.5408
  169SAPS   O2219105   4.896   2.977   6.026 -0.0394 -0.1896  0.1226
  169SAPS   C2219106   4.754   2.777   6.024  0.3603  0.0135 -0.3440
  169SAPS   H2R19107   4.779   2.669   6.035 -0.1752 -0.1901 -1.0889
  169SAPS   H2S19108   4.667   2.804   6.088 -0.2791 -1.0574 -0.7306
  169SAPS    C319109   5.196   2.743   6.226  0.7654 -0.1136  0.0927
  169SAPS    HX19110   5.164   2.669   6.303 -2.1080 -0.9058 -1.7090
  169SAPS    HY19111   5.294   2.791   6.249  1.1528  1.8256 -4.4963
  169SAPS   O3119112   5.194   2.661   6.107 -0.7913  0.2042  0.5193
  169SAPS   C3119113   5.285   2.695   6.013 -0.1001  0.4342 -0.7007
  169SAPS   O3219114   5.361   2.792   6.020 -0.0231 -0.0320 -0.1510
  169SAPS   C3219115   5.280   2.592   5.899  0.3872  0.2429 -0.0776
  169SAPS   H2X19116   5.254   2.489   5.931 -0.0108 -0.2901 -1.9675
  169SAPS   H2Y19117   5.382   2.587   5.855  0.6795 -0.4846  0.6684
  169SAPS   C2319118   4.716   2.815   5.877 -0.4770  0.5642 -0.5435
  169SAPS   H3R19119   4.810   2.792   5.823  1.2279 -0.3942  2.5823
  169SAPS   H3S19120   4.696   2.925   5.873  2.0132  1.0440 -2.1716
  169SAPS   C2419121   4.602   2.735   5.819  0.3591 -0.1848 -0.2952
  169SAPS   H4R19122   4.620   2.626   5.823 -0.1395 -0.2318  0.8567
  169SAPS   H4S19123   4.594   2.772   5.714  0.5278  1.5446  0.2684
  169SAPS   C2519124   4.473   2.766   5.887  0.2090 -0.1241  0.2676
  169SAPS   H5R19125   4.468   2.741   5.994 -0.7353 -0.3786  0.1672
  169SAPS   C2619126   4.363   2.813   5.828 -0.7645  0.5962 -0.0566
  169SAPS   H6R19127   4.271   2.820   5.887 -1.4473 -1.1222 -0.8349
  169SAPS   C2719128   4.334   2.849   5.682 -0.7359 -0.0996 -0.4733
  169SAPS   H7R19129   4.286   2.761   5.636  1.8186 -1.3438 -0.9359
  169SAPS   H7S19130   4.422   2.870   5.618 -0.8337  1.9067 -0.0224
  169SAPS   C2819131   4.248   2.975   5.668  0.6421 -0.3061 -0.2619
  169SAPS   H8R19132   4.281   3.067   5.718 -2.3625  0.2790  0.8497
  169SAPS   C2919133   4.120   2.968   5.623  0.1225 -0.0303 -0.6626
  169SAPS   H9R19134   4.062   3.059   5.599  0.3081  0.2573 -0.0479
  169SAPS  C21019135   4.050   2.849   5.574  0.4196  0.4567  0.5869
  169SAPS  H10R19136   4.054   2.762   5.643 -0.8479  0.7317  1.0264
  169SAPS  H10S19137   4.110   2.809   5.490 -2.5560 -0.8220 -1.0734
  169SAPS  C21119138   3.906   2.859   5.529 -0.0266 -0.8728 -0.1463
  169SAPS  H11R19139   3.832   2.875   5.608 -1.8560  2.2672 -2.2811
  169SAPS  C21219140   3.857   2.847   5.405 -0.8985  0.1244 -0.3770
  169SAPS  H12R19141   3.747   2.843   5.395 -0.9187  0.3999 -0.2794
  169SAPS  C21319142   3.925   2.831   5.273  0.4648  0.3410  0.6118
  169SAPS  H13R19143   3.838   2.859   5.210 -0.2220  0.1631  1.4677
  169SAPS  H13S19144   3.951   2.725   5.253 -0.5094  0.1248  0.4408
  169SAPS  C21419145   4.041   2.914   5.232  0.3311 -1.0812 -0.0826
  169SAPS  H14R19146   4.122   2.935   5.303  0.2510  1.3568 -0.6214
  169SAPS  C21519147   4.059   2.968   5.114  0.1847  0.3283  0.5610
  169SAPS  H15R19148   4.153   3.024   5.100  0.2770  0.0198 -0.0921
  169SAPS  C21619149   3.964   2.964   4.991 -0.2634 -0.4015 -0.3145
  169SAPS  H16R19150   3.896   3.051   5.005  0.1042 -0.5166  2.8233
  169SAPS  H16S19151   3.902   2.872   4.985 -1.7010  0.4640  0.6414
  169SAPS  C21719152   4.040   2.967   4.863 -0.0790 -0.7247  0.7505
  169SAPS  H17R19153   3.966   2.946   4.782 -0.3466  2.9399 -0.1132
  169SAPS  H17S19154   4.122   2.892   4.862 -0.1851 -0.8372  0.5529
  169SAPS  C21819155   4.104   3.100   4.831  0.0973  0.1387 -0.2795
  169SAPS  H18R19156   4.199   3.108   4.888  0.8746 -2.6192 -1.0270
  169SAPS  H18S19157   4.051   3.190   4.868 -0.4460 -0.2682 -0.0572
  169SAPS  C21919158   4.152   3.111   4.690 -0.1610  0.1107 -0.1029
  169SAPS  H19R19159   4.067   3.104   4.619 -0.9894  1.5792  0.6892
  169SAPS  H19S19160   4.211   3.025   4.654 -2.6816 -1.1727 -1.4281
  169SAPS  C22019161   4.230   3.246   4.658 -1.0100  0.6057  0.2531
  169SAPS  H20R19162   4.313   3.244   4.732 -0.7932 -0.8440 -0.0038
  169SAPS  H20S19163   4.171   3.339   4.672 -1.0533  0.2903  2.4974
  169SAPS  H20T19164   4.279   3.239   4.558 -1.3680 -0.5292  0.1524
  169SAPS   C3319165   5.151   2.612   5.806  0.7999  0.1081 -0.3290
  169SAPS   H3X19166   5.179   2.695   5.737  3.5669 -1.2662 -1.0208
  169SAPS   H3Y19167   5.059   2.625   5.866  0.6560 -3.2476  0.3260
  169SAPS   C3419168   5.120   2.488   5.728 -0.0954 -0.2312 -0.3504
  169SAPS   H4X19169   5.073   2.409   5.790 -0.5181 -0.2092 -0.6368
  169SAPS   H4Y19170   5.217   2.456   5.684  0.3359  1.1988 -0.4777
  169SAPS   C3519171   5.022   2.508   5.607  0.6304 -0.0542  0.2000
  169SAPS   H5X19172   4.929   2.549   5.651  1.8566  1.2151  1.6964
  169SAPS   H5Y19173   4.994   2.406   5.570 -0.8916  1.4034 -3.1264
  169SAPS   C3619174   5.066   2.603   5.491  0.6774  0.2034 -0.0878
  169SAPS   H6X19175   5.165   2.568   5.455  0.0555  0.2061 -1.9219
  169SAPS   H6Y19176   5.092   2.701   5.537  0.4395 -0.2048  0.9313
  169SAPS   C3719177   4.955   2.638   5.382 -0.0386 -0.6425  0.0655
  169SAPS   H7X19178   4.945   2.748   5.389  0.2984 -0.6478  0.7323
  169SAPS   H7Y19179   4.855   2.591   5.396 -0.5033  0.8719  2.5291
  169SAPS   C3819180   5.000   2.609   5.233  0.0815 -0.6792 -0.3381
  169SAPS   H8X19181   5.035   2.504   5.229 -0.1681 -0.8652  1.4792
  169SAPS   H8Y19182   5.081   2.679   5.201 -0.8749  0.5980 -0.0678
  169SAPS   C3919183   4.890   2.639   5.128  0.3328 -0.4216  0.4875
  169SAPS   H9X19184   4.859   2.746   5.119  2.3261  0.1788  0.2120
  169SAPS   H9Y19185   4.802   2.578   5.157  0.0335 -0.3305 -0.2126
  169SAPS  C31019186   4.956   2.602   4.994  0.2794  0.1726 -0.6623
  169SAPS  H10X19187   4.992   2.497   5.001 -1.0452 -0.2412  0.4750
  169SAPS  H10Y19188   5.034   2.672   4.960  0.0954  1.0542  0.6902
  169SAPS  C31119189   4.853   2.611   4.880 -0.0690  0.0654 -0.4598
  169SAPS  H11X19190   4.821   2.717   4.876 -1.8489 -0.3181  1.4387
  169SAPS  H11Y19191   4.760   2.556   4.906 -0.5455  2.6006  4.2739
  169SAPS  C31219192   4.905   2.550   4.752  0.4580 -0.2388  1.1778
  169SAPS  H12X19193   4.949   2.448   4.763  1.4875  0.0500 -0.0771
  169SAPS  H12Y19194   4.991   2.610   4.716 -0.1474  0.0362  0.1710
  169SAPS  C31319195   4.793   2.551   4.640  0.7079 -0.1675  0.3126
  169SAPS  H13X19196   4.695   2.528   4.688  1.0962 -1.6325  0.4625
  169SAPS  H13Y19197   4.817   2.469   4.570  1.7016  0.1814  0.2335
  169SAPS  C31419198   4.806   2.682   4.560 -0.5033 -0.9528  0.7213
  169SAPS  H14X19199   4.910   2.708   4.529 -0.5424 -0.5901  0.8924
  169SAPS  H14Y19200   4.789   2.761   4.636  2.9531 -1.3455  2.1141
  169SAPS  C31519201   4.715   2.713   4.438  0.0086 -0.3072  0.2605
  169SAPS  H15X19202   4.610   2.736   4.465 -1.0208 -1.5486 -2.3734
  169SAPS  H15Y19203   4.717   2.618   4.381  2.1428  0.4882 -1.1360
  169SAPS  C31619204   4.769   2.834   4.348  0.8535  0.8253 -0.5894
  169SAPS  H16X19205   4.877   2.813   4.333  0.1925 -3.1706 -1.0148
  169SAPS  H16Y19206   4.772   2.929   4.406  2.9873  0.5745 -0.1871
  169SAPS  C31719207   4.691   2.854   4.218 -0.0903 -0.2730 -0.3254
  169SAPS  H17X19208   4.698   2.760   4.159 -0.9887 -0.7651  0.3240
  169SAPS  H17Y19209   4.735   2.938   4.160 -0.6279 -0.4934 -1.0674
  169SAPS  C31819210   4.546   2.897   4.250 -0.0661  0.3859  0.2112
  169SAPS  H18X19211   4.550   2.995   4.303 -2.2451  0.1208  0.9618
  169SAPS  H18Y19212   4.495   2.817   4.308 -0.1801  0.0239 -0.3823
  169SAPS  H18Z19213   4.489   2.913   4.156  1.2152 -2.0517 -1.0786
  170SAPS     N19214   0.129   0.462   6.766 -0.1486  0.1024 -0.3066
  170SAPS   HN119215   0.175   0.536   6.823  1.0885 -0.2634 -0.7988
  170SAPS   HN219216   0.128   0.500   6.670 -0.4527 -0.6641 -0.6166
  170SAPS   HN319217   0.030   0.463   6.796 -0.5266 -0.5148 -1.4758
  170SAPS   C1219218   0.178   0.322   6.801 -0.0083 -0.0274 -0.5294
  170SAPS  H12A19219   0.198   0.329   6.907  2.8120  1.3863 -1.0453
  170SAPS   C1319220   0.074   0.205   6.775  0.2780 -0.4851  0.6039
  170SAPS  O13A19221  -0.037   0.223   6.717 -0.2441 -0.3780  0.2550
  170SAPS  O13B19222   0.108   0.090   6.798 -0.1801 -0.0344  0.2626
  170SAPS   C1119223   0.315   0.298   6.733  0.1425  0.0587  0.1207
  170SAPS  H11A19224   0.352   0.197   6.762  0.1225 -0.7401 -2.4433
  170SAPS  H11B19225   0.390   0.370   6.772 -0.9965  0.9176  0.8075
  170SAPS     P19226   0.398   0.220   6.499  0.1125  0.5651  0.4596
  170SAPS   O1319227   0.542   0.261   6.511  0.7125  0.2935  0.3023
  170SAPS   O1419228   0.364   0.076   6.508  0.7373  0.1665 -0.2074
  170SAPS   O1219229   0.307   0.301   6.591 -0.1899 -0.2294  0.5602
  170SAPS   O1119230   0.336   0.267   6.363 -0.2615 -0.4382  0.2751
  170SAPS    C119231   0.190   0.274   6.353 -0.0359  0.6499  0.6350
  170SAPS    HA19232   0.139   0.181   6.387 -0.5764  0.2747 -1.0831
  170SAPS    HB19233   0.154   0.349   6.427 -1.1811 -1.0888  1.9270
  170SAPS    C219234   0.136   0.304   6.210  0.1701  0.4931  0.2171
  170SAPS    HS19235   0.027   0.282   6.219  0.5934 -1.8998  0.0161
  170SAPS   O2119236   0.198   0.223   6.111 -0.1499 -0.3414  0.2139
  170SAPS   C2119237   0.178   0.087   6.133  0.6214 -0.1237 -0.4868
  170SAPS   O2219238   0.088   0.042   6.207 -0.2021 -0.0697  0.1528
  170SAPS   C2219239   0.262   0.013   6.032 -0.3830 -0.0452  0.0359
  170SAPS   H2R19240   0.234   0.060   5.935 -0.5381  0.3014  0.2450
  170SAPS   H2S19241   0.372   0.029   6.034 -0.6773  2.4594  1.9948
  170SAPS    C319242   0.146   0.455   6.171  0.0315 -0.0404 -0.2728
  170SAPS    HX19243   0.252   0.489   6.177  0.0233 -0.2993  3.9018
  170SAPS    HY19244   0.098   0.512   6.253 -0.3080  0.1429 -0.5920
  170SAPS   O3119245   0.103   0.498   6.033  0.1986  0.7643  0.3223
  170SAPS   C3119246  -0.022   0.538   6.028  1.5474  0.3947 -0.1111
  170SAPS   O3219247  -0.105   0.553   6.115 -0.5916  0.3678 -0.4118
  170SAPS   C3219248  -0.050   0.548   5.874  0.4805 -0.9642  0.4413
  170SAPS   H2X19249  -0.062   0.447   5.830 -2.1282 -0.6014  0.1879
  170SAPS   H2Y19250   0.039   0.602   5.834  1.1228 -1.5023  1.1222
  170SAPS   C2319251   0.226  -0.135   6.052 -0.5790  0.1088 -0.2113
  170SAPS   H3R19252   0.237  -0.166   6.158 -1.0815  4.3785  1.2768
  170SAPS   H3S19253   0.308  -0.190   6.002 -1.9834 -1.2978 -1.0717
  170SAPS   C2419254   0.096  -0.168   5.977  1.1090 -0.4112 -0.4736
  170SAPS   H4R19255   0.088  -0.119   5.878  3.0959  0.6647 -0.1616
  170SAPS   H4S19256   0.011  -0.132   6.039  0.6308  1.9663 -2.3424
  170SAPS   C2519257   0.085  -0.313   5.964 -0.1599 -0.3974 -0.3241
  170SAPS   H5R19258   0.092  -0.367   6.060  1.8982 -0.1741 -0.3054
  170SAPS   C2619259   0.036  -0.375   5.857  0.3047  0.0448 -0.2956
  170SAPS   H6R19260   0.031  -0.485   5.862 -0.7790  0.0501 -1.0660
  170SAPS   C2719261  -0.003  -0.317   5.725 -0.8913  0.4412 -0.0431
  170SAPS   H7R19262   0.018  -0.393   5.647  1.6667 -0.4142  1.3669
  170SAPS   H7S19263   0.070  -0.236   5.704  2.0251 -1.6288  1.4166
  170SAPS   C2819264  -0.141  -0.263   5.724  0.0323  0.2638  0.2159
  170SAPS   H8R19265  -0.172  -0.209   5.815  0.0903 -0.7502  0.8569
  170SAPS   C2919266  -0.219  -0.270   5.613  0.2817  0.0977  0.1429
  170SAPS   H9R19267  -0.310  -0.210   5.628 -0.5234 -1.3553  1.5065
  170SAPS  C21019268  -0.189  -0.339   5.487 -0.1518 -0.8253  0.1788
  170SAPS  H10R19269  -0.097  -0.299   5.439 -0.7825  0.9414  0.3864
  170SAPS  H10S19270  -0.262  -0.300   5.414  0.5481  1.2755  0.5450
  170SAPS  C21119271  -0.185  -0.493   5.486 -0.5718 -0.6529 -0.2035
  170SAPS  H11R19272  -0.196  -0.533   5.588  1.8514  1.7327  1.1315
  170SAPS  C21219273  -0.160  -0.578   5.385 -0.3284  0.4752 -0.2357
  170SAPS  H12R19274  -0.179  -0.682   5.415 -0.5369  0.7797  0.7452
  170SAPS  C21319275  -0.130  -0.540   5.241  0.4862 -0.0652  0.1105
  170SAPS  H13R19276  -0.053  -0.460   5.238  0.7415 -0.3477 -1.8023
  170SAPS  H13S19277  -0.224  -0.501   5.197  0.6050 -0.7725 -0.7876
  170SAPS  C21419278  -0.064  -0.650   5.164 -0.0393 -0.6120 -0.2109
  170SAPS  H14R19279   0.024  -0.698   5.210  0.2734  0.2421  0.1065
  170SAPS  C21519280  -0.093  -0.697   5.046 -0.2287  0.1459  0.1673
  170SAPS  H15R19281  -0.025  -0.775   5.009  0.1520  0.1522  0.8548
  170SAPS  C21619282  -0.193  -0.639   4.951 -0.8011 -0.2242  0.1729
  170SAPS  H16R19283  -0.221  -0.539   4.988  0.3454 -0.6879  2.4698
  170SAPS  H16S19284  -0.286  -0.700   4.942 -1.3475  0.6905 -0.5840
  170SAPS  C21719285  -0.128  -0.617   4.814 -0.0888  0.1592  0.6257
  170SAPS  H17R19286  -0.052  -0.689   4.777 -0.2342 -0.0715  0.7726
  170SAPS  H17S19287  -0.080  -0.517   4.810  0.8665 -0.2713  0.8948
  170SAPS  C21819288  -0.238  -0.611   4.706 -0.1356  0.4526  0.3515
  170SAPS  H18R19289  -0.306  -0.524   4.720  0.8590  1.2542  0.3273
  170SAPS  H18S19290  -0.291  -0.708   4.718  0.4936  0.2930  2.0396
  170SAPS  C21919291  -0.177  -0.641   4.564  0.0044  0.4600 -0.0316
  170SAPS  H19R19292  -0.076  -0.689   4.559  0.4427  1.4204 -0.5203
  170SAPS  H19S19293  -0.168  -0.540   4.520  0.2496 -0.4309 -2.1567
  170SAPS  C22019294  -0.258  -0.713   4.456 -0.7740 -0.5837 -0.0633
  170SAPS  H20R19295  -0.261  -0.822   4.476  1.2412 -0.5145  0.8186
  170SAPS  H20S19296  -0.214  -0.688   4.357 -1.2521 -4.3502 -1.3980
  170SAPS  H20T19297  -0.362  -0.674   4.452 -1.9708 -3.5409 -1.1889
  170SAPS   C3319298  -0.174   0.631   5.843 -0.5985  0.6909 -0.5382
  170SAPS   H3X19299  -0.174   0.726   5.900 -2.6244 -0.1524  1.0052
  170SAPS   H3Y19300  -0.263   0.576   5.881  1.5575 -1.9142  1.0675
  170SAPS   C3419301  -0.203   0.654   5.697 -0.1022  0.4594  0.2169
  170SAPS   H4X19302  -0.172   0.569   5.632  1.4491  1.4502 -0.3696
  170SAPS   H4Y19303  -0.150   0.741   5.654 -1.7352  2.1350  1.3891
  170SAPS   C3519304  -0.345   0.702   5.669  0.0455 -0.0185 -0.1369
  170SAPS   H5X19305  -0.369   0.790   5.731  1.6068 -0.9438  1.8965
  170SAPS   H5Y19306  -0.415   0.617   5.685  2.3308 -1.8819  0.4452
  170SAPS   C3619307  -0.369   0.742   5.523  0.9861  0.4779  0.3839
  170SAPS   H6X19308  -0.365   0.655   5.454 -1.0438  0.6984 -0.0867
  170SAPS   H6Y19309  -0.285   0.811   5.502 -0.5947  2.9052  1.5098
  170SAPS   C3719310  -0.496   0.826   5.519 -0.3900  0.6473 -0.0230
  170SAPS   H7X19311  -0.491   0.923   5.573 -3.1679  0.3596  0.9244
  170SAPS   H7Y19312  -0.582   0.767   5.557 -1.1879  1.6839 -0.1583
  170SAPS   C3819313  -0.529   0.862   5.371 -0.2530  0.0199 -0.5935
  170SAPS   H8X19314  -0.433   0.881   5.318 -0.1173 -1.8325 -1.0924
  170SAPS   H8Y19315  -0.591   0.954   5.364 -2.5918 -1.4806 -0.9863
  170SAPS   C3919316  -0.597   0.751   5.290  0.8975  1.2095 -0.5980
  170SAPS   H9X19317  -0.677   0.708   5.353  3.4048  0.4555  2.3193
  170SAPS   H9Y19318  -0.529   0.664   5.275 -1.9439 -1.2644 -0.1136
  170SAPS  C31019319  -0.642   0.804   5.156  0.5455 -0.4798  0.2122
  170SAPS  H10X19320  -0.714   0.883   5.185  0.7282 -0.8026  1.6347
  170SAPS  H10Y19321  -0.697   0.722   5.105  2.7705 -1.2788 -1.0516
  170SAPS  C31119322  -0.538   0.843   5.052 -0.3010 -0.6219 -0.6753
  170SAPS  H11X19323  -0.466   0.919   5.089 -3.2989  2.5597 -0.8554
  170SAPS  H11Y19324  -0.594   0.893   4.970  0.7752  0.4379 -0.8081
  170SAPS  C31219325  -0.459   0.724   5.003 -0.1932  0.3455  0.3080
  170SAPS  H12X19326  -0.517   0.631   4.986  1.4822 -0.4476 -1.3950
  170SAPS  H12Y19327  -0.383   0.687   5.075 -0.2969 -2.0702 -0.7311
  170SAPS  C31319328  -0.377   0.751   4.879 -0.1985 -0.1548  0.8346
  170SAPS  H13X19329  -0.292   0.679   4.872  1.4599  1.8168 -0.8140
  170SAPS  H13Y19330  -0.333   0.853   4.885  1.4846 -0.8043  0.2823
  170SAPS  C31419331  -0.457   0.729   4.745  0.8107 -0.9353 -0.4453
  170SAPS  H14X19332  -0.539   0.803   4.740  2.1514  0.5472 -1.4109
  170SAPS  H14Y19333  -0.510   0.633   4.766  0.6772 -1.1290 -1.5876
  170SAPS  C31519334  -0.362   0.717   4.623 -0.7507 -0.5996  0.2595
  170SAPS  H15X19335  -0.270   0.661   4.651 -0.1968  0.3143  0.3087
  170SAPS  H15Y19336  -0.331   0.821   4.599  0.3800 -0.2066  3.0722
  170SAPS  C31619337  -0.423   0.656   4.496  0.1717  0.4603  0.2698
  170SAPS  H16X19338  -0.520   0.708   4.486 -0.1759 -0.1845  0.2171
  170SAPS  H16Y19339  -0.441   0.546   4.503  0.5605  0.3332 -0.6511
  170SAPS  C31719340  -0.337   0.674   4.368  0.1765  0.0240  0.1034
  170SAPS  H17X19341  -0.321   0.782   4.354  1.3516  0.1609  2.1229
  170SAPS  H17Y19342  -0.390   0.636   4.278  1.4274 -0.3321 -0.5077
  170SAPS  C31819343  -0.198   0.608   4.353  0.2443 -0.5963  0.1720
  170SAPS  H18X19344  -0.147   0.648   4.264 -2.4367 -1.0324 -1.6903
  170SAPS  H18Y19345  -0.209   0.498   4.339  1.4169 -0.8235  0.8978
  170SAPS  H18Z19346  -0.147   0.618   4.451  2.3517 -1.4330 -0.7820
  171SAPS     N19347   0.877   3.092   6.702  0.0260  0.2823  0.4592
  171SAPS   HN119348   0.801   3.088   6.631  1.8006  2.1578 -1.7145
  171SAPS   HN219349   0.903   3.185   6.742  0.6610 -0.2211  1.2419
  171SAPS   HN319350   0.958   3.061   6.645  1.0241  0.6517  1.6451
  171SAPS   C1219351   0.865   2.980   6.802  0.0839  0.3061 -0.4278
  171SAPS  H12A19352   0.959   2.969   6.854  0.1532 -2.3725 -0.9993
  171SAPS   C1319353   0.733   2.994   6.893  0.0483  1.1086 -0.0508
  171SAPS  O13A19354   0.652   3.091   6.879 -0.0230  0.5334 -0.2337
  171SAPS  O13B19355   0.721   2.911   6.989  0.4913  0.0927 -0.2679
  171SAPS   C1119356   0.845   2.849   6.725  0.3639  0.1659 -0.5704
  171SAPS  H11A19357   0.752   2.854   6.663  0.3507 -1.9337 -0.7768
  171SAPS  H11B19358   0.824   2.758   6.785  0.4125  1.6059  1.7661
  171SAPS     P19359   1.043   2.706   6.650  0.5857  0.2910 -0.6099
  171SAPS   O1319360   1.119   2.718   6.776 -0.6198 -0.1115 -0.2998
  171SAPS   O1419361   0.960   2.584   6.638 -0.2249  0.5898 -0.1237
  171SAPS   O1219362   0.952   2.831   6.635 -0.4213 -0.2329  0.2001
  171SAPS   O1119363   1.141   2.714   6.524 -0.1000 -0.3039 -0.4823
  171SAPS    C119364   1.088   2.769   6.402 -0.4019  0.0983 -0.1738
  171SAPS    HA19365   0.984   2.805   6.419 -0.9444 -1.5513  0.2031
  171SAPS    HB19366   1.153   2.854   6.373 -0.6380  0.2162 -0.3632
  171SAPS    C219367   1.097   2.664   6.284  0.4418 -0.9870  0.0793
  171SAPS    HS19368   1.038   2.575   6.314 -2.3184  1.0688  1.2665
  171SAPS   O2119369   1.238   2.646   6.266  0.2753  0.2925 -0.3690
  171SAPS   C2119370   1.266   2.522   6.243 -0.3559  0.2336 -0.8941
  171SAPS   O2219371   1.192   2.428   6.245  0.3057 -0.2601  0.1705
  171SAPS   C2219372   1.410   2.509   6.200 -0.0559  0.1810  0.5946
  171SAPS   H2R19373   1.435   2.581   6.119  1.6131  0.0990  0.9929
  171SAPS   H2S19374   1.473   2.537   6.287 -1.0681  0.1747  1.3495
  171SAPS    C319375   1.041   2.726   6.157 -0.3199 -0.1667  0.0013
  171SAPS    HX19376   1.082   2.828   6.142 -0.1838 -0.4069 -1.4100
  171SAPS    HY19377   0.934   2.739   6.182 -0.4978 -3.0045  1.1003
  171SAPS   O3119378   1.074   2.661   6.031  0.2596 -0.3719  0.3092
  171SAPS   C3119379   0.994   2.561   6.002  0.0700  0.5616 -0.1250
  171SAPS   O3219380   0.906   2.514   6.074 -0.0197  0.5042  0.2256
  171SAPS   C3219381   1.017   2.516   5.858  0.0116 -0.0826  0.1042
  171SAPS   H2X19382   1.125   2.534   5.842  0.0766  1.0921  1.6613
  171SAPS   H2Y19383   0.969   2.584   5.784  0.9497 -1.1221 -1.5364
  171SAPS   C2319384   1.456   2.369   6.150 -0.3434 -0.2852  0.3626
  171SAPS   H3R19385   1.440   2.297   6.234 -2.1354 -0.1457  0.1881
  171SAPS   H3S19386   1.565   2.364   6.132 -0.4259 -0.7142 -0.0466
  171SAPS   C2419387   1.376   2.316   6.031  0.7191 -0.8082  0.4735
  171SAPS   H4R19388   1.267   2.316   6.053  0.2282 -0.8294 -1.7143
  171SAPS   H4S19389   1.388   2.206   6.023  0.1609 -0.8883  0.6997
  171SAPS   C2519390   1.402   2.386   5.896  0.5686  1.1397  0.0018
  171SAPS   H5R19391   1.376   2.493   5.894 -2.7650  0.5619  2.7188
  171SAPS   C2619392   1.439   2.311   5.782  0.7330 -0.0871  0.3116
  171SAPS   H6R19393   1.450   2.361   5.685 -1.1707 -0.2468 -0.0240
  171SAPS   C2719394   1.476   2.169   5.782  0.5525  0.0131  0.1598
  171SAPS   H7R19395   1.523   2.140   5.878  0.2631 -0.6738  0.1014
  171SAPS   H7S19396   1.559   2.153   5.711 -0.1924  1.7986 -1.1939
  171SAPS   C2819397   1.364   2.068   5.764  0.4166  0.3151 -0.6691
  171SAPS   H8R19398   1.265   2.107   5.791  0.3478 -1.1288  1.3337
  171SAPS   C2919399   1.374   1.941   5.708  0.2431 -0.1800  0.2623
  171SAPS   H9R19400   1.279   1.886   5.706 -1.6855  2.8669  1.6929
  171SAPS  C21019401   1.491   1.870   5.652 -0.0521 -0.5193  0.0062
  171SAPS  H10R19402   1.577   1.884   5.720 -0.3048 -0.5278  0.3317
  171SAPS  H10S19403   1.519   1.934   5.566  3.4889 -2.1178 -0.2039
  171SAPS  C21119404   1.482   1.723   5.615  0.6475 -0.2547  0.5968
  171SAPS  H11R19405   1.558   1.663   5.668  2.7542  1.9893  0.3191
  171SAPS  C21219406   1.393   1.661   5.534  0.2305 -0.4908  0.2843
  171SAPS  H12R19407   1.395   1.552   5.520 -1.5913 -0.4940 -0.1713
  171SAPS  C21319408   1.297   1.726   5.441 -1.0076 -0.3933  0.1164
  171SAPS  H13R19409   1.358   1.784   5.369  0.0942  0.0985  1.4028
  171SAPS  H13S19410   1.240   1.808   5.492  0.5174  0.2730  0.8033
  171SAPS  C21419411   1.206   1.640   5.361 -0.0498  0.3121 -0.1419
  171SAPS  H14R19412   1.151   1.569   5.425  3.3721 -0.7207  1.8925
  171SAPS  C21519413   1.200   1.626   5.226  0.0373 -0.2068 -0.5641
  171SAPS  H15R19414   1.119   1.563   5.186  0.9745 -1.5109 -0.4570
  171SAPS  C21619415   1.277   1.696   5.123 -0.1256  0.1066  0.0335
  171SAPS  H16R19416   1.320   1.623   5.051 -3.0984 -0.4912 -1.2663
  171SAPS  H16S19417   1.363   1.748   5.172 -0.5888  0.3036  0.6456
  171SAPS  C21719418   1.184   1.806   5.056 -0.7718  0.4276 -0.3100
  171SAPS  H17R19419   1.139   1.880   5.125  2.1771  1.6321  0.4573
  171SAPS  H17S19420   1.103   1.756   4.999 -0.2438 -1.7736  0.7390
  171SAPS  C21819421   1.258   1.876   4.946 -0.0628 -0.7968 -0.2217
  171SAPS  H18R19422   1.316   1.810   4.878  0.7745 -0.4823  0.1807
  171SAPS  H18S19423   1.326   1.954   4.987 -2.5379  0.6815  1.3308
  171SAPS  C21919424   1.156   1.948   4.849 -0.4304  0.3579  0.8877
  171SAPS  H19R19425   1.099   1.863   4.805 -0.0460  2.1647 -3.5984
  171SAPS  H19S19426   1.209   1.996   4.765  0.3705 -1.0802  0.5353
  171SAPS  C22019427   1.054   2.050   4.902 -0.1275 -0.9803 -0.2608
  171SAPS  H20R19428   0.990   1.987   4.967  1.8415 -3.1678 -0.3293
  171SAPS  H20S19429   0.982   2.082   4.823  2.3042  0.6330 -1.9893
  171SAPS  H20T19430   1.101   2.133   4.960 -1.4996 -0.6481  0.4146
  171SAPS   C3319431   0.977   2.363   5.835 -0.0751  0.3793 -0.0362
  171SAPS   H3X19432   0.866   2.367   5.828 -0.3855  1.1525  3.2728
  171SAPS   H3Y19433   1.010   2.294   5.916 -2.7803 -0.5347  0.3654
  171SAPS   C3419434   1.037   2.293   5.712 -0.5591 -0.4254 -0.6896
  171SAPS   H4X19435   1.146   2.300   5.728 -0.5217  1.3549 -1.4803
  171SAPS   H4Y19436   1.019   2.361   5.626  2.0611 -0.0228 -0.9972
  171SAPS   C3519437   0.998   2.154   5.681  0.2953  0.7389  0.3435
  171SAPS   H5X19438   0.887   2.162   5.689  0.2757  1.7724 -0.6697
  171SAPS   H5Y19439   1.037   2.072   5.744 -0.3292 -0.4294 -0.7308
  171SAPS   C3619440   1.021   2.107   5.537 -0.5247  0.3788 -0.2773
  171SAPS   H6X19441   1.124   2.067   5.526 -1.2471 -0.8604 -3.8101
  171SAPS   H6Y19442   1.010   2.192   5.467  0.0536  0.0069 -0.8337
  171SAPS   C3719443   0.935   1.990   5.492 -0.4021  0.0350 -0.5231
  171SAPS   H7X19444   0.832   2.029   5.477  0.4744  1.4874 -3.6419
  171SAPS   H7Y19445   0.940   1.917   5.575 -3.2098 -0.6468 -0.8375
  171SAPS   C3819446   0.972   1.930   5.359  0.5704  0.7761 -0.4556
  171SAPS   H8X19447   1.077   1.892   5.362  0.3269  0.0149 -1.1630
  171SAPS   H8Y19448   0.977   2.010   5.282  1.9685 -0.1082 -1.3398
  171SAPS   C3919449   0.894   1.800   5.327  0.4104 -0.3399  0.1203
  171SAPS   H9X19450   0.921   1.726   5.405 -0.0630 -1.6098 -0.8949
  171SAPS   H9Y19451   0.922   1.756   5.229  2.2393 -0.7590  0.7894
  171SAPS  C31019452   0.739   1.806   5.338 -0.2940  0.4039 -0.1048
  171SAPS  H10X19453   0.719   1.852   5.437  0.7951 -0.6616  0.6395
  171SAPS  H10Y19454   0.699   1.702   5.335  0.4291  0.0840  1.0185
  171SAPS  C31119455   0.673   1.888   5.232 -0.0213 -0.5560 -0.1458
  171SAPS  H11X19456   0.729   1.984   5.225  2.3393 -1.7238  1.3803
  171SAPS  H11Y19457   0.567   1.903   5.261  0.1042 -1.0077  0.5860
  171SAPS  C31219458   0.674   1.834   5.094 -0.6388  0.6129 -0.3620
  171SAPS  H12X19459   0.619   1.739   5.077  3.0837 -1.4741 -2.0631
  171SAPS  H12Y19460   0.775   1.793   5.072 -0.3431  0.3812  1.2378
  171SAPS  C31319461   0.630   1.936   4.988 -0.1782  0.6060 -0.2976
  171SAPS  H13X19462   0.676   2.036   5.000  0.4731  0.4060 -1.0303
  171SAPS  H13Y19463   0.524   1.949   5.018  0.0182  0.1285  0.6310
  171SAPS  C31419464   0.642   1.881   4.842 -0.2091 -0.3084 -0.1652
  171SAPS  H14X19465   0.578   1.791   4.839 -0.5394 -0.0850  0.1021
  171SAPS  H14Y19466   0.748   1.855   4.818  0.2175  0.9320  0.3081
  171SAPS  C31519467   0.593   1.980   4.728 -0.2315  0.9981 -0.5028
  171SAPS  H15X19468   0.649   2.076   4.735  0.3664  0.5508  1.3290
  171SAPS  H15Y19469   0.487   2.001   4.756  0.0877  0.5234  1.1690
  171SAPS  C31619470   0.608   1.896   4.593  0.2965 -0.0208  0.0857
  171SAPS  H16X19471   0.546   1.804   4.584  1.0087 -0.4830 -0.1460
  171SAPS  H16Y19472   0.717   1.874   4.588  0.4172  0.8078 -1.7036
  171SAPS  C31719473   0.573   1.986   4.474  0.1312 -0.6794 -0.7683
  171SAPS  H17X19474   0.604   1.932   4.382  0.5832 -1.2700 -0.2785
  171SAPS  H17Y19475   0.632   2.079   4.485 -0.3671 -0.3887 -0.5565
  171SAPS  C31819476   0.429   2.030   4.462 -0.4195 -0.0612 -0.0708
  171SAPS  H18X19477   0.416   2.108   4.384 -1.5263  0.7321  0.8537
  171SAPS  H18Y19478   0.398   2.074   4.560 -0.3993  2.1272 -0.9765
  171SAPS  H18Z19479   0.362   1.945   4.436  0.4292 -0.3865 -1.2342
  172SAPS     N19480   0.208   3.049   6.899 -0.0054  0.7221 -0.2670
  172SAPS   HN119481   0.281   2.980   6.928 -0.0544  1.5602  2.0183
  172SAPS   HN219482   0.246   3.115   6.828  2.3042  0.5355  0.6989
  172SAPS   HN319483   0.167   3.098   6.980  0.4723  2.1981 -0.8806
  172SAPS   C1219484   0.101   2.976   6.824 -0.3054  0.5317 -0.2953
  172SAPS  H12A19485   0.153   2.923   6.746 -1.4833  1.2953 -1.6651
  172SAPS   C1319486   0.023   2.874   6.904 -0.0927  0.4704 -0.1893
  172SAPS  O13A19487   0.049   2.850   7.027  0.5364 -0.2418  0.1906
  172SAPS  O13B19488  -0.054   2.800   6.841 -0.0178 -0.4450 -0.5142
  172SAPS   C1119489   0.000   3.083   6.768 -0.0287  0.2704 -0.3373
  172SAPS  H11A19490  -0.058   3.139   6.844  2.1889 -0.5108  2.0609
  172SAPS  H11B19491  -0.070   3.021   6.708 -1.3498  0.6721  0.7521
  172SAPS     P19492   0.091   3.176   6.534  0.1322  0.1206 -0.0711
  172SAPS   O1319493   0.162   3.292   6.490  0.0655 -0.2182  0.2470
  172SAPS   O1419494   0.151   3.039   6.516  0.4253  0.3288  0.3442
  172SAPS   O1219495   0.060   3.188   6.692 -0.8799  0.8927  0.8572
  172SAPS   O1119496  -0.052   3.184   6.479  0.9526 -0.1832 -0.1841
  172SAPS    C119497  -0.144   3.292   6.503 -0.4648 -0.5264  0.0568
  172SAPS    HA19498  -0.232   3.257   6.562 -0.3535  1.1300  1.2616
  172SAPS    HB19499  -0.101   3.375   6.562  0.2680 -1.7231  1.2629
  172SAPS    C219500  -0.198   3.353   6.373 -0.1330  1.1083  0.9105
  172SAPS    HS19501  -0.243   3.269   6.316  0.2078  0.2329  1.9120
  172SAPS   O2119502  -0.084   3.413   6.297  0.1056 -0.3987 -0.1275
  172SAPS   C2119503  -0.098   3.399   6.164  0.1836 -0.7689  0.1119
  172SAPS   O2219504  -0.187   3.333   6.108  0.2904 -0.0292 -0.2850
  172SAPS   C2219505   0.026   3.455   6.087  0.3739 -0.9521  0.4698
  172SAPS   H2R19506   0.006   3.470   5.978  3.2603 -4.4366 -0.7555
  172SAPS   H2S19507   0.065   3.547   6.133 -2.2288  0.1195  0.7133
  172SAPS    C319508  -0.304   3.453   6.393 -0.5835 -0.2779  0.3128
  172SAPS    HX19509  -0.252   3.544   6.430  1.9377 -1.3774 -0.2977
  172SAPS    HY19510  -0.375   3.423   6.473  0.1289 -2.0115  0.3298
  172SAPS   O3119511  -0.366   3.493   6.267  0.5279 -0.9172 -0.0435
  172SAPS   C3119512  -0.459   3.410   6.214 -0.2656 -0.2349  0.4802
  172SAPS   O3219513  -0.520   3.324   6.277 -0.6174  0.0831  0.0535
  172SAPS   C3219514  -0.475   3.458   6.073  0.2768  0.0123 -0.5857
  172SAPS   H2X19515  -0.375   3.447   6.027  0.4934  0.0333 -0.1306
  172SAPS   H2Y19516  -0.501   3.566   6.074  1.8734  0.4192  0.8758
  172SAPS   C2319517   0.141   3.344   6.095  0.1253  0.0978  0.1176
  172SAPS   H3R19518   0.171   3.325   6.200 -0.1521 -4.5640 -0.4089
  172SAPS   H3S19519   0.223   3.379   6.029  0.6364 -0.7705  0.2763
  172SAPS   C2419520   0.117   3.203   6.045 -0.0134  0.6706 -0.8700
  172SAPS   H4R19521   0.047   3.166   6.123  0.5325  1.6830  0.1258
  172SAPS   H4S19522   0.215   3.153   6.059 -0.0875  0.9331  0.8348
  172SAPS   C2519523   0.056   3.190   5.908  0.0721 -0.2318 -0.0120
  172SAPS   H5R19524  -0.036   3.249   5.892  0.1486 -0.2649 -0.5822
  172SAPS   C2619525   0.098   3.122   5.802  0.0233  0.2507  0.8581
  172SAPS   H6R19526   0.034   3.131   5.712  2.1660  1.2435 -0.6408
  172SAPS   C2719527   0.213   3.028   5.780 -0.3406 -0.2020 -0.1273
  172SAPS   H7R19528   0.294   3.060   5.849  0.3222  1.2862 -1.5451
  172SAPS   H7S19529   0.249   3.039   5.676  0.5025  0.2326  0.2009
  172SAPS   C2819530   0.175   2.888   5.829  0.1164  0.3665 -0.5830
  172SAPS   H8R19531   0.114   2.878   5.920  1.0678  2.1294  0.2772
  172SAPS   C2919532   0.168   2.776   5.751  0.5897  0.0625 -0.2767
  172SAPS   H9R19533   0.135   2.681   5.794  2.2027 -1.4457 -2.1748
  172SAPS  C21019534   0.237   2.766   5.609 -0.1698 -0.5125 -0.4954
  172SAPS  H10R19535   0.266   2.660   5.598  0.4580 -0.3167 -0.7863
  172SAPS  H10S19536   0.328   2.831   5.612 -0.0371 -0.6697 -1.0556
  172SAPS  C21119537   0.142   2.804   5.496  0.0997  0.1478 -0.6266
  172SAPS  H11R19538   0.039   2.791   5.534  1.2259 -1.4762  2.2549
  172SAPS  C21219539   0.174   2.849   5.370 -0.0539 -0.7842  0.7829
  172SAPS  H12R19540   0.091   2.876   5.303  1.1797 -1.5935 -1.1866
  172SAPS  C21319541   0.315   2.881   5.320 -0.1464  0.0999  0.1413
  172SAPS  H13R19542   0.378   2.914   5.406 -0.1407  1.7906 -0.4693
  172SAPS  H13S19543   0.324   2.974   5.260 -0.7536 -0.3009 -0.5799
  172SAPS  C21419544   0.386   2.759   5.248  0.8408  0.0012 -0.4930
  172SAPS  H14R19545   0.444   2.697   5.318  1.3088  1.1275  0.1448
  172SAPS  C21519546   0.369   2.721   5.119  0.2060 -0.2940  0.3417
  172SAPS  H15R19547   0.433   2.642   5.077  1.4176  1.6525 -1.6466
  172SAPS  C21619548   0.297   2.797   5.007  1.1089  0.0941 -0.5560
  172SAPS  H16R19549   0.292   2.899   5.049 -3.2474 -1.4835  3.6165
  172SAPS  H16S19550   0.191   2.766   4.997  0.7721  0.7782  0.7593
  172SAPS  C21719551   0.377   2.802   4.875 -0.4861  0.1092  0.3634
  172SAPS  H17R19552   0.320   2.865   4.803  0.4512  0.1216 -0.3889
  172SAPS  H17S19553   0.374   2.705   4.820  0.5242 -0.1866  0.8075
  172SAPS  C21819554   0.524   2.853   4.872 -0.0025  0.1312 -0.2420
  172SAPS  H18R19555   0.565   2.825   4.772 -2.6719 -0.9313 -1.1445
  172SAPS  H18S19556   0.578   2.795   4.950 -1.5777 -0.7603  0.2346
  172SAPS  C21919557   0.531   3.008   4.887  0.8809  0.7341  0.5584
  172SAPS  H19R19558   0.636   3.043   4.899  0.6661  2.0557 -1.1187
  172SAPS  H19S19559   0.476   3.047   4.975 -0.2522  2.4615 -0.8673
  172SAPS  C22019560   0.466   3.083   4.767 -0.5808  0.0459  0.1886
  172SAPS  H20R19561   0.358   3.059   4.753 -0.4181  0.2040 -1.5107
  172SAPS  H20S19562   0.535   3.084   4.680  0.2793  2.3229  0.8516
  172SAPS  H20T19563   0.474   3.189   4.798  0.2849  0.0028  0.1256
  172SAPS   C3319564  -0.588   3.372   5.992 -0.1481 -0.2640 -0.2707
  172SAPS   H3X19565  -0.683   3.363   6.048  1.6124  0.2804  3.0788
  172SAPS   H3Y19566  -0.555   3.266   5.980 -1.2430 -0.5573 -0.7790
  172SAPS   C3419567  -0.613   3.449   5.866  0.6073  0.2729 -0.1808
  172SAPS   H4X19568  -0.513   3.473   5.824  0.5001 -0.2839 -0.7805
  172SAPS   H4Y19569  -0.671   3.541   5.885 -0.2979 -0.2759 -0.2316
  172SAPS   C3519570  -0.686   3.370   5.757  0.1466 -0.1541 -0.2126
  172SAPS   H5X19571  -0.791   3.356   5.789  0.9363  1.8632  3.8245
  172SAPS   H5Y19572  -0.628   3.276   5.746  2.0395  0.9349  0.0058
  172SAPS   C3619573  -0.695   3.453   5.621  0.1275  0.3786 -0.6737
  172SAPS   H6X19574  -0.600   3.511   5.613 -1.1240  2.5756 -0.3100
  172SAPS   H6Y19575  -0.769   3.535   5.618 -1.2201 -0.7913 -0.2792
  172SAPS   C3719576  -0.722   3.354   5.506 -0.2914  0.8894 -0.1959
  172SAPS   H7X19577  -0.825   3.314   5.512  0.0594 -0.0323 -0.2671
  172SAPS   H7Y19578  -0.649   3.270   5.506 -0.7894  0.4543 -0.0805
  172SAPS   C3819579  -0.707   3.408   5.369 -0.4683 -0.0406 -0.6613
  172SAPS   H8X19580  -0.613   3.468   5.362  0.3494 -0.0538  5.1133
  172SAPS   H8Y19581  -0.790   3.480   5.353 -0.5150 -0.1146 -0.7516
  172SAPS   C3919582  -0.720   3.310   5.255  1.5664  0.7032 -0.0354
  172SAPS   H9X19583  -0.804   3.240   5.276  1.7623  0.3097 -0.5432
  172SAPS   H9Y19584  -0.626   3.251   5.264 -0.1824 -2.1205  1.5510
  172SAPS  C31019585  -0.725   3.371   5.119  0.0215  0.1796  0.0524
  172SAPS  H10X19586  -0.651   3.454   5.109  1.6426 -1.4599 -2.6644
  172SAPS  H10Y19587  -0.819   3.426   5.098  0.8330  1.2708 -0.8661
  172SAPS  C31119588  -0.706   3.267   5.009 -0.2525  0.0957 -0.9138
  172SAPS  H11X19589  -0.801   3.208   5.005 -0.7271  0.7192  0.5137
  172SAPS  H11Y19590  -0.628   3.198   5.047  0.1910  1.6515  1.0879
  172SAPS  C31219591  -0.675   3.325   4.869 -0.5390  0.0904 -0.0290
  172SAPS  H12X19592  -0.753   3.401   4.849 -0.2634  0.7018  1.1078
  172SAPS  H12Y19593  -0.682   3.241   4.797  0.3661 -0.2113  0.2140
  172SAPS  C31319594  -0.536   3.377   4.850  0.2053 -0.1798  0.3724
  172SAPS  H13X19595  -0.449   3.309   4.854  1.6522  1.5735  0.2253
  172SAPS  H13Y19596  -0.523   3.467   4.916 -1.0456  0.4515 -0.2152
  172SAPS  C31419597  -0.513   3.424   4.701  0.5437 -0.5368  0.1241
  172SAPS  H14X19598  -0.600   3.493   4.692  0.4667 -0.5470  0.7178
  172SAPS  H14Y19599  -0.519   3.334   4.637  1.0943 -0.5233  0.0531
  172SAPS  C31519600  -0.383   3.504   4.672  0.0150  0.3411 -0.3140
  172SAPS  H15X19601  -0.298   3.460   4.727 -0.5544 -0.7212 -0.2573
  172SAPS  H15Y19602  -0.402   3.608   4.705 -0.9184  0.1611 -0.2571
  172SAPS  C31619603  -0.361   3.522   4.524  0.3737 -0.5467  0.6206
  172SAPS  H16X19604  -0.385   3.430   4.468  1.8861  0.1020 -1.1826
  172SAPS  H16Y19605  -0.431   3.599   4.487  0.0868 -1.5775 -1.0713
  172SAPS  C31719606  -0.214   3.564   4.495 -0.3300  0.1934  1.0746
  172SAPS  H17X19607  -0.147   3.480   4.523  2.2175  2.2990  1.7437
  172SAPS  H17Y19608  -0.185   3.644   4.567 -3.3346  2.9711 -0.5452
  172SAPS  C31819609  -0.191   3.613   4.352  0.0338  0.2103 -0.1438
  172SAPS  H18X19610  -0.210   3.535   4.274  1.0017  1.1487 -1.3619
  172SAPS  H18Y19611  -0.089   3.652   4.332  0.3820  0.3614  1.7536
  172SAPS  H18Z19612  -0.270   3.689   4.334 -1.9557 -1.3960  1.2511
  173SAPS     N19613   5.120   4.633   1.617  0.1089 -0.6393  0.1006
  173SAPS   HN119614   5.196   4.704   1.627  2.3276 -2.8525 -0.0313
  173SAPS   HN219615   5.166   4.544   1.643 -1.1535 -1.1463  0.6595
  173SAPS   HN319616   5.097   4.628   1.515  0.7953 -0.6358 -0.0630
  173SAPS   C1219617   4.998   4.658   1.698 -0.6943 -0.1782  0.6601
  173SAPS  H12A19618   4.991   4.765   1.684 -1.4332 -0.0841  1.6443
  173SAPS   C1319619   4.863   4.591   1.673  0.0522 -0.3951 -0.3524
  173SAPS  O13A19620   4.865   4.486   1.604  0.0157  0.5206  0.5021
  173SAPS  O13B19621   4.761   4.618   1.750  0.1300  0.2303 -0.2824
  173SAPS   C1119622   5.030   4.644   1.849 -0.2828 -0.6184  0.6512
  173SAPS  H11A19623   5.052   4.538   1.874  1.3741 -0.5886 -0.5276
  173SAPS  H11B19624   4.938   4.676   1.902 -1.1476 -0.6952 -0.7462
  173SAPS     P19625   5.149   4.864   1.964 -0.3043  0.3700  0.1695
  173SAPS   O1319626   5.179   4.968   1.862 -0.0916  0.3589  0.2167
  173SAPS   O1419627   5.027   4.877   2.045  0.0430 -0.2690 -0.2666
  173SAPS   O1219628   5.138   4.734   1.876 -0.6871 -0.1438 -0.1239
  173SAPS   O1119629   5.272   4.820   2.049 -0.1001 -0.1708  0.3500
  173SAPS    C119630   5.326   4.695   2.091 -0.5706  0.1898 -0.4793
  173SAPS    HA19631   5.358   4.636   2.003 -3.3449  0.7033 -1.9537
  173SAPS    HB19632   5.410   4.712   2.162 -1.4042 -2.0498  1.1387
  173SAPS    C219633   5.235   4.614   2.177  0.6657  0.3841 -0.4538
  173SAPS    HS19634   5.134   4.617   2.130 -0.9073  0.9631  2.6918
  173SAPS   O2119635   5.215   4.673   2.313 -0.2176  0.2693 -0.6145
  173SAPS   C2119636   5.105   4.642   2.376  0.0749 -0.0146 -0.1194
  173SAPS   O2219637   5.011   4.583   2.322  0.8792 -0.2516 -0.3062
  173SAPS   C2219638   5.099   4.666   2.523 -0.3432 -0.1924  0.6809
  173SAPS   H2R19639   5.010   4.729   2.545 -0.2631  1.3526 -2.7944
  173SAPS   H2S19640   5.089   4.569   2.576  0.8756 -0.9119 -0.3613
  173SAPS    C319641   5.281   4.469   2.196  0.4824  0.6478 -0.4398
  173SAPS    HX19642   5.308   4.433   2.095  0.6950  0.5083 -0.3316
  173SAPS    HY19643   5.199   4.409   2.241  1.5662  1.1436  2.3953
  173SAPS   O3119644   5.391   4.473   2.287  0.0066 -0.2654  0.3827
  173SAPS   C3119645   5.361   4.440   2.417 -0.2910 -0.4053  0.3040
  173SAPS   O3219646   5.260   4.396   2.465  0.0587  0.3725  0.8312
  173SAPS   C3219647   5.496   4.460   2.498  0.3331 -0.2460  0.4599
  173SAPS   H2X19648   5.508   4.570   2.489  2.0826 -0.4240  0.4160
  173SAPS   H2Y19649   5.576   4.397   2.455 -0.8804 -1.3311 -0.3081
  173SAPS   C2319650   5.226   4.739   2.592  0.4046 -0.0873  0.7829
  173SAPS   H3R19651   5.259   4.829   2.535  1.5813 -0.2438  1.1946
  173SAPS   H3S19652   5.319   4.678   2.584  0.7453  0.5687 -0.6801
  173SAPS   C2419653   5.196   4.774   2.731  0.0465 -0.0583  0.3864
  173SAPS   H4R19654   5.097   4.823   2.745  0.1361 -0.1208  1.2870
  173SAPS   H4S19655   5.264   4.854   2.768  1.0960 -0.0961 -1.3277
  173SAPS   C2519656   5.202   4.648   2.814  0.2372  0.1237  0.6719
  173SAPS   H5R19657   5.146   4.560   2.782  1.9956 -2.7510  4.6117
  173SAPS   C2619658   5.285   4.619   2.915  0.6055 -0.0154  0.1258
  173SAPS   H6R19659   5.262   4.523   2.965 -0.7708 -0.5777 -1.4761
  173SAPS   C2719660   5.405   4.689   2.969 -0.5125  0.2408 -0.4891
  173SAPS   H7R19661   5.375   4.787   3.010 -0.6050  1.5100 -3.3629
  173SAPS   H7S19662   5.466   4.731   2.887 -0.8698  1.1340 -0.3047
  173SAPS   C2819663   5.505   4.606   3.050  0.6894 -0.0793  0.5665
  173SAPS   H8R19664   5.587   4.563   2.990  0.5232  0.1808  0.1465
  173SAPS   C2919665   5.498   4.588   3.177 -0.1269 -0.4394 -0.2649
  173SAPS   H9R19666   5.573   4.522   3.223  1.4594  2.6489  1.9206
  173SAPS  C21019667   5.392   4.638   3.278  0.2590  0.0784 -0.6201
  173SAPS  H10R19668   5.363   4.557   3.349  0.7432 -0.9922 -1.6118
  173SAPS  H10S19669   5.303   4.669   3.220  0.4776 -0.4746 -1.2595
  173SAPS  C21119670   5.443   4.762   3.347 -1.0516 -1.1081 -0.3208
  173SAPS  H11R19671   5.540   4.793   3.305 -0.2410 -3.2743 -0.1557
  173SAPS  C21219672   5.384   4.834   3.449 -0.0528 -0.1300  0.6196
  173SAPS  H12R19673   5.436   4.926   3.478  0.1291  0.6168 -1.7961
  173SAPS  C21319674   5.254   4.785   3.514  0.2599  0.0451  0.1213
  173SAPS  H13R19675   5.252   4.675   3.530 -2.6128  0.0546  0.3143
  173SAPS  H13S19676   5.182   4.820   3.437  1.3159  3.9126  0.6759
  173SAPS  C21419677   5.228   4.847   3.654  0.3564  0.0669 -0.5735
  173SAPS  H14R19678   5.290   4.810   3.737 -0.8213  0.6311  0.6009
  173SAPS  C21519679   5.143   4.950   3.681 -0.6796  0.2468  0.3674
  173SAPS  H15R19680   5.133   4.984   3.785 -1.2735 -0.6994  0.6372
  173SAPS  C21619681   5.040   5.005   3.589  0.6190  0.5491 -0.0792
  173SAPS  H16R19682   5.006   4.927   3.517 -0.9812 -0.0430  1.2280
  173SAPS  H16S19683   5.083   5.087   3.528  2.7744 -0.7169 -0.3558
  173SAPS  C21719684   4.908   5.039   3.658  0.0389  0.5889 -0.3486
  173SAPS  H17R19685   4.934   5.077   3.759  0.8058 -2.1740  0.5906
  173SAPS  H17S19686   4.855   4.942   3.670  2.0816 -0.3735  1.7038
  173SAPS  C21819687   4.825   5.133   3.582 -0.2731  0.3724 -0.0297
  173SAPS  H18R19688   4.884   5.225   3.564 -1.8613  0.9936 -2.7814
  173SAPS  H18S19689   4.734   5.153   3.643 -0.3260 -1.8091  0.7102
  173SAPS  C21919690   4.772   5.085   3.439  0.7398  0.3572  0.1314
  173SAPS  H19R19691   4.674   5.036   3.456  0.8242 -0.1574 -0.7877
  173SAPS  H19S19692   4.837   5.011   3.387 -1.4992 -1.0934 -0.7625
  173SAPS  C22019693   4.744   5.195   3.332 -0.0679  0.2803  0.2329
  173SAPS  H20R19694   4.702   5.284   3.383 -3.2724  0.1625 -1.8767
  173SAPS  H20S19695   4.669   5.158   3.259 -0.4219 -1.0684  1.2449
  173SAPS  H20T19696   4.844   5.220   3.291 -1.0087  2.5106 -0.8620
  173SAPS   C3319697   5.479   4.438   2.643 -1.0209  0.5442 -0.0813
  173SAPS   H3X19698   5.376   4.457   2.681  0.2591  0.6510  3.7280
  173SAPS   H3Y19699   5.550   4.506   2.694 -0.4246  0.5444 -0.8938
  173SAPS   C3419700   5.511   4.292   2.681  0.1914  0.4122  0.3160
  173SAPS   H4X19701   5.615   4.273   2.647 -0.2407  2.8269 -2.7852
  173SAPS   H4Y19702   5.451   4.217   2.626 -0.0557 -1.8511  3.4109
  173SAPS   C3519703   5.490   4.258   2.825 -0.3453  0.6162  0.4606
  173SAPS   H5X19704   5.536   4.335   2.890  0.6355 -1.2968  2.1431
  173SAPS   H5Y19705   5.539   4.161   2.848 -0.7976 -0.2818 -1.9947
  173SAPS   C3619706   5.340   4.251   2.854  0.1377  1.1507 -0.8823
  173SAPS   H6X19707   5.299   4.158   2.809  1.3590  0.0783  0.1481
  173SAPS   H6Y19708   5.273   4.327   2.808 -3.6437 -0.7331  1.0317
  173SAPS   C3719709   5.309   4.238   3.003 -0.5275  0.3332  0.5912
  173SAPS   H7X19710   5.372   4.314   3.055 -0.7788  0.6317  0.4600
  173SAPS   H7Y19711   5.347   4.138   3.034 -1.8361 -0.8825 -1.5260
  173SAPS   C3819712   5.165   4.267   3.045 -0.3631 -0.3813  0.6898
  173SAPS   H8X19713   5.104   4.205   2.976 -1.5713 -0.0292  1.4148
  173SAPS   H8Y19714   5.135   4.371   3.021  1.4036 -0.3174 -1.5489
  173SAPS   C3919715   5.130   4.239   3.185 -0.3220  0.5291 -0.1311
  173SAPS   H9X19716   5.143   4.130   3.203 -2.2467  0.3991  0.7490
  173SAPS   H9Y19717   5.022   4.258   3.202 -0.1766  1.1788  0.0844
  173SAPS  C31019718   5.207   4.320   3.286  0.1717 -0.0252 -0.8956
  173SAPS  H10X19719   5.162   4.421   3.294 -0.5026 -0.2642 -1.5029
  173SAPS  H10Y19720   5.314   4.335   3.260  0.1854  0.3459 -0.6429
  173SAPS  C31119721   5.179   4.262   3.432 -0.4035  0.3446  0.8110
  173SAPS  H11X19722   5.231   4.165   3.443 -0.0779  0.5652  1.2533
  173SAPS  H11Y19723   5.068   4.249   3.438 -0.5979 -0.8650 -2.8892
  173SAPS  C31219724   5.239   4.349   3.539  0.7127 -0.2699  0.3617
  173SAPS  H12X19725   5.189   4.448   3.532 -0.2434 -0.7981 -0.5845
  173SAPS  H12Y19726   5.348   4.358   3.515  1.5647 -5.5107  0.8971
  173SAPS  C31319727   5.227   4.279   3.679  0.2705  0.6621  0.0133
  173SAPS  H13X19728   5.293   4.189   3.676 -0.9460 -0.2164 -1.2575
  173SAPS  H13Y19729   5.118   4.257   3.687  0.5607 -1.3440 -0.8518
  173SAPS  C31419730   5.276   4.357   3.792 -0.4878 -0.0407 -0.1180
  173SAPS  H14X19731   5.222   4.454   3.793 -0.8675 -0.2216 -1.0791
  173SAPS  H14Y19732   5.383   4.373   3.767  0.3174  0.7813  3.3669
  173SAPS  C31519733   5.246   4.291   3.920 -0.1575 -0.1049 -0.1546
  173SAPS  H15X19734   5.136   4.294   3.939  0.1991  1.2678  2.0504
  173SAPS  H15Y19735   5.297   4.354   3.996 -0.7627  0.3828 -0.1369
  173SAPS  C31619736   5.292   4.150   3.933  0.4150  0.2186 -0.4305
  173SAPS  H16X19737   5.394   4.136   3.892 -0.5535  1.5788 -3.5982
  173SAPS  H16Y19738   5.230   4.086   3.866  1.4900  0.5592 -1.7836
  173SAPS  C31719739   5.275   4.096   4.078 -0.2118  0.6757  0.1933
  173SAPS  H17X19740   5.301   3.987   4.077 -0.2597  0.6231  2.0214
  173SAPS  H17Y19741   5.171   4.092   4.116  0.5467 -1.2550  2.3024
  173SAPS  C31819742   5.377   4.154   4.175  0.0988 -0.4559  0.5504
  173SAPS  H18X19743   5.343   4.258   4.195 -1.7243 -0.8082 -0.4925
  173SAPS  H18Y19744   5.478   4.155   4.128 -0.3873  0.0860 -0.5070
  173SAPS  H18Z19745   5.390   4.098   4.270  2.0382 -1.2120 -0.1007
  174SAPS     N19746   0.407   0.367   1.659 -0.2028  0.2624  0.0465
  174SAPS   HN119747   0.340   0.287   1.651 -0.6733  0.3900  2.1110
  174SAPS   HN219748   0.444   0.357   1.755  2.9715  2.2492 -0.8405
  174SAPS   HN319749   0.350   0.452   1.639 -1.7168 -0.7113  0.0216
  174SAPS   C1219750   0.517   0.352   1.562  0.7811  0.1722 -0.1054
  174SAPS  H12A19751   0.466   0.362   1.467 -0.9832  1.2453  0.8977
  174SAPS   C1319752   0.620   0.467   1.580 -0.6348  0.2745  0.1708
  174SAPS  O13A19753   0.609   0.544   1.682  0.2078 -0.2359 -0.2637
  174SAPS  O13B19754   0.714   0.474   1.493 -0.6033 -0.0862 -0.1381
  174SAPS   C1119755   0.574   0.208   1.576  0.5458 -0.7567 -0.0685
  174SAPS  H11A19756   0.619   0.210   1.678 -1.8666  1.4147  1.0499
  174SAPS  H11B19757   0.659   0.203   1.504  0.5244 -1.2676 -0.0617
  174SAPS     P19758   0.483  -0.040   1.598 -0.1310 -0.0232  0.0387
  174SAPS   O1319759   0.346  -0.107   1.623 -0.0650  0.2326  0.1707
  174SAPS   O1419760   0.570  -0.090   1.492  0.0319 -0.2166 -0.0354
  174SAPS   O1219761   0.466   0.110   1.561  0.0226  0.2679  0.1395
  174SAPS   O1119762   0.569  -0.022   1.735 -0.4274 -0.2585 -0.4236
  174SAPS    C119763   0.508   0.025   1.851  0.5832 -0.2135 -0.4757
  174SAPS    HA19764   0.586   0.088   1.898  0.2032 -0.9905  1.2751
  174SAPS    HB19765   0.424   0.090   1.818  0.3340  1.5154  3.1267
  174SAPS    C219766   0.442  -0.083   1.940  0.7292  0.5198  0.1800
  174SAPS    HS19767   0.370  -0.135   1.873 -1.3000  2.7341  0.5410
  174SAPS   O2119768   0.368  -0.026   2.045 -0.1569 -0.4416 -0.5060
  174SAPS   C2119769   0.252   0.035   2.020  0.4792 -0.1005 -0.0288
  174SAPS   O2219770   0.194   0.049   1.916  0.8061 -0.1795 -0.3004
  174SAPS   C2219771   0.200   0.098   2.149 -0.6298  0.3763 -0.0577
  174SAPS   H2R19772   0.173   0.200   2.116  0.6932  0.6794 -0.2888
  174SAPS   H2S19773   0.114   0.039   2.186 -0.2406  0.4762  1.0429
  174SAPS    C319774   0.548  -0.182   1.997  0.3778 -1.0028  0.5789
  174SAPS    HX19775   0.601  -0.214   1.904  1.1256  0.3968  0.4870
  174SAPS    HY19776   0.513  -0.265   2.062  0.9925 -1.7614 -0.0322
  174SAPS   O3119777   0.648  -0.109   2.072  0.4803 -0.4501 -0.2490
  174SAPS   C3119778   0.615  -0.096   2.208  0.0950 -0.4045 -0.5424
  174SAPS   O3219779   0.522  -0.144   2.266  0.2117  0.1080  0.2195
  174SAPS   C3219780   0.731  -0.021   2.283 -0.4416 -0.3196  0.8318
  174SAPS   H2X19781   0.754   0.084   2.252  1.1573 -0.1476  2.4173
  174SAPS   H2Y19782   0.823  -0.074   2.250 -0.5254  0.8238 -1.4289
  174SAPS   C2319783   0.292   0.120   2.269  0.2396  0.3697 -0.1941
  174SAPS   H3R19784   0.391   0.153   2.230  0.5970 -1.0318 -0.5350
  174SAPS   H3S19785   0.310   0.018   2.309 -2.8273 -0.1323  0.1523
  174SAPS   C2419786   0.239   0.218   2.374  0.0558  0.3641  0.4234
  174SAPS   H4R19787   0.233   0.319   2.328 -0.3078 -0.0547 -0.4850
  174SAPS   H4S19788   0.322   0.228   2.447  2.3432  2.7833 -2.2317
  174SAPS   C2519789   0.113   0.174   2.442  0.8320  0.5901 -0.6411
  174SAPS   H5R19790   0.021   0.214   2.399 -0.1032 -0.7822 -0.0027
  174SAPS   C2619791   0.106   0.092   2.549  0.2552 -0.5665 -0.5167
  174SAPS   H6R19792   0.008   0.052   2.577 -0.2561  2.2723  2.2116
  174SAPS   C2719793   0.228   0.039   2.622  0.0205 -0.4922 -0.4450
  174SAPS   H7R19794   0.260   0.118   2.692 -0.3934 -1.2616  0.6385
  174SAPS   H7S19795   0.313   0.008   2.557  1.5802 -0.6320  1.5524
  174SAPS   C2819796   0.204  -0.095   2.684 -0.2309  0.7241 -0.0551
  174SAPS   H8R19797   0.201  -0.182   2.616 -0.6023  1.1980 -0.6494
  174SAPS   C2919798   0.178  -0.121   2.816 -0.7955  0.0359 -0.2090
  174SAPS   H9R19799   0.151  -0.220   2.854 -1.8402 -0.1226 -1.3029
  174SAPS  C21019800   0.189  -0.011   2.926  0.7885 -0.2350  0.2315
  174SAPS  H10R19801   0.165   0.089   2.883  1.5788  0.6306  1.7376
  174SAPS  H10S19802   0.290   0.013   2.966  0.1981  3.9508 -0.3271
  174SAPS  C21119803   0.096  -0.034   3.045 -0.2034 -0.4839 -0.0024
  174SAPS  H11R19804   0.032   0.051   3.073 -0.1919 -0.2864 -0.5764
  174SAPS  C21219805   0.098  -0.138   3.130  0.2750 -0.2828  0.0489
  174SAPS  H12R19806   0.036  -0.133   3.221  1.7070  0.8552  1.0131
  174SAPS  C21319807   0.186  -0.265   3.129 -0.3903  0.1546  0.1732
  174SAPS  H13R19808   0.281  -0.234   3.179 -0.1063 -0.7060  0.1770
  174SAPS  H13S19809   0.222  -0.293   3.028  1.4629 -1.2739  1.1777
  174SAPS  C21419810   0.122  -0.377   3.208 -0.5640  0.3937 -0.4439
  174SAPS  H14R19811   0.167  -0.391   3.307  2.3578  0.0025 -1.6924
  174SAPS  C21519812   0.043  -0.466   3.153 -0.3182  0.0558  0.2927
  174SAPS  H15R19813   0.013  -0.555   3.209 -2.5401  1.5082  1.5862
  174SAPS  C21619814  -0.013  -0.470   3.011  0.0193 -0.3238 -0.3805
  174SAPS  H16R19815   0.010  -0.378   2.953 -2.5040 -0.0896 -1.1434
  174SAPS  H16S19816  -0.123  -0.482   3.021  0.1763 -0.8047  0.8686
  174SAPS  C21719817   0.043  -0.597   2.940  0.3332  0.5308 -0.0491
  174SAPS  H17R19818  -0.029  -0.617   2.858  2.3709 -3.1280 -1.1814
  174SAPS  H17S19819   0.035  -0.690   3.000 -1.8327  1.0962  0.6459
  174SAPS  C21819820   0.186  -0.573   2.892 -0.5440  0.4338 -0.3797
  174SAPS  H18R19821   0.239  -0.586   2.988 -2.8182 -0.5815  0.8061
  174SAPS  H18S19822   0.203  -0.467   2.863 -1.3993  0.4816 -0.7442
  174SAPS  C21919823   0.229  -0.681   2.785  0.0471 -0.2377 -0.3769
  174SAPS  H19R19824   0.211  -0.783   2.824  0.2985 -0.8105 -1.7139
  174SAPS  H19S19825   0.337  -0.667   2.763  0.6189 -2.4025  0.8496
  174SAPS  C22019826   0.143  -0.661   2.651 -0.1608 -0.7536 -0.0701
  174SAPS  H20R19827   0.038  -0.695   2.663 -0.8130  0.8989 -0.7049
  174SAPS  H20S19828   0.191  -0.719   2.570  0.4966 -0.4756  0.1189
  174SAPS  H20T19829   0.142  -0.552   2.626 -0.2631 -0.5253  0.8876
  174SAPS   C3319830   0.723  -0.004   2.437 -0.6545 -0.4929 -0.0862
  174SAPS   H3X19831   0.826   0.018   2.471 -1.0668  1.8336 -0.1933
  174SAPS   H3Y19832   0.687  -0.095   2.491  1.0182  0.6404  3.2101
  174SAPS   C3419833   0.640   0.112   2.485 -0.5651  0.4491  0.0610
  174SAPS   H4X19834   0.540   0.092   2.441 -1.4794  0.2345  2.0784
  174SAPS   H4Y19835   0.686   0.204   2.444  2.3280 -1.7804 -2.0222
  174SAPS   C3519836   0.621   0.108   2.638  0.1386  0.0174 -0.2311
  174SAPS   H5X19837   0.726   0.123   2.670  0.0553  1.5954 -0.5988
  174SAPS   H5Y19838   0.598   0.003   2.664 -2.0207  0.9343  1.9967
  174SAPS   C3619839   0.523   0.215   2.682  0.1993 -0.2825 -0.2068
  174SAPS   H6X19840   0.426   0.200   2.631  0.2524  0.2264 -0.4694
  174SAPS   H6Y19841   0.553   0.319   2.655  1.1477 -0.7862 -1.1904
  174SAPS   C3719842   0.500   0.214   2.838  0.4767  0.1807  0.3588
  174SAPS   H7X19843   0.594   0.240   2.891  0.0371  0.9681  0.7762
  174SAPS   H7Y19844   0.459   0.111   2.850  0.4104  0.0477 -0.8822
  174SAPS   C3819845   0.385   0.315   2.878 -0.1860 -0.1941  0.6677
  174SAPS   H8X19846   0.284   0.288   2.840 -0.7751  2.6742 -0.0007
  174SAPS   H8Y19847   0.413   0.413   2.834  0.6038 -0.8823 -0.4138
  174SAPS   C3919848   0.378   0.335   3.025  0.7486 -0.1448 -1.0426
  174SAPS   H9X19849   0.351   0.239   3.075 -0.8917  0.2466 -1.1034
  174SAPS   H9Y19850   0.295   0.405   3.050  2.1978  1.1394  0.3667
  174SAPS  C31019851   0.505   0.386   3.103  0.2962  0.7639  0.0217
  174SAPS  H10X19852   0.525   0.489   3.066  1.3340  1.0962  1.4047
  174SAPS  H10Y19853   0.593   0.322   3.079 -0.6035 -0.5844  0.2480
  174SAPS  C31119854   0.488   0.389   3.264 -0.5789  0.3349 -0.3626
  174SAPS  H11X19855   0.406   0.459   3.289  0.3416  1.9257 -1.6289
  174SAPS  H11Y19856   0.586   0.439   3.284  0.3294 -1.4114 -0.2034
  174SAPS  C31219857   0.485   0.254   3.324  0.0282 -0.1522 -0.0489
  174SAPS  H12X19858   0.552   0.262   3.412 -1.9174  2.3908  1.3304
  174SAPS  H12Y19859   0.531   0.175   3.261  0.0860  1.3272 -1.9343
  174SAPS  C31319860   0.346   0.216   3.379  0.2752 -0.1693  0.5760
  174SAPS  H13X19861   0.278   0.197   3.293  1.9961 -0.0206 -0.8734
  174SAPS  H13Y19862   0.312   0.300   3.444  3.4089 -0.2797  2.5853
  174SAPS  C31419863   0.352   0.089   3.475 -0.1754 -0.1275  0.1299
  174SAPS  H14X19864   0.408   0.012   3.417 -3.2896 -1.5676 -1.1527
  174SAPS  H14Y19865   0.252   0.055   3.509 -0.6240  1.3490  0.3802
  174SAPS  C31519866   0.422   0.101   3.616  0.8230 -0.0640  0.4660
  174SAPS  H15X19867   0.526   0.138   3.612 -0.7942  5.1864 -0.7840
  174SAPS  H15Y19868   0.431  -0.005   3.647  0.0901 -0.5923 -1.0274
  174SAPS  C31619869   0.348   0.184   3.721  0.2887 -0.7089 -0.1033
  174SAPS  H16X19870   0.341   0.290   3.689 -1.2509 -0.9439 -0.6020
  174SAPS  H16Y19871   0.400   0.184   3.819  1.2843  0.8874 -0.5937
  174SAPS  C31719872   0.204   0.129   3.746  0.2620  0.7431  0.2104
  174SAPS  H17X19873   0.224   0.023   3.772  0.6300  0.5755 -0.7329
  174SAPS  H17Y19874   0.141   0.141   3.656 -0.5346 -1.7444  0.3742
  174SAPS  C31819875   0.140   0.201   3.871 -0.2100 -0.2215 -0.9471
  174SAPS  H18X19876   0.048   0.152   3.910 -0.4005  0.3229 -0.7061
  174SAPS  H18Y19877   0.125   0.307   3.842 -2.0468  0.6534  2.6332
  174SAPS  H18Z19878   0.218   0.190   3.950 -0.6727 -0.9007 -0.5706
  175SAPS     N19879   5.270   2.589   1.776 -0.5976 -0.6071  0.3532
  175SAPS   HN119880   5.192   2.646   1.812 -1.1680 -0.1233 -1.5373
  175SAPS   HN219881   5.245   2.490   1.798  1.3435 -0.7671  2.1133
  175SAPS   HN319882   5.366   2.612   1.808 -1.0933 -0.4509  1.7838
  175SAPS   C1219883   5.256   2.619   1.627 -0.4957 -0.4798 -0.1043
  175SAPS  H12A19884   5.235   2.725   1.629  0.6895 -0.2351  0.0425
  175SAPS   C1319885   5.377   2.591   1.529  0.2137 -0.6495 -0.9323
  175SAPS  O13A19886   5.481   2.539   1.577  0.2783  0.6778  0.0082
  175SAPS  O13B19887   5.366   2.628   1.410 -0.1596  0.1342 -0.4499
  175SAPS   C1119888   5.132   2.552   1.561  0.0728  0.6841  0.5205
  175SAPS  H11A19889   5.114   2.443   1.557 -1.6846  0.8617  2.2669
  175SAPS  H11B19890   5.134   2.586   1.455  0.5713 -0.8548  0.0144
  175SAPS     P19891   4.908   2.560   1.697  0.0670  0.3984  0.0815
  175SAPS   O1319892   4.812   2.664   1.741 -0.4074  0.1242  0.1137
  175SAPS   O1419893   4.840   2.446   1.632  0.4034  1.0729 -0.3268
  175SAPS   O1219894   5.016   2.622   1.606 -0.4578  0.0762 -0.1117
  175SAPS   O1119895   4.977   2.509   1.831 -0.2453 -0.0232  0.3861
  175SAPS    C119896   4.910   2.418   1.914 -0.0544 -0.1137  0.0614
  175SAPS    HA19897   4.855   2.339   1.858 -0.6237 -0.3989  0.9954
  175SAPS    HB19898   4.988   2.369   1.975 -0.5246 -1.1356 -0.1272
  175SAPS    C219899   4.812   2.491   2.007  0.5221 -0.5311 -0.2673
  175SAPS    HS19900   4.748   2.545   1.935 -1.0538 -3.0103 -0.8335
  175SAPS   O2119901   4.867   2.575   2.106 -0.3252 -0.0488 -0.0518
  175SAPS   C2119902   4.792   2.676   2.145  0.2957 -0.0195 -0.2913
  175SAPS   O2219903   4.677   2.697   2.103  0.2177  0.4548  0.5002
  175SAPS   C2219904   4.868   2.756   2.250 -0.3035 -0.0666  0.2724
  175SAPS   H2R19905   4.897   2.696   2.338 -0.1591 -1.7438 -0.8884
  175SAPS   H2S19906   4.963   2.788   2.202 -1.1189  1.1961 -0.5698
  175SAPS    C319907   4.726   2.385   2.083  0.1087 -0.4547  0.2392
  175SAPS    HX19908   4.676   2.337   1.997  0.4691 -0.8987  0.2716
  175SAPS    HY19909   4.651   2.436   2.147  0.7466  1.5195 -0.5427
  175SAPS   O3119910   4.814   2.296   2.165 -0.1600 -0.1603  0.5784
  175SAPS   C3119911   4.807   2.304   2.295 -0.4949 -0.3315 -0.3317
  175SAPS   O3219912   4.728   2.372   2.357  0.4264 -0.0147  0.2437
  175SAPS   C3219913   4.899   2.195   2.355 -0.0500 -0.0018 -0.2347
  175SAPS   H2X19914   4.988   2.175   2.292 -1.5465 -0.6783 -2.2328
  175SAPS   H2Y19915   4.837   2.104   2.365 -1.7602  1.1180 -0.1701
  175SAPS   C2319916   4.793   2.878   2.317 -0.2088 -0.3107 -0.0648
  175SAPS   H3R19917   4.738   2.930   2.235 -0.9688 -0.1449  0.5396
  175SAPS   H3S19918   4.862   2.954   2.359  1.1540 -0.2728 -2.2440
  175SAPS   C2419919   4.706   2.825   2.438 -0.2588  0.3471  0.5725
  175SAPS   H4R19920   4.767   2.791   2.524  0.5227 -2.6472 -1.0328
  175SAPS   H4S19921   4.660   2.733   2.396 -0.3790  0.4374  0.5065
  175SAPS   C2519922   4.602   2.925   2.478  0.3664  0.8178  0.2960
  175SAPS   H5R19923   4.582   2.997   2.396 -1.9647  0.1031  0.1783
  175SAPS   C2619924   4.542   2.922   2.596  0.7684 -0.1271  0.4394
  175SAPS   H6R19925   4.459   2.991   2.614 -0.2954 -1.5767  1.3108
  175SAPS   C2719926   4.579   2.830   2.711 -0.0244 -0.4865 -0.5589
  175SAPS   H7R19927   4.650   2.750   2.679  0.6841 -0.5529  1.0416
  175SAPS   H7S19928   4.490   2.785   2.760  0.4208 -0.2312  0.5184
  175SAPS   C2819929   4.648   2.920   2.817  0.3289 -0.1884  0.4057
  175SAPS   H8R19930   4.714   3.005   2.796 -1.5590  1.5107  0.9405
  175SAPS   C2919931   4.649   2.885   2.951  1.0308 -0.0014  0.6932
  175SAPS   H9R19932   4.698   2.963   3.011 -0.7253  2.5836 -1.0085
  175SAPS  C21019933   4.576   2.777   3.021 -0.2269 -0.0575 -0.2241
  175SAPS  H10R19934   4.606   2.688   2.962  3.9263  0.6694  0.5073
  175SAPS  H10S19935   4.466   2.788   3.011 -0.0657  1.3091 -0.6470
  175SAPS  C21119936   4.626   2.752   3.162  0.2056  0.0540  0.9197
  175SAPS  H11R19937   4.683   2.660   3.179  0.8710  0.2819 -0.0134
  175SAPS  C21219938   4.588   2.814   3.280 -0.0543  0.2686  0.9719
  175SAPS  H12R19939   4.620   2.763   3.372  1.4822  0.8459  0.7808
  175SAPS  C21319940   4.518   2.945   3.281  0.1200 -0.0117 -0.3622
  175SAPS  H13R19941   4.407   2.935   3.278 -0.1867  2.3480  0.7804
  175SAPS  H13S19942   4.560   2.997   3.192 -1.5216  0.7691 -0.7243
  175SAPS  C21419943   4.557   3.027   3.401 -0.2065 -0.6487 -0.0825
  175SAPS  H14R19944   4.644   3.091   3.380 -0.4784 -0.0217  0.6299
  175SAPS  C21519945   4.498   3.044   3.520  0.6156 -0.5413  0.0259
  175SAPS  H15R19946   4.522   3.125   3.590 -0.9286 -1.2910  1.4966
  175SAPS  C21619947   4.372   2.973   3.562 -0.1364  0.3038  0.3587
  175SAPS  H16R19948   4.416   2.883   3.611 -0.2392 -0.9058 -1.6499
  175SAPS  H16S19949   4.304   2.942   3.480 -0.2799  1.2417  0.1171
  175SAPS  C21719950   4.278   3.041   3.661 -0.7656  0.8995 -1.0733
  175SAPS  H17R19951   4.182   2.988   3.676 -0.4237  0.7278  0.6822
  175SAPS  H17S19952   4.247   3.133   3.606 -0.4876  1.4145 -0.3886
  175SAPS  C21819953   4.338   3.067   3.802 -0.4199  1.0845  0.1347
  175SAPS  H18R19954   4.435   3.116   3.778 -1.0795  1.5895 -1.7146
  175SAPS  H18S19955   4.374   2.979   3.858 -0.0333  0.2780 -1.3162
  175SAPS  C21919956   4.260   3.167   3.886 -0.1504 -0.3751 -0.7432
  175SAPS  H19R19957   4.173   3.119   3.934 -0.2925  0.0039 -0.6159
  175SAPS  H19S19958   4.207   3.237   3.817  3.2237  1.0205 -2.1915
  175SAPS  C22019959   4.353   3.228   3.995  0.1936 -0.2598  0.5901
  175SAPS  H20R19960   4.313   3.320   4.042  0.4994  0.9944 -1.4745
  175SAPS  H20S19961   4.452   3.251   3.951  0.1562 -0.6997  0.2639
  175SAPS  H20T19962   4.361   3.156   4.079  0.0826 -2.5027 -1.1984
  175SAPS   C3319963   4.944   2.225   2.500  0.0347 -0.2343  0.4472
  175SAPS   H3X19964   4.980   2.137   2.559 -1.8523 -0.6956  0.9681
  175SAPS   H3Y19965   4.845   2.249   2.545  0.6539  2.3911  0.5340
  175SAPS   C3419966   5.048   2.348   2.515 -1.1334  0.9593 -0.9108
  175SAPS   H4X19967   5.011   2.426   2.445 -0.4734  2.8120  0.7021
  175SAPS   H4Y19968   5.151   2.316   2.487 -0.2369  0.7416  2.2162
  175SAPS   C3519969   5.029   2.417   2.654 -0.6311 -0.1257  0.0326
  175SAPS   H5X19970   5.093   2.507   2.647  0.5743 -1.0629 -2.0308
  175SAPS   H5Y19971   5.074   2.367   2.743 -0.9264  1.8991  1.3974
  175SAPS   C3619972   4.884   2.446   2.699 -0.3069  0.1170 -0.4569
  175SAPS   H6X19973   4.851   2.370   2.773 -0.6750  0.5138 -0.2071
  175SAPS   H6Y19974   4.810   2.424   2.619 -1.0607 -0.0558  0.2804
  175SAPS   C3719975   4.872   2.589   2.753 -0.0749 -0.0207 -0.2492
  175SAPS   H7X19976   4.763   2.604   2.772 -0.2691 -0.4417 -0.9872
  175SAPS   H7Y19977   4.901   2.659   2.673  0.2966  1.2302  0.9463
  175SAPS   C3819978   4.951   2.613   2.883 -0.4424  0.6315 -0.1709
  175SAPS   H8X19979   4.941   2.719   2.916 -1.6322 -0.3861  3.0780
  175SAPS   H8Y19980   5.060   2.595   2.868 -0.3604 -0.0091  1.0847
  175SAPS   C3919981   4.902   2.515   2.993  0.2094  0.0489  0.8090
  175SAPS   H9X19982   4.907   2.408   2.965 -2.1464  0.2546 -0.6911
  175SAPS   H9Y19983   4.793   2.533   3.006  0.0533 -1.1630  1.3433
  175SAPS  C31019984   4.980   2.528   3.128  0.1365  1.2084 -0.7096
  175SAPS  H10X19985   4.979   2.628   3.177 -0.1709 -0.1869  2.4016
  175SAPS  H10Y19986   5.089   2.518   3.111 -0.0268  0.9423 -1.6263
  175SAPS  C31119987   4.923   2.419   3.216 -0.0936  0.0962  0.2149
  175SAPS  H11X19988   4.962   2.317   3.193 -0.6446  0.0946 -0.7580
  175SAPS  H11Y19989   4.815   2.413   3.195 -0.2230 -1.3233  1.1158
  175SAPS  C31219990   4.967   2.453   3.356  0.4985 -0.3436 -0.0927
  175SAPS  H12X19991   4.947   2.559   3.381  0.2562 -0.4499  0.1663
  175SAPS  H12Y19992   5.078   2.446   3.365  0.5252 -1.8854 -1.2072
  175SAPS  C31319993   4.919   2.362   3.469 -0.3732  0.3922 -0.5096
  175SAPS  H13X19994   4.961   2.262   3.446 -1.0906  0.3267 -1.6498
  175SAPS  H13Y19995   4.808   2.356   3.465 -0.3796  0.9789 -1.3967
  175SAPS  C31419996   4.960   2.412   3.606  0.3013  0.3615  0.5174
  175SAPS  H14X19997   4.882   2.476   3.651 -0.6014  0.0990 -0.6121
  175SAPS  H14Y19998   5.054   2.471   3.608  0.4167  0.3329 -1.6800
  175SAPS  C31519999   4.991   2.296   3.699 -0.8311  0.0015  0.1828
  175SAPS  H15X20000   5.052   2.214   3.655 -0.9893 -1.4648  2.5264
  175SAPS  H15Y20001   4.891   2.251   3.719 -0.9925  0.8448  1.4077
  175SAPS  C31620002   5.053   2.350   3.833 -0.3005  0.0463  0.3946
  175SAPS  H16X20003   4.984   2.428   3.872 -0.5544  0.6299 -1.1510
  175SAPS  H16Y20004   5.148   2.404   3.812  1.5214 -2.3849  1.9023
  175SAPS  C31720005   5.084   2.257   3.945 -0.3160 -0.3303  0.0359
  175SAPS  H17X20006   5.003   2.184   3.966  0.3312 -0.7335  1.2322
  175SAPS  H17Y20007   5.097   2.319   4.037  3.7479 -2.4510  1.0973
  175SAPS  C31820008   5.221   2.205   3.933  0.0635  0.8176  0.1755
  175SAPS  H18X20009   5.262   2.154   4.022  1.5543  2.4527  0.4780
  175SAPS  H18Y20010   5.292   2.289   3.917  0.1058  0.7079 -0.2272
  175SAPS  H18Z20011   5.223   2.141   3.842 -1.4177 -0.4691  0.9997
  176SAPS     N20012   6.618   0.210   1.231  0.8862  0.2329  0.7232
  176SAPS   HN120013   6.570   0.122   1.203  0.7782  1.0277 -1.9180
  176SAPS   HN220014   6.589   0.269   1.150 -0.5833 -0.2092  0.8982
  176SAPS   HN320015   6.720   0.189   1.225  0.8527  0.4061 -0.8031
  176SAPS   C1220016   6.578   0.263   1.363  1.2337  0.1929  0.5753
  176SAPS  H12A20017   6.658   0.302   1.424  0.4762 -0.4491  2.0373
  176SAPS   C1320018   6.470   0.382   1.352 -0.1008 -0.3347  0.1916
  176SAPS  O13A20019   6.404   0.396   1.247  0.4857  0.2646 -0.1409
  176SAPS  O13B20020   6.415   0.421   1.459  0.1828  0.1239  0.6451
  176SAPS   C1120021   6.523   0.147   1.452  0.4529  1.3344 -0.0540
  176SAPS  H11A20022   6.438   0.107   1.392  0.9824 -0.2730  0.1970
  176SAPS  H11B20023   6.477   0.188   1.544 -0.9699 -0.6493  0.2020
  176SAPS     P20024   6.746   0.070   1.575  0.1379 -0.3721 -0.0381
  176SAPS   O1320025   6.811  -0.063   1.585 -0.0290 -0.2087  0.5566
  176SAPS   O1420026   6.834   0.186   1.544 -0.2419  0.0344  0.0817
  176SAPS   O1220027   6.622   0.055   1.473  0.6297  0.2741 -0.0489
  176SAPS   O1120028   6.681   0.103   1.714  1.0457  0.1064  0.4002
  176SAPS    C120029   6.594  -0.004   1.766 -0.6702 -0.3765 -0.0623
  176SAPS    HA20030   6.495   0.014   1.719 -0.1050  1.2278 -0.7309
  176SAPS    HB20031   6.620  -0.106   1.733 -1.2387 -0.4211 -0.3954
  176SAPS    C220032   6.605  -0.005   1.923  0.2588  0.3302  0.6600
  176SAPS    HS20033   6.560  -0.105   1.945  0.0456 -0.6266 -3.2828
  176SAPS   O2120034   6.524   0.105   1.962 -0.7947  0.0222  0.5541
  176SAPS   C2120035   6.470   0.104   2.077  0.2071 -0.6952  0.8171
  176SAPS   O2220036   6.462   0.007   2.150 -0.1531 -0.8662  0.0250
  176SAPS   C2220037   6.423   0.246   2.108  0.2373  0.1768 -0.6270
  176SAPS   H2R20038   6.446   0.311   2.021 -1.1599  0.1094 -1.0725
  176SAPS   H2S20039   6.315   0.242   2.133  0.4903 -1.9647  0.3231
  176SAPS    C320040   6.750   0.013   1.983 -0.0929  0.0776  0.1066
  176SAPS    HX20041   6.807   0.103   1.952 -2.3262  0.7955 -2.3236
  176SAPS    HY20042   6.814  -0.068   1.940 -0.0746  1.4050 -2.5904
  176SAPS   O3120043   6.751  -0.004   2.126  0.0641 -0.0634  0.1943
  176SAPS   C3120044   6.734  -0.132   2.172 -0.0320  0.5945  0.3918
  176SAPS   O3220045   6.715  -0.228   2.100 -0.3195 -0.0174 -0.2950
  176SAPS   C3220046   6.748  -0.135   2.319  0.5820  0.3912  0.7470
  176SAPS   H2X20047   6.692  -0.054   2.370  1.8044  1.3592  0.6069
  176SAPS   H2Y20048   6.856  -0.110   2.328  0.2808  1.6593  1.0323
  176SAPS   C2320049   6.497   0.331   2.220  0.0978  0.4153  0.4658
  176SAPS   H3R20050   6.485   0.434   2.180 -0.5792  0.7641  1.5072
  176SAPS   H3S20051   6.606   0.314   2.228 -0.0200 -1.8832 -1.6458
  176SAPS   C2420052   6.429   0.318   2.354  0.2015  0.1303 -0.1156
  176SAPS   H4R20053   6.319   0.332   2.341  0.5069  2.5881 -0.6274
  176SAPS   H4S20054   6.466   0.407   2.409 -0.2006 -0.4590  1.1218
  176SAPS   C2520055   6.452   0.185   2.420 -0.6958  0.0076  0.1702
  176SAPS   H5R20056   6.416   0.094   2.368  1.3915 -1.2835  0.8664
  176SAPS   C2620057   6.521   0.171   2.538 -0.1659 -0.0976  0.2705
  176SAPS   H6R20058   6.522   0.073   2.587  0.2196 -0.0211  0.4178
  176SAPS   C2720059   6.583   0.279   2.620  0.1883 -0.0272  0.5426
  176SAPS   H7R20060   6.577   0.380   2.575 -0.2913  0.1931  1.0825
  176SAPS   H7S20061   6.691   0.254   2.624  0.2908  0.3772  0.2745
  176SAPS   C2820062   6.508   0.281   2.760 -0.6262  1.1324  0.2620
  176SAPS   H8R20063   6.406   0.320   2.755 -1.0499 -0.0184 -0.3387
  176SAPS   C2920064   6.556   0.248   2.881  0.1205  0.5207 -0.5421
  176SAPS   H9R20065   6.489   0.261   2.968 -0.1001  0.7864 -0.7510
  176SAPS  C21020066   6.702   0.210   2.912  0.4731 -0.0611  0.2457
  176SAPS  H10R20067   6.735   0.123   2.852  1.2229  0.5284 -0.2052
  176SAPS  H10S20068   6.713   0.168   3.015  0.5619  1.9902  1.1208
  176SAPS  C21120069   6.804   0.321   2.889  0.2519 -0.6383 -0.3119
  176SAPS  H11R20070   6.844   0.322   2.786  0.1012 -1.1723 -0.3819
  176SAPS  C21220071   6.842   0.412   2.974  0.0184  0.4692  0.6331
  176SAPS  H12R20072   6.923   0.479   2.942  0.3028 -0.4037 -0.5725
  176SAPS  C21320073   6.798   0.419   3.116  0.1575 -0.5236 -0.2124
  176SAPS  H13R20074   6.695   0.377   3.122  0.9665 -2.7959 -1.1011
  176SAPS  H13S20075   6.789   0.527   3.143 -0.6226  0.7582 -4.7832
  176SAPS  C21420076   6.887   0.346   3.215  0.1060 -0.4007 -0.2731
  176SAPS  H14R20077   6.995   0.339   3.191  0.8603  3.1538  1.4732
  176SAPS  C21520078   6.840   0.313   3.338  0.4077  0.4968  0.9659
  176SAPS  H15R20079   6.910   0.267   3.409 -0.0467  0.0413  1.1246
  176SAPS  C21620080   6.700   0.332   3.387  0.4012 -0.2518 -0.6427
  176SAPS  H16R20081   6.683   0.251   3.462 -0.1534  0.7917  0.4034
  176SAPS  H16S20082   6.615   0.324   3.316  0.3067  1.8482 -0.8155
  176SAPS  C21720083   6.698   0.462   3.463  0.6624  0.8455  0.4168
  176SAPS  H17R20084   6.590   0.476   3.484  0.6558 -0.6125  1.5663
  176SAPS  H17S20085   6.745   0.547   3.409  0.4089 -0.3603 -1.8294
  176SAPS  C21820086   6.775   0.454   3.598  0.0891 -0.1065 -0.5926
  176SAPS  H18R20087   6.883   0.430   3.590 -0.0485 -0.9113 -0.1513
  176SAPS  H18S20088   6.728   0.374   3.660  4.6430 -0.9747  2.1721
  176SAPS  C21920089   6.765   0.587   3.676  0.6537 -0.1863  0.0764
  176SAPS  H19R20090   6.658   0.607   3.701  0.5254 -0.0375 -0.5710
  176SAPS  H19S20091   6.787   0.670   3.606 -0.6654  0.6081  0.5595
  176SAPS  C22020092   6.846   0.577   3.810  0.0718  0.0133  0.5249
  176SAPS  H20R20093   6.849   0.674   3.863  0.4285  0.5106 -0.3987
  176SAPS  H20S20094   6.954   0.560   3.789 -0.1540 -2.9978  1.2174
  176SAPS  H20T20095   6.812   0.499   3.882 -0.6591 -1.1476 -0.9973
  176SAPS   C3320096   6.713  -0.268   2.385 -0.3122  0.6422 -0.5088
  176SAPS   H3X20097   6.759  -0.351   2.328  1.4215  1.3409 -0.1711
  176SAPS   H3Y20098   6.603  -0.285   2.386 -0.4371  1.4148 -0.1133
  176SAPS   C3420099   6.757  -0.269   2.535  0.7882 -0.3434 -0.5081
  176SAPS   H4X20100   6.851  -0.212   2.552 -1.5414  3.8882 -0.4864
  176SAPS   H4Y20101   6.768  -0.371   2.579  5.1854  0.3643  0.5731
  176SAPS   C3520102   6.650  -0.191   2.624 -0.0950  0.6205  0.4162
  176SAPS   H5X20103   6.546  -0.218   2.592  0.3129 -0.5660  0.0403
  176SAPS   H5Y20104   6.664  -0.081   2.614  1.5473  0.7338  3.0911
  176SAPS   C3620105   6.656  -0.208   2.777  0.4098 -0.2848  0.0022
  176SAPS   H6X20106   6.750  -0.164   2.817  1.0944 -0.4526 -1.3739
  176SAPS   H6Y20107   6.661  -0.318   2.792 -0.1700 -0.1810  1.0540
  176SAPS   C3720108   6.540  -0.152   2.862 -0.0667 -0.2477  0.5053
  176SAPS   H7X20109   6.436  -0.185   2.839 -1.8296  2.8909  3.1477
  176SAPS   H7Y20110   6.535  -0.046   2.829 -3.4651 -0.3881  0.1666
  176SAPS   C3820111   6.563  -0.151   3.011 -0.3494 -1.0972 -0.4222
  176SAPS   H8X20112   6.661  -0.113   3.047 -0.6459 -0.0563 -0.6759
  176SAPS   H8Y20113   6.548  -0.252   3.054  0.8548 -1.2915 -0.4364
  176SAPS   C3920114   6.462  -0.072   3.102 -0.0266  0.7472 -0.0723
  176SAPS   H9X20115   6.359  -0.096   3.069 -0.5491  1.4956  0.9362
  176SAPS   H9Y20116   6.478   0.038   3.094 -1.3726  0.9383 -0.2959
  176SAPS  C31020117   6.475  -0.111   3.256  0.0139 -0.8464 -0.5710
  176SAPS  H10X20118   6.452  -0.219   3.266  1.0836 -1.0712 -0.4262
  176SAPS  H10Y20119   6.404  -0.053   3.319  0.8073  0.3851 -0.7726
  176SAPS  C31120120   6.621  -0.094   3.309 -0.3370  0.6066  0.4378
  176SAPS  H11X20121   6.663   0.004   3.279  2.1867 -0.7918 -0.9526
  176SAPS  H11Y20122   6.684  -0.173   3.263 -1.5588  0.6282 -1.3951
  176SAPS  C31220123   6.620  -0.127   3.456  0.3205 -0.9198 -0.4629
  176SAPS  H12X20124   6.571  -0.227   3.460 -1.7321 -0.0666 -2.0410
  176SAPS  H12Y20125   6.561  -0.054   3.515 -1.8047 -1.0425 -2.3011
  176SAPS  C31320126   6.760  -0.141   3.513 -0.1186  0.8908  0.5107
  176SAPS  H13X20127   6.826  -0.057   3.484  0.5310  0.2162  0.0155
  176SAPS  H13Y20128   6.812  -0.222   3.458 -0.0144  0.4051  1.3112
  176SAPS  C31420129   6.765  -0.182   3.658 -0.3486  0.0376  0.4991
  176SAPS  H14X20130   6.696  -0.268   3.672  0.0419 -0.3796 -0.0944
  176SAPS  H14Y20131   6.730  -0.097   3.721  0.8947 -0.0618  1.3778
  176SAPS  C31520132   6.907  -0.214   3.708 -0.5644 -0.2940 -1.0933
  176SAPS  H15X20133   6.918  -0.210   3.818  1.4521 -1.9995 -1.1781
  176SAPS  H15Y20134   6.989  -0.144   3.680  1.1305 -1.2442  1.2533
  176SAPS  C31620135   6.948  -0.354   3.670 -0.7010 -0.1254 -0.1448
  176SAPS  H16X20136   6.962  -0.354   3.560  1.4387  2.2735  0.0088
  176SAPS  H16Y20137   6.875  -0.432   3.699  1.3660 -2.5209 -1.0259
  176SAPS  C31720138   7.085  -0.399   3.732  0.3511 -0.5769 -0.1469
  176SAPS  H17X20139   7.153  -0.311   3.745  1.5044 -1.5924  0.8817
  176SAPS  H17Y20140   7.134  -0.470   3.662 -0.3120 -1.3078  0.1242
  176SAPS  C31820141   7.076  -0.466   3.864 -0.5269 -0.0782  0.0852
  176SAPS  H18X20142   7.026  -0.395   3.933  0.8952  0.5318  0.5144
  176SAPS  H18Y20143   7.182  -0.476   3.897 -0.4106 -1.0243 -0.5366
  176SAPS  H18Z20144   7.028  -0.566   3.863 -3.3719  1.1840 -1.7315
  177SAPS     N20145   6.444   3.886   1.412  0.2578  0.0222 -0.1978
  177SAPS   HN120146   6.429   3.799   1.466  1.0862  0.7821  1.3172
  177SAPS   HN220147   6.371   3.953   1.445  0.5864 -0.8182  2.4608
  177SAPS   HN320148   6.432   3.870   1.310  0.3179 -0.5490 -0.1180
  177SAPS   C1220149   6.575   3.949   1.452 -0.1629  0.0983 -0.2107
  177SAPS  H12A20150   6.647   3.876   1.418  0.0357  1.2899 -2.5832
  177SAPS   C1320151   6.602   4.084   1.381 -0.4375  0.1661  0.4446
  177SAPS  O13A20152   6.515   4.144   1.312  0.1112  0.5800 -0.3210
  177SAPS  O13B20153   6.710   4.143   1.411  0.6500  0.4012  0.1651
  177SAPS   C1120154   6.571   3.984   1.605  0.3034  0.2723  0.4655
  177SAPS  H11A20155   6.502   4.069   1.620 -1.5205 -0.3263 -3.3549
  177SAPS  H11B20156   6.676   3.996   1.641  2.3059 -4.8466 -2.4826
  177SAPS     P20157   6.397   3.856   1.776  0.1037  0.2131 -0.3032
  177SAPS   O1320158   6.279   3.910   1.701  0.1118  0.1160  0.3160
  177SAPS   O1420159   6.398   3.709   1.817  0.1986  0.0772  0.5100
  177SAPS   O1220160   6.527   3.869   1.680  0.0281  0.0666 -0.1446
  177SAPS   O1120161   6.430   3.958   1.897 -0.0130 -0.1083  0.3327
  177SAPS    C120162   6.540   3.925   1.986 -0.3483 -0.2980  0.2891
  177SAPS    HA20163   6.603   3.840   1.951  3.1054  2.5755 -1.0157
  177SAPS    HB20164   6.601   4.017   1.999  1.6366 -1.4962 -0.1178
  177SAPS    C220165   6.484   3.875   2.122 -0.1946  0.4903 -0.0735
  177SAPS    HS20166   6.422   3.785   2.105  1.5469 -0.3400 -2.6512
  177SAPS   O2120167   6.421   3.984   2.187 -0.0254  0.3043  0.1786
  177SAPS   C2120168   6.322   3.956   2.253 -0.9106 -0.3155 -0.5476
  177SAPS   O2220169   6.259   3.847   2.252 -0.4281  0.1460 -0.4273
  177SAPS   C2220170   6.275   4.080   2.340 -0.4497 -0.0187  0.2383
  177SAPS   H2R20171   6.342   4.112   2.423 -0.2154 -0.7410  0.3302
  177SAPS   H2S20172   6.267   4.167   2.271 -1.7180  1.6490  2.3434
  177SAPS    C320173   6.599   3.825   2.217 -0.2539  0.0666  0.4014
  177SAPS    HX20174   6.673   3.906   2.238 -0.8287  1.4110 -2.2519
  177SAPS    HY20175   6.650   3.744   2.161  0.7312  0.4494  0.7093
  177SAPS   O3120176   6.556   3.761   2.335 -0.2568 -0.1295  0.4138
  177SAPS   C3120177   6.556   3.828   2.449 -0.4309  0.4220  0.6849
  177SAPS   O3220178   6.576   3.948   2.463  0.3726 -0.0843  0.5436
  177SAPS   C3220179   6.494   3.736   2.551  0.2386 -0.3981  1.0231
  177SAPS   H2X20180   6.564   3.649   2.556  0.0466 -0.9854 -3.0085
  177SAPS   H2Y20181   6.403   3.692   2.504  0.7788 -0.2283 -0.2255
  177SAPS   C2320182   6.143   4.047   2.405 -1.1265  0.7546  0.0508
  177SAPS   H3R20183   6.152   3.971   2.485  0.9053 -0.4893 -1.2661
  177SAPS   H3S20184   6.071   3.992   2.342  0.4821 -1.6289  0.1947
  177SAPS   C2420185   6.083   4.165   2.467 -0.1469 -0.7115 -0.1844
  177SAPS   H4R20186   6.113   4.242   2.393  0.0392 -1.4847 -0.9285
  177SAPS   H4S20187   6.141   4.179   2.560 -0.8421 -1.3516  0.3611
  177SAPS   C2520188   5.938   4.185   2.499  0.3944  0.3407  0.1862
  177SAPS   H5R20189   5.877   4.196   2.408 -0.4353 -1.4863  0.4664
  177SAPS   C2620190   5.883   4.142   2.612  0.6297  0.2248  0.2171
  177SAPS   H6R20191   5.774   4.130   2.611  0.7266 -0.8742  0.9792
  177SAPS   C2720192   5.962   4.101   2.730  0.1607 -0.4901  0.2645
  177SAPS   H7R20193   6.001   4.184   2.792  1.1141 -0.3203 -0.5456
  177SAPS   H7S20194   6.050   4.043   2.695 -0.9464 -3.3097  1.8367
  177SAPS   C2820195   5.884   4.020   2.826 -0.0388 -0.1319  0.2877
  177SAPS   H8R20196   5.879   3.915   2.791 -1.6100  0.0240 -0.0765
  177SAPS   C2920197   5.839   4.053   2.949 -0.5022  0.5822  0.0440
  177SAPS   H9R20198   5.783   3.975   3.003  0.9215 -0.4012  0.1549
  177SAPS  C21020199   5.849   4.191   3.016  0.2503 -0.1661 -0.3755
  177SAPS  H10R20200   5.868   4.275   2.945 -0.4078 -0.8814 -1.4388
  177SAPS  H10S20201   5.947   4.186   3.069  0.0831  0.8790  0.0593
  177SAPS  C21120202   5.735   4.223   3.107 -0.4870 -0.3029 -0.7736
  177SAPS  H11R20203   5.657   4.276   3.050 -1.0721 -2.5093 -2.1649
  177SAPS  C21220204   5.730   4.203   3.242 -0.3308 -0.0517  0.3906
  177SAPS  H12R20205   5.634   4.222   3.291 -2.0814 -1.4961 -2.2599
  177SAPS  C21320206   5.837   4.141   3.323 -0.4575 -0.2923 -0.1378
  177SAPS  H13R20207   5.902   4.229   3.339 -2.4885  0.6725  4.1833
  177SAPS  H13S20208   5.896   4.063   3.270 -0.0980 -0.4479  0.4858
  177SAPS  C21420209   5.790   4.085   3.450  0.0325 -0.3203  0.1788
  177SAPS  H14R20210   5.753   3.982   3.444 -2.4769  0.2640  3.0126
  177SAPS  C21520211   5.817   4.131   3.574 -0.3088  1.0301 -0.1706
  177SAPS  H15R20212   5.781   4.071   3.659  2.0490 -0.6494 -0.2394
  177SAPS  C21620213   5.863   4.267   3.607  0.3404 -0.3323  0.1145
  177SAPS  H16R20214   5.891   4.325   3.516  0.3578 -0.6862 -0.1075
  177SAPS  H16S20215   5.952   4.266   3.673  0.5138 -2.6392 -0.1038
  177SAPS  C21720216   5.755   4.338   3.692 -0.2249  0.1027  0.1877
  177SAPS  H17R20217   5.744   4.279   3.786 -3.8107 -0.0479 -0.1786
  177SAPS  H17S20218   5.657   4.337   3.639 -0.1027 -2.3567 -0.1156
  177SAPS  C21820219   5.792   4.484   3.728 -0.4888  0.0522 -0.4412
  177SAPS  H18R20220   5.844   4.537   3.647 -1.5314  0.4572 -0.8641
  177SAPS  H18S20221   5.842   4.490   3.827 -1.2029  2.4216 -0.1606
  177SAPS  C21920222   5.675   4.574   3.760 -0.1739  0.3164  0.6495
  177SAPS  H19R20223   5.717   4.671   3.795  3.7642  0.2644 -3.0599
  177SAPS  H19S20224   5.612   4.523   3.836  1.2716 -2.0011  0.3829
  177SAPS  C22020225   5.592   4.607   3.636  0.3632  0.2302 -0.2243
  177SAPS  H20R20226   5.625   4.697   3.579 -0.7602  0.3298 -0.7360
  177SAPS  H20S20227   5.486   4.626   3.664  1.0165 -0.5833  3.3237
  177SAPS  H20T20228   5.576   4.522   3.567 -0.5413 -0.8025  1.2019
  177SAPS   C3320229   6.457   3.799   2.692  0.9297  0.1194 -0.1788
  177SAPS   H3X20230   6.545   3.789   2.759  0.0259 -0.0893  1.0176
  177SAPS   H3Y20231   6.384   3.734   2.744  1.1189  0.4858  0.5515
  177SAPS   C3420232   6.383   3.934   2.696  0.2827 -0.1043 -0.3207
  177SAPS   H4X20233   6.281   3.916   2.655 -0.6946 -1.9416  2.6367
  177SAPS   H4Y20234   6.432   4.013   2.634 -1.7005  2.0216  0.6617
  177SAPS   C3520235   6.371   3.995   2.833  1.2535  0.3251  0.4455
  177SAPS   H5X20236   6.305   4.083   2.819  1.0405  0.2600  1.0187
  177SAPS   H5Y20237   6.466   4.045   2.862 -0.6800  3.3668  2.0963
  177SAPS   C3620238   6.329   3.905   2.950  0.1457  0.5585  0.2234
  177SAPS   H6X20239   6.398   3.819   2.939 -0.3062  0.4147 -2.0588
  177SAPS   H6Y20240   6.232   3.859   2.920  0.5497  0.7075 -1.4222
  177SAPS   C3720241   6.324   3.959   3.095 -0.2167  0.8208  0.5053
  177SAPS   H7X20242   6.426   3.991   3.127  0.2606  0.0149 -0.1579
  177SAPS   H7Y20243   6.290   3.886   3.172  1.8897  0.4214  1.1351
  177SAPS   C3820244   6.240   4.089   3.097 -0.7973  0.1862 -0.4867
  177SAPS   H8X20245   6.154   4.086   3.027 -1.1483 -0.8060 -0.0330
  177SAPS   H8Y20246   6.295   4.177   3.059  1.5092 -1.7041 -1.7937
  177SAPS   C3920247   6.177   4.113   3.233  0.2759 -0.1226  0.2494
  177SAPS   H9X20248   6.108   4.028   3.247  0.4851 -0.3492 -0.0810
  177SAPS   H9Y20249   6.121   4.209   3.228 -0.4373 -0.4472  1.4683
  177SAPS  C31020250   6.270   4.106   3.356  0.2356 -0.0517 -0.3927
  177SAPS  H10X20251   6.309   4.209   3.371 -1.2389  0.1618  2.5757
  177SAPS  H10Y20252   6.347   4.031   3.328  1.9706  2.1348 -1.8455
  177SAPS  C31120253   6.210   4.086   3.495  0.7168  0.4204  0.2697
  177SAPS  H11X20254   6.138   4.002   3.484 -0.2878  1.3123 -0.1535
  177SAPS  H11Y20255   6.154   4.175   3.530 -0.2937 -0.4341  0.9168
  177SAPS  C31220256   6.318   4.044   3.593  0.1414 -0.5784  0.5054
  177SAPS  H12X20257   6.380   4.131   3.623 -0.3394 -0.9237  2.7447
  177SAPS  H12Y20258   6.377   3.967   3.540  1.1222  0.9320 -0.6790
  177SAPS  C31320259   6.275   3.973   3.725 -0.3558 -0.7376  0.2021
  177SAPS  H13X20260   6.366   3.921   3.762 -0.6027 -0.8763  0.6169
  177SAPS  H13Y20261   6.196   3.899   3.701  0.3430 -1.3530 -0.2657
  177SAPS  C31420262   6.207   4.066   3.822 -0.3497  0.0393  0.1838
  177SAPS  H14X20263   6.136   4.005   3.882  0.0416  2.1236  2.9265
  177SAPS  H14Y20264   6.142   4.128   3.757 -0.2317 -0.4088 -0.3719
  177SAPS  C31520265   6.308   4.138   3.920 -0.4914  0.0799 -0.1952
  177SAPS  H15X20266   6.395   4.177   3.863 -0.4597 -0.1015 -0.2717
  177SAPS  H15Y20267   6.350   4.058   3.985 -0.7878  0.7837  0.8804
  177SAPS  C31620268   6.241   4.250   4.000  0.7071  0.6629  0.4087
  177SAPS  H16X20269   6.168   4.203   4.070 -0.8071  1.7823 -0.3456
  177SAPS  H16Y20270   6.187   4.314   3.927  1.0670 -1.7528 -2.1404
  177SAPS  C31720271   6.343   4.340   4.067  0.1126  0.2565  0.6309
  177SAPS  H17X20272   6.393   4.391   3.982 -0.9678  1.3046  0.5997
  177SAPS  H17Y20273   6.410   4.286   4.137 -1.7474 -0.9752  1.5323
  177SAPS  C31820274   6.265   4.456   4.135  0.5703 -0.8709  0.1561
  177SAPS  H18X20275   6.220   4.424   4.232  0.6860  0.7289  0.7690
  177SAPS  H18Y20276   6.193   4.495   4.060 -0.5001  0.2575  1.6997
  177SAPS  H18Z20277   6.339   4.538   4.149  1.8152 -1.8805 -0.3595
  178SAPS     N20278   4.662   4.581   2.000  0.2291  0.0414 -0.5097
  178SAPS   HN120279   4.680   4.674   2.043  1.4213 -0.4771  0.1497
  178SAPS   HN220280   4.708   4.514   2.065 -1.5936 -0.1839  0.6350
  178SAPS   HN320281   4.700   4.581   1.904 -1.7664 -1.1396 -1.3528
  178SAPS   C1220282   4.515   4.547   1.991 -0.1025 -0.0614 -0.3840
  178SAPS  H12A20283   4.464   4.604   1.915 -2.4732  1.0372  1.8731
  178SAPS   C1320284   4.489   4.400   1.949 -0.1014  0.5000  0.1534
  178SAPS  O13A20285   4.580   4.315   1.929 -0.2781 -0.5465  0.5365
  178SAPS  O13B20286   4.368   4.365   1.927  0.0053 -0.3243  0.9402
  178SAPS   C1120287   4.448   4.560   2.139 -0.2657 -0.1317 -0.0270
  178SAPS  H11A20288   4.504   4.499   2.213  1.3837 -0.0779 -1.1648
  178SAPS  H11B20289   4.342   4.530   2.124 -0.0126 -0.0246 -2.4657
  178SAPS     P20290   4.418   4.743   2.326  0.0369 -0.2922 -0.0395
  178SAPS   O1320291   4.450   4.884   2.340 -0.0953 -0.3186 -0.5874
  178SAPS   O1420292   4.280   4.696   2.358  0.3985 -0.0025 -0.0185
  178SAPS   O1220293   4.443   4.699   2.178 -0.7214 -0.2267 -0.0852
  178SAPS   O1120294   4.515   4.646   2.407  0.1126  0.4116  0.1267
  178SAPS    C120295   4.653   4.665   2.435 -0.3517  0.7245 -0.2451
  178SAPS    HA20296   4.706   4.572   2.403 -1.2589 -0.8017  2.3396
  178SAPS    HB20297   4.695   4.747   2.374 -1.9986 -0.5105 -3.3007
  178SAPS    C220298   4.672   4.693   2.590  0.3568 -0.4533  0.2059
  178SAPS    HS20299   4.782   4.700   2.605  0.5706  0.8574 -1.6536
  178SAPS   O2120300   4.603   4.604   2.672 -0.0920 -0.2917 -0.1393
  178SAPS   C2120301   4.671   4.500   2.698  0.0850  0.4430  0.3081
  178SAPS   O2220302   4.785   4.471   2.670 -0.3238  0.3710 -0.4782
  178SAPS   C2220303   4.581   4.395   2.770  0.2668  0.6555  0.9466
  178SAPS   H2R20304   4.485   4.437   2.806 -0.6135 -0.9226  0.5422
  178SAPS   H2S20305   4.573   4.317   2.691  0.7613  0.9265  0.6246
  178SAPS    C320306   4.617   4.840   2.630 -0.8709  0.3778 -0.5739
  178SAPS    HX20307   4.507   4.846   2.628 -0.9870 -0.1208  1.7818
  178SAPS    HY20308   4.671   4.919   2.573  0.5770 -0.0411  0.1683
  178SAPS   O3120309   4.649   4.870   2.769 -0.0968  0.0913 -0.3277
  178SAPS   C3120310   4.770   4.919   2.798  0.0212  0.1280  0.4632
  178SAPS   O3220311   4.857   4.931   2.716 -0.4424 -0.4026  0.0629
  178SAPS   C3220312   4.775   4.947   2.947  0.8669  0.7979 -0.3368
  178SAPS   H2X20313   4.699   4.889   3.004  1.3334  0.9265  0.4287
  178SAPS   H2Y20314   4.750   5.055   2.947  0.0605  0.6235 -1.3998
  178SAPS   C2320315   4.655   4.321   2.882  0.0499 -0.6006  0.1283
  178SAPS   H3R20316   4.656   4.385   2.972  1.7094 -0.1936 -0.1418
  178SAPS   H3S20317   4.762   4.312   2.853  0.6812  3.2182  0.7249
  178SAPS   C2420318   4.604   4.181   2.918 -0.0253 -0.0120  0.2296
  178SAPS   H4R20319   4.687   4.123   2.964 -0.1324 -0.8823 -0.6308
  178SAPS   H4S20320   4.594   4.127   2.821  0.5529  2.6580 -1.4074
  178SAPS   C2520321   4.476   4.163   2.998 -0.5992  0.3179  1.2145
  178SAPS   H5R20322   4.393   4.111   2.948  0.2808 -2.8022  2.7772
  178SAPS   C2620323   4.456   4.195   3.124 -0.0959 -0.3597  0.5292
  178SAPS   H6R20324   4.357   4.174   3.166 -0.3105 -0.9641 -0.2530
  178SAPS   C2720325   4.550   4.264   3.223 -0.4083  0.3678  0.6549
  178SAPS   H7R20326   4.502   4.346   3.280 -0.1242  1.3384 -0.4671
  178SAPS   H7S20327   4.632   4.311   3.164 -1.7001  1.0436 -0.6567
  178SAPS   C2820328   4.617   4.160   3.308 -0.2316 -0.0974 -0.4138
  178SAPS   H8R20329   4.677   4.084   3.255  0.4745  1.8047 -2.5341
  178SAPS   C2920330   4.607   4.150   3.445  0.1487  0.3894 -0.4554
  178SAPS   H9R20331   4.667   4.070   3.489  1.1302  0.4045 -1.7063
  178SAPS  C21020332   4.537   4.240   3.546 -0.1498  0.2200 -0.2928
  178SAPS  H10R20333   4.444   4.191   3.580 -0.1050 -0.1406 -0.6772
  178SAPS  H10S20334   4.502   4.337   3.503 -0.0529  0.1010 -0.6446
  178SAPS  C21120335   4.628   4.252   3.668  0.0639  0.1836 -0.8720
  178SAPS  H11R20336   4.728   4.205   3.668 -1.2704 -3.3960  3.4467
  178SAPS  C21220337   4.588   4.296   3.783 -0.5347  0.1569 -0.0122
  178SAPS  H12R20338   4.662   4.322   3.859 -0.6756  0.5273  0.0029
  178SAPS  C21320339   4.459   4.350   3.816 -0.0907  0.7368  0.0928
  178SAPS  H13R20340   4.382   4.308   3.748  0.5971 -0.5929  0.0983
  178SAPS  H13S20341   4.463   4.455   3.779  0.9594  0.9652  0.8165
  178SAPS  C21420342   4.420   4.342   3.971 -1.0490 -0.2874  0.2555
  178SAPS  H14R20343   4.406   4.240   4.008 -0.1845 -0.1265  1.0697
  178SAPS  C21520344   4.391   4.448   4.055  0.2112  0.1577  0.4880
  178SAPS  H15R20345   4.359   4.421   4.156  1.0744 -1.4973  0.3591
  178SAPS  C21620346   4.400   4.595   4.018 -0.7956  0.0311 -0.1461
  178SAPS  H16R20347   4.320   4.623   3.947 -0.1959  0.2177 -0.7626
  178SAPS  H16S20348   4.504   4.614   3.984  0.0509 -1.6893  1.3219
  178SAPS  C21720349   4.382   4.682   4.144  0.7866  0.6064  0.0906
  178SAPS  H17R20350   4.290   4.652   4.198  0.5923  1.8429  0.4802
  178SAPS  H17S20351   4.371   4.788   4.111 -1.7597  0.2209 -0.5170
  178SAPS  C21820352   4.501   4.669   4.237 -0.0096 -0.2728  0.4748
  178SAPS  H18R20353   4.581   4.720   4.179 -0.3449 -2.2757 -1.9415
  178SAPS  H18S20354   4.534   4.567   4.267  2.1308  0.5043  0.8982
  178SAPS  C21920355   4.472   4.755   4.361  0.1307  0.5337 -0.0763
  178SAPS  H19R20356   4.391   4.698   4.413 -1.4851  0.8242 -2.1254
  178SAPS  H19S20357   4.427   4.850   4.327  0.7299  1.0697  0.6016
  178SAPS  C22020358   4.598   4.773   4.446 -0.3639 -0.0853 -0.2563
  178SAPS  H20R20359   4.669   4.849   4.407 -1.9207  1.8133  0.4153
  178SAPS  H20S20360   4.658   4.680   4.458 -0.8016 -0.0731  3.1671
  178SAPS  H20T20361   4.568   4.812   4.546 -0.3706  3.5735 -1.5546
  178SAPS   C3320362   4.912   4.930   3.008  0.4150  0.6507 -0.9828
  178SAPS   H3X20363   4.925   4.988   3.101  0.6602  0.1867 -0.7218
  178SAPS   H3Y20364   4.988   4.972   2.938 -0.8792 -0.5381 -3.2548
  178SAPS   C3420365   4.955   4.792   3.045  0.0792  0.5167  0.3460
  178SAPS   H4X20366   5.046   4.785   3.108  1.3950 -0.4522 -1.5686
  178SAPS   H4Y20367   4.973   4.730   2.955 -3.4514  0.1215 -0.2491
  178SAPS   C3520368   4.853   4.707   3.128 -0.2661  0.0555  0.2396
  178SAPS   H5X20369   4.761   4.678   3.072  0.7601 -2.3094 -0.3342
  178SAPS   H5Y20370   4.813   4.770   3.210 -0.9852  0.6962 -0.5692
  178SAPS   C3620371   4.898   4.569   3.161  0.0160  0.1970 -0.4132
  178SAPS   H6X20372   5.008   4.577   3.172  0.4323 -2.2983 -1.9023
  178SAPS   H6Y20373   4.864   4.490   3.090  0.8053 -1.4709  0.9718
  178SAPS   C3720374   4.843   4.516   3.295 -0.2673 -0.7729 -1.2283
  178SAPS   H7X20375   4.864   4.409   3.319 -0.0739 -0.7167 -1.1421
  178SAPS   H7Y20376   4.735   4.535   3.280  0.0479  0.0240 -2.5871
  178SAPS   C3820377   4.906   4.599   3.412 -0.1571 -0.0342  0.2981
  178SAPS   H8X20378   4.855   4.697   3.408 -3.3300 -1.5494  0.3451
  178SAPS   H8Y20379   5.014   4.620   3.397  0.1524 -1.9294 -0.5246
  178SAPS   C3920380   4.885   4.524   3.543  0.3150  0.2095  0.2754
  178SAPS   H9X20381   4.939   4.427   3.538  1.6211  0.8868  0.6221
  178SAPS   H9Y20382   4.775   4.509   3.542  0.3833 -0.3091 -0.4403
  178SAPS  C31020383   4.928   4.599   3.664 -0.2808  0.1841  0.2655
  178SAPS  H10X20384   4.874   4.696   3.661 -0.8479 -0.1146 -2.5990
  178SAPS  H10Y20385   5.035   4.625   3.676 -0.8439  2.8499  0.1855
  178SAPS  C31120386   4.881   4.523   3.799  0.1164  0.8135 -0.2925
  178SAPS  H11X20387   4.939   4.428   3.806 -2.1723 -0.5646  0.8982
  178SAPS  H11Y20388   4.777   4.490   3.782  0.0687  1.1426 -0.6621
  178SAPS  C31220389   4.912   4.613   3.922  0.0297 -0.3921 -0.4218
  178SAPS  H12X20390   5.013   4.656   3.909 -0.9696  2.5985  0.8769
  178SAPS  H12Y20391   4.905   4.557   4.017 -0.7767  0.2422 -0.0951
  178SAPS  C31320392   4.814   4.735   3.933 -0.4313 -0.3959  0.6129
  178SAPS  H13X20393   4.711   4.694   3.935 -1.0898  1.0540 -0.7778
  178SAPS  H13Y20394   4.831   4.804   3.847 -0.0186 -2.8926 -1.4029
  178SAPS  C31420395   4.827   4.819   4.061 -0.3037 -0.3527 -0.9006
  178SAPS  H14X20396   4.785   4.777   4.154 -1.4909  2.6012  0.0058
  178SAPS  H14Y20397   4.754   4.900   4.043  0.0935 -0.5690 -4.2610
  178SAPS  C31520398   4.961   4.880   4.105  0.1603 -0.0107  0.3008
  178SAPS  H15X20399   5.027   4.916   4.024  0.4833 -1.4161 -0.0699
  178SAPS  H15Y20400   5.013   4.793   4.150  0.4828  0.9559  1.8813
  178SAPS  C31620401   4.937   4.996   4.199  0.1300  0.3157  1.2197
  178SAPS  H16X20402   4.849   4.962   4.256 -0.3458  1.4035  1.1601
  178SAPS  H16Y20403   4.909   5.087   4.141  0.4933  1.2836  2.5202
  178SAPS  C31720404   5.051   5.029   4.298  0.5241 -0.8468 -0.4195
  178SAPS  H17X20405   5.131   5.067   4.232 -0.4941  1.9070 -0.1934
  178SAPS  H17Y20406   5.080   4.938   4.354  0.2311  0.1579  1.4516
  178SAPS  C31820407   5.002   5.140   4.392 -0.0246  0.1651 -0.0248
  178SAPS  H18X20408   4.957   5.220   4.330 -1.5624 -0.3213  0.4208
  178SAPS  H18Y20409   5.083   5.187   4.452  0.9321 -2.2096  0.6718
  178SAPS  H18Z20410   4.929   5.086   4.457  1.1184  2.1747  3.1727
  179SAPS     N20411   0.509   3.147   1.922 -0.4403  0.6809  0.5687
  179SAPS   HN120412   0.555   3.054   1.928  2.0412  1.6520 -1.5259
  179SAPS   HN220413   0.501   3.172   1.822 -2.0874 -0.9666  0.2444
  179SAPS   HN320414   0.577   3.209   1.971 -1.2476  1.6879  0.4295
  179SAPS   C1220415   0.381   3.150   1.992 -0.1015  0.0152 -0.1713
  179SAPS  H12A20416   0.340   3.250   1.990 -2.2780 -0.8047  1.3054
  179SAPS   C1320417   0.282   3.050   1.926  0.1834  0.7674 -0.5075
  179SAPS  O13A20418   0.313   2.985   1.827 -0.1570  0.4184  1.0463
  179SAPS  O13B20419   0.170   3.029   1.986 -0.3910  0.2620  0.0919
  179SAPS   C1120420   0.412   3.113   2.144  0.6422 -0.8335  0.7127
  179SAPS  H11A20421   0.455   3.010   2.143 -0.2011 -1.2063 -0.4216
  179SAPS  H11B20422   0.311   3.100   2.188  0.0536 -0.6401 -0.5137
  179SAPS     P20423   0.463   3.325   2.283 -0.4057 -0.1469  0.2418
  179SAPS   O1320424   0.585   3.396   2.325 -0.4537  0.1523  0.3642
  179SAPS   O1420425   0.377   3.399   2.187 -0.2545  0.0324 -0.2348
  179SAPS   O1220426   0.502   3.193   2.217 -0.3095 -0.4620 -0.3944
  179SAPS   O1120427   0.372   3.279   2.401  0.3170  0.4245 -0.4020
  179SAPS    C120428   0.313   3.361   2.499 -0.0543 -0.1567  0.9149
  179SAPS    HA20429   0.305   3.463   2.455  0.3588 -1.1798 -1.6657
  179SAPS    HB20430   0.207   3.331   2.514 -0.5648  0.0939 -1.7074
  179SAPS    C220431   0.388   3.368   2.633 -0.3711  0.2960  0.4865
  179SAPS    HS20432   0.319   3.425   2.699 -2.0936  0.0505 -1.0167
  179SAPS   O2120433   0.528   3.417   2.622  0.2896 -0.1947  0.1775
  179SAPS   C2120434   0.540   3.544   2.651  0.1723 -0.1021  0.0736
  179SAPS   O2220435   0.449   3.622   2.648  0.4951 -0.2496  0.3915
  179SAPS   C2220436   0.681   3.564   2.712  0.6405  0.4170 -0.1765
  179SAPS   H2R20437   0.677   3.494   2.798 -3.1849  0.2191 -0.3221
  179SAPS   H2S20438   0.756   3.523   2.641 -1.2031 -1.5131 -1.1455
  179SAPS    C320439   0.395   3.226   2.693  0.2556 -0.8808 -0.2431
  179SAPS    HX20440   0.452   3.155   2.629 -0.2173 -1.6605  0.1800
  179SAPS    HY20441   0.288   3.196   2.695 -0.0103  0.0858  1.0201
  179SAPS   O3120442   0.449   3.237   2.828 -0.5905 -0.5623  0.2785
  179SAPS   C3120443   0.408   3.160   2.921  0.0737 -0.3064  0.5289
  179SAPS   O3220444   0.310   3.089   2.924 -0.1702  0.7598  0.2827
  179SAPS   C3220445   0.506   3.179   3.032 -0.2706 -0.3513  0.6427
  179SAPS   H2X20446   0.540   3.284   3.042 -0.7039  0.2975 -3.1858
  179SAPS   H2Y20447   0.589   3.108   3.011 -0.3459 -0.5532  1.0111
  179SAPS   C2320448   0.702   3.707   2.761  0.1433  0.8121 -0.0609
  179SAPS   H3R20449   0.626   3.718   2.841  0.0710  1.2213 -0.1797
  179SAPS   H3S20450   0.695   3.784   2.681  2.9569  0.9672 -0.2705
  179SAPS   C2420451   0.841   3.728   2.824  0.6625 -0.3895 -0.0165
  179SAPS   H4R20452   0.860   3.661   2.910  2.0775  1.3747  1.1317
  179SAPS   H4S20453   0.825   3.833   2.856  0.5533 -0.5337  0.4082
  179SAPS   C2520454   0.954   3.723   2.724 -0.1351  0.2353  0.1316
  179SAPS   H5R20455   0.962   3.630   2.666 -0.5401  0.5942 -0.5160
  179SAPS   C2620456   1.049   3.815   2.697  0.2605 -0.0727 -0.1509
  179SAPS   H6R20457   1.131   3.786   2.629  1.0838  1.0327  0.3189
  179SAPS   C2720458   1.062   3.961   2.745 -0.7209  0.1225  0.4857
  179SAPS   H7R20459   0.974   3.968   2.812 -0.2623 -0.7338  1.2050
  179SAPS   H7S20460   1.045   4.030   2.660 -1.2906 -0.3383  0.2228
  179SAPS   C2820461   1.194   3.989   2.813 -0.4812  0.2963 -0.7156
  179SAPS   H8R20462   1.276   4.030   2.753  2.4358 -0.9681  2.0649
  179SAPS   C2920463   1.219   3.994   2.946  0.2975 -1.0270 -0.7067
  179SAPS   H9R20464   1.321   4.015   2.982 -0.4640  0.6194  0.6601
  179SAPS  C21020465   1.123   3.967   3.058 -0.3791 -0.4196 -0.8597
  179SAPS  H10R20466   1.018   3.964   3.021  0.1577 -2.0029 -2.3592
  179SAPS  H10S20467   1.127   4.049   3.133  3.1421 -0.9924 -0.2548
  179SAPS  C21120468   1.156   3.837   3.118 -0.3589 -0.2821 -0.9927
  179SAPS  H11R20469   1.140   3.745   3.059 -1.3384 -0.7694 -0.0088
  179SAPS  C21220470   1.169   3.826   3.253  0.6248  0.1119  0.4123
  179SAPS  H12R20471   1.173   3.720   3.283  1.5647 -0.0123 -0.1138
  179SAPS  C21320472   1.184   3.937   3.367  0.0853  0.2751 -0.4377
  179SAPS  H13R20473   1.103   3.931   3.443  0.0312  0.8675 -0.4405
  179SAPS  H13S20474   1.184   4.039   3.322  0.9465  0.5624  0.1841
  179SAPS  C21420475   1.312   3.922   3.438  0.0720  0.3852  0.0730
  179SAPS  H14R20476   1.392   3.863   3.390 -1.2462 -0.5758 -1.0203
  179SAPS  C21520477   1.332   3.968   3.562 -0.1027 -0.7400 -0.2770
  179SAPS  H15R20478   1.430   3.954   3.610 -0.6654 -0.3881  1.0345
  179SAPS  C21620479   1.233   4.041   3.650  0.5227 -0.0869  0.1725
  179SAPS  H16R20480   1.163   3.973   3.702 -2.1695  0.6255 -2.2770
  179SAPS  H16S20481   1.171   4.118   3.601 -1.1366 -0.3412  1.7645
  179SAPS  C21720482   1.299   4.127   3.767 -0.1477  0.2997  0.7586
  179SAPS  H17R20483   1.215   4.174   3.822  0.4237  0.9973  1.0506
  179SAPS  H17S20484   1.368   4.210   3.740  0.6886 -0.9053 -1.0695
  179SAPS  C21820485   1.360   4.042   3.871 -0.7086 -0.7233  0.2265
  179SAPS  H18R20486   1.431   3.968   3.829 -1.7102 -1.4115 -0.3094
  179SAPS  H18S20487   1.286   3.984   3.930 -0.5720  0.6010  1.7658
  179SAPS  C21920488   1.428   4.128   3.979  0.2988  0.7901  0.3083
  179SAPS  H19R20489   1.352   4.186   4.036  1.5844  1.8388  1.0237
  179SAPS  H19S20490   1.507   4.196   3.941 -2.0153  3.0684 -0.7336
  179SAPS  C22020491   1.502   4.050   4.088  0.6757 -0.5258  0.1193
  179SAPS  H20R20492   1.536   4.126   4.162 -0.3954  0.3778 -0.2948
  179SAPS  H20S20493   1.592   4.003   4.044  0.2012 -0.0169 -1.4457
  179SAPS  H20T20494   1.428   3.982   4.137 -0.7373 -0.1862 -1.4443
  179SAPS   C3320495   0.453   3.133   3.172 -0.0321  0.2101 -0.2490
  179SAPS   H3X20496   0.359   3.075   3.160 -0.0675  0.6971 -2.9691
  179SAPS   H3Y20497   0.441   3.222   3.238 -1.1611  0.2913 -0.5281
  179SAPS   C3420498   0.545   3.033   3.241 -0.5106 -0.3688 -0.0960
  179SAPS   H4X20499   0.547   2.936   3.187 -0.9923 -1.0514  1.0664
  179SAPS   H4Y20500   0.484   2.991   3.324 -0.6048 -0.9100 -0.4310
  179SAPS   C3520501   0.678   3.087   3.296 -0.3563  0.1507 -0.4766
  179SAPS   H5X20502   0.660   3.194   3.316 -0.1196  0.5921 -2.4249
  179SAPS   H5Y20503   0.762   3.083   3.223  0.9792 -1.0390  1.0175
  179SAPS   C3620504   0.719   3.010   3.424  0.1729  0.3283 -0.8349
  179SAPS   H6X20505   0.736   2.904   3.395 -1.3049  0.3444 -1.9016
  179SAPS   H6Y20506   0.630   3.015   3.489  1.8410 -0.3512  1.6499
  179SAPS   C3720507   0.843   3.073   3.492 -0.0025 -0.4199  0.5340
  179SAPS   H7X20508   0.817   3.169   3.543  0.3869  0.2835 -0.5571
  179SAPS   H7Y20509   0.924   3.088   3.417  1.4641 -1.9058  1.7288
  179SAPS   C3820510   0.909   2.987   3.594 -0.2237  0.0659  0.1095
  179SAPS   H8X20511   0.982   2.927   3.536 -2.3211 -1.3239 -1.2519
  179SAPS   H8Y20512   0.835   2.911   3.627  0.2642 -0.5597 -0.2175
  179SAPS   C3920513   0.979   3.060   3.708 -0.2392  0.6917  0.6997
  179SAPS   H9X20514   0.898   3.110   3.765 -1.4672 -1.1090  0.6320
  179SAPS   H9Y20515   1.049   3.138   3.673 -2.9966  2.0955 -2.2943
  179SAPS  C31020516   1.049   2.957   3.805 -0.0091 -0.4635  0.1459
  179SAPS  H10X20517   1.125   2.895   3.753  2.0889  1.2822  0.9609
  179SAPS  H10Y20518   0.965   2.891   3.836 -0.4629 -1.3297 -2.6218
  179SAPS  C31120519   1.118   3.024   3.924  0.2494 -0.1206 -0.0255
  179SAPS  H11X20520   1.039   3.074   3.983  0.9169  3.7075 -2.0754
  179SAPS  H11Y20521   1.192   3.100   3.890  0.7368  0.1210  1.5044
  179SAPS  C31220522   1.193   2.928   4.015 -0.1286 -0.4734  0.3674
  179SAPS  H12X20523   1.274   2.874   3.961 -1.0711 -0.2851 -1.3015
  179SAPS  H12Y20524   1.120   2.855   4.057  1.0787 -1.6650  0.4815
  179SAPS  C31320525   1.246   2.995   4.150 -0.0588  0.3988 -0.2893
  179SAPS  H13X20526   1.158   3.034   4.204  0.7199 -0.4218  1.6965
  179SAPS  H13Y20527   1.306   3.086   4.129  0.2213  0.0804 -0.9070
  179SAPS  C31420528   1.299   2.894   4.254  0.1262  0.2145  0.3650
  179SAPS  H14X20529   1.227   2.810   4.268  1.3835 -0.5243  2.8968
  179SAPS  H14Y20530   1.317   2.933   4.356  1.4845 -0.1371  0.2745
  179SAPS  C31520531   1.434   2.834   4.206 -0.0351 -0.4277 -0.5559
  179SAPS  H15X20532   1.507   2.910   4.172  0.5256 -1.3092 -1.3569
  179SAPS  H15Y20533   1.421   2.782   4.109  2.0978  2.9836 -2.8725
  179SAPS  C31620534   1.514   2.759   4.308  0.2101 -0.1890  0.1654
  179SAPS  H16X20535   1.449   2.677   4.346  0.1519 -0.4235 -0.4328
  179SAPS  H16Y20536   1.529   2.834   4.390 -2.7103  1.6992 -0.8856
  179SAPS  C31720537   1.653   2.715   4.257 -0.1316  0.2607 -0.0859
  179SAPS  H17X20538   1.725   2.798   4.241  0.0136 -0.1843 -1.9165
  179SAPS  H17Y20539   1.640   2.660   4.161 -2.0360  0.7955 -0.1735
  179SAPS  C31820540   1.732   2.621   4.351  0.5049  0.2842 -0.0838
  179SAPS  H18X20541   1.676   2.525   4.345  0.4911  0.3850 -2.2420
  179SAPS  H18Y20542   1.738   2.653   4.457  0.2892 -0.9225  0.3063
  179SAPS  H18Z20543   1.830   2.598   4.305 -0.4878 -0.9576 -1.6867
  180SAPS     N20544   6.831   0.553   1.637 -0.4244  0.2186  0.2055
  180SAPS   HN120545   6.912   0.539   1.573 -1.2282  1.1454 -1.0687
  180SAPS   HN220546   6.796   0.463   1.676  2.9021 -1.8374 -1.1381
  180SAPS   HN320547   6.754   0.601   1.587 -0.4802 -0.3637 -0.2757
  180SAPS   C1220548   6.880   0.626   1.755  0.3471  0.9020  0.1340
  180SAPS  H12A20549   6.848   0.568   1.841  1.9613 -1.0255 -0.5009
  180SAPS   C1320550   7.033   0.613   1.772  0.7321 -0.6125  0.0399
  180SAPS  O13A20551   7.107   0.559   1.681  0.7259 -0.4581 -0.5157
  180SAPS  O13B20552   7.082   0.645   1.877 -0.5097  0.1236 -0.4558
  180SAPS   C1120553   6.808   0.768   1.775  0.3921 -0.3362  0.4054
  180SAPS  H11A20554   6.827   0.837   1.690 -0.9146  0.9464  1.1150
  180SAPS  H11B20555   6.849   0.814   1.867  1.3879  0.6424 -0.4884
  180SAPS     P20556   6.561   0.857   1.822 -0.0187  0.5145 -0.1401
  180SAPS   O1320557   6.610   0.993   1.795 -0.5767 -0.0473  0.2702
  180SAPS   O1420558   6.436   0.816   1.750 -0.3278  0.8255  0.0852
  180SAPS   O1220559   6.672   0.751   1.786  0.4317  0.6710  0.0522
  180SAPS   O1120560   6.532   0.843   1.976  0.1068  0.9266  0.1585
  180SAPS    C120561   6.548   0.713   2.030 -0.6593  0.5805  0.2833
  180SAPS    HA20562   6.445   0.671   2.041 -1.2188  1.4591 -1.2233
  180SAPS    HB20563   6.607   0.644   1.966 -1.4469  0.0415  0.1145
  180SAPS    C220564   6.617   0.722   2.172 -0.4219 -0.5246  0.0899
  180SAPS    HS20565   6.587   0.632   2.231 -2.4941  0.1118  0.1029
  180SAPS   O2120566   6.559   0.839   2.236 -0.3203  0.3080  0.4613
  180SAPS   C2120567   6.541   0.833   2.366 -0.2479 -0.3180  0.1124
  180SAPS   O2220568   6.557   0.736   2.438  0.0630  0.3525 -0.1029
  180SAPS   C2220569   6.489   0.970   2.416  0.4522 -0.1136 -0.0373
  180SAPS   H2R20570   6.515   1.048   2.341  1.7965 -1.6674 -1.2728
  180SAPS   H2S20571   6.380   0.955   2.433  0.6422  0.2149  1.6380
  180SAPS    C320572   6.771   0.733   2.156  0.5797  0.0169  0.5153
  180SAPS    HX20573   6.787   0.821   2.090 -0.2422  0.3101  0.6931
  180SAPS    HY20574   6.802   0.646   2.094  2.1565 -0.0211  1.3052
  180SAPS   O3120575   6.845   0.750   2.278  0.4515  0.4812  0.0201
  180SAPS   C3120576   6.866   0.632   2.342  0.0924 -0.1376 -0.3205
  180SAPS   O3220577   6.823   0.526   2.303  0.3197  0.4529 -0.2507
  180SAPS   C3220578   6.946   0.648   2.471 -1.0221  0.4919 -0.1491
  180SAPS   H2X20579   6.978   0.754   2.468 -0.8423  0.4320 -2.1082
  180SAPS   H2Y20580   7.035   0.581   2.464 -1.7340 -0.6532  1.2349
  180SAPS   C2320581   6.552   1.020   2.546  0.1772 -0.1035  0.1423
  180SAPS   H3R20582   6.661   1.036   2.528  0.2915  1.3464  1.8269
  180SAPS   H3S20583   6.546   0.933   2.614 -2.0765 -0.0427  0.1022
  180SAPS   C2420584   6.469   1.134   2.609 -0.7149 -0.2988 -1.1601
  180SAPS   H4R20585   6.431   1.214   2.543  0.3113  1.0681 -0.1594
  180SAPS   H4S20586   6.523   1.174   2.698 -2.1893 -2.8952  1.0457
  180SAPS   C2520587   6.339   1.083   2.678 -0.1799 -0.0210  0.2525
  180SAPS   H5R20588   6.269   1.043   2.603 -2.9107  1.8979  1.5944
  180SAPS   C2620589   6.306   1.086   2.812 -0.1609  0.1207 -0.6187
  180SAPS   H6R20590   6.208   1.053   2.851  1.2288 -2.4756  1.0014
  180SAPS   C2720591   6.386   1.148   2.930 -0.3400 -0.0322  0.2396
  180SAPS   H7R20592   6.493   1.119   2.924 -0.0826  1.1016 -0.9273
  180SAPS   H7S20593   6.349   1.105   3.026 -1.9598  3.3254  1.2967
  180SAPS   C2820594   6.388   1.298   2.941 -0.2642  0.1495  0.0411
  180SAPS   H8R20595   6.374   1.354   2.848 -2.0504 -0.3507 -0.0315
  180SAPS   C2920596   6.406   1.362   3.056  0.0135  0.3565 -0.3704
  180SAPS   H9R20597   6.406   1.472   3.059 -0.9343  0.3709 -0.6180
  180SAPS  C21020598   6.431   1.300   3.195  0.5912 -0.2808  0.7844
  180SAPS  H10R20599   6.523   1.350   3.231 -0.0466  1.3894  0.2335
  180SAPS  H10S20600   6.456   1.193   3.183  1.7977  0.0338  0.2772
  180SAPS  C21120601   6.320   1.316   3.297  0.1966  0.2021 -0.6681
  180SAPS  H11R20602   6.251   1.231   3.297 -0.3241  0.5721  1.7048
  180SAPS  C21220603   6.289   1.416   3.378 -0.1274  0.2592  0.2281
  180SAPS  H12R20604   6.203   1.422   3.446  0.2317  0.9023  0.6403
  180SAPS  C21320605   6.377   1.534   3.389 -0.4874  0.0255  0.5297
  180SAPS  H13R20606   6.323   1.630   3.395 -0.5849 -0.0245  0.4514
  180SAPS  H13S20607   6.439   1.542   3.297 -0.7161  1.6248  0.4884
  180SAPS  C21420608   6.464   1.523   3.512 -0.0799  0.4148 -0.6589
  180SAPS  H14R20609   6.552   1.457   3.509  1.1995  1.8169  2.3912
  180SAPS  C21520610   6.440   1.572   3.634  0.7771  0.2319 -0.4658
  180SAPS  H15R20611   6.510   1.555   3.717  0.4054 -0.3115 -0.2544
  180SAPS  C21620612   6.326   1.652   3.677 -1.0456  0.3361  0.8127
  180SAPS  H16R20613   6.259   1.596   3.746 -2.7348  1.7225  0.3769
  180SAPS  H16S20614   6.263   1.682   3.590 -1.8650  1.5114  1.7748
  180SAPS  C21720615   6.352   1.790   3.755  0.6067 -0.3778  0.6724
  180SAPS  H17R20616   6.397   1.768   3.854  1.3111 -0.8487  0.2567
  180SAPS  H17S20617   6.249   1.827   3.775  1.0480  1.4132 -0.1647
  180SAPS  C21820618   6.422   1.890   3.664  0.1267  0.0349  0.2100
  180SAPS  H18R20619   6.376   1.873   3.564  1.0054  0.1240 -0.2167
  180SAPS  H18S20620   6.526   1.852   3.657 -0.2586 -0.9438 -0.6339
  180SAPS  C21920621   6.422   2.036   3.709  0.0547  0.2168 -0.3964
  180SAPS  H19R20622   6.481   2.084   3.628 -2.3146  0.2781 -2.1849
  180SAPS  H19S20623   6.469   2.056   3.808 -2.4296  0.6199  0.7802
  180SAPS  C22020624   6.282   2.093   3.713 -0.0520 -0.1820  0.1945
  180SAPS  H20R20625   6.243   2.073   3.815  0.7534 -1.2380  0.3220
  180SAPS  H20S20626   6.291   2.203   3.705 -0.6046 -0.1455  0.0490
  180SAPS  H20T20627   6.207   2.065   3.636 -0.1468  1.4769 -0.3370
  180SAPS   C3320628   6.863   0.619   2.597  0.0648  0.1971 -0.2846
  180SAPS   H3X20629   6.877   0.513   2.626 -0.9553  1.0172  3.8384
  180SAPS   H3Y20630   6.753   0.630   2.587  0.0282  0.1614  0.0676
  180SAPS   C3420631   6.913   0.694   2.719 -0.0460  0.2394 -0.2196
  180SAPS   H4X20632   6.852   0.650   2.801  0.2490  1.1965  0.5341
  180SAPS   H4Y20633   6.891   0.803   2.713  3.0993  0.9347 -0.6953
  180SAPS   C3520634   7.060   0.674   2.756  0.9469  0.1420  0.0445
  180SAPS   H5X20635   7.107   0.715   2.663  2.4198  1.0617  1.1339
  180SAPS   H5Y20636   7.088   0.567   2.765 -1.6482 -0.6233 -0.2624
  180SAPS   C3620637   7.104   0.760   2.876  0.2630  0.3383  0.4559
  180SAPS   H6X20638   7.078   0.867   2.862 -1.5141 -0.2543 -1.1672
  180SAPS   H6Y20639   7.215   0.754   2.873  0.3259  1.7454 -1.4439
  180SAPS   C3720640   7.043   0.706   3.006 -0.0921 -0.0090  0.0147
  180SAPS   H7X20641   7.071   0.599   3.017 -1.8690 -0.4694  0.4025
  180SAPS   H7Y20642   6.933   0.712   2.993  0.0043 -0.8404 -1.2878
  180SAPS   C3820643   7.096   0.784   3.127  0.2649 -0.8350 -0.4303
  180SAPS   H8X20644   7.067   0.891   3.131  0.9852 -0.6042 -1.3483
  180SAPS   H8Y20645   7.207   0.786   3.120  0.2625 -1.2883 -0.6500
  180SAPS   C3920646   7.050   0.723   3.264  0.1263 -0.2413  0.3748
  180SAPS   H9X20647   7.061   0.612   3.265 -1.2447 -0.4335 -1.0034
  180SAPS   H9Y20648   6.942   0.744   3.282  0.5040  0.3964  2.1198
  180SAPS  C31020649   7.137   0.787   3.374 -0.6368  0.2374 -0.0312
  180SAPS  H10X20650   7.121   0.896   3.358 -1.2317  0.0245 -0.9618
  180SAPS  H10Y20651   7.244   0.770   3.351 -0.4018  1.0453  0.4113
  180SAPS  C31120652   7.081   0.747   3.514  0.1734 -0.3807  0.8933
  180SAPS  H11X20653   7.079   0.637   3.532  0.8585 -0.2073  2.0981
  180SAPS  H11Y20654   6.977   0.784   3.524  0.2803  0.7011 -1.3690
  180SAPS  C31220655   7.151   0.816   3.625 -0.3631  0.6494 -0.6285
  180SAPS  H12X20656   7.096   0.787   3.718 -1.0284 -0.6513 -1.4088
  180SAPS  H12Y20657   7.124   0.924   3.619  1.1803  1.0930 -0.1957
  180SAPS  C31320658   7.304   0.796   3.632  1.0262 -0.1732  0.4425
  180SAPS  H13X20659   7.346   0.867   3.707  0.5600  0.5228  0.0609
  180SAPS  H13Y20660   7.349   0.831   3.537 -0.2558  2.1227  0.5973
  180SAPS  C31420661   7.334   0.655   3.681  0.1491  0.3320  0.8694
  180SAPS  H14X20662   7.278   0.583   3.618  1.2498  0.7156 -0.6123
  180SAPS  H14Y20663   7.319   0.647   3.791  0.9468 -1.1902  0.8949
  180SAPS  C31520664   7.480   0.611   3.638 -0.3008 -1.0046 -0.1580
  180SAPS  H15X20665   7.553   0.682   3.684  1.1582 -2.5631  0.0110
  180SAPS  H15Y20666   7.487   0.639   3.531 -2.2583  0.2063 -0.0175
  180SAPS  C31620667   7.517   0.470   3.671  0.2343 -0.0663  0.2691
  180SAPS  H16X20668   7.626   0.453   3.653  0.2912  2.2535 -2.3145
  180SAPS  H16Y20669   7.455   0.407   3.604  0.7063  0.9456 -1.1713
  180SAPS  C31720670   7.483   0.434   3.816 -0.5968  0.0787 -0.2795
  180SAPS  H17X20671   7.373   0.427   3.830 -0.5173  0.3458  0.5035
  180SAPS  H17Y20672   7.527   0.515   3.878 -1.8636  0.9294 -0.4338
  180SAPS  C31820673   7.550   0.297   3.852 -0.1610 -0.2553 -0.3288
  180SAPS  H18X20674   7.659   0.311   3.867 -0.3866  0.2549  0.9781
  180SAPS  H18Y20675   7.530   0.221   3.773 -1.2685 -1.6016  1.1699
  180SAPS  H18Z20676   7.494   0.247   3.934 -0.5498  0.4306 -0.1666
  181POPC     N20677   3.502   4.692   7.124  0.3546 -0.4969  0.2311
  181POPC   C1220678   3.437   4.556   7.118 -0.2218  0.4767  0.1198
  181POPC  H12A20679   3.329   4.567   7.118 -0.0887  2.0731 -0.3062
  181POPC  H12B20680   3.473   4.503   7.204 -0.0530  1.2039  0.5025
  181POPC   C1320681   3.468   4.772   7.003  0.4094 -0.0988 -0.1181
  181POPC  H13A20682   3.542   4.743   6.929  0.8669  0.7218  0.0077
  181POPC  H13B20683   3.375   4.737   6.962  1.5638  0.3515 -3.4124
  181POPC  H13C20684   3.481   4.878   7.018  1.5519  0.0880 -2.0566
  181POPC   C1420685   3.468   4.769   7.241  0.6973  0.3493  0.0145
  181POPC  H14A20686   3.488   4.719   7.334 -0.4490 -0.7803 -0.3141
  181POPC  H14B20687   3.518   4.865   7.238  0.2517  0.5607 -1.0723
  181POPC  H14C20688   3.361   4.779   7.241  0.7936  1.7230 -1.1132
  181POPC   C1520689   3.653   4.673   7.131  0.0532  0.1157 -0.4731
  181POPC  H15A20690   3.690   4.620   7.044  0.5391 -0.7042  0.2120
  181POPC  H15B20691   3.678   4.626   7.226  0.5875  1.9284  0.3232
  181POPC  H15C20692   3.700   4.770   7.133  1.2228 -0.4388  1.4337
  181POPC   C1120693   3.480   4.461   7.009  0.1914  0.2756 -0.1765
  181POPC  H11A20694   3.420   4.367   7.011  0.0639  0.2956 -1.7724
  181POPC  H11B20695   3.583   4.426   7.031 -0.7106 -1.5658  1.5009
  181POPC     P20696   3.596   4.525   6.781 -0.1679  0.4697 -0.0371
  181POPC   O1320697   3.722   4.526   6.854 -0.0354  0.5468  0.0705
  181POPC   O1420698   3.567   4.636   6.688 -0.2277 -0.0974  0.2173
  181POPC   O1220699   3.474   4.503   6.875 -0.0086 -0.4247 -0.3291
  181POPC   O1120700   3.585   4.388   6.699 -0.0069 -0.6300 -0.5972
  181POPC    C120701   3.651   4.380   6.569  0.5864 -0.0292 -0.2913
  181POPC    HA20702   3.724   4.295   6.564  3.9990  2.7560 -2.4808
  181POPC    HB20703   3.720   4.464   6.545 -0.6457  1.0207 -0.2452
  181POPC    C220704   3.558   4.360   6.445  0.2098  0.4983  0.0531
  181POPC    HS20705   3.613   4.325   6.354 -1.2050  0.3800 -0.7819
  181POPC   O2120706   3.492   4.487   6.419  0.8640  0.2166 -0.2457
  181POPC   C2120707   3.558   4.560   6.334  0.0065 -1.2705  0.6393
  181POPC   O2220708   3.669   4.538   6.283  0.1284 -0.7001  0.1604
  181POPC   C2220709   3.474   4.689   6.320 -0.1589  0.1329 -0.7266
  181POPC   H2R20710   3.488   4.755   6.409  2.0999 -1.6599  0.3581
  181POPC   H2S20711   3.366   4.665   6.327 -0.4052  0.6252 -2.4474
  181POPC    C320712   3.442   4.262   6.472  0.2797 -0.0330  0.0537
  181POPC    HX20713   3.413   4.294   6.574 -0.4118  1.3823 -0.5585
  181POPC    HY20714   3.498   4.166   6.473 -0.1825 -0.3545 -1.8031
  181POPC   O3120715   3.330   4.275   6.377 -0.6205  0.1544  0.5210
  181POPC   C3120716   3.350   4.205   6.261 -0.1264 -0.1562 -0.8367
  181POPC   O3220717   3.446   4.137   6.238  0.2425 -0.2304  0.3427
  181POPC   C3220718   3.228   4.218   6.173  0.7122 -0.4393 -0.0908
  181POPC   H2X20719   3.155   4.281   6.228  1.8072  0.7350  0.0559
  181POPC   H2Y20720   3.178   4.119   6.162 -0.8902  0.3267  0.0878
  181POPC   C2320721   3.502   4.781   6.198  1.1537  0.4245 -0.0377
  181POPC   H3R20722   3.498   4.717   6.108 -3.0246  1.0265 -0.4677
  181POPC   H3S20723   3.605   4.822   6.204  0.2642  2.6355  1.3142
  181POPC   C2420724   3.387   4.896   6.191 -0.4552 -0.7165 -0.4423
  181POPC   H4R20725   3.401   4.962   6.279  1.9283 -0.0116 -1.2847
  181POPC   H4S20726   3.283   4.855   6.190 -0.4511 -0.7801  0.3870
  181POPC   C2520727   3.420   4.995   6.075 -0.0428  0.2370  0.1812
  181POPC   H5R20728   3.516   5.048   6.089  0.3740 -0.4094 -0.1882
  181POPC   H5S20729   3.332   5.063   6.067 -2.6112 -2.8483  0.0297
  181POPC   C2620730   3.434   4.925   5.946 -0.2639 -0.2632 -0.1731
  181POPC   H6R20731   3.344   4.861   5.931  0.2041 -1.3197  1.2739
  181POPC   H6S20732   3.517   4.852   5.943 -0.4756 -0.4810 -1.7801
  181POPC   C2720733   3.444   5.021   5.835  0.0049 -0.3291  0.5767
  181POPC   H7R20734   3.548   5.058   5.834  0.5851 -1.8484 -1.2477
  181POPC   H7S20735   3.382   5.112   5.852  0.2176  0.2085 -1.3313
  181POPC   C2820736   3.429   4.966   5.688 -0.1493  0.2181  0.0529
  181POPC   H8R20737   3.514   4.900   5.662 -0.0209  0.6424 -0.6234
  181POPC   H8S20738   3.434   5.051   5.617  1.4764  1.5739  1.6748
  181POPC   C2920739   3.296   4.886   5.674 -0.1048 -0.2861  0.3854
  181POPC   H9120740   3.274   4.811   5.752  1.7304  0.1982  1.4171
  181POPC  C21020741   3.205   4.894   5.574 -0.0297 -0.8024 -0.1240
  181POPC  H10120742   3.123   4.821   5.574 -1.6732  0.9197  1.9252
  181POPC  C21120743   3.216   4.971   5.451  0.2187  0.4607  0.1984
  181POPC  H11R20744   3.323   4.991   5.430  0.2976  0.8861  0.9986
  181POPC  H11S20745   3.168   5.069   5.469 -2.1809 -0.6713  0.3711
  181POPC  C21220746   3.166   4.905   5.321  0.2298  0.4758  0.0378
  181POPC  H12R20747   3.056   4.902   5.306  0.1758 -1.7393  0.4540
  181POPC  H12S20748   3.195   4.798   5.335  1.5807  0.4929 -2.1019
  181POPC  C21320749   3.228   4.949   5.190 -1.2300 -0.2286 -0.2041
  181POPC  H13R20750   3.175   4.910   5.101 -1.5673  1.7600 -0.9328
  181POPC  H13S20751   3.330   4.909   5.171 -0.1615  2.4567 -0.6040
  181POPC  C21420752   3.235   5.099   5.181 -0.0847 -1.0226 -0.5110
  181POPC  H14R20753   3.280   5.129   5.278 -0.5484  0.2632 -0.6657
  181POPC  H14S20754   3.131   5.139   5.180 -0.1276 -1.1290 -0.1971
  181POPC  C21520755   3.300   5.141   5.043  0.1921 -0.2158  0.0298
  181POPC  H15R20756   3.389   5.080   5.019 -0.5528 -0.5476 -2.1082
  181POPC  H15S20757   3.325   5.249   5.050  0.9469 -0.5182  4.1410
  181POPC  C21620758   3.210   5.109   4.924  0.0254  0.3221  0.4992
  181POPC  H16R20759   3.107   5.144   4.947 -0.4998 -0.1236 -1.0104
  181POPC  H16S20760   3.212   5.001   4.896 -0.3996  0.6880 -1.0554
  181POPC  C21720761   3.265   5.173   4.792  0.5265  0.3619 -0.6024
  181POPC  H17R20762   3.372   5.150   4.775  0.5716  0.2141 -0.1236
  181POPC  H17S20763   3.259   5.284   4.798  2.4995  0.4499  0.8381
  181POPC  C21820764   3.179   5.123   4.675  0.6148 -0.3858  0.3286
  181POPC  H18R20765   3.210   5.166   4.577  0.5444  0.6501  0.7482
  181POPC  H18S20766   3.076   5.152   4.704 -0.0945 -1.2574 -1.2021
  181POPC  H18T20767   3.183   5.012   4.681  3.9692 -0.3109  1.5465
  181POPC   C3320768   3.258   4.290   6.045  0.2631  0.2871 -0.7243
  181POPC   H3X20769   3.171   4.299   5.977 -0.7898  3.5705  0.8382
  181POPC   H3Y20770   3.340   4.229   6.001 -0.9617  0.2206 -3.0347
  181POPC   C3420771   3.319   4.429   6.072 -0.2609  0.4149  0.0068
  181POPC   H4X20772   3.429   4.422   6.066 -0.3153  0.3605 -1.1989
  181POPC   H4Y20773   3.287   4.460   6.174  0.4871 -1.4981  0.8537
  181POPC   C3520774   3.274   4.537   5.971 -0.7803  0.1436 -0.3931
  181POPC   H5X20775   3.311   4.630   6.018 -0.6444 -1.3167  2.6349
  181POPC   H5Y20776   3.163   4.544   5.964 -1.1375 -0.6599  2.9256
  181POPC   C3620777   3.348   4.528   5.838  0.6402  0.3622  0.2520
  181POPC   H6X20778   3.450   4.484   5.847 -0.2051 -2.0523 -1.0791
  181POPC   H6Y20779   3.359   4.633   5.802  0.5129  0.0371 -0.7818
  181POPC   C3720780   3.271   4.445   5.731 -0.2955 -0.5120  0.2233
  181POPC   H7X20781   3.168   4.485   5.733 -0.8293 -1.7548 -0.8209
  181POPC   H7Y20782   3.265   4.336   5.752 -1.6417 -0.9153 -1.9633
  181POPC   C3820783   3.321   4.471   5.591 -0.2165  0.0298 -0.6509
  181POPC   H8X20784   3.432   4.467   5.599 -0.2287  0.9743  0.3218
  181POPC   H8Y20785   3.277   4.572   5.572 -2.1750 -0.8938 -1.2743
  181POPC   C3920786   3.267   4.376   5.493 -0.3931  0.3011  0.0013
  181POPC   H9X20787   3.157   4.390   5.497 -0.3760  1.4248 -2.0284
  181POPC   H9Y20788   3.275   4.268   5.517  0.3279 -0.0992 -1.8502
  181POPC  C31020789   3.302   4.405   5.344 -0.1697  0.3423  0.1847
  181POPC  H10X20790   3.248   4.328   5.284 -1.1882 -0.4344  2.0090
  181POPC  H10Y20791   3.412   4.412   5.334 -0.1346  0.4975  0.6600
  181POPC  C31120792   3.241   4.540   5.293  0.5444  0.7283  0.2919
  181POPC  H11X20793   3.301   4.622   5.337  2.4404 -1.1663  1.4342
  181POPC  H11Y20794   3.138   4.554   5.332  0.9873  0.3897  1.6583
  181POPC  C31220795   3.242   4.566   5.144 -0.0652 -0.3157  0.6474
  181POPC  H12X20796   3.348   4.571   5.111 -0.6097 -0.5086 -1.2405
  181POPC  H12Y20797   3.201   4.666   5.119  0.9084 -0.4982 -2.0387
  181POPC  C31320798   3.172   4.457   5.057 -0.2066  0.1764  0.0128
  181POPC  H13X20799   3.068   4.449   5.095 -0.3567  1.4083 -0.0810
  181POPC  H13Y20800   3.216   4.356   5.068  0.2817  0.3720 -0.1100
  181POPC  C31420801   3.153   4.486   4.905  0.4597  0.5652 -0.2307
  181POPC  H14X20802   3.083   4.410   4.863  2.1076 -0.1425 -1.8402
  181POPC  H14Y20803   3.240   4.451   4.845 -0.8809 -1.3935 -1.1706
  181POPC  C31520804   3.132   4.631   4.867 -0.0919  0.1678  0.6051
  181POPC  H15X20805   3.218   4.691   4.904 -0.3017  1.0665 -0.3231
  181POPC  H15Y20806   3.041   4.662   4.921 -0.9637 -1.5345  0.1922
  181POPC  C31620807   3.096   4.660   4.727 -0.3719 -0.1356  0.8693
  181POPC  H16X20808   3.181   4.637   4.659 -1.2076  2.7551 -1.3688
  181POPC  H16Y20809   3.071   4.769   4.728 -0.2695  0.0955 -3.4811
  181POPC  H16Z20810   3.006   4.600   4.701 -1.0632  2.0268 -2.3329
  182POPC     N20811   2.340   3.522   6.525 -0.3185 -0.3020 -0.1861
  182POPC   C1220812   2.276   3.658   6.551  1.3253  0.3810  0.2257
  182POPC  H12A20813   2.345   3.701   6.622  1.9806 -0.4279  0.0982
  182POPC  H12B20814   2.181   3.646   6.599  1.4143 -0.0543  0.2984
  182POPC   C1320815   2.480   3.526   6.484  0.1996  0.0201  0.0451
  182POPC  H13A20816   2.540   3.583   6.553  3.5480 -1.1323 -1.6562
  182POPC  H13B20817   2.520   3.428   6.466 -0.3724 -0.2953  0.4871
  182POPC  H13C20818   2.484   3.576   6.388 -0.3660 -0.1760 -0.0871
  182POPC   C1420819   2.329   3.449   6.651 -0.9040 -0.6044 -0.3135
  182POPC  H14A20820   2.228   3.437   6.689 -0.3182  0.5108  1.7334
  182POPC  H14B20821   2.373   3.351   6.643  0.9754  0.0382  1.5223
  182POPC  H14C20822   2.393   3.495   6.724 -2.0876  1.3300 -0.4102
  182POPC   C1520823   2.254   3.447   6.424 -0.5060 -0.4494 -0.6851
  182POPC  H15A20824   2.157   3.427   6.468 -0.4470 -0.1114 -0.4038
  182POPC  H15B20825   2.306   3.359   6.389  0.0483 -1.0392  1.5100
  182POPC  H15C20826   2.240   3.512   6.339 -0.2015 -0.2956 -0.6174
  182POPC   C1120827   2.271   3.750   6.428  0.2791 -0.5358 -0.0874
  182POPC  H11A20828   2.371   3.757   6.380 -0.2303  2.3444 -0.9301
  182POPC  H11B20829   2.245   3.855   6.457 -0.1918  0.1338 -2.7212
  182POPC     P20830   2.023   3.750   6.351 -0.1250  0.3727 -0.1986
  182POPC   O1320831   1.977   3.749   6.492 -0.3428  0.3775 -0.0800
  182POPC   O1420832   1.956   3.659   6.257  0.3062  0.3431  0.2209
  182POPC   O1220833   2.177   3.704   6.334 -0.1700  0.6937 -0.5050
  182POPC   O1120834   2.005   3.891   6.276 -0.2105 -0.5480 -0.5845
  182POPC    C120835   2.113   3.961   6.215  0.5754 -0.5651 -0.1689
  182POPC    HA20836   2.173   3.887   6.157 -0.0282 -2.6769  1.7383
  182POPC    HB20837   2.188   4.000   6.287  0.7257 -0.0246 -0.6137
  182POPC    C220838   2.055   4.067   6.111  0.1264  0.7052  0.3013
  182POPC    HS20839   2.009   4.148   6.171 -1.0512  0.5592 -0.3800
  182POPC   O2120840   1.961   4.001   6.029  0.6534  0.4330  0.7104
  182POPC   C2120841   1.874   4.076   5.974  0.5263  0.0596  0.8232
  182POPC   O2220842   1.838   4.189   6.013  0.1140  0.2128  0.3816
  182POPC   C2220843   1.819   3.998   5.858 -0.1839  0.0968  0.6820
  182POPC   H2R20844   1.789   3.902   5.904  0.4607  0.3164  1.5888
  182POPC   H2S20845   1.904   3.974   5.791 -0.4798 -0.1656  0.3960
  182POPC    C320846   2.175   4.146   6.040 -0.6481  1.1520  0.7116
  182POPC    HX20847   2.228   4.214   6.110  1.4755  0.6107 -0.2851
  182POPC    HY20848   2.129   4.215   5.966 -0.1802 -0.4374 -1.1507
  182POPC   O3120849   2.278   4.058   5.983 -0.3281  0.8339 -0.2949
  182POPC   C3120850   2.268   4.029   5.854  0.0373  0.2554  0.1982
  182POPC   O3220851   2.187   4.073   5.777 -0.0215 -0.2939 -0.1620
  182POPC   C3220852   2.382   3.938   5.806  0.0405 -0.1049 -0.3993
  182POPC   H2X20853   2.380   3.843   5.864  1.2686  1.8474  3.1654
  182POPC   H2Y20854   2.477   3.988   5.834  0.4940 -1.1969  0.0576
  182POPC   C2320855   1.696   4.064   5.789  0.1860 -0.2272  0.7742
  182POPC   H3R20856   1.694   4.174   5.797  0.9514 -0.2924  2.2700
  182POPC   H3S20857   1.600   4.031   5.835  0.5479 -0.6897  1.2197
  182POPC   C2420858   1.676   4.019   5.644 -0.2025  0.2104  0.2864
  182POPC   H4R20859   1.634   3.917   5.653  0.5488 -0.1822 -0.4724
  182POPC   H4S20860   1.777   4.018   5.599  0.3700 -1.2104  1.5240
  182POPC   C2520861   1.580   4.097   5.549  0.7908 -0.6647  0.1699
  182POPC   H5R20862   1.596   4.206   5.562  1.9985 -0.7657 -0.3646
  182POPC   H5S20863   1.476   4.081   5.585  0.4283  0.2626 -0.4412
  182POPC   C2620864   1.572   4.058   5.400  0.0849  0.0902 -0.0250
  182POPC   H6R20865   1.528   3.957   5.399 -1.1980  0.6265 -0.9814
  182POPC   H6S20866   1.675   4.056   5.358 -1.0378  1.4786 -3.1730
  182POPC   C2720867   1.469   4.138   5.315  0.2375 -0.2947 -0.2121
  182POPC   H7R20868   1.398   4.197   5.376 -0.9060 -1.7438 -0.1154
  182POPC   H7S20869   1.414   4.074   5.244 -0.9680 -0.9806  1.2937
  182POPC   C2820870   1.534   4.238   5.215 -0.3536  0.6258 -0.2847
  182POPC   H8R20871   1.590   4.174   5.143 -3.0775 -2.8559  0.4019
  182POPC   H8S20872   1.594   4.305   5.280  0.0693  0.4090 -0.4504
  182POPC   C2920873   1.446   4.322   5.134  0.1504 -0.3010 -0.6908
  182POPC   H9120874   1.341   4.333   5.164  0.0796 -3.4060  0.5585
  182POPC  C21020875   1.477   4.379   5.022  1.3803  0.3264  0.5919
  182POPC  H10120876   1.411   4.455   4.978  1.6931  0.2373 -0.0530
  182POPC  C21120877   1.609   4.374   4.947 -0.3475  0.2213  0.2519
  182POPC  H11R20878   1.682   4.360   5.029 -2.1522 -3.6502  1.4727
  182POPC  H11S20879   1.626   4.468   4.890  0.4512  0.4446  0.8563
  182POPC  C21220880   1.610   4.270   4.833  0.3064 -0.3753  0.4528
  182POPC  H12R20881   1.711   4.283   4.787  1.0804 -1.2676  1.8134
  182POPC  H12S20882   1.538   4.294   4.752  0.5389  0.3697  0.4551
  182POPC  C21320883   1.591   4.123   4.868 -0.4002 -0.0374 -0.3156
  182POPC  H13R20884   1.493   4.103   4.915 -1.2364  1.1308 -1.4803
  182POPC  H13S20885   1.657   4.104   4.955 -0.7680  0.2877  0.0354
  182POPC  C21420886   1.600   4.016   4.758  0.4123 -0.0219  0.4123
  182POPC  H14R20887   1.610   3.913   4.800  4.0661 -0.6551 -1.5598
  182POPC  H14S20888   1.687   4.030   4.690 -0.0943 -1.3701 -0.5658
  182POPC  C21520889   1.485   4.020   4.663  0.2100 -0.0542 -0.5691
  182POPC  H15R20890   1.467   4.123   4.627 -2.7975  0.1015  1.0918
  182POPC  H15S20891   1.395   3.988   4.720  0.9797 -1.6690 -0.2013
  182POPC  C21620892   1.490   3.919   4.537  0.1330  0.1912 -0.1716
  182POPC  H16R20893   1.591   3.921   4.492 -0.2875  0.0120 -1.1324
  182POPC  H16S20894   1.417   3.951   4.460  0.4798 -0.5401 -0.8166
  182POPC  C21720895   1.468   3.773   4.585 -0.4267 -0.0443  0.0950
  182POPC  H17R20896   1.366   3.769   4.631 -0.2831 -2.3292  0.3101
  182POPC  H17S20897   1.543   3.738   4.659 -0.9912  0.4559  0.9337
  182POPC  C21820898   1.463   3.675   4.473  0.1289 -0.0398  0.0516
  182POPC  H18R20899   1.555   3.674   4.410 -0.8901 -0.4345 -1.4779
  182POPC  H18S20900   1.365   3.681   4.422 -0.9668 -0.9784  1.9182
  182POPC  H18T20901   1.452   3.573   4.515  0.6183  0.2250  0.8738
  182POPC   C3320902   2.393   3.914   5.654  0.6317  0.0593 -0.3291
  182POPC   H3X20903   2.388   4.008   5.595  2.0275  1.4138  1.5673
  182POPC   H3Y20904   2.303   3.854   5.632 -1.0310  0.8997  3.4228
  182POPC   C3420905   2.520   3.843   5.618 -0.2537 -0.5906  0.0782
  182POPC   H4X20906   2.533   3.752   5.680  0.0434 -0.2318  0.5580
  182POPC   H4Y20907   2.603   3.907   5.655 -1.8481 -0.0884  3.2121
  182POPC   C3520908   2.534   3.815   5.463 -0.6503  0.4130  0.4474
  182POPC   H5X20909   2.631   3.761   5.457 -0.4666  0.8802 -1.2610
  182POPC   H5Y20910   2.536   3.902   5.393 -2.5461  0.9408  0.9852
  182POPC   C3620911   2.415   3.720   5.420 -0.7804 -0.1112  0.3675
  182POPC   H6X20912   2.321   3.778   5.433 -0.7385 -0.1364  0.8083
  182POPC   H6Y20913   2.410   3.627   5.480  1.6080 -0.4805  0.1234
  182POPC   C3720914   2.433   3.674   5.276 -0.4233  0.6050 -0.0802
  182POPC   H7X20915   2.377   3.580   5.258  0.3612 -0.0326  0.7154
  182POPC   H7Y20916   2.532   3.634   5.247  0.0482  2.4159 -1.0980
  182POPC   C3820917   2.382   3.773   5.179 -0.0129 -1.1307 -0.1033
  182POPC   H8X20918   2.447   3.863   5.186  0.3835 -1.1894 -2.4117
  182POPC   H8Y20919   2.280   3.809   5.206 -0.3249 -2.1716  0.1738
  182POPC   C3920920   2.382   3.710   5.037 -0.5575  1.0015 -0.6215
  182POPC   H9X20921   2.306   3.629   5.033  0.5599 -0.0135 -3.3495
  182POPC   H9Y20922   2.473   3.652   5.012  0.2538  0.0323  3.7303
  182POPC  C31020923   2.353   3.813   4.932 -0.3883 -0.5778 -0.5925
  182POPC  H10X20924   2.260   3.868   4.956 -0.3063  0.9413 -3.3173
  182POPC  H10Y20925   2.328   3.774   4.831 -0.9363  1.7734 -1.4271
  182POPC  C31120926   2.459   3.926   4.912  0.5362  0.8349  0.3220
  182POPC  H11X20927   2.564   3.891   4.910 -0.4590 -2.4937 -0.6628
  182POPC  H11Y20928   2.439   4.004   4.989 -0.4260  1.4449 -0.5085
  182POPC  C31220929   2.433   4.015   4.787  0.4006 -0.5298 -0.0141
  182POPC  H12X20930   2.518   4.086   4.788  0.8687 -1.0287 -1.2828
  182POPC  H12Y20931   2.337   4.069   4.799  0.3347 -0.7953  0.6689
  182POPC  C31320932   2.423   3.945   4.652  0.1345  0.2852 -0.1038
  182POPC  H13X20933   2.414   4.016   4.567  1.5706 -1.8106 -2.1261
  182POPC  H13Y20934   2.336   3.876   4.642 -1.2273  2.1354 -1.7802
  182POPC  C31420935   2.542   3.853   4.630 -0.1433  0.5912 -0.0944
  182POPC  H14X20936   2.524   3.770   4.702 -0.1716  0.6396 -0.0458
  182POPC  H14Y20937   2.644   3.893   4.649  0.5375 -0.3589 -1.5893
  182POPC  C31520938   2.548   3.787   4.487  0.0088 -0.5955 -0.0184
  182POPC  H15X20939   2.460   3.722   4.464  0.3560 -0.7995 -0.8076
  182POPC  H15Y20940   2.630   3.713   4.478  1.1519  0.6099  0.2772
  182POPC  C31620941   2.561   3.889   4.370  0.4750  0.0666  0.5360
  182POPC  H16X20942   2.464   3.914   4.322  1.5281 -0.4997 -2.0409
  182POPC  H16Y20943   2.638   3.860   4.295 -1.4393 -0.2625 -1.4144
  182POPC  H16Z20944   2.592   3.989   4.406 -1.5953 -0.0965  3.0247
  183POPC     N20945   3.029   0.697   6.610  0.1279  0.1109  0.3081
  183POPC   C1220946   3.072   0.635   6.479  0.8617 -0.6019 -0.0439
  183POPC  H12A20947   3.045   0.531   6.490 -2.8232 -0.2038 -3.1750
  183POPC  H12B20948   3.180   0.637   6.467  1.3684  0.3658  3.6305
  183POPC   C1320949   3.042   0.844   6.605  0.0028 -1.3355  0.4445
  183POPC  H13A20950   2.989   0.895   6.684  2.5623  0.9126  0.8593
  183POPC  H13B20951   3.149   0.861   6.606 -0.3105  0.9019  0.6175
  183POPC  H13C20952   2.983   0.880   6.522 -1.5051  0.7151  2.3124
  183POPC   C1420953   2.889   0.671   6.645 -0.1898  0.3773 -0.0711
  183POPC  H14A20954   2.868   0.725   6.736  2.0097  0.4161  0.4910
  183POPC  H14B20955   2.823   0.697   6.563 -3.3937 -0.7992  1.9520
  183POPC  H14C20956   2.874   0.564   6.654  1.1363  0.0401 -1.3942
  183POPC   C1520957   3.119   0.653   6.720 -0.1517  0.2629  1.0698
  183POPC  H15A20958   3.079   0.659   6.821 -1.6084 -0.0657  0.5381
  183POPC  H15B20959   3.208   0.714   6.720  0.2004 -0.1946 -0.9561
  183POPC  H15C20960   3.151   0.552   6.700 -1.3962  0.1172 -0.3710
  183POPC   C1120961   2.995   0.697   6.354 -0.7159 -0.0622 -0.0492
  183POPC  H11A20962   3.031   0.634   6.270  1.4785 -0.0692  0.8440
  183POPC  H11B20963   3.023   0.800   6.327 -0.9988  0.0597  0.1128
  183POPC     P20964   2.784   0.542   6.342 -0.6815 -0.0104  0.3709
  183POPC   O1320965   2.651   0.548   6.410 -0.0426 -0.4714 -0.0532
  183POPC   O1420966   2.877   0.434   6.390  0.0656 -0.0376 -0.1646
  183POPC   O1220967   2.856   0.681   6.362  0.5481 -0.3458  0.1248
  183POPC   O1120968   2.748   0.532   6.190 -0.1361 -0.3681  1.0525
  183POPC    C120969   2.739   0.645   6.100  0.9158  0.2087  0.3652
  183POPC    HA20970   2.766   0.738   6.155  1.8315  1.1849 -1.6105
  183POPC    HB20971   2.633   0.658   6.068  1.5320  0.3791 -1.8116
  183POPC    C220972   2.822   0.633   5.975 -0.0029 -0.5357 -0.4166
  183POPC    HS20973   2.787   0.545   5.918 -0.0791  0.1135 -1.4120
  183POPC   O2120974   2.958   0.626   6.010  0.1072  0.1626  0.2413
  183POPC   C2120975   3.025   0.556   5.920  0.4221 -0.5252  0.8690
  183POPC   O2220976   2.980   0.471   5.841 -0.0151  0.4372 -0.4977
  183POPC   C2220977   3.168   0.601   5.927 -0.5363 -0.0180  0.1628
  183POPC   H2R20978   3.208   0.572   6.027 -0.1997 -0.0277  0.0234
  183POPC   H2S20979   3.158   0.711   5.912 -0.8320  0.1006  1.1303
  183POPC    C320980   2.797   0.760   5.890  0.4009  0.1199 -0.2542
  183POPC    HX20981   2.831   0.849   5.947 -0.5997  0.1266  0.3693
  183POPC    HY20982   2.687   0.767   5.878 -0.0142 -0.0626  2.7125
  183POPC   O3120983   2.850   0.754   5.758  0.3710 -0.1999  0.4569
  183POPC   C3120984   2.950   0.842   5.730  0.3537 -0.2112  0.2136
  183POPC   O3220985   2.996   0.916   5.815  0.4865 -0.2574  0.0180
  183POPC   C3220986   2.988   0.840   5.582 -0.2392 -0.2820 -0.1666
  183POPC   H2X20987   3.043   0.934   5.557  2.0186 -0.7474  2.5334
  183POPC   H2Y20988   2.899   0.834   5.516  0.5748 -1.9772 -1.1671
  183POPC   C2320989   3.245   0.537   5.814 -0.4489  0.5485 -0.1842
  183POPC   H3R20990   3.181   0.534   5.723 -0.8208  1.1914  0.0467
  183POPC   H3S20991   3.261   0.430   5.839  0.9747  0.4415 -1.4593
  183POPC   C2420992   3.379   0.593   5.776 -0.2971 -0.6551  0.3429
  183POPC   H4R20993   3.445   0.576   5.865  0.1509  1.2674  0.4142
  183POPC   H4S20994   3.367   0.703   5.765  0.6643 -0.3290  2.1293
  183POPC   C2520995   3.440   0.533   5.651 -0.0365  0.4068 -0.6137
  183POPC   H5R20996   3.369   0.541   5.566 -1.6445 -2.3484  0.3536
  183POPC   H5S20997   3.457   0.424   5.659 -0.6901  0.3612  0.3693
  183POPC   C2620998   3.569   0.604   5.603 -0.1508  0.1494 -0.0383
  183POPC   H6R20999   3.626   0.550   5.524  1.4052 -2.1725  2.4730
  183POPC   H6S21000   3.640   0.595   5.688  0.9643  0.2550 -0.9231
  183POPC   C2721001   3.536   0.745   5.564 -0.2687  0.2958  0.0462
  183POPC   H7R21002   3.511   0.793   5.661  0.2028 -0.9700  0.8332
  183POPC   H7S21003   3.451   0.752   5.493  1.6847 -2.9007 -2.9666
  183POPC   C2821004   3.652   0.820   5.510  0.6829 -0.3876  0.2672
  183POPC   H8R21005   3.695   0.774   5.419  2.9319  0.0851  1.0192
  183POPC   H8S21006   3.733   0.793   5.582  0.5619 -0.4121  0.3952
  183POPC   C2921007   3.638   0.970   5.511 -0.2801 -0.3064  0.6332
  183POPC   H9121008   3.626   1.028   5.603  0.9664 -0.6128  1.0009
  183POPC  C21021009   3.661   1.041   5.395  0.3425 -0.5834 -0.5924
  183POPC  H10121010   3.655   1.150   5.392 -0.2899 -0.6198 -0.8348
  183POPC  C21121011   3.684   0.976   5.257  0.3304 -0.8438 -0.4719
  183POPC  H11R21012   3.591   0.933   5.212 -1.3563  0.3879  1.6567
  183POPC  H11S21013   3.759   0.894   5.254  1.1966 -0.0438 -1.4497
  183POPC  C21221014   3.736   1.074   5.150  1.0609  0.5082  0.0752
  183POPC  H12R21015   3.844   1.101   5.161  0.3565  3.4895  0.5556
  183POPC  H12S21016   3.670   1.163   5.149 -0.1328 -0.3607 -0.0487
  183POPC  C21321017   3.719   1.009   5.003  0.1330  0.3871 -0.3834
  183POPC  H13R21018   3.614   0.978   4.984 -0.2162 -0.1243  2.0662
  183POPC  H13S21019   3.781   0.916   5.007  0.4221  0.6201  0.7863
  183POPC  C21421020   3.766   1.107   4.888 -0.4525 -0.4141  0.2843
  183POPC  H14R21021   3.877   1.109   4.890 -0.3217 -1.4768 -2.2872
  183POPC  H14S21022   3.726   1.204   4.925 -0.6027  0.2432 -1.5093
  183POPC  C21521023   3.720   1.054   4.758  0.3835 -0.4501  0.0994
  183POPC  H15R21024   3.611   1.077   4.755  0.2742 -1.0050 -1.9142
  183POPC  H15S21025   3.731   0.945   4.741 -0.7392 -0.3955 -1.0792
  183POPC  C21621026   3.781   1.141   4.643  0.6707  0.2094 -0.0562
  183POPC  H16R21027   3.886   1.105   4.644  1.2122  1.7637  1.3473
  183POPC  H16S21028   3.773   1.245   4.679 -1.4451  0.5205 -1.2517
  183POPC  C21721029   3.721   1.114   4.510  0.1915  0.2565  0.0571
  183POPC  H17R21030   3.617   1.152   4.501  0.9576  2.2993 -0.7852
  183POPC  H17S21031   3.712   1.004   4.498  2.5258  0.0246 -0.0223
  183POPC  C21821032   3.802   1.176   4.389 -0.1813  0.1278  0.0512
  183POPC  H18R21033   3.790   1.286   4.396  1.1199  0.2121  1.8506
  183POPC  H18S21034   3.768   1.132   4.293  1.9864 -3.0280  0.5700
  183POPC  H18T21035   3.910   1.151   4.386 -0.3549 -0.6997  0.2170
  183POPC   C3321036   3.087   0.730   5.540 -0.3982 -0.0430  0.1861
  183POPC   H3X21037   3.043   0.633   5.572 -1.6137  0.9001  1.4775
  183POPC   H3Y21038   3.181   0.755   5.594 -0.6959 -0.7590  1.0632
  183POPC   C3421039   3.106   0.731   5.390 -0.3532 -0.2929 -0.8034
  183POPC   H4X21040   3.170   0.817   5.358 -1.5914  0.1566 -2.1950
  183POPC   H4Y21041   3.009   0.750   5.339  0.0306  0.5197 -1.2639
  183POPC   C3521042   3.171   0.596   5.353 -0.1266  0.2228 -0.6377
  183POPC   H5X21043   3.108   0.513   5.393 -2.1138  2.1796  0.5402
  183POPC   H5Y21044   3.269   0.587   5.404 -1.5983  2.0962  2.8680
  183POPC   C3621045   3.162   0.553   5.202  0.0208  0.1691 -0.2080
  183POPC   H6X21046   3.180   0.443   5.206  0.1372  0.2355  1.4453
  183POPC   H6Y21047   3.251   0.591   5.147  0.9809 -0.5280  0.8075
  183POPC   C3721048   3.031   0.584   5.120 -0.2090  0.8343 -0.1325
  183POPC   H7X21049   3.009   0.693   5.114 -1.4630  0.5549 -1.2218
  183POPC   H7Y21050   2.941   0.550   5.175 -1.1105  2.3009 -0.6472
  183POPC   C3821051   3.029   0.516   4.977 -0.8260  0.2021 -0.7316
  183POPC   H8X21052   3.015   0.406   4.984  0.9484 -0.1918 -2.5655
  183POPC   H8Y21053   3.131   0.525   4.934 -0.2629  1.5127  0.7744
  183POPC   C3921054   2.937   0.578   4.877  0.3740 -0.1685  0.1219
  183POPC   H9X21055   2.967   0.682   4.849  0.0923  0.1878  1.1036
  183POPC   H9Y21056   2.838   0.577   4.926 -0.2980  1.7731 -1.0742
  183POPC  C31021057   2.930   0.491   4.750  0.4068  0.5918 -0.3173
  183POPC  H10X21058   2.830   0.509   4.704  0.2060 -2.4745 -1.3150
  183POPC  H10Y21059   2.921   0.383   4.775 -1.2661  0.8510  0.3738
  183POPC  C31121060   3.037   0.522   4.643  0.2897  0.1068  0.1545
  183POPC  H11X21061   3.136   0.499   4.688 -0.1855  0.2429  1.3212
  183POPC  H11Y21062   3.043   0.628   4.611 -0.2101  0.2034  0.3598
  183POPC  C31221063   3.005   0.448   4.514  0.3581  0.2866  0.6383
  183POPC  H12X21064   3.054   0.494   4.426 -0.8085 -0.9058 -0.6848
  183POPC  H12Y21065   2.896   0.434   4.498  0.9701 -2.0360 -2.4127
  183POPC  C31321066   3.073   0.310   4.520 -0.3748  0.4349 -0.2455
  183POPC  H13X21067   3.029   0.262   4.609 -2.2702  0.4657 -1.1146
  183POPC  H13Y21068   3.181   0.332   4.529  0.2886 -1.0143 -3.2775
  183POPC  C31421069   3.047   0.226   4.392  0.1382 -0.4368 -0.1988
  183POPC  H14X21070   3.076   0.276   4.297 -1.5368 -1.2202 -1.1591
  183POPC  H14Y21071   2.938   0.206   4.392 -0.1529  0.9529  1.3687
  183POPC  C31521072   3.131   0.100   4.380  0.2895  0.2049 -0.6091
  183POPC  H15X21073   3.118   0.046   4.477  2.0456 -1.2103 -1.1015
  183POPC  H15Y21074   3.236   0.134   4.372  0.3655  0.1326  0.0148
  183POPC  C31621075   3.100   0.009   4.259 -0.4692  0.8216 -0.1457
  183POPC  H16X21076   3.134   0.068   4.171 -0.8229  0.0052 -0.8444
  183POPC  H16Y21077   2.992  -0.013   4.246 -0.2508 -0.0461 -0.5959
  183POPC  H16Z21078   3.163  -0.083   4.266 -1.8412 -0.0677  0.8062
  184POPC     N21079   2.509   1.410   6.814 -0.0034  0.3468  0.3642
  184POPC   C1221080   2.520   1.265   6.752  0.4734 -0.6051 -0.1422
  184POPC  H12A21081   2.420   1.225   6.768  0.9138 -0.8241  2.6927
  184POPC  H12B21082   2.589   1.205   6.810  2.2205 -0.8807 -2.3683
  184POPC   C1321083   2.446   1.511   6.724  0.1627 -0.6321 -0.4515
  184POPC  H13A21084   2.520   1.539   6.651  0.2921  0.2395  0.0045
  184POPC  H13B21085   2.358   1.465   6.681 -0.5265  1.2594 -1.1677
  184POPC  H13C21086   2.428   1.592   6.794  2.8868 -0.1890 -0.1489
  184POPC   C1421087   2.431   1.397   6.942 -0.5749  0.4802  0.1335
  184POPC  H14A21088   2.482   1.373   7.034 -3.5448  2.0414  2.3250
  184POPC  H14B21089   2.367   1.482   6.957 -2.1806 -0.5393 -0.5755
  184POPC  H14C21090   2.367   1.310   6.932  1.2351 -0.8125 -0.8388
  184POPC   C1521091   2.635   1.459   6.856 -0.5369 -0.7163  0.1826
  184POPC  H15A21092   2.688   1.384   6.912 -0.8026 -0.6230  0.5640
  184POPC  H15B21093   2.616   1.530   6.935  0.2191 -1.6866  1.2637
  184POPC  H15C21094   2.698   1.507   6.782  0.0347  0.6315  1.4948
  184POPC   C1121095   2.570   1.254   6.608 -0.6792  0.2328 -0.0112
  184POPC  H11A21096   2.496   1.308   6.546 -1.1557 -1.3751 -0.9268
  184POPC  H11B21097   2.578   1.146   6.581  1.4831  0.2440  0.4132
  184POPC     P21098   2.839   1.249   6.587  0.0109  0.1730  0.0300
  184POPC   O1321099   2.856   1.156   6.705 -0.1297 -0.4283 -0.0882
  184POPC   O1421100   2.940   1.350   6.569 -0.6054 -1.2129 -0.3112
  184POPC   O1221101   2.695   1.316   6.601 -0.3669  0.5750  0.0772
  184POPC   O1121102   2.831   1.165   6.456  0.1487 -0.0378  0.7604
  184POPC    C121103   2.824   1.223   6.328  0.4240  0.9214  0.0235
  184POPC    HA21104   2.916   1.285   6.315  0.5477  0.8661  0.5798
  184POPC    HB21105   2.744   1.301   6.327  0.0335  0.5886  1.8511
  184POPC    C221106   2.822   1.117   6.211 -0.3349 -0.6956 -0.0805
  184POPC    HS21107   2.800   1.170   6.116 -1.2644  1.1105  1.0832
  184POPC   O2121108   2.728   1.014   6.236  0.3627 -0.0361  0.3738
  184POPC   C2121109   2.599   1.050   6.218 -0.5910  0.0044  0.3415
  184POPC   O2221110   2.562   1.163   6.189  0.4697  0.8399  0.1245
  184POPC   C2221111   2.512   0.925   6.235  0.1412 -0.6181  0.2669
  184POPC   H2R21112   2.472   0.921   6.339 -1.9752  0.9110 -0.4413
  184POPC   H2S21113   2.571   0.832   6.218  1.1824 -0.3882  2.2545
  184POPC    C321114   2.957   1.046   6.205 -0.7872 -0.2530  0.4096
  184POPC    HX21115   2.950   0.977   6.119  0.8966 -0.1006  0.1079
  184POPC    HY21116   2.980   0.994   6.301  0.5868  0.6758  0.6229
  184POPC   O3121117   3.054   1.139   6.159 -0.2120 -0.2122 -0.1579
  184POPC   C3121118   3.174   1.094   6.149 -0.1143 -0.9336 -1.0114
  184POPC   O3221119   3.211   0.980   6.171 -0.6778 -0.3038  0.3571
  184POPC   C3221120   3.265   1.201   6.091  0.0113 -0.3910  0.0706
  184POPC   H2X21121   3.356   1.210   6.154  0.0095 -0.6380  0.1109
  184POPC   H2Y21122   3.219   1.302   6.104  0.5502  0.2230 -2.3088
  184POPC   C2321123   2.384   0.907   6.148  0.3032 -0.3835 -0.5132
  184POPC   H3R21124   2.312   0.991   6.152  0.1533 -0.2914 -3.2299
  184POPC   H3S21125   2.339   0.810   6.179 -0.6965 -0.4593 -2.0654
  184POPC   C2421126   2.420   0.885   5.995  0.4396  0.2744 -0.5201
  184POPC   H4R21127   2.481   0.792   5.992 -1.0155 -0.8833  2.3911
  184POPC   H4S21128   2.483   0.973   5.969  0.1557  1.5485  2.6453
  184POPC   C2521129   2.304   0.875   5.899 -0.1508  0.6900  0.0271
  184POPC   H5R21130   2.247   0.971   5.904  0.6327  1.2184 -0.8327
  184POPC   H5S21131   2.236   0.793   5.931  0.3099  0.4896  0.4958
  184POPC   C2621132   2.349   0.861   5.749 -0.1236 -0.5044 -0.0278
  184POPC   H6R21133   2.434   0.789   5.742  0.7498  0.1270  2.6866
  184POPC   H6S21134   2.383   0.959   5.711 -1.0318 -0.4589 -0.7627
  184POPC   C2721135   2.224   0.835   5.663  0.2437 -0.0593  0.0243
  184POPC   H7R21136   2.152   0.915   5.691  1.3055  0.9607 -0.0810
  184POPC   H7S21137   2.186   0.740   5.705 -0.4188  1.4310  3.0576
  184POPC   C2821138   2.251   0.830   5.510 -0.2301 -0.0325 -0.6226
  184POPC   H8R21139   2.269   0.936   5.481  0.8390  0.2710  1.0520
  184POPC   H8S21140   2.151   0.814   5.464 -1.1172  2.1136  0.4233
  184POPC   C2921141   2.351   0.736   5.449 -0.1283  0.3970 -0.1697
  184POPC   H9121142   2.431   0.711   5.521 -2.9095 -1.6634  2.4616
  184POPC  C21021143   2.347   0.680   5.322 -0.3245  0.7682 -0.2593
  184POPC  H10121144   2.435   0.620   5.295 -0.3771 -1.0199  3.0033
  184POPC  C21121145   2.249   0.709   5.207 -0.5298 -0.3530  0.5964
  184POPC  H11R21146   2.163   0.773   5.237 -0.6213 -0.2718  0.1686
  184POPC  H11S21147   2.207   0.613   5.170 -0.1577 -0.7356  1.1519
  184POPC  C21221148   2.317   0.783   5.091 -0.3082 -0.9245 -0.0112
  184POPC  H12R21149   2.405   0.721   5.064 -1.2410 -2.0266 -0.6017
  184POPC  H12S21150   2.364   0.880   5.119 -0.4373 -0.9812  0.4097
  184POPC  C21321151   2.224   0.809   4.967  0.4143  0.6188  0.6466
  184POPC  H13R21152   2.272   0.881   4.898 -1.3899  1.2164 -0.0295
  184POPC  H13S21153   2.119   0.833   4.993 -1.3634 -0.3258 -4.5198
  184POPC  C21421154   2.198   0.691   4.875 -0.0173  0.1778 -0.3898
  184POPC  H14R21155   2.153   0.613   4.940  0.3760 -0.6892 -1.1417
  184POPC  H14S21156   2.297   0.652   4.843  0.7422  1.4805  0.2844
  184POPC  C21521157   2.120   0.737   4.754  0.0430 -0.1797 -0.0565
  184POPC  H15R21158   2.165   0.819   4.693 -1.6155  1.8399  1.3054
  184POPC  H15S21159   2.020   0.783   4.771 -0.9164 -2.2091  0.0283
  184POPC  C21621160   2.088   0.626   4.654 -0.1966  0.2141  0.2197
  184POPC  H16R21161   2.026   0.553   4.709 -0.6331 -2.4915 -3.5179
  184POPC  H16S21162   2.185   0.577   4.631  0.4704  1.3860  0.4321
  184POPC  C21721163   2.017   0.667   4.531  0.6995 -0.5643  0.7069
  184POPC  H17R21164   1.941   0.737   4.570  2.5338  1.0025  1.6168
  184POPC  H17S21165   1.965   0.577   4.492 -0.1502  0.3930 -0.4556
  184POPC  C21821166   2.099   0.730   4.422  0.5992 -0.1850 -0.2343
  184POPC  H18R21167   2.033   0.759   4.337  0.5950 -0.3409 -0.2862
  184POPC  H18S21168   2.165   0.660   4.366 -0.4862 -1.3190 -0.1449
  184POPC  H18T21169   2.150   0.821   4.459  2.2604 -0.6599 -1.2516
  184POPC   C3321170   3.315   1.173   5.950  0.4567  0.2071  0.4491
  184POPC   H3X21171   3.358   1.071   5.946  1.1692  0.3850  2.4096
  184POPC   H3Y21172   3.395   1.245   5.923  0.9410 -0.7878 -0.8342
  184POPC   C3421173   3.206   1.190   5.840 -0.6183 -0.4693 -0.6601
  184POPC   H4X21174   3.166   1.293   5.857  1.3945  0.5732 -1.8745
  184POPC   H4Y21175   3.129   1.110   5.843 -1.2198  0.0963  2.3676
  184POPC   C3521176   3.253   1.202   5.699 -0.5773 -0.9261 -0.7340
  184POPC   H5X21177   3.296   1.107   5.660 -0.7006 -0.8039 -1.1715
  184POPC   H5Y21178   3.338   1.274   5.694 -0.8341 -0.5186  0.4206
  184POPC   C3621179   3.147   1.226   5.596 -0.5046  0.4116  0.6711
  184POPC   H6X21180   3.123   1.334   5.589 -2.7071 -0.1127 -2.1454
  184POPC   H6Y21181   3.055   1.170   5.626  0.5811 -0.7025  2.0292
  184POPC   C3721182   3.193   1.195   5.456  0.6370  0.1598 -0.0588
  184POPC   H7X21183   3.247   1.098   5.462 -0.3003 -0.2926  1.5955
  184POPC   H7Y21184   3.268   1.271   5.424 -0.3425  1.4938  0.6732
  184POPC   C3821185   3.073   1.179   5.363 -0.3729  0.6845  0.1561
  184POPC   H8X21186   3.029   1.281   5.373 -1.0845  0.2739  1.6510
  184POPC   H8Y21187   3.002   1.103   5.404  0.2990 -0.4654 -0.7656
  184POPC   C3921188   3.108   1.151   5.218 -0.3120  0.1056 -0.0744
  184POPC   H9X21189   3.181   1.226   5.182  1.0634 -1.5737 -0.8849
  184POPC   H9Y21190   3.018   1.150   5.152 -0.2265 -2.0173 -0.2238
  184POPC  C31021191   3.182   1.021   5.184 -0.0180 -0.1244  0.5553
  184POPC  H10X21192   3.112   0.935   5.192 -0.1427 -0.0042  0.7894
  184POPC  H10Y21193   3.266   1.005   5.255  1.1258 -0.6517 -0.8779
  184POPC  C31121194   3.242   1.028   5.047 -0.0028  0.2227  0.9506
  184POPC  H11X21195   3.324   1.102   5.047 -0.3639  0.8042 -2.7566
  184POPC  H11Y21196   3.162   1.074   4.985 -0.1507 -0.3279  0.7249
  184POPC  C31221197   3.288   0.885   4.993  0.0135 -0.7929 -0.0802
  184POPC  H12X21198   3.203   0.816   5.012  2.5061 -4.1145 -0.1368
  184POPC  H12Y21199   3.369   0.849   5.060  0.0695 -3.5870 -1.5420
  184POPC  C31321200   3.315   0.873   4.841  0.2940  0.2063  0.5960
  184POPC  H13X21201   3.392   0.946   4.810  0.3909 -0.1200  0.0421
  184POPC  H13Y21202   3.220   0.915   4.801 -0.5277  0.2525  2.4952
  184POPC  C31421203   3.332   0.725   4.792  0.2581 -0.7358  0.4997
  184POPC  H14X21204   3.235   0.674   4.811 -0.5815  0.7259  0.3241
  184POPC  H14Y21205   3.411   0.697   4.865 -0.0053  0.6199  1.3355
  184POPC  C31521206   3.388   0.710   4.644  0.4352  0.0353 -0.5584
  184POPC  H15X21207   3.306   0.733   4.573  0.2627  2.1676  0.2480
  184POPC  H15Y21208   3.427   0.606   4.642 -1.0570 -0.5387 -1.8096
  184POPC  C31621209   3.511   0.789   4.607  0.6462  0.5044 -0.0776
  184POPC  H16X21210   3.561   0.739   4.521  1.9062  1.5377  0.0127
  184POPC  H16Y21211   3.587   0.797   4.688 -1.8053  0.7169  2.3101
  184POPC  H16Z21212   3.500   0.894   4.572  2.9184  1.0661  0.6894
  185POPC     N21213   3.147   4.577   2.290  0.5740 -0.4386 -0.5090
  185POPC   C1221214   3.101   4.566   2.147 -0.3159  0.1650  0.1896
  185POPC  H12A21215   3.195   4.549   2.097 -0.8214  3.5648 -2.3170
  185POPC  H12B21216   3.064   4.664   2.121  2.2150  0.9757 -0.7342
  185POPC   C1321217   3.030   4.610   2.373 -0.4554 -0.4616  0.4852
  185POPC  H13A21218   2.996   4.710   2.348  0.8313  0.5638  2.5182
  185POPC  H13B21219   2.949   4.542   2.353 -1.4367  0.0623  2.3577
  185POPC  H13C21220   3.046   4.615   2.480 -0.5267 -1.7583  0.5722
  185POPC   C1421221   3.217   4.450   2.326  0.5926 -0.7946 -0.1622
  185POPC  H14A21222   3.297   4.421   2.261  1.8078 -0.4605  1.1347
  185POPC  H14B21223   3.261   4.458   2.424 -1.1074 -0.7967  0.6363
  185POPC  H14C21224   3.146   4.368   2.330 -0.4169  0.0784  0.5255
  185POPC   C1521225   3.246   4.688   2.299  0.1925 -0.0711 -0.0097
  185POPC  H15A21226   3.206   4.783   2.266  1.7698  0.6140 -0.0557
  185POPC  H15B21227   3.331   4.674   2.233 -0.7128  0.7945 -1.4118
  185POPC  H15C21228   3.285   4.695   2.400  1.2529  2.4183 -0.5123
  185POPC   C1121229   2.995   4.457   2.123  1.3877 -0.5250  0.4712
  185POPC  H11A21230   3.016   4.365   2.181 -0.8745 -0.2905  1.7684
  185POPC  H11B21231   2.991   4.425   2.016  1.9278  3.0813 -0.7564
  185POPC     P21232   2.783   4.586   2.048 -0.2656 -0.2865  0.1833
  185POPC   O1321233   2.796   4.520   1.915  0.2579  0.3441  0.8845
  185POPC   O1421234   2.816   4.735   2.047 -0.2898  0.4753  0.0700
  185POPC   O1221235   2.866   4.513   2.152 -0.2065  0.5593 -0.2062
  185POPC   O1121236   2.639   4.562   2.102 -0.3344  0.1201 -0.0636
  185POPC    C121237   2.612   4.472   2.212 -0.0771 -0.2595 -0.0022
  185POPC    HA21238   2.647   4.369   2.190  0.2249 -0.2331  0.3412
  185POPC    HB21239   2.504   4.458   2.231 -0.0424 -1.6495 -0.7046
  185POPC    C221240   2.655   4.537   2.353  0.2560  0.0840 -0.6687
  185POPC    HS21241   2.762   4.563   2.362 -0.2400  1.8773  0.4420
  185POPC   O2121242   2.606   4.468   2.467 -0.0816 -0.2635 -0.0135
  185POPC   C2121243   2.633   4.338   2.465  0.4137  0.1020 -0.1221
  185POPC   O2221244   2.706   4.280   2.391  0.1449  0.3307  0.1667
  185POPC   C2221245   2.554   4.267   2.579  0.1274  0.5121 -0.0847
  185POPC   H2R21246   2.509   4.175   2.537  0.7222  0.8457 -1.5190
  185POPC   H2S21247   2.465   4.332   2.597 -0.2360 -0.2750  1.0678
  185POPC    C321248   2.588   4.679   2.373 -0.9013 -0.2528  0.1990
  185POPC    HX21249   2.477   4.677   2.368 -1.0159  2.1957  0.5243
  185POPC    HY21250   2.616   4.734   2.281 -0.0145 -0.3761  0.3846
  185POPC   O3121251   2.632   4.745   2.494  0.2787 -0.6727 -0.1856
  185POPC   C3121252   2.749   4.809   2.482 -0.4507  0.1031  0.4240
  185POPC   O3221253   2.816   4.820   2.383 -0.0668  0.5310 -0.0690
  185POPC   C3221254   2.791   4.868   2.615  0.1407  1.2873 -0.2082
  185POPC   H2X21255   2.873   4.942   2.602  1.6346 -0.2907 -0.2253
  185POPC   H2Y21256   2.825   4.788   2.684 -1.5811  1.1880  0.5704
  185POPC   C2321257   2.632   4.238   2.703  0.5752  0.1517  0.0149
  185POPC   H3R21258   2.691   4.331   2.719  0.4236  0.4416 -1.0466
  185POPC   H3S21259   2.704   4.156   2.686  1.0836  0.7789 -0.9256
  185POPC   C2421260   2.550   4.219   2.831 -0.2833  0.0695 -0.6904
  185POPC   H4R21261   2.514   4.114   2.833 -0.6576  0.2140  0.5621
  185POPC   H4S21262   2.466   4.292   2.829  1.1996  2.2557  4.0281
  185POPC   C2521263   2.639   4.244   2.950 -0.8052  0.0019  0.0449
  185POPC   H5R21264   2.658   4.353   2.964  1.0948 -0.3475  0.4826
  185POPC   H5S21265   2.737   4.194   2.941 -1.4146 -0.9770 -1.4742
  185POPC   C2621266   2.572   4.196   3.078  0.4207  0.1328  0.0380
  185POPC   H6R21267   2.591   4.087   3.080 -0.5003 -0.0595 -0.9123
  185POPC   H6S21268   2.462   4.205   3.072  0.4256  1.4013  1.3454
  185POPC   C2721269   2.636   4.262   3.199  0.4036  0.2087  0.9512
  185POPC   H7R21270   2.609   4.368   3.218  1.8481  1.0956 -1.4265
  185POPC   H7S21271   2.745   4.245   3.183  0.4096  1.8254 -1.0625
  185POPC   C2821272   2.602   4.193   3.332 -0.7761  0.0773  0.0854
  185POPC   H8R21273   2.623   4.089   3.300 -0.7335 -0.6886  2.4440
  185POPC   H8S21274   2.494   4.197   3.358 -1.0224  2.7784 -1.0001
  185POPC   C2921275   2.679   4.236   3.458 -0.4345 -0.6788  0.7161
  185POPC   H9121276   2.672   4.345   3.472 -0.7788 -0.0221 -3.3643
  185POPC  C21021277   2.764   4.166   3.524  0.2846  0.4605  0.5115
  185POPC  H10121278   2.828   4.219   3.597  0.7229 -0.5141  0.8561
  185POPC  C21121279   2.794   4.023   3.497  0.1012 -0.3057  0.1608
  185POPC  H11R21280   2.904   4.012   3.501  0.0037 -1.0429  3.5945
  185POPC  H11S21281   2.766   3.990   3.394 -0.3311  2.3244 -0.6421
  185POPC  C21221282   2.729   3.923   3.597  0.4838  0.4876  0.5449
  185POPC  H12R21283   2.620   3.936   3.608  0.5159  2.9746 -1.2676
  185POPC  H12S21284   2.771   3.929   3.700 -1.5590 -0.4457  1.4838
  185POPC  C21321285   2.755   3.776   3.552 -0.8389  0.3130  0.5701
  185POPC  H13R21286   2.862   3.761   3.578 -1.2541 -0.3940  1.9369
  185POPC  H13S21287   2.725   3.759   3.446 -1.0402  0.3380  0.6232
  185POPC  C21421288   2.674   3.683   3.634 -0.6172  0.3345 -0.3112
  185POPC  H14R21289   2.578   3.735   3.652 -0.4828  1.2407 -1.9599
  185POPC  H14S21290   2.726   3.658   3.729  0.4115 -1.7008 -1.3300
  185POPC  C21521291   2.636   3.556   3.556  0.1608  0.0735 -0.1251
  185POPC  H15R21292   2.720   3.484   3.548  1.0955  1.1221  0.0247
  185POPC  H15S21293   2.603   3.586   3.455  1.5306 -0.4109 -0.7360
  185POPC  C21621294   2.528   3.480   3.634 -0.1422  0.4263 -0.0643
  185POPC  H16R21295   2.504   3.387   3.577  0.7323  0.2972 -0.2348
  185POPC  H16S21296   2.439   3.546   3.626 -0.0476  0.6203  0.4525
  185POPC  C21721297   2.559   3.449   3.783  0.2686 -0.5035 -0.2059
  185POPC  H17R21298   2.539   3.546   3.834 -0.3240 -0.9649  0.4478
  185POPC  H17S21299   2.659   3.403   3.801 -0.0338 -0.6262  1.3719
  185POPC  C21821300   2.459   3.351   3.840  0.5406  0.3216 -0.4937
  185POPC  H18R21301   2.466   3.369   3.949  1.3629  0.7470 -0.6163
  185POPC  H18S21302   2.486   3.246   3.818  1.7734  0.4425  0.3513
  185POPC  H18T21303   2.358   3.379   3.802 -0.2738  1.4628  2.2468
  185POPC   C3321304   2.660   4.919   2.686 -0.0274 -0.0977  0.7998
  185POPC   H3X21305   2.599   4.832   2.720 -2.2750  1.4368  0.8440
  185POPC   H3Y21306   2.597   4.984   2.622  0.4630 -2.3321 -2.1984
  185POPC   C3421307   2.710   4.986   2.817 -0.1052 -0.4202 -0.5868
  185POPC   H4X21308   2.786   5.055   2.775 -2.3347  0.6352 -3.1466
  185POPC   H4Y21309   2.750   4.900   2.877 -0.0039 -2.4004 -3.2980
  185POPC   C3521310   2.599   5.054   2.889  0.0041 -0.0214 -0.0663
  185POPC   H5X21311   2.539   4.975   2.940  1.3995  0.2007  2.0710
  185POPC   H5Y21312   2.535   5.110   2.818 -0.0430 -0.1323 -0.1113
  185POPC   C3621313   2.638   5.152   3.005 -0.4676  0.3218  0.3171
  185POPC   H6X21314   2.549   5.201   3.050 -0.8000  0.9455 -0.9727
  185POPC   H6Y21315   2.687   5.242   2.963 -1.6166  0.5023 -0.6928
  185POPC   C3721316   2.721   5.093   3.116  0.3560 -0.4148 -0.4712
  185POPC   H7X21317   2.814   5.054   3.071  2.0329  1.7353  0.9149
  185POPC   H7Y21318   2.665   5.006   3.156  2.7537 -1.2661  1.2340
  185POPC   C3821319   2.751   5.196   3.222 -0.5691  0.0155 -0.7237
  185POPC   H8X21320   2.656   5.213   3.277 -1.0312 -0.2533 -1.4273
  185POPC   H8Y21321   2.781   5.291   3.172  2.0306 -0.4811 -0.2730
  185POPC   C3921322   2.849   5.144   3.332 -0.4748  0.1555 -0.2416
  185POPC   H9X21323   2.942   5.100   3.291 -1.9426 -2.1334 -1.4088
  185POPC   H9Y21324   2.809   5.053   3.383  1.6874 -0.5128  0.3433
  185POPC  C31021325   2.885   5.252   3.424  0.3958 -0.1335  0.4204
  185POPC  H10X21326   2.913   5.338   3.360  0.3086 -0.5948 -0.2460
  185POPC  H10Y21327   2.974   5.204   3.471  0.6192  1.0271  1.2303
  185POPC  C31121328   2.787   5.289   3.538 -0.8619 -0.0345 -1.0150
  185POPC  H11X21329   2.784   5.202   3.607 -0.6362  0.5963 -0.1946
  185POPC  H11Y21330   2.686   5.308   3.496 -0.1777  0.5143 -2.4721
  185POPC  C31221331   2.825   5.408   3.626 -0.6210  0.7345  0.2412
  185POPC  H12X21332   2.871   5.489   3.564 -4.2449  0.3797 -3.3480
  185POPC  H12Y21333   2.890   5.353   3.697 -2.6216  0.3161  1.8059
  185POPC  C31321334   2.709   5.461   3.710  0.0924  0.9749 -0.3239
  185POPC  H13X21335   2.648   5.378   3.752  0.8614  1.1965  1.2917
  185POPC  H13Y21336   2.648   5.515   3.634  1.1347  2.7036 -0.0010
  185POPC  C31421337   2.744   5.554   3.823 -0.4963  0.2664 -0.4230
  185POPC  H14X21338   2.795   5.639   3.773  2.4407 -0.3185  1.3163
  185POPC  H14Y21339   2.827   5.503   3.876  0.6291  2.0395 -0.4167
  185POPC  C31521340   2.633   5.577   3.925 -0.8070  0.4634  0.6922
  185POPC  H15X21341   2.592   5.479   3.957 -2.9896  1.6913  1.8765
  185POPC  H15Y21342   2.553   5.629   3.868 -0.3381 -1.1708 -1.5677
  185POPC  C31621343   2.672   5.666   4.044  0.9177 -0.1101  0.2144
  185POPC  H16X21344   2.738   5.606   4.109 -1.2936 -1.3856  1.3911
  185POPC  H16Y21345   2.591   5.708   4.108  0.4157  1.7742 -1.5197
  185POPC  H16Z21346   2.723   5.760   4.012  0.8224  0.3690  1.4159
  186POPC     N21347   5.800   5.305   1.419 -0.4912 -0.1951 -0.8588
  186POPC   C1221348   5.804   5.252   1.560  0.3729 -0.2271 -0.3580
  186POPC  H12A21349   5.827   5.146   1.557  3.0039  0.2503  0.3407
  186POPC  H12B21350   5.701   5.248   1.592  0.4932 -2.4317 -0.0780
  186POPC   C1321351   5.744   5.441   1.415 -0.0639 -0.7004  0.0875
  186POPC  H13A21352   5.642   5.436   1.449 -0.1322 -0.4158 -0.0778
  186POPC  H13B21353   5.798   5.512   1.476 -0.3574  0.4243 -0.9206
  186POPC  H13C21354   5.749   5.477   1.314  0.1966  2.1047  1.0208
  186POPC   C1421355   5.943   5.309   1.361  0.0255 -0.0406  0.1252
  186POPC  H14A21356   5.981   5.209   1.349  1.8933  0.8218 -1.6353
  186POPC  H14B21357   5.953   5.372   1.274 -2.0530 -0.6369 -0.6262
  186POPC  H14C21358   6.012   5.344   1.436 -0.2799 -1.8464  1.2966
  186POPC   C1521359   5.724   5.202   1.341  0.3235 -0.1169  0.2826
  186POPC  H15A21360   5.618   5.204   1.362 -0.2149 -0.6943 -2.0761
  186POPC  H15B21361   5.773   5.109   1.367  0.0680 -0.8137 -1.5762
  186POPC  H15C21362   5.737   5.201   1.234  0.2166 -2.6620  0.2329
  186POPC   C1121363   5.885   5.329   1.660 -0.5072  0.0259 -0.1644
  186POPC  H11A21364   5.868   5.298   1.765 -2.3575  2.6551  0.4018
  186POPC  H11B21365   5.870   5.439   1.655  2.1652  0.4100 -2.6652
  186POPC     P21366   6.099   5.167   1.676  0.3705  0.4158 -0.1265
  186POPC   O1321367   6.209   5.133   1.585 -0.1366  0.6728 -0.3176
  186POPC   O1421368   5.990   5.072   1.686 -0.0960  0.1042 -0.0420
  186POPC   O1221369   6.026   5.309   1.633 -0.3534  0.3519  0.0144
  186POPC   O1121370   6.151   5.199   1.819 -1.0032  0.1694  0.3164
  186POPC    C121371   6.169   5.332   1.874 -0.1870 -0.1899  0.2133
  186POPC    HA21372   6.111   5.403   1.811  0.0993 -1.4250 -1.5254
  186POPC    HB21373   6.271   5.371   1.853 -0.2714 -0.4616 -0.7481
  186POPC    C221374   6.141   5.341   2.023 -1.0629 -1.0599 -0.2511
  186POPC    HS21375   6.138   5.449   2.048 -0.0518 -0.6969 -1.5821
  186POPC   O2121376   6.249   5.271   2.083  0.4829  0.7134 -0.8619
  186POPC   C2121377   6.288   5.313   2.201 -0.2469 -0.4377 -0.6120
  186POPC   O2221378   6.240   5.412   2.255 -0.0952  0.4373 -0.0738
  186POPC   C2221379   6.412   5.233   2.260  0.6544  0.4776 -0.2228
  186POPC   H2R21380   6.500   5.247   2.194  2.3502 -1.0679  1.5599
  186POPC   H2S21381   6.368   5.132   2.276 -1.2047  1.5469  1.9273
  186POPC    C321382   6.005   5.286   2.065 -0.3048  0.1869 -0.1077
  186POPC    HX21383   6.004   5.180   2.032 -1.8277  0.1989 -0.1821
  186POPC    HY21384   5.926   5.345   2.014  1.0485  0.8271 -1.5756
  186POPC   O3121385   5.982   5.289   2.212  0.2281  0.7943  0.5901
  186POPC   C3121386   5.926   5.394   2.252  0.1826  0.1386 -0.4755
  186POPC   O3221387   5.893   5.491   2.182  0.0396  0.1413 -0.0492
  186POPC   C3221388   5.893   5.375   2.405  0.2631 -0.0586  0.2704
  186POPC   H2X21389   5.976   5.316   2.450  1.7428  1.6776 -0.0880
  186POPC   H2Y21390   5.802   5.311   2.416  1.9047 -2.8929 -1.2603
  186POPC   C2321391   6.447   5.294   2.402  0.1025  0.1249  0.2436
  186POPC   H3R21392   6.356   5.302   2.466 -0.3598 -1.3950 -0.1814
  186POPC   H3S21393   6.494   5.394   2.392 -0.0248  0.0841 -0.8648
  186POPC   C2421394   6.553   5.208   2.474 -0.1999 -0.1314  0.7192
  186POPC   H4R21395   6.632   5.186   2.399 -2.6513 -1.3297 -1.6714
  186POPC   H4S21396   6.509   5.111   2.503 -1.6512  0.0539 -0.7169
  186POPC   C2521397   6.608   5.267   2.607 -0.2231  0.1072  0.6575
  186POPC   H5R21398   6.650   5.367   2.581  1.6004 -0.6522  0.5671
  186POPC   H5S21399   6.690   5.205   2.647 -0.2923 -0.8178 -0.5554
  186POPC   C2621400   6.508   5.284   2.717 -0.0467 -0.6944  0.1959
  186POPC   H6R21401   6.460   5.186   2.737  2.3766 -2.3618 -1.6844
  186POPC   H6S21402   6.429   5.352   2.677  2.2595  0.2762 -3.1839
  186POPC   C2721403   6.571   5.343   2.844  0.6834 -0.1220  0.3613
  186POPC   H7R21404   6.492   5.403   2.893 -1.5082 -0.2969 -2.6440
  186POPC   H7S21405   6.657   5.406   2.813  0.0124 -0.8015 -3.3474
  186POPC   C2821406   6.595   5.231   2.940  0.2619  0.0327  0.6307
  186POPC   H8R21407   6.693   5.187   2.909 -0.8633 -1.7256 -0.6272
  186POPC   H8S21408   6.530   5.144   2.918 -1.0651  0.9279  0.9154
  186POPC   C2921409   6.580   5.274   3.085  0.1686  0.2450 -0.1656
  186POPC   H9121410   6.479   5.248   3.120  0.0124 -0.2329 -0.9635
  186POPC  C21021411   6.669   5.335   3.164 -0.6634  0.3030 -0.9736
  186POPC  H10121412   6.635   5.356   3.266  1.8332 -2.0914  0.5088
  186POPC  C21121413   6.812   5.373   3.130 -0.3100 -0.7213 -0.3367
  186POPC  H11R21414   6.832   5.363   3.022 -1.7557  3.0850 -1.1380
  186POPC  H11S21415   6.883   5.310   3.186 -0.0701  0.4442  0.7239
  186POPC  C21221416   6.840   5.517   3.179 -0.2990 -0.1856  0.4649
  186POPC  H12R21417   6.835   5.531   3.290  2.4314 -0.7247  0.7333
  186POPC  H12S21418   6.771   5.589   3.131  2.6931  0.6067 -3.1527
  186POPC  C21321419   6.981   5.552   3.141  0.2758  0.6458 -0.6093
  186POPC  H13R21420   7.005   5.658   3.165 -0.3425  1.1677 -2.1627
  186POPC  H13S21421   6.980   5.545   3.030  1.6861  2.3687 -0.7689
  186POPC  C21421422   7.090   5.457   3.191 -0.4219 -0.3586  0.0459
  186POPC  H14R21423   7.085   5.357   3.143  1.3909  0.0362 -1.0734
  186POPC  H14S21424   7.078   5.432   3.299 -0.6359 -1.4715 -0.2229
  186POPC  C21521425   7.229   5.520   3.163 -0.0637  0.4957  0.6372
  186POPC  H15R21426   7.309   5.462   3.212  0.0345  2.9554  3.6709
  186POPC  H15S21427   7.246   5.619   3.210 -0.6231  0.6374  0.5494
  186POPC  C21621428   7.269   5.517   3.013  0.1943  0.2982 -0.4355
  186POPC  H16R21429   7.191   5.576   2.960 -1.0338  0.1769  1.1308
  186POPC  H16S21430   7.245   5.412   2.986 -2.4060  0.3760  1.1888
  186POPC  C21721431   7.408   5.556   2.983 -0.5059 -0.1415 -0.8972
  186POPC  H17R21432   7.472   5.476   3.024 -0.1008 -0.3987 -1.9909
  186POPC  H17S21433   7.426   5.650   3.039  0.2485 -2.0081  2.1957
  186POPC  C21821434   7.436   5.573   2.833 -0.2213 -0.5632 -0.2425
  186POPC  H18R21435   7.543   5.600   2.819 -0.3662  0.1879  0.0562
  186POPC  H18S21436   7.428   5.470   2.792  2.2830 -0.8589 -0.1205
  186POPC  H18T21437   7.357   5.640   2.792 -0.4657 -0.2960  0.6434
  186POPC   C3321438   5.866   5.506   2.489  0.1677  0.2387  0.3179
  186POPC   H3X21439   5.795   5.570   2.432  0.3656 -0.0070 -0.2163
  186POPC   H3Y21440   5.958   5.568   2.487 -0.3818  1.1008  1.1050
  186POPC   C3421441   5.834   5.478   2.636  0.7172 -0.1643  0.1357
  186POPC   H4X21442   5.880   5.382   2.667 -0.7395 -1.7629 -2.3036
  186POPC   H4Y21443   5.728   5.448   2.627  0.8008 -0.3640 -0.2120
  186POPC   C3521444   5.841   5.594   2.730  0.2080  0.7461 -0.9295
  186POPC   H5X21445   5.775   5.675   2.695  0.6282  1.0750 -0.9710
  186POPC   H5Y21446   5.945   5.634   2.732  0.1242  1.0226 -1.8433
  186POPC   C3621447   5.790   5.542   2.869  0.1525  0.2862 -0.5472
  186POPC   H6X21448   5.864   5.467   2.907 -1.0627 -1.0808 -0.7834
  186POPC   H6Y21449   5.694   5.487   2.870 -0.0925  0.6889  1.3489
  186POPC   C3721450   5.790   5.649   2.979 -0.1057  0.5082  0.5773
  186POPC   H7X21451   5.719   5.722   2.935 -1.0850 -1.1734 -0.7398
  186POPC   H7Y21452   5.887   5.701   2.997  0.4234 -0.3164  0.1627
  186POPC   C3821453   5.747   5.589   3.110  0.0167  0.1872  0.0534
  186POPC   H8X21454   5.805   5.503   3.151  0.7828  0.1605 -1.0405
  186POPC   H8Y21455   5.640   5.563   3.094  0.4131 -1.5811  0.0570
  186POPC   C3921456   5.737   5.687   3.227 -0.2809 -0.0096 -0.0166
  186POPC   H9X21457   5.676   5.778   3.208  0.8274  0.9965  1.0325
  186POPC   H9Y21458   5.837   5.732   3.248 -0.3646  0.2872 -0.2453
  186POPC  C31021459   5.680   5.622   3.354 -0.1492  0.4765  0.2744
  186POPC  H10X21460   5.759   5.546   3.370 -0.8129  0.0709  1.7488
  186POPC  H10Y21461   5.592   5.566   3.317  0.2115  0.0565  0.0310
  186POPC  C31121462   5.644   5.722   3.465 -0.2240 -0.4251 -0.4292
  186POPC  H11X21463   5.552   5.777   3.436  0.7017  0.6922 -1.3083
  186POPC  H11Y21464   5.736   5.783   3.473 -1.1137  0.8899 -0.0457
  186POPC  C31221465   5.599   5.651   3.594  0.3142 -0.8616  0.4548
  186POPC  H12X21466   5.513   5.583   3.576  0.5126 -0.7237 -1.1602
  186POPC  H12Y21467   5.565   5.728   3.667  2.5770 -0.7440  1.4813
  186POPC  C31321468   5.717   5.588   3.667  0.0052  0.5296 -0.0183
  186POPC  H13X21469   5.769   5.509   3.608 -0.3419  0.3303 -0.0573
  186POPC  H13Y21470   5.689   5.530   3.757 -0.7388  1.5998  0.4582
  186POPC  C31421471   5.814   5.694   3.719 -0.8969 -1.4356  0.4694
  186POPC  H14X21472   5.756   5.779   3.762 -1.5575 -1.6992  0.1023
  186POPC  H14Y21473   5.878   5.739   3.640 -0.0601  0.6453  2.2309
  186POPC  C31521474   5.912   5.643   3.818  0.2875  0.4360  0.4900
  186POPC  H15X21475   5.970   5.562   3.770  0.8352  1.0370  0.1286
  186POPC  H15Y21476   5.852   5.591   3.897  0.3167 -0.1864  0.1134
  186POPC  C31621477   5.998   5.762   3.870  0.5426  0.1961 -0.2782
  186POPC  H16X21478   6.066   5.732   3.952 -0.4265  1.9172  1.2359
  186POPC  H16Y21479   5.938   5.851   3.898  1.4767  0.9307 -0.5415
  186POPC  H16Z21480   6.074   5.791   3.795  1.0295  0.4306  0.2982
  187POPC     N21481   4.359   2.954   1.474 -0.1884 -0.9343 -0.3219
  187POPC   C1221482   4.377   3.023   1.607 -0.3394 -0.0957 -0.7316
  187POPC  H12A21483   4.331   3.121   1.610  2.4434  1.2838  1.2696
  187POPC  H12B21484   4.482   3.051   1.607 -0.4398  0.7656  2.9504
  187POPC   C1321485   4.439   2.827   1.460 -0.6858  0.0295  0.1376
  187POPC  H13A21486   4.409   2.744   1.522  1.7122 -0.2588  1.0117
  187POPC  H13B21487   4.436   2.790   1.358  0.0309 -0.9318  0.4497
  187POPC  H13C21488   4.545   2.842   1.473 -0.6099  1.2370 -1.5558
  187POPC   C1421489   4.211   2.918   1.457  0.3836 -0.2178 -0.3392
  187POPC  H14A21490   4.182   2.873   1.551 -0.4273  1.0063  0.0159
  187POPC  H14B21491   4.145   3.002   1.444 -0.4059 -0.8860 -0.7616
  187POPC  H14C21492   4.187   2.849   1.377 -2.3449 -1.6407  1.5534
  187POPC   C1521493   4.393   3.051   1.360 -0.8318  0.1517  0.5833
  187POPC  H15A21494   4.352   3.012   1.268  1.2915 -2.0332  0.4871
  187POPC  H15B21495   4.499   3.062   1.345 -0.8573 -2.2423 -2.1197
  187POPC  H15C21496   4.345   3.147   1.373 -1.8425 -0.2666  0.0318
  187POPC   C1121497   4.328   2.956   1.730 -1.0002  0.0047 -0.3630
  187POPC  H11A21498   4.369   3.002   1.823 -0.7256 -1.5634  0.3252
  187POPC  H11B21499   4.372   2.854   1.722  0.0918  0.6068 -3.9710
  187POPC     P21500   4.102   3.062   1.792 -0.3355  0.3441 -0.0836
  187POPC   O1321501   3.961   3.043   1.751  0.1219 -0.0791 -0.1568
  187POPC   O1421502   4.173   3.182   1.748  0.1678 -0.1314 -0.4166
  187POPC   O1221503   4.186   2.940   1.735 -0.4710  0.2822 -0.3489
  187POPC   O1121504   4.126   3.047   1.950  0.0620 -0.9137  0.0504
  187POPC    C121505   4.153   2.924   2.016  0.5084 -0.4668 -0.2421
  187POPC    HA21506   4.259   2.925   2.049  0.7953 -0.8792 -1.1276
  187POPC    HB21507   4.142   2.830   1.956  0.4715 -1.0343  0.6320
  187POPC    C221508   4.071   2.910   2.147  0.5377  0.1776  0.2443
  187POPC    HS21509   4.060   2.803   2.176 -0.7647  0.2989  0.2490
  187POPC   O2121510   3.944   2.964   2.122 -0.1655 -0.4415 -0.1361
  187POPC   C2121511   3.847   2.888   2.077 -0.0216  0.3368 -0.3468
  187POPC   O2221512   3.854   2.776   2.035  0.0409  0.1216 -0.4175
  187POPC   C2221513   3.737   2.991   2.058  0.5332  0.5215 -0.2744
  187POPC   H2R21514   3.693   2.975   1.958 -2.0159  0.2081  0.8140
  187POPC   H2S21515   3.772   3.096   2.070  0.7176  0.3523  0.7781
  187POPC    C321516   4.138   2.974   2.272 -0.3889  0.1253  0.6059
  187POPC    HX21517   4.102   3.078   2.283  0.6841  0.5023  0.7029
  187POPC    HY21518   4.246   2.986   2.251 -0.1734  1.0606  2.0755
  187POPC   O3121519   4.112   2.898   2.392  0.3898 -0.1244  0.2562
  187POPC   C3121520   4.161   2.966   2.496  1.3169 -0.0118 -0.0414
  187POPC   O3221521   4.206   3.077   2.496  0.3788 -0.2685  0.1050
  187POPC   C3221522   4.137   2.882   2.621 -0.1936  0.0725 -0.7048
  187POPC   H2X21523   4.191   2.786   2.614  1.0622  0.6335  0.7455
  187POPC   H2Y21524   4.027   2.867   2.625 -0.0609 -0.9917 -1.0172
  187POPC   C2321525   3.627   2.971   2.162 -0.6037 -0.1083 -0.6266
  187POPC   H3R21526   3.559   2.884   2.156 -1.5559  0.4853  0.9658
  187POPC   H3S21527   3.562   3.060   2.153 -0.0420  0.5061  1.0176
  187POPC   C2421528   3.686   2.979   2.302 -0.2713  0.0865  0.7624
  187POPC   H4R21529   3.599   3.012   2.363  0.9993  0.3618  2.5189
  187POPC   H4S21530   3.768   3.054   2.310  0.8917 -0.4017 -3.6967
  187POPC   C2521531   3.727   2.835   2.361 -0.4626 -0.3285 -0.8742
  187POPC   H5R21532   3.832   2.811   2.337  0.0265 -0.4842  1.2525
  187POPC   H5S21533   3.667   2.758   2.308 -1.2069 -0.4297  0.0880
  187POPC   C2621534   3.706   2.823   2.514 -0.1759  0.8901  0.3432
  187POPC   H6R21535   3.765   2.735   2.546 -1.2445 -1.5516 -3.5915
  187POPC   H6S21536   3.601   2.797   2.542  0.2929 -1.2057  0.2834
  187POPC   C2721537   3.742   2.948   2.590 -0.0512 -0.0769  0.3614
  187POPC   H7R21538   3.677   3.037   2.588 -0.2955 -0.2434  0.8699
  187POPC   H7S21539   3.846   2.977   2.561 -0.1082 -0.4149 -0.2091
  187POPC   C2821540   3.753   2.915   2.740 -0.1597  0.0721  0.4866
  187POPC   H8R21541   3.801   2.996   2.800 -2.0520  3.5122 -2.2398
  187POPC   H8S21542   3.826   2.831   2.739  0.8562  0.9204  0.1715
  187POPC   C2921543   3.621   2.869   2.798 -0.6552 -0.8602 -0.3137
  187POPC   H9121544   3.553   2.805   2.740  0.2015 -1.7914 -0.3173
  187POPC  C21021545   3.578   2.895   2.927 -0.5723 -1.0165  0.0999
  187POPC  H10121546   3.484   2.856   2.967 -0.8476  1.2300  1.8489
  187POPC  C21121547   3.668   2.964   3.032  0.3780  0.6431  0.3765
  187POPC  H11R21548   3.656   3.074   3.036 -0.8985  0.5069  0.6684
  187POPC  H11S21549   3.777   2.954   3.011  0.2101  0.5273 -0.4535
  187POPC  C21221550   3.673   2.908   3.177 -0.4164 -0.7684 -0.3354
  187POPC  H12R21551   3.717   2.806   3.178 -2.6863 -1.8181  1.3859
  187POPC  H12S21552   3.571   2.909   3.221 -0.0207  0.8470  0.6136
  187POPC  C21321553   3.767   2.999   3.260  0.2769 -0.6503  1.0392
  187POPC  H13R21554   3.742   3.107   3.256  2.1973 -0.1520 -3.1636
  187POPC  H13S21555   3.872   2.992   3.222  0.0540 -0.3512  0.3435
  187POPC  C21421556   3.778   2.948   3.405 -0.7953  0.2067  0.1137
  187POPC  H14R21557   3.828   2.849   3.411 -1.0529  0.0576 -0.1225
  187POPC  H14S21558   3.671   2.931   3.432 -1.1981  2.0438 -0.2099
  187POPC  C21521559   3.846   3.052   3.498  0.1857  0.1837  0.4828
  187POPC  H15R21560   3.773   3.135   3.509 -0.1230  0.0305 -0.3357
  187POPC  H15S21561   3.939   3.077   3.442 -0.1643 -1.9677 -1.2133
  187POPC  C21621562   3.884   2.997   3.633  0.7308  0.1458  0.2344
  187POPC  H16R21563   3.948   3.071   3.687  0.2987  0.4699  0.3106
  187POPC  H16S21564   3.952   2.911   3.619  0.7856  0.1765  0.3058
  187POPC  C21721565   3.766   2.974   3.728  0.1817  0.4177  0.3603
  187POPC  H17R21566   3.708   2.884   3.698  0.2306 -0.1981  2.0244
  187POPC  H17S21567   3.691   3.054   3.711 -0.3465 -0.5530 -2.4010
  187POPC  C21821568   3.807   2.947   3.873  0.7725  0.0496  0.0062
  187POPC  H18R21569   3.713   2.924   3.926 -1.2437  0.9632 -2.9333
  187POPC  H18S21570   3.831   3.043   3.924 -1.5066  0.2718  0.7608
  187POPC  H18T21571   3.874   2.859   3.884 -1.3959 -1.8710 -1.3841
  187POPC   C3321572   4.168   2.972   2.746  0.1427  0.1614 -0.1316
  187POPC   H3X21573   4.114   3.069   2.737  0.2444  0.0896 -1.8808
  187POPC   H3Y21574   4.278   2.976   2.751  0.1212 -0.6926  2.0939
  187POPC   C3421575   4.112   2.908   2.878 -0.4112 -0.0503  0.0121
  187POPC   H4X21576   4.144   2.801   2.886  1.0695  0.3154 -0.6524
  187POPC   H4Y21577   4.002   2.910   2.864 -0.7701 -1.3044  2.1258
  187POPC   C3521578   4.163   2.978   3.009 -0.1850  0.1762 -0.4913
  187POPC   H5X21579   4.273   2.980   2.997 -0.0517 -1.7030  0.0379
  187POPC   H5Y21580   4.136   2.919   3.099 -0.5900  0.0543 -0.6891
  187POPC   C3621581   4.101   3.120   3.031 -0.1396  0.3273  0.3611
  187POPC   H6X21582   3.990   3.119   3.021 -0.0620  0.5315 -0.6417
  187POPC   H6Y21583   4.129   3.201   2.960  0.2438  1.4181  1.7144
  187POPC   C3721584   4.137   3.160   3.174 -0.4586  0.1979  0.1668
  187POPC   H7X21585   4.245   3.140   3.190 -0.6884 -0.7458  0.5900
  187POPC   H7Y21586   4.094   3.089   3.248  0.8173 -1.6412 -0.7639
  187POPC   C3821587   4.116   3.311   3.200 -0.1619  0.2846  0.4888
  187POPC   H8X21588   4.008   3.331   3.182 -0.1971 -0.0947  0.2796
  187POPC   H8Y21589   4.176   3.371   3.128 -0.0569  2.2562  2.1218
  187POPC   C3921590   4.130   3.350   3.348  0.3111  0.0140  0.6716
  187POPC   H9X21591   4.240   3.336   3.357  0.2873 -0.6525  0.0112
  187POPC   H9Y21592   4.070   3.277   3.406 -4.5012  0.7604 -2.8421
  187POPC  C31021593   4.081   3.489   3.384 -0.6596  0.5785  0.3773
  187POPC  H10X21594   3.975   3.497   3.352 -0.3792 -0.7088 -0.9769
  187POPC  H10Y21595   4.146   3.554   3.320  0.7787 -1.3509 -0.2093
  187POPC  C31121596   4.093   3.526   3.534 -0.0322 -0.2323 -0.6382
  187POPC  H11X21597   4.198   3.512   3.567 -0.4023 -0.3038  0.5438
  187POPC  H11Y21598   4.030   3.462   3.599  2.3710 -0.9721  1.0798
  187POPC  C31221599   4.053   3.673   3.558  0.0031 -0.2949  1.2359
  187POPC  H12X21600   3.943   3.685   3.554  0.1319  0.5587 -1.3904
  187POPC  H12Y21601   4.100   3.727   3.473 -0.5611  1.4021  1.9660
  187POPC  C31321602   4.113   3.737   3.685 -0.0559  1.3818 -0.0789
  187POPC  H13X21603   4.222   3.715   3.688  0.1053  1.1498 -3.7877
  187POPC  H13Y21604   4.059   3.703   3.776 -0.4884  0.9463 -0.4905
  187POPC  C31421605   4.123   3.888   3.675 -0.1873  0.1037  0.1691
  187POPC  H14X21606   4.021   3.930   3.661  0.5499  2.1726  0.6187
  187POPC  H14Y21607   4.188   3.908   3.588  0.0328  1.6509  0.6563
  187POPC  C31521608   4.183   3.948   3.806  0.0255 -0.3163  0.0398
  187POPC  H15X21609   4.286   3.909   3.818  0.7154  0.9724 -1.2874
  187POPC  H15Y21610   4.104   3.924   3.880 -2.0796  2.4028 -1.1272
  187POPC  C31621611   4.206   4.099   3.806 -0.4166 -0.5133 -0.3681
  187POPC  H16X21612   4.118   4.150   3.760  0.6509  2.7856  0.9100
  187POPC  H16Y21613   4.301   4.130   3.757 -0.8687 -0.3153 -1.1374
  187POPC  H16Z21614   4.211   4.140   3.909  1.4291 -1.6804  0.0424
  188POPC     N21615   1.707   6.704   1.742 -0.1155  0.3836 -0.5019
  188POPC   C1221616   1.760   6.656   1.876 -0.8013 -0.1140 -0.1757
  188POPC  H12A21617   1.689   6.585   1.914 -0.4302 -1.3008 -1.6177
  188POPC  H12B21618   1.746   6.740   1.943  0.4661 -2.7150  3.6815
  188POPC   C1321619   1.742   6.597   1.638 -0.8249 -0.0634 -0.2658
  188POPC  H13A21620   1.696   6.624   1.544 -0.6733 -0.2943 -0.4066
  188POPC  H13B21621   1.848   6.593   1.617 -0.0105  2.0656  2.7645
  188POPC  H13C21622   1.707   6.503   1.677  0.0531  0.2001  1.1831
  188POPC   C1421623   1.560   6.722   1.742  0.6650 -0.2341 -0.4548
  188POPC  H14A21624   1.526   6.759   1.646  0.0953  0.4385  0.0025
  188POPC  H14B21625   1.511   6.629   1.769  3.2406 -1.3465  0.7266
  188POPC  H14C21626   1.532   6.795   1.815 -1.1731 -0.7678 -0.5795
  188POPC   C1521627   1.771   6.834   1.701 -0.7132  0.7794  0.4516
  188POPC  H15A21628   1.799   6.826   1.597 -2.0276 -0.1072  0.1503
  188POPC  H15B21629   1.853   6.837   1.772  0.0520 -1.5499 -0.2457
  188POPC  H15C21630   1.703   6.916   1.716 -1.0865  1.0132 -2.1062
  188POPC   C1121631   1.907   6.606   1.892  0.2995  0.2080  0.3031
  188POPC  H11A21632   1.944   6.607   1.997 -0.3420  3.6406  0.6272
  188POPC  H11B21633   1.968   6.675   1.829 -1.0347 -0.2114 -1.5251
  188POPC     P21634   1.872   6.336   1.889 -0.3248 -0.0013  0.0772
  188POPC   O1321635   1.968   6.231   1.842  0.1380 -0.7683  0.2377
  188POPC   O1421636   1.728   6.324   1.856 -0.6914 -0.5455 -0.3734
  188POPC   O1221637   1.931   6.478   1.833 -0.3219 -0.2377  0.0228
  188POPC   O1121638   1.903   6.361   2.041  0.3840  0.2495 -0.2562
  188POPC    C121639   1.929   6.251   2.124 -0.5025  0.2451  0.1457
  188POPC    HA21640   2.019   6.276   2.184  0.7732  1.0914 -2.0183
  188POPC    HB21641   1.952   6.156   2.071 -2.8099  0.7735 -1.9953
  188POPC    C221642   1.813   6.231   2.228 -0.1015 -0.3184 -0.2949
  188POPC    HS21643   1.849   6.158   2.304 -0.9174 -1.6742 -1.1689
  188POPC   O2121644   1.698   6.181   2.165 -0.1973 -0.1237 -0.5360
  188POPC   C2121645   1.707   6.057   2.118 -0.4709 -0.6048 -0.0664
  188POPC   O2221646   1.804   5.986   2.148  0.4469  0.4432 -0.5714
  188POPC   C2221647   1.596   6.029   2.024  0.3191  0.2104  0.1636
  188POPC   H2R21648   1.621   6.038   1.916  0.8842  1.5833  0.3953
  188POPC   H2S21649   1.514   6.103   2.032  0.0050 -0.3036  2.1638
  188POPC    C321650   1.780   6.365   2.302  1.1773 -0.3905 -0.0264
  188POPC    HX21651   1.726   6.428   2.228 -0.3171  0.0951  1.4136
  188POPC    HY21652   1.867   6.423   2.338 -1.6884  3.4423  1.3236
  188POPC   O3121653   1.691   6.343   2.415 -0.4133 -0.5649  0.3714
  188POPC   C3121654   1.576   6.419   2.430 -0.5755  0.3247  0.0403
  188POPC   O3221655   1.546   6.507   2.353 -0.3280 -0.2114 -0.2434
  188POPC   C3221656   1.503   6.377   2.565 -0.0359 -0.8400  0.1914
  188POPC   H2X21657   1.546   6.281   2.602 -0.9675 -1.2510  0.2353
  188POPC   H2Y21658   1.394   6.358   2.557 -0.4305 -0.8110  3.7640
  188POPC   C2321659   1.526   5.880   2.033 -0.1574 -0.2080 -0.2331
  188POPC   H3R21660   1.605   5.805   2.013  0.1597  0.2464 -0.7040
  188POPC   H3S21661   1.439   5.865   1.966  0.2167 -1.2089 -0.5107
  188POPC   C2421662   1.471   5.854   2.171  0.6946  0.3948  0.3418
  188POPC   H4R21663   1.557   5.840   2.239 -0.5569 -0.0140  1.9224
  188POPC   H4S21664   1.404   5.765   2.166  1.5926 -0.2097 -1.8283
  188POPC   C2521665   1.388   5.971   2.230  0.3926  0.3730  0.7055
  188POPC   H5R21666   1.301   5.980   2.161 -0.5432 -2.7629  1.3285
  188POPC   H5S21667   1.453   6.061   2.236  0.0775  0.7111 -0.5461
  188POPC   C2621668   1.349   5.933   2.376  0.0685  0.2517  0.9248
  188POPC   H6R21669   1.289   5.839   2.381  0.8462 -0.4290 -1.2893
  188POPC   H6S21670   1.277   6.009   2.413 -2.2980 -2.0242  1.3300
  188POPC   C2721671   1.460   5.915   2.478 -0.6135  0.1126 -0.2942
  188POPC   H7R21672   1.525   6.005   2.472  2.0735 -1.7878 -3.3092
  188POPC   H7S21673   1.512   5.820   2.450  0.5156 -0.1036  2.2734
  188POPC   C2821674   1.393   5.901   2.624 -0.1898 -0.1644 -0.4427
  188POPC   H8R21675   1.294   5.851   2.615 -0.6257  0.7524 -0.7656
  188POPC   H8S21676   1.365   6.001   2.662 -0.8053 -0.1478 -0.9269
  188POPC   C2921677   1.475   5.810   2.717 -0.3736 -0.1572 -1.0473
  188POPC   H9121678   1.501   5.711   2.675 -0.9300 -0.6876 -0.1633
  188POPC  C21021679   1.508   5.852   2.842 -0.1825  0.1657  0.1059
  188POPC  H10121680   1.564   5.791   2.915 -0.2593  2.2896  2.0809
  188POPC  C21121681   1.480   5.989   2.902  0.1156 -0.3720 -0.3317
  188POPC  H11R21682   1.465   6.072   2.830  0.5481  0.2929  0.3209
  188POPC  H11S21683   1.571   6.023   2.956  0.5360 -3.9392  1.4970
  188POPC  C21221684   1.372   6.007   3.001  0.3567 -0.1167  0.4261
  188POPC  H12R21685   1.272   5.976   2.964 -0.5047  0.6000  2.0263
  188POPC  H12S21686   1.372   6.111   3.041 -0.1701 -0.5067  1.4935
  188POPC  C21321687   1.397   5.920   3.128  0.6141 -0.4304 -0.0554
  188POPC  H13R21688   1.495   5.935   3.179  0.5112 -0.7644  0.2418
  188POPC  H13S21689   1.384   5.812   3.107  0.6166 -0.3058 -0.7275
  188POPC  C21421690   1.297   5.952   3.233  0.3846 -1.1230 -0.8364
  188POPC  H14R21691   1.197   5.922   3.197 -0.8131  0.8047  0.6709
  188POPC  H14S21692   1.282   6.061   3.252  2.2833 -1.1269  1.1718
  188POPC  C21521693   1.322   5.878   3.362 -0.4101 -0.4847  0.4377
  188POPC  H15R21694   1.428   5.900   3.389 -0.7309  0.4331  0.9855
  188POPC  H15S21695   1.297   5.771   3.348 -0.3603 -0.3740 -0.5698
  188POPC  C21621696   1.223   5.921   3.481  0.2801 -0.0631  0.2684
  188POPC  H16R21697   1.121   5.919   3.437  0.2122  1.8594  0.2720
  188POPC  H16S21698   1.239   6.024   3.519  1.1822  0.5966 -1.7191
  188POPC  C21721699   1.217   5.825   3.596 -0.0691  0.2254 -0.7653
  188POPC  H17R21700   1.312   5.832   3.653  0.1846  1.6372 -1.3073
  188POPC  H17S21701   1.190   5.729   3.547  0.2210 -0.5983  0.6265
  188POPC  C21821702   1.115   5.853   3.707  0.0946 -0.1830 -0.0464
  188POPC  H18R21703   1.139   5.790   3.796 -0.3508  0.8562  0.8226
  188POPC  H18S21704   1.012   5.837   3.668 -0.1710  0.2712  0.4584
  188POPC  H18T21705   1.118   5.959   3.738  2.2594 -0.3202  0.3688
  188POPC   C3321706   1.548   6.474   2.675  0.0319 -0.2157  0.0055
  188POPC   H3X21707   1.514   6.580   2.671 -0.1152 -0.0799  2.8180
  188POPC   H3Y21708   1.657   6.487   2.694 -0.3220  0.9325  1.4832
  188POPC   C3421709   1.509   6.412   2.806 -0.3420  0.5767 -0.7553
  188POPC   H4X21710   1.539   6.305   2.803 -0.6045  0.3999  1.2559
  188POPC   H4Y21711   1.401   6.420   2.833  0.8082  1.3792  4.8542
  188POPC   C3521712   1.580   6.476   2.931 -0.4377  0.3931 -0.4308
  188POPC   H5X21713   1.541   6.575   2.962  1.5197  0.6349  1.5173
  188POPC   H5Y21714   1.686   6.497   2.904 -0.5317  0.7671 -0.5084
  188POPC   C3621715   1.569   6.390   3.052 -0.2941 -0.9142 -1.0717
  188POPC   H6X21716   1.597   6.283   3.045 -0.9646 -1.1641 -0.1819
  188POPC   H6Y21717   1.463   6.393   3.087 -0.1697  1.2281 -0.7382
  188POPC   C3721718   1.642   6.442   3.177  0.0471 -0.8466  0.0376
  188POPC   H7X21719   1.627   6.552   3.177  0.9925 -0.6720  1.9989
  188POPC   H7Y21720   1.751   6.441   3.155  0.4345  1.5994  1.4119
  188POPC   C3821721   1.590   6.380   3.304 -0.7055  0.9658 -0.7463
  188POPC   H8X21722   1.600   6.269   3.301  1.3799  1.0995 -0.3992
  188POPC   H8Y21723   1.483   6.403   3.321 -0.6896 -0.1004  1.0870
  188POPC   C3921724   1.661   6.432   3.430  0.5333 -0.1102  0.0936
  188POPC   H9X21725   1.609   6.524   3.463 -0.2981 -0.4074 -0.3800
  188POPC   H9Y21726   1.765   6.445   3.392  0.1437  0.3558 -0.8431
  188POPC  C31021727   1.653   6.335   3.547 -0.1576  0.2719  0.1091
  188POPC  H10X21728   1.688   6.235   3.513  0.2080  0.5224 -0.2680
  188POPC  H10Y21729   1.547   6.322   3.576  0.2438 -1.3022  0.9872
  188POPC  C31121730   1.729   6.373   3.666 -0.5824 -0.2314  0.0535
  188POPC  H11X21731   1.695   6.477   3.682  0.9217  0.7272 -2.4207
  188POPC  H11Y21732   1.839   6.373   3.653 -0.6223  2.7960 -0.8857
  188POPC  C31221733   1.718   6.280   3.786  0.0229  0.3479  0.6240
  188POPC  H12X21734   1.739   6.179   3.745 -0.2546  1.0452 -1.3451
  188POPC  H12Y21735   1.614   6.276   3.825 -0.2529  0.8529 -0.0292
  188POPC  C31321736   1.815   6.318   3.906 -0.1793  0.2557 -0.6408
  188POPC  H13X21737   1.900   6.383   3.875  0.6446  0.9926  2.8252
  188POPC  H13Y21738   1.865   6.223   3.932 -0.7607  0.0341 -0.3274
  188POPC  C31421739   1.732   6.368   4.022 -0.7942  0.2338  0.5289
  188POPC  H14X21740   1.663   6.288   4.057 -0.7469  0.6228  1.5363
  188POPC  H14Y21741   1.682   6.458   3.982  0.2530  0.6205  0.0518
  188POPC  C31521742   1.828   6.403   4.138 -0.5474  0.2102 -0.3228
  188POPC  H15X21743   1.905   6.472   4.097  0.6586 -1.0450 -0.2432
  188POPC  H15Y21744   1.875   6.305   4.161  0.4884  0.3842 -1.5669
  188POPC  C31621745   1.757   6.468   4.252  0.8429  0.1683  0.0728
  188POPC  H16X21746   1.698   6.556   4.217 -0.0477 -0.6335 -0.4870
  188POPC  H16Y21747   1.816   6.499   4.341 -1.4591  3.0872  0.7492
  188POPC  H16Z21748   1.678   6.400   4.290  0.6108  0.5583  0.2928
  189SAPI   C1221749   2.935   4.460   6.569 -0.6747  0.0967  0.0198
  189SAPI    H221750   2.856   4.483   6.495 -0.8197 -0.8859 -0.1433
  189SAPI    O221751   2.971   4.328   6.548  1.0490  0.2895  0.2389
  189SAPI   HO221752   2.947   4.306   6.458  0.8909  0.5050  0.2268
  189SAPI   C1321753   3.057   4.550   6.540  0.2529 -0.3890  0.0050
  189SAPI    H321754   3.017   4.649   6.568 -0.5778  0.0092 -2.3869
  189SAPI    O321755   3.091   4.547   6.401 -0.8238 -0.0922  1.0122
  189SAPI   HO321756   3.162   4.482   6.389 -1.7114 -0.8184 -0.6691
  189SAPI   C1421757   3.167   4.511   6.634  0.8587  0.4897  0.1597
  189SAPI    H421758   3.194   4.406   6.611  1.1200  0.4346  0.7127
  189SAPI    O421759   3.287   4.588   6.611 -0.1820  0.4020 -0.9136
  189SAPI   HO421760   3.351   4.535   6.563  1.8518  1.0500  0.9223
  189SAPI   C1521761   3.126   4.501   6.779  0.0579  0.1798 -0.6630
  189SAPI    H521762   3.129   4.604   6.820  3.1792 -0.8815  2.1922
  189SAPI    O521763   3.226   4.416   6.853  0.3123  0.1075 -0.4167
  189SAPI   HO521764   3.311   4.461   6.855  0.3806 -0.0250  1.5561
  189SAPI   C1621765   2.987   4.449   6.812  0.6174  0.3030 -0.6363
  189SAPI    H621766   2.989   4.339   6.822 -2.7719  0.0535 -1.5536
  189SAPI    O621767   2.939   4.516   6.927  0.3353 -0.0564  0.6505
  189SAPI   HO621768   2.852   4.479   6.945  0.1859  0.7462  1.6790
  189SAPI   C1121769   2.880   4.476   6.704  0.2959  0.4175  0.2071
  189SAPI    H121770   2.868   4.587   6.707 -1.3552  0.2900 -0.5018
  189SAPI     P21771   2.614   4.462   6.669 -0.2011  0.0966  0.0772
  189SAPI   O1321772   2.599   4.602   6.715  0.3789  0.2514 -0.1482
  189SAPI   O1421773   2.503   4.376   6.717  0.3361  0.5907 -0.6301
  189SAPI   O1221774   2.763   4.406   6.726 -0.0239  0.2320  0.1801
  189SAPI   O1121775   2.625   4.452   6.507  0.1537 -0.6062 -0.0283
  189SAPI    C121776   2.517   4.480   6.417  0.9239 -0.4161 -0.3377
  189SAPI    HA21777   2.437   4.405   6.432 -2.7890  3.1732 -0.3061
  189SAPI    HB21778   2.465   4.577   6.430  0.5261 -0.8915  1.9470
  189SAPI    C221779   2.564   4.462   6.269  0.4469  0.5226 -0.8690
  189SAPI    HS21780   2.605   4.359   6.259 -2.6050 -0.7540 -1.1251
  189SAPI   O2121781   2.657   4.564   6.254  0.0411  0.1349 -0.7476
  189SAPI   C2121782   2.769   4.530   6.189  0.0812  0.5916 -0.4115
  189SAPI   O2221783   2.793   4.425   6.136 -0.1638 -0.1045 -0.0657
  189SAPI   C2221784   2.855   4.652   6.167  0.0162 -0.4956 -0.2186
  189SAPI   H2R21785   2.876   4.701   6.265 -1.5823 -0.6596  0.2335
  189SAPI   H2S21786   2.954   4.615   6.133  0.9559 -1.0997  2.8735
  189SAPI    C321787   2.449   4.483   6.167  0.4904  0.1286 -0.7331
  189SAPI    HX21788   2.403   4.582   6.186  1.9776  0.4163  1.9295
  189SAPI    HY21789   2.371   4.406   6.188  0.6571 -0.3379 -1.7438
  189SAPI   O3121790   2.495   4.486   6.029  0.0453  0.6794 -0.2449
  189SAPI   C3121791   2.520   4.376   5.966 -0.3359  0.1659 -0.6338
  189SAPI   O3221792   2.514   4.265   6.011 -0.0558  0.3715 -0.4480
  189SAPI   C3221793   2.572   4.404   5.819 -0.0332  0.0804  0.4785
  189SAPI   H2X21794   2.679   4.378   5.817 -0.0086  0.1679  0.6628
  189SAPI   H2Y21795   2.553   4.510   5.792  0.2456  0.1231  0.4482
  189SAPI   C2321796   2.803   4.756   6.065  0.3670 -0.4834 -0.5329
  189SAPI   H3R21797   2.800   4.856   6.113 -1.7665  0.0544 -1.6646
  189SAPI   H3S21798   2.698   4.739   6.031  0.2473 -1.6166  0.3675
  189SAPI   C2421799   2.890   4.769   5.937  0.1002 -0.5389 -0.0336
  189SAPI   H4R21800   2.994   4.788   5.973 -0.4762  0.2556  1.2600
  189SAPI   H4S21801   2.870   4.853   5.867  0.1294 -0.7678 -0.3185
  189SAPI   C2521802   2.897   4.638   5.867 -0.3796  1.1528  0.3910
  189SAPI   H5R21803   2.894   4.549   5.932 -4.4138 -1.0290 -2.3741
  189SAPI   C2621804   2.873   4.610   5.735 -0.0192 -0.1117  0.8324
  189SAPI   H6R21805   2.860   4.506   5.702 -1.8938  0.8626 -1.8519
  189SAPI   C2721806   2.839   4.704   5.623 -0.2323 -0.5657 -0.1932
  189SAPI   H7R21807   2.867   4.807   5.653 -0.1499 -0.3657 -0.9452
  189SAPI   H7S21808   2.729   4.712   5.613 -0.0119  0.4665 -2.1237
  189SAPI   C2821809   2.908   4.663   5.496  0.3915 -0.3023  0.0096
  189SAPI   H8R21810   3.007   4.623   5.521  0.2227  0.8925  2.9132
  189SAPI   C2921811   2.859   4.686   5.369  0.2407 -0.4822  0.3307
  189SAPI   H9R21812   2.914   4.665   5.276 -0.3146  0.3321 -0.1931
  189SAPI  C21021813   2.717   4.739   5.339 -0.3705 -0.4115  0.4128
  189SAPI  H10R21814   2.646   4.708   5.419 -1.7718  0.5185 -0.4211
  189SAPI  H10S21815   2.691   4.709   5.235 -1.1701 -0.8754  0.7366
  189SAPI  C21121816   2.724   4.886   5.362  0.0568 -0.0785  0.3240
  189SAPI  H11R21817   2.737   4.924   5.464 -1.1550 -3.4142  1.8831
  189SAPI  C21221818   2.739   4.974   5.259  0.5443 -0.0154 -0.1143
  189SAPI  H12R21819   2.748   5.077   5.296  0.9135  0.8542 -2.4629
  189SAPI  C21321820   2.728   4.944   5.110 -0.3360  0.5271 -0.5169
  189SAPI  H13R21821   2.679   5.032   5.063  1.5080  0.5632 -2.5391
  189SAPI  H13S21822   2.660   4.858   5.098  1.9930 -1.2610 -1.6689
  189SAPI  C21421823   2.849   4.915   5.034 -0.2608  0.2468 -0.5196
  189SAPI  H14R21824   2.933   4.875   5.092 -0.8318 -0.6747 -0.2882
  189SAPI  C21521825   2.881   4.941   4.909  0.5199  0.1346  0.2246
  189SAPI  H15R21826   2.978   4.916   4.864 -0.2711  0.7062 -1.9192
  189SAPI  C21621827   2.788   5.000   4.803  0.0218 -0.2224  0.6706
  189SAPI  H16R21828   2.820   5.097   4.760 -1.5167 -0.5843 -1.4408
  189SAPI  H16S21829   2.694   5.027   4.856 -1.6972 -0.9870 -1.8229
  189SAPI  C21721830   2.760   4.912   4.682 -0.4864 -0.3875  0.4447
  189SAPI  H17R21831   2.665   4.938   4.631 -1.1800 -2.3199  0.7020
  189SAPI  H17S21832   2.746   4.807   4.714  0.6362 -1.3216 -1.9031
  189SAPI  C21821833   2.863   4.927   4.572  0.9948 -0.3140 -0.3687
  189SAPI  H18R21834   2.961   4.912   4.621  1.4438  3.1016  0.0091
  189SAPI  H18S21835   2.871   5.030   4.533 -1.6576 -0.3465 -1.2053
  189SAPI  C21921836   2.845   4.842   4.453 -0.2849  0.0408  1.2410
  189SAPI  H19R21837   2.823   4.739   4.487 -0.8164  0.3521  1.8662
  189SAPI  H19S21838   2.939   4.814   4.400 -2.1369 -3.2911 -0.6734
  189SAPI  C22021839   2.740   4.880   4.357  0.4398  0.1346  0.5733
  189SAPI  H20R21840   2.781   4.975   4.315 -0.5225 -0.0923 -0.9633
  189SAPI  H20S21841   2.642   4.891   4.408 -0.0049 -0.0779 -0.2265
  189SAPI  H20T21842   2.731   4.812   4.269  0.3251  0.0221  0.6716
  189SAPI   C3321843   2.502   4.316   5.717 -0.3013 -0.1641  0.0296
  189SAPI   H3X21844   2.393   4.300   5.730 -0.2377 -2.6985 -1.7652
  189SAPI   H3Y21845   2.543   4.214   5.702 -0.9937 -0.4261 -0.1497
  189SAPI   C3421846   2.528   4.371   5.575 -0.1065 -0.6396  0.4196
  189SAPI   H4X21847   2.636   4.393   5.568 -0.4323  1.5455  1.4176
  189SAPI   H4Y21848   2.471   4.467   5.578 -1.6738 -1.5480  1.6135
  189SAPI   C3521849   2.496   4.284   5.449 -0.2904 -0.2061 -0.1767
  189SAPI   H5X21850   2.393   4.242   5.463 -0.1877 -1.6881 -3.1040
  189SAPI   H5Y21851   2.567   4.199   5.451  2.3900  1.9215  0.0966
  189SAPI   C3621852   2.497   4.366   5.320  0.2482  0.1618  0.2178
  189SAPI   H6X21853   2.599   4.398   5.291  0.2991 -1.7345 -1.9554
  189SAPI   H6Y21854   2.433   4.455   5.342 -0.1304 -0.3361  1.1592
  189SAPI   C3721855   2.440   4.304   5.194 -0.5083 -0.7176  0.5047
  189SAPI   H7X21856   2.333   4.280   5.207 -0.8855  0.4225 -0.3633
  189SAPI   H7Y21857   2.488   4.205   5.178  0.7478 -0.3493  1.7242
  189SAPI   C3821858   2.461   4.408   5.078 -0.3142 -0.3169  0.7743
  189SAPI   H8X21859   2.564   4.450   5.082  0.5807 -1.9614 -2.2542
  189SAPI   H8Y21860   2.404   4.501   5.098 -0.8603 -0.2295 -1.0554
  189SAPI   C3921861   2.430   4.344   4.943 -0.6668 -0.2879  0.1340
  189SAPI   H9X21862   2.337   4.283   4.954 -0.3288 -0.7746  0.2854
  189SAPI   H9Y21863   2.517   4.279   4.921 -0.2604 -0.0577  1.0362
  189SAPI  C31021864   2.417   4.445   4.826 -0.0297  0.2257  0.2812
  189SAPI  H10X21865   2.362   4.531   4.869 -0.8838 -1.2607  2.3080
  189SAPI  H10Y21866   2.353   4.411   4.741 -1.1109  2.5259  0.0923
  189SAPI  C31121867   2.549   4.487   4.757 -0.5239  0.8796  0.1843
  189SAPI  H11X21868   2.634   4.482   4.828 -0.6631 -0.2876  0.2786
  189SAPI  H11Y21869   2.529   4.593   4.728  1.1598  1.5911  1.5255
  189SAPI  C31221870   2.595   4.401   4.641  0.9983  0.1895  0.0482
  189SAPI  H12X21871   2.596   4.291   4.656  0.9261 -0.5312 -4.1320
  189SAPI  H12Y21872   2.698   4.441   4.633  1.7901 -0.4784  4.3954
  189SAPI  C31321873   2.508   4.410   4.523 -0.3156 -0.1424 -0.9039
  189SAPI  H13X21874   2.497   4.519   4.501  0.8761  0.1712 -0.0646
  189SAPI  H13Y21875   2.409   4.379   4.561  0.1447 -0.1385  0.3398
  189SAPI  C31421876   2.539   4.332   4.395  0.3113  0.4158 -0.3370
  189SAPI  H14X21877   2.453   4.354   4.328 -2.8412  0.5848  3.4076
  189SAPI  H14Y21878   2.536   4.228   4.433  1.1440  0.0472 -1.2381
  189SAPI  C31521879   2.676   4.362   4.329 -0.0695  0.0895 -0.6121
  189SAPI  H15X21880   2.703   4.275   4.266 -1.5588 -1.6810  1.1002
  189SAPI  H15Y21881   2.750   4.362   4.412 -0.3864 -1.2513 -0.3058
  189SAPI  C31621882   2.690   4.485   4.240 -0.5155  0.0823 -0.6321
  189SAPI  H16X21883   2.689   4.577   4.303  0.1283 -0.3164 -0.0337
  189SAPI  H16Y21884   2.616   4.474   4.157 -0.2697 -4.6352 -0.4754
  189SAPI  C31721885   2.833   4.484   4.173  0.4342  0.0535  0.1627
  189SAPI  H17X21886   2.833   4.391   4.113  1.4403  0.2180 -0.1029
  189SAPI  H17Y21887   2.911   4.478   4.252  0.3217 -2.4134  0.1374
  189SAPI  C31821888   2.862   4.598   4.079 -0.0823 -0.7351  0.3713
  189SAPI  H18X21889   2.955   4.590   4.019 -1.8157  1.4002 -3.0037
  189SAPI  H18Y21890   2.877   4.692   4.136 -0.3616 -0.6438  0.2995
  189SAPI  H18Z21891   2.780   4.609   4.004  0.4734 -2.4854 -0.5488
  190SAPI   C1221892   3.611   2.492   6.690 -0.4809  0.1891  0.1207
  190SAPI    H221893   3.709   2.539   6.712 -0.6329  0.5990 -0.0784
  190SAPI    O221894   3.644   2.368   6.623 -0.1390  0.0471  0.4835
  190SAPI   HO221895   3.631   2.376   6.528 -0.9078 -1.2669  0.4473
  190SAPI   C1321896   3.542   2.471   6.826 -0.6287 -0.8351 -0.0832
  190SAPI    H321897   3.531   2.573   6.867 -0.4378  1.0649 -4.2606
  190SAPI    O321898   3.626   2.396   6.913  0.2540 -0.0345  0.7486
  190SAPI   HO321899   3.653   2.316   6.869 -2.1665 -0.0973 -0.8046
  190SAPI   C1421900   3.408   2.402   6.811  0.6322 -0.2416 -0.9055
  190SAPI    H421901   3.437   2.305   6.765 -1.9162 -2.5507  1.9469
  190SAPI    O421902   3.355   2.372   6.942 -0.3559  0.1031 -0.3840
  190SAPI   HO421903   3.402   2.301   6.987  2.9164  1.4974 -1.3351
  190SAPI   C1521904   3.323   2.475   6.707  0.6737 -0.9198  0.1573
  190SAPI    H521905   3.280   2.554   6.772  1.5478  0.0891 -0.4541
  190SAPI    O521906   3.202   2.401   6.674  0.3251  0.5955 -0.5088
  190SAPI   HO521907   3.212   2.345   6.596  1.9556  1.7602 -1.2085
  190SAPI   C1621908   3.387   2.557   6.597  0.3405  0.2762 -0.0179
  190SAPI    H621909   3.382   2.479   6.518 -1.6104 -1.5123  1.7406
  190SAPI    O621910   3.312   2.673   6.557  0.0315 -0.0353  0.1587
  190SAPI   HO621911   3.339   2.694   6.468 -0.4653  2.3275  0.5026
  190SAPI   C1121912   3.532   2.590   6.611 -0.2989  0.0864 -0.1011
  190SAPI    H121913   3.541   2.679   6.678 -1.0193 -1.6466  2.4405
  190SAPI     P21914   3.593   2.747   6.388 -0.4425 -0.0680 -0.2230
  190SAPI   O1321915   3.690   2.725   6.281 -0.0505 -0.0183  0.0857
  190SAPI   O1421916   3.601   2.868   6.474 -0.4023 -0.2176 -0.0910
  190SAPI   O1221917   3.600   2.615   6.487 -0.3637 -0.0663  0.3807
  190SAPI   O1121918   3.443   2.736   6.334  0.2599 -0.2660 -0.2959
  190SAPI    C121919   3.407   2.629   6.251 -0.5761  0.3130  0.3647
  190SAPI    HA21920   3.461   2.534   6.275 -0.6148  0.4253  0.9019
  190SAPI    HB21921   3.301   2.598   6.262 -0.2089 -0.8541  0.8309
  190SAPI    C221922   3.418   2.676   6.100  0.3586  0.2788 -0.3058
  190SAPI    HS21923   3.528   2.675   6.081  0.2915 -2.7279 -1.0840
  190SAPI   O2121924   3.355   2.809   6.084 -0.1599 -0.7682  0.1005
  190SAPI   C2121925   3.416   2.895   5.999 -0.0391 -0.2468  0.1845
  190SAPI   O2221926   3.501   2.867   5.918 -0.3512  0.3086 -0.2455
  190SAPI   C2221927   3.354   3.038   6.004 -0.5763  0.7136 -0.6197
  190SAPI   H2R21928   3.350   3.062   6.112 -0.8740 -1.7059 -0.0296
  190SAPI   H2S21929   3.428   3.106   5.956  2.4269 -1.7157  0.2110
  190SAPI    C321930   3.354   2.569   6.018  0.2783  0.2575 -0.3152
  190SAPI    HX21931   3.248   2.559   6.049  0.3639 -0.9701 -0.3414
  190SAPI    HY21932   3.403   2.471   6.039  2.6925  1.0528 -1.8084
  190SAPI   O3121933   3.363   2.597   5.881  0.2142  0.3316  0.2149
  190SAPI   C3121934   3.482   2.587   5.819 -0.9845  0.2886 -0.2726
  190SAPI   O3221935   3.590   2.574   5.875 -0.3893 -0.3481 -0.3516
  190SAPI   C3221936   3.457   2.597   5.670 -0.1959  0.0680 -0.0173
  190SAPI   H2X21937   3.415   2.696   5.641 -1.9736  0.0041  2.0761
  190SAPI   H2Y21938   3.366   2.535   5.654  0.0552 -0.4313  0.4844
  190SAPI   C2321939   3.218   3.049   5.946  0.1909 -0.5412  0.5636
  190SAPI   H3R21940   3.190   3.155   5.967  1.0515 -0.2328  0.2121
  190SAPI   H3S21941   3.148   2.975   5.989 -0.0231  0.1326  1.3944
  190SAPI   C2421942   3.224   3.047   5.790  0.1913 -1.3955 -0.4400
  190SAPI   H4R21943   3.253   2.944   5.760  0.0088 -1.3740 -0.6990
  190SAPI   H4S21944   3.305   3.113   5.752  0.2801 -1.1067  0.2322
  190SAPI   C2521945   3.090   3.071   5.723 -0.2650  0.5323  0.2297
  190SAPI   H5R21946   3.046   3.169   5.744 -1.0015  0.2358  0.0979
  190SAPI   C2621947   3.012   2.989   5.650  0.1207 -0.0250 -0.0267
  190SAPI   H6R21948   2.922   3.033   5.605  1.0549  0.5332 -1.3917
  190SAPI   C2721949   3.044   2.843   5.603  0.3241 -0.5131  0.3866
  190SAPI   H7R21950   3.146   2.846   5.560  0.4396 -1.4020  0.5822
  190SAPI   H7S21951   2.983   2.811   5.516 -1.6846 -1.8091  2.1797
  190SAPI   C2821952   3.048   2.744   5.716 -0.0212 -0.2267 -0.0675
  190SAPI   H8R21953   3.082   2.789   5.810 -1.1424  0.6817 -0.0664
  190SAPI   C2921954   3.031   2.609   5.716  0.1420  0.3467 -0.3328
  190SAPI   H9R21955   3.013   2.560   5.812 -1.3409  1.0872 -0.1961
  190SAPI  C21021956   2.981   2.523   5.600 -0.5003 -0.1799 -0.1900
  190SAPI  H10R21957   3.072   2.496   5.541  0.1960  0.1131  0.7258
  190SAPI  H10S21958   2.930   2.595   5.532 -1.6805 -0.8146  0.0127
  190SAPI  C21121959   2.891   2.407   5.644 -0.0344  0.4173  0.4606
  190SAPI  H11R21960   2.879   2.377   5.749 -0.5293 -1.3402 -0.0514
  190SAPI  C21221961   2.823   2.349   5.542  0.5138  0.7487  0.3126
  190SAPI  H12R21962   2.777   2.252   5.565  0.5649  0.2500 -1.5134
  190SAPI  C21321963   2.825   2.385   5.394 -0.4592 -0.3202 -0.0497
  190SAPI  H13R21964   2.835   2.494   5.375  0.3663 -0.2991  0.4396
  190SAPI  H13S21965   2.727   2.349   5.355  0.7817 -2.5419 -1.2701
  190SAPI  C21421966   2.946   2.320   5.323 -0.4297 -0.8070 -0.5238
  190SAPI  H14R21967   3.039   2.359   5.368 -0.3480 -0.6528 -0.8216
  190SAPI  C21521968   2.942   2.212   5.245  0.0863 -0.2617 -0.0555
  190SAPI  H15R21969   3.036   2.169   5.207  0.5553  1.2663 -0.6843
  190SAPI  C21621970   2.812   2.145   5.207 -0.3593  0.1857  0.6655
  190SAPI  H16R21971   2.735   2.156   5.286 -1.7835 -0.5561 -0.5813
  190SAPI  H16S21972   2.839   2.038   5.200 -1.4209 -0.0095 -1.5749
  190SAPI  C21721973   2.765   2.203   5.071  0.3025 -0.6465  0.5396
  190SAPI  H17R21974   2.776   2.313   5.064  1.8510 -0.8204 -0.3718
  190SAPI  H17S21975   2.657   2.182   5.059  0.1692 -1.0256  2.1742
  190SAPI  C21821976   2.839   2.142   4.945  1.3233 -0.2899 -0.4445
  190SAPI  H18R21977   2.839   2.031   4.956 -2.1356 -0.4026 -0.4982
  190SAPI  H18S21978   2.942   2.181   4.937  0.6478  1.2337 -3.0495
  190SAPI  C21921979   2.768   2.183   4.812  0.1084  0.2929 -0.3261
  190SAPI  H19R21980   2.658   2.176   4.804  0.2301 -1.6901 -0.8804
  190SAPI  H19S21981   2.800   2.128   4.720 -1.0587  1.5592 -1.5422
  190SAPI  C22021982   2.810   2.331   4.777  0.3295 -0.1321  0.1772
  190SAPI  H20R21983   2.917   2.356   4.791  0.8714  0.0174 -3.3796
  190SAPI  H20S21984   2.740   2.404   4.825 -0.7454 -0.1545 -1.2900
  190SAPI  H20T21985   2.785   2.345   4.670  0.5512  0.1785  0.1646
  190SAPI   C3321986   3.580   2.553   5.585  1.0566 -0.0928 -0.1824
  190SAPI   H3X21987   3.649   2.490   5.646 -2.2516 -2.0691  1.7985
  190SAPI   H3Y21988   3.642   2.637   5.547  0.3611 -0.7434 -3.0336
  190SAPI   C3421989   3.526   2.491   5.450  0.7115  0.0201 -0.6588
  190SAPI   H4X21990   3.428   2.540   5.429  0.5889  0.2326  0.3501
  190SAPI   H4Y21991   3.518   2.380   5.461  0.3215  0.2337  1.6854
  190SAPI   C3521992   3.621   2.524   5.331  1.0280  0.6938  0.3600
  190SAPI   H5X21993   3.725   2.491   5.351 -0.1024 -1.9051  2.4868
  190SAPI   H5Y21994   3.629   2.634   5.317  0.9215  0.6363 -0.1719
  190SAPI   C3621995   3.568   2.462   5.203  0.0820  0.0746  0.0552
  190SAPI   H6X21996   3.457   2.473   5.196  0.2982  2.8681  0.1094
  190SAPI   H6Y21997   3.601   2.356   5.203  1.2083  0.3770 -1.7592
  190SAPI   C3721998   3.638   2.519   5.083  0.1747  0.4130  0.8294
  190SAPI   H7X21999   3.739   2.475   5.077  2.1094  4.4961 -2.4632
  190SAPI   H7Y22000   3.643   2.630   5.087 -0.3003  0.5808 -1.4342
  190SAPI   C3822001   3.577   2.474   4.946  0.2539 -0.5657  0.0673
  190SAPI   H8X22002   3.468   2.497   4.943  0.5542  0.9926 -0.1801
  190SAPI   H8Y22003   3.600   2.370   4.913 -0.2083 -0.3318 -1.0501
  190SAPI   C3922004   3.623   2.557   4.823  0.3404  0.1784 -0.0017
  190SAPI   H9X22005   3.629   2.486   4.738  0.8335 -0.5774  0.6530
  190SAPI   H9Y22006   3.725   2.590   4.851  1.0702  1.1102 -3.2844
  190SAPI  C31022007   3.544   2.689   4.790  0.8127 -0.6752  0.4965
  190SAPI  H10X22008   3.533   2.754   4.879  0.9802 -1.0452  0.7897
  190SAPI  H10Y22009   3.442   2.663   4.756  0.4654 -0.8023  1.6252
  190SAPI  C31122010   3.609   2.765   4.674 -0.3787  0.2189  0.5815
  190SAPI  H11X22011   3.577   2.718   4.578 -1.0951  0.2504  0.8054
  190SAPI  H11Y22012   3.718   2.744   4.676 -0.5274 -1.0764 -1.5446
  190SAPI  C31222013   3.565   2.908   4.662  0.0246  0.5220 -0.1157
  190SAPI  H12X22014   3.598   2.968   4.749 -2.6027  0.6995  0.8672
  190SAPI  H12Y22015   3.454   2.907   4.669  0.1147  0.0805  1.7964
  190SAPI  C31322016   3.595   2.972   4.523 -0.6527 -0.5056 -0.3163
  190SAPI  H13X22017   3.513   3.043   4.501  0.7810  1.3001 -0.1092
  190SAPI  H13Y22018   3.593   2.890   4.448 -2.3607  0.8309 -1.8290
  190SAPI  C31422019   3.729   3.047   4.529 -0.6385  0.6161  0.3426
  190SAPI  H14X22020   3.818   2.980   4.533 -0.7503  0.3390 -1.2209
  190SAPI  H14Y22021   3.749   3.099   4.625  0.8480 -0.8943  0.9084
  190SAPI  C31522022   3.746   3.155   4.425  0.4162  0.3181 -0.5989
  190SAPI  H15X22023   3.701   3.247   4.467 -0.0965 -0.3761  0.4151
  190SAPI  H15Y22024   3.693   3.106   4.340  1.2281 -1.0634 -0.3442
  190SAPI  C31622025   3.883   3.193   4.363 -0.4010  0.4119  0.6864
  190SAPI  H16X22026   3.948   3.223   4.448 -0.8039  1.9747  0.4753
  190SAPI  H16Y22027   3.876   3.278   4.292  3.3934 -1.6177 -2.5077
  190SAPI  C31722028   3.946   3.079   4.281  0.6713  0.3681  0.1470
  190SAPI  H17X22029   3.890   3.077   4.185  1.3945 -0.5406 -0.2735
  190SAPI  H17Y22030   3.927   2.988   4.342  0.9829 -0.2428 -0.6441
  190SAPI  C31822031   4.100   3.097   4.264  0.8333  0.5872 -0.1030
  190SAPI  H18X22032   4.164   3.057   4.346  1.1547 -0.7004 -0.9646
  190SAPI  H18Y22033   4.120   3.206   4.255  3.7150  0.2182  0.7664
  190SAPI  H18Z22034   4.122   3.042   4.170  0.3934  0.8723 -0.3755
  191SAPI   C1222035   4.802   5.794   1.995  0.1093 -0.7099 -0.4484
  191SAPI    H222036   4.844   5.749   2.087  1.4239 -1.1141 -1.2113
  191SAPI    O222037   4.905   5.878   1.940 -0.0117 -0.1243 -0.5424
  191SAPI   HO222038   4.980   5.877   2.000 -0.6760  2.0797  0.4437
  191SAPI   C1322039   4.774   5.671   1.914 -0.1805 -0.1540 -0.0760
  191SAPI    H322040   4.712   5.595   1.967  0.0286 -0.5231 -0.3549
  191SAPI    O322041   4.904   5.600   1.893  0.1830 -0.5842  0.0573
  191SAPI   HO322042   4.968   5.638   1.953 -0.8911  0.4936  0.5856
  191SAPI   C1422043   4.715   5.711   1.780  0.5519 -0.5671 -0.2357
  191SAPI    H422044   4.801   5.743   1.718  2.2510  2.2212  3.2114
  191SAPI    O422045   4.663   5.596   1.704 -0.3105  0.0400  0.0462
  191SAPI   HO422046   4.575   5.587   1.741 -0.7171  1.0630 -0.6464
  191SAPI   C1522047   4.621   5.831   1.773  0.3871 -0.8746 -0.3376
  191SAPI    H522048   4.518   5.789   1.774  0.7303 -1.8170 -1.5680
  191SAPI    O522049   4.622   5.898   1.648 -0.0798 -0.7662  0.1740
  191SAPI   HO522050   4.709   5.936   1.633 -1.3591  1.9716 -1.1260
  191SAPI   C1622051   4.626   5.934   1.887  0.1875  0.3160  0.6193
  191SAPI    H622052   4.703   6.007   1.856 -0.8488  0.9581 -0.5254
  191SAPI    O622053   4.506   6.008   1.894  0.5471 -0.0523  0.5239
  191SAPI   HO622054   4.480   6.006   1.986  1.9828 -1.8369  0.9515
  191SAPI   C1122055   4.674   5.871   2.015 -0.1113 -0.2832 -0.1925
  191SAPI    H122056   4.595   5.798   2.041 -1.5618  0.8157 -1.3654
  191SAPI     P22057   4.596   6.029   2.223 -0.3763  0.2303  0.6563
  191SAPI   O1322058   4.467   6.012   2.158  0.4460  0.0717  0.3130
  191SAPI   O1422059   4.639   6.161   2.273 -0.9941 -0.0984 -0.1992
  191SAPI   O1222060   4.705   5.962   2.123 -0.0564  0.1249 -0.2913
  191SAPI   O1122061   4.608   5.929   2.344 -0.2636 -0.7803  0.4424
  191SAPI    C122062   4.520   5.819   2.356  0.0715  0.2173  0.4303
  191SAPI    HA22063   4.539   5.756   2.267  0.8691 -0.0101  0.7564
  191SAPI    HB22064   4.556   5.769   2.449 -0.6107  1.1889  1.2456
  191SAPI    C222065   4.369   5.849   2.385 -0.4348  0.2241  0.1349
  191SAPI    HS22066   4.327   5.899   2.296  1.4347  0.4593 -0.6679
  191SAPI   O2122067   4.363   5.942   2.503  0.1421  0.0473 -0.3436
  191SAPI   C2122068   4.246   6.010   2.515  0.5281 -0.6125 -0.5109
  191SAPI   O2222069   4.152   6.011   2.437 -0.0121  0.1428  0.1717
  191SAPI   C2222070   4.244   6.097   2.639  0.2041  0.7017  0.2795
  191SAPI   H2R22071   4.309   6.185   2.618 -1.4593  1.6558 -1.1397
  191SAPI   H2S22072   4.139   6.131   2.647 -0.1422 -0.6233  1.8780
  191SAPI    C322073   4.284   5.714   2.401 -0.5978  0.0414  0.0147
  191SAPI    HX22074   4.312   5.657   2.310 -3.8439  0.2626 -1.2505
  191SAPI    HY22075   4.178   5.747   2.393 -0.9674 -1.3547 -1.4006
  191SAPI   O3122076   4.322   5.652   2.527 -0.1847  0.4078 -0.6464
  191SAPI   C3122077   4.217   5.578   2.579  0.4517  0.9469  0.5423
  191SAPI   O3222078   4.113   5.561   2.519 -0.0511  0.2609  0.4174
  191SAPI   C3222079   4.250   5.528   2.721 -0.6567 -0.0786 -0.0823
  191SAPI   H2X22080   4.360   5.520   2.729 -0.5734 -0.1103 -1.1473
  191SAPI   H2Y22081   4.220   5.426   2.753  1.5642 -0.6293  0.4378
  191SAPI   C2322082   4.293   6.031   2.768  0.6487 -0.3565  0.1827
  191SAPI   H3R22083   4.402   6.014   2.752  0.6871 -0.3952  0.4828
  191SAPI   H3S22084   4.253   5.927   2.774  1.0558 -0.6781 -1.7773
  191SAPI   C2422085   4.271   6.102   2.900  0.7407 -0.4852 -0.0958
  191SAPI   H4R22086   4.344   6.060   2.973 -0.0128 -0.0281  0.9548
  191SAPI   H4S22087   4.171   6.073   2.938 -0.4888  1.7863 -1.3753
  191SAPI   C2522088   4.273   6.254   2.897 -0.7362 -0.1328 -0.5177
  191SAPI   H5R22089   4.202   6.307   2.832 -0.3772 -0.4088 -1.1361
  191SAPI   C2622090   4.345   6.320   2.991 -0.3012 -0.0113  0.1694
  191SAPI   H6R22091   4.347   6.430   2.993 -3.4501  0.1570 -0.5701
  191SAPI   C2722092   4.432   6.267   3.108 -0.2631 -0.5326  0.0860
  191SAPI   H7R22093   4.539   6.264   3.079  0.1795  2.8716  0.8859
  191SAPI   H7S22094   4.405   6.162   3.131  0.7996 -0.2819  2.7960
  191SAPI   C2822095   4.416   6.352   3.235 -0.0014 -0.7090  0.4578
  191SAPI   H8R22096   4.359   6.443   3.212 -0.9253 -1.7684 -1.6920
  191SAPI   C2922097   4.472   6.326   3.352 -0.1215 -0.5151  0.1828
  191SAPI   H9R22098   4.451   6.399   3.432 -0.3932  0.0102 -0.3664
  191SAPI  C21022099   4.555   6.202   3.388 -0.5422 -0.5703  0.1054
  191SAPI  H10R22100   4.659   6.241   3.400 -0.7888 -0.0348  0.5802
  191SAPI  H10S22101   4.554   6.128   3.306  0.7740  0.4107 -0.8285
  191SAPI  C21122102   4.512   6.140   3.519  0.2474 -0.8709 -0.3109
  191SAPI  H11R22103   4.409   6.100   3.516 -1.0625  2.2607 -0.8616
  191SAPI  C21222104   4.574   6.127   3.634  0.0977 -0.5233 -0.3909
  191SAPI  H12R22105   4.525   6.085   3.723 -0.3178  1.2593  0.2827
  191SAPI  C21322106   4.712   6.187   3.664  0.3804  0.1469  0.4876
  191SAPI  H13R22107   4.772   6.190   3.570 -0.4963  2.0524 -0.0518
  191SAPI  H13S22108   4.765   6.109   3.723  0.7090  0.0360  0.0503
  191SAPI  C21422109   4.711   6.325   3.718  0.5023 -0.3182  0.7630
  191SAPI  H14R22110   4.679   6.410   3.656 -1.3507 -0.6848  1.1584
  191SAPI  C21522111   4.701   6.354   3.853  0.1046  0.2081  0.1001
  191SAPI  H15R22112   4.703   6.457   3.893  2.5150 -0.1119  0.9343
  191SAPI  C21622113   4.698   6.253   3.967 -0.6023  0.2464  0.5101
  191SAPI  H16R22114   4.795   6.269   4.020  0.9320  0.7788 -2.2521
  191SAPI  H16S22115   4.697   6.148   3.932  1.8146  0.0148  0.9299
  191SAPI  C21722116   4.588   6.301   4.068 -0.0329 -0.0491  0.3441
  191SAPI  H17R22117   4.485   6.280   4.031 -0.1504  3.9133 -2.1330
  191SAPI  H17S22118   4.586   6.412   4.065  1.0830 -0.0370 -2.1663
  191SAPI  C21822119   4.606   6.242   4.209 -0.2408 -0.1724  0.3927
  191SAPI  H18R22120   4.712   6.257   4.238  0.2063  0.6835 -1.5481
  191SAPI  H18S22121   4.572   6.136   4.200 -2.1777  0.3824  0.7038
  191SAPI  C21922122   4.517   6.310   4.313 -0.3988 -0.0223  0.3862
  191SAPI  H19R22123   4.410   6.297   4.285 -0.2539 -1.3400  0.3838
  191SAPI  H19S22124   4.538   6.419   4.313  0.2214 -0.1241 -0.7421
  191SAPI  C22022125   4.535   6.258   4.451  1.3512  0.4477  0.1969
  191SAPI  H20R22126   4.489   6.157   4.461 -2.7540  2.2465  2.0851
  191SAPI  H20S22127   4.471   6.317   4.520 -2.8497 -3.1297 -0.1923
  191SAPI  H20T22128   4.641   6.243   4.480  0.7811 -0.0043  2.2313
  191SAPI   C3322129   4.209   5.641   2.817  0.1469  0.0523 -0.0224
  191SAPI   H3X22130   4.100   5.654   2.802  0.4960  0.9576 -2.2279
  191SAPI   H3Y22131   4.253   5.738   2.783  3.3674 -1.5581 -0.9086
  191SAPI   C3422132   4.239   5.605   2.963  0.4077  0.5737  0.7544
  191SAPI   H4X22133   4.349   5.593   2.972  0.5184 -1.5369 -1.9824
  191SAPI   H4Y22134   4.192   5.508   2.989  1.2790  0.0367  0.3633
  191SAPI   C3522135   4.199   5.719   3.059 -0.0840 -0.1644 -0.4042
  191SAPI   H5X22136   4.094   5.750   3.042 -0.6815 -1.6481  0.3924
  191SAPI   H5Y22137   4.263   5.809   3.046  0.2670 -0.2154  0.8481
  191SAPI   C3622138   4.199   5.675   3.209  0.5726 -0.0479 -0.4046
  191SAPI   H6X22139   4.296   5.640   3.249 -0.6246 -1.2706  1.5576
  191SAPI   H6Y22140   4.137   5.584   3.222  0.8041 -0.0601  0.6642
  191SAPI   C3722141   4.127   5.784   3.293  0.1086  0.2548 -0.1589
  191SAPI   H7X22142   4.106   5.731   3.388 -2.1253  2.5856  0.7493
  191SAPI   H7Y22143   4.025   5.807   3.255  0.4060  0.7449 -0.6686
  191SAPI   C3822144   4.199   5.915   3.325 -0.7339  0.3135  0.4317
  191SAPI   H8X22145   4.200   5.978   3.234 -1.1511  1.2093  1.0301
  191SAPI   H8Y22146   4.305   5.888   3.343 -0.9993 -0.1515  1.4062
  191SAPI   C3922147   4.142   5.990   3.442  0.4395 -0.4237  0.3617
  191SAPI   H9X22148   4.032   6.002   3.428  0.5222 -0.5782 -0.5193
  191SAPI   H9Y22149   4.178   6.095   3.435  0.3192 -0.4457 -0.9773
  191SAPI  C31022150   4.187   5.927   3.577  0.1358 -0.3422  0.0396
  191SAPI  H10X22151   4.298   5.934   3.571  0.1345 -0.1477  0.2511
  191SAPI  H10Y22152   4.142   5.826   3.586 -1.9138  0.4796 -0.5621
  191SAPI  C31122153   4.139   6.016   3.697  0.1583  0.6490  0.0721
  191SAPI  H11X22154   4.029   6.007   3.703  0.1664 -0.5796 -1.1665
  191SAPI  H11Y22155   4.166   6.119   3.665 -1.3024  0.9988 -0.1182
  191SAPI  C31222156   4.215   5.976   3.828  0.3256  0.4797 -0.3785
  191SAPI  H12X22157   4.321   5.946   3.809  0.1917  0.2526 -0.7769
  191SAPI  H12Y22158   4.167   5.886   3.873  0.3060  0.9153  0.4913
  191SAPI  C31322159   4.200   6.083   3.935  0.0481  0.1752 -0.4625
  191SAPI  H13X22160   4.101   6.131   3.923 -1.2247 -1.4730  2.3077
  191SAPI  H13Y22161   4.279   6.157   3.909  1.4456 -1.8046 -2.1887
  191SAPI  C31422162   4.215   6.026   4.078 -0.3536 -0.7164 -0.0235
  191SAPI  H14X22163   4.128   5.963   4.107  1.3078 -1.9391  2.6761
  191SAPI  H14Y22164   4.215   6.102   4.160  0.0742 -1.8774  1.0834
  191SAPI  C31522165   4.350   5.950   4.085 -1.1909  0.2536 -0.7778
  191SAPI  H15X22166   4.428   6.022   4.054 -1.2490  0.9223  0.5559
  191SAPI  H15Y22167   4.356   5.865   4.013  3.5673  1.2086 -1.8236
  191SAPI  C31622168   4.380   5.900   4.225 -0.3547 -1.1613  0.1877
  191SAPI  H16X22169   4.295   5.836   4.257 -0.2604 -1.2606  0.2401
  191SAPI  H16Y22170   4.384   5.980   4.302  0.9327 -0.4456 -0.5922
  191SAPI  C31722171   4.507   5.825   4.231 -0.0382  0.1305 -0.5833
  191SAPI  H17X22172   4.595   5.893   4.226 -0.7513  1.0416 -0.8737
  191SAPI  H17Y22173   4.517   5.757   4.143 -0.6945  1.9360 -2.1159
  191SAPI  C31822174   4.523   5.731   4.350 -1.0757  0.7221  0.6903
  191SAPI  H18X22175   4.450   5.650   4.371  1.2879 -1.4545  1.0499
  191SAPI  H18Y22176   4.534   5.788   4.444  0.2291 -0.6042  1.3710
  191SAPI  H18Z22177   4.621   5.681   4.336 -1.7675 -0.3729 -0.4887
  192SAPI   C1222178   4.326   5.146   2.138 -0.1597  0.2724  0.1008
  192SAPI    H222179   4.249   5.112   2.064  1.0410  0.1968 -1.1510
  192SAPI    O222180   4.429   5.045   2.138  0.3660  0.5443  0.7939
  192SAPI   HO222181   4.420   4.988   2.215 -1.2213 -1.3339 -0.6855
  192SAPI   C1322182   4.377   5.276   2.083 -0.3164 -0.0328 -0.2971
  192SAPI    H322183   4.298   5.351   2.102 -0.5339 -0.6169  1.3169
  192SAPI    O322184   4.414   5.275   1.944 -0.1471  0.2358  0.2590
  192SAPI   HO322185   4.442   5.361   1.911  0.4336 -0.7983 -2.1626
  192SAPI   C1422186   4.494   5.323   2.171 -0.3411 -0.5124  0.6042
  192SAPI    H422187   4.570   5.246   2.148  0.0695 -0.1624  0.7602
  192SAPI    O422188   4.559   5.439   2.119 -0.3202 -0.1317  0.3930
  192SAPI   HO422189   4.655   5.428   2.116 -0.0697  1.8363 -1.0839
  192SAPI   C1522190   4.463   5.319   2.321  0.1186  0.5905 -0.0355
  192SAPI    H522191   4.422   5.421   2.340 -2.2622 -0.5844  1.6982
  192SAPI    O522192   4.587   5.313   2.386 -0.1723  0.7914  0.1242
  192SAPI   HO522193   4.599   5.399   2.427  0.6926  0.9712 -0.4673
  192SAPI   C1622194   4.355   5.225   2.371 -0.5026  0.3436 -0.2795
  192SAPI    H622195   4.405   5.135   2.412 -2.4850 -0.5119  0.4090
  192SAPI    O622196   4.280   5.290   2.475  0.2512 -0.3853 -0.2598
  192SAPI   HO622197   4.246   5.217   2.526 -1.2104  1.2248  1.1842
  192SAPI   C1122198   4.256   5.167   2.274 -0.7867  0.5705 -0.7648
  192SAPI    H122199   4.175   5.242   2.258 -1.7754 -0.0632  1.0220
  192SAPI     P22200   4.030   5.010   2.288 -0.2361  0.2499  0.0127
  192SAPI   O1322201   4.001   4.874   2.354 -0.8008  0.2681 -0.1499
  192SAPI   O1422202   3.999   5.025   2.143 -1.1200 -0.0689 -0.3350
  192SAPI   O1222203   4.194   5.050   2.320 -0.0805 -0.1151  0.4311
  192SAPI   O1122204   3.942   5.120   2.365 -0.0350 -0.0463  0.0205
  192SAPI    C122205   3.964   5.176   2.495  0.2264  0.0654  0.4962
  192SAPI    HA22206   4.072   5.180   2.518  0.1830  0.2881  0.6622
  192SAPI    HB22207   3.918   5.276   2.482  0.8692  0.0817 -2.0185
  192SAPI    C222208   3.903   5.097   2.617 -0.2390 -0.0900 -0.5374
  192SAPI    HS22209   3.931   4.990   2.611 -1.2825 -0.2951 -2.4489
  192SAPI   O2122210   3.757   5.113   2.615 -0.4079 -0.6648 -0.0173
  192SAPI   C2122211   3.687   5.000   2.619  0.4344 -0.2354  0.5128
  192SAPI   O2222212   3.732   4.884   2.628  0.3750 -1.1264 -0.9174
  192SAPI   C2222213   3.538   5.038   2.593 -0.3048 -0.7051 -0.3126
  192SAPI   H2R22214   3.528   5.034   2.483 -2.1628  0.0454 -0.2118
  192SAPI   H2S22215   3.485   4.954   2.642 -1.2145  0.4542  0.7725
  192SAPI    C322216   3.969   5.148   2.746  0.1028  0.1935  0.0225
  192SAPI    HX22217   4.076   5.119   2.746 -0.0320 -0.3232 -0.7740
  192SAPI    HY22218   3.933   5.080   2.826 -0.4050  0.2694 -0.1384
  192SAPI   O3122219   3.958   5.294   2.773 -0.0408  0.6186 -0.2301
  192SAPI   C3122220   3.843   5.327   2.836  0.0302  0.3103 -0.5940
  192SAPI   O3222221   3.748   5.245   2.856 -0.0438 -0.2298  0.3289
  192SAPI   C3222222   3.824   5.472   2.864  0.2662  0.1365  0.4371
  192SAPI   H2X22223   3.744   5.504   2.794  0.8305  1.3316  0.3106
  192SAPI   H2Y22224   3.916   5.529   2.839  0.6818  0.1050  1.8136
  192SAPI   C2322225   3.501   5.178   2.637  0.3524  0.0719  0.4328
  192SAPI   H3R22226   3.564   5.253   2.585 -0.7418 -0.0745 -1.2083
  192SAPI   H3S22227   3.529   5.191   2.743  0.0338  0.8663  0.4256
  192SAPI   C2422228   3.351   5.208   2.619  0.4545 -0.8441  0.4046
  192SAPI   H4R22229   3.339   5.247   2.516 -0.1843 -1.7948  0.0991
  192SAPI   H4S22230   3.317   5.295   2.680 -0.0612 -1.2731  0.7390
  192SAPI   C2522231   3.250   5.097   2.638 -0.1571 -0.5175  0.1034
  192SAPI   H5R22232   3.179   5.071   2.557 -1.1406  0.6282  0.5794
  192SAPI   C2622233   3.210   5.049   2.754  0.1953 -0.5146 -0.5833
  192SAPI   H6R22234   3.135   4.968   2.754 -0.5449  0.1086  1.5113
  192SAPI   C2722235   3.262   5.085   2.893 -0.7512 -0.2812 -0.6844
  192SAPI   H7R22236   3.360   5.137   2.890 -0.1044 -1.1839  2.0773
  192SAPI   H7S22237   3.290   4.993   2.948  1.1436 -0.0363 -1.1619
  192SAPI   C2822238   3.155   5.162   2.962  0.2634 -0.1087  0.2027
  192SAPI   H8R22239   3.062   5.185   2.908 -0.5614 -0.4214  1.4398
  192SAPI   C2922240   3.160   5.200   3.093 -0.0891 -1.0155 -0.9375
  192SAPI   H9R22241   3.066   5.237   3.135 -0.3055 -0.8579 -1.5434
  192SAPI  C21022242   3.275   5.176   3.192 -0.0386 -0.0790  0.5523
  192SAPI  H10R22243   3.308   5.070   3.189  0.3393 -0.0740  2.9064
  192SAPI  H10S22244   3.245   5.174   3.299  0.2550 -0.1740  0.6330
  192SAPI  C21122245   3.402   5.251   3.179  0.2220 -0.3680 -0.2873
  192SAPI  H11R22246   3.457   5.246   3.084  2.3645  0.2053  0.8547
  192SAPI  C21222247   3.454   5.343   3.267  0.0490  0.0259  0.0131
  192SAPI  H12R22248   3.551   5.387   3.240  0.0451  0.7675  1.1298
  192SAPI  C21322249   3.395   5.389   3.402  0.0140  1.0760  0.1417
  192SAPI  H13R22250   3.347   5.304   3.455  0.6471  0.1151 -0.8067
  192SAPI  H13S22251   3.315   5.460   3.372 -1.5648 -1.2688 -1.4639
  192SAPI  C21422252   3.492   5.461   3.498 -0.9040  0.2719 -0.2484
  192SAPI  H14R22253   3.581   5.506   3.452 -1.3332  0.3861 -0.9701
  192SAPI  C21522254   3.468   5.490   3.625  0.0426 -0.4392  0.3588
  192SAPI  H15R22255   3.544   5.543   3.685  1.7761  0.2443 -2.2449
  192SAPI  C21622256   3.345   5.438   3.694 -1.1388  0.4048 -0.0896
  192SAPI  H16R22257   3.283   5.378   3.623 -0.7388  0.9403 -0.9106
  192SAPI  H16S22258   3.285   5.524   3.730 -0.7039  0.9319 -0.6149
  192SAPI  C21722259   3.372   5.349   3.821  0.1413 -0.0693  0.1309
  192SAPI  H17R22260   3.445   5.409   3.880  1.4774 -1.8972  0.4143
  192SAPI  H17S22261   3.426   5.255   3.794  0.7086 -0.3012  1.8863
  192SAPI  C21822262   3.241   5.326   3.896 -0.0414  0.0847  0.2149
  192SAPI  H18R22263   3.184   5.253   3.836 -0.1155 -0.2285  0.6620
  192SAPI  H18S22264   3.179   5.418   3.893  0.9566  0.7883 -3.8932
  192SAPI  C21922265   3.258   5.280   4.041  1.1445  0.1994  0.2233
  192SAPI  H19R22266   3.329   5.344   4.097  0.5976 -1.3114  2.8245
  192SAPI  H19S22267   3.306   5.180   4.045 -1.2221 -0.9912  0.8992
  192SAPI  C22022268   3.134   5.286   4.122 -0.0228  0.1851  0.1015
  192SAPI  H20R22269   3.050   5.233   4.072  0.1408  0.2367 -0.2315
  192SAPI  H20S22270   3.108   5.393   4.134  0.1224  0.2038  0.2594
  192SAPI  H20T22271   3.138   5.234   4.221  0.1520  0.7605  0.3979
  192SAPI   C3322272   3.772   5.497   3.014  0.3056  0.1956  0.5064
  192SAPI   H3X22273   3.680   5.443   3.043  1.4806 -2.1527  0.1111
  192SAPI   H3Y22274   3.745   5.603   3.034 -0.3074  0.4912 -1.6304
  192SAPI   C3422275   3.877   5.456   3.124  0.1887 -0.6734  0.2272
  192SAPI   H4X22276   3.970   5.515   3.107  0.5178 -0.8353  1.3638
  192SAPI   H4Y22277   3.899   5.347   3.122  2.7595 -0.2112 -1.0429
  192SAPI   C3522278   3.834   5.484   3.266 -0.4984 -0.6388 -0.1970
  192SAPI   H5X22279   3.919   5.454   3.331 -0.9074 -1.2802  0.0550
  192SAPI   H5Y22280   3.743   5.429   3.299  0.4310 -2.3368 -0.3700
  192SAPI   C3622281   3.794   5.632   3.302  0.3907 -0.5668 -0.0201
  192SAPI   H6X22282   3.684   5.635   3.291  0.4628  0.7532 -0.5044
  192SAPI   H6Y22283   3.848   5.702   3.234  1.5702 -1.6155 -0.2027
  192SAPI   C3722284   3.824   5.671   3.449 -0.1233 -0.1567 -0.4742
  192SAPI   H7X22285   3.934   5.666   3.467  0.4184  0.2880 -3.2748
  192SAPI   H7Y22286   3.782   5.597   3.520 -0.7671  1.2637  0.6697
  192SAPI   C3822287   3.772   5.818   3.483 -0.9035  0.4599 -0.4522
  192SAPI   H8X22288   3.668   5.831   3.445 -1.8397  0.8867  2.0914
  192SAPI   H8Y22289   3.844   5.880   3.425  2.0270 -3.2416 -1.1512
  192SAPI   C3922290   3.769   5.859   3.629  0.8369 -0.1634  0.3899
  192SAPI   H9X22291   3.693   5.938   3.642  0.4404  0.3820 -3.6880
  192SAPI   H9Y22292   3.867   5.906   3.652  2.0550 -1.4465 -1.7607
  192SAPI  C31022293   3.749   5.752   3.738 -0.0031 -0.1734  0.2986
  192SAPI  H10X22294   3.830   5.678   3.722 -1.0910 -0.8793 -2.3125
  192SAPI  H10Y22295   3.651   5.704   3.721 -0.9702  1.7909 -0.0006
  192SAPI  C31122296   3.766   5.812   3.880 -0.2122  0.4333  0.3127
  192SAPI  H11X22297   3.849   5.885   3.884  1.6035 -1.5547  0.4695
  192SAPI  H11Y22298   3.797   5.736   3.955  0.0816  0.1309 -0.1089
  192SAPI  C31222299   3.622   5.858   3.932 -0.1390  0.1648  0.5437
  192SAPI  H12X22300   3.566   5.770   3.971  1.9753 -0.3633  2.6399
  192SAPI  H12Y22301   3.562   5.890   3.845  0.9831  1.4162  0.1956
  192SAPI  C31322302   3.636   5.984   4.023 -0.1652 -0.2311 -0.0316
  192SAPI  H13X22303   3.534   6.011   4.059 -0.1888  0.7586 -0.7844
  192SAPI  H13Y22304   3.689   6.057   3.958  0.0084 -1.1461 -0.9347
  192SAPI  C31422305   3.717   5.955   4.153  0.0737 -0.4709 -0.8971
  192SAPI  H14X22306   3.703   6.034   4.230  0.1266 -1.6639  0.3643
  192SAPI  H14Y22307   3.828   5.951   4.142  0.5169  3.3782  0.5563
  192SAPI  C31522308   3.651   5.833   4.220  0.5864 -0.6040 -0.1788
  192SAPI  H15X22309   3.666   5.749   4.149  0.7142  0.2128 -1.1323
  192SAPI  H15Y22310   3.542   5.851   4.232  0.8307  2.1932 -1.3184
  192SAPI  C31622311   3.709   5.800   4.359 -0.5809  0.0269  0.4762
  192SAPI  H16X22312   3.709   5.893   4.421 -0.0205  1.3342 -1.4063
  192SAPI  H16Y22313   3.814   5.767   4.341 -0.5545  0.7491 -0.7866
  192SAPI  C31722314   3.626   5.701   4.443 -0.4459  0.3850  0.4599
  192SAPI  H17X22315   3.641   5.609   4.383 -0.5044  0.9592 -0.4598
  192SAPI  H17Y22316   3.521   5.737   4.436 -0.3886  0.2307 -2.0708
  192SAPI  C31822317   3.675   5.665   4.585 -0.0322  0.6815 -0.2490
  192SAPI  H18X22318   3.707   5.751   4.648 -1.9073  2.4406 -1.5398
  192SAPI  H18Y22319   3.763   5.597   4.575 -0.1957  0.2745  0.9560
  192SAPI  H18Z22320   3.591   5.610   4.630 -0.0248 -1.0145 -2.1723
  193SOD    SOD22321   2.194   2.620   7.225  0.1828  0.1009  0.0221
  194SOD    SOD22322   1.311   1.764   8.833 -0.0513  0.2757  0.4401
  195SOD    SOD22323   0.586   6.444   7.742 -0.2875  0.1472  0.1144
  196SOD    SOD22324   1.780   5.194   1.606 -0.2443  0.0044  0.1877
  197SOD    SOD22325   4.135   0.606   8.150  0.2307 -0.2174  0.0833
  198SOD    SOD22326   3.140   4.255   0.753  0.0575  0.3214  0.4763
  199SOD    SOD22327   1.641   4.711   2.140  0.5908 -0.1086  0.1931
  200SOD    SOD22328   1.545   0.980   7.627  0.1373  0.0478 -0.2456
  201SOD    SOD22329   6.487   2.406   1.746  0.5040 -0.2529  0.1775
  202SOD    SOD22330   3.842   3.207   1.260 -0.1257 -0.1108 -0.1907
  203SOD    SOD22331   4.496   2.016   7.420  0.1183  0.1910 -0.0960
  204SOD    SOD22332   3.426   2.775   1.585  0.1414 -0.3054 -0.5940
  205SOD    SOD22333   3.993   4.070   6.740  0.1747  0.1738  0.0412
  206SOD    SOD22334   6.052   2.981   1.080  0.2740 -0.0126  0.5080
  207SOD    SOD22335   4.597   1.184   0.212 -0.3036  0.5320  0.1654
  208SOD    SOD22336   3.359   5.425   6.302  0.0378  0.0594 -0.1489
  209SOD    SOD22337   5.128   2.091   7.080 -0.4988  0.2637  0.0628
  210SOD    SOD22338   4.901   6.131   1.413  0.0714  0.5475  0.1538
  211SOD    SOD22339   1.120   2.741   0.236  0.1693  0.5487 -0.1166
  212SOD    SOD22340   3.177   0.144   6.924 -0.4661  0.0974  0.0862
  213SOD    SOD22341   3.212   0.258   1.336 -0.0184  0.3252  0.3551
  214SOD    SOD22342   5.785   5.664   2.070  0.2424  0.2704 -0.0101
  215SOD    SOD22343   0.983   4.411   0.190 -0.4776 -0.2836  0.3657
  216SOD    SOD22344   0.064   5.955   6.695  0.1384 -0.2231 -0.1820
  217SOD    SOD22345   0.789   2.523   7.136  0.1842  0.5170  0.0010
  218SOD    SOD22346   3.528   0.465   2.065 -0.4557 -0.1286 -0.0430
  219SOD    SOD22347   1.830   3.707   7.760  0.6551 -0.3201  0.1438
  220SOD    SOD22348   5.148   4.288   8.203 -0.2691  1.1019 -0.2747
  221SOD    SOD22349   0.889   0.319   0.588  0.3562  0.1603  0.1031
  222SOD    SOD22350   5.951   4.480   7.988  0.0196  0.0763 -0.2043
  223SOD    SOD22351   3.785   4.062   8.639 -0.4061  0.1832  0.0143
  224SOD    SOD22352   1.986   4.621   8.355  0.1492 -0.1241 -0.3193
  225SOD    SOD22353   0.083   2.195   8.032  0.3072 -0.3067  0.6941
  226SOD    SOD22354   1.545   0.029   6.788 -0.4743  0.1461  0.1516
  227SOD    SOD22355   6.102   4.671   8.774  0.1325 -0.0135 -0.7197
  228SOD    SOD22356   2.650   4.947   7.490 -0.2460  0.5267  0.1645
  229SOD    SOD22357   3.948   6.622   8.771 -0.3218  0.2294 -0.2452
  230CLA    CLA22358   5.719   2.568   8.775  0.1078  0.2850 -0.4418
  231CLA    CLA22359   1.393   3.098   7.893  0.3600 -0.0658 -0.0184
  232CLA    CLA22360   0.467   1.595   7.979  0.1422  0.0807  0.0058
  233CLA    CLA22361   3.376   0.139   8.423  0.1024 -0.1096  0.3492
  234CLA    CLA22362   2.644   5.348   7.932  0.0866  0.4083 -0.1091
  235CLA    CLA22363   3.872   1.334   1.817  0.3503  0.0472  0.1831
  236CLA    CLA22364   6.614   3.360   0.747 -0.0856 -0.1248  0.4445
  237CLA    CLA22365   5.111   6.353   7.555 -0.1490  0.0086  0.3688
  238CLA    CLA22366   1.168   3.943   1.109 -0.1733  0.1934  0.0950
  239CLA    CLA22367   3.201   4.356   7.715  0.2674 -0.2851 -0.0424
  240CLA    CLA22368   1.307   5.808   7.389  0.2299 -0.1388 -0.0832
  241CLA    CLA22369   6.042   5.146   7.309  0.1467  0.0004 -0.2046
  242CLA    CLA22370   1.915   5.510   1.239  0.0164 -0.3423  0.3170
  243CLA    CLA22371   4.599   1.705   0.069  0.4303 -0.1244 -0.2269
  244CLA    CLA22372   3.093   1.438   8.368 -0.0815  0.0561 -0.0208
  245CLA    CLA22373   1.805   1.936   7.667 -0.3917 -0.2636 -0.3017
  246CLA    CLA22374   3.230   3.545   8.626  0.3563 -0.0858 -0.1000
  247TIP3   OH222375   3.955   3.707   0.370 -0.5326  0.1143 -0.6269
  247TIP3    H122376   3.885   3.763   0.336 -1.3601  0.0900  0.9617
  247TIP3    H222377   4.032   3.764   0.373  0.2947 -0.4837 -4.7084
  248TIP3   OH222378   4.028   5.747   8.835  0.0232  0.0371 -0.2221
  248TIP3    H122379   3.974   5.669   8.827  1.5614 -1.0817 -0.0544
  248TIP3    H222380   4.093   5.739   8.765  0.7342  0.7254  0.3389
  249TIP3   OH222381   5.586   1.402   7.430 -0.2395 -0.0869  0.2403
  249TIP3    H122382   5.500   1.395   7.389 -0.3762  0.0649  0.4955
  249TIP3    H222383   5.648   1.383   7.360 -0.4545  0.6918 -0.1746
  250TIP3   OH222384   6.441   4.596   7.307 -0.2266  0.1122  0.0103
  250TIP3    H122385   6.354   4.556   7.316 -0.2842  0.3845  0.7235
  250TIP3    H222386   6.423   4.686   7.279 -0.1222 -0.1484 -0.9365
  251TIP3   OH222387   3.975   3.752   8.090 -0.4853  0.5860  0.0035
  251TIP3    H122388   3.908   3.819   8.074  0.4909  1.4499 -0.6172
  251TIP3    H222389   4.056   3.802   8.097  0.0260 -0.3786  1.3559
  252TIP3   OH222390   0.368   4.350   0.309  0.2723  0.4388  0.5687
  252TIP3    H122391   0.429   4.294   0.261 -1.8819 -0.6967 -0.9891
  252TIP3    H222392   0.365   4.432   0.258 -0.7606 -0.1549 -0.3726
  253TIP3   OH222393   4.207   1.139   6.869  0.1037  0.4979 -0.8976
  253TIP3    H122394   4.287   1.131   6.817 -0.5600  0.2006 -1.8971
  253TIP3    H222395   4.177   1.229   6.854 -0.1746  0.3628 -1.1679
  254TIP3   OH222396   2.288   1.275   0.431  0.2908  0.3355  0.3976
  254TIP3    H122397   2.290   1.370   0.421 -0.2178  0.3593  0.4709
  254TIP3    H222398   2.362   1.243   0.379  0.4510  0.7693  0.3585
  255TIP3   OH222399   6.408   1.522   0.360 -0.1643 -0.2728 -0.5747
  255TIP3    H122400   6.478   1.495   0.420  0.3166  0.6611 -0.6989
  255TIP3    H222401   6.367   1.597   0.404 -0.4078 -0.1615 -0.9907
  256TIP3   OH222402   5.046   5.066   7.699  0.1151 -0.0494  0.2063
  256TIP3    H122403   5.102   4.994   7.670 -0.4859 -0.2550 -0.4935
  256TIP3    H222404   5.018   5.041   7.787  1.5193  0.3007  0.7671
  257TIP3   OH222405   1.908   4.056   0.978  0.5742 -0.6504  0.2368
  257TIP3    H122406   1.826   4.044   1.026  0.5590  2.0973  1.0438
  257TIP3    H222407   1.973   4.010   1.032  0.2331  0.7643  1.9331
  258TIP3   OH222408   2.341   1.716   6.942 -0.6084  0.0294  0.2518
  258TIP3    H122409   2.407   1.730   7.010 -2.3615 -0.8433  2.1982
  258TIP3    H222410   2.294   1.800   6.937  0.6396  0.7012 -1.2395
  259TIP3   OH222411   3.373   2.691   8.274 -0.4282 -0.6145 -0.0985
  259TIP3    H122412   3.369   2.596   8.280  0.2276 -0.5900  0.8563
  259TIP3    H222413   3.440   2.717   8.337 -1.0832  0.5366  0.1523
  260TIP3   OH222414   5.745   0.144   6.484  0.2718 -0.0198 -0.4397
  260TIP3    H122415   5.737   0.225   6.535 -1.2172  0.1364 -0.8792
  260TIP3    H222416   5.718   0.075   6.544  0.1374 -0.0255 -0.5067
  261TIP3   OH222417   3.415   4.686   7.542  0.0036 -0.4488 -0.1071
  261TIP3    H122418   3.434   4.725   7.628  1.2971  1.0650 -1.0350
  261TIP3    H222419   3.438   4.594   7.552  0.3420 -0.2540  1.1101
  262TIP3   OH222420   5.242   4.876   8.779 -0.6373 -0.3028 -0.3055
  262TIP3    H122421   5.261   4.933   8.705 -0.1851 -1.0487 -0.7765
  262TIP3    H222422   5.173   4.818   8.748 -1.7192  0.5227  0.4575
  263TIP3   OH222423   1.784   5.944   0.015  0.0494  0.2579  0.4011
  263TIP3    H122424   1.754   6.034   0.000 -0.0025  0.0830 -0.6774
  263TIP3    H222425   1.807   5.913  -0.073 -0.5958 -1.0074  0.6660
  264TIP3   OH222426   5.167   5.109   1.520  0.5560  0.5854 -0.0382
  264TIP3    H122427   5.149   5.194   1.561  0.4178 -0.0326  1.2564
  264TIP3    H222428   5.083   5.083   1.482  0.1228  0.2606  1.0877
  265TIP3   OH222429   6.456   5.630   8.751 -0.2665 -0.0316  0.1337
  265TIP3    H122430   6.361   5.631   8.752 -0.3095 -0.8994 -0.9958
  265TIP3    H222431   6.479   5.635   8.658  0.8142  0.9029  0.4254
  266TIP3   OH222432   2.931   6.374   0.966  0.4436  0.2182  0.7354
  266TIP3    H122433   3.026   6.361   0.972  0.2676 -1.2927  0.6691
  266TIP3    H222434   2.910   6.354   0.874  0.3438  2.8357  0.1209
  267TIP3   OH222435   2.465   6.712   1.250  0.1674 -0.5540 -0.2504
  267TIP3    H122436   2.525   6.774   1.290  0.1316  0.4110 -1.5996
  267TIP3    H222437   2.436   6.656   1.321  0.1428  1.0350  1.0429
  268TIP3   OH222438   0.611   5.208   8.100  0.5886  0.0257  0.3748
  268TIP3    H122439   0.627   5.145   8.170  0.4696 -0.0636  0.3232
  268TIP3    H222440   0.578   5.154   8.027  1.3834  0.0178  0.0063
  269TIP3   OH222441   4.259   5.958   7.326 -0.4344  0.1224 -0.4743
  269TIP3    H122442   4.229   5.882   7.276 -0.5465 -0.9102  1.0811
  269TIP3    H222443   4.275   5.924   7.414 -1.3682  2.0824  0.5304
  270TIP3   OH222444   3.231   1.921   7.322  0.2332 -0.2806 -0.4298
  270TIP3    H122445   3.282   1.897   7.399  0.1731 -3.9968 -1.3311
  270TIP3    H222446   3.140   1.905   7.347 -0.0262  0.9917 -0.5129
  271TIP3   OH222447   0.996   3.950   0.683  0.1497  0.3169 -0.5990
  271TIP3    H122448   1.047   4.020   0.725  1.5703 -1.0182  0.0001
  271TIP3    H222449   0.931   3.925   0.749  1.6026 -0.9556  0.3972
  272TIP3   OH222450   3.543   5.606   0.694 -0.8392 -0.1751 -1.0435
  272TIP3    H122451   3.581   5.519   0.683 -0.9275 -0.3463 -0.0423
  272TIP3    H222452   3.516   5.610   0.785 -1.3283  0.7112 -1.2099
  273TIP3   OH222453   0.544   4.694   6.860 -0.2075 -0.0437  0.2698
  273TIP3    H122454   0.486   4.697   6.784 -0.9284 -1.0609  0.7498
  273TIP3    H222455   0.517   4.615   6.907  1.5464 -0.5214  0.5412
  274TIP3   OH222456   5.841   1.849   8.760 -0.2756 -0.3758  0.1541
  274TIP3    H122457   5.776   1.783   8.785 -0.3277 -0.1428  0.6383
  274TIP3    H222458   5.794   1.932   8.767  0.6607  0.0126  2.6501
  275TIP3   OH222459   4.213   0.157   8.395  0.0225 -0.7079  0.2808
  275TIP3    H122460   4.178   0.085   8.344 -0.0501  1.0205 -2.2661
  275TIP3    H222461   4.288   0.120   8.441 -0.5057 -2.5790 -0.2860
  276TIP3   OH222462   0.262   3.964   6.517 -0.1312  0.3042 -0.1551
  276TIP3    H122463   0.324   4.031   6.547 -0.2869  0.8669 -1.0612
  276TIP3    H222464   0.277   3.957   6.423  1.5516 -2.6883  0.2180
  277TIP3   OH222465   2.166   1.438   7.103  0.1701  0.5022 -0.3629
  277TIP3    H122466   2.152   1.512   7.161 -0.8014  0.0568  0.0061
  277TIP3    H222467   2.163   1.361   7.161 -0.3359  0.0861 -0.9207
  278TIP3   OH222468   1.376   1.818   1.176  0.0789  0.1923 -0.1111
  278TIP3    H122469   1.287   1.798   1.149  0.2986 -0.4852 -0.3417
  278TIP3    H222470   1.428   1.744   1.145  0.6742  0.4396  0.2797
  279TIP3   OH222471   2.831   5.359   8.390 -0.2526 -0.4650  0.0892
  279TIP3    H122472   2.885   5.392   8.462  1.4215 -2.3302 -0.2187
  279TIP3    H222473   2.744   5.394   8.408  0.2152 -0.4347  2.7669
  280TIP3   OH222474   5.982   0.369   0.681 -0.7183  0.7457 -0.1200
  280TIP3    H122475   6.046   0.417   0.628 -0.4379 -0.9210 -1.3358
  280TIP3    H222476   5.897   0.407   0.656 -0.4913  0.7422 -0.9235
  281TIP3   OH222477   0.462   2.235   8.246 -0.5653 -0.0570 -0.0368
  281TIP3    H122478   0.534   2.208   8.303  0.0395 -0.3207 -0.9080
  281TIP3    H222479   0.494   2.313   8.202 -1.3580  0.6468  0.6115
  282TIP3   OH222480   6.206   6.757   1.790  0.4436  0.2182  0.1661
  282TIP3    H122481   6.121   6.796   1.815  0.8667  1.5658 -0.3871
  282TIP3    H222482   6.233   6.707   1.867 -0.7008  0.0354  0.4662
  283TIP3   OH222483   2.259   3.950   1.660  0.1657  0.8412  0.9517
  283TIP3    H122484   2.275   4.029   1.712 -0.4649  0.4097  1.8427
  283TIP3    H222485   2.342   3.901   1.665  0.5155  1.3764  0.5020
  284TIP3   OH222486   1.430   4.068   7.476 -0.5548 -0.1386  0.4720
  284TIP3    H122487   1.349   4.078   7.427 -0.3191 -1.5954 -0.2876
  284TIP3    H222488   1.489   4.134   7.439 -1.2957  0.7642  0.8689
  285TIP3   OH222489   1.749   6.678   7.545 -0.4677 -0.2628 -0.1406
  285TIP3    H122490   1.789   6.656   7.461 -0.2556  0.8878 -0.3568
  285TIP3    H222491   1.659   6.647   7.538 -0.5878  0.2571 -0.9825
  286TIP3   OH222492   5.690   2.608   7.378  0.1434 -0.4872 -0.4212
  286TIP3    H122493   5.664   2.519   7.354 -1.2847 -0.1110 -0.3642
  286TIP3    H222494   5.778   2.598   7.415 -0.3928 -2.0416  0.5506
  287TIP3   OH222495   1.095   1.924   7.505 -0.4796  0.1177  0.4630
  287TIP3    H122496   1.100   2.005   7.455  1.3824 -0.0808  0.2423
  287TIP3    H222497   1.018   1.934   7.561  0.1998  2.3998  1.0699
  288TIP3   OH222498   3.673   5.206   1.574 -0.3566 -0.1617 -0.6476
  288TIP3    H122499   3.594   5.174   1.617 -1.4313  0.3430 -2.1630
  288TIP3    H222500   3.643   5.277   1.518  1.0088 -0.5782 -1.9790
  289TIP3   OH222501   6.856   3.610   1.956 -0.2382  0.6585  0.2089
  289TIP3    H122502   6.912   3.559   2.014 -1.7145  0.7773  1.8373
  289TIP3    H222503   6.867   3.700   1.985 -0.8205  0.7506  0.1532
  290TIP3   OH222504   6.815   4.396   0.738 -0.2156 -0.7264 -0.6567
  290TIP3    H122505   6.797   4.465   0.801 -1.6852 -0.4535 -1.3504
  290TIP3    H222506   6.815   4.315   0.790  3.2259 -0.1746  0.4855
  291TIP3   OH222507   2.324   5.551   6.957  0.4062 -0.4584 -0.2488
  291TIP3    H122508   2.299   5.643   6.950 -1.3713 -0.9653 -1.3158
  291TIP3    H222509   2.318   5.532   7.050  0.0717  0.3280 -0.0970
  292TIP3   OH222510   4.152   3.150   0.564  0.1350 -0.7646 -0.6251
  292TIP3    H122511   4.135   3.056   0.566 -0.9044 -0.5762  0.4058
  292TIP3    H222512   4.164   3.171   0.472  1.1652 -2.0305 -0.8035
  293TIP3   OH222513   1.029   1.518   2.326 -0.0344  0.1627 -0.1766
  293TIP3    H122514   0.957   1.463   2.294  0.0020  0.3774 -0.6310
  293TIP3    H222515   1.018   1.518   2.421 -1.5753  1.4425 -0.3138
  294TIP3   OH222516   5.366   6.580   1.692 -0.3771  0.2371  0.3817
  294TIP3    H122517   5.323   6.646   1.746  0.2315  0.4194  0.6462
  294TIP3    H222518   5.298   6.515   1.675 -1.5579  1.8512 -1.4845
  295TIP3   OH222519   5.534   2.294   6.508 -0.3997  0.3613 -0.4577
  295TIP3    H122520   5.537   2.388   6.525  0.1844  0.2321  0.2308
  295TIP3    H222521   5.588   2.282   6.430 -1.4915  0.7380 -1.2791
  296TIP3   OH222522   0.101   4.781   0.415  0.2463  0.1004 -0.7739
  296TIP3    H122523   0.019   4.814   0.379  0.3505  1.8749  0.4678
  296TIP3    H222524   0.083   4.689   0.436 -1.8451  0.7558  0.5922
  297TIP3   OH222525   1.461   3.453   1.519 -0.1627 -0.4402 -0.1345
  297TIP3    H122526   1.415   3.507   1.583  0.9675  0.0810  0.2831
  297TIP3    H222527   1.427   3.482   1.434  0.6841  1.2725  0.0460
  298TIP3   OH222528   6.796   3.880   7.329 -0.0878  0.1662 -0.7956
  298TIP3    H122529   6.808   3.943   7.400  1.0937 -0.4181 -0.4340
  298TIP3    H222530   6.763   3.801   7.372  1.8100 -0.6103 -0.6325
  299TIP3   OH222531   6.145   6.256   1.558 -0.0810  0.2158  1.2322
  299TIP3    H122532   6.203   6.323   1.521 -0.3644 -0.4667 -0.5275
  299TIP3    H222533   6.105   6.299   1.634 -0.4515  2.1557  0.0032
  300TIP3   OH222534   6.217   0.426   8.212  0.1224  0.3244 -0.2036
  300TIP3    H122535   6.184   0.516   8.216  1.0543  0.6381  1.0392
  300TIP3    H222536   6.140   0.374   8.190 -0.5426  1.3662 -0.4306
  301TIP3   OH222537   3.701   4.866   1.939  0.0325  1.0403  0.1591
  301TIP3    H122538   3.745   4.788   1.975 -1.7867 -0.6589 -1.0719
  301TIP3    H222539   3.772   4.916   1.898  1.0436 -1.0474 -0.8303
  302TIP3   OH222540   3.866   3.064   0.217 -0.2211  0.4058  0.3855
  302TIP3    H122541   3.819   3.145   0.236 -0.0464  0.2720  1.4806
  302TIP3    H222542   3.863   3.055   0.122 -2.1956  0.5225  0.4001
  303TIP3   OH222543   2.122   4.083   7.653  0.0612  0.4790  0.6344
  303TIP3    H122544   2.035   4.067   7.691 -0.6441 -0.8905 -1.3899
  303TIP3    H222545   2.176   4.012   7.688 -0.4300 -0.4172 -0.3500
  304TIP3   OH222546   5.004   4.310   1.433 -0.2536 -0.2251  0.1072
  304TIP3    H122547   4.987   4.391   1.482 -1.7529 -0.2590 -0.3144
  304TIP3    H222548   4.947   4.245   1.473  0.0320 -0.7678 -0.3581
  305TIP3   OH222549   3.867   1.166   6.948 -0.2332  0.4596  0.0225
  305TIP3    H122550   3.864   1.190   7.041 -0.0315  1.7077 -0.2733
  305TIP3    H222551   3.869   1.250   6.902  0.8870 -0.1338 -1.0680
  306TIP3   OH222552   3.607   1.739   7.378  0.2112  0.1391 -0.4214
  306TIP3    H122553   3.630   1.787   7.299  1.0132 -0.1285 -0.3693
  306TIP3    H222554   3.655   1.785   7.448 -0.5959  0.4545 -0.0677
  307TIP3   OH222555   0.925   3.811   8.454 -0.2678  0.2841  0.0558
  307TIP3    H122556   0.886   3.765   8.528  0.4951 -0.7162 -0.1380
  307TIP3    H222557   0.894   3.902   8.462 -1.3305 -0.1268  0.7808
  308TIP3   OH222558   2.665   4.238   7.926 -0.1068  0.3393 -0.2130
  308TIP3    H122559   2.609   4.248   8.003 -2.3008 -1.6087 -1.4084
  308TIP3    H222560   2.620   4.287   7.857  1.1228  0.9580 -0.6057
  309TIP3   OH222561   3.529   5.527   8.202  0.1448 -0.2409 -0.2798
  309TIP3    H122562   3.609   5.494   8.161  1.5208  3.3024 -0.8011
  309TIP3    H222563   3.553   5.541   8.293 -0.0575  0.1963 -0.2891
  310TIP3   OH222564   1.566   2.418   7.716  0.2863 -0.1576  0.4960
  310TIP3    H122565   1.557   2.349   7.650 -0.2370  1.6993 -1.4544
  310TIP3    H222566   1.654   2.452   7.702  0.1328  0.3202  0.6983
  311TIP3   OH222567   4.905   1.123   8.347 -0.0052  0.2234 -0.3613
  311TIP3    H122568   4.869   1.192   8.403 -0.4627  1.0721 -1.6745
  311TIP3    H222569   4.830   1.088   8.300  0.3977 -0.3930 -0.5655
  312TIP3   OH222570   1.246   1.488   6.671 -0.1100  0.5417 -0.0928
  312TIP3    H122571   1.244   1.396   6.646  0.2961  0.2612  0.8869
  312TIP3    H222572   1.318   1.495   6.734 -1.5312  1.0600  1.5593
  313TIP3   OH222573   5.354   1.970   6.676  0.3038  0.5225  0.2009
  313TIP3    H122574   5.325   1.989   6.587 -0.3178  0.2901  0.3456
  313TIP3    H222575   5.393   1.882   6.670 -0.5544  0.1270  0.3277
  314TIP3   OH222576   4.216   4.837   0.970  0.4249  0.5906 -0.2481
  314TIP3    H122577   4.217   4.808   1.061 -1.5150 -0.2145 -0.4301
  314TIP3    H222578   4.297   4.802   0.933  0.2787 -0.8115  0.6734
  315TIP3   OH222579   0.060   4.726   7.733 -0.6837 -1.0642  0.6644
  315TIP3    H122580   0.080   4.755   7.821 -0.8882 -1.4814  0.8526
  315TIP3    H222581  -0.035   4.719   7.731 -0.9049  1.3389 -0.3598
  316TIP3   OH222582   6.577   3.689   8.063 -0.7955  0.2138  0.2657
  316TIP3    H122583   6.512   3.734   8.116 -1.8572  1.7726 -2.1505
  316TIP3    H222584   6.559   3.719   7.973  2.5648 -0.1252 -0.6587
  317TIP3   OH222585   5.489   3.552   8.518  0.0358 -1.2904 -0.3985
  317TIP3    H122586   5.443   3.505   8.449  1.6303 -1.5304 -1.3443
  317TIP3    H222587   5.560   3.598   8.473 -0.1274  0.2475  0.8050
  318TIP3   OH222588   4.664   3.941   0.396  0.2273 -0.5720  0.0087
  318TIP3    H122589   4.649   3.874   0.462 -2.8991  0.0065  0.0581
  318TIP3    H222590   4.688   4.019   0.446  0.0185 -0.6820  0.2798
  319TIP3   OH222591   6.024   1.896   8.122 -0.5284  0.7381  0.3889
  319TIP3    H122592   6.050   1.808   8.148  0.4633  0.6828 -0.6929
  319TIP3    H222593   6.107   1.943   8.113 -0.8714  1.0539 -1.5048
  320TIP3   OH222594   5.373   4.700   8.483 -0.0916 -0.6034  0.6814
  320TIP3    H122595   5.368   4.660   8.570  1.8864  0.0131  1.1135
  320TIP3    H222596   5.456   4.671   8.447  0.7505  1.8910  0.4152
  321TIP3   OH222597   0.946   4.433   1.201  0.3864 -0.0966 -0.1419
  321TIP3    H122598   0.961   4.338   1.208  1.2602 -0.0076 -0.6142
  321TIP3    H222599   0.879   4.441   1.134  0.9335 -0.3536 -0.7359
  322TIP3   OH222600   2.032   5.193   1.140  0.1727  0.3587 -0.3372
  322TIP3    H122601   1.987   5.259   1.192  1.3489  0.5844  0.4162
  322TIP3    H222602   1.988   5.195   1.055 -1.9168 -0.1776  0.6847
  323TIP3   OH222603   3.477   2.100   7.667  0.2506 -0.1637  0.1518
  323TIP3    H122604   3.475   2.120   7.573 -1.0529  1.6035  0.4979
  323TIP3    H222605   3.398   2.142   7.702  0.7952 -0.6401  2.0785
  324TIP3   OH222606   0.475   1.805   8.807  0.4327 -0.3307 -0.0787
  324TIP3    H122607   0.451   1.861   8.734  0.9294  0.3809  0.2955
  324TIP3    H222608   0.430   1.722   8.789 -1.9606  0.7768  0.3675
  325TIP3   OH222609   6.261   3.180   7.466  0.5656 -0.1372 -0.0957
  325TIP3    H122610   6.271   3.273   7.445 -1.2211  0.2479  0.5496
  325TIP3    H222611   6.256   3.137   7.381 -1.9618  0.8316 -0.5376
  326TIP3   OH222612   2.308   4.552   8.749 -0.1391  0.4646 -0.0036
  326TIP3    H122613   2.299   4.565   8.655  0.1695 -1.1568 -0.2844
  326TIP3    H222614   2.375   4.616   8.776  0.5466  0.2155 -1.0712
  327TIP3   OH222615   5.210   3.765   7.162 -0.3781 -0.4075 -0.3029
  327TIP3    H122616   5.150   3.838   7.147 -1.0559 -0.8080  0.3518
  327TIP3    H222617   5.248   3.747   7.077  0.8498  1.5824 -0.2322
  328TIP3   OH222618   0.768   1.179   1.454  0.3659 -0.4128  0.7861
  328TIP3    H122619   0.695   1.220   1.501  2.0845  1.2894  2.0899
  328TIP3    H222620   0.754   1.204   1.363 -2.1333 -2.4349  0.4697
  329TIP3   OH222621   2.692   0.815   8.077  0.1914 -0.3628  0.2386
  329TIP3    H122622   2.610   0.765   8.079  1.2945 -2.3062 -0.2620
  329TIP3    H222623   2.665   0.906   8.074 -1.9394 -0.9052  1.1607
  330TIP3   OH222624   4.985   3.154   0.577 -0.0341 -0.2004  0.0121
  330TIP3    H122625   5.005   3.234   0.528 -0.1917  0.5553  1.1400
  330TIP3    H222626   4.962   3.185   0.665  1.2387 -1.5863  0.8734
  331TIP3   OH222627   0.069   1.755   0.687 -0.2399  0.5885  0.1107
  331TIP3    H122628   0.071   1.772   0.781 -1.1122 -0.1860  0.2798
  331TIP3    H222629   0.026   1.670   0.678  2.2279 -0.6620 -0.8277
  332TIP3   OH222630   4.846   0.281   0.398 -0.1030 -0.6006 -0.1115
  332TIP3    H122631   4.869   0.272   0.305  2.1091  3.0622 -0.1378
  332TIP3    H222632   4.762   0.327   0.397  0.7746  1.0858 -0.4351
  333TIP3   OH222633   2.642   3.163   8.843  0.2399  0.4178 -0.2976
  333TIP3    H122634   2.706   3.106   8.886 -0.3386  0.1010  0.1478
  333TIP3    H222635   2.560   3.115   8.847 -0.1636  1.0948 -0.3204
  334TIP3   OH222636   0.318   5.405   0.573  0.4427 -0.2677 -0.4644
  334TIP3    H122637   0.330   5.384   0.666  0.7333  1.4162 -0.0970
  334TIP3    H222638   0.391   5.463   0.552  0.6602 -1.0346 -1.8921
  335TIP3   OH222639   1.740   1.925   7.352 -0.0298  0.4208 -0.1146
  335TIP3    H122640   1.647   1.915   7.374  0.5735 -0.7014  2.3104
  335TIP3    H222641   1.782   1.945   7.436  1.7117  2.9643 -1.4304
  336TIP3   OH222642   6.450   1.699   2.059  0.1220  0.7599  0.1142
  336TIP3    H122643   6.461   1.794   2.065  2.8434  0.4426  1.5880
  336TIP3    H222644   6.456   1.669   2.150  0.7015 -0.9317 -0.4479
  337TIP3   OH222645   6.432   2.453   7.081  0.4427  0.5817  0.0171
  337TIP3    H122646   6.346   2.427   7.046  1.0060 -0.5670 -0.5876
  337TIP3    H222647   6.488   2.459   7.003  0.5597  2.9305  0.2082
  338TIP3   OH222648   2.583   1.630   0.700 -0.0117  0.4164 -0.4576
  338TIP3    H122649   2.639   1.697   0.660 -1.6685  1.4993 -1.0835
  338TIP3    H222650   2.641   1.582   0.759  1.8339  0.6812 -1.9686
  339TIP3   OH222651   3.905   5.715   2.021 -0.0615 -0.4155 -0.0617
  339TIP3    H122652   3.907   5.792   2.078  1.7583 -1.2079  1.0254
  339TIP3    H222653   3.812   5.692   2.014 -0.6120  1.6479 -0.1482
  340TIP3   OH222654   2.594   3.176   0.664  0.1074 -0.0229 -0.2598
  340TIP3    H122655   2.649   3.248   0.696  1.9443 -1.0642 -0.9611
  340TIP3    H222656   2.577   3.198   0.573 -0.2347  0.0363 -0.1838
  341TIP3   OH222657   0.848   3.882   1.420 -0.1287  0.1043  0.0982
  341TIP3    H122658   0.764   3.837   1.412 -0.8518  1.0272  1.9191
  341TIP3    H222659   0.911   3.821   1.381 -1.2931 -1.7177  0.8881
  342TIP3   OH222660   3.632   2.780   7.557  0.2903 -0.3741 -0.7007
  342TIP3    H122661   3.654   2.872   7.542  0.2443 -0.3243 -0.4560
  342TIP3    H222662   3.599   2.750   7.472 -0.6224  0.0913 -0.5182
  343TIP3   OH222663   6.511   4.255   7.824  0.5187  0.1899 -0.0465
  343TIP3    H122664   6.571   4.320   7.860  0.7268 -0.0192 -0.0101
  343TIP3    H222665   6.473   4.297   7.748 -0.4503  0.9001  0.8000
  344TIP3   OH222666   2.078   6.189   7.167 -0.3344 -0.4756  0.3750
  344TIP3    H122667   2.021   6.156   7.236 -0.2972 -1.1897  0.0718
  344TIP3    H222668   2.048   6.145   7.088  1.8836 -2.4219  0.5120
  345TIP3   OH222669   1.244   0.842   0.116  0.0257 -0.7880  0.0285
  345TIP3    H122670   1.200   0.868   0.035  0.0662  1.2307  0.5884
  345TIP3    H222671   1.330   0.811   0.088  0.5965  1.2429 -0.6608
  346TIP3   OH222672   1.954   5.890   6.568 -0.6084 -0.1567  0.2265
  346TIP3    H122673   1.897   5.964   6.590 -1.3700 -0.9533  1.0548
  346TIP3    H222674   1.897   5.829   6.521 -0.8208 -1.5205  2.1458
  347TIP3   OH222675   3.447   2.626   2.127  0.2535  0.0733  0.1126
  347TIP3    H122676   3.409   2.697   2.179 -0.1081 -0.8766  1.2193
  347TIP3    H222677   3.463   2.557   2.191  1.5453 -0.4709 -0.7674
  348TIP3   OH222678   4.842   6.356   7.840 -0.7625  0.0688  0.3140
  348TIP3    H122679   4.750   6.381   7.830 -0.5596  0.4009 -0.7677
  348TIP3    H222680   4.880   6.366   7.753  0.1704 -0.6176  0.6244
  349TIP3   OH222681   6.510   1.213   8.412 -0.2278 -0.4248 -0.1173
  349TIP3    H122682   6.505   1.132   8.362 -0.6749  0.1998 -1.1138
  349TIP3    H222683   6.604   1.230   8.422 -0.1315 -1.2610  0.4447
  350TIP3   OH222684   3.347   4.173   1.118  0.2985 -0.0181  0.3677
  350TIP3    H122685   3.440   4.184   1.133  0.2535  0.2150  0.4871
  350TIP3    H222686   3.338   4.084   1.084  0.8267  0.6454 -1.7002
  351TIP3   OH222687   2.388   1.674   0.190  0.3223  0.2156  0.3096
  351TIP3    H122688   2.377   1.597   0.135 -2.7734  0.8465 -0.1046
  351TIP3    H222689   2.404   1.745   0.128  1.2255  0.2477  0.5654
  352TIP3   OH222690   6.555   3.407   8.061 -0.0476  0.4603 -0.4850
  352TIP3    H122691   6.462   3.388   8.073 -0.2512  1.2419 -0.7596
  352TIP3    H222692   6.563   3.500   8.079  1.0415  0.0380  1.5012
  353TIP3   OH222693   6.341   6.172   8.689  0.0015 -0.1419 -0.4295
  353TIP3    H122694   6.264   6.145   8.740 -0.7354  1.0866 -0.8368
  353TIP3    H222695   6.350   6.104   8.622 -1.1376  0.0307 -0.7776
  354TIP3   OH222696   1.612   0.342   8.078  0.2510 -0.6756 -0.1585
  354TIP3    H122697   1.614   0.389   7.994 -1.0797  0.2342  0.2781
  354TIP3    H222698   1.601   0.411   8.144 -0.5779 -1.4994  0.6003
  355TIP3   OH222699   4.563   4.384   6.584 -0.1558  0.2154 -0.2985
  355TIP3    H122700   4.550   4.300   6.539 -0.0833 -0.7103  1.3094
  355TIP3    H222701   4.592   4.359   6.672 -0.5530  1.9268  0.3562
  356TIP3   OH222702   0.793   1.100   7.623  0.1379 -0.3596  0.2226
  356TIP3    H122703   0.706   1.063   7.637 -0.0983  0.6699  1.7234
  356TIP3    H222704   0.840   1.033   7.574 -1.3662 -1.0999 -0.2880
  357TIP3   OH222705   1.244   1.802   7.296 -0.5596 -0.3113  0.2582
  357TIP3    H122706   1.243   1.879   7.238  1.0321  1.2928  2.2236
  357TIP3    H222707   1.191   1.827   7.371 -1.7183 -1.9616  0.0514
  358TIP3   OH222708   6.457   3.845   1.145  0.5430 -0.0392 -0.4846
  358TIP3    H122709   6.411   3.787   1.084 -1.4238  0.6503  0.2685
  358TIP3    H222710   6.463   3.929   1.098 -0.1375  0.2278 -0.1114
  359TIP3   OH222711   4.627   3.615   7.571  0.9561  0.4268  0.3984
  359TIP3    H122712   4.602   3.533   7.530 -1.2968  1.4534 -0.4325
  359TIP3    H222713   4.669   3.665   7.502  0.1141  0.8817  0.1949
  360TIP3   OH222714   0.653   6.459   8.745  0.2588  0.2045 -0.1810
  360TIP3    H122715   0.728   6.516   8.766  0.3839  0.1328 -0.4330
  360TIP3    H222716   0.621   6.429   8.830 -0.9939  2.1590  0.1173
  361TIP3   OH222717   0.706   3.827   0.706 -0.1087 -0.3074  0.0490
  361TIP3    H122718   0.738   3.830   0.797 -0.5100  2.4423  0.1780
  361TIP3    H222719   0.656   3.908   0.695  0.0466 -0.4862 -2.6848
  362TIP3   OH222720   4.872   6.753   8.116  0.3919 -0.2626 -0.2235
  362TIP3    H122721   4.873   6.754   8.211 -0.1478  1.1426 -0.1975
  362TIP3    H222722   4.924   6.677   8.091  0.7619 -0.4919  1.1887
  363TIP3   OH222723   3.740   1.830   7.140 -0.2715 -0.2988 -0.4521
  363TIP3    H122724   3.737   1.914   7.185 -0.1401 -0.3314 -0.3840
  363TIP3    H222725   3.780   1.849   7.055  0.5396 -0.4457 -0.1070
  364TIP3   OH222726   0.964   3.755   8.134 -0.0590 -0.0670 -0.3561
  364TIP3    H122727   0.952   3.767   8.228  0.2126  1.5351 -0.4902
  364TIP3    H222728   1.017   3.676   8.126 -1.5888 -1.2729  0.7223
  365TIP3   OH222729   2.868   6.612   1.094 -0.2632 -0.3490 -0.2363
  365TIP3    H122730   2.852   6.519   1.079  0.3301 -0.5022  0.0434
  365TIP3    H222731   2.899   6.645   1.010 -0.3365 -0.4349 -0.2967
  366TIP3   OH222732   4.909   0.779   7.440  0.4197 -0.0800 -0.5556
  366TIP3    H122733   4.924   0.701   7.493 -0.7059 -0.4411 -0.7458
  366TIP3    H222734   4.922   0.852   7.501 -2.7405 -0.5196  0.7990
  367TIP3   OH222735   0.811   6.246   7.391 -0.1020 -0.3886  0.0154
  367TIP3    H122736   0.789   6.272   7.302 -2.0220  0.6374  0.7382
  367TIP3    H222737   0.865   6.318   7.425 -0.9350  0.1164  0.2787
  368TIP3   OH222738   0.950   6.767   8.263  0.1527  0.7965 -0.0674
  368TIP3    H122739   0.988   6.760   8.175 -0.8773  1.2148 -0.5663
  368TIP3    H222740   0.858   6.743   8.251  0.1116  0.3744  1.0003
  369TIP3   OH222741   2.792   4.922   8.744 -0.5911 -0.0800  0.5372
  369TIP3    H122742   2.864   4.974   8.707 -0.7309  0.5441  1.1071
  369TIP3    H222743   2.731   4.910   8.671 -0.2177 -0.0386  0.2180
  370TIP3   OH222744   0.983   5.195   8.397  0.7171 -0.4179 -0.5279
  370TIP3    H122745   1.059   5.251   8.413  1.3984 -0.9507 -1.7720
  370TIP3    H222746   0.989   5.127   8.464  0.4422  0.4035  0.3589
  371TIP3   OH222747   6.016   4.507   0.567 -0.0487 -0.0061 -0.7198
  371TIP3    H122748   6.057   4.466   0.643 -0.9350 -1.6527 -1.0685
  371TIP3    H222749   6.074   4.580   0.545  0.4725  0.2169  1.2255
  372TIP3   OH222750   3.982   4.776   1.551  0.1243  0.0543 -0.1760
  372TIP3    H122751   3.929   4.709   1.508  0.7040 -1.3709  1.2359
  372TIP3    H222752   3.981   4.752   1.644  1.1017  1.4930  0.2464
  373TIP3   OH222753   1.303   3.970   8.667 -0.5988  0.4055  0.0611
  373TIP3    H122754   1.213   3.946   8.687 -0.2510 -2.4977 -1.2142
  373TIP3    H222755   1.353   3.940   8.743 -0.3200 -2.0915 -0.9908
  374TIP3   OH222756   2.517   3.240   6.332  0.6539  0.1535  0.1474
  374TIP3    H122757   2.429   3.202   6.325  0.6707 -0.5747  2.6448
  374TIP3    H222758   2.517   3.312   6.270 -1.3080 -0.5438 -0.7521
  375TIP3   OH222759   0.875   3.245   7.226 -0.4470 -0.0561 -0.5533
  375TIP3    H122760   0.842   3.284   7.145  0.9278 -1.2737 -1.7417
  375TIP3    H222761   0.927   3.315   7.267 -2.6846  1.2040  0.3201
  376TIP3   OH222762   6.245   5.855   0.547  0.3811 -0.1578 -0.2371
  376TIP3    H122763   6.277   5.856   0.637 -1.1317  1.4014  0.3260
  376TIP3    H222764   6.305   5.914   0.500 -0.0698  0.6877  0.2299
  377TIP3   OH222765   2.994   1.303   1.321  0.4625  0.5115 -0.1881
  377TIP3    H122766   3.048   1.379   1.345 -1.3675  1.0078  2.8490
  377TIP3    H222767   2.931   1.338   1.259  2.9835  0.0688 -3.2681
  378TIP3   OH222768   3.933   3.409   1.163  0.2071  0.1955  0.1095
  378TIP3    H122769   3.922   3.471   1.235 -0.9629  1.1253 -0.8221
  378TIP3    H222770   4.013   3.436   1.119  0.1066  0.5668  0.1537
  379TIP3   OH222771   2.418   2.886   2.249 -0.2071 -0.3912 -0.1433
  379TIP3    H122772   2.498   2.849   2.286 -0.3279 -0.5411 -0.0356
  379TIP3    H222773   2.349   2.824   2.271 -0.9512  1.2185  2.5330
  380TIP3   OH222774   0.969   0.795   0.239 -0.1372 -0.0917  0.0727
  380TIP3    H122775   1.044   0.775   0.183  0.0224 -0.8206  0.5216
  380TIP3    H222776   0.899   0.740   0.206 -0.9688  1.7124 -1.3276
  381TIP3   OH222777   6.019   5.671   7.708 -0.1109  0.6592  0.3586
  381TIP3    H122778   5.944   5.711   7.750 -0.3687  0.2234  0.3242
  381TIP3    H222779   6.094   5.721   7.739 -0.2385  0.0207  1.7884
  382TIP3   OH222780   2.871   1.431   8.099 -0.5994  0.5723  0.2834
  382TIP3    H122781   2.941   1.493   8.121  1.0253 -0.6027 -1.2429
  382TIP3    H222782   2.864   1.374   8.176  0.8795  0.1009  0.1085
  383TIP3   OH222783   2.527   3.462   6.168 -0.3089 -0.0947  0.2093
  383TIP3    H122784   2.558   3.439   6.081 -3.6350 -1.3796 -0.7883
  383TIP3    H222785   2.454   3.521   6.153 -1.5052 -1.0056  2.0327
  384TIP3   OH222786   1.843   6.605   0.597 -0.0793 -0.4852 -0.6832
  384TIP3    H122787   1.932   6.634   0.577  0.0570 -0.3673  0.0469
  384TIP3    H222788   1.848   6.510   0.593  0.4936 -0.5549  0.9096
  385TIP3   OH222789   0.039   3.459   0.671 -0.1211  0.5196  0.0485
  385TIP3    H122790  -0.043   3.434   0.713  0.8220  0.7427  2.1193
  385TIP3    H222791   0.084   3.377   0.655 -1.1437  0.3043 -2.0996
  386TIP3   OH222792   0.369   0.745   7.326  0.0841 -0.7044 -0.5534
  386TIP3    H122793   0.441   0.699   7.284  0.5819 -1.1183  0.7140
  386TIP3    H222794   0.339   0.808   7.260  2.4073  0.3332 -0.7007
  387TIP3   OH222795   3.692   3.653   1.698  0.4172 -0.3500  0.8861
  387TIP3    H122796   3.708   3.595   1.772  0.2409 -0.8820  0.5134
  387TIP3    H222797   3.767   3.713   1.697 -0.6021  1.0722  2.7938
  388TIP3   OH222798   0.624   1.669   6.890  0.0250 -0.2620 -0.3400
  388TIP3    H122799   0.631   1.595   6.830 -1.2914  0.9997 -2.1702
  388TIP3    H222800   0.540   1.710   6.868 -0.2943  0.5541  2.0804
  389TIP3   OH222801   4.143   0.660   8.383  0.7025  0.3762 -0.1925
  389TIP3    H122802   4.157   0.585   8.441  1.4606 -0.1791 -1.0613
  389TIP3    H222803   4.055   0.690   8.404 -0.6605 -2.3148 -1.4889
  390TIP3   OH222804   3.859   3.281   0.835 -0.1732 -0.2995  0.2281
  390TIP3    H122805   3.794   3.350   0.846  0.0366 -0.3929  2.3755
  390TIP3    H222806   3.935   3.325   0.797 -0.5152  0.3699  0.3056
  391TIP3   OH222807   4.346   2.760   0.862  0.0905  0.3976  1.0354
  391TIP3    H122808   4.356   2.746   0.956  2.2263 -2.2432  0.5437
  391TIP3    H222809   4.434   2.748   0.827 -0.7865  0.5352 -1.3868
  392TIP3   OH222810   4.195   1.322   7.854  0.8304  0.2370 -0.3344
  392TIP3    H122811   4.117   1.278   7.820  1.4685 -2.1772  1.0791
  392TIP3    H222812   4.162   1.399   7.899 -0.4654  0.6076 -1.8310
  393TIP3   OH222813   2.858   1.028   0.072 -0.1785  0.0785  0.2795
  393TIP3    H122814   2.815   0.960   0.021 -1.6419  1.1056  0.0912
  393TIP3    H222815   2.895   0.982   0.148 -0.0706 -1.0847 -0.4493
  394TIP3   OH222816   2.367   5.054   0.934 -0.5230 -0.5243 -0.4414
  394TIP3    H122817   2.448   5.081   0.890 -0.4582  0.3465  0.1696
  394TIP3    H222818   2.298   5.073   0.872 -0.4413  0.7764 -0.1629
  395TIP3   OH222819   5.233   4.516   7.251  0.3367 -0.0177 -0.1823
  395TIP3    H122820   5.264   4.556   7.170 -2.3274 -0.3536 -1.4637
  395TIP3    H222821   5.262   4.425   7.246  1.2285  0.2594 -0.1503
  396TIP3   OH222822   5.472   6.466   1.253 -0.1006 -0.5323  0.1488
  396TIP3    H122823   5.477   6.559   1.233 -0.9863 -0.7375 -1.1278
  396TIP3    H222824   5.561   6.443   1.280  0.4602  0.4159 -0.7947
  397TIP3   OH222825   2.089   5.992   6.767 -0.4836  0.0318 -0.4589
  397TIP3    H122826   2.018   5.989   6.831 -1.2409  1.4539 -1.1850
  397TIP3    H222827   2.056   5.942   6.692  0.1687 -1.1301  0.0003
  398TIP3   OH222828   5.021   2.107   0.141 -0.2617 -0.2419 -0.3773
  398TIP3    H122829   5.014   2.092   0.047 -0.9682  2.9476 -0.9411
  398TIP3    H222830   5.085   2.176   0.150 -0.3382 -0.3589  1.4941
  399TIP3   OH222831   6.707   6.211   8.492  0.3210  0.2658  0.1723
  399TIP3    H122832   6.742   6.123   8.504 -3.9649 -1.8647 -0.7880
  399TIP3    H222833   6.672   6.234   8.578 -0.2282  0.1590 -0.0179
  400TIP3   OH222834   0.319   6.431   0.539  0.1981  0.0589 -0.2546
  400TIP3    H122835   0.236   6.478   0.529 -0.2312 -0.4568  0.6962
  400TIP3    H222836   0.329   6.421   0.634  0.8317 -0.8016 -0.4014
  401TIP3   OH222837   1.433   6.812   0.002 -0.2162 -0.1672  0.8725
  401TIP3    H122838   1.349   6.847   0.030 -0.2356  1.3267 -0.8421
  401TIP3    H222839   1.416   6.776  -0.085  1.0639  0.9908  0.1019
  402TIP3   OH222840   6.634   1.199   1.406  0.0455 -0.1516 -0.4441
  402TIP3    H122841   6.566   1.223   1.343 -0.4701  0.2465  0.2471
  402TIP3    H222842   6.586   1.171   1.484  0.6699 -0.7613 -0.2618
  403TIP3   OH222843   3.450   6.770   0.769  0.4443  0.3786  0.3450
  403TIP3    H122844   3.475   6.714   0.695  0.8786  2.0319 -0.7977
  403TIP3    H222845   3.521   6.833   0.776 -0.8862  1.9301  0.4018
  404TIP3   OH222846   1.090   2.486   7.983 -0.4122 -0.1178 -0.4797
  404TIP3    H122847   1.176   2.520   7.958 -0.5412 -0.2503 -1.1016
  404TIP3    H222848   1.064   2.429   7.911 -1.8627  1.3849 -1.2115
  405TIP3   OH222849   1.614   1.746   8.154  0.5977 -0.2319  0.6576
  405TIP3    H122850   1.570   1.825   8.123 -0.2442 -1.0486 -0.2803
  405TIP3    H222851   1.613   1.687   8.079 -0.5908 -1.8976  1.9272
  406TIP3   OH222852   5.944   0.235   7.374 -0.3540 -0.4743  0.0332
  406TIP3    H122853   5.969   0.191   7.293 -0.8599 -1.0947  0.2071
  406TIP3    H222854   5.852   0.257   7.363 -0.5315 -0.9115  0.5929
  407TIP3   OH222855   6.028   6.686   7.046 -0.2345 -0.1299 -0.6765
  407TIP3    H122856   6.077   6.619   6.999  0.9598  0.3430 -0.1543
  407TIP3    H222857   6.013   6.755   6.982  0.1275 -0.1132 -0.7464
  408TIP3   OH222858   5.125   0.256   7.822 -0.4076 -0.1277 -0.0125
  408TIP3    H122859   5.117   0.336   7.874 -1.5975 -0.3643  0.1846
  408TIP3    H222860   5.068   0.193   7.866 -0.4600 -0.7103 -0.8923
  409TIP3   OH222861   1.093   2.882   8.539 -0.7335 -0.3277  0.1629
  409TIP3    H122862   1.066   2.853   8.452  0.4708  0.2543 -0.4208
  409TIP3    H222863   1.187   2.869   8.541  0.1602  4.1758 -0.5190
  410TIP3   OH222864   3.651   0.416   8.800 -0.2857  0.3573 -0.0563
  410TIP3    H122865   3.728   0.368   8.829 -0.0679  0.9030  0.2846
  410TIP3    H222866   3.612   0.360   8.733  1.1526  0.6661 -1.2180
  411TIP3   OH222867   3.404   1.676   0.388 -0.7226  0.2681  0.2022
  411TIP3    H122868   3.414   1.591   0.431  0.5567 -0.1075 -0.7864
  411TIP3    H222869   3.345   1.660   0.315  2.7454 -0.8743 -2.6187
  412TIP3   OH222870   4.860   6.597   1.017 -0.7463  0.4013  0.3584
  412TIP3    H122871   4.934   6.593   0.956  0.8298  1.5069  2.1280
  412TIP3    H222872   4.881   6.667   1.077 -2.1014 -0.8224  2.3857
  413TIP3   OH222873   2.862   0.413   0.940  0.1304 -0.2361  0.0440
  413TIP3    H122874   2.796   0.344   0.931 -0.7274  0.5280  0.2834
  413TIP3    H222875   2.849   0.469   0.864  1.8642 -1.1660 -0.9848
  414TIP3   OH222876   1.040   0.244   7.302 -0.3972  0.4310 -0.7128
  414TIP3    H122877   0.987   0.179   7.254 -0.9523 -0.0409  0.4836
  414TIP3    H222878   0.983   0.320   7.309  0.0750  0.8963 -1.6883
  415TIP3   OH222879   1.449   0.947   6.785  0.2170  0.2045  0.4149
  415TIP3    H122880   1.488   0.872   6.740  0.5320  1.8900 -2.3146
  415TIP3    H222881   1.357   0.945   6.758  0.2063  0.7429  0.4067
  416TIP3   OH222882   0.299   4.439   1.748  0.0440  0.0836 -0.6441
  416TIP3    H122883   0.261   4.352   1.752 -2.4540  1.1561  1.7172
  416TIP3    H222884   0.380   4.432   1.798  0.8265 -1.2253 -2.0061
  417TIP3   OH222885   3.442   3.290   0.910  0.4107  0.0867 -0.2611
  417TIP3    H122886   3.446   3.211   0.963 -0.6457  0.0947 -0.1479
  417TIP3    H222887   3.353   3.324   0.923  1.0552  1.6941  0.2876
  418TIP3   OH222888   3.297   1.304   7.711  0.0308  0.0730  0.3261
  418TIP3    H122889   3.256   1.370   7.767 -0.1976  0.0511  0.1862
  418TIP3    H222890   3.242   1.227   7.721 -1.0897  0.5987 -1.3148
  419TIP3   OH222891   3.288   5.053   2.200  0.1354  0.0868 -0.2327
  419TIP3    H122892   3.299   5.148   2.203  0.8259 -0.0020  0.6635
  419TIP3    H222893   3.204   5.037   2.242 -0.5607  0.3624 -1.4588
  420TIP3   OH222894   3.803   5.987   7.511  0.0217 -0.1508 -0.4100
  420TIP3    H122895   3.799   6.075   7.473 -0.1052  0.2913  0.5978
  420TIP3    H222896   3.741   5.989   7.584  0.0484 -1.0686 -0.3508
  421TIP3   OH222897   4.731   1.904   0.400  0.3593 -0.3573  0.5184
  421TIP3    H122898   4.742   1.999   0.399 -0.7636 -0.2223 -0.9119
  421TIP3    H222899   4.746   1.877   0.310  2.5882 -1.8238  1.2424
  422TIP3   OH222900   6.151   3.950   1.978  0.1814 -0.3478  0.5023
  422TIP3    H122901   6.058   3.943   1.959  0.3654 -2.2110  0.0876
  422TIP3    H222902   6.157   3.942   2.073 -0.0523 -0.6039  0.4955
  423TIP3   OH222903   0.639   3.668   6.573 -0.3201 -0.2850 -0.0979
  423TIP3    H122904   0.611   3.707   6.490  1.1690  1.1243  0.0183
  423TIP3    H222905   0.699   3.598   6.547 -0.4887 -0.3854 -0.2225
  424TIP3   OH222906   3.456   5.083   8.452 -0.5696  0.4289  0.8824
  424TIP3    H122907   3.377   5.129   8.424 -0.3875  0.8539  1.0603
  424TIP3    H222908   3.480   5.124   8.535 -0.4788 -0.0796  1.1148
  425TIP3   OH222909   5.631   0.762   2.291 -0.2529  0.2480  0.1230
  425TIP3    H122910   5.542   0.790   2.269 -0.7777 -1.5453 -0.1978
  425TIP3    H222911   5.650   0.806   2.374 -1.4999  0.5574  0.2738
  426TIP3   OH222912   0.559   5.207   0.523 -0.0262  0.1041 -0.1634
  426TIP3    H122913   0.605   5.146   0.466 -0.0555 -1.7871  1.7013
  426TIP3    H222914   0.598   5.292   0.504  1.3267 -0.7793 -1.5614
  427TIP3   OH222915   5.686   5.859   7.577  0.2515  0.6069 -0.2679
  427TIP3    H122916   5.604   5.818   7.602  0.5132 -0.7500 -1.4929
  427TIP3    H222917   5.660   5.933   7.521 -0.1390 -0.0753 -1.0052
  428TIP3   OH222918   4.085   4.388   8.396  0.2640 -0.2416 -0.2250
  428TIP3    H122919   4.107   4.481   8.392  0.6657 -0.3272  0.0169
  428TIP3    H222920   4.115   4.359   8.482 -0.8486 -0.3458  0.1427
  429TIP3   OH222921   3.080   2.409   7.025  0.1671 -0.1022  0.0654
  429TIP3    H122922   3.050   2.500   7.026 -1.1377 -0.5028  0.6242
  429TIP3    H222923   3.175   2.414   7.017  0.4090  1.4086  2.7258
  430TIP3   OH222924   2.465   1.421   6.204 -0.0029 -0.3415  0.2271
  430TIP3    H122925   2.490   1.434   6.295  1.6478 -0.0052 -0.2488
  430TIP3    H222926   2.499   1.335   6.182  0.4865 -0.0031 -0.3579
  431TIP3   OH222927   1.112   3.655   6.164 -0.1704 -0.9791 -0.4265
  431TIP3    H122928   1.131   3.608   6.246 -1.4882  0.9517  1.1055
  431TIP3    H222929   1.197   3.684   6.133  0.2778 -0.7970  0.8882
  432TIP3   OH222930   1.442   4.404   6.257  0.3488 -0.5016  0.6541
  432TIP3    H122931   1.523   4.401   6.307 -1.2531  1.1217  3.5871
  432TIP3    H222932   1.466   4.453   6.177  2.1019  0.5703  1.7646
  433TIP3   OH222933   3.535   4.390   2.317  0.1406  0.2630  0.1091
  433TIP3    H122934   3.542   4.417   2.408  0.0559 -0.5342  0.3565
  433TIP3    H222935   3.620   4.414   2.279 -0.1491  1.4406  0.1474
  434TIP3   OH222936   2.872   4.218   6.322 -0.2824 -0.5467  0.3458
  434TIP3    H122937   2.902   4.135   6.284  1.7322  0.2912  0.0062
  434TIP3    H222938   2.836   4.267   6.248 -0.7499 -0.7965  0.4047
  435TIP3   OH222939   6.699   2.947   7.741  1.0945  0.5274 -0.4943
  435TIP3    H122940   6.653   3.030   7.748  1.0223  0.4665 -0.2105
  435TIP3    H222941   6.791   2.970   7.757  0.8010  0.2310  2.0633
  436TIP3   OH222942   4.980   6.217   8.035  0.4452  0.4542  0.6452
  436TIP3    H122943   4.903   6.253   7.990  0.3384  1.0867  1.3217
  436TIP3    H222944   5.044   6.203   7.964 -0.7385 -1.3791 -0.1281
  437TIP3   OH222945   0.108   3.360   7.347  0.2935  0.3309  0.7303
  437TIP3    H122946   0.015   3.380   7.356 -0.1550 -1.5207  0.6563
  437TIP3    H222947   0.128   3.384   7.256 -0.4138 -0.3123  0.3910
  438TIP3   OH222948   6.115   4.447   8.162 -0.0778  0.1486  0.2422
  438TIP3    H122949   6.202   4.487   8.149  0.6427 -0.4349  2.6791
  438TIP3    H222950   6.106   4.441   8.257 -2.1709 -1.2321  0.0158
  439TIP3   OH222951   3.002   2.457   8.438 -0.2555 -0.2974 -0.2654
  439TIP3    H122952   2.906   2.457   8.436 -0.2539 -0.4892 -0.4616
  439TIP3    H222953   3.024   2.411   8.520 -0.3402 -2.4701 -1.3860
  440TIP3   OH222954   0.848   6.757   7.848 -0.5440 -0.0260 -0.7885
  440TIP3    H122955   0.898   6.676   7.854  0.2449  0.5255  0.4636
  440TIP3    H222956   0.898   6.821   7.898 -2.4435  0.5950  0.4504
  441TIP3   OH222957   1.108   1.876   8.770  0.1413  0.0456 -0.0939
  441TIP3    H122958   1.104   1.906   8.679  2.3223  0.2372 -0.1748
  441TIP3    H222959   1.038   1.923   8.814 -0.7473  0.2005 -1.5973
  442TIP3   OH222960   0.383   3.966   6.806 -0.3785 -0.0279 -0.3991
  442TIP3    H122961   0.403   4.034   6.742 -0.2896 -0.7176 -1.1068
  442TIP3    H222962   0.447   3.897   6.789  0.1105  0.0765  0.8971
  443TIP3   OH222963   4.264   1.496   7.510 -0.0377 -0.2101 -0.9171
  443TIP3    H122964   4.275   1.585   7.544  0.4274 -0.1315 -1.2647
  443TIP3    H222965   4.340   1.482   7.455  1.2614 -1.7662  1.1301
  444TIP3   OH222966   0.793   2.411   7.736  0.1430  0.3857  0.6610
  444TIP3    H122967   0.758   2.410   7.647 -1.1774 -0.0721  1.1602
  444TIP3    H222968   0.853   2.336   7.738  0.6331  0.7504 -0.0030
  445TIP3   OH222969   3.965   4.946   1.888 -0.0070  0.2798 -0.1124
  445TIP3    H122970   3.994   4.855   1.888 -0.3346  0.1725 -0.4482
  445TIP3    H222971   3.964   4.970   1.981 -1.6367 -0.6383  0.1469
  446TIP3   OH222972   1.612   4.670   7.393 -0.1877 -0.1176  0.2230
  446TIP3    H122973   1.690   4.625   7.424  1.4068  2.3810  0.1391
  446TIP3    H222974   1.539   4.619   7.428  1.3944 -3.1739 -0.5939
  447TIP3   OH222975   2.888   5.144   7.925 -0.0783 -0.3728 -0.2747
  447TIP3    H122976   2.809   5.197   7.929 -0.3710 -0.8378  0.3236
  447TIP3    H222977   2.955   5.204   7.892 -0.3754  0.4012  0.4740
  448TIP3   OH222978   0.623   4.482   1.642  1.1364 -0.1084 -0.3040
  448TIP3    H122979   0.703   4.499   1.591  0.1271  0.8995 -1.6226
  448TIP3    H222980   0.601   4.566   1.682  2.1299 -0.9632  2.2580
  449TIP3   OH222981   5.247   1.050   8.600  0.2003 -0.2811  0.5326
  449TIP3    H122982   5.221   1.127   8.649 -0.5598  0.2978 -0.7240
  449TIP3    H222983   5.329   1.021   8.641  0.7555  1.4756  0.7210
  450TIP3   OH222984   3.355   5.419   1.123 -0.0955 -0.0475  0.1419
  450TIP3    H122985   3.449   5.405   1.108  0.0618  0.6494  0.4545
  450TIP3    H222986   3.324   5.458   1.041 -0.0885 -0.1632  0.0839
  451TIP3   OH222987   0.866   0.550   7.509 -0.4494  0.2439 -0.0973
  451TIP3    H122988   0.810   0.474   7.495 -2.5268  1.5966  0.4175
  451TIP3    H222989   0.871   0.559   7.604  0.8429  0.0267 -0.1302
  452TIP3   OH222990   6.138   3.470   8.719  0.5224  0.2496 -0.0016
  452TIP3    H122991   6.154   3.502   8.808  2.2643 -0.0971 -0.1537
  452TIP3    H222992   6.048   3.496   8.700  0.2148  0.5797  1.7517
  453TIP3   OH222993   5.298   1.365   7.575  1.0445 -0.4656  0.0707
  453TIP3    H122994   5.233   1.432   7.553  0.4958 -1.6542 -2.2643
  453TIP3    H222995   5.349   1.404   7.647 -0.3051  1.7336 -0.0618
  454TIP3   OH222996   0.916   2.906   0.224 -0.2724 -0.4209  0.7706
  454TIP3    H122997   0.912   2.985   0.171  1.8711 -1.1680 -0.6299
  454TIP3    H222998   0.826   2.892   0.254 -1.0714  1.3747 -0.6532
  455TIP3   OH222999   5.756   0.417   7.354  0.5177 -0.4732 -0.2750
  455TIP3    H123000   5.751   0.454   7.266 -0.9925 -1.7738 -0.7825
  455TIP3    H223001   5.684   0.459   7.402 -0.1442 -1.4678 -0.3703
  456TIP3   OH223002   5.291   5.277   8.057  0.0783  0.0156  0.3411
  456TIP3    H123003   5.244   5.304   7.978 -0.9351 -3.7978 -0.5445
  456TIP3    H223004   5.230   5.294   8.129 -0.0982  0.9128 -0.0098
  457TIP3   OH223005   6.298   0.921   1.251 -0.5781 -0.7752 -0.2650
  457TIP3    H123006   6.362   0.850   1.245  1.2356  0.7954 -0.7542
  457TIP3    H223007   6.323   0.969   1.329 -0.6342  0.3247 -0.9031
  458TIP3   OH223008   0.073   2.607   7.978  0.1983  0.1106 -0.3000
  458TIP3    H123009   0.084   2.647   7.892 -0.4208  1.2171  0.1186
  458TIP3    H223010   0.015   2.532   7.961  0.9901 -0.3658 -1.0119
  459TIP3   OH223011   1.918   1.610   8.497 -0.8243 -0.5560 -0.3683
  459TIP3    H123012   1.902   1.695   8.457  1.8756  0.4676  0.4745
  459TIP3    H223013   1.979   1.629   8.569  0.6912 -3.3173 -0.8009
  460TIP3   OH223014   3.869   2.895   7.437 -0.6695 -0.4993 -0.5293
  460TIP3    H123015   3.782   2.934   7.452 -0.9834 -0.4096 -2.3446
  460TIP3    H223016   3.929   2.969   7.439 -0.9436 -0.2408 -1.5061
  461TIP3   OH223017   6.560   4.786   8.128 -0.0011  0.5811 -0.4452
  461TIP3    H123018   6.496   4.773   8.058  0.2664 -1.3976 -0.3769
  461TIP3    H223019   6.582   4.879   8.123 -2.4532  1.2274 -0.8256
  462TIP3   OH223020   2.183   1.269   1.618 -0.6282  0.3547 -0.4281
  462TIP3    H123021   2.200   1.327   1.692 -1.0388  1.2477 -1.0253
  462TIP3    H223022   2.191   1.181   1.655 -1.4932  0.7790  0.8354
  463TIP3   OH223023   2.314   1.831   6.635 -0.0768 -0.1416  0.2339
  463TIP3    H123024   2.348   1.816   6.547 -0.3870  0.1565  0.0634
  463TIP3    H223025   2.221   1.849   6.623  0.4736  3.5182  0.2099
  464TIP3   OH223026   0.644   6.844   8.317 -0.0784  0.1163 -0.2466
  464TIP3    H123027   0.667   6.911   8.253  0.1823  0.7003  0.4539
  464TIP3    H223028   0.651   6.888   8.402  0.1583 -0.8172  0.2245
  465TIP3   OH223029   4.945   5.273   6.999  0.2908 -0.1699 -0.3133
  465TIP3    H123030   4.981   5.192   6.964 -1.5031 -0.8517 -0.6649
  465TIP3    H223031   4.882   5.302   6.933 -1.8389 -0.5097  1.4411
  466TIP3   OH223032   2.367   3.488   7.404  0.4037  0.4157  0.1114
  466TIP3    H123033   2.347   3.438   7.325 -0.0583 -0.2954  0.6580
  466TIP3    H223034   2.368   3.579   7.376 -0.3394  0.2137 -0.5952
  467TIP3   OH223035   4.401   3.760   8.649  0.2503 -0.0992  0.1840
  467TIP3    H123036   4.464   3.765   8.577  1.5487  0.4793  1.3122
  467TIP3    H223037   4.379   3.667   8.655  2.0854 -0.5548  0.6163
  468TIP3   OH223038   5.606   4.400   0.974 -0.7191  0.1807 -0.3744
  468TIP3    H123039   5.567   4.380   0.888  1.6105  0.2542 -1.5199
  468TIP3    H223040   5.602   4.317   1.021 -2.4768  0.2563 -0.3134
  469TIP3   OH223041   2.646   4.950   2.192  0.8644 -0.2713  0.4302
  469TIP3    H123042   2.573   4.963   2.252  2.7487  1.2443  2.5716
  469TIP3    H223043   2.712   4.905   2.244  2.6403  1.2161 -0.3956
  470TIP3   OH223044   3.052   0.986   8.166  0.0565  0.1349 -0.5933
  470TIP3    H123045   3.024   0.988   8.075  0.1781  3.5182 -0.6885
  470TIP3    H223046   2.972   1.001   8.216  0.2946  0.3372 -0.2709
  471TIP3   OH223047   5.675   6.036   1.298  0.3876 -0.2179  0.2845
  471TIP3    H123048   5.661   6.060   1.390  0.7778  1.2981 -0.0278
  471TIP3    H223049   5.717   6.113   1.259 -0.9617 -0.3022 -1.4761
  472TIP3   OH223050   4.851   0.181   6.473 -0.1759 -0.4189 -0.0993
  472TIP3    H123051   4.823   0.265   6.437  0.1798 -0.2929 -0.0956
  472TIP3    H223052   4.774   0.146   6.517 -0.4214 -0.2550 -0.4003
  473TIP3   OH223053   4.493   1.802   0.470 -0.4642 -0.2279 -0.6202
  473TIP3    H123054   4.427   1.790   0.401 -0.8439  1.9076 -0.7076
  473TIP3    H223055   4.569   1.838   0.425 -0.5564  0.7619 -0.0351
  474TIP3   OH223056   0.103   5.268   0.049 -0.5935 -0.0258 -0.1945
  474TIP3    H123057   0.098   5.327   0.124 -0.9490  0.8115 -0.8589
  474TIP3    H223058   0.141   5.321  -0.021  0.7762 -1.1009 -0.3318
  475TIP3   OH223059   4.309   5.573   7.853 -0.2942 -0.4372  0.0125
  475TIP3    H123060   4.395   5.614   7.862 -0.4357  0.1707 -1.0849
  475TIP3    H223061   4.247   5.638   7.887 -0.3747 -0.5251  0.0356
  476TIP3   OH223062   4.719   0.580   8.397  0.2861 -0.2513 -0.0631
  476TIP3    H123063   4.714   0.494   8.355  0.5495 -0.4155  0.2467
  476TIP3    H223064   4.769   0.566   8.477  1.1939  0.3872 -0.5085
  477TIP3   OH223065   0.474   0.917   8.469 -0.1319  0.0515  0.3648
  477TIP3    H123066   0.413   0.968   8.417 -2.4395 -0.4867  2.3761
  477TIP3    H223067   0.516   0.858   8.406 -1.2087  0.8666 -1.1770
  478TIP3   OH223068   4.208   3.467   8.153  0.2443  0.1513  0.0564
  478TIP3    H123069   4.163   3.552   8.155  0.3412  0.1841  1.7200
  478TIP3    H223070   4.264   3.473   8.076  0.6050  1.7942  0.3932
  479TIP3   OH223071   3.326   4.820   8.505  0.9882 -0.1283  0.4242
  479TIP3    H123072   3.382   4.812   8.582  1.0250  0.0510  0.4178
  479TIP3    H223073   3.277   4.901   8.519  0.1076 -0.7153  0.8286
  480TIP3   OH223074   5.593   0.745   1.722  0.2591 -0.6820  0.3682
  480TIP3    H123075   5.562   0.755   1.812 -1.7943 -0.4843 -0.3186
  480TIP3    H223076   5.537   0.802   1.670  0.9405 -1.3183 -1.1290
  481TIP3   OH223077   2.845   4.482   7.315  0.9004 -0.6560 -0.5215
  481TIP3    H123078   2.761   4.479   7.361  0.0538  0.9826 -1.8382
  481TIP3    H223079   2.904   4.432   7.371 -0.5855 -0.6046  1.2104
  482TIP3   OH223080   5.545   3.629   6.879  0.2192 -0.5303  0.0500
  482TIP3    H123081   5.581   3.578   6.806 -1.0533 -0.9017 -0.3531
  482TIP3    H223082   5.596   3.710   6.879 -1.0065  0.3833 -2.6045
  483TIP3   OH223083   3.308   4.677   8.299 -0.4113 -0.5141  0.1306
  483TIP3    H123084   3.305   4.737   8.374 -0.2322 -1.7068  1.1191
  483TIP3    H223085   3.245   4.714   8.237 -3.3020 -1.3741  2.3414
  484TIP3   OH223086   0.293   5.167   1.255  0.1854  0.1689  0.1833
  484TIP3    H123087   0.282   5.209   1.341 -1.7470  0.0723  0.0306
  484TIP3    H223088   0.326   5.237   1.198  0.7186  0.4419  0.8167
  485TIP3   OH223089   5.488   6.768   6.935  0.4016 -0.0433 -0.2747
  485TIP3    H123090   5.414   6.766   6.874  0.4924  1.8786 -0.5268
  485TIP3    H223091   5.456   6.723   7.013 -0.9601  0.4867 -0.4917
  486TIP3   OH223092   3.267   2.521   1.117  0.1948 -0.0039 -0.5179
  486TIP3    H123093   3.361   2.540   1.116  0.0408  1.1841  1.4753
  486TIP3    H223094   3.231   2.575   1.047  0.7005  1.6785  0.4515
  487TIP3   OH223095   6.663   1.466   6.993 -0.0637 -0.0919  0.0028
  487TIP3    H123096   6.572   1.491   7.003  0.5015  2.9943 -1.3480
  487TIP3    H223097   6.699   1.469   7.081 -0.4422  2.7285  0.1550
  488TIP3   OH223098   3.958   3.316   0.363  0.2562  0.1222  0.7611
  488TIP3    H123099   3.902   3.261   0.418 -0.7916  1.6525  1.3014
  488TIP3    H223100   4.018   3.255   0.322 -0.3128 -1.3265  1.9692
  489TIP3   OH223101   1.797   3.664   0.315 -0.2507 -0.1077 -0.3801
  489TIP3    H123102   1.707   3.694   0.325 -0.2413 -0.4056  0.7465
  489TIP3    H223103   1.823   3.694   0.227 -1.6088 -0.4901 -0.9331
  490TIP3   OH223104   5.395   4.846   6.172 -0.4436 -0.0851  0.7535
  490TIP3    H123105   5.490   4.852   6.179 -0.2671 -1.0165 -0.5356
  490TIP3    H223106   5.366   4.817   6.258  0.7675 -2.9451  0.2858
  491TIP3   OH223107   4.477   0.909   1.078  0.2811 -0.0904  0.6543
  491TIP3    H123108   4.422   0.957   1.016 -0.3396 -0.8988  0.5682
  491TIP3    H223109   4.557   0.962   1.084 -0.0479  0.5172 -0.0729
  492TIP3   OH223110   4.144   4.576   0.479  0.0128  0.1342  0.6684
  492TIP3    H123111   4.159   4.664   0.444 -0.1812 -0.1547 -0.1673
  492TIP3    H223112   4.192   4.574   0.561  0.4213  0.8632  0.4523
  493TIP3   OH223113   0.829   4.581   0.182  0.0742  0.0369 -0.5917
  493TIP3    H123114   0.734   4.582   0.196  0.2641  1.2563  1.0860
  493TIP3    H223115   0.849   4.669   0.148  0.7269  0.3581  0.5300
  494TIP3   OH223116   3.434   6.024   0.151 -0.2308  0.1124  0.5295
  494TIP3    H123117   3.368   6.092   0.141 -1.3494 -0.9622  0.2923
  494TIP3    H223118   3.496   6.040   0.081 -0.6499  0.6960  0.2827
  495TIP3   OH223119   1.098   5.133   2.299 -0.3572 -0.6322  0.4988
  495TIP3    H123120   1.026   5.189   2.271  0.0881 -0.9451 -1.4389
  495TIP3    H223121   1.056   5.053   2.329 -0.8213 -1.1032 -1.3141
  496TIP3   OH223122   5.520   5.179   7.175  0.3959 -0.3468  0.1994
  496TIP3    H123123   5.517   5.093   7.217  0.6891 -1.0476 -1.1529
  496TIP3    H223124   5.613   5.192   7.154  0.3004  0.1228  0.0516
  497TIP3   OH223125   5.351   1.680   7.196 -0.5926  0.1782  0.2784
  497TIP3    H123126   5.306   1.719   7.271  1.7647  1.9938  0.8600
  497TIP3    H223127   5.292   1.696   7.122 -1.5589  1.1498  1.2227
  498TIP3   OH223128   3.075   6.312   0.561  0.1200  0.4476 -0.2211
  498TIP3    H123129   3.150   6.320   0.502 -0.0944 -0.5667 -0.6674
  498TIP3    H223130   3.083   6.224   0.598 -1.6346 -0.3184 -1.4601
  499TIP3   OH223131   1.038   3.139   0.052  0.0058  0.1603  0.5994
  499TIP3    H123132   1.114   3.080   0.061 -1.9844 -2.6367  0.4724
  499TIP3    H223133   1.011   3.128  -0.040  0.0954  2.0675  0.3082
  500TIP3   OH223134   1.043   2.052   0.216  0.1754  0.0232  0.6709
  500TIP3    H123135   0.962   2.016   0.250  0.2455  0.5683  1.4450
  500TIP3    H223136   1.105   2.045   0.289  0.2954  1.3327  0.7242
  501TIP3   OH223137   6.494   6.249   8.299  0.0760 -0.1396  0.4809
  501TIP3    H123138   6.562   6.223   8.361  2.1479  0.6673 -1.3154
  501TIP3    H223139   6.456   6.167   8.268  0.4238 -0.6108  1.2997
  502TIP3   OH223140   0.072   0.615   8.820 -0.0023  0.3557  0.1019
  502TIP3    H123141   0.068   0.709   8.803  1.2603  0.0599 -2.2562
  502TIP3    H223142  -0.017   0.592   8.848 -0.1713  2.3152  1.3601
  503TIP3   OH223143   4.011   0.303   8.529 -0.0361 -0.0101  0.4528
  503TIP3    H123144   4.088   0.348   8.565 -0.9679  3.7717 -1.6769
  503TIP3    H223145   4.047   0.242   8.465  1.2688  0.5730  0.5866
  504TIP3   OH223146   5.929   2.231   1.277  0.5324  0.3070  0.0289
  504TIP3    H123147   5.937   2.316   1.320  1.7880 -0.1698  0.8039
  504TIP3    H223148   5.906   2.170   1.347 -0.9472  0.0860 -0.6250
  505TIP3   OH223149   0.440   2.881   0.284  0.3643 -0.3054  0.1023
  505TIP3    H123150   0.451   2.825   0.208  2.6202 -1.7657  1.3745
  505TIP3    H223151   0.391   2.957   0.252 -1.6279 -2.3525 -1.9923
  506TIP3   OH223152   5.408   3.814   6.554  0.3805 -0.0832 -0.2392
  506TIP3    H123153   5.484   3.856   6.513  0.7138 -1.3705 -0.9804
  506TIP3    H223154   5.343   3.885   6.562  1.6869  1.0849  0.5833
  507TIP3   OH223155   1.123   1.147   2.354  0.4403  0.6364  0.0703
  507TIP3    H123156   1.033   1.139   2.384  0.0783  1.5884 -0.7532
  507TIP3    H223157   1.120   1.125   2.261  0.8681  1.7811 -0.2220
  508TIP3   OH223158   4.046   1.199   0.410  0.1503  0.1108  0.1222
  508TIP3    H123159   4.021   1.289   0.386 -0.2559 -0.6437 -2.6444
  508TIP3    H223160   4.010   1.186   0.497 -1.1497  2.1201 -0.0542
  509TIP3   OH223161   5.711   4.727   8.720 -0.1516  0.2758 -1.0567
  509TIP3    H123162   5.663   4.791   8.667 -2.4367 -0.0506  0.4861
  509TIP3    H223163   5.667   4.644   8.703 -1.1145  0.2031  1.4297
  510TIP3   OH223164   2.646   2.039   0.303  0.1625 -0.1048 -0.6357
  510TIP3    H123165   2.578   1.972   0.311  0.5444 -0.4486 -0.2022
  510TIP3    H223166   2.725   1.991   0.279  0.2228  0.3125 -1.3064
  511TIP3   OH223167   5.010   0.867   8.515 -0.0490  0.1177 -0.2873
  511TIP3    H123168   5.056   0.927   8.574  0.3032 -2.1248  1.8573
  511TIP3    H223169   4.929   0.847   8.561 -0.4943 -0.4987 -1.3202
  512TIP3   OH223170   3.648   6.279   0.423  0.7637  0.2532 -0.2179
  512TIP3    H123171   3.639   6.189   0.393 -0.6398  1.0553 -2.4875
  512TIP3    H223172   3.664   6.330   0.343  0.0995  2.1772  0.7910
  513TIP3   OH223173   4.551   4.382   1.149  0.2171 -0.1489  0.2609
  513TIP3    H123174   4.546   4.429   1.232  0.3410 -1.8725  1.2946
  513TIP3    H223175   4.472   4.329   1.147 -0.3838  0.7398 -1.3202
  514TIP3   OH223176   2.303   1.606   2.464  0.0495  0.4664 -0.1299
  514TIP3    H123177   2.372   1.662   2.500  0.3889 -0.0547  0.0357
  514TIP3    H223178   2.227   1.663   2.459  0.4256  0.9794 -0.0781
  515TIP3   OH223179   6.638   5.251   8.331 -0.4216 -0.0100  0.0004
  515TIP3    H123180   6.578   5.286   8.397 -0.7400 -1.2409  0.3787
  515TIP3    H223181   6.718   5.232   8.379  0.1506  1.2175 -0.4218
  516TIP3   OH223182   6.473   3.354   8.692 -0.0250  0.0252 -0.1327
  516TIP3    H123183   6.564   3.354   8.722  0.0592 -0.3713 -0.3765
  516TIP3    H223184   6.443   3.444   8.706  0.1694 -0.0244  0.6530
  517TIP3   OH223185   3.831   4.570   0.579  0.1917  0.2943 -0.3719
  517TIP3    H123186   3.925   4.553   0.588 -0.2032 -2.0312  0.0496
  517TIP3    H223187   3.804   4.603   0.665  0.7434  1.9501 -0.7878
  518TIP3   OH223188   6.574   6.642   7.323  0.2132  0.1411 -0.0040
  518TIP3    H123189   6.648   6.696   7.294 -0.2787  0.8088 -0.0467
  518TIP3    H223190   6.513   6.644   7.249  1.4274 -2.9237 -1.2284
  519TIP3   OH223191   5.048   2.122   6.493  0.7275 -0.2240 -0.0052
  519TIP3    H123192   5.104   2.059   6.448 -0.3192  0.6575 -2.7568
  519TIP3    H223193   5.109   2.181   6.536  1.8647 -0.6281 -1.0030
  520TIP3   OH223194   6.541   0.838   6.163  0.0886 -0.5142  0.1430
  520TIP3    H123195   6.537   0.747   6.192 -2.1135 -0.0937  1.3760
  520TIP3    H223196   6.451   0.870   6.173  1.2598  2.5378  2.2265
  521TIP3   OH223197   0.933   4.262   8.233 -0.3028 -0.0623  0.2346
  521TIP3    H123198   0.882   4.338   8.203  0.4428  0.1473 -0.5818
  521TIP3    H223199   0.873   4.188   8.226 -0.6935  0.2778 -0.0751
  522TIP3   OH223200   1.479   4.693   1.762  0.5907  0.1877  0.0085
  522TIP3    H123201   1.426   4.761   1.803 -0.0528 -0.9358  1.1143
  522TIP3    H223202   1.524   4.649   1.834  0.2376 -1.1673 -0.5536
  523TIP3   OH223203   5.666   6.312   0.065  0.1517 -0.1610 -0.6332
  523TIP3    H123204   5.612   6.375   0.016  0.1570  1.3477  1.1595
  523TIP3    H223205   5.756   6.343   0.054  0.2383 -0.3186 -0.3882
  524TIP3   OH223206   5.639   2.098   8.208  0.1308  0.2702 -0.4147
  524TIP3    H123207   5.706   2.120   8.143  1.2073  0.0802  0.5926
  524TIP3    H223208   5.662   2.010   8.236  0.8664  1.0640  1.6160
  525TIP3   OH223209   4.762   3.718   6.696 -0.4532  0.0913 -0.3838
  525TIP3    H123210   4.786   3.626   6.693 -1.1579 -0.1550  0.8977
  525TIP3    H223211   4.667   3.718   6.708 -0.4398  0.9757 -0.1624
  526TIP3   OH223212   0.815   5.387   7.075 -0.3012 -0.6659 -0.7087
  526TIP3    H123213   0.868   5.311   7.098 -1.3499 -1.5316 -1.0843
  526TIP3    H223214   0.742   5.384   7.137 -0.1048  0.3169 -0.4165
  527TIP3   OH223215   0.869   2.186   8.583 -0.0265 -0.1793 -0.3712
  527TIP3    H123216   0.937   2.120   8.571  0.0079  0.2772 -3.5566
  527TIP3    H223217   0.787   2.137   8.577  0.0075 -0.3432  0.4814
  528TIP3   OH223218   2.203   5.966   0.700  0.2873 -0.3757  0.2563
  528TIP3    H123219   2.249   5.882   0.705  0.4833 -0.2300  1.4421
  528TIP3    H223220   2.247   6.020   0.766 -0.4452  0.3497  0.1654
  529TIP3   OH223221   0.030   1.626   7.388 -0.1613  0.4409 -0.4159
  529TIP3    H123222   0.113   1.578   7.393 -0.2023  0.1928 -1.7265
  529TIP3    H223223   0.036   1.675   7.306 -2.3228 -1.5783 -1.9304
  530TIP3   OH223224   1.458   5.731   0.210  0.1878  0.2116  0.0935
  530TIP3    H123225   1.503   5.782   0.277 -0.9152 -0.7141  1.6163
  530TIP3    H223226   1.515   5.656   0.194 -1.0242 -1.4099  2.6331
  531TIP3   OH223227   1.244   6.682   8.158  0.5744 -0.1747 -0.2788
  531TIP3    H123228   1.224   6.748   8.091  0.5042  0.8683  0.7288
  531TIP3    H223229   1.324   6.640   8.127 -0.5284 -1.1171 -1.9980
  532TIP3   OH223230   2.900   4.936   6.360 -0.0399  0.1735 -0.0203
  532TIP3    H123231   2.856   4.993   6.423  0.6593  1.2036 -0.4177
  532TIP3    H223232   2.898   4.849   6.399 -0.1448  0.6835  1.1395
  533TIP3   OH223233   1.793   6.174   0.306 -0.1605  0.1649  0.3482
  533TIP3    H123234   1.847   6.207   0.234 -0.8450  1.4674  0.3943
  533TIP3    H223235   1.767   6.253   0.354 -1.2084 -0.5283  0.9550
  534TIP3   OH223236   6.020   4.699   7.458  0.3890 -0.6951 -0.5471
  534TIP3    H123237   6.055   4.785   7.433  0.6519 -0.4952  0.4666
  534TIP3    H223238   6.039   4.643   7.383  1.7327 -0.2722 -0.5414
  535TIP3   OH223239   2.846   1.002   1.832 -0.6375  0.3564  0.3442
  535TIP3    H123240   2.784   0.971   1.766  1.1927 -1.8824 -0.4690
  535TIP3    H223241   2.822   0.955   1.912  1.0550 -2.0974 -0.4566
  536TIP3   OH223242   5.670   0.023   0.268  0.2424 -0.3598  0.1193
  536TIP3    H123243   5.746   0.040   0.323  0.4080  1.9114 -0.7107
  536TIP3    H223244   5.699   0.041   0.179 -0.7408 -1.4034 -0.4478
  537TIP3   OH223245   2.697   3.591   7.724 -0.5887 -0.7308 -0.7056
  537TIP3    H123246   2.617   3.643   7.730  0.1042  0.2006  1.5378
  537TIP3    H223247   2.765   3.648   7.760  0.9001 -1.8776 -1.5833
  538TIP3   OH223248   5.566   3.554   6.589 -0.1083  0.3852  0.3688
  538TIP3    H123249   5.505   3.628   6.585 -0.5287  0.1050  1.4077
  538TIP3    H223250   5.526   3.488   6.533 -0.8413  0.1562  1.1417
  539TIP3   OH223251   0.272   5.445   6.447  0.2017 -0.8232  0.1470
  539TIP3    H123252   0.333   5.470   6.516 -0.4213 -0.6540  0.6465
  539TIP3    H223253   0.328   5.415   6.375  0.8515 -1.2239  0.8034
  540TIP3   OH223254   6.816   6.168   8.247  0.1628 -0.2713 -0.1396
  540TIP3    H123255   6.778   6.172   8.334  0.2728  0.7081 -0.1281
  540TIP3    H223256   6.898   6.217   8.254 -0.3797  0.8242 -1.0669
  541TIP3   OH223257   4.404   3.390   8.368  0.1697  0.3968  0.3163
  541TIP3    H123258   4.391   3.301   8.399  1.5732 -0.0697 -0.3496
  541TIP3    H223259   4.324   3.412   8.321  0.3071 -0.9828 -0.5897
  542TIP3   OH223260   4.053   1.408   7.275 -0.0563 -0.2164  0.6542
  542TIP3    H123261   4.033   1.491   7.320  0.1803 -0.0484  0.4493
  542TIP3    H223262   4.145   1.392   7.295  0.0272 -0.1857  0.3037
  543TIP3   OH223263   5.692   4.810   7.615 -0.5781 -0.6197  0.1712
  543TIP3    H123264   5.720   4.862   7.540  0.2626 -1.1820  0.0858
  543TIP3    H223265   5.673   4.723   7.579  1.1174 -1.2810  0.7802
  544TIP3   OH223266   4.813   3.076   8.706 -0.4396  0.2129  0.0426
  544TIP3    H123267   4.811   2.998   8.761  1.3004  0.4256  0.4679
  544TIP3    H223268   4.839   3.147   8.766 -0.6813  0.8602 -0.6040
  545TIP3   OH223269   2.015   4.958   7.092 -0.5597  0.2713 -0.0209
  545TIP3    H123270   2.095   4.920   7.129 -0.2499  1.0421  0.1258
  545TIP3    H223271   1.977   4.888   7.039  0.0968 -0.1699  0.0821
  546TIP3   OH223272   3.866   3.338   1.870 -0.1060 -0.2051 -0.3762
  546TIP3    H123273   3.825   3.409   1.921 -1.6159 -0.1378 -1.5749
  546TIP3    H223274   3.955   3.369   1.853  0.8900 -0.7330  3.0711
  547TIP3   OH223275   2.201   5.545   0.032 -0.6741 -0.5511 -0.9604
  547TIP3    H123276   2.213   5.557  -0.062  1.4872  1.8356 -0.4695
  547TIP3    H223277   2.224   5.453   0.047 -0.8228 -0.9176 -2.6995
  548TIP3   OH223278   2.751   5.233   7.094 -0.3862 -0.1796 -0.3896
  548TIP3    H123279   2.750   5.320   7.055  0.7209  0.9290  1.8680
  548TIP3    H223280   2.663   5.221   7.129 -0.8295 -0.4192 -1.5315
  549TIP3   OH223281   5.443   0.959   2.229  0.2768 -0.2216 -0.9302
  549TIP3    H123282   5.402   1.000   2.305  1.7054 -0.6802  0.1245
  549TIP3    H223283   5.510   1.022   2.201 -0.8049  0.3505 -2.4084
  550TIP3   OH223284   5.052   0.845   0.633 -0.1973 -0.0554 -0.5031
  550TIP3    H123285   5.043   0.939   0.620 -0.4628  0.3244  2.0170
  550TIP3    H223286   4.985   0.806   0.576 -1.6803  1.4189  0.1662
  551TIP3   OH223287   6.423   2.604   1.815  0.5493 -0.1972 -0.9396
  551TIP3    H123288   6.450   2.696   1.819  1.3232 -0.4608  0.0297
  551TIP3    H223289   6.363   2.593   1.888  1.4956 -0.7774 -0.2219
  552TIP3   OH223290   4.517   3.575   1.306 -0.0550  0.0231 -1.1522
  552TIP3    H123291   4.599   3.548   1.263 -0.3125  0.0231 -1.6516
  552TIP3    H223292   4.461   3.602   1.234 -0.3542  0.4117 -0.7751
  553TIP3   OH223293   4.549   0.915   0.613 -0.5479 -0.3052  0.6045
  553TIP3    H123294   4.541   0.841   0.673 -4.2034 -0.9199 -0.3981
  553TIP3    H223295   4.478   0.974   0.638  0.7755  1.7577 -0.1918
  554TIP3   OH223296   0.638   0.739   8.835 -0.5444  0.3787  0.6864
  554TIP3    H123297   0.626   0.756   8.928  2.8143 -0.7373  1.4588
  554TIP3    H223298   0.646   0.644   8.829  0.3367  0.5006 -0.5258
  555TIP3   OH223299   6.455   4.142   1.050  0.4927  0.7812  0.3966
  555TIP3    H123300   6.504   4.156   1.130 -0.4668  2.1974  0.7734
  555TIP3    H223301   6.472   4.220   0.997 -0.2656  0.6602 -0.0449
  556TIP3   OH223302   3.537   3.536   1.260  0.2538 -0.2483  0.6647
  556TIP3    H123303   3.549   3.529   1.355 -0.9242  1.4922  0.9798
  556TIP3    H223304   3.559   3.627   1.239  0.3144 -0.5531 -0.7202
  557TIP3   OH223305   1.179   0.093   7.092  0.6214 -0.1105  0.4966
  557TIP3    H123306   1.120   0.106   7.017  0.4227  0.8909  0.8175
  557TIP3    H223307   1.120   0.091   7.168  0.6591 -2.6436  0.5296
  558TIP3   OH223308   0.405   5.903   1.184 -0.3056  0.3117  0.5779
  558TIP3    H123309   0.329   5.894   1.126 -0.1995  3.5890 -0.2484
  558TIP3    H223310   0.368   5.934   1.267 -0.0205  0.1283  0.7776
  559TIP3   OH223311   0.476   0.676   7.806 -0.2615  0.0464  0.0000
  559TIP3    H123312   0.433   0.709   7.727 -2.1601 -1.0595  0.4847
  559TIP3    H223313   0.507   0.589   7.781 -0.8140 -0.2817  0.4390
  560TIP3   OH223314   4.646   2.649   6.984 -0.0424 -0.2217 -0.4390
  560TIP3    H123315   4.694   2.567   6.980 -1.0840 -0.8633 -0.0972
  560TIP3    H223316   4.653   2.686   6.895  4.8852  2.0083  0.5804
  561TIP3   OH223317   2.914   0.762   0.545  0.5582 -0.2332 -0.0355
  561TIP3    H123318   2.845   0.760   0.612 -0.0258  0.7714 -0.5907
  561TIP3    H223319   2.985   0.813   0.584 -0.5741  2.1332 -0.8642
  562TIP3   OH223320   6.857   5.914   1.211  0.1383 -0.0349  0.5899
  562TIP3    H123321   6.911   5.966   1.151  0.1324  1.3241  1.6988
  562TIP3    H223322   6.920   5.869   1.267  0.1347 -0.7453  0.0343
  563TIP3   OH223323   4.276   4.329   1.373  0.1036  0.1631 -0.1234
  563TIP3    H123324   4.270   4.236   1.353 -0.1963 -0.0010  0.7083
  563TIP3    H223325   4.284   4.333   1.468 -1.8541  1.0464  0.0661
  564TIP3   OH223326   0.042   0.699   7.315  0.2131 -0.0977 -0.8604
  564TIP3    H123327   0.116   0.696   7.376 -0.3613  0.0157 -0.1443
  564TIP3    H223328  -0.022   0.638   7.352 -0.5849  0.7787 -0.7485
  565TIP3   OH223329   4.225   4.206   2.491  0.0988  0.6446  0.6984
  565TIP3    H123330   4.233   4.264   2.415 -2.1249  0.3143  0.1406
  565TIP3    H223331   4.205   4.265   2.564 -2.0913  0.6558  0.1461
  566TIP3   OH223332   3.066   0.005   1.015  0.4690  0.2463  0.6311
  566TIP3    H123333   3.132   0.042   0.957  1.6637 -2.5096  0.0327
  566TIP3    H223334   3.021  -0.060   0.960 -0.8916  0.1841  1.7886
  567TIP3   OH223335   6.271   6.544   7.229 -0.5624 -0.1733 -0.1628
  567TIP3    H123336   6.184   6.525   7.264 -1.4612  1.5842 -1.3012
  567TIP3    H223337   6.255   6.574   7.139  0.8748  3.0951  0.5190
  568TIP3   OH223338   2.398   4.892   8.476 -0.4350  0.3744  0.5190
  568TIP3    H123339   2.462   4.828   8.506 -0.0564  0.9810  1.0455
  568TIP3    H223340   2.411   4.897   8.382 -0.3683 -0.2093  0.4932
  569TIP3   OH223341   4.516   6.242   8.806  0.1991 -0.0880 -0.7633
  569TIP3    H123342   4.509   6.220   8.899 -0.9777  1.4515 -0.4515
  569TIP3    H223343   4.607   6.270   8.795  0.2688  0.0020 -0.0038
  570TIP3   OH223344   5.731   2.670   2.076  0.6524 -0.1739 -0.0194
  570TIP3    H123345   5.658   2.649   2.134  0.8947 -0.1797  0.2857
  570TIP3    H223346   5.803   2.616   2.108  2.2474  3.2023  2.7309
  571TIP3   OH223347   4.051   0.898   1.651 -0.5468 -0.0494 -0.1631
  571TIP3    H123348   4.128   0.874   1.600 -1.0783 -2.2170 -0.0560
  571TIP3    H223349   4.084   0.959   1.717  0.8524 -0.0841 -0.7939
  572TIP3   OH223350   3.604   1.184   6.868  0.1123  0.3215  0.1616
  572TIP3    H123351   3.614   1.262   6.813  0.2714  0.6009  0.5750
  572TIP3    H223352   3.693   1.167   6.901  0.2207 -0.4944 -0.5299
  573TIP3   OH223353   6.066   3.786   0.088  0.2177 -0.0015 -0.3751
  573TIP3    H123354   6.102   3.866   0.050  0.4749  0.1034  0.0858
  573TIP3    H223355   6.102   3.783   0.177 -0.5675 -0.1243 -0.0580
  574TIP3   OH223356   3.888   2.731   0.576  0.3436  0.7420  0.4006
  574TIP3    H123357   3.947   2.660   0.550  1.7130  1.9142  0.1978
  574TIP3    H223358   3.926   2.810   0.537  0.3077  1.9961  2.6798
  575TIP3   OH223359   6.582   4.651   8.737 -0.6379 -0.8421  0.1059
  575TIP3    H123360   6.579   4.744   8.719 -2.6457 -0.6677  0.9802
  575TIP3    H223361   6.673   4.626   8.723  0.3451  1.5827  1.5153
  576TIP3   OH223362   0.161   3.568   1.243  0.6349 -0.3456 -0.1560
  576TIP3    H123363   0.195   3.507   1.178  1.3150 -1.8754  1.5127
  576TIP3    H223364   0.075   3.533   1.267  0.9021 -0.4947  0.6073
  577TIP3   OH223365   4.395   3.149   7.564 -0.1884 -0.8941 -0.5400
  577TIP3    H123366   4.360   3.186   7.483 -0.2694  0.4061  0.0555
  577TIP3    H223367   4.320   3.110   7.608 -0.1056 -1.7866 -1.1800
  578TIP3   OH223368   4.688   5.033   2.334  0.2882 -0.4317  0.0234
  578TIP3    H123369   4.666   5.123   2.358  1.0416 -0.3702  0.5282
  578TIP3    H223370   4.604   4.991   2.318 -0.0706  0.3609 -0.1981
  579TIP3   OH223371   5.001   1.619   7.107 -0.5614  0.9277 -0.0612
  579TIP3    H123372   4.914   1.585   7.126  0.6137 -2.3661  0.0606
  579TIP3    H223373   5.057   1.578   7.172  1.1861  2.6320 -0.4009
  580TIP3   OH223374   2.479   1.244   8.197  0.8484  0.4107  0.1203
  580TIP3    H123375   2.533   1.176   8.238  0.7603  0.6982  0.7175
  580TIP3    H223376   2.487   1.227   8.103  2.8126  1.0629  0.1313
  581TIP3   OH223377   0.638   5.800   8.515  0.3208  0.1020 -0.7074
  581TIP3    H123378   0.700   5.798   8.442  1.1274 -0.9440 -0.0355
  581TIP3    H223379   0.580   5.873   8.496  0.4490 -0.2057 -2.4451
  582TIP3   OH223380   4.908   1.193   1.248 -0.0534 -0.0159 -0.4667
  582TIP3    H123381   4.889   1.249   1.173 -1.3545  0.4647  0.1818
  582TIP3    H223382   4.906   1.252   1.323  0.7532 -0.5713  0.0100
  583TIP3   OH223383   4.970   2.499   7.025 -0.2630  0.0397  0.2781
  583TIP3    H123384   4.962   2.495   6.930 -0.1013  0.8207  0.2216
  583TIP3    H223385   5.064   2.499   7.041 -0.2359 -2.8875  0.6061
  584TIP3   OH223386   1.568   2.098   7.045  0.4750  0.2918 -0.3102
  584TIP3    H123387   1.660   2.097   7.071  0.4297 -1.9640 -0.0119
  584TIP3    H223388   1.563   2.038   6.970 -0.3822  2.2684 -1.9306
  585TIP3   OH223389   3.072   5.210   1.988 -0.2492  0.1842  0.5952
  585TIP3    H123390   2.999   5.233   2.046 -1.6567 -0.3559 -0.8774
  585TIP3    H223391   3.066   5.115   1.979  0.4033  0.1821  0.1567
  586TIP3   OH223392   3.570   0.068   7.447  0.2866 -0.4494  0.0304
  586TIP3    H123393   3.573  -0.015   7.493  1.0842 -1.0463 -1.0433
  586TIP3    H223394   3.613   0.050   7.363  0.6029  1.0775 -0.1598
  587TIP3   OH223395   0.215   2.661   0.292  0.3516 -0.1751  0.2748
  587TIP3    H123396   0.129   2.653   0.250  0.4614  2.6029 -0.6346
  587TIP3    H223397   0.275   2.682   0.220  2.2414 -3.7038  0.5953
  588TIP3   OH223398   5.975   3.079   8.363 -0.5882  0.0449 -0.0202
  588TIP3    H123399   6.034   3.122   8.300 -2.7311  1.5488 -1.1393
  588TIP3    H223400   5.962   3.144   8.432  0.3747 -0.9412  1.1319
  589TIP3   OH223401   1.662   1.989   6.614  0.3079  0.2752  0.8763
  589TIP3    H123402   1.632   1.924   6.550  3.9042  1.1302 -2.0069
  589TIP3    H223403   1.637   1.952   6.699  1.8195 -4.8117 -0.5467
  590TIP3   OH223404   6.658   5.792   0.223  0.1380 -0.4694  0.2368
  590TIP3    H123405   6.656   5.699   0.198 -0.9177 -1.2981  3.0406
  590TIP3    H223406   6.749   5.809   0.247  0.4894 -0.5295 -0.9811
  591TIP3   OH223407   2.874   1.184   1.517  0.2943 -0.1882 -0.2520
  591TIP3    H123408   2.876   1.094   1.483  1.8603 -0.6482  0.8807
  591TIP3    H223409   2.921   1.236   1.451  1.0858 -0.5901 -0.0225
  592TIP3   OH223410   0.914   2.502   8.211  0.3087 -0.2084 -0.0588
  592TIP3    H123411   0.930   2.477   8.302 -0.6692 -0.0855  0.1623
  592TIP3    H223412   0.998   2.488   8.167  0.9623  0.3051  0.9791
  593TIP3   OH223413   4.243   4.470   8.050 -0.0692 -0.2977 -0.6258
  593TIP3    H123414   4.313   4.508   8.104 -0.2735 -1.2445  0.3579
  593TIP3    H223415   4.280   4.465   7.962  0.2408  1.3868 -0.6073
  594TIP3   OH223416   2.181   1.535   0.737  0.3768 -0.1512 -0.1687
  594TIP3    H123417   2.131   1.615   0.749  0.3541 -0.2140  0.1511
  594TIP3    H223418   2.123   1.465   0.767  1.1173 -0.1166  1.4074
  595TIP3   OH223419   1.069   5.013   7.492  0.3025  0.4472 -0.1474
  595TIP3    H123420   1.141   4.980   7.438  1.0247  0.4248  0.7894
  595TIP3    H223421   1.080   5.108   7.491  1.5771  0.3863  1.5409
  596TIP3   OH223422   6.485   2.164   1.756  0.1967  0.1268  0.0142
  596TIP3    H123423   6.461   2.119   1.837  0.8327 -0.8702 -0.3298
  596TIP3    H223424   6.411   2.151   1.697 -0.2669  0.8543  0.4262
  597TIP3   OH223425   1.206   3.821   7.258  0.1171 -0.4969 -0.1057
  597TIP3    H123426   1.168   3.740   7.223  0.1126  0.0760 -1.5101
  597TIP3    H223427   1.186   3.819   7.351 -1.1918 -1.3916 -0.3810
  598TIP3   OH223428   2.241   5.271   0.067 -0.0792  0.4903 -0.3051
  598TIP3    H123429   2.266   5.244  -0.022  0.8700 -2.3728  0.7065
  598TIP3    H223430   2.221   5.189   0.112 -3.4914  2.0512  1.3756
  599TIP3   OH223431   2.274   3.030   7.325  0.1075  0.0084 -0.1192
  599TIP3    H123432   2.305   3.016   7.236 -1.3653 -0.0374 -0.6569
  599TIP3    H223433   2.229   3.114   7.322 -1.0582 -0.5668  0.2312
  600TIP3   OH223434   1.159   6.303   1.080 -0.2496 -0.0734  0.1397
  600TIP3    H123435   1.252   6.291   1.099 -0.6259 -0.0188  2.3019
  600TIP3    H223436   1.156   6.377   1.020  1.1756 -1.1328 -1.3067
  601TIP3   OH223437   5.771   3.304   0.273  0.0511 -0.0731 -0.1339
  601TIP3    H123438   5.686   3.272   0.243  0.3377 -1.0075  0.0034
  601TIP3    H223439   5.806   3.354   0.200 -0.8185  0.7352 -0.0202
  602TIP3   OH223440   3.397   6.269   0.590 -0.0546  0.1780 -0.2514
  602TIP3    H123441   3.463   6.273   0.521 -0.6999 -0.1301 -0.9050
  602TIP3    H223442   3.344   6.192   0.569 -1.3720  1.0906 -0.4678
  603TIP3   OH223443   2.244   6.738   2.308 -0.3755  0.5754 -0.9593
  603TIP3    H123444   2.322   6.690   2.336 -0.7031 -0.0052 -1.0350
  603TIP3    H223445   2.190   6.673   2.263 -1.6193  0.5848  0.4394
  604TIP3   OH223446   3.922   4.403   0.288 -0.2291 -0.4657 -0.0524
  604TIP3    H123447   3.909   4.339   0.359  1.2163  0.1613  0.8182
  604TIP3    H223448   3.920   4.488   0.332  1.5881 -0.1079 -0.5930
  605TIP3   OH223449   4.474   0.428   7.770 -0.0679  0.5275  0.2302
  605TIP3    H123450   4.490   0.521   7.786 -0.5033  0.4622  1.1388
  605TIP3    H223451   4.379   0.421   7.765 -0.2032 -0.1777  2.4697
  606TIP3   OH223452   6.456   1.961   8.577 -0.0390 -0.2099  0.3542
  606TIP3    H123453   6.537   1.926   8.538 -0.5477 -0.1185 -0.8380
  606TIP3    H223454   6.482   1.991   8.664  0.6506 -2.6192  1.0687
  607TIP3   OH223455   1.409   0.046   7.301  0.8070  0.1257  0.0846
  607TIP3    H123456   1.366  -0.012   7.238  0.7991  0.0535  0.1561
  607TIP3    H223457   1.408   0.132   7.260 -0.4023  0.3539  0.5467
  608TIP3   OH223458   3.137   4.339   1.151 -0.1834 -0.0568 -0.7100
  608TIP3    H123459   3.187   4.416   1.178 -0.3313  0.9310 -3.0613
  608TIP3    H223460   3.201   4.267   1.150  0.3157  0.3666 -0.0613
  609TIP3   OH223461   5.985   5.823   0.365  0.4131  0.8482  0.2252
  609TIP3    H123462   5.941   5.835   0.450 -3.3548  1.4081 -1.5720
  609TIP3    H223463   5.923   5.858   0.301  3.0328  0.3792 -2.8255
  610TIP3   OH223464   6.332   1.554   7.931  0.3366 -0.1243 -0.0351
  610TIP3    H123465   6.283   1.634   7.949  0.0910  0.2023 -1.9734
  610TIP3    H223466   6.364   1.526   8.017 -1.2581  0.9310  0.9556
  611TIP3   OH223467   1.443   5.372   0.367  0.5477 -0.3838  0.1425
  611TIP3    H123468   1.489   5.332   0.293 -0.9150 -0.9604 -0.5038
  611TIP3    H223469   1.382   5.434   0.327  1.8463  1.5881  1.0666
  612TIP3   OH223470   3.404   2.691   8.782  0.6638 -0.3111 -0.3504
  612TIP3    H123471   3.345   2.714   8.710  0.9485  0.0638 -0.4642
  612TIP3    H223472   3.490   2.723   8.755  0.9356 -0.9164 -0.2121
  613TIP3   OH223473   2.084   4.279   7.965  0.5565  0.3382  0.2605
  613TIP3    H123474   2.051   4.331   7.892 -1.7993 -2.3319 -0.7790
  613TIP3    H223475   2.017   4.290   8.034 -0.1281 -1.3851 -0.0780
  614TIP3   OH223476   3.012   4.920   7.825  0.5183 -0.8270 -0.1575
  614TIP3    H123477   3.095   4.950   7.788  0.7925 -2.2805 -0.7668
  614TIP3    H223478   2.975   4.999   7.865  1.1741  0.3350 -1.7241
  615TIP3   OH223479   6.035   3.967   0.700 -0.2479  0.1839 -0.0715
  615TIP3    H123480   6.003   4.047   0.742 -3.3272  0.5823 -2.7483
  615TIP3    H223481   6.129   3.982   0.688 -0.3028  2.3536  1.5781
  616TIP3   OH223482   1.215   0.575   0.307  0.1309  0.1612 -0.3294
  616TIP3    H123483   1.294   0.540   0.348 -1.1052 -0.2026  1.9119
  616TIP3    H223484   1.226   0.670   0.312  0.9318  0.1266 -1.1507
  617TIP3   OH223485   5.368   4.014   8.501  0.5998 -0.0379  0.4143
  617TIP3    H123486   5.458   3.981   8.511  1.3052  1.6766  0.1194
  617TIP3    H223487   5.326   3.997   8.585  1.9189  1.1656  1.3501
  618TIP3   OH223488   3.936   5.912   7.267 -0.3184 -0.2023 -0.1555
  618TIP3    H123489   3.929   5.980   7.201  1.0509 -0.2893 -0.4160
  618TIP3    H223490   3.907   5.954   7.348 -0.3902  0.4041 -0.4879
  619TIP3   OH223491   0.953   0.725   5.988 -0.0149  0.3858  0.4838
  619TIP3    H123492   0.976   0.632   5.983  0.7563  0.6238 -0.6530
  619TIP3    H223493   1.022   0.770   5.940  0.0039  1.6302  1.6374
  620TIP3   OH223494   0.461   1.907   7.487 -0.2511 -0.3599 -0.1836
  620TIP3    H123495   0.478   1.920   7.580 -0.7954 -0.7657 -0.0201
  620TIP3    H223496   0.458   1.812   7.477 -0.7003 -0.3122 -0.5193
  621TIP3   OH223497   1.690   0.737   6.837 -0.1142  0.1072  0.2631
  621TIP3    H123498   1.688   0.672   6.907 -0.2699  0.5019  0.6323
  621TIP3    H223499   1.657   0.691   6.760 -0.6298 -0.1331  0.6237
  622TIP3   OH223500   0.792   6.509   1.314 -0.4808 -0.1224 -0.2989
  622TIP3    H123501   0.799   6.495   1.220 -0.0090  1.9299 -0.6306
  622TIP3    H223502   0.697   6.509   1.331 -0.5882  0.0624 -0.8748
  623TIP3   OH223503   1.082   6.405   7.173  0.1784  0.5184 -0.0478
  623TIP3    H123504   1.153   6.414   7.237 -0.4487 -0.5681  0.8462
  623TIP3    H223505   1.069   6.493   7.138  1.1988  0.9438  0.6020
  624TIP3   OH223506   0.582   1.103   0.663  0.1983  0.2189 -0.4007
  624TIP3    H123507   0.653   1.055   0.705 -2.5887 -2.6743  1.4435
  624TIP3    H223508   0.594   1.088   0.569  3.3678  2.0861 -0.4332
  625TIP3   OH223509   1.255   3.652   1.008  0.2965  0.1377  0.7180
  625TIP3    H123510   1.303   3.660   0.925 -2.2015 -0.6358 -0.9097
  625TIP3    H223511   1.233   3.742   1.032 -0.6308  0.2593 -0.5270
  626TIP3   OH223512   4.420   5.114   0.026 -0.3123  0.1541  0.0039
  626TIP3    H123513   4.325   5.131   0.028 -0.6301 -1.4674  0.2886
  626TIP3    H223514   4.426   5.019   0.012  1.2577  0.0349  1.3414
  627TIP3   OH223515   3.857   5.600   7.351  0.1466  0.9800 -0.1868
  627TIP3    H123516   3.907   5.642   7.421 -2.2887  0.3074  2.0606
  627TIP3    H223517   3.773   5.645   7.351 -0.2000  0.4458 -2.2325
  628TIP3   OH223518   3.936   0.697   6.951  0.0048  0.7087  0.5725
  628TIP3    H123519   3.892   0.690   6.866 -0.8345 -1.0040  1.1001
  628TIP3    H223520   3.871   0.664   7.014  1.5707 -0.6475  1.5411
  629TIP3   OH223521   3.382   6.039   6.157 -0.1050 -0.5488 -0.3107
  629TIP3    H123522   3.315   6.101   6.187 -1.9515 -1.1201 -2.8353
  629TIP3    H223523   3.462   6.091   6.152 -1.0441  1.0019 -0.0329
  630TIP3   OH223524   0.234   0.011   8.723 -0.1074  0.4373 -0.2984
  630TIP3    H123525   0.267   0.001   8.812 -1.7215  0.6956  0.3638
  630TIP3    H223526   0.256   0.102   8.699 -0.7210  0.7471  0.2965
  631TIP3   OH223527   4.159   1.664   6.974 -0.5265  0.5760 -0.0286
  631TIP3    H123528   4.146   1.757   6.994 -0.6206  0.3301  1.1115
  631TIP3    H223529   4.073   1.625   6.988 -0.0256 -0.0228  1.5534
  632TIP3   OH223530   0.433   2.901   8.139 -0.4781  0.7344  0.0434
  632TIP3    H123531   0.425   2.988   8.177 -1.8090  1.2281 -1.2864
  632TIP3    H223532   0.383   2.844   8.198  0.1596  0.9054  0.7581
  633TIP3   OH223533   6.595   0.032   8.164 -0.2030  0.1281  0.1359
  633TIP3    H123534   6.506   0.044   8.197 -0.1923  0.7577 -0.0368
  633TIP3    H223535   6.645   0.103   8.206  0.2605 -0.3461  0.3912
  634TIP3   OH223536   6.862   3.609   2.683  0.4025 -0.5944 -0.1107
  634TIP3    H123537   6.785   3.553   2.693  1.3660 -2.2909 -1.6222
  634TIP3    H223538   6.902   3.609   2.770 -1.6412  0.9640  0.9235
  635TIP3   OH223539   3.338   5.126   6.954  0.1427 -0.1305 -0.4018
  635TIP3    H123540   3.365   5.120   6.863  0.7636 -3.5564 -0.1167
  635TIP3    H223541   3.416   5.104   7.004 -0.2036  1.6477  1.0388
  636TIP3   OH223542   0.978   0.808   8.481  0.1108  0.4255 -0.3762
  636TIP3    H123543   0.900   0.863   8.480 -0.9832 -0.9979  1.0479
  636TIP3    H223544   0.978   0.765   8.395 -1.5293 -0.6442  0.1261
  637TIP3   OH223545   1.863   5.751   1.436  0.0348  0.2414  0.3574
  637TIP3    H123546   1.882   5.831   1.387  0.8048  0.2989  0.7302
  637TIP3    H223547   1.890   5.680   1.378  1.7745  0.3307  1.0111
  638TIP3   OH223548   2.302   4.326   8.270  0.3256 -0.1352  0.1031
  638TIP3    H123549   2.259   4.409   8.291  1.0199  0.1760  0.3332
  638TIP3    H223550   2.237   4.259   8.293 -0.4101  0.3490 -0.5105
  639TIP3   OH223551   2.335   6.782   7.697  0.0854  0.5575  0.0783
  639TIP3    H123552   2.335   6.878   7.703 -1.7885  0.5882  0.2971
  639TIP3    H223553   2.274   6.754   7.766 -1.7922 -0.5852 -1.9236
  640TIP3   OH223554   0.332   6.754   0.178 -0.2886  0.3917 -0.5242
  640TIP3    H123555   0.412   6.730   0.131 -0.4615  1.6119 -1.4689
  640TIP3    H223556   0.263   6.700   0.137 -0.2241  0.5158 -0.7942
  641TIP3   OH223557   2.506   0.990   7.676 -0.6855  0.1344  0.3184
  641TIP3    H123558   2.496   0.914   7.619  1.7748 -0.1244  0.1042
  641TIP3    H223559   2.461   1.061   7.630  1.2285 -0.0550 -2.0631
  642TIP3   OH223560   2.705   4.302   8.570  0.6375  0.1624  0.0001
  642TIP3    H123561   2.630   4.246   8.548  1.0866  0.1103 -1.4779
  642TIP3    H223562   2.694   4.319   8.664 -1.0541 -0.0847 -0.1119
  643TIP3   OH223563   0.546   6.077   7.259  0.2825  0.1082  0.4958
  643TIP3    H123564   0.608   6.117   7.198  0.1946  0.1500  0.4342
  643TIP3    H223565   0.592   6.075   7.343  0.5270 -0.2454  0.3577
  644TIP3   OH223566   0.430   5.954   6.385  0.5100 -0.2645  0.5007
  644TIP3    H123567   0.450   6.044   6.410 -0.3356  0.5359 -1.4702
  644TIP3    H223568   0.463   5.945   6.296 -1.1293 -1.2453 -0.0704
  645TIP3   OH223569   4.923   0.039   7.239  0.4072  0.0172  0.4924
  645TIP3    H123570   4.941   0.132   7.251 -0.6700  0.1956  0.7689
  645TIP3    H223571   4.906   0.031   7.145  0.8113  0.0395  0.4149
  646TIP3   OH223572   2.201   5.424   1.180  0.0910 -0.5885 -0.1832
  646TIP3    H123573   2.120   5.450   1.224  0.5859  0.3921  0.1788
  646TIP3    H223574   2.185   5.334   1.151 -0.5591 -0.9510  1.2440
  647TIP3   OH223575   2.310   4.096   0.057 -0.3304  0.1630  0.5325
  647TIP3    H123576   2.241   4.151   0.019 -1.4159 -0.8801  0.9028
  647TIP3    H223577   2.296   4.010   0.016  0.5461 -0.1442  0.8707
  648TIP3   OH223578   2.824   5.023   7.622  0.1060  0.2898  0.1048
  648TIP3    H123579   2.820   5.106   7.669 -0.3420 -0.3373  1.2047
  648TIP3    H223580   2.847   4.959   7.689 -0.2785 -0.5876 -0.5912
  649TIP3   OH223581   2.995   0.937   0.305  0.5283  0.3019  0.5389
  649TIP3    H123582   3.027   0.866   0.361 -3.1644 -0.8685  1.4815
  649TIP3    H223583   2.995   1.014   0.362 -4.1877 -1.0789  2.9993
  650TIP3   OH223584   6.567   2.079   0.964 -0.6118 -0.6128  0.0810
  650TIP3    H123585   6.620   2.115   0.893  0.6198 -0.5764  0.9707
  650TIP3    H223586   6.619   2.005   0.997 -1.0857 -0.5412  1.0269
  651TIP3   OH223587   4.276   2.821   0.120  0.0404  0.5344  0.0928
  651TIP3    H123588   4.253   2.766   0.046 -0.2825 -0.1854  0.7186
  651TIP3    H223589   4.214   2.796   0.189 -0.8166  2.4139  0.0707
  652TIP3   OH223590   3.632   3.633   7.802  0.8412 -0.0008  0.1956
  652TIP3    H123591   3.587   3.609   7.721  1.6576  0.0454 -0.2799
  652TIP3    H223592   3.673   3.717   7.783  2.5794 -0.8398  0.0146
  653TIP3   OH223593   6.855   6.455   0.069  0.1665  0.0684  0.6584
  653TIP3    H123594   6.782   6.493   0.118 -0.8069 -0.4108 -0.3559
  653TIP3    H223595   6.812   6.402   0.001  1.4387 -2.0919  1.4321
  654TIP3   OH223596   6.055   6.819   8.011  0.2868  0.2433 -0.1378
  654TIP3    H123597   5.995   6.891   7.993 -0.1707 -0.0692  0.1198
  654TIP3    H223598   6.030   6.750   7.949  0.1812  0.0023  0.1694
  655TIP3   OH223599   4.103   4.750   2.561  0.2134  0.4899  0.0062
  655TIP3    H123600   4.142   4.679   2.510 -0.1775 -0.2545  0.7090
  655TIP3    H223601   4.053   4.801   2.497 -1.0187 -0.9562 -0.2555
  656TIP3   OH223602   0.946   0.870   7.779  0.2627 -0.0711  0.4514
  656TIP3    H123603   0.890   0.807   7.735 -1.7535 -0.0662  2.7763
  656TIP3    H223604   0.891   0.948   7.790  0.7983  0.0893  2.4629
  657TIP3   OH223605   1.484   5.862   6.410 -0.4899 -0.8136 -0.3481
  657TIP3    H123606   1.503   5.800   6.340 -0.1194 -0.9068 -0.1634
  657TIP3    H223607   1.542   5.936   6.394 -0.8550 -0.5591 -0.5066
  658TIP3   OH223608   2.979   4.306   7.464 -0.0131 -0.2056 -0.3642
  658TIP3    H123609   3.026   4.230   7.430 -0.1793 -0.5927  0.2579
  658TIP3    H223610   3.023   4.327   7.547  0.3604  0.6988 -0.7698
  659TIP3   OH223611   5.481   5.594   1.010  0.1501 -0.2626  0.3796
  659TIP3    H123612   5.551   5.576   0.947  0.3926 -1.7310  1.0235
  659TIP3    H223613   5.526   5.627   1.088 -0.1869  2.0128 -0.3347
  660TIP3   OH223614   5.502   5.785   2.322  0.4276  0.1957 -0.5235
  660TIP3    H123615   5.417   5.757   2.287  0.4852  0.0647 -0.5589
  660TIP3    H223616   5.547   5.703   2.344  1.0967  0.1951 -1.7999
  661TIP3   OH223617   2.346   4.134   6.583  0.2164  0.0282  0.1269
  661TIP3    H123618   2.284   4.206   6.583  2.3382  1.9691  0.3117
  661TIP3    H223619   2.423   4.168   6.537  1.3904 -2.0470  0.4163
  662TIP3   OH223620   2.205   0.950   0.887  0.4720  0.1147  0.3911
  662TIP3    H123621   2.285   0.902   0.908  0.7576 -0.2452 -1.3323
  662TIP3    H223622   2.229   1.042   0.897  0.6094 -0.0255  1.4527
  663TIP3   OH223623   1.712   5.063   1.358 -0.3218 -0.6538 -0.8896
  663TIP3    H123624   1.621   5.051   1.384  0.2083 -1.3069  0.8242
  663TIP3    H223625   1.754   4.979   1.379  1.0327  0.2268  0.0664
  664TIP3   OH223626   2.965   4.240   8.559 -0.2001  0.0164 -0.2132
  664TIP3    H123627   2.872   4.249   8.577 -0.3200  1.0068 -1.2033
  664TIP3    H223628   2.988   4.320   8.512  1.4744  0.5127  1.3157
  665TIP3   OH223629   6.733   4.029   8.147 -0.3669 -0.2636 -0.6259
  665TIP3    H123630   6.811   4.003   8.198 -0.7584 -2.2446 -0.9437
  665TIP3    H223631   6.768   4.074   8.071  0.4953 -1.1313 -0.7647
  666TIP3   OH223632   0.676   5.726   0.211  0.2200 -0.4143  0.1031
  666TIP3    H123633   0.601   5.743   0.155  0.5216  0.7235  0.0136
  666TIP3    H223634   0.749   5.711   0.149  0.2882 -0.4705  0.1964
  667TIP3   OH223635   2.079   3.260   6.792 -0.8036 -0.0842 -0.5930
  667TIP3    H123636   2.086   3.323   6.864  0.5745 -0.1791 -0.6103
  667TIP3    H223637   1.985   3.254   6.774 -0.9544  2.4264 -1.0123
  668TIP3   OH223638   6.095   4.120   8.234 -0.1933 -0.0774 -0.2150
  668TIP3    H123639   6.176   4.096   8.278  0.7937  2.1897 -0.6850
  668TIP3    H223640   6.112   4.103   8.142  0.4903  2.0921 -0.5467
  669TIP3   OH223641   4.021   4.668   8.508  0.3215  0.4891 -0.1288
  669TIP3    H123642   3.993   4.746   8.557  1.2981 -0.1876  1.6193
  669TIP3    H223643   4.005   4.595   8.568 -3.5966 -1.2326 -2.8482
  670TIP3   OH223644   3.251   2.031   8.830 -0.1234  0.1153 -0.2833
  670TIP3    H123645   3.314   1.963   8.804  0.1811  0.7028 -1.1025
  670TIP3    H223646   3.210   2.058   8.748 -2.4295 -1.1739  0.3574
  671TIP3   OH223647   2.361   3.414   0.460  0.4300 -0.5717 -0.3518
  671TIP3    H123648   2.350   3.452   0.547 -0.8724  1.5728 -1.3659
  671TIP3    H223649   2.455   3.400   0.451  0.5040 -1.7583  1.7171
  672TIP3   OH223650   0.986   4.324   1.727  0.6145  0.9254 -0.2367
  672TIP3    H123651   0.901   4.301   1.689  1.0527 -0.6653 -0.3011
  672TIP3    H223652   0.969   4.328   1.822  0.6982 -0.5155 -0.1474
  673TIP3   OH223653   1.386   6.031   8.395  0.1265 -0.2066  0.0360
  673TIP3    H123654   1.366   6.118   8.359  0.3921  0.5319  1.6041
  673TIP3    H223655   1.301   5.997   8.423  0.1584  0.0347  0.4396
  674TIP3   OH223656   4.941   4.545   8.685  0.2435  0.1470  0.4050
  674TIP3    H123657   4.998   4.560   8.761  0.9718 -2.0291  0.3592
  674TIP3    H223658   5.001   4.517   8.616 -0.8064 -1.9886  0.2916
  675TIP3   OH223659   3.822   3.726   8.328  0.0043  0.1072  1.2814
  675TIP3    H123660   3.889   3.723   8.260 -1.9784  0.6135 -0.8063
  675TIP3    H223661   3.831   3.643   8.374  1.6981 -0.0553  0.7486
  676TIP3   OH223662   6.494   5.928   0.409 -0.2417 -0.0360  0.5373
  676TIP3    H123663   6.522   5.863   0.474 -1.1052 -1.2021 -0.2059
  676TIP3    H223664   6.547   5.908   0.332 -1.3463 -0.6916 -0.0902
  677TIP3   OH223665   1.926   3.536   7.908 -0.1098  0.1145  0.1644
  677TIP3    H123666   1.917   3.450   7.865 -0.0058  0.3447 -0.3218
  677TIP3    H223667   1.901   3.519   7.999 -0.0440 -0.4454  0.0865
  678TIP3   OH223668   5.594   1.748   8.393 -0.1015 -0.5641 -0.1250
  678TIP3    H123669   5.639   1.666   8.409 -1.0777 -1.1837 -0.4524
  678TIP3    H223670   5.663   1.811   8.373  0.6211 -1.4069 -0.2991
  679TIP3   OH223671   3.169   3.586   0.807 -0.1621 -0.0065  0.0545
  679TIP3    H123672   3.182   3.499   0.845  1.0012  0.9941  2.1346
  679TIP3    H223673   3.203   3.579   0.718  2.3246 -1.0718  0.9967
  680TIP3   OH223674   3.638   5.836   1.337  0.0803 -0.0825  0.4002
  680TIP3    H123675   3.706   5.883   1.385 -1.3277  1.0942  1.2948
  680TIP3    H223676   3.655   5.857   1.245  0.6596  0.5542  0.6436
  681TIP3   OH223677   1.484   5.622   1.514 -1.0358 -0.0744 -0.0114
  681TIP3    H123678   1.516   5.671   1.590  0.5514 -1.8566  0.5453
  681TIP3    H223679   1.393   5.650   1.505 -0.4538  2.2824  0.7844
  682TIP3   OH223680   5.705   6.115   7.501  0.7471 -0.0884  0.2139
  682TIP3    H123681   5.800   6.103   7.496  0.5577 -1.1715 -2.3560
  682TIP3    H223682   5.691   6.207   7.481  1.1690 -0.5608 -2.5844
  683TIP3   OH223683   3.372   6.650   8.737  0.5668 -0.2945  0.2238
  683TIP3    H123684   3.438   6.718   8.745  0.4102 -0.0941 -0.1461
  683TIP3    H223685   3.308   6.670   8.806  1.5253 -1.2278  1.4141
  684TIP3   OH223686   4.560   4.489   0.743 -0.1446  0.2261  0.0980
  684TIP3    H123687   4.647   4.471   0.706 -0.0274  1.0959 -0.0923
  684TIP3    H223688   4.576   4.557   0.809 -0.4734 -0.7125  1.1612
  685TIP3   OH223689   2.979   0.607   0.316  0.0309  0.3428  0.3470
  685TIP3    H123690   3.060   0.574   0.354  1.8770  1.4607 -2.3019
  685TIP3    H223691   2.948   0.672   0.380 -0.7859 -2.4342  3.0328
  686TIP3   OH223692   6.208   4.747   8.178 -0.0859  0.6667 -0.4101
  686TIP3    H123693   6.291   4.739   8.131  0.1244 -1.0345  0.1790
  686TIP3    H223694   6.142   4.715   8.116 -0.2511  1.5874 -0.7159
  687TIP3   OH223695   5.848   0.878   8.326 -0.1047  1.1388 -0.0153
  687TIP3    H123696   5.795   0.941   8.278  3.0146  2.1664 -2.4457
  687TIP3    H223697   5.860   0.804   8.266 -1.0603 -0.3793  1.5769
  688TIP3   OH223698   2.082   1.186   6.613  0.6643  0.2659 -0.4894
  688TIP3    H123699   2.038   1.198   6.698  1.0213 -0.1980 -0.2336
  688TIP3    H223700   2.069   1.270   6.568 -1.3368 -0.1716 -0.8392
  689TIP3   OH223701   0.941   3.303   6.856 -0.4778  0.2574 -0.1707
  689TIP3    H123702   0.900   3.373   6.906 -2.0108 -0.7292  0.0109
  689TIP3    H223703   1.033   3.305   6.883 -0.7509  1.4153  0.7307
  690TIP3   OH223704   1.869   3.305   8.499 -0.2959  0.7655  0.1501
  690TIP3    H123705   1.828   3.270   8.419 -0.1258 -0.2736  0.4988
  690TIP3    H223706   1.962   3.306   8.478 -0.1697 -0.2617  0.5925
  691TIP3   OH223707   6.477   0.923   8.549 -0.0471 -0.6515  0.6182
  691TIP3    H123708   6.470   0.992   8.615 -2.6392  0.1952 -0.4143
  691TIP3    H223709   6.517   0.849   8.595 -0.8869  0.2176  2.8560
  692TIP3   OH223710   1.116   1.722   0.609  0.0848  0.0863  0.7157
  692TIP3    H123711   1.131   1.752   0.698 -1.3628  1.2058  0.6174
  692TIP3    H223712   1.022   1.730   0.596 -0.0097 -1.9353 -0.2819
  693TIP3   OH223713   1.094   4.738   8.226 -0.1581  0.1206  0.4145
  693TIP3    H123714   1.124   4.828   8.221 -1.3178  0.5542  1.0123
  693TIP3    H223715   1.132   4.696   8.149  1.1836  0.8600  0.6405
  694TIP3   OH223716   4.481   0.108   8.145  0.2436 -0.2033 -0.5978
  694TIP3    H123717   4.532   0.116   8.064  0.2896  0.8581 -0.4816
  694TIP3    H223718   4.390   0.114   8.116  0.2597  0.1652 -0.5786
  695TIP3   OH223719   5.078   1.623   7.663 -0.2475 -0.2226 -0.0113
  695TIP3    H123720   5.151   1.685   7.656 -0.6601  0.1836 -0.8089
  695TIP3    H223721   5.047   1.633   7.753  1.3716 -1.2053  0.7163
  696TIP3   OH223722   3.667   0.290   1.733  0.3556  0.4776  0.4370
  696TIP3    H123723   3.659   0.280   1.828  1.0289  1.8064  0.6693
  696TIP3    H223724   3.585   0.332   1.706 -0.0689 -0.3998  0.3321
  697TIP3   OH223725   5.824   6.525   7.695  0.7329 -0.2508  0.5126
  697TIP3    H123726   5.807   6.615   7.721  0.5982  0.3971 -1.5799
  697TIP3    H223727   5.837   6.477   7.777  1.3000  1.7631  1.6500
  698TIP3   OH223728   4.372   0.445   7.026 -0.1143  0.0925  0.1723
  698TIP3    H123729   4.403   0.354   7.023  1.4671  0.5852  0.8423
  698TIP3    H223730   4.294   0.441   7.082  0.6130 -0.6812  1.1683
  699TIP3   OH223731   1.086   6.114   1.943 -0.9664  0.7160  0.0794
  699TIP3    H123732   1.103   6.040   1.886 -2.6417  0.9284 -0.7724
  699TIP3    H223733   1.151   6.179   1.918 -0.7290  0.2455 -0.5432
  700TIP3   OH223734   1.386   2.896   8.524 -0.3650  0.6114  0.2100
  700TIP3    H123735   1.466   2.858   8.561 -0.2264  1.4631  0.8146
  700TIP3    H223736   1.393   2.990   8.543  0.0430  1.2473 -2.5363
  701TIP3   OH223737   5.304   3.738   6.914 -0.2981  0.0659 -0.0559
  701TIP3    H123738   5.376   3.685   6.879  0.4559 -0.1448  1.7387
  701TIP3    H223739   5.239   3.739   6.843  0.9764 -0.6784 -1.2840
  702TIP3   OH223740   1.993   6.480   0.202  0.2746 -0.2296 -0.6634
  702TIP3    H123741   1.909   6.465   0.247  0.4068 -1.3476 -0.7583
  702TIP3    H223742   2.053   6.507   0.272 -0.0164 -0.0191 -0.4922
  703TIP3   OH223743   3.090   2.671   1.379  0.5595  0.6885 -0.7182
  703TIP3    H123744   3.087   2.675   1.475  0.1454 -1.0542 -0.6250
  703TIP3    H223745   3.087   2.762   1.351  1.7877  1.2876  0.9469
  704TIP3   OH223746   1.958   4.451   8.736  0.0604 -0.0454 -0.3252
  704TIP3    H123747   1.888   4.516   8.731 -0.7287 -0.9105 -0.7453
  704TIP3    H223748   1.992   4.445   8.647  0.2213 -0.1082 -0.2603
  705TIP3   OH223749   3.897   2.165   8.442  0.2867 -0.5487  0.3804
  705TIP3    H123750   3.962   2.235   8.446  0.1973 -0.4701  0.4635
  705TIP3    H223751   3.823   2.197   8.494  0.6701 -1.1515  1.3240
  706TIP3   OH223752   4.263   5.431   6.919  0.1663 -0.2790 -0.0223
  706TIP3    H123753   4.355   5.428   6.897  0.5683  1.4521  1.1464
  706TIP3    H223754   4.223   5.361   6.868  1.9452 -0.4051 -1.3373
  707TIP3   OH223755   2.881   4.185   7.195  0.0426 -0.0195  0.1207
  707TIP3    H123756   2.966   4.227   7.188  0.2869 -0.5661 -0.2360
  707TIP3    H223757   2.896   4.108   7.250 -0.1088 -0.3883 -0.3391
  708TIP3   OH223758   5.741   0.235   7.016  0.1124 -0.2280 -0.1576
  708TIP3    H123759   5.698   0.285   6.946 -0.9608 -0.0600  0.5997
  708TIP3    H223760   5.669   0.199   7.068  0.8324  1.0242  1.8402
  709TIP3   OH223761   4.461   2.987   0.546 -0.3673  0.0571  0.2412
  709TIP3    H123762   4.441   3.036   0.466 -0.2245  0.8017  0.6574
  709TIP3    H223763   4.536   3.032   0.584  0.5183 -1.1792  0.0370
  710TIP3   OH223764   6.526   0.197   0.879  0.2076 -0.4014  0.1606
  710TIP3    H123765   6.503   0.168   0.790 -0.0372 -0.3816  0.2160
  710TIP3    H223766   6.457   0.259   0.902  0.7123  0.1988  0.0577
  711TIP3   OH223767   2.211   6.447   6.369  0.5234 -0.2546  0.0297
  711TIP3    H123768   2.123   6.456   6.407  0.8282  3.1840  0.2928
  711TIP3    H223769   2.199   6.468   6.277  1.0767  0.6961  0.1571
  712TIP3   OH223770   6.127   2.823   1.714 -0.3949  0.3282  0.0772
  712TIP3    H123771   6.084   2.865   1.639 -0.3709 -0.1435 -0.2007
  712TIP3    H223772   6.137   2.731   1.689 -0.5516  0.1258  0.7341
  713TIP3   OH223773   3.213   6.358   0.973  0.2787 -0.3350 -0.1922
  713TIP3    H123774   3.284   6.384   1.032 -0.0249  1.0490 -0.3850
  713TIP3    H223775   3.228   6.410   0.893  0.4916 -1.9149 -1.2206
  714TIP3   OH223776   1.772   0.709   2.406 -0.2230  0.3887  0.3874
  714TIP3    H123777   1.679   0.717   2.384  0.3263  1.9769 -1.7227
  714TIP3    H223778   1.792   0.790   2.453  0.5628  1.2597 -1.3346
  715TIP3   OH223779   3.131   2.108   8.579 -0.2140  0.3871  0.5117
  715TIP3    H123780   3.090   2.188   8.612 -0.4441  0.6229 -0.3088
  715TIP3    H223781   3.182   2.137   8.504 -1.7370 -0.4664 -0.9118
  716TIP3   OH223782   4.853   4.447   2.140 -0.7111  0.1643  0.5000
  716TIP3    H123783   4.901   4.485   2.214 -0.1047 -1.1544  0.8210
  716TIP3    H223784   4.883   4.356   2.136 -0.0944  0.4031 -1.8998
  717TIP3   OH223785   0.042   5.236   8.400  0.3784 -0.0026  0.7084
  717TIP3    H123786   0.124   5.264   8.360 -0.3178  2.1252  0.6459
  717TIP3    H223787   0.069   5.194   8.482  1.5573  0.1073  0.3962
  718TIP3   OH223788   3.607   0.460   0.606  0.0156  0.0379  0.4780
  718TIP3    H123789   3.529   0.486   0.656 -0.6796 -0.6218 -0.2237
  718TIP3    H223790   3.578   0.464   0.515  0.9197  0.1085  0.1890
  719TIP3   OH223791   2.212   4.007   7.137  0.3822 -0.2626  0.0768
  719TIP3    H123792   2.134   3.953   7.145 -0.0567  0.0321 -1.7697
  719TIP3    H223793   2.278   3.949   7.100  1.0902 -0.5193  1.6542
  720TIP3   OH223794   1.437   0.906   7.426 -0.0752  0.0867  0.1862
  720TIP3    H123795   1.458   0.926   7.335 -2.1878  0.1781 -0.3390
  720TIP3    H223796   1.345   0.879   7.424  0.2261 -1.2941  2.1031
  721TIP3   OH223797   4.686   2.162   7.420 -0.0561 -0.5369  0.3662
  721TIP3    H123798   4.700   2.192   7.330  0.5973 -0.7780  0.3893
  721TIP3    H223799   4.690   2.242   7.473 -0.3582 -0.4058  0.1944
  722TIP3   OH223800   0.933   5.230   8.108  0.1070  0.0840 -0.0253
  722TIP3    H123801   0.871   5.298   8.080 -0.4914  0.5146  2.1857
  722TIP3    H223802   0.958   5.255   8.197  2.6036 -0.7231 -0.4275
  723TIP3   OH223803   1.056   2.319   0.720 -0.8588  0.6131 -0.3463
  723TIP3    H123804   1.038   2.403   0.678 -1.5128  0.4988 -0.3044
  723TIP3    H223805   1.056   2.255   0.648 -3.3554  0.2032 -0.0715
  724TIP3   OH223806   4.974   2.227   1.564  0.0922 -0.0649  0.4004
  724TIP3    H123807   4.924   2.304   1.592 -0.4518 -0.1193 -0.3881
  724TIP3    H223808   4.910   2.173   1.518  1.0382  0.2459 -1.3712
  725TIP3   OH223809   0.362   2.914   6.613  1.0590 -0.0724  0.0637
  725TIP3    H123810   0.427   2.968   6.568  0.3747 -0.5021 -1.4858
  725TIP3    H223811   0.280   2.930   6.567  0.7893 -2.2496 -0.3254
  726TIP3   OH223812   3.239   0.671   8.444 -0.2094 -0.0162  0.3924
  726TIP3    H123813   3.209   0.739   8.504 -1.9982  0.5059 -1.0184
  726TIP3    H223814   3.232   0.710   8.357 -0.7621 -1.8166 -0.4285
  727TIP3   OH223815   3.894   2.791   1.703 -0.2948  0.1453  0.6942
  727TIP3    H123816   3.986   2.766   1.706 -0.4067 -0.1749  1.6056
  727TIP3    H223817   3.893   2.884   1.725 -0.0553  0.5562 -0.8831
  728TIP3   OH223818   2.676   3.846   0.798 -0.0789 -0.1160 -0.3026
  728TIP3    H123819   2.587   3.864   0.828  0.5880  0.8570  1.2015
  728TIP3    H223820   2.705   3.773   0.852  0.5372  0.5528  0.3063
  729TIP3   OH223821   6.719   5.207   6.880 -0.4818  0.0895  0.1016
  729TIP3    H123822   6.678   5.286   6.845 -0.6478 -0.8182 -1.9336
  729TIP3    H223823   6.719   5.146   6.806  1.4224 -1.1333  1.0338
  730TIP3   OH223824   6.472   3.440   2.189 -0.0369  0.2464 -0.3628
  730TIP3    H123825   6.399   3.486   2.228  0.8669  0.7031  0.8372
  730TIP3    H223826   6.431   3.377   2.129 -1.4060  0.3962  0.3714
  731TIP3   OH223827   3.793   1.279   2.272 -0.2298  0.8105  0.8928
  731TIP3    H123828   3.725   1.254   2.209 -0.7741  2.5164  0.7662
  731TIP3    H223829   3.833   1.357   2.234  0.9097  0.6103  1.6323
  732TIP3   OH223830   6.210   2.969   6.724  0.1636 -0.6319  0.1815
  732TIP3    H123831   6.271   2.963   6.651  1.3043  1.1568  0.9135
  732TIP3    H223832   6.222   2.888   6.772 -1.3936 -2.3469 -2.1266
  733TIP3   OH223833   0.887   1.001   7.164  0.6630 -0.5780 -0.1126
  733TIP3    H123834   0.870   0.921   7.215  0.4421  0.2356  1.1529
  733TIP3    H223835   0.831   1.067   7.205  1.8496  0.5480 -0.2425
  734TIP3   OH223836   3.367   5.490   0.333  0.2448  0.2129 -0.1081
  734TIP3    H123837   3.372   5.394   0.326  1.3815  0.2512  0.0597
  734TIP3    H223838   3.292   5.505   0.390 -0.8064 -0.5191 -1.2294
  735TIP3   OH223839   5.114   3.859   8.176 -0.0218 -0.4008 -0.0526
  735TIP3    H123840   5.180   3.817   8.230  0.6217 -0.1330 -0.6174
  735TIP3    H223841   5.112   3.807   8.095 -0.6264 -0.5115  0.0245
  736TIP3   OH223842   5.542   6.715   6.130  0.0062 -0.3983 -0.0731
  736TIP3    H123843   5.506   6.803   6.140 -0.0914 -0.4062 -0.3459
  736TIP3    H223844   5.481   6.659   6.178 -0.3443 -0.4099 -0.5196
  737TIP3   OH223845   5.402   3.875   7.338  0.3401  0.0148 -0.1009
  737TIP3    H123846   5.435   3.953   7.294  0.7132 -0.0962 -0.0251
  737TIP3    H223847   5.338   3.838   7.277 -0.3922  0.7799  0.1757
  738TIP3   OH223848   5.732   2.974   8.369  0.0391 -0.0882 -0.4833
  738TIP3    H123849   5.732   2.879   8.376  0.9487 -0.0969 -0.4520
  738TIP3    H223850   5.824   2.997   8.354  0.0063  0.8491  0.5659
  739TIP3   OH223851   0.077   0.406   8.201 -0.0241 -0.0251  0.5521
  739TIP3    H123852   0.092   0.491   8.159 -0.7242 -0.0063  0.3152
  739TIP3    H223853   0.150   0.396   8.261  0.5811  0.3048 -0.1138
  740TIP3   OH223854   1.746   2.966   8.618 -0.3914 -0.4911 -0.3592
  740TIP3    H123855   1.821   3.016   8.649 -2.3066  2.2833  0.2234
  740TIP3    H223856   1.779   2.876   8.607  2.5698  0.2737  1.2576
  741TIP3   OH223857   2.907   4.809   1.470  0.4621  0.1246  0.4778
  741TIP3    H123858   2.965   4.745   1.429 -0.0952 -1.0029  1.3849
  741TIP3    H223859   2.838   4.823   1.406  1.2189  0.7489 -0.2163
  742TIP3   OH223860   6.734   0.630   8.061  0.2596 -0.0362  0.2793
  742TIP3    H123861   6.753   0.635   8.154 -0.4164 -1.2982  0.5040
  742TIP3    H223862   6.662   0.691   8.048 -0.1544 -0.4148  0.7405
  743TIP3   OH223863   0.570   6.768   0.039  0.0602  0.7238 -0.1484
  743TIP3    H123864   0.582   6.768  -0.056  0.7005 -0.8115 -0.0996
  743TIP3    H223865   0.641   6.713   0.072 -1.4468 -0.6138  1.0261
  744TIP3   OH223866   2.588   6.349   0.315  0.1618 -0.0236  0.3003
  744TIP3    H123867   2.550   6.421   0.366 -1.5095 -1.5754  1.4118
  744TIP3    H223868   2.522   6.331   0.248  2.1187  1.6688 -2.2421
  745TIP3   OH223869   0.721   0.614   1.270 -0.4485  0.8789  0.2533
  745TIP3    H123870   0.701   0.560   1.347 -0.1448 -0.2948 -0.4551
  745TIP3    H223871   0.635   0.639   1.236 -0.6537 -0.2296 -0.1082
  746TIP3   OH223872   2.861   4.259   1.560 -0.2582  0.0229 -0.1047
  746TIP3    H123873   2.860   4.198   1.486  0.2505  0.0959 -0.1820
  746TIP3    H223874   2.771   4.289   1.569 -0.3882 -0.2545 -0.4748
  747TIP3   OH223875   4.812   4.290   1.779 -0.0694  0.5625 -0.2518
  747TIP3    H123876   4.819   4.367   1.722 -2.5126  1.0555  0.0087
  747TIP3    H223877   4.744   4.313   1.843 -0.4158 -1.5576  0.2376
  748TIP3   OH223878   1.010   0.139   8.376  0.0680  0.1417  0.0163
  748TIP3    H123879   1.014   0.183   8.291 -1.6044 -0.9878 -0.7195
  748TIP3    H223880   0.978   0.051   8.355 -0.2984 -0.1930  1.8146
  749TIP3   OH223881   3.606   6.644   7.435 -0.1378  0.1485 -0.7746
  749TIP3    H123882   3.661   6.652   7.514 -0.6917  0.2297 -0.3883
  749TIP3    H223883   3.658   6.593   7.374  0.3201  0.1241 -0.3697
  750TIP3   OH223884   5.335   0.586   0.993 -0.0391 -0.1326  0.1090
  750TIP3    H123885   5.384   0.603   1.073 -0.0318 -0.5072  0.1846
  750TIP3    H223886   5.251   0.552   1.023 -0.7448  1.4475  0.0161
  751TIP3   OH223887   0.153   6.702   1.455 -0.0823 -0.3434 -0.3563
  751TIP3    H123888   0.073   6.699   1.508  0.3243 -1.3284  0.2275
  751TIP3    H223889   0.215   6.751   1.509 -0.4494  0.9694 -1.0713
  752TIP3   OH223890   5.507   3.558   0.321 -0.3720 -0.6485 -0.1869
  752TIP3    H123891   5.525   3.601   0.404  0.8253  1.4233 -1.4287
  752TIP3    H223892   5.559   3.477   0.324 -0.8204 -0.9022  1.2758
  753TIP3   OH223893   6.709   0.926   7.641  0.4853  0.3051 -0.6172
  753TIP3    H123894   6.632   0.875   7.614  0.2727 -1.0325  2.1021
  753TIP3    H223895   6.691   1.015   7.610 -2.1545  0.0140 -0.1958
  754TIP3   OH223896   2.615   6.733   7.751 -0.1063  0.2603  0.0851
  754TIP3    H123897   2.525   6.747   7.779 -0.3459 -1.2472  0.1827
  754TIP3    H223898   2.643   6.817   7.715 -2.2703  0.1843 -2.0222
  755TIP3   OH223899   3.742   0.482   1.575 -0.0495 -0.4395 -0.2417
  755TIP3    H123900   3.740   0.400   1.624 -0.4707  0.5046  1.3944
  755TIP3    H223901   3.827   0.520   1.595  0.3182 -0.6701 -1.3416
  756TIP3   OH223902   1.712   0.490   6.993 -0.1099  0.0349 -0.7941
  756TIP3    H123903   1.631   0.441   6.975  0.8196 -2.0417  0.3376
  756TIP3    H223904   1.782   0.429   6.971  1.1145  0.7407  0.9408
  757TIP3   OH223905   4.378   6.537   6.536 -0.2654  0.2249  0.0510
  757TIP3    H123906   4.407   6.495   6.455 -1.4912  1.1165 -0.8935
  757TIP3    H223907   4.312   6.601   6.507  0.7682  2.0647  1.5179
  758TIP3   OH223908   5.841   5.990   8.694  0.4308  0.3866  0.3616
  758TIP3    H123909   5.834   6.045   8.772 -3.2200  0.1156  0.4098
  758TIP3    H223910   5.881   6.046   8.627 -2.1866  2.8692  0.6992
  759TIP3   OH223911   4.895   3.051   7.499 -0.0959  0.2224  0.3817
  759TIP3    H123912   4.835   2.991   7.543  0.9870  0.1707  1.8701
  759TIP3    H223913   4.849   3.135   7.498 -0.5087  0.0072  0.7865
  760TIP3   OH223914   3.671   2.578   1.952 -0.2622  0.8616  0.7447
  760TIP3    H123915   3.735   2.650   1.960 -2.1184  2.8024 -0.5270
  760TIP3    H223916   3.591   2.613   1.992 -2.0382  0.7207 -2.3374
  761TIP3   OH223917   3.201   3.340   1.512 -0.6492 -0.0891 -0.1785
  761TIP3    H123918   3.207   3.403   1.584 -0.4543 -0.2580 -0.0457
  761TIP3    H223919   3.138   3.274   1.544  0.6955 -1.0695  0.5355
  762TIP3   OH223920   4.751   2.324   7.211 -0.4041 -0.1357 -0.1366
  762TIP3    H123921   4.757   2.398   7.270  0.2546 -0.6349  0.4411
  762TIP3    H223922   4.679   2.345   7.152  1.0046  1.8592 -1.2475
  763TIP3   OH223923   5.924   3.834   1.701  0.9913  0.5805  0.7952
  763TIP3    H123924   5.867   3.801   1.770  0.1743 -0.3494 -0.2955
  763TIP3    H223925   5.995   3.770   1.695  1.0413  0.6397  0.7364
  764TIP3   OH223926   5.977   6.761   8.506 -0.1960  0.6107 -0.1239
  764TIP3    H123927   5.989   6.731   8.596  1.8007 -0.1898 -0.6098
  764TIP3    H223928   6.015   6.848   8.504  5.0310 -1.3357 -1.2931
  765TIP3   OH223929   4.213   4.719   2.014  0.3479 -0.0882 -0.4982
  765TIP3    H123930   4.293   4.688   2.058 -0.3845  0.2445  1.1439
  765TIP3    H223931   4.144   4.708   2.079 -1.1332 -1.1447 -2.1758
  766TIP3   OH223932   4.389   0.437   1.182 -0.0805  0.6757  0.4110
  766TIP3    H123933   4.481   0.416   1.199 -0.1998 -1.1668 -0.9291
  766TIP3    H223934   4.389   0.473   1.093 -0.8271 -0.9607 -0.2848
  767TIP3   OH223935   3.372   2.065   1.865  0.1696 -0.2910 -0.3269
  767TIP3    H123936   3.310   2.023   1.925  1.2185 -0.4356  0.6853
  767TIP3    H223937   3.453   2.073   1.915  1.0018 -0.1521 -1.6435
  768TIP3   OH223938   3.503   4.836   8.716  0.0476 -0.1613 -0.2372
  768TIP3    H123939   3.495   4.770   8.785 -0.7848  0.3724  0.1919
  768TIP3    H223940   3.584   4.813   8.670  1.0698 -0.0407  1.4301
  769TIP3   OH223941   6.250   0.952   1.605  0.5263  0.1681 -0.2310
  769TIP3    H123942   6.297   0.886   1.655  0.9752  1.2425  0.8215
  769TIP3    H223943   6.170   0.908   1.576 -0.2610 -0.2305  2.3397
  770TIP3   OH223944   0.367   4.405   7.385  1.0119  0.1350  0.1212
  770TIP3    H123945   0.293   4.368   7.338  1.0835 -0.4134  0.4302
  770TIP3    H223946   0.383   4.489   7.343 -0.2306  0.5901  0.5023
  771TIP3   OH223947   4.089   3.268   2.090 -0.0960 -0.0122  0.3389
  771TIP3    H123948   4.113   3.182   2.056 -0.3928  0.7634 -2.1072
  771TIP3    H223949   4.050   3.313   2.014  0.8747  2.5716  1.2552
  772TIP3   OH223950   6.330   1.928   6.950 -0.1388 -0.1459 -0.1216
  772TIP3    H123951   6.296   2.006   6.993  0.6969  1.0215 -1.4822
  772TIP3    H223952   6.314   1.943   6.857  0.7074 -1.2618 -0.4723
  773TIP3   OH223953   6.352   3.105   8.802 -0.7950 -0.1102 -0.3053
  773TIP3    H123954   6.382   3.188   8.766  2.7954 -0.7692  0.7911
  773TIP3    H223955   6.364   3.043   8.730  1.3115 -0.4855  0.3135
  774TIP3   OH223956   2.027   3.222   6.483  0.5996 -0.0495 -0.0395
  774TIP3    H123957   1.980   3.235   6.565  0.7692  0.2605  0.0100
  774TIP3    H223958   1.982   3.278   6.421  0.7728  0.0859 -0.0431
  775TIP3   OH223959   6.162   2.517   1.963  0.6783 -0.1396  0.0794
  775TIP3    H123960   6.071   2.530   1.935  0.8054 -0.5293 -0.5539
  775TIP3    H223961   6.160   2.438   2.017  0.4595  0.5152  1.0422
  776TIP3   OH223962   0.990   2.153   7.177 -0.7008  0.8886 -0.3788
  776TIP3    H123963   0.989   2.061   7.204  1.0424  1.4225  1.8734
  776TIP3    H223964   1.021   2.151   7.086 -0.8170 -0.7551 -0.4133
  777TIP3   OH223965   2.128   3.710   6.840  1.2552 -0.0924 -0.3123
  777TIP3    H123966   2.040   3.702   6.803  1.1283 -0.3264  0.0314
  777TIP3    H223967   2.136   3.802   6.865  0.3009 -0.4896  1.6081
  778TIP3   OH223968   2.223   0.841   0.413  0.7328  0.6301  0.5257
  778TIP3    H123969   2.162   0.914   0.416  0.8954  0.9167 -1.7853
  778TIP3    H223970   2.309   0.881   0.397  0.7496 -0.0201 -1.2885
  779TIP3   OH223971   0.212   6.049   7.963  0.2180  0.0953 -1.0786
  779TIP3    H123972   0.158   6.029   8.040  0.3285  2.4495 -0.3125
  779TIP3    H223973   0.299   6.015   7.986 -0.2458 -1.1769 -1.1244
  780TIP3   OH223974   1.365   0.209   1.315 -0.2289  0.2107 -0.4567
  780TIP3    H123975   1.362   0.268   1.240 -1.6429 -0.6665 -1.1146
  780TIP3    H223976   1.275   0.181   1.328 -0.1247  0.7305  1.9212
  781TIP3   OH223977   3.156   3.858   2.429 -0.0596  0.5632 -0.0605
  781TIP3    H123978   3.073   3.812   2.440  1.7612 -2.8751  0.5981
  781TIP3    H223979   3.216   3.792   2.396  2.5281  2.8442 -0.2739
  782TIP3   OH223980   6.211   0.939   1.953  0.1536 -0.1699 -0.4926
  782TIP3    H123981   6.280   0.967   2.012  1.0403 -0.6325 -1.2797
  782TIP3    H223982   6.221   0.844   1.947 -1.8148 -0.5263  0.9184
  783TIP3   OH223983   6.007   6.496   7.236  0.4323  0.1910  0.1146
  783TIP3    H123984   5.936   6.431   7.232  1.8277 -1.4865  1.1314
  783TIP3    H223985   5.981   6.563   7.173 -1.6286 -0.7858 -0.1812
  784TIP3   OH223986   1.381   1.151   7.647  0.9831  0.1626  0.8115
  784TIP3    H123987   1.323   1.189   7.713 -0.9341 -2.5947  0.8793
  784TIP3    H223988   1.335   1.165   7.564  0.0108 -2.1284  0.8749
  785TIP3   OH223989   6.346   2.168   8.757  0.4221  0.0906  0.3280
  785TIP3    H123990   6.353   2.145   8.850  1.5467 -1.2021 -0.0345
  785TIP3    H223991   6.255   2.146   8.734  0.3786 -0.4070  0.9365
  786TIP3   OH223992   2.627   2.227   6.782 -0.6316 -0.3949  0.1493
  786TIP3    H123993   2.653   2.147   6.827  0.8241  0.3230  0.6444
  786TIP3    H223994   2.641   2.297   6.846 -1.4267  0.3244 -0.4260
  787TIP3   OH223995   0.468   5.853   6.638 -0.2167  0.0113 -0.1971
  787TIP3    H123996   0.476   5.882   6.547  0.4024  0.9713  0.1371
  787TIP3    H223997   0.545   5.798   6.653 -0.3831 -0.2467 -0.2856
  788TIP3   OH223998   6.276   0.041   7.730 -0.4229  0.0628 -0.7829
  788TIP3    H123999   6.293   0.093   7.808  0.7339 -1.0029 -0.2977
  788TIP3    H224000   6.319  -0.043   7.746 -0.9335 -0.5112 -2.1871
  789TIP3   OH224001   2.179   5.054   8.527 -0.5875 -0.3086  0.3428
  789TIP3    H124002   2.264   5.009   8.532 -0.1722  0.4429  0.1250
  789TIP3    H224003   2.163   5.064   8.433 -0.8283 -0.2817  0.3863
  790TIP3   OH224004   2.425   3.586   8.353 -0.0841 -0.2952 -0.0822
  790TIP3    H124005   2.330   3.587   8.363  0.0211 -1.4705  1.3136
  790TIP3    H224006   2.439   3.564   8.261 -1.1600 -0.5619 -0.1996
  791TIP3   OH224007   2.322   6.419   0.417 -0.1034  0.3894  0.6180
  791TIP3    H124008   2.321   6.391   0.325  2.8683  0.7821  0.3508
  791TIP3    H224009   2.350   6.340   0.465 -1.8639  0.1209  1.2634
  792TIP3   OH224010   3.458   2.807   8.019  0.9079 -0.4552  0.2497
  792TIP3    H124011   3.415   2.760   8.090 -0.8610  1.0778  0.2701
  792TIP3    H224012   3.430   2.762   7.939  1.6118 -1.2048  0.4148
  793TIP3   OH224013   4.993   6.269   6.378  0.1180  0.0393  0.5093
  793TIP3    H124014   4.966   6.189   6.334  0.4898  0.0788  0.2029
  793TIP3    H224015   5.041   6.319   6.311 -0.0009  0.4598  0.7318
  794TIP3   OH224016   3.882   1.052   2.388 -0.0000  0.1435  0.3278
  794TIP3    H124017   3.846   1.140   2.370 -1.1097  0.1912  2.4574
  794TIP3    H224018   3.975   1.060   2.368  0.1116  2.1212  1.3756
  795TIP3   OH224019   3.353   4.406   2.045 -0.0058  0.1357 -0.1957
  795TIP3    H124020   3.313   4.402   1.958 -1.4795  1.8604  0.3464
  795TIP3    H224021   3.400   4.489   2.046  0.1790  0.0308  0.5872
  796TIP3   OH224022   4.583   6.368   7.899 -0.1071  0.0243 -0.1362
  796TIP3    H124023   4.551   6.280   7.920 -0.3816  0.0137 -0.5832
  796TIP3    H224024   4.536   6.425   7.960 -0.4249 -0.0737 -0.2842
  797TIP3   OH224025   5.411   6.230   2.274  0.2397 -0.2160  0.1934
  797TIP3    H124026   5.413   6.170   2.349 -0.4565  0.7559  1.0122
  797TIP3    H224027   5.340   6.291   2.294 -1.3610 -1.1584 -2.2054
  798TIP3   OH224028   3.239   2.651   7.204 -0.2054  0.6536  0.9604
  798TIP3    H124029   3.308   2.712   7.230 -0.6449  1.6904 -0.1849
  798TIP3    H224030   3.202   2.690   7.125 -0.1618 -1.3704 -0.1311
  799TIP3   OH224031   3.493   6.127   0.991 -0.2892 -0.1844 -0.4693
  799TIP3    H124032   3.430   6.135   0.920 -1.8320  2.1073  1.0326
  799TIP3    H224033   3.513   6.217   1.016  3.7956 -0.7526 -0.9346
  800TIP3   OH224034   4.827   3.227   0.168 -0.2670 -0.0657 -0.3073
  800TIP3    H124035   4.922   3.216   0.171 -0.1415  1.0843  1.2010
  800TIP3    H224036   4.812   3.313   0.207 -1.9351 -0.2417 -0.4957
  801TIP3   OH224037   3.814   5.423   1.921 -0.4058  0.1929 -0.5308
  801TIP3    H124038   3.756   5.481   1.970  2.1480  2.2998  0.2395
  801TIP3    H224039   3.777   5.421   1.833 -1.9921  0.9266  0.0955
  802TIP3   OH224040   4.578   3.219   0.661  0.3005  0.1111  0.4090
  802TIP3    H124041   4.625   3.219   0.578  1.2609 -0.2222  0.9384
  802TIP3    H224042   4.580   3.310   0.690  1.5415 -0.0546  0.9159
  803TIP3   OH224043   3.575   3.439   7.032  0.4263  0.2619  0.0904
  803TIP3    H124044   3.573   3.529   6.999  2.0476  0.1366 -0.4777
  803TIP3    H224045   3.656   3.402   6.995  0.8687 -0.7748  1.9655
  804TIP3   OH224046   4.286   2.367   1.610 -0.2835  0.7169 -0.0787
  804TIP3    H124047   4.381   2.379   1.611 -0.3497  1.2866  1.2143
  804TIP3    H224048   4.270   2.316   1.531  1.1818 -0.1040  0.1032
  805TIP3   OH224049   6.248   5.175   0.565  0.0462 -0.3840  0.7053
  805TIP3    H124050   6.342   5.178   0.550  0.3690 -1.9214  2.0974
  805TIP3    H224051   6.224   5.266   0.584  0.9529  0.2707 -1.0667
  806TIP3   OH224052   0.780   4.771   1.411  0.1337  0.9765  0.3536
  806TIP3    H124053   0.710   4.745   1.351 -0.7607 -0.5149  1.9335
  806TIP3    H224054   0.739   4.836   1.469  0.7126  1.7047 -0.0400
  807TIP3   OH224055   4.411   3.565   2.149  0.5120  0.6372 -0.3234
  807TIP3    H124056   4.378   3.649   2.116  1.0821  0.4345 -1.4447
  807TIP3    H224057   4.486   3.589   2.203  0.6499  0.8558 -0.6090
  808TIP3   OH224058   0.529   2.723   7.937 -0.2165  0.0728  0.2514
  808TIP3    H124059   0.568   2.784   8.000 -0.9484 -0.4578  1.2534
  808TIP3    H224060   0.588   2.647   7.938 -1.2660 -0.7994  1.8904
  809TIP3   OH224061   2.610   5.416   6.898 -0.6455  0.1221 -0.1683
  809TIP3    H124062   2.543   5.479   6.871 -0.7641  0.0580 -0.0227
  809TIP3    H224063   2.666   5.406   6.820 -1.6667 -0.9552 -0.8112
  810TIP3   OH224064   2.055   6.773   1.474 -0.1928 -0.4435  0.6133
  810TIP3    H124065   2.091   6.795   1.388  0.8043  1.8630  1.5257
  810TIP3    H224066   1.964   6.804   1.470 -0.2195 -0.5608  0.2996
  811TIP3   OH224067   0.113   5.441   6.140  0.0847  0.2717  0.1269
  811TIP3    H124068   0.132   5.390   6.061 -0.1262  0.0440  0.2181
  811TIP3    H224069   0.140   5.530   6.119  0.8873  0.0332  0.1283
  812TIP3   OH224070   3.189   1.569   1.970  0.2914 -0.2643 -0.2627
  812TIP3    H124071   3.277   1.606   1.958 -0.2226  0.2054 -3.1715
  812TIP3    H224072   3.137   1.642   2.003  0.2729  0.4842 -1.8405
  813TIP3   OH224073   3.212   0.625   0.889 -0.0251 -0.1989  0.2167
  813TIP3    H124074   3.250   0.538   0.880  1.9699  0.6527 -0.0509
  813TIP3    H224075   3.268   0.669   0.953 -0.6645  1.0766 -0.0645
  814TIP3   OH224076   2.801   3.325   1.654  0.0596  0.4254  0.1460
  814TIP3    H124077   2.877   3.266   1.657  0.2731  0.6178 -0.8683
  814TIP3    H224078   2.830   3.398   1.599 -0.7811  0.6172 -0.0613
  815TIP3   OH224079   6.189   5.657   8.782  0.0017  0.3361 -0.0185
  815TIP3    H124080   6.149   5.716   8.718 -2.2940  0.9159  1.8109
  815TIP3    H224081   6.117   5.630   8.839  1.6833 -1.2097  1.5231
  816TIP3   OH224082   0.124   5.899   8.207 -0.5674  0.0581 -0.0761
  816TIP3    H124083   0.148   5.817   8.251 -2.0926 -0.2805  0.1810
  816TIP3    H224084   0.109   5.961   8.278 -0.1849  0.3441 -0.2420
  817TIP3   OH224085   4.991   4.584   7.007  0.0589 -0.2588 -0.1616
  817TIP3    H124086   5.070   4.582   6.955 -1.0952  0.4504 -2.0307
  817TIP3    H224087   4.988   4.673   7.043 -0.6347  0.2278 -1.3656
  818TIP3   OH224088   3.747   1.829   7.742  0.3377 -0.1285  0.2639
  818TIP3    H124089   3.665   1.780   7.742  0.5048 -0.4487 -1.2764
  818TIP3    H224090   3.748   1.875   7.826 -2.0490  0.9732 -0.2429
  819TIP3   OH224091   1.772   6.402   8.484  0.3333 -0.3557  0.2440
  819TIP3    H124092   1.740   6.344   8.415  1.8702  0.8824 -1.6151
  819TIP3    H224093   1.712   6.476   8.483  0.1866 -0.4737  0.4249
  820TIP3   OH224094   4.789   2.960   7.758  0.0149 -0.2871 -0.5927
  820TIP3    H124095   4.706   2.989   7.721  0.1190 -0.5699 -1.0604
  820TIP3    H224096   4.805   3.019   7.832 -0.0630  0.4649 -1.1671
  821TIP3   OH224097   6.816   4.806   1.005  0.0606  0.0081 -0.3942
  821TIP3    H124098   6.732   4.851   0.997  1.6842  3.7092  1.2276
  821TIP3    H224099   6.821   4.781   1.097  0.0907 -1.7617 -0.8396
  822TIP3   OH224100   0.941   6.131   8.784  0.2034  0.2683  0.4038
  822TIP3    H124101   0.941   6.110   8.877  0.0690 -0.2070  0.3036
  822TIP3    H224102   0.937   6.045   8.741  2.2547  0.3615 -0.0747
  823TIP3   OH224103   4.964   6.780   7.463 -0.1535 -0.5471  0.1037
  823TIP3    H124104   4.930   6.857   7.508 -0.9098 -2.1267  2.4180
  823TIP3    H224105   4.966   6.805   7.371  1.4668  2.8771  0.9065
  824TIP3   OH224106   5.378   0.958   0.633 -0.1339 -0.1556 -0.0364
  824TIP3    H124107   5.371   1.048   0.665  1.0515 -0.8462  2.4687
  824TIP3    H224108   5.319   0.908   0.690 -1.1446 -0.9442 -1.7005
  825TIP3   OH224109   1.492   3.772   8.451 -0.8627  0.2845  0.1709
  825TIP3    H124110   1.487   3.695   8.509  1.3695  0.2055  0.3170
  825TIP3    H224111   1.463   3.739   8.366  1.9218 -1.3205 -0.2625
  826TIP3   OH224112   1.137   2.409   7.524 -0.2196  0.3430 -0.2721
  826TIP3    H124113   1.206   2.475   7.527  1.4368 -1.1891 -2.1992
  826TIP3    H224114   1.144   2.362   7.607  1.6668 -0.3386 -0.7845
  827TIP3   OH224115   4.994   5.562   1.642  0.1116 -0.1161 -0.1513
  827TIP3    H124116   4.954   5.595   1.723  1.4457  0.3551  0.3423
  827TIP3    H224117   4.949   5.611   1.573 -1.2418 -0.7275  0.2625
  828TIP3   OH224118   4.402   3.862   7.294  0.1951  0.3260 -0.5430
  828TIP3    H124119   4.306   3.865   7.288 -0.0488  1.1935  2.3095
  828TIP3    H224120   4.420   3.870   7.388  3.1094  1.0491 -1.0823
  829TIP3   OH224121   4.218   4.181   7.146 -0.6752  0.4434 -0.2599
  829TIP3    H124122   4.211   4.267   7.187  1.1368  0.2317  0.5864
  829TIP3    H224123   4.204   4.119   7.217  0.7973  0.0663 -0.2663
  830TIP3   OH224124   1.560   0.009   1.304  0.0432 -0.0964  0.0370
  830TIP3    H124125   1.539  -0.062   1.243  0.2398 -0.2941  0.2013
  830TIP3    H224126   1.484   0.067   1.299 -1.0495 -1.3378  1.4237
  831TIP3   OH224127   3.785   4.568   7.582  0.4808 -0.1941  0.0632
  831TIP3    H124128   3.869   4.607   7.556  0.3851  0.2713  0.4375
  831TIP3    H224129   3.723   4.601   7.518  0.8392 -1.7786 -1.1648
  832TIP3   OH224130   3.329   6.209   8.583  0.0187  0.7115  0.3310
  832TIP3    H124131   3.309   6.200   8.676 -2.6501  1.2384 -0.1036
  832TIP3    H224132   3.283   6.137   8.541  1.1750  0.4923 -0.6207
  833TIP3   OH224133   5.240   3.651   7.661 -0.0303  0.4494  0.0394
  833TIP3    H124134   5.213   3.680   7.574 -0.5665  1.7449  0.6049
  833TIP3    H224135   5.278   3.564   7.647 -0.5237  0.4406 -1.4086
  834TIP3   OH224136   0.761   3.320   1.051  0.1064 -0.3279 -0.2465
  834TIP3    H124137   0.778   3.287   0.963  0.4935 -0.5950 -0.0716
  834TIP3    H224138   0.769   3.244   1.107  0.4775 -0.0359  0.0969
  835TIP3   OH224139   1.815   0.023   1.391  0.1293 -0.5593 -0.5214
  835TIP3    H124140   1.840   0.098   1.337  0.5595  0.8749  1.5696
  835TIP3    H224141   1.719   0.020   1.386  0.1447 -0.2520 -1.0661
  836TIP3   OH224142   6.385   2.928   7.954  0.0209 -0.4534  0.0384
  836TIP3    H124143   6.406   2.941   7.862  2.8706  1.6517  0.8415
  836TIP3    H224144   6.364   3.015   7.987 -1.1447 -1.1905  1.3694
  837TIP3   OH224145   3.306   4.655   0.901 -0.6401  0.7913 -0.1359
  837TIP3    H124146   3.223   4.656   0.854 -0.3891  0.1804 -0.6127
  837TIP3    H224147   3.319   4.563   0.924  0.3279  0.7322 -0.8500
  838TIP3   OH224148   3.161   1.673   0.909  0.5530 -0.1051  0.1280
  838TIP3    H124149   3.152   1.710   0.997 -2.1836 -0.2596 -0.0037
  838TIP3    H224150   3.255   1.658   0.899  0.9584 -0.1113  3.0260
  839TIP3   OH224151   2.974   2.663   0.075  0.6382 -0.2176  0.0517
  839TIP3    H124152   2.980   2.673  -0.020  3.0850  1.1440  0.2722
  839TIP3    H224153   2.884   2.690   0.096  0.5667  1.1112 -1.7122
  840TIP3   OH224154   2.136   4.817   8.661  0.3643  0.1696 -0.2526
  840TIP3    H124155   2.155   4.906   8.632  0.3801  0.3659  0.3339
  840TIP3    H224156   2.163   4.816   8.753  1.0959 -0.6766 -0.4668
  841TIP3   OH224157   2.560   3.087   7.633  0.6508  0.2567 -0.2468
  841TIP3    H124158   2.545   3.175   7.599 -1.3976  0.4746  1.0568
  841TIP3    H224159   2.542   3.094   7.727 -2.2493 -2.0393 -0.4755
  842TIP3   OH224160   2.243   5.341   7.109 -0.6468 -0.3657  0.1128
  842TIP3    H124161   2.149   5.337   7.091 -0.9532  1.2694  1.1233
  842TIP3    H224162   2.249   5.336   7.205  0.1199  1.4269  0.1988
  843TIP3   OH224163   3.727   1.390   7.451 -0.7178  0.2218 -0.2395
  843TIP3    H124164   3.652   1.403   7.509 -1.1627  2.3423 -1.1776
  843TIP3    H224165   3.707   1.309   7.404 -1.9477  0.2095  0.2593
  844TIP3   OH224166   4.375   6.806   8.455 -0.5467 -0.0195 -0.0936
  844TIP3    H124167   4.331   6.722   8.469 -0.0306 -0.1353  0.8788
  844TIP3    H224168   4.432   6.791   8.379 -0.8119 -0.4056 -0.2182
  845TIP3   OH224169   1.435   3.812   0.854 -0.2531 -0.1597 -0.6250
  845TIP3    H124170   1.450   3.906   0.862 -0.5160 -0.1976  0.5247
  845TIP3    H224171   1.522   3.774   0.846  0.1493 -0.0731  2.3303
  846TIP3   OH224172   0.273   1.935   8.635  0.2339  0.4560 -0.4155
  846TIP3    H124173   0.234   1.899   8.715  1.9997 -1.6334 -0.3904
  846TIP3    H224174   0.202   1.936   8.572 -1.0115  1.4071  0.9230
  847TIP3   OH224175   4.694   3.126   0.430  0.0158 -0.6268 -0.2338
  847TIP3    H124176   4.741   3.178   0.365 -2.3337  1.4171 -0.4373
  847TIP3    H224177   4.669   3.046   0.385  0.9694 -0.5548 -0.9059
  848TIP3   OH224178   5.565   1.347   0.630  0.3294  0.3618 -0.1522
  848TIP3    H124179   5.607   1.422   0.588 -0.2331  1.2999  0.8902
  848TIP3    H224180   5.638   1.292   0.661  0.7627  0.8357 -0.3217
  849TIP3   OH224181   6.577   4.364   7.247 -0.1867  0.3751 -0.2035
  849TIP3    H124182   6.616   4.362   7.335 -0.6975 -0.6387  0.0131
  849TIP3    H224183   6.551   4.455   7.235  0.6052  0.6908  0.3770
  850TIP3   OH224184   5.482   5.537   8.122  0.3755  0.4029  0.0835
  850TIP3    H124185   5.486   5.620   8.169  0.9193  0.8122 -0.6748
  850TIP3    H224186   5.398   5.539   8.076  0.6855  0.8279 -0.4686
  851TIP3   OH224187   2.740   0.905   6.492 -0.0568  0.3296 -0.1906
  851TIP3    H124188   2.747   0.860   6.408  0.9257  1.5523 -0.7944
  851TIP3    H224189   2.766   0.995   6.473 -0.9756  0.9169  1.1894
  852TIP3   OH224190   5.373   3.405   8.301  0.7095 -0.1397  0.0928
  852TIP3    H124191   5.405   3.316   8.319 -0.5112 -0.0625  3.2682
  852TIP3    H224192   5.283   3.392   8.270  0.8599 -0.0059 -0.4179
  853TIP3   OH224193   2.347   4.219   1.421  0.0460  0.0456  0.7711
  853TIP3    H124194   2.272   4.251   1.471 -0.9789 -0.2432 -0.5207
  853TIP3    H224195   2.326   4.240   1.330  0.6135 -1.7901  0.1725
  854TIP3   OH224196   3.612   0.884   6.958 -0.1064  0.2311  0.1190
  854TIP3    H124197   3.517   0.891   6.970 -0.3252 -3.7582  2.7296
  854TIP3    H224198   3.649   0.901   7.045  1.3430 -0.4003 -0.3334
  855TIP3   OH224199   3.374   2.132   8.468  0.0901  0.1338 -0.0298
  855TIP3    H124200   3.319   2.142   8.390 -0.2025 -1.6153 -0.0926
  855TIP3    H224201   3.411   2.044   8.459 -0.2574 -0.2622  1.9788
  856TIP3   OH224202   1.428   2.665   1.883 -0.1248 -0.0431 -0.1784
  856TIP3    H124203   1.367   2.660   1.809  0.0473 -0.2410 -0.3105
  856TIP3    H224204   1.373   2.657   1.960 -0.2878 -0.0147 -0.2912
  857TIP3   OH224205   5.141   2.845   1.856 -0.3020 -0.0991 -0.4318
  857TIP3    H124206   5.173   2.886   1.936 -2.6886  0.9868  0.0495
  857TIP3    H224207   5.141   2.916   1.791 -0.3244 -0.4468 -0.8163
  858TIP3   OH224208   2.020   0.404   6.393  0.6198 -0.0884  0.5773
  858TIP3    H124209   1.991   0.432   6.480 -2.5451  0.8572 -0.6654
  858TIP3    H224210   2.030   0.485   6.344 -0.3608 -0.7108 -0.6993
  859TIP3   OH224211   0.095   1.765   6.905  0.3670 -0.0427  0.0065
  859TIP3    H124212   0.180   1.770   6.862  1.0392  0.1134  1.2927
  859TIP3    H224213   0.053   1.688   6.868  1.8248 -1.1695  0.6125
  860TIP3   OH224214   1.545   5.248   0.138 -0.1629 -0.4470 -0.2784
  860TIP3    H124215   1.503   5.171   0.176 -0.8083  0.1077  0.1586
  860TIP3    H224216   1.517   5.248   0.046  1.4891 -1.8487 -0.8325
  861TIP3   OH224217   0.712   5.301   0.116 -0.2426 -0.3731 -0.7272
  861TIP3    H124218   0.669   5.307   0.031 -1.3823 -0.2633 -0.1563
  861TIP3    H224219   0.782   5.237   0.103 -3.0060 -3.6609 -0.7467
  862TIP3   OH224220   0.589   4.565   7.178  0.0452  0.2087 -0.9083
  862TIP3    H124221   0.526   4.635   7.194  0.1327  0.1888 -0.4795
  862TIP3    H224222   0.651   4.572   7.250 -0.0753 -0.4568 -0.7405
  863TIP3   OH224223   6.853   3.970   1.067  0.1057 -0.6483 -0.0182
  863TIP3    H124224   6.780   3.908   1.062 -0.6719  0.2213  0.0910
  863TIP3    H224225   6.915   3.940   1.001 -0.5570 -1.1569 -0.4227
  864TIP3   OH224226   0.564   2.367   0.660 -0.4073  0.0836 -0.4361
  864TIP3    H124227   0.568   2.293   0.721 -0.8289  0.0500 -0.4397
  864TIP3    H224228   0.475   2.363   0.625 -0.7328  1.1184  0.2251
  865TIP3   OH224229   1.968   0.789   7.537  0.2562  0.4605 -0.7577
  865TIP3    H124230   2.042   0.730   7.523 -0.6381 -0.9914  0.3361
  865TIP3    H224231   1.976   0.816   7.628 -1.4207 -1.0617 -0.0884
  866TIP3   OH224232   3.908   1.344   8.372 -0.4115 -0.3340  0.0127
  866TIP3    H124233   3.906   1.326   8.278 -1.2263 -1.6668  0.2641
  866TIP3    H224234   3.935   1.435   8.378 -1.6856  0.1859 -1.5647
  867TIP3   OH224235   3.291   4.156   6.889  0.1980 -0.0893  0.4623
  867TIP3    H124236   3.276   4.177   6.982 -0.3277 -0.5125  0.4782
  867TIP3    H224237   3.261   4.235   6.842  0.1749  0.0062  0.6358
  868TIP3   OH224238   4.092   3.755   1.126 -0.0372  0.4270  0.0426
  868TIP3    H124239   4.127   3.793   1.045 -1.6492  0.5140 -0.6654
  868TIP3    H224240   4.007   3.718   1.100  0.1910 -1.1156  1.3305
  869TIP3   OH224241   6.749   2.077   0.682 -0.2986 -0.0665 -0.5403
  869TIP3    H124242   6.671   2.106   0.634  1.0930  2.5671 -1.3910
  869TIP3    H224243   6.785   2.157   0.719  2.6771 -0.9926 -1.1850
  870TIP3   OH224244   4.016   5.749   1.725 -0.4381  0.3815 -0.8282
  870TIP3    H124245   3.947   5.689   1.755  0.7672 -0.1685  1.0071
  870TIP3    H224246   4.023   5.815   1.793  0.7924  0.4658 -1.0034
  871TIP3   OH224247   1.631   3.685   2.243  0.3623  0.1814 -0.2241
  871TIP3    H124248   1.550   3.731   2.219  0.1517 -0.6273 -1.1049
  871TIP3    H224249   1.608   3.638   2.324  0.5036  1.3788  0.5364
  872TIP3   OH224250   1.884   1.550   0.759  0.0244  0.5428 -0.1822
  872TIP3    H124251   1.879   1.518   0.670  2.3751  0.2535 -0.2574
  872TIP3    H224252   1.895   1.472   0.813 -0.9550  0.7485  0.3642
  873TIP3   OH224253   2.590   6.425   0.702 -0.2870 -0.0233 -0.7085
  873TIP3    H124254   2.611   6.487   0.632  1.3534 -0.3466 -0.5630
  873TIP3    H224255   2.675   6.385   0.723 -1.3086 -2.5659 -1.0450
  874TIP3   OH224256   6.782   2.641   0.388  0.0399 -0.2561  0.0783
  874TIP3    H124257   6.775   2.737   0.394 -1.5500 -0.3093 -0.4098
  874TIP3    H224258   6.808   2.625   0.297  3.9212 -0.2254  0.9834
  875TIP3   OH224259   4.011   4.494   0.786  0.4296 -0.5432  0.4784
  875TIP3    H124260   3.973   4.580   0.799 -0.3983 -0.5373 -1.5665
  875TIP3    H224261   4.106   4.510   0.781  0.1724  0.7790 -2.6646
  876TIP3   OH224262   2.601   3.978   7.825  0.3316 -0.5638  0.3175
  876TIP3    H124263   2.647   4.050   7.869  1.2396 -0.5593 -0.5880
  876TIP3    H224264   2.592   4.007   7.734 -1.3956 -0.6253  0.4482
  877TIP3   OH224265   5.708   1.631   0.850 -0.2011 -0.5174 -0.0848
  877TIP3    H124266   5.776   1.660   0.791  1.7057  1.2757  2.7794
  877TIP3    H224267   5.630   1.680   0.823  0.4772 -0.0825 -1.3352
  878TIP3   OH224268   5.450   5.777   8.246  0.1394  0.2026  0.4004
  878TIP3    H124269   5.411   5.859   8.216 -0.8454 -0.6053 -0.6464
  878TIP3    H224270   5.438   5.777   8.341 -0.1795  1.0945  0.3679
  879TIP3   OH224271   4.605   0.100   1.297  0.2951  0.1925 -0.4339
  879TIP3    H124272   4.593   0.141   1.383  0.8487  2.3323 -1.3266
  879TIP3    H224273   4.647   0.016   1.317 -1.9004 -0.5477  1.5385
  880TIP3   OH224274   2.510   1.605   7.656 -0.0466  0.5902 -0.1972
  880TIP3    H124275   2.507   1.664   7.732 -2.0053  0.2745  0.0137
  880TIP3    H224276   2.537   1.661   7.583  0.7059  1.1472  0.4916
  881TIP3   OH224277   6.394   2.503   8.339  0.4089 -0.1936  0.2774
  881TIP3    H124278   6.356   2.490   8.252  0.1974 -0.7829  0.4483
  881TIP3    H224279   6.323   2.541   8.391  0.6191  0.4134  0.1242
  882TIP3   OH224280   2.399   2.579   1.248 -0.3303  0.1566  0.0721
  882TIP3    H124281   2.453   2.510   1.289  1.1801  0.9579 -0.4986
  882TIP3    H224282   2.396   2.649   1.314 -0.5066  0.2012  0.0171
  883TIP3   OH224283   2.098   6.432   1.197  0.1273 -0.1867  0.2403
  883TIP3    H124284   2.016   6.398   1.160  0.6202 -1.5121  0.3309
  883TIP3    H224285   2.160   6.360   1.189  1.3195  0.8185  0.1190
  884TIP3   OH224286   4.618   2.255   7.692 -0.7007 -0.0050  0.1800
  884TIP3    H124287   4.568   2.332   7.718  0.3430  0.2403  1.6283
  884TIP3    H224288   4.706   2.288   7.676 -0.3047 -0.8567  0.5582
  885TIP3   OH224289   2.985   3.090   6.394 -0.0288 -0.1699 -0.6894
  885TIP3    H124290   3.039   3.015   6.370 -0.0109 -0.5172  0.4228
  885TIP3    H224291   3.034   3.165   6.360 -0.8230 -0.7043 -3.2535
  886TIP3   OH224292   1.031   2.877   7.382 -0.6222 -0.2418  0.5015
  886TIP3    H124293   1.074   2.800   7.343  0.5700  0.7930 -0.3274
  886TIP3    H224294   1.002   2.928   7.306 -2.9664 -0.6538  1.0348
  887TIP3   OH224295   2.622   6.474   1.577  0.3563  0.7004 -0.0553
  887TIP3    H124296   2.591   6.442   1.492 -0.2469  0.6682  0.1747
  887TIP3    H224297   2.705   6.519   1.556 -0.2148  1.4421 -0.7961
  888TIP3   OH224298   6.637   3.667   7.517 -0.2576 -0.1111  0.2433
  888TIP3    H124299   6.573   3.737   7.508 -0.9740 -0.7450  0.2876
  888TIP3    H224300   6.692   3.694   7.590  0.9132  1.4812 -1.1352
  889TIP3   OH224301   0.693   5.474   8.164 -0.5387 -0.3522  0.4135
  889TIP3    H124302   0.681   5.386   8.130 -0.3514 -0.7291  1.2952
  889TIP3    H224303   0.607   5.515   8.155 -0.8533 -0.9158  0.8122
  890TIP3   OH224304   0.342   0.983   0.448  0.2403 -0.0112  0.7701
  890TIP3    H124305   0.288   0.973   0.369 -0.5696  3.7515  0.6318
  890TIP3    H224306   0.431   0.964   0.418 -0.5631 -3.9207  0.3940
  891TIP3   OH224307   2.721   0.189   6.428 -0.2699 -0.7931  0.2376
  891TIP3    H124308   2.701   0.160   6.339  0.6746 -0.2080 -0.1766
  891TIP3    H224309   2.753   0.278   6.418 -0.3337 -0.6536  1.1909
  892TIP3   OH224310   0.238   0.144   1.421  0.0467 -0.2335 -0.6615
  892TIP3    H124311   0.311   0.147   1.482 -0.2773  0.6987 -0.3135
  892TIP3    H224312   0.161   0.126   1.475 -0.4170  1.7445 -0.6128
  893TIP3   OH224313   0.780   6.513   1.056 -0.0212 -0.1541  0.8594
  893TIP3    H124314   0.798   6.424   1.026 -2.9742 -1.1831  1.7683
  893TIP3    H224315   0.711   6.544   0.998  1.7249  2.0844 -0.1676
  894TIP3   OH224316   5.823   6.419   8.240  0.1389  0.4119  0.1765
  894TIP3    H124317   5.914   6.394   8.226 -0.0045 -1.0052  1.4431
  894TIP3    H224318   5.774   6.336   8.236 -1.3736  1.3171 -2.2059
  895TIP3   OH224319   2.392   0.062   1.843 -0.1716  0.7799  0.1197
  895TIP3    H124320   2.301   0.058   1.816  0.0149  0.7193 -0.5276
  895TIP3    H224321   2.392   0.033   1.934 -0.5290 -1.2442 -0.4884
  896TIP3   OH224322   0.821   6.219   1.003  0.2794  0.4760 -0.0983
  896TIP3    H124323   0.864   6.198   1.085 -0.1660 -1.1552 -0.2466
  896TIP3    H224324   0.739   6.170   1.006  0.5496 -0.1511 -1.7759
  897TIP3   OH224325   2.284   3.408   1.108 -0.1489  0.1335  0.1412
  897TIP3    H124326   2.254   3.495   1.082  0.9628 -0.1236 -2.3243
  897TIP3    H224327   2.222   3.348   1.065  0.8066 -0.3097 -0.6472
  898TIP3   OH224328   1.489   6.592   1.197 -0.6950 -0.4139  0.0725
  898TIP3    H124329   1.578   6.600   1.231 -0.9764 -0.0514  0.7401
  898TIP3    H224330   1.498   6.539   1.118  0.1454 -0.1652 -0.0030
  899TIP3   OH224331   2.338   2.249   6.826 -0.4792  0.2792  0.2203
  899TIP3    H124332   2.364   2.157   6.833  1.8173  0.8530  0.1600
  899TIP3    H224333   2.329   2.264   6.731 -0.6239  0.1754  0.2179
  900TIP3   OH224334   4.908   0.522   0.065  0.1015  0.4760 -0.5056
  900TIP3    H124335   4.997   0.549   0.088 -0.3059  1.3239  0.1309
  900TIP3    H224336   4.898   0.435   0.104 -0.4683  1.7391  2.4354
  901TIP3   OH224337   0.442   5.287   0.177 -0.0382  0.2444 -0.0410
  901TIP3    H124338   0.524   5.248   0.207 -1.9166 -2.0735  2.5822
  901TIP3    H224339   0.382   5.279   0.251 -2.3104  3.1633 -1.3111
  902TIP3   OH224340   5.415   0.201   7.395  0.1223 -0.4887 -0.3833
  902TIP3    H124341   5.328   0.236   7.415  0.3268  0.1297 -0.5517
  902TIP3    H224342   5.422   0.122   7.449  0.9354  1.4653  2.5355
  903TIP3   OH224343   0.926   3.158   8.289  0.4043  0.1021 -0.4219
  903TIP3    H124344   0.932   3.083   8.230  3.0770 -0.4041  0.3894
  903TIP3    H224345   1.009   3.160   8.335 -1.6579  0.1527  3.7567
  904TIP3   OH224346   0.845   5.403   7.563  0.5875 -0.4487 -0.6191
  904TIP3    H124347   0.830   5.481   7.618  0.4308 -0.7480 -0.2311
  904TIP3    H224348   0.760   5.387   7.522  0.6610 -0.3246 -0.8201
  905TIP3   OH224349   3.560   1.174   1.588 -0.3556  0.5918 -0.8664
  905TIP3    H124350   3.591   1.168   1.679 -1.1174 -2.2768 -0.7201
  905TIP3    H224351   3.560   1.268   1.570  0.8057  1.1978  1.7420
  906TIP3   OH224352   2.728   4.417   7.051 -0.4758  0.5675 -0.2463
  906TIP3    H124353   2.658   4.353   7.065 -0.4830  0.6760  0.1975
  906TIP3    H224354   2.786   4.406   7.125  0.5113 -0.2030 -1.0979
  907TIP3   OH224355   0.234   5.352   8.205 -0.0900 -0.0843 -0.6972
  907TIP3    H124356   0.145   5.362   8.171 -0.2254 -2.1378 -1.0631
  907TIP3    H224357   0.271   5.440   8.201 -2.1180  0.8475 -0.4385
  908TIP3   OH224358   4.906   0.788   8.282 -0.4685  0.1317 -0.2528
  908TIP3    H124359   4.826   0.756   8.322 -0.9733 -1.4290 -2.3876
  908TIP3    H224360   4.959   0.819   8.356 -1.5025 -2.2109  1.5682
  909TIP3   OH224361   5.478   6.069   8.205  0.4441 -0.6915 -0.1274
  909TIP3    H124362   5.475   6.128   8.281  1.9242  0.1272 -0.6697
  909TIP3    H224363   5.417   6.108   8.142 -1.5585 -1.9140  0.9599
  910TIP3   OH224364   0.356   4.314   7.632 -0.0245  0.0793 -0.1135
  910TIP3    H124365   0.372   4.323   7.538  1.3855 -1.5987 -0.0901
  910TIP3    H224366   0.365   4.402   7.667 -1.8667  0.9582 -1.6997
  911TIP3   OH224367   0.063   1.012   1.443 -0.0820  0.0397  0.3511
  911TIP3    H124368   0.149   1.048   1.423  0.3711 -0.0623  2.0010
  911TIP3    H224369   0.040   1.050   1.528 -1.0170 -1.0510  0.6079
  912TIP3   OH224370   2.079   0.201   1.372  0.0736  0.1254  0.0329
  912TIP3    H124371   2.077   0.286   1.417  0.0987 -0.3199  0.9031
  912TIP3    H224372   2.128   0.217   1.292  2.1281  0.4376  1.2705
  913TIP3   OH224373   5.535   6.439   8.431  0.2564 -0.0162  0.3992
  913TIP3    H124374   5.518   6.470   8.342  1.9141 -0.5966 -0.1512
  913TIP3    H224375   5.493   6.353   8.436 -0.3108  0.2536  0.3810
  914TIP3   OH224376   0.393   0.151   0.945  0.3179 -0.1115 -0.0198
  914TIP3    H124377   0.322   0.203   0.983  0.0385  0.0738 -0.7808
  914TIP3    H224378   0.396   0.072   0.999  1.0349  0.8688  1.4189
  915TIP3   OH224379   5.972   0.773   8.708 -0.6215 -0.0579  0.2775
  915TIP3    H124380   5.986   0.865   8.730 -1.3663  0.4294 -1.1787
  915TIP3    H224381   5.891   0.772   8.658 -0.0622 -1.3645 -0.6585
  916TIP3   OH224382   1.387   5.512   1.785  0.0551 -0.3231 -0.5183
  916TIP3    H124383   1.374   5.418   1.771  1.0226 -0.5354 -0.0660
  916TIP3    H224384   1.313   5.553   1.741 -0.7248 -1.3334 -0.1852
  917TIP3   OH224385   1.322   6.380   7.662 -0.3459  0.2845  0.6777
  917TIP3    H124386   1.316   6.289   7.691 -0.6646  0.2590  0.5393
  917TIP3    H224387   1.392   6.379   7.596 -0.9242 -0.0301  0.0545
  918TIP3   OH224388   1.778   2.934   0.520 -0.1517  0.3338 -0.1960
  918TIP3    H124389   1.702   2.918   0.576  0.3101  1.1924  0.7122
  918TIP3    H224390   1.754   3.011   0.468  0.5285  1.3967  0.9911
  919TIP3   OH224391   4.370   4.152   2.121 -0.5716  0.1276  0.1397
  919TIP3    H124392   4.283   4.116   2.103  0.1838 -1.2420 -1.0101
  919TIP3    H224393   4.372   4.234   2.071 -0.4162 -0.9856 -1.7908
  920TIP3   OH224394   3.214   0.165   1.899 -0.8735 -0.3654  0.1954
  920TIP3    H124395   3.119   0.158   1.889 -0.8831 -1.7221  0.9317
  920TIP3    H224396   3.241   0.077   1.924  0.8623 -0.5436 -2.0315
  921TIP3   OH224397   5.679   0.912   0.741 -0.2975 -0.7274 -0.3064
  921TIP3    H124398   5.623   0.943   0.670  0.7220  0.7194 -0.5142
  921TIP3    H224399   5.618   0.890   0.811 -1.1443  1.6505 -0.2043
  922TIP3   OH224400   4.938   0.075   7.934  0.0183 -0.2206 -0.0243
  922TIP3    H124401   4.922   0.013   8.005  1.9710  0.4328  1.0804
  922TIP3    H224402   4.851   0.100   7.904 -1.0398  0.9500  3.4989
  923TIP3   OH224403   2.377   6.581   0.855 -0.6444 -0.0405  0.4691
  923TIP3    H124404   2.449   6.559   0.796 -0.1822  0.7222  0.7359
  923TIP3    H224405   2.416   6.638   0.921 -1.4732  0.3130  0.6710
  924TIP3   OH224406   0.283   2.913   1.132 -0.2052  0.5372 -0.4565
  924TIP3    H124407   0.243   2.963   1.203  1.1829  1.7863 -0.5171
  924TIP3    H224408   0.368   2.954   1.117 -0.2603  0.0352 -2.5437
  925TIP3   OH224409   3.074   2.570   7.388  0.3987 -0.2366  0.3245
  925TIP3    H124410   3.127   2.619   7.451 -0.5980 -0.0615  1.0471
  925TIP3    H224411   3.119   2.581   7.305  1.2994  0.2043  0.8545
  926TIP3   OH224412   3.687   5.187   6.420  0.4538 -0.3742  0.3904
  926TIP3    H124413   3.709   5.104   6.461  2.8983  0.3267  0.6555
  926TIP3    H224414   3.703   5.253   6.487  0.4087  0.4422 -0.3720
  927TIP3   OH224415   1.679   5.386   7.569 -1.0292 -0.3941  0.2346
  927TIP3    H124416   1.599   5.339   7.593 -1.2007 -0.4257 -0.3939
  927TIP3    H224417   1.709   5.345   7.489  0.3894 -1.2770  1.1804
  928TIP3   OH224418   5.089   2.860   0.302  0.1281 -0.0497 -1.1535
  928TIP3    H124419   5.139   2.942   0.307  0.0487  0.2897 -4.3083
  928TIP3    H224420   5.155   2.792   0.289  0.0591 -0.3080 -0.2657
  929TIP3   OH224421   2.960   4.239   2.669  0.3203  0.3199 -0.0100
  929TIP3    H124422   3.055   4.234   2.658  0.3135 -0.5745  0.3041
  929TIP3    H224423   2.926   4.168   2.614  0.1204 -2.5020  3.3861
  930TIP3   OH224424   6.739   6.681   0.688  0.2369  0.4285 -0.1114
  930TIP3    H124425   6.687   6.645   0.761  0.0126 -0.0134 -0.4857
  930TIP3    H224426   6.685   6.752   0.654  1.0452  1.7152  1.1587
  931TIP3   OH224427   0.259   2.268   0.625  0.1569  0.5563  0.8572
  931TIP3    H124428   0.243   2.303   0.712 -0.3687  0.1286  0.9400
  931TIP3    H224429   0.269   2.174   0.638  2.6276  0.7493  0.7830
  932TIP3   OH224430   6.063   6.483   6.740 -0.0199 -0.1051  0.3394
  932TIP3    H124431   6.015   6.516   6.663 -1.1208 -3.4265 -0.5693
  932TIP3    H224432   6.136   6.434   6.703  1.0318  0.4688  1.5741
  933TIP3   OH224433   3.031   5.017   2.329 -0.1597  0.5285  0.1562
  933TIP3    H124434   2.996   5.079   2.264  2.0229  0.5760 -1.0598
  933TIP3    H224435   2.965   4.947   2.332 -0.6037  0.8024 -1.7173
  934TIP3   OH224436   0.372   6.297   7.837 -0.0332 -0.6179 -0.1066
  934TIP3    H124437   0.330   6.293   7.923 -0.1916 -0.6776 -0.1866
  934TIP3    H224438   0.351   6.214   7.796  1.0104 -1.0785  0.2431
  935TIP3   OH224439   0.057   6.804   0.412  0.1463  0.0532  0.1382
  935TIP3    H124440   0.076   6.713   0.436  0.4008 -0.2521 -1.1501
  935TIP3    H224441   0.137   6.852   0.435 -0.6963  0.3635  2.7014
  936TIP3   OH224442   1.477   5.998   1.115  0.0299  0.2497 -0.4209
  936TIP3    H124443   1.431   6.039   1.041 -0.8094  3.2204  1.5842
  936TIP3    H224444   1.569   5.998   1.089 -0.1977  1.6118 -1.3419
  937TIP3   OH224445   3.307   2.865   7.495 -0.2331 -0.1540  0.2585
  937TIP3    H124446   3.387   2.826   7.459  0.6956  0.4076  1.6393
  937TIP3    H224447   3.277   2.801   7.559  0.6202  0.7983  1.6583
  938TIP3   OH224448   3.291   2.304   6.213 -0.3202  1.1155  0.2767
  938TIP3    H124449   3.354   2.232   6.219  1.3329  2.5527  0.9497
  938TIP3    H224450   3.238   2.297   6.292  0.9263  1.5806  1.1758
  939TIP3   OH224451   2.026   1.600   8.747 -0.2227  0.7926 -0.0916
  939TIP3    H124452   1.951   1.540   8.754 -0.1261  0.3192 -2.4119
  939TIP3    H224453   1.999   1.677   8.796 -1.2999 -0.2255  1.0021
  940TIP3   OH224454   6.423   0.905   0.674 -0.1368 -0.4127 -0.4667
  940TIP3    H124455   6.382   0.860   0.600 -0.7681 -1.6414  0.5864
  940TIP3    H224456   6.363   0.890   0.747  1.9361 -1.9050  1.0557
  941TIP3   OH224457   1.501   4.094   0.245 -0.2754 -0.3596  0.2924
  941TIP3    H124458   1.454   4.022   0.202 -1.7565  0.9339 -0.3779
  941TIP3    H224459   1.494   4.167   0.183  3.0516 -0.1496 -0.0492
  942TIP3   OH224460   3.335   4.541   1.190  0.1625  0.1280 -0.2881
  942TIP3    H124461   3.303   4.613   1.244  2.5455  2.4642 -1.7056
  942TIP3    H224462   3.416   4.513   1.233 -1.3963 -2.7857  0.9893
  943TIP3   OH224463   0.826   0.731   1.538 -0.5237  0.5530 -0.3261
  943TIP3    H124464   0.798   0.641   1.553 -1.8076  1.0717  0.4960
  943TIP3    H224465   0.777   0.760   1.461 -0.5401  0.7231 -0.2541
  944TIP3   OH224466   0.708   0.408   6.938 -0.2709 -0.0034 -0.2175
  944TIP3    H124467   0.754   0.400   6.854 -0.8360 -0.7424 -0.4647
  944TIP3    H224468   0.666   0.494   6.933 -0.6250 -0.2034 -0.8594
  945TIP3   OH224469   2.066   1.834   6.852  0.8687  0.0103  0.1215
  945TIP3    H124470   2.063   1.857   6.759  1.1416  0.0746  0.1294
  945TIP3    H224471   2.093   1.742   6.853  0.2659 -0.1736  0.1118
  946TIP3   OH224472   6.774   5.511   6.303 -0.0309 -0.1877  0.9826
  946TIP3    H124473   6.754   5.605   6.300 -1.9856 -0.5668  0.6183
  946TIP3    H224474   6.847   5.500   6.242 -2.2342  0.6112 -2.0183
  947TIP3   OH224475   0.196   6.227   7.490  0.8926 -0.2836  0.3279
  947TIP3    H124476   0.184   6.318   7.519 -0.6271 -0.2625 -0.3003
  947TIP3    H224477   0.160   6.174   7.561 -1.1460 -0.2797 -0.6460
  948TIP3   OH224478   4.920   4.943   8.079  0.1622 -0.7618  0.1729
  948TIP3    H124479   4.870   4.882   8.024  1.2324  0.3756 -2.1896
  948TIP3    H224480   4.852   4.992   8.127 -0.9493 -0.5323 -1.5440
  949TIP3   OH224481   0.973   2.562   2.382 -0.0404 -0.1456  0.4716
  949TIP3    H124482   0.942   2.471   2.382  2.7245 -1.2205  2.0868
  949TIP3    H224483   1.016   2.572   2.298  0.3142 -0.6109  0.5910
  950TIP3   OH224484   2.753   6.519   7.630 -0.0500 -0.2973 -0.3084
  950TIP3    H124485   2.842   6.533   7.663 -0.0563 -2.1599  0.6156
  950TIP3    H224486   2.697   6.573   7.688  0.2444 -1.1422  0.7967
  951TIP3   OH224487   0.609   0.947   7.012 -0.0525 -0.3778 -0.2193
  951TIP3    H124488   0.604   0.910   7.099 -0.0034  0.6953  0.2563
  951TIP3    H224489   0.528   0.999   7.003  1.0661  1.5183  0.1613
  952TIP3   OH224490   6.546   2.829   0.620  0.2143  0.1016  0.8096
  952TIP3    H124491   6.505   2.915   0.631 -1.2955 -0.7469  2.3134
  952TIP3    H224492   6.600   2.817   0.698  1.0124 -0.0237  0.2474
  953TIP3   OH224493   1.045   5.193   6.385  0.8964  0.4705  0.0172
  953TIP3    H124494   1.080   5.252   6.452  0.9706 -1.0988  1.3985
  953TIP3    H224495   1.007   5.252   6.320 -1.2747  2.0588  2.5329
  954TIP3   OH224496   0.540   6.069   8.486 -0.1834  0.3800  0.4846
  954TIP3    H124497   0.508   6.140   8.430 -0.5463  0.8257  1.2467
  954TIP3    H224498   0.606   6.109   8.541 -1.1474  0.4126  1.6675
  955TIP3   OH224499   1.837   0.845   0.658 -0.1094  0.4358  0.0749
  955TIP3    H124500   1.899   0.772   0.646 -0.1218  0.3608  0.4565
  955TIP3    H224501   1.795   0.826   0.742 -2.2243 -0.6797 -1.1564
  956TIP3   OH224502   5.548   4.944   0.053 -0.3974 -0.1174 -0.6804
  956TIP3    H124503   5.572   4.932  -0.039 -1.5309 -1.8000 -0.8048
  956TIP3    H224504   5.495   4.867   0.074  0.9562 -0.4621  1.7873
  957TIP3   OH224505   2.224   0.995   8.567  0.4880 -0.1258 -0.0441
  957TIP3    H124506   2.157   1.063   8.558  1.1704  0.5858  0.2238
  957TIP3    H224507   2.260   0.985   8.478  1.9987  1.5428  0.3314
  958TIP3   OH224508   1.874   0.910   7.308 -0.2020  0.0304  0.2977
  958TIP3    H124509   1.910   0.883   7.393  0.0580  0.4266  0.3201
  958TIP3    H224510   1.841   0.830   7.268  2.3885 -0.7029 -0.5400
  959TIP3   OH224511   5.740   4.582   0.553  0.0336  0.5580  0.4247
  959TIP3    H124512   5.829   4.553   0.572 -0.3389 -0.2824  0.9414
  959TIP3    H224513   5.748   4.676   0.540  1.1445  0.3740 -0.4514
  960TIP3   OH224514   3.891   1.126   0.069  0.1985  0.5823 -0.3632
  960TIP3    H124515   3.843   1.117  -0.013 -0.2240  0.1476 -0.0769
  960TIP3    H224516   3.854   1.205   0.110  0.2295  0.6551 -0.4769
  961TIP3   OH224517   0.807   6.781   7.566  0.3947 -0.3372 -0.2792
  961TIP3    H124518   0.730   6.832   7.542 -1.6248 -2.4194  1.2525
  961TIP3    H224519   0.813   6.790   7.661  0.1489 -2.5490  0.0188
  962TIP3   OH224520   3.954   0.452   7.392 -0.0722  0.2676  0.0697
  962TIP3    H124521   3.951   0.357   7.382  0.2593  0.4372 -2.2909
  962TIP3    H224522   3.870   0.483   7.359  0.4995  0.8687 -0.8749
  963TIP3   OH224523   2.029   2.240   0.116 -0.2100  0.4437 -0.2663
  963TIP3    H124524   1.965   2.182   0.074 -1.3326  1.0360  0.5771
  963TIP3    H224525   2.001   2.245   0.207  2.4350 -1.1631  0.7443
  964TIP3   OH224526   0.946   1.080   5.897 -0.3681 -0.0947  0.6231
  964TIP3    H124527   0.974   1.130   5.974 -1.4956  2.7751 -0.6621
  964TIP3    H224528   0.852   1.064   5.911 -0.1661 -1.3233  0.6927
  965TIP3   OH224529   0.203   5.530   0.175 -0.4901  0.2019  0.4924
  965TIP3    H124530   0.218   5.568   0.089 -0.2432 -0.7050  0.1190
  965TIP3    H224531   0.289   5.500   0.204 -0.6802 -0.1061  0.7552
  966TIP3   OH224532   3.507   5.335   8.571  0.5761  0.0822 -0.1844
  966TIP3    H124533   3.425   5.371   8.606 -0.1511 -1.3819 -0.2977
  966TIP3    H224534   3.560   5.412   8.550  1.2885  1.1544  4.4347
  967TIP3   OH224535   0.017   3.687   1.479 -0.2252  0.4609 -0.0428
  967TIP3    H124536   0.049   3.735   1.556  0.5760 -0.7775  0.4300
  967TIP3    H224537   0.002   3.755   1.414  1.1463  1.3469  0.5081
  968TIP3   OH224538   3.585   3.483   8.031  0.5750  0.3201  0.6246
  968TIP3    H124539   3.520   3.424   7.994  1.1206 -0.7265  1.3015
  968TIP3    H224540   3.612   3.538   7.958  0.8019 -0.9374 -0.2549
  969TIP3   OH224541   6.047   3.030   0.677 -0.6378 -0.5468 -0.4438
  969TIP3    H124542   6.061   2.941   0.644  0.3523  0.0570 -1.7407
  969TIP3    H224543   6.007   3.077   0.604  0.5918  0.5450 -0.4622
  970TIP3   OH224544   3.819   4.369   1.554 -0.1424  0.6862  0.3351
  970TIP3    H124545   3.769   4.439   1.596 -1.3146  0.7464 -1.0728
  970TIP3    H224546   3.911   4.390   1.573 -0.5654  1.3715  1.7631
  971TIP3   OH224547   6.192   0.179   0.730 -0.4442  0.1300 -0.2782
  971TIP3    H124548   6.168   0.087   0.717 -2.0711  0.4737  0.0398
  971TIP3    H224549   6.113   0.228   0.706  0.9870  1.6064 -2.3020
  972TIP3   OH224550   4.858   6.832   1.898 -0.2133 -0.9247  0.1570
  972TIP3    H124551   4.913   6.897   1.943  0.6961 -1.7179  0.2066
  972TIP3    H224552   4.913   6.754   1.891 -0.7703 -1.2102 -1.2652
  973TIP3   OH224553   1.118   4.350   6.826 -0.2064 -0.5631  0.3996
  973TIP3    H124554   1.110   4.443   6.803  0.8602 -0.7920 -1.0273
  973TIP3    H224555   1.028   4.321   6.838 -0.5791  0.5520  0.4143
  974TIP3   OH224556   3.440   0.991   8.323  0.1075 -0.3937 -0.1135
  974TIP3    H124557   3.446   0.930   8.250 -1.1194  0.3119 -0.8248
  974TIP3    H224558   3.369   1.051   8.300  0.9576  1.0254  0.7796
  975TIP3   OH224559   6.730   3.475   7.344 -0.3778 -0.0752 -0.0304
  975TIP3    H124560   6.707   3.533   7.416  0.2053  0.6384 -0.4159
  975TIP3    H224561   6.685   3.512   7.268 -0.6641 -0.5988 -0.1275
  976TIP3   OH224562   1.739   6.767   6.699  0.2763  0.4293  0.7155
  976TIP3    H124563   1.806   6.829   6.668  0.2368  0.5517  0.8716
  976TIP3    H224564   1.750   6.690   6.643 -0.4556  1.0255 -0.2754
  977TIP3   OH224565   5.104   4.596   1.329 -0.0999  0.0535 -0.0761
  977TIP3    H124566   5.026   4.576   1.277 -0.5566 -1.6760  1.1703
  977TIP3    H224567   5.178   4.573   1.273 -0.3244  3.2444 -1.8993
  978TIP3   OH224568   2.714   1.959   6.884  0.1998 -0.2755  0.4692
  978TIP3    H124569   2.769   1.984   6.957 -0.3339  2.7016 -0.0248
  978TIP3    H224570   2.775   1.941   6.812  0.6311  0.5182  0.6236
  979TIP3   OH224571   4.873   3.913   7.961  0.0249 -0.0285  0.2467
  979TIP3    H124572   4.843   3.828   7.930 -0.7525  0.5734 -0.6991
  979TIP3    H224573   4.809   3.938   8.027  0.5198 -0.3776  0.8702
  980TIP3   OH224574   1.399   0.769   7.924  0.5591  0.4360  0.0356
  980TIP3    H124575   1.375   0.749   8.014 -0.1669  1.3766  0.0709
  980TIP3    H224576   1.490   0.740   7.916  0.6986  0.5412  1.1259
  981TIP3   OH224577   3.641   4.465   7.896 -0.4590  0.3408 -0.6692
  981TIP3    H124578   3.597   4.388   7.933  0.9843  0.0557  0.5599
  981TIP3    H224579   3.592   4.540   7.931 -1.8308  0.0261 -1.8218
  982TIP3   OH224580   2.914   1.617   8.524  0.6684 -0.1957  0.2627
  982TIP3    H124581   2.975   1.564   8.474 -0.3330 -0.8991 -0.2408
  982TIP3    H224582   2.960   1.700   8.538  1.4288 -0.4274 -0.7662
  983TIP3   OH224583   3.490   1.961   7.199 -0.1788  0.0063 -0.3523
  983TIP3    H124584   3.401   1.962   7.233 -0.6472 -1.8499 -1.3777
  983TIP3    H224585   3.487   2.015   7.120 -0.2517  0.4200 -0.0650
  984TIP3   OH224586   0.529   3.825   7.922 -0.2679 -0.8022 -1.1422
  984TIP3    H124587   0.622   3.848   7.923 -0.5561  0.3933 -0.3344
  984TIP3    H224588   0.515   3.782   8.006 -1.1060  1.9291  0.2120
  985TIP3   OH224589   3.957   5.284   7.923 -0.0191  0.5142 -0.0482
  985TIP3    H124590   4.001   5.218   7.870  0.4474  0.3039  0.5969
  985TIP3    H224591   3.945   5.358   7.863 -0.9831 -0.3117 -0.9167
  986TIP3   OH224592   6.768   2.894   0.019  0.1812 -0.2222  0.0616
  986TIP3    H124593   6.719   2.947   0.082  0.3051  0.4963 -0.4389
  986TIP3    H224594   6.705   2.873  -0.049 -0.8894 -3.6769  1.8606
  987TIP3   OH224595   2.420   5.948   6.421 -0.4425  0.4810  0.5315
  987TIP3    H124596   2.342   6.002   6.409 -0.0590  0.7316 -1.0817
  987TIP3    H224597   2.407   5.874   6.362  1.1210  1.2090 -0.8008
  988TIP3   OH224598   4.671   6.388   6.446 -0.3789  0.5274  0.3105
  988TIP3    H124599   4.692   6.343   6.528 -0.4359 -1.7633 -0.8490
  988TIP3    H224600   4.743   6.450   6.433  0.3259 -0.0303  1.4352
  989TIP3   OH224601   3.908   4.896   0.560  0.1326 -0.5027 -0.2208
  989TIP3    H124602   3.997   4.880   0.528  0.8629 -0.3780  1.6515
  989TIP3    H224603   3.905   4.853   0.645 -1.1660  0.6410  0.3362
  990TIP3   OH224604   0.349   3.041   7.294  0.0983 -0.1167 -0.5764
  990TIP3    H124605   0.434   2.996   7.286  1.9894  3.1795 -0.9476
  990TIP3    H224606   0.334   3.046   7.389  0.1544 -0.9437 -0.5147
  991TIP3   OH224607   4.448   6.144   7.454  0.2464 -0.0123  0.3024
  991TIP3    H124608   4.398   6.093   7.390 -0.3329  2.0220 -0.9856
  991TIP3    H224609   4.539   6.118   7.441 -0.1721 -1.8260  0.8071
  992TIP3   OH224610   1.828   6.340   0.640  1.1445 -0.1060 -0.2783
  992TIP3    H124611   1.745   6.324   0.685 -0.0300  2.1740 -1.4281
  992TIP3    H224612   1.862   6.253   0.620 -1.3080 -1.1377 -0.3457
  993TIP3   OH224613   6.450   0.054   0.605  0.0805 -0.1568 -0.1520
  993TIP3    H124614   6.412   0.013   0.528  0.8469  0.7030 -1.0065
  993TIP3    H224615   6.455   0.147   0.583  1.3055 -0.0525  0.5024
  994TIP3   OH224616   3.474   1.130   0.732 -0.0664  0.6309 -0.1316
  994TIP3    H124617   3.547   1.163   0.680 -0.2110  0.4214 -0.4661
  994TIP3    H224618   3.475   1.184   0.811  0.6999  0.3586  0.0520
  995TIP3   OH224619   1.141   2.758   1.052 -0.5407 -0.1723  0.1862
  995TIP3    H124620   1.181   2.713   1.126  0.9880 -1.5778 -1.4381
  995TIP3    H224621   1.092   2.830   1.093  1.9192  0.3892  2.4253
  996TIP3   OH224622   6.690   0.581   7.405  0.0387 -0.4487 -0.0701
  996TIP3    H124623   6.603   0.564   7.371  0.1896 -1.0408 -0.1779
  996TIP3    H224624   6.676   0.605   7.497 -0.5762  3.4899 -1.0495
  997TIP3   OH224625   4.254   3.239   7.315 -0.4825 -0.3487 -0.6812
  997TIP3    H124626   4.273   3.147   7.293  0.1254 -0.0637 -1.3910
  997TIP3    H224627   4.258   3.285   7.231  1.8205  0.7576 -0.0694
  998TIP3   OH224628   2.502   2.870   8.306 -0.6999 -0.2394  0.1243
  998TIP3    H124629   2.459   2.947   8.343 -0.3893 -0.3248  0.6715
  998TIP3    H224630   2.595   2.883   8.323 -0.2405  0.8629 -2.7402
  999TIP3   OH224631   6.658   0.522   6.361 -0.1949  0.0402  0.3376
  999TIP3    H124632   6.687   0.433   6.384  0.6867  0.1937 -0.1314
  999TIP3    H224633   6.689   0.534   6.271  0.4826  1.1456  0.6981
 1000TIP3   OH224634   2.806   0.450   1.215 -0.5227 -0.5673  0.5048
 1000TIP3    H124635   2.843   0.461   1.127  1.1948  1.1819  1.3700
 1000TIP3    H224636   2.860   0.382   1.255 -1.3721 -1.4390  0.2185
 1001TIP3   OH224637   6.493   4.336   6.969  0.3275 -0.2938  0.2762
 1001TIP3    H124638   6.526   4.330   7.058  0.5612  1.6272  0.3598
 1001TIP3    H224639   6.511   4.426   6.943 -1.5677 -0.2247 -0.9806
 1002TIP3   OH224640   5.015   2.882   1.472  0.0973  0.0340  0.2331
 1002TIP3    H124641   5.045   2.949   1.534 -2.8046  1.2915  0.4284
 1002TIP3    H224642   4.985   2.810   1.527 -0.3156  0.1713  0.1885
 1003TIP3   OH224643   0.868   4.269   6.844  0.1933 -0.3521  0.2789
 1003TIP3    H124644   0.795   4.290   6.785  1.2437 -2.8356 -2.1482
 1003TIP3    H224645   0.846   4.184   6.881  1.0256 -0.2979  0.9314
 1004TIP3   OH224646   6.413   6.095   0.653  0.4620 -0.3234  0.8620
 1004TIP3    H124647   6.421   6.087   0.557 -0.5898 -1.4600  0.8520
 1004TIP3    H224648   6.489   6.147   0.678  0.1008  1.0786 -0.7298
 1005TIP3   OH224649   2.760   0.067   7.152 -0.1985  0.2433  0.4748
 1005TIP3    H124650   2.777   0.052   7.059  0.3987 -0.2718  0.6588
 1005TIP3    H224651   2.675   0.111   7.154  0.6647  2.0962 -0.4483
 1006TIP3   OH224652   2.981   4.175   8.254  0.6328 -0.0705  0.2678
 1006TIP3    H124653   2.953   4.237   8.186 -0.6736  0.2622  1.0876
 1006TIP3    H224654   3.050   4.221   8.302 -0.4204  0.8075  0.9539
 1007TIP3   OH224655   2.857   0.514   1.533  0.1404  0.4345  0.3071
 1007TIP3    H124656   2.764   0.502   1.511 -0.0735 -0.2579  1.5111
 1007TIP3    H224657   2.863   0.489   1.625  1.7269 -0.6449 -0.0560
 1008TIP3   OH224658   0.061   2.140   8.828  0.6366 -0.5814 -0.2482
 1008TIP3    H124659   0.064   2.167   8.736 -1.4824 -0.9311 -0.4661
 1008TIP3    H224660  -0.032   2.143   8.850  1.1721  0.2825  2.1389
 1009TIP3   OH224661   6.456   2.997   7.061 -0.1807  0.1210 -0.2658
 1009TIP3    H124662   6.548   2.973   7.076 -0.4153 -1.3895 -0.9582
 1009TIP3    H224663   6.418   2.919   7.019 -2.7292 -0.7998  3.3193
 1010TIP3   OH224664   3.335   6.663   7.342  0.0709 -0.2052  0.4627
 1010TIP3    H124665   3.426   6.657   7.373 -0.1739 -1.5576  0.9955
 1010TIP3    H224666   3.335   6.620   7.257 -0.2105 -0.8796  0.7996
 1011TIP3   OH224667   5.433   0.221   8.265 -0.1338 -0.2964 -0.4146
 1011TIP3    H124668   5.442   0.147   8.205  0.6672 -0.5762  0.0424
 1011TIP3    H224669   5.497   0.205   8.334  0.1776  0.9024 -0.3917
 1012TIP3   OH224670   2.615   3.123   2.203  0.4785  0.6016  0.0328
 1012TIP3    H124671   2.565   3.049   2.236  1.3322  0.7616  1.7527
 1012TIP3    H224672   2.569   3.200   2.237  0.1058  0.8642 -1.0180
 1013TIP3   OH224673   4.238   0.620   7.366 -0.2170  0.4955  0.4830
 1013TIP3    H124674   4.230   0.658   7.453  1.8789  0.8087  0.5805
 1013TIP3    H224675   4.186   0.540   7.370 -2.1017  1.6786  1.2523
 1014TIP3   OH224676   4.828   2.537   8.057  0.3356  0.2229 -0.3756
 1014TIP3    H124677   4.796   2.598   7.990  0.2692  1.9142  1.1203
 1014TIP3    H224678   4.923   2.535   8.043  0.2982  0.3792 -0.6688
 1015TIP3   OH224679   2.453   0.899   0.964 -0.2846  0.2360  0.3258
 1015TIP3    H124680   2.414   0.925   1.047  1.5754  0.3416  1.2185
 1015TIP3    H224681   2.537   0.946   0.961  0.9324 -1.8267 -0.3248
 1016TIP3   OH224682   2.416   1.633   1.883  0.3556 -0.2623 -0.5343
 1016TIP3    H124683   2.379   1.682   1.956 -0.3155 -2.4442  0.6876
 1016TIP3    H224684   2.371   1.667   1.806 -0.2230  0.8641  0.2680
 1017TIP3   OH224685   0.517   6.714   1.055 -0.2250 -0.7489  0.4401
 1017TIP3    H124686   0.573   6.739   0.982 -0.8739 -1.0803 -0.1893
 1017TIP3    H224687   0.519   6.790   1.114  0.8488 -0.7557  0.4243
 1018TIP3   OH224688   0.219   0.189   0.534 -0.2610  0.5340 -0.3962
 1018TIP3    H124689   0.289   0.213   0.474 -0.6433  2.4628 -0.1488
 1018TIP3    H224690   0.204   0.269   0.585 -0.8648 -0.6368  1.3358
 1019TIP3   OH224691   5.918   0.960   7.307 -0.4172 -0.0618  0.3739
 1019TIP3    H124692   5.867   1.031   7.269 -0.6888 -1.4291 -2.0034
 1019TIP3    H224693   6.007   0.994   7.312 -0.9088  1.1441  1.2827
 1020TIP3   OH224694   2.709   6.012   0.786  0.1470  0.1238 -0.0732
 1020TIP3    H124695   2.732   6.093   0.740  0.7468  0.1582  0.2647
 1020TIP3    H224696   2.614   6.011   0.789  0.1325  0.6590 -0.3630
 1021TIP3   OH224697   4.933   0.420   7.177 -0.0127 -0.3951 -0.3318
 1021TIP3    H124698   4.856   0.434   7.122 -0.3899 -1.4280 -0.0913
 1021TIP3    H224699   4.984   0.501   7.168 -0.9737  0.1857 -0.7292
 1022TIP3   OH224700   5.666   6.820   1.363 -0.3885 -0.4070 -0.3215
 1022TIP3    H124701   5.683   6.815   1.458  0.1699  1.0719 -0.3115
 1022TIP3    H224702   5.750   6.798   1.323 -1.0132 -2.5724 -0.5500
 1023TIP3   OH224703   6.212   5.067   0.158  0.1843  0.4625 -0.3006
 1023TIP3    H124704   6.286   5.125   0.176  1.8384 -1.5068 -0.3370
 1023TIP3    H224705   6.190   5.084   0.067  0.0298  1.6394 -0.0599
 1024TIP3   OH224706   1.637   2.017   1.194  0.6372  0.5396 -0.6481
 1024TIP3    H124707   1.644   1.931   1.235 -1.0208 -0.7020 -2.7840
 1024TIP3    H224708   1.727   2.050   1.192  1.6045 -1.9346 -1.3633
 1025TIP3   OH224709   3.717   5.205   8.334 -0.3331 -0.5378  1.1227
 1025TIP3    H124710   3.774   5.136   8.298 -0.5961 -0.9355  1.4678
 1025TIP3    H224711   3.640   5.158   8.365 -0.4788 -0.0916  1.4314
 1026TIP3   OH224712   0.197   5.923   1.003  0.5186 -0.3197  0.6474
 1026TIP3    H124713   0.172   6.016   0.997  3.3758  0.5599  0.7159
 1026TIP3    H224714   0.171   5.887   0.918 -0.4073  0.5869  0.5120
 1027TIP3   OH224715   2.015   2.665   8.657  0.6494 -0.2093 -0.9151
 1027TIP3    H124716   2.071   2.692   8.583  1.4709 -1.1011 -0.6439
 1027TIP3    H224717   1.997   2.572   8.640 -1.5076  0.2634 -1.4490
 1028TIP3   OH224718   2.213   2.694   2.261  0.5241  0.6278  0.0850
 1028TIP3    H124719   2.182   2.655   2.179  0.7045  2.9273 -1.1553
 1028TIP3    H224720   2.149   2.667   2.326 -0.8782  0.5357 -1.2812
 1029TIP3   OH224721   4.421   0.638   0.982  0.3314  0.0440 -0.1493
 1029TIP3    H124722   4.332   0.663   0.959 -0.4999  0.0619  2.6547
 1029TIP3    H224723   4.451   0.706   1.042  1.6121 -0.7862  0.2140
 1030TIP3   OH224724   5.223   4.507   6.724 -0.6691 -0.2541 -0.3472
 1030TIP3    H124725   5.275   4.588   6.727 -1.4620  0.2601 -0.0431
 1030TIP3    H224726   5.191   4.502   6.634 -0.0217 -0.6285 -0.5640
 1031TIP3   OH224727   6.834   0.190   7.579  0.0852 -0.6551 -0.1882
 1031TIP3    H124728   6.770   0.257   7.603 -0.8301 -0.9174 -1.7011
 1031TIP3    H224729   6.781   0.113   7.560  0.9803 -1.2868 -0.1839
 1032TIP3   OH224730   2.262   5.886   7.526  0.4734  0.1659 -0.1130
 1032TIP3    H124731   2.167   5.872   7.527  0.4191  0.1570 -1.7148
 1032TIP3    H224732   2.275   5.954   7.460  1.7098 -1.2426 -1.4026
 1033TIP3   OH224733   2.023   1.887   6.568  0.4151 -0.1933 -0.1388
 1033TIP3    H124734   2.000   1.966   6.520 -2.0768 -1.3079 -0.9320
 1033TIP3    H224735   2.040   1.822   6.500  1.6240 -0.5844  0.5122
 1034TIP3   OH224736   1.356   5.811   7.009  0.7139 -0.0532  0.1863
 1034TIP3    H124737   1.332   5.728   7.051  2.4488 -1.8321 -2.0286
 1034TIP3    H224738   1.274   5.842   6.969  0.2607 -1.3530  0.0552
 1035TIP3   OH224739   2.036   1.341   0.882  0.6563 -0.1932  0.3792
 1035TIP3    H124740   2.123   1.306   0.898  1.9387  0.6964 -3.5267
 1035TIP3    H224741   1.986   1.267   0.846  0.9045  0.0355 -0.4764
 1036TIP3   OH224742   3.519   2.297   2.070  0.0014 -0.3881  0.5111
 1036TIP3    H124743   3.573   2.352   2.128  1.6132 -2.5815  1.2251
 1036TIP3    H224744   3.574   2.221   2.051 -2.2738 -1.9979 -0.0748
 1037TIP3   OH224745   1.326   4.983   6.941 -0.0104 -0.2436 -0.3836
 1037TIP3    H124746   1.365   5.069   6.926 -0.9185  0.7194  2.1547
 1037TIP3    H224747   1.387   4.939   7.001 -1.6627  0.5042  2.0078
 1038TIP3   OH224748   1.720   4.672   6.472 -0.0891 -0.2605  0.0296
 1038TIP3    H124749   1.726   4.653   6.565  0.6351 -0.5447 -0.0712
 1038TIP3    H224750   1.735   4.766   6.465  0.4088 -0.3315  0.1467
 1039TIP3   OH224751   2.353   1.152   7.521 -0.3981 -0.3907 -0.0561
 1039TIP3    H124752   2.426   1.208   7.493 -0.6005 -0.3412 -0.5007
 1039TIP3    H224753   2.342   1.089   7.449 -0.2252 -0.9528  0.4061
 1040TIP3   OH224754   3.205   5.243   1.265 -0.2634 -0.6280  0.2607
 1040TIP3    H124755   3.284   5.189   1.271 -1.0164 -1.7397  0.5390
 1040TIP3    H224756   3.219   5.299   1.189  0.5092 -1.2805 -0.0899
 1041TIP3   OH224757   1.562   4.936   7.961  0.2152  0.2026  0.0074
 1041TIP3    H124758   1.606   5.018   7.937  1.1595 -0.6159 -1.2100
 1041TIP3    H224759   1.628   4.888   8.011 -0.3122  0.1334  0.6573
 1042TIP3   OH224760   2.310   6.013   1.639 -0.1410  0.0174  0.3542
 1042TIP3    H124761   2.390   6.043   1.681 -0.9222  0.2773  1.7091
 1042TIP3    H224762   2.240   6.040   1.698 -1.1533 -1.1884 -0.2468
 1043TIP3   OH224763   3.578   0.049   8.052  0.0224 -0.3871 -0.2854
 1043TIP3    H124764   3.603   0.112   7.984  2.4365  1.1583  1.8063
 1043TIP3    H224765   3.492   0.078   8.081  0.2002  0.6812 -0.7761
 1044TIP3   OH224766   5.467   5.126   8.330  0.2359  0.4652 -0.1794
 1044TIP3    H124767   5.491   5.041   8.294 -1.6969  0.2479 -1.0481
 1044TIP3    H224768   5.477   5.187   8.257  0.8210  0.8566  0.2190
 1045TIP3   OH224769   2.831   0.308   2.177  0.2395  0.5170  0.2510
 1045TIP3    H124770   2.751   0.325   2.127 -1.2291  0.4230  2.4659
 1045TIP3    H224771   2.835   0.212   2.185  2.0953  0.2977 -2.0952
 1046TIP3   OH224772   3.071   4.924   0.558 -0.3718 -0.4854 -0.3449
 1046TIP3    H124773   3.079   4.829   0.559 -0.3316 -0.4851 -0.5172
 1046TIP3    H224774   3.053   4.945   0.467 -1.1295 -0.3862 -0.1756
 1047TIP3   OH224775   5.441   4.278   8.584 -0.4378 -0.1402 -0.0520
 1047TIP3    H124776   5.398   4.240   8.507  0.6259 -1.3013 -0.1129
 1047TIP3    H224777   5.499   4.208   8.615  1.5472  1.4174 -0.1122
 1048TIP3   OH224778   5.178   1.254   8.795 -0.1720  0.1481  0.3344
 1048TIP3    H124779   5.256   1.251   8.851  2.4830 -3.2614 -3.0259
 1048TIP3    H224780   5.104   1.243   8.855  2.1571 -0.0377  3.3794
 1049TIP3   OH224781   4.573   0.082   1.017  0.0312  0.3554  0.4449
 1049TIP3    H124782   4.548  -0.009   1.001  1.2986  0.0966 -0.2104
 1049TIP3    H224783   4.572   0.091   1.112 -1.0733 -0.0436  0.4807
 1050TIP3   OH224784   1.666   5.756   1.643 -0.1404  0.2645  0.0872
 1050TIP3    H124785   1.744   5.737   1.591  1.7835  1.2428  2.4697
 1050TIP3    H224786   1.666   5.851   1.654 -1.8031  0.3110  0.0241
 1051TIP3   OH224787   6.821   6.036   0.367  0.1286  0.2449 -0.2563
 1051TIP3    H124788   6.865   5.951   0.376  0.4932  0.3679 -0.7978
 1051TIP3    H224789   6.886   6.092   0.325  0.1908  1.0440  0.8498
 1052TIP3   OH224790   5.912   4.063   7.615  0.2827  0.1720 -0.3656
 1052TIP3    H124791   5.881   4.027   7.533 -2.4205  1.1474  0.1224
 1052TIP3    H224792   5.838   4.053   7.675  1.6080  0.9296  1.4865
 1053TIP3   OH224793   4.164   3.181   0.265 -0.3902  0.3471  0.1916
 1053TIP3    H124794   4.150   3.210   0.175 -1.6854 -1.0744 -0.1099
 1053TIP3    H224795   4.250   3.138   0.264 -1.5515 -2.1490 -1.1040
 1054TIP3   OH224796   5.729   3.947   8.257 -0.0255  0.1560  0.1103
 1054TIP3    H124797   5.638   3.939   8.226  0.0768 -1.2920  0.0837
 1054TIP3    H224798   5.782   3.946   8.178  0.0958 -1.0516  0.1750
 1055TIP3   OH224799   4.497   5.895   7.758 -0.7794  0.2084  0.6180
 1055TIP3    H124800   4.578   5.923   7.715 -0.2358 -1.7914  0.2068
 1055TIP3    H224801   4.527   5.840   7.831 -1.7225 -1.6700 -0.3302
 1056TIP3   OH224802   4.799   1.311   8.534 -0.8142 -0.3314 -0.2719
 1056TIP3    H124803   4.736   1.308   8.606 -2.2258 -0.7090 -1.4686
 1056TIP3    H224804   4.827   1.403   8.530 -0.6493 -0.3251  0.7851
 1057TIP3   OH224805   4.519   1.412   1.665 -0.4197  0.6626 -0.0836
 1057TIP3    H124806   4.568   1.455   1.736 -1.9915 -1.3133  2.4013
 1057TIP3    H224807   4.434   1.456   1.664 -0.6475  0.2221 -0.2625
 1058TIP3   OH224808   2.747   1.451   8.358 -0.1443 -0.0638  0.4511
 1058TIP3    H124809   2.840   1.436   8.376 -0.2114 -3.3728 -1.1550
 1058TIP3    H224810   2.702   1.384   8.409 -1.5569  0.6501  0.1904
 1059TIP3   OH224811   4.120   5.699   6.964  0.5466  0.7030 -0.6235
 1059TIP3    H124812   4.031   5.719   6.936  0.1156  0.6837  0.6951
 1059TIP3    H224813   4.135   5.609   6.934 -0.2390  0.3568 -0.0134
 1060TIP3   OH224814   2.792   5.105   1.361 -0.4470 -0.3850  0.1965
 1060TIP3    H124815   2.876   5.135   1.395 -0.3914 -1.0484  0.6731
 1060TIP3    H224816   2.737   5.184   1.359  0.4612  0.2373 -1.0203
 1061TIP3   OH224817   1.913   1.482   2.491  0.6043 -0.1174 -0.3414
 1061TIP3    H124818   1.872   1.436   2.417 -0.9923  0.0093  0.4297
 1061TIP3    H224819   1.970   1.416   2.532 -2.3325 -1.8287  1.3132
 1062TIP3   OH224820   5.650   3.922   8.588 -0.4642  0.5661  0.7413
 1062TIP3    H124821   5.728   3.941   8.640  0.9586  0.4282 -1.1997
 1062TIP3    H224822   5.665   3.833   8.554 -1.4637  0.5407  0.3321
 1063TIP3   OH224823   2.508   3.274   7.063 -0.0333 -0.1879  0.7559
 1063TIP3    H124824   2.431   3.329   7.076 -1.2339 -1.2364 -1.3740
 1063TIP3    H224825   2.476   3.184   7.073  0.9407 -0.6361  0.0593
 1064TIP3   OH224826   4.600   2.298   1.612  0.6704 -0.3779  0.1723
 1064TIP3    H124827   4.588   2.393   1.603  0.9514 -0.3968 -0.4707
 1064TIP3    H224828   4.694   2.287   1.625  0.5746 -0.5362  0.7447
 1065TIP3   OH224829   0.282   5.434   8.526  0.3410 -0.1264  0.0360
 1065TIP3    H124830   0.305   5.397   8.611 -2.0356 -0.4045  0.6218
 1065TIP3    H224831   0.348   5.398   8.466  1.6651 -0.4613  1.6048
 1066TIP3   OH224832   3.757   2.814   8.011 -0.7197 -0.0311 -0.2750
 1066TIP3    H124833   3.663   2.827   8.025 -0.3020  0.3259  3.0462
 1066TIP3    H224834   3.792   2.903   8.006 -0.2319 -0.0282  2.0413
 1067TIP3   OH224835   1.293   5.843   7.744 -0.3310  0.4465 -0.0226
 1067TIP3    H124836   1.268   5.833   7.652 -2.1167 -1.3536  0.5993
 1067TIP3    H224837   1.326   5.757   7.769  0.9008  1.1404  0.8606
 1068TIP3   OH224838   5.838   2.551   6.553 -0.0988 -0.1914 -0.0831
 1068TIP3    H124839   5.869   2.466   6.522 -0.1409 -0.1915 -0.1247
 1068TIP3    H224840   5.743   2.543   6.553 -0.0964 -0.2203  0.1286
 1069TIP3   OH224841   3.498   0.542   7.856  0.6877 -0.0300  0.3175
 1069TIP3    H124842   3.441   0.528   7.932  1.1028 -0.0762  0.6217
 1069TIP3    H224843   3.537   0.628   7.870  0.0248  0.3881 -0.3317
 1070TIP3   OH224844   2.763   3.192   0.982  0.3020  0.1224  0.3939
 1070TIP3    H124845   2.669   3.207   0.978  0.2498 -0.2435  0.1892
 1070TIP3    H224846   2.773   3.097   0.971  0.7137  0.1997  0.0639
 1071TIP3   OH224847   0.524   4.975   6.880 -0.2785 -0.4068 -0.4415
 1071TIP3    H124848   0.541   4.883   6.903 -3.7915 -0.7813  1.3095
 1071TIP3    H224849   0.443   4.972   6.830 -0.2361  1.7447 -0.7083
 1072TIP3   OH224850   0.367   5.668   0.751 -0.3566 -0.5033 -0.2265
 1072TIP3    H124851   0.357   5.760   0.728 -1.2668 -0.0361  1.7809
 1072TIP3    H224852   0.413   5.669   0.835  0.0138 -1.9103 -0.3803
 1073TIP3   OH224853   3.550   3.902   6.643 -0.5626  0.6358  0.1791
 1073TIP3    H124854   3.493   3.876   6.571 -1.2626 -0.6041  1.1375
 1073TIP3    H224855   3.589   3.820   6.673  0.3570  1.2462  0.6730
 1074TIP3   OH224856   6.294   2.059   1.918  0.1021 -0.1508 -0.7148
 1074TIP3    H124857   6.312   1.965   1.924 -1.7681 -0.5520 -0.7719
 1074TIP3    H224858   6.230   2.066   1.848  0.3167  1.2076 -0.7953
 1075TIP3   OH224859   5.065   3.537   0.813  0.6329 -0.0604 -0.3200
 1075TIP3    H124860   5.141   3.560   0.759  0.6790 -0.8752 -0.6178
 1075TIP3    H224861   5.062   3.605   0.880  0.8030  0.7560 -1.1250
 1076TIP3   OH224862   0.590   3.015   0.713 -0.0873  0.2571  0.5025
 1076TIP3    H124863   0.552   2.953   0.651  0.5287  0.8371 -0.4742
 1076TIP3    H224864   0.611   2.962   0.790 -0.3378 -0.5827  0.0078
 1077TIP3   OH224865   6.443   5.119   1.718  0.7518 -0.1636 -0.0047
 1077TIP3    H124866   6.361   5.153   1.683 -0.0938 -0.7644  1.3078
 1077TIP3    H224867   6.421   5.090   1.807  1.2664 -4.4213 -1.0469
 1078TIP3   OH224868   2.819   0.475   1.817  0.4893 -0.0987 -0.1787
 1078TIP3    H124869   2.860   0.432   1.893  0.8851  0.6920  0.0666
 1078TIP3    H224870   2.733   0.434   1.810  0.1130  0.3877  1.2124
 1079TIP3   OH224871   0.355   1.213   6.161 -0.1826  0.3587 -0.5259
 1079TIP3    H124872   0.272   1.217   6.114 -1.0272  2.3429  1.0045
 1079TIP3    H224873   0.381   1.304   6.172  1.6496 -0.1782  0.0305
 1080TIP3   OH224874   3.070   5.045   1.497 -0.3915 -0.6855 -0.0923
 1080TIP3    H124875   3.001   4.978   1.490  0.3813 -1.4140 -0.9693
 1080TIP3    H224876   3.073   5.085   1.410  0.6237 -0.9995 -0.2077
 1081TIP3   OH224877   0.026   5.505   7.876 -0.1452 -0.3648  0.0595
 1081TIP3    H124878   0.079   5.552   7.811  1.2423 -0.3395  1.1414
 1081TIP3    H224879  -0.024   5.574   7.919 -1.2975 -0.4171 -1.1515
 1082TIP3   OH224880   5.240   5.624   1.102  0.6983  0.4911  0.2182
 1082TIP3    H124881   5.326   5.601   1.067  0.8429 -0.4876  1.1631
 1082TIP3    H224882   5.250   5.616   1.197 -0.0897  1.6531  0.4206
 1083TIP3   OH224883   0.224   5.783   6.367  0.0256 -0.0063 -0.6859
 1083TIP3    H124884   0.268   5.866   6.383 -1.3807  0.7166 -0.3527
 1083TIP3    H224885   0.291   5.726   6.328  0.6898  1.6843 -2.1330
 1084TIP3   OH224886   2.458   1.495   0.006  0.0781  0.0806  0.2292
 1084TIP3    H124887   2.488   1.404   0.005  0.2718  0.1296  1.2575
 1084TIP3    H224888   2.517   1.540  -0.055 -0.3323 -0.5626 -0.6742
 1085TIP3   OH224889   3.999   4.631   8.002 -0.3645  0.5870 -0.0222
 1085TIP3    H124890   3.975   4.599   7.915 -0.2337 -1.0609  0.5092
 1085TIP3    H224891   4.074   4.577   8.027  0.1889  1.6699  0.7512
 1086TIP3   OH224892   6.448   5.997   8.515  0.6833 -0.0740 -0.3138
 1086TIP3    H124893   6.430   5.962   8.428 -1.0715  1.0245 -0.4626
 1086TIP3    H224894   6.414   5.932   8.576  2.3252 -1.0564 -0.3924
 1087TIP3   OH224895   0.205   4.519   8.452  0.5466 -0.1195  0.2407
 1087TIP3    H124896   0.242   4.556   8.532  0.9176  0.7483 -0.3200
 1087TIP3    H224897   0.253   4.437   8.438  0.8842  0.0200  0.5896
 1088TIP3   OH224898   1.447   4.599   2.063  0.2605 -0.1007 -0.0513
 1088TIP3    H124899   1.369   4.653   2.055  1.2665  1.3942 -0.3307
 1088TIP3    H224900   1.415   4.511   2.079 -1.5710 -0.1943 -3.3852
 1089TIP3   OH224901   1.838   2.201   1.434 -0.2160  0.2426 -0.2766
 1089TIP3    H124902   1.796   2.133   1.486 -1.6670  1.1596 -0.2098
 1089TIP3    H224903   1.871   2.155   1.357 -1.6442 -0.4659 -0.4820
 1090TIP3   OH224904   6.268   4.356   7.531 -0.0928 -0.0718 -0.5163
 1090TIP3    H124905   6.229   4.288   7.587 -0.0168 -0.1090 -0.5086
 1090TIP3    H224906   6.194   4.391   7.481  0.1627 -1.5658 -2.0176
 1091TIP3   OH224907   5.641   6.124   7.818  0.0826  0.4927  0.0267
 1091TIP3    H124908   5.735   6.115   7.800 -0.3686  0.2486 -2.6212
 1091TIP3    H224909   5.600   6.059   7.762 -1.7057  0.5128  1.2314
 1092TIP3   OH224910   3.955   1.730   8.133  0.3634  0.5160 -0.3568
 1092TIP3    H124911   3.977   1.690   8.216  0.8252  1.4571 -0.0065
 1092TIP3    H224912   3.979   1.822   8.143 -0.8654  0.9456 -1.0503
 1093TIP3   OH224913   4.779   5.466   8.774  0.4492  0.3809 -0.0393
 1093TIP3    H124914   4.749   5.377   8.756  0.9137  0.4771 -1.4074
 1093TIP3    H224915   4.798   5.503   8.688 -3.2379  3.0965  0.0589
 1094TIP3   OH224916   3.421   5.935   1.478  0.3336  0.0568 -0.2093
 1094TIP3    H124917   3.416   5.908   1.570  1.9913  0.2703 -0.0256
 1094TIP3    H224918   3.512   5.922   1.454  0.6749  2.9610 -0.8865
 1095TIP3   OH224919   5.065   5.487   6.520 -0.1830  0.0135  0.2680
 1095TIP3    H124920   5.160   5.492   6.526 -0.2269 -0.2893  1.6793
 1095TIP3    H224921   5.045   5.395   6.535 -0.6278 -0.2787 -1.8085
 1096TIP3   OH224922   4.832   2.216   1.218 -0.0875 -0.2361  0.1845
 1096TIP3    H124923   4.794   2.155   1.280  0.7098 -0.2847  0.6367
 1096TIP3    H224924   4.859   2.291   1.271  0.1955 -0.0855 -0.1621
 1097TIP3   OH224925   2.632   4.778   1.040 -0.8968 -0.3255 -0.2051
 1097TIP3    H124926   2.573   4.785   1.115  0.1242 -0.5858  0.6496
 1097TIP3    H224927   2.683   4.859   1.041 -1.2107 -0.1045 -0.9322
 1098TIP3   OH224928   5.000   6.289   6.648  0.3167 -0.1794  0.2017
 1098TIP3    H124929   5.033   6.201   6.665  0.9489  0.0945  0.4278
 1098TIP3    H224930   4.992   6.294   6.552 -0.5676 -0.7693  0.2252
 1099TIP3   OH224931   4.226   2.344   8.813  0.2258 -0.0548  0.0143
 1099TIP3    H124932   4.235   2.433   8.780 -0.8938 -0.1046 -0.4924
 1099TIP3    H224933   4.176   2.353   8.894  2.2644 -0.0125  1.3399
 1100TIP3   OH224934   2.706   0.599   7.265  0.0969  0.3142 -0.5853
 1100TIP3    H124935   2.719   0.508   7.289 -1.6232  0.0896 -0.3863
 1100TIP3    H224936   2.775   0.617   7.200 -0.1351 -1.4098 -1.3587
 1101TIP3   OH224937   3.330   3.326   7.268  0.2225 -0.7314  0.2542
 1101TIP3    H124938   3.354   3.290   7.182 -0.3611  0.2168 -0.3292
 1101TIP3    H224939   3.414   3.354   7.306  0.3573  0.1217 -0.6258
 1102TIP3   OH224940   0.797   5.483   6.397  0.2791 -0.4100 -0.5671
 1102TIP3    H124941   0.755   5.405   6.361 -0.2087 -1.8021  2.6871
 1102TIP3    H224942   0.839   5.453   6.477  0.3042  2.6214  0.7009
 1103TIP3   OH224943   4.705   1.658   7.138  0.0633  0.5564  0.7835
 1103TIP3    H124944   4.663   1.671   7.053  3.6526  1.4454 -1.0666
 1103TIP3    H224945   4.672   1.574   7.168 -1.1257  0.0604 -1.6406
 1104TIP3   OH224946   1.326   4.801   0.904  0.3123 -0.8824 -0.1086
 1104TIP3    H124947   1.322   4.804   0.808 -0.9087 -4.1345 -0.2885
 1104TIP3    H224948   1.251   4.854   0.932  1.2794  0.9712 -0.8283
 1105TIP3   OH224949   3.598   5.046   7.039  0.3913  0.8692 -0.6919
 1105TIP3    H124950   3.622   5.007   6.955  0.5227 -2.4774  0.7091
 1105TIP3    H224951   3.667   5.017   7.099 -0.1434  2.4390  0.7619
 1106TIP3   OH224952   6.741   2.127   1.655  0.1266 -0.1973 -0.0640
 1106TIP3    H124953   6.715   2.063   1.589 -0.1894 -1.4493  1.2298
 1106TIP3    H224954   6.668   2.128   1.717  1.0945 -0.2473  1.1062
 1107TIP3   OH224955   3.823   6.478   8.116  0.6264  0.6037  0.3019
 1107TIP3    H124956   3.743   6.530   8.104 -0.0450  0.1973  2.5380
 1107TIP3    H224957   3.831   6.427   8.035 -3.5690 -2.2167  1.3834
 1108TIP3   OH224958   3.746   2.905   6.073  0.1192  0.4621 -0.0666
 1108TIP3    H124959   3.731   2.861   6.157  0.4471  0.7321  0.1331
 1108TIP3    H224960   3.659   2.916   6.036 -0.3356  2.8585  1.4964
 1109TIP3   OH224961   4.709   3.592   6.289  0.1570  0.1160  0.0082
 1109TIP3    H124962   4.648   3.666   6.289 -1.0978 -0.7246 -3.4581
 1109TIP3    H224963   4.652   3.515   6.283  1.4950 -0.8752 -0.3957
 1110TIP3   OH224964   3.849   6.714   1.511 -0.0103  0.2099  0.7593
 1110TIP3    H124965   3.778   6.736   1.571  0.4015  1.6996  0.7459
 1110TIP3    H224966   3.900   6.795   1.503  0.6104 -0.2805 -0.6850
 1111TIP3   OH224967   2.837   6.285   0.685  0.6568 -0.6837 -0.3569
 1111TIP3    H124968   2.798   6.232   0.615  0.4174 -0.8757 -0.0830
 1111TIP3    H224969   2.901   6.341   0.640 -0.5296  0.2493 -0.9500
 1112TIP3   OH224970   5.695   2.579   0.420  0.1452  0.1091 -0.1015
 1112TIP3    H124971   5.632   2.648   0.441  1.2503  0.6540  1.5513
 1112TIP3    H224972   5.659   2.538   0.341 -2.3289  0.3276  0.8243
 1113TIP3   OH224973   0.241   5.635   7.716 -0.6592  0.4649 -0.4494
 1113TIP3    H124974   0.254   5.727   7.693 -1.4032  0.3133 -1.5490
 1113TIP3    H224975   0.304   5.588   7.661 -1.9408  0.1531 -1.7126
 1114TIP3   OH224976   4.224   4.016   8.637 -0.1613 -0.4951 -0.3386
 1114TIP3    H124977   4.292   3.956   8.666 -0.5993 -0.1086  1.6453
 1114TIP3    H224978   4.269   4.078   8.579  0.9552 -0.8086  0.1784
 1115TIP3   OH224979   3.147   4.766   8.747 -0.0207  0.4498  0.4634
 1115TIP3    H124980   3.077   4.777   8.811  0.0207  0.3659  0.5228
 1115TIP3    H224981   3.102   4.764   8.663 -0.0563  0.7869  0.4720
 1116TIP3   OH224982   2.913   1.197   8.291 -0.0534  0.6441  0.3896
 1116TIP3    H124983   2.987   1.256   8.305  0.2835 -0.0306  1.6030
 1116TIP3    H224984   2.879   1.179   8.379 -0.7307 -0.2284 -0.0297
 1117TIP3   OH224985   4.433   4.707   8.558 -0.4663  0.2151  0.6907
 1117TIP3    H124986   4.386   4.726   8.639  1.8120 -0.3540  2.2635
 1117TIP3    H224987   4.475   4.622   8.574 -1.7642 -1.0625 -2.0122
 1118TIP3   OH224988   3.134   2.756   8.345 -0.1406  0.0062  0.3321
 1118TIP3    H124989   3.220   2.736   8.307 -0.8764 -1.0134 -0.9085
 1118TIP3    H224990   3.135   2.850   8.360  1.0083  0.0870 -0.1522
 1119TIP3   OH224991   2.686   1.837   7.507  0.3294 -0.2059  0.3342
 1119TIP3    H124992   2.740   1.793   7.573  1.5868  0.8053  0.0003
 1119TIP3    H224993   2.743   1.904   7.470 -0.9262  0.3917 -0.5635
 1120TIP3   OH224994   6.856   2.447   8.736  0.5641 -0.4711 -0.1719
 1120TIP3    H124995   6.893   2.381   8.677  0.8903  0.7806 -1.4215
 1120TIP3    H224996   6.761   2.434   8.729  0.3938  1.4181 -3.2516
 1121TIP3   OH224997   2.357   1.863   1.091  0.0734  0.2156  0.0981
 1121TIP3    H124998   2.364   1.807   1.013 -0.2084 -0.5303  0.5873
 1121TIP3    H224999   2.444   1.898   1.104  0.4215 -0.6380  0.1474
 1122TIP3   OH225000   5.497   2.485   2.132  0.3832 -0.4985  0.2071
 1122TIP3    H125001   5.511   2.511   2.041  1.2708  0.1153  0.4993
 1122TIP3    H225002   5.461   2.397   2.127  0.9063 -0.6724 -0.7323
 1123TIP3   OH225003   1.026   3.733   1.299  0.1954 -0.0507 -0.5301
 1123TIP3    H125004   1.060   3.796   1.236 -0.5082  1.5784  0.6467
 1123TIP3    H225005   1.009   3.654   1.247 -2.4734  1.8888 -2.9090
 1124TIP3   OH225006   3.283   2.940   1.531  0.3005  0.3498  0.1615
 1124TIP3    H125007   3.205   2.942   1.585 -0.6926  2.9018 -1.2398
 1124TIP3    H225008   3.254   2.968   1.444  2.4585 -0.3194 -0.8559
 1125TIP3   OH225009   5.407   3.088   0.748  0.1686 -0.3108 -0.4233
 1125TIP3    H125010   5.415   3.122   0.837 -0.5771  1.4673 -0.9696
 1125TIP3    H225011   5.332   3.029   0.751 -0.0700  0.0104  0.0721
 1126TIP3   OH225012   2.745   3.288   8.332 -0.6567 -0.6796  0.2768
 1126TIP3    H125013   2.765   3.294   8.426 -0.7039 -0.9335  0.3035
 1126TIP3    H225014   2.718   3.197   8.319 -0.6449 -0.6462  0.0146
 1127TIP3   OH225015   4.279   6.395   7.896  0.3675 -0.0923  0.4902
 1127TIP3    H125016   4.323   6.362   7.818  0.5761 -0.9709  0.9688
 1127TIP3    H225017   4.222   6.323   7.924 -0.8781  0.7777  0.2765
 1128TIP3   OH225018   4.486   2.881   2.168 -0.4629  0.3850 -0.1961
 1128TIP3    H125019   4.565   2.829   2.152 -1.1613 -1.2585  1.4110
 1128TIP3    H225020   4.520   2.969   2.185  1.2210 -0.5862  2.0088
 1129TIP3   OH225021   6.665   3.803   8.364  0.4400 -0.6323  0.3132
 1129TIP3    H125022   6.674   3.877   8.425 -0.1318 -0.6468  0.4258
 1129TIP3    H225023   6.700   3.728   8.412  0.6933 -0.5026  0.3333
 1130TIP3   OH225024   4.158   5.445   0.838  0.5868 -0.6231 -0.3386
 1130TIP3    H125025   4.078   5.433   0.787 -0.4062  0.2994  0.9090
 1130TIP3    H225026   4.184   5.536   0.821  0.1138 -0.2250  0.8931
 1131TIP3   OH225027   1.841   4.001   1.963 -0.1535 -0.1215  0.4119
 1131TIP3    H125028   1.818   4.044   2.046  0.9900 -0.3933  0.9003
 1131TIP3    H225029   1.851   3.909   1.986  1.1628 -0.0526  0.2193
 1132TIP3   OH225030   0.316   6.195   7.222 -0.0233  0.0828  0.3512
 1132TIP3    H125031   0.405   6.166   7.242 -0.5554 -2.2471 -0.3233
 1132TIP3    H225032   0.267   6.179   7.303  0.1040  1.2255  0.6748
 1133TIP3   OH225033   2.006   1.172   6.874 -0.6417  0.0159  0.3434
 1133TIP3    H125034   2.006   1.156   6.969 -1.1193 -2.2912 -0.0038
 1133TIP3    H225035   1.930   1.124   6.842 -0.1943  0.3528 -1.2841
 1134TIP3   OH225036   4.801   4.732   7.327 -0.4492 -0.5714 -0.4571
 1134TIP3    H125037   4.742   4.678   7.274 -2.6165 -0.2800  1.5216
 1134TIP3    H225038   4.858   4.669   7.371 -0.6872 -1.0040 -0.7637
 1135TIP3   OH225039   1.945   2.400   8.573  0.2343  0.5648  0.2391
 1135TIP3    H125040   1.895   2.406   8.492  0.0290  2.4917  0.4721
 1135TIP3    H225041   1.892   2.342   8.629 -1.1335  1.5505  0.0290
 1136TIP3   OH225042   4.362   3.871   0.049 -0.2007 -0.2549  0.7179
 1136TIP3    H125043   4.280   3.839   0.085 -1.7252  0.7614 -1.5714
 1136TIP3    H225044   4.381   3.812  -0.023  0.2975  0.3404  0.3500
 1137TIP3   OH225045   1.803   4.354   1.975  0.7158 -0.0531  0.4235
 1137TIP3    H125046   1.814   4.449   1.979  0.8771 -0.0813  0.7540
 1137TIP3    H225047   1.711   4.340   1.997  0.8618 -0.0109  1.0986
 1138TIP3   OH225048   1.494   6.805   0.807 -0.1528  0.1305  0.8932
 1138TIP3    H125049   1.517   6.718   0.841 -0.1287 -0.4017 -0.4389
 1138TIP3    H225050   1.558   6.822   0.738 -0.1613  1.2125  1.1373
 1139TIP3   OH225051   6.238   0.713   7.918  0.2730  0.7265 -0.0225
 1139TIP3    H125052   6.227   0.803   7.887  1.3020  0.3045 -1.7705
 1139TIP3    H225053   6.208   0.659   7.845 -1.4734 -0.3894  1.4473
 1140TIP3   OH225054   5.768   3.787   7.188 -0.4763  0.3039  0.2838
 1140TIP3    H125055   5.823   3.711   7.200  0.4810  1.0772  0.9593
 1140TIP3    H225056   5.723   3.772   7.104 -1.1026 -1.4530  0.8975
 1141TIP3   OH225057   2.574   1.712   7.108 -0.1687  0.1018 -0.2385
 1141TIP3    H125058   2.661   1.673   7.100 -0.0032  0.6571 -1.3003
 1141TIP3    H225059   2.559   1.719   7.202  1.4864  1.1827 -0.0243
 1142TIP3   OH225060   1.973   4.387   8.471  0.0576 -0.1682 -0.7298
 1142TIP3    H125061   2.042   4.321   8.467 -0.5214 -0.8048 -0.5981
 1142TIP3    H225062   1.892   4.336   8.463 -0.5011  0.2932  1.3963
 1143TIP3   OH225063   0.905   3.907   7.332  0.0657  0.3248 -0.4993
 1143TIP3    H125064   0.842   3.974   7.358 -0.0526  0.3176 -0.7607
 1143TIP3    H225065   0.887   3.834   7.390  0.4000  0.6303 -0.0055
 1144TIP3   OH225066   0.117   4.731   6.475 -0.0925 -0.2914  0.1424
 1144TIP3    H125067   0.155   4.653   6.514  1.6393  1.1051  1.4112
 1144TIP3    H225068   0.192   4.779   6.439 -1.0567  1.0113 -0.2018
 1145TIP3   OH225069   4.807   3.609   8.397  0.2198 -0.0726  0.2791
 1145TIP3    H125070   4.797   3.662   8.475 -0.1990 -0.4674  0.5032
 1145TIP3    H225071   4.875   3.545   8.419  0.1666 -0.1259  0.2893
 1146TIP3   OH225072   1.236   2.840   7.944 -0.0565  0.0781 -0.4363
 1146TIP3    H125073   1.284   2.922   7.958  1.7433 -0.4855 -2.7982
 1146TIP3    H225074   1.169   2.862   7.880 -0.0835 -0.1371 -0.4812
 1147TIP3   OH225075   4.625   6.617   6.668  0.7593 -0.1879 -0.4238
 1147TIP3    H125076   4.674   6.534   6.663  1.2381  0.1541 -1.7675
 1147TIP3    H225077   4.540   6.597   6.628  0.7107 -0.1335 -0.3487
 1148TIP3   OH225078   1.040   1.694   6.808  0.5605 -0.6448  0.0358
 1148TIP3    H125079   1.048   1.626   6.741  0.1897 -1.7226  1.0466
 1148TIP3    H225080   1.047   1.647   6.891  0.7707  0.6243  0.7675
 1149TIP3   OH225081   2.595   1.315   7.561  0.1947  0.2420 -0.2425
 1149TIP3    H125082   2.625   1.276   7.643  3.2331  1.8558 -0.4412
 1149TIP3    H225083   2.560   1.400   7.587  0.3671  0.4072 -0.5582
 1150TIP3   OH225084   1.650   0.020   6.990  0.2904 -1.0915  0.6531
 1150TIP3    H125085   1.720   0.039   7.053  1.8257  2.0701 -1.7339
 1150TIP3    H225086   1.575   0.070   7.021  0.4269 -1.0619  0.9383
 1151TIP3   OH225087   6.525   6.051   1.063 -0.2952 -0.0837  0.1190
 1151TIP3    H125088   6.430   6.061   1.072 -0.1243  0.8319  1.0339
 1151TIP3    H225089   6.542   5.960   1.090 -0.8848 -0.1944  0.1288
 1152TIP3   OH225090   6.276   4.833   7.131 -0.4037 -0.9293 -0.2818
 1152TIP3    H125091   6.215   4.797   7.067 -5.0532  2.1043  1.9262
 1152TIP3    H225092   6.299   4.919   7.097  1.2676 -1.2817 -0.1489
 1153TIP3   OH225093   5.228   5.806   8.786  0.1751  0.3541  0.2707
 1153TIP3    H125094   5.290   5.800   8.714 -0.4518 -0.4434 -0.2160
 1153TIP3    H225095   5.174   5.882   8.765  0.5531  0.6536  0.3625
 1154TIP3   OH225096   3.787   6.717   6.538  0.0092  0.0436 -0.5900
 1154TIP3    H125097   3.785   6.781   6.468  1.6855  0.9628  0.1579
 1154TIP3    H225098   3.714   6.657   6.518  0.1855  0.5070 -2.8551
 1155TIP3   OH225099   0.120   3.427   2.138  0.0246  0.6663 -0.4543
 1155TIP3    H125100   0.214   3.412   2.142  0.0037 -0.0532 -1.8273
 1155TIP3    H225101   0.098   3.471   2.220  2.0268  3.4850 -1.2686
 1156TIP3   OH225102   1.975   5.832   7.119 -0.6573 -0.0166  0.0649
 1156TIP3    H125103   1.925   5.903   7.078 -0.6689  1.2147  2.1093
 1156TIP3    H225104   2.066   5.850   7.095 -0.8577 -0.6301 -1.2668
 1157TIP3   OH225105   2.753   3.505   6.745  0.0581 -0.2950 -0.1857
 1157TIP3    H125106   2.713   3.430   6.789  2.0866 -1.4674 -0.2445
 1157TIP3    H225107   2.824   3.468   6.693  1.2264  1.6580 -0.0981
 1158TIP3   OH225108   3.043   1.183   1.777  0.3208 -0.7134 -0.2896
 1158TIP3    H125109   3.042   1.213   1.686  0.0021  0.8866  0.2147
 1158TIP3    H225110   2.965   1.128   1.784 -0.5519  0.4302 -0.6042
 1159TIP3   OH225111   4.752   0.375   2.237 -0.3343  0.0006 -0.1522
 1159TIP3    H125112   4.769   0.407   2.326 -1.3253 -0.3343  0.1797
 1159TIP3    H225113   4.821   0.311   2.221 -1.1604 -1.2841  1.1127
 1160TIP3   OH225114   6.856   3.700   6.893  0.0618 -0.8012  0.5263
 1160TIP3    H125115   6.859   3.605   6.890  2.5587 -0.8323  1.4554
 1160TIP3    H225116   6.909   3.728   6.819  0.3142 -0.1748  0.9349
 1161TIP3   OH225117   6.806   5.943   7.305  0.2550 -0.3287  0.0787
 1161TIP3    H125118   6.732   5.921   7.249  0.1500  0.0891  0.0477
 1161TIP3    H225119   6.859   5.864   7.307 -0.6759 -0.9590  0.8805
 1162TIP3   OH225120   1.704   3.766   0.822 -0.1673 -0.0423  0.4052
 1162TIP3    H125121   1.731   3.675   0.824  0.7403  0.2089  0.1748
 1162TIP3    H225122   1.737   3.803   0.904 -0.3760  0.1210  0.4173
 1163TIP3   OH225123   1.830   3.103   6.881 -0.4506  0.2066 -0.1791
 1163TIP3    H125124   1.819   3.023   6.932 -1.8098  1.4576  1.6065
 1163TIP3    H225125   1.901   3.151   6.925  0.0342  0.2266 -0.9512
 1164TIP3   OH225126   3.862   1.035   8.119  0.2912  0.1345  0.5988
 1164TIP3    H125127   3.792   1.017   8.056  0.9563  0.9162 -0.4214
 1164TIP3    H225128   3.895   1.121   8.092  1.4236 -0.0807  1.2560
 1165TIP3   OH225129   1.076   4.936   7.149 -0.4923 -0.1844 -1.1758
 1165TIP3    H125130   1.083   4.843   7.127 -0.6934 -0.1083 -1.5601
 1165TIP3    H225131   1.167   4.963   7.166 -0.5154 -0.6616 -0.1637
 1166TIP3   OH225132   6.764   0.657   7.062  0.3934 -0.0948 -0.3914
 1166TIP3    H125133   6.745   0.578   7.012  1.1099  0.8002 -2.1638
 1166TIP3    H225134   6.817   0.626   7.136 -0.9419 -1.4842  0.0281
 1167TIP3   OH225135   4.036   5.062   0.893 -0.0878 -0.0840 -0.6098
 1167TIP3    H125136   4.116   5.010   0.879 -1.2339 -1.4994 -2.4097
 1167TIP3    H225137   4.065   5.137   0.944  2.0609 -1.4544  0.3361
 1168TIP3   OH225138   1.555   6.252   0.745  0.3246  0.5072  0.1373
 1168TIP3    H125139   1.597   6.191   0.805 -0.0266  0.5292  0.4114
 1168TIP3    H225140   1.519   6.197   0.676  0.7021  0.4784 -0.0353
 1169TIP3   OH225141   3.391   0.252   7.322  0.0862  0.2730 -0.2626
 1169TIP3    H125142   3.459   0.193   7.352 -0.8244 -0.0370  1.2762
 1169TIP3    H225143   3.309   0.216   7.356 -0.5661  2.0703  0.2321
 1170TIP3   OH225144   4.788   0.434   1.366 -0.0952  0.1499  0.0636
 1170TIP3    H125145   4.762   0.424   1.457  1.3749  0.6501  0.5689
 1170TIP3    H225146   4.837   0.355   1.346 -1.3100 -0.4576 -0.6573
 1171TIP3   OH225147   3.916   0.525   8.174  0.7162 -0.4438 -0.0225
 1171TIP3    H125148   3.897   0.476   8.255 -0.4950 -1.4491 -0.8760
 1171TIP3    H225149   3.833   0.564   8.150  1.2991  0.6696 -0.2797
 1172TIP3   OH225150   6.231   0.978   7.856  0.0324 -0.5806  0.5614
 1172TIP3    H125151   6.162   1.039   7.829 -0.4490 -1.6289 -0.6929
 1172TIP3    H225152   6.248   1.000   7.947  0.1474  1.6698  0.0592
 1173TIP3   OH225153   4.254   3.559   7.374 -0.5529 -0.1198 -0.4648
 1173TIP3    H125154   4.221   3.630   7.429  0.2323 -0.6969  0.8034
 1173TIP3    H225155   4.195   3.485   7.392  0.4319 -0.6848  0.6169
 1174TIP3   OH225156   5.026   6.569   7.763 -0.2295 -0.2507 -0.1895
 1174TIP3    H125157   4.937   6.597   7.740  0.3342  1.2125 -0.7490
 1174TIP3    H225158   5.054   6.515   7.690 -0.9252 -1.4064  0.3631
 1175TIP3   OH225159   6.393   1.667   8.340  0.1923 -0.3763 -0.4368
 1175TIP3    H125160   6.455   1.596   8.359  0.8349  0.7236  1.8173
 1175TIP3    H225161   6.446   1.735   8.299  0.4261  0.3298  0.9660
 1176TIP3   OH225162   4.279   4.962   2.580  0.0746 -0.3939 -0.2967
 1176TIP3    H125163   4.309   4.950   2.490 -0.4397 -0.0638 -0.5152
 1176TIP3    H225164   4.227   4.883   2.598  0.7891 -0.8176 -0.0236
 1177TIP3   OH225165   0.085   4.745   2.101  0.3238 -0.2435 -0.4281
 1177TIP3    H125166   0.038   4.803   2.162  1.5245  0.2473  0.0793
 1177TIP3    H225167   0.019   4.717   2.038 -0.4285  1.2343 -0.3479
 1178TIP3   OH225168   6.119   4.042   8.821  0.6169 -0.4250  0.0943
 1178TIP3    H125169   6.165   4.104   8.878  1.1291  0.2880 -1.0626
 1178TIP3    H225170   6.188   3.991   8.779  0.2111 -1.5422  0.7416
 1179TIP3   OH225171   4.060   2.818   7.856 -0.3349 -0.1560  0.2858
 1179TIP3    H125172   3.995   2.758   7.819  0.1846 -0.8664  0.5012
 1179TIP3    H225173   4.009   2.894   7.884 -0.8975 -0.1610 -0.6988
 1180TIP3   OH225174   6.144   5.060   8.748  0.1149 -0.0892 -0.1856
 1180TIP3    H125175   6.237   5.059   8.723  0.2820  0.4401  0.3960
 1180TIP3    H225176   6.098   5.080   8.667  0.5453  0.1344 -0.3798
 1181TIP3   OH225177   1.369   6.033   1.609  0.0651  0.0127 -0.1480
 1181TIP3    H125178   1.458   6.060   1.629  0.2212 -0.8893  0.4291
 1181TIP3    H225179   1.329   6.110   1.569  1.0947  0.4283 -0.4059
 1182TIP3   OH225180   1.450   2.946   0.504  0.1612  0.1713  0.2483
 1182TIP3    H125181   1.380   3.012   0.503  0.7358  0.7928 -0.4202
 1182TIP3    H225182   1.465   2.928   0.597  0.7036  1.7821  0.5128
 1183TIP3   OH225183   3.768   2.583   7.882  0.6795 -0.1914  0.2062
 1183TIP3    H125184   3.760   2.516   7.951 -1.1373 -0.1799  0.0564
 1183TIP3    H225185   3.767   2.666   7.930  3.2927 -0.2251  0.4201
 1184TIP3   OH225186   2.201   2.742   8.832  0.0046  0.6853  0.0219
 1184TIP3    H125187   2.131   2.726   8.768 -0.3550 -0.1466  0.6027
 1184TIP3    H225188   2.158   2.790   8.903 -0.5061 -1.5633  1.3166
 1185TIP3   OH225189   4.896   2.135   8.614 -0.1460 -0.3295  0.4612
 1185TIP3    H125190   4.953   2.195   8.566 -0.6452 -0.6833 -0.5958
 1185TIP3    H225191   4.954   2.065   8.643  0.0649 -0.4146 -0.1449
 1186TIP3   OH225192   1.071   0.747   6.944  0.0885  0.8540 -0.4103
 1186TIP3    H125193   0.982   0.781   6.947  0.6221  2.2876  0.0201
 1186TIP3    H225194   1.117   0.805   6.883  0.7739  0.2489 -0.4796
 1187TIP3   OH225195   2.192   4.256   7.019 -0.0640 -0.4068 -0.3597
 1187TIP3    H125196   2.203   4.168   7.057 -0.0560  0.0207  0.6594
 1187TIP3    H225197   2.278   4.276   6.982 -0.3802 -1.2896 -1.6599
 1188TIP3   OH225198   3.446   4.906   0.976  0.2152  0.4405 -0.4223
 1188TIP3    H125199   3.517   4.874   1.030  0.8481  1.2554 -0.7527
 1188TIP3    H225200   3.405   4.827   0.941  2.2315 -0.0458 -1.8588
 1189TIP3   OH225201   0.088   5.204   6.389 -0.9398 -0.2054 -0.1178
 1189TIP3    H125202   0.040   5.233   6.311 -2.0728 -2.1438 -0.1967
 1189TIP3    H225203   0.123   5.285   6.426 -0.6547  0.8287 -2.4130
 1190TIP3   OH225204   2.999   6.258   7.335 -0.3145 -0.0347 -0.1278
 1190TIP3    H125205   2.925   6.216   7.378  0.3215 -0.0852  0.9587
 1190TIP3    H225206   2.977   6.351   7.334  0.5297  0.2739  2.2543
 1191TIP3   OH225207   0.317   3.994   8.002 -0.3088  0.1377 -0.0003
 1191TIP3    H125208   0.270   3.998   7.919  2.8304  1.9134 -1.8515
 1191TIP3    H225209   0.385   3.928   7.989 -0.9631 -1.0162  1.9445
 1192TIP3   OH225210   4.149   1.055   0.164 -0.0417 -0.0889 -0.1104
 1192TIP3    H125211   4.110   1.096   0.242 -2.8315 -1.5929 -0.6032
 1192TIP3    H225212   4.089   1.075   0.093  0.4203 -1.9422 -1.0957
 1193TIP3   OH225213   3.671   1.457   7.066 -0.4133  0.3257  0.2559
 1193TIP3    H125214   3.623   1.425   7.142 -0.9894  1.3247  0.3339
 1193TIP3    H225215   3.603   1.485   7.005  0.0415  1.9687  0.4556
 1194TIP3   OH225216   2.786   6.583   6.302 -0.1838 -0.4938  0.3529
 1194TIP3    H125217   2.811   6.667   6.263 -0.8690 -0.5829 -0.2881
 1194TIP3    H225218   2.786   6.522   6.229 -1.6297 -0.6272  0.4397
 1195TIP3   OH225219   3.108   3.108   1.972  0.3082 -0.1705  0.9864
 1195TIP3    H125220   3.093   3.135   2.063  3.5725  2.8011  0.8567
 1195TIP3    H225221   3.194   3.065   1.974  0.6559  0.3697 -0.7113
 1196TIP3   OH225222   0.498   5.411   1.689 -0.0451  0.1019 -0.6782
 1196TIP3    H125223   0.488   5.456   1.605 -1.8379  1.1022 -0.0030
 1196TIP3    H225224   0.456   5.326   1.676 -0.6020  0.3789 -0.7185
 1197TIP3   OH225225   4.175   6.795   8.074 -0.5429 -0.2922  0.1174
 1197TIP3    H125226   4.114   6.786   8.148 -1.2368 -0.7599 -0.5096
 1197TIP3    H225227   4.230   6.717   8.078 -0.4021 -0.1871  0.2894
 1198TIP3   OH225228   6.274   5.571   7.506  0.4123 -0.2140 -0.1548
 1198TIP3    H125229   6.256   5.549   7.598 -0.6665 -0.5560 -0.4454
 1198TIP3    H225230   6.273   5.488   7.460 -1.3219  0.1583 -0.8526
 1199TIP3   OH225231   5.466   0.159   0.418  0.5087  0.0849  0.3399
 1199TIP3    H125232   5.514   0.110   0.352  0.8319 -0.4620  0.9727
 1199TIP3    H225233   5.375   0.160   0.386  0.9387  1.3464 -0.9970
 1200TIP3   OH225234   3.287   3.995   0.319 -0.2252  0.0781  0.0942
 1200TIP3    H125235   3.253   3.945   0.392 -0.1542  2.2406  1.7101
 1200TIP3    H225236   3.241   4.079   0.323  1.5368  1.1679 -0.8082
 1201TIP3   OH225237   6.806   3.738   7.715  0.2292 -0.4510 -0.3218
 1201TIP3    H125238   6.761   3.808   7.762  2.8247  0.4450  1.0792
 1201TIP3    H225239   6.876   3.711   7.775  2.5906 -0.5310 -2.8942
 1202TIP3   OH225240   2.728   2.150   0.545 -0.0971 -0.0298 -0.5610
 1202TIP3    H125241   2.772   2.090   0.604  0.0166  1.0742  0.5298
 1202TIP3    H225242   2.710   2.099   0.467  2.3743 -0.7413 -0.7311
 1203TIP3   OH225243   4.824   3.931   1.115 -0.3916 -0.3916 -0.0762
 1203TIP3    H125244   4.775   4.006   1.150  1.1848  0.8827 -0.5119
 1203TIP3    H225245   4.882   3.968   1.049  0.1460 -2.0786 -0.6148
 1204TIP3   OH225246   0.124   3.442   1.794  0.4501  0.0983  0.2809
 1204TIP3    H125247   0.177   3.490   1.730  0.0130  0.8964  0.5009
 1204TIP3    H225248   0.062   3.507   1.826  0.2032 -0.4848  0.9970
 1205TIP3   OH225249   0.396   5.523   1.164  0.1292  0.2083  0.0563
 1205TIP3    H125250   0.423   5.434   1.141 -0.3735 -0.0324  0.3779
 1205TIP3    H225251   0.310   5.534   1.123  0.5835  0.8798 -0.7528
 1206TIP3   OH225252   2.544   1.686   7.936 -0.0398 -0.0685  0.0094
 1206TIP3    H125253   2.545   1.614   8.000 -0.7069  0.3779  0.5380
 1206TIP3    H225254   2.478   1.746   7.969  1.0108  1.1512 -0.0380
 1207TIP3   OH225255   6.663   6.301   8.783 -0.3310 -0.7172 -0.3491
 1207TIP3    H125256   6.671   6.232   8.850 -1.8126 -0.6093 -0.0246
 1207TIP3    H225257   6.574   6.290   8.749 -0.5184  0.9011 -0.4353
 1208TIP3   OH225258   5.603   0.698   1.996 -0.4203 -0.2458 -0.8618
 1208TIP3    H125259   5.602   0.604   1.978 -0.7484 -0.4664  0.2250
 1208TIP3    H225260   5.635   0.705   2.086 -3.2269  0.4404  0.1924
 1209TIP3   OH225261   6.816   1.093   8.641 -0.0340  0.3598  0.7580
 1209TIP3    H125262   6.737   1.062   8.687  0.6631 -1.7080  0.6786
 1209TIP3    H225263   6.848   1.165   8.694 -2.2917  1.6975  0.4588
 1210TIP3   OH225264   6.550   1.480   6.366  0.0752  0.0561  0.1203
 1210TIP3    H125265   6.628   1.524   6.399  0.2240 -0.0867 -0.0383
 1210TIP3    H225266   6.571   1.460   6.274 -0.4700  0.7825 -0.1743
 1211TIP3   OH225267   2.576   5.291   8.688 -0.1567  0.6836  1.3054
 1211TIP3    H125268   2.514   5.351   8.646  1.3251  0.5354 -1.3716
 1211TIP3    H225269   2.573   5.212   8.634  2.0773  0.5710  1.2576
 1212TIP3   OH225270   1.218   4.133   6.934  0.2326 -0.4870  0.0295
 1212TIP3    H125271   1.210   4.215   6.885 -1.0679  0.2681  1.4296
 1212TIP3    H225272   1.143   4.133   6.993 -1.8534 -4.2674 -2.1869
 1213TIP3   OH225273   1.824   3.544   7.594 -0.2406 -0.1768  0.3444
 1213TIP3    H125274   1.832   3.515   7.504 -1.4664 -1.2506  0.5546
 1213TIP3    H225275   1.762   3.483   7.634  0.1941  0.3384  1.8837
 1214TIP3   OH225276   3.870   5.784   0.856 -0.6529  0.1339 -0.7526
 1214TIP3    H125277   3.906   5.872   0.856  1.1589 -0.5491  0.3959
 1214TIP3    H225278   3.808   5.783   0.783 -1.6111  2.6747 -0.0869
 1215TIP3   OH225279   2.416   6.178   2.027  1.0258 -0.1043  0.4596
 1215TIP3    H125280   2.440   6.204   2.116  0.5579 -0.2776  0.6405
 1215TIP3    H225281   2.364   6.098   2.039 -0.5021  0.8179  0.1646
 1216TIP3   OH225282   4.925   4.199   2.667  0.3702 -0.3216  0.5467
 1216TIP3    H125283   4.918   4.295   2.669 -0.3025 -0.3647  0.5907
 1216TIP3    H225284   4.966   4.180   2.583 -2.6123 -0.1359 -1.0968
 1217TIP3   OH225285   5.449   0.196   0.131 -0.1180 -0.1537  0.6514
 1217TIP3    H125286   5.426   0.125   0.070  1.1762 -1.2021  1.3268
 1217TIP3    H225287   5.368   0.247   0.140 -0.4654 -0.1935 -1.6125
 1218TIP3   OH225288   0.697   2.746   0.399  0.2319 -0.2582 -0.1594
 1218TIP3    H125289   0.703   2.652   0.381  1.5943 -0.3769  0.7032
 1218TIP3    H225290   0.606   2.769   0.380 -0.4693 -2.0218  0.8186
 1219TIP3   OH225291   0.755   4.041   1.629  0.3032 -0.2973 -0.1466
 1219TIP3    H125292   0.661   4.024   1.637  0.0458  1.3368  0.7912
 1219TIP3    H225293   0.784   3.983   1.559 -1.2433 -1.4114  0.0791
 1220TIP3   OH225294   0.886   0.953   0.465 -0.6025 -0.1446 -0.3067
 1220TIP3    H125295   0.931   0.933   0.383 -1.0664  1.1218 -0.8890
 1220TIP3    H225296   0.919   0.887   0.527  0.7555 -0.2962 -1.1527
 1221TIP3   OH225297   5.309   1.782   1.042  0.2494  0.5157 -0.1898
 1221TIP3    H125298   5.268   1.707   1.084 -0.4265 -0.9113 -3.1171
 1221TIP3    H225299   5.397   1.786   1.078 -0.1670 -0.7694  1.0518
 1222TIP3   OH225300   0.687   5.041   0.312 -0.2282  0.2254  0.0684
 1222TIP3    H125301   0.650   4.962   0.352 -0.3644  0.2196 -0.0696
 1222TIP3    H225302   0.657   5.039   0.222 -1.6770  1.3337  0.4910
 1223TIP3   OH225303   0.197   0.820   7.117 -0.2871 -0.0638 -0.7893
 1223TIP3    H125304   0.170   0.912   7.112  0.4070  0.1413 -1.0104
 1223TIP3    H225305   0.136   0.780   7.179  1.3975  1.3067  1.9577
 1224TIP3   OH225306   6.570   4.996   7.492 -0.2471  0.2572  0.1929
 1224TIP3    H125307   6.483   4.963   7.514  0.5247 -2.1130 -0.0148
 1224TIP3    H225308   6.612   4.924   7.445  2.1668  0.9522  1.1233
 1225TIP3   OH225309   6.793   5.872   1.758 -0.4776  0.1320 -0.5227
 1225TIP3    H125310   6.796   5.967   1.768  0.3334 -0.0629  1.3186
 1225TIP3    H225311   6.831   5.837   1.838  2.7847 -1.7148 -2.6193
 1226TIP3   OH225312   6.025   2.255   7.840 -0.0929 -0.6277 -0.3235
 1226TIP3    H125313   6.075   2.337   7.842  0.7309 -1.1054 -0.7255
 1226TIP3    H225314   6.092   2.187   7.840 -0.7771 -1.3308  0.9030
 1227TIP3   OH225315   2.332   6.381   7.358  0.1610  0.9202 -0.0943
 1227TIP3    H125316   2.265   6.436   7.317 -0.4051  0.8036  0.6515
 1227TIP3    H225317   2.365   6.434   7.430  1.1795  1.1396 -0.7063
 1228TIP3   OH225318   0.368   5.757   0.036  0.4084 -0.0562 -0.2498
 1228TIP3    H125319   0.430   5.710  -0.019  0.8356  0.1337  0.0675
 1228TIP3    H225320   0.393   5.849   0.027 -0.5328  0.1553 -1.0174
 1229TIP3   OH225321   2.130   1.375   1.222  0.0570  0.3185 -0.4071
 1229TIP3    H125322   2.114   1.282   1.211 -2.2185  0.0875  3.1869
 1229TIP3    H225323   2.206   1.380   1.280 -1.9238  0.3697  2.4002
 1230TIP3   OH225324   6.158   3.200   8.563 -0.0086 -0.1390 -0.0698
 1230TIP3    H125325   6.163   3.274   8.624 -0.5287 -0.0351 -0.1470
 1230TIP3    H225326   6.180   3.238   8.478  1.9715 -0.5330  0.2195
 1231TIP3   OH225327   6.403   4.410   8.215  0.1116 -0.3560  0.1764
 1231TIP3    H125328   6.487   4.419   8.172  0.2914 -0.4208  0.5128
 1231TIP3    H225329   6.369   4.326   8.185  0.1667 -0.3313  0.0453
 1232TIP3   OH225330   2.707   5.367   1.575 -0.3887 -0.1879 -0.2958
 1232TIP3    H125331   2.776   5.348   1.638  0.1501  0.9647 -0.5096
 1232TIP3    H225332   2.648   5.292   1.580  0.6567 -0.9934  0.1863
 1233TIP3   OH225333   5.817   6.395   8.543  0.6872  0.2922 -0.4872
 1233TIP3    H125334   5.838   6.305   8.518  2.3379  0.7452 -0.8941
 1233TIP3    H225335   5.761   6.427   8.472 -0.1919 -0.5065 -0.1705
 1234TIP3   OH225336   5.888   3.181   0.953 -0.4098  0.4489  0.0951
 1234TIP3    H125337   5.800   3.149   0.935 -0.6640  0.1810  1.7209
 1234TIP3    H225338   5.938   3.158   0.874 -1.9622  1.4345 -1.2481
 1235TIP3   OH225339   2.494   0.314   0.289 -0.6310 -0.2322  0.4816
 1235TIP3    H125340   2.531   0.234   0.251 -0.7719 -0.0261 -0.0984
 1235TIP3    H225341   2.418   0.333   0.234 -0.9361 -0.0186  0.9691
 1236TIP3   OH225342   5.661   3.604   1.010 -0.5266 -0.3752 -0.0811
 1236TIP3    H125343   5.726   3.534   1.013  0.0608  0.1369 -0.7983
 1236TIP3    H225344   5.698   3.670   0.952 -0.7535  0.8691  1.1227
 1237TIP3   OH225345   1.075   6.004   7.490  0.2288  0.7097 -0.7974
 1237TIP3    H125346   1.052   6.054   7.412  1.0802 -0.7980 -2.0654
 1237TIP3    H225347   1.161   5.968   7.471  1.1151  1.4773  1.4553
 1238TIP3   OH225348   3.130   5.244   0.144 -0.8045  0.1506 -0.2525
 1238TIP3    H125349   3.075   5.243   0.066 -1.0745  0.0341 -0.0621
 1238TIP3    H225350   3.104   5.166   0.193 -1.5371  0.8995  0.5823
 1239TIP3   OH225351   3.858   1.718   1.274 -0.6153  0.0710  0.6719
 1239TIP3    H125352   3.928   1.738   1.336  0.2721 -0.6481 -0.0788
 1239TIP3    H225353   3.894   1.649   1.218 -0.2286  2.6483 -2.5488
 1240TIP3   OH225354   1.562   2.825   1.588  0.3981  0.2774  0.2784
 1240TIP3    H125355   1.497   2.867   1.645  0.8994 -1.4361  2.2313
 1240TIP3    H225356   1.556   2.874   1.505 -1.9584  1.4354  1.0272
 1241TIP3   OH225357   4.300   5.175   7.956  0.2279 -0.6950  0.5262
 1241TIP3    H125358   4.263   5.215   7.877  1.6450  0.3406  0.3387
 1241TIP3    H225359   4.299   5.245   8.021 -1.2512 -1.6394  1.5676
 1242TIP3   OH225360   4.641   0.610   7.602 -0.0196 -0.1659 -0.1224
 1242TIP3    H125361   4.734   0.589   7.604  0.2289  0.2063 -3.0992
 1242TIP3    H225362   4.598   0.525   7.591 -0.0312 -0.2746  0.6592
 1243TIP3   OH225363   1.582   1.859   6.834 -0.0617  0.1672 -0.0789
 1243TIP3    H125364   1.497   1.821   6.859  0.7455 -1.1274  0.7878
 1243TIP3    H225365   1.646   1.814   6.888  0.9366  3.3120  1.6170
 1244TIP3   OH225366   2.290   0.405   8.100  0.1839 -0.0511 -0.6415
 1244TIP3    H125367   2.268   0.321   8.138  1.4849 -0.1311 -0.0228
 1244TIP3    H225368   2.211   0.431   8.052 -0.6638 -1.0273  0.1832
 1245TIP3   OH225369   0.094   0.087   7.308 -0.3169  0.0307  0.0923
 1245TIP3    H125370   0.141   0.161   7.348  3.6473 -2.2210  0.1597
 1245TIP3    H225371   0.122   0.088   7.217 -1.7583 -0.3479 -0.3790
 1246TIP3   OH225372   6.379   3.186   6.740  0.5944  0.0354  0.3480
 1246TIP3    H125373   6.377   3.167   6.647 -0.6817 -2.4614  0.7951
 1246TIP3    H225374   6.386   3.100   6.782  0.8431  1.0563  2.5657
 1247TIP3   OH225375   5.070   0.093   6.635 -0.6438  0.7178 -0.0786
 1247TIP3    H125376   5.017   0.135   6.568  0.8042  2.1065 -0.4164
 1247TIP3    H225377   5.116   0.165   6.679  1.1448 -0.3936  0.0007
 1248TIP3   OH225378   5.678   4.006   7.736 -0.4498  0.3583  0.2564
 1248TIP3    H125379   5.620   3.940   7.774  1.4649 -1.3539  0.4360
 1248TIP3    H225380   5.684   4.074   7.803 -1.6585  0.2199  0.5257
 1249TIP3   OH225381   6.387   2.805   0.348  0.0953  0.0836  0.0111
 1249TIP3    H125382   6.371   2.791   0.441  1.1062 -0.9555  0.0452
 1249TIP3    H225383   6.470   2.851   0.345 -0.5938  1.3510 -0.3434
 1250TIP3   OH225384   0.118   4.940   7.577 -0.2019 -0.1328  0.4568
 1250TIP3    H125385   0.118   4.929   7.482 -2.1579 -0.1017  0.4167
 1250TIP3    H225386   0.090   4.855   7.612 -3.7474  0.9582  0.7128
 1251TIP3   OH225387   1.612   3.860   8.094  0.1555  0.2142 -0.5832
 1251TIP3    H125388   1.601   3.938   8.148  1.8842  0.5298 -0.6329
 1251TIP3    H225389   1.543   3.867   8.029  0.4825  1.9245 -0.8170
 1252TIP3   OH225390   1.147   0.435   6.968  0.6667 -0.2209  0.2631
 1252TIP3    H125391   1.218   0.453   7.029  0.2426  1.5770  0.2827
 1252TIP3    H225392   1.101   0.519   6.959 -0.7453 -1.0482 -0.6489
 1253TIP3   OH225393   3.230   3.231   1.266 -0.2056 -0.1715 -0.1861
 1253TIP3    H125394   3.196   3.284   1.339 -2.9822 -1.3398 -0.5114
 1253TIP3    H225395   3.222   3.288   1.190  2.0651  0.8105  0.2299
 1254TIP3   OH225396   5.046   5.206   8.194  0.2625  0.3848  0.4728
 1254TIP3    H125397   5.005   5.256   8.265 -0.8031  1.7536 -1.0256
 1254TIP3    H225398   5.045   5.115   8.225 -1.6867  0.7027  1.5215
 1255TIP3   OH225399   2.682   6.047   2.264  0.2328 -0.6774 -0.1915
 1255TIP3    H125400   2.684   6.140   2.244  1.1827 -0.7586 -0.5200
 1255TIP3    H225401   2.592   6.030   2.291  0.2431  0.4978  0.6517
 1256TIP3   OH225402   5.573   0.418   8.048  0.4373 -0.0760 -0.3356
 1256TIP3    H125403   5.641   0.416   8.116  1.7221 -0.3332 -1.5819
 1256TIP3    H225404   5.548   0.326   8.036  0.2100 -0.0307 -0.2208
 1257TIP3   OH225405   5.170   5.392   1.947 -0.3828  0.0126 -0.0636
 1257TIP3    H125406   5.224   5.331   1.998 -1.0046 -0.8304 -0.3862
 1257TIP3    H225407   5.158   5.468   2.005  0.6994 -0.0075  0.2092
 1258TIP3   OH225408   2.186   4.208   1.118 -0.3119 -0.0585  0.1661
 1258TIP3    H125409   2.103   4.203   1.167  0.5965 -0.0165  1.7854
 1258TIP3    H225410   2.225   4.121   1.129  0.5232  0.3659  0.6754
 1259TIP3   OH225411   6.264   1.793   1.889 -0.4554  0.5428  0.3931
 1259TIP3    H125412   6.196   1.729   1.867  0.5842 -0.2400 -0.6303
 1259TIP3    H225413   6.316   1.749   1.957 -1.0758  1.2332  1.3455
 1260TIP3   OH225414   4.458   2.475   0.236  0.0616  0.2055  0.9940
 1260TIP3    H125415   4.442   2.393   0.191  0.0309 -0.5286  2.3043
 1260TIP3    H225416   4.544   2.464   0.276  0.4291  1.1392  0.5096
 1261TIP3   OH225417   2.707   2.750   8.546  0.1662  0.4358 -0.1961
 1261TIP3    H125418   2.642   2.815   8.575 -0.6249 -1.2472  2.1620
 1261TIP3    H225419   2.668   2.666   8.568  1.7302 -0.8147 -1.9286
 1262TIP3   OH225420   5.151   1.465   8.606  0.2693  0.3750  0.3715
 1262TIP3    H125421   5.126   1.401   8.539 -1.3518  1.7674 -0.4241
 1262TIP3    H225422   5.137   1.419   8.689  1.4435 -1.0705 -0.1843
 1263TIP3   OH225423   6.685   5.208   1.950 -0.1116 -0.1071 -0.1134
 1263TIP3    H125424   6.751   5.196   2.019  1.7734  1.4947 -1.5495
 1263TIP3    H225425   6.644   5.292   1.971 -0.0230  0.0473 -0.5674
 1264TIP3   OH225426   1.642   0.140   7.441 -0.2548 -0.0651 -0.2402
 1264TIP3    H125427   1.688   0.061   7.411 -1.4410 -0.5054 -0.9651
 1264TIP3    H225428   1.579   0.159   7.371  0.7189  2.1633 -0.6040
 1265TIP3   OH225429   2.367   4.292   7.885  0.3903 -0.0669  0.5206
 1265TIP3    H125430   2.280   4.276   7.921 -0.1155  1.6457  0.1490
 1265TIP3    H225431   2.351   4.335   7.801  1.5901 -0.5452  0.0216
 1266TIP3   OH225432   2.175   2.321   0.740  1.0146  0.3177  0.5383
 1266TIP3    H125433   2.204   2.308   0.650 -1.0630  0.6172 -0.2228
 1266TIP3    H225434   2.152   2.233   0.771 -0.0440  0.4387  0.1169
 1267TIP3   OH225435   3.225   5.179   8.037 -0.2285 -0.5508  0.0567
 1267TIP3    H125436   3.202   5.179   7.944 -0.6634  0.5070  0.1476
 1267TIP3    H225437   3.236   5.271   8.058 -1.4859 -0.6752  1.3850
 1268TIP3   OH225438   3.490   1.494   7.312 -0.2980  0.0488  0.7841
 1268TIP3    H125439   3.546   1.570   7.327  0.4002 -0.2987  0.0285
 1268TIP3    H225440   3.468   1.462   7.399 -0.7816  1.2411  1.1162
 1269TIP3   OH225441   5.980   1.612   1.499 -0.2051  0.3915  0.0484
 1269TIP3    H125442   5.940   1.558   1.430 -0.3068 -0.1518  0.5250
 1269TIP3    H225443   5.936   1.697   1.492 -0.6836  0.1348 -0.1293
 1270TIP3   OH225444   2.005   5.670   7.651  0.1310 -0.2731  0.8387
 1270TIP3    H125445   2.002   5.694   7.744  1.0380  1.1025  0.5575
 1270TIP3    H225446   1.982   5.751   7.605  1.0774 -0.5335 -0.1413
 1271TIP3   OH225447   5.534   1.874   7.458  0.4475  0.0024 -0.2610
 1271TIP3    H125448   5.602   1.880   7.391  2.1187  0.0763  1.3542
 1271TIP3    H225449   5.549   1.788   7.499 -0.0951  0.2399  0.4553
 1272TIP3   OH225450   2.658   6.810   2.230 -0.0057 -0.0550 -0.2410
 1272TIP3    H125451   2.649   6.785   2.322 -0.2752  0.9763  0.0267
 1272TIP3    H225452   2.751   6.830   2.220 -0.1892  1.1158  0.1724
 1273TIP3   OH225453   2.420   1.405   7.837  0.0719  0.0124  0.0515
 1273TIP3    H125454   2.474   1.477   7.804 -0.7022 -0.9081 -3.6325
 1273TIP3    H225455   2.362   1.446   7.901  0.8092  2.3197 -0.6577
 1274TIP3   OH225456   5.611   4.896   1.411 -0.0540  0.2289  0.3508
 1274TIP3    H125457   5.705   4.882   1.425 -0.3024 -2.0363  0.2591
 1274TIP3    H225458   5.578   4.926   1.495  0.7070  0.6904  0.4865
 1275TIP3   OH225459   4.587   3.342   1.637  0.5337 -0.3636 -0.3926
 1275TIP3    H125460   4.549   3.315   1.721 -1.6025  0.6703 -0.9540
 1275TIP3    H225461   4.511   3.360   1.581  1.7491  3.1760 -1.1721
 1276TIP3   OH225462   0.198   2.307   0.932  0.2699  0.0357 -0.1687
 1276TIP3    H125463   0.230   2.397   0.929 -1.7938  0.8514  0.5749
 1276TIP3    H225464   0.161   2.298   1.020  0.4160 -1.5552 -0.2393
 1277TIP3   OH225465   5.611   4.646   1.884  0.1882 -0.2149  0.0376
 1277TIP3    H125466   5.556   4.628   1.807  1.1526  0.6929 -0.8939
 1277TIP3    H225467   5.577   4.729   1.918  0.1557 -0.3093  0.2349
 1278TIP3   OH225468   4.411   6.476   8.727 -0.5430  0.5080  0.0787
 1278TIP3    H125469   4.491   6.529   8.727 -0.2487  0.0822  1.0182
 1278TIP3    H225470   4.441   6.388   8.750 -1.1622  0.1431 -0.4816
 1279TIP3   OH225471   2.728   3.327   8.600  0.1096  0.7876  0.2676
 1279TIP3    H125472   2.790   3.340   8.671 -1.5762 -0.9207  2.1779
 1279TIP3    H225473   2.676   3.251   8.627 -2.2627  1.6218 -1.6236
 1280TIP3   OH225474   0.053   6.139   8.715 -0.2184  0.1476 -0.2897
 1280TIP3    H125475   0.083   6.149   8.805  1.4168  0.1199 -0.8103
 1280TIP3    H225476   0.103   6.204   8.665  0.2278 -1.0475 -1.4534
 1281TIP3   OH225477   5.585   1.264   6.600 -0.3118 -0.2150  0.0127
 1281TIP3    H125478   5.527   1.188   6.599 -0.2175 -0.2879 -1.5021
 1281TIP3    H225479   5.527   1.339   6.595 -0.3189 -0.3074 -2.7470
 1282TIP3   OH225480   3.941   1.500   7.029  0.5581  0.1165 -0.2267
 1282TIP3    H125481   3.846   1.501   7.042  0.4629 -0.4581 -0.8296
 1282TIP3    H225482   3.977   1.486   7.117 -0.0090 -1.8597 -0.2489
 1283TIP3   OH225483   3.567   6.618   8.136  0.3024  0.6199  0.1855
 1283TIP3    H125484   3.564   6.712   8.120 -0.8184  0.9988  2.1738
 1283TIP3    H225485   3.580   6.610   8.231 -0.0341 -1.2229  0.1282
 1284TIP3   OH225486   4.182   2.576   8.257 -0.0833  0.2808  0.5312
 1284TIP3    H125487   4.122   2.501   8.252  0.8964 -0.5503  0.9705
 1284TIP3    H225488   4.175   2.618   8.171 -0.3566 -0.5438  0.1420
 1285TIP3   OH225489   3.386   3.291   0.455  0.2203  0.0537 -0.1772
 1285TIP3    H125490   3.465   3.255   0.416 -0.7335 -0.8042 -1.4320
 1285TIP3    H225491   3.317   3.230   0.428 -0.9402  1.0701  0.4091
 1286TIP3   OH225492   0.104   1.312   7.714 -0.2300  0.1453  0.4756
 1286TIP3    H125493   0.112   1.239   7.652 -1.4729 -0.3716  0.8940
 1286TIP3    H225494   0.080   1.270   7.796 -4.1069  1.1875  0.0464
 1287TIP3   OH225495   0.645   1.598   0.863 -0.2453  0.2904 -0.6546
 1287TIP3    H125496   0.554   1.619   0.845 -0.7809  0.0465  1.4747
 1287TIP3    H225497   0.646   1.573   0.956  2.2465  1.8501 -0.1699
 1288TIP3   OH225498   5.143   6.788   7.876  0.2023 -0.4071 -0.3063
 1288TIP3    H125499   5.097   6.704   7.865 -0.0023 -0.0501 -2.5172
 1288TIP3    H225500   5.073   6.853   7.881  0.3773 -0.2878  1.0073
 1289TIP3   OH225501   6.185   3.986   1.353  0.0472 -0.4533 -0.1295
 1289TIP3    H125502   6.135   3.997   1.434 -0.9929 -0.2494 -0.7643
 1289TIP3    H225503   6.133   4.034   1.287  0.5544 -1.1123 -1.0267
 1290TIP3   OH225504   3.604   1.840   1.327  0.1460  0.1691  0.1658
 1290TIP3    H125505   3.681   1.784   1.319 -0.3732 -0.3604 -1.5535
 1290TIP3    H225506   3.633   1.926   1.300  0.5991  0.4307  1.4397
 1291TIP3   OH225507   5.838   2.987   7.613  0.2404  0.2432  0.0013
 1291TIP3    H125508   5.808   3.022   7.529  0.0854 -0.3105 -0.1774
 1291TIP3    H225509   5.923   3.028   7.627  0.2171  0.4254 -0.3696
 1292TIP3   OH225510   1.595   0.837   8.487  0.0870  0.3314  0.3483
 1292TIP3    H125511   1.605   0.905   8.421 -0.6074  0.2706  0.1726
 1292TIP3    H225512   1.513   0.793   8.465  0.4290 -0.4447  0.5722
 1293TIP3   OH225513   4.457   1.353   7.991  0.9287 -0.6442  0.0023
 1293TIP3    H125514   4.391   1.328   7.927  1.2400 -0.6945 -0.3042
 1293TIP3    H225515   4.527   1.392   7.939 -0.0705  2.0993  0.5371
 1294TIP3   OH225516   6.455   1.627   0.114  0.0338 -0.5116 -0.2110
 1294TIP3    H125517   6.441   1.607   0.207  1.0395 -1.6840 -0.2726
 1294TIP3    H225518   6.399   1.566   0.068 -1.4627  0.9432 -0.4067
 1295TIP3   OH225519   0.250   5.267   7.764 -0.2640 -0.0695 -0.1680
 1295TIP3    H125520   0.246   5.211   7.842 -1.0228 -0.8369 -0.7258
 1295TIP3    H225521   0.162   5.261   7.726  0.0445  0.4143 -0.9942
 1296TIP3   OH225522   2.780   1.221   8.612  0.0377  0.1061  0.3566
 1296TIP3    H125523   2.813   1.281   8.679  1.5959 -0.1383 -0.1433
 1296TIP3    H225524   2.850   1.157   8.601 -0.3328 -0.0757 -1.2329
 1297TIP3   OH225525   5.874   0.869   7.800  0.4169  0.1292  0.3398
 1297TIP3    H125526   5.968   0.853   7.790  0.6511  0.6852  1.5323
 1297TIP3    H225527   5.842   0.880   7.710  1.4031 -0.4810 -0.1042
 1298TIP3   OH225528   1.925   6.360   6.925  0.2826  0.1892 -0.0732
 1298TIP3    H125529   1.863   6.394   6.989  0.2955  1.9946 -0.9673
 1298TIP3    H225530   1.876   6.355   6.843  0.5980 -0.9652 -0.2176
 1299TIP3   OH225531   2.270   0.034   0.358  0.2984  0.6111  0.3359
 1299TIP3    H125532   2.288   0.128   0.360 -1.0102  0.8666  1.4508
 1299TIP3    H225533   2.258   0.010   0.450 -0.9350 -0.3128 -0.0350
 1300TIP3   OH225534   4.983   6.537   8.034 -0.8307 -0.9567  0.0706
 1300TIP3    H125535   4.994   6.538   7.939  0.8003 -0.3548  0.2337
 1300TIP3    H225536   4.919   6.468   8.050 -2.6451  0.2307 -1.5787
 1301TIP3   OH225537   3.650   6.170   1.305 -0.0727  0.3717 -0.2964
 1301TIP3    H125538   3.712   6.109   1.264 -0.0934 -0.7708  1.2353
 1301TIP3    H225539   3.599   6.206   1.233 -1.2127 -2.7415 -1.2050
 1302TIP3   OH225540   3.067   3.407   0.346 -0.1919  0.3104 -0.7203
 1302TIP3    H125541   3.063   3.501   0.331 -1.1004  0.2680 -0.7562
 1302TIP3    H225542   3.117   3.374   0.271  0.9246  0.8541 -0.2365
 1303TIP3   OH225543   0.914   5.886   8.662  1.0629  0.0186 -0.2163
 1303TIP3    H125544   0.860   5.870   8.584 -0.4870 -1.8211  1.1271
 1303TIP3    H225545   0.914   5.802   8.708  1.4924  1.1823  2.0290
 1304TIP3   OH225546   5.164   4.294   6.884 -0.0132 -0.2494  0.0109
 1304TIP3    H125547   5.160   4.353   6.809 -1.7968 -0.3566 -0.0361
 1304TIP3    H225548   5.110   4.219   6.859  0.5657 -0.9615  0.8387
 1305TIP3   OH225549   1.672   5.976   8.171  0.2790 -0.2191 -0.2201
 1305TIP3    H125550   1.754   5.953   8.127  0.3723 -0.6804  0.1872
 1305TIP3    H225551   1.603   5.945   8.112  0.3595  1.2297 -1.1441
 1306TIP3   OH225552   6.218   2.709   7.905 -0.4860 -0.3976  0.4398
 1306TIP3    H125553   6.304   2.751   7.918 -0.9607  0.6579  0.2526
 1306TIP3    H225554   6.175   2.762   7.838 -0.5136 -2.1190 -0.9712
 1307TIP3   OH225555   5.258   6.271   0.472  0.1092  0.5818 -0.3708
 1307TIP3    H125556   5.166   6.251   0.453 -0.5105  0.7793  2.1521
 1307TIP3    H225557   5.307   6.208   0.419 -1.4717  0.1312 -1.3880
 1308TIP3   OH225558   5.167   6.637   8.593 -0.2760 -0.2401 -0.2351
 1308TIP3    H125559   5.128   6.549   8.585  1.8469 -1.1324 -1.5553
 1308TIP3    H225560   5.202   6.639   8.683 -0.7332 -0.5621 -0.0452
 1309TIP3   OH225561   1.533   1.438   1.912  0.0586  0.2766  0.6276
 1309TIP3    H125562   1.589   1.509   1.882  0.0262  0.3943  0.8415
 1309TIP3    H225563   1.594   1.369   1.939  0.0853 -0.4899 -1.2253
 1310TIP3   OH225564   5.806   5.541   7.182  0.1122 -0.3747  0.1054
 1310TIP3    H125565   5.819   5.446   7.188 -1.9428 -0.7711 -0.8436
 1310TIP3    H225566   5.724   5.556   7.229  0.4164  0.9622  0.2458
 1311TIP3   OH225567   5.372   6.069   0.264  0.0158  0.1906 -0.1055
 1311TIP3    H125568   5.379   6.018   0.345  0.7299 -1.2535 -1.0181
 1311TIP3    H225569   5.433   6.026   0.204  1.8128  3.0657 -0.5100
 1312TIP3   OH225570   2.749   6.590   8.654 -0.4579 -0.5479  0.3551
 1312TIP3    H125571   2.772   6.534   8.728  0.5427  0.9272  1.2216
 1312TIP3    H225572   2.654   6.590   8.652 -0.5190 -0.2523  1.9525
 1313TIP3   OH225573   4.358   5.600   7.359  0.3361 -0.0512  0.7976
 1313TIP3    H125574   4.286   5.663   7.357  2.0410  2.0429  1.6475
 1313TIP3    H225575   4.383   5.590   7.267 -1.6648 -1.7099  0.3374
 1314TIP3   OH225576   3.455   0.570   0.053 -0.3741 -0.1862 -0.0964
 1314TIP3    H125577   3.511   0.648   0.047 -0.6517 -0.0490 -0.9942
 1314TIP3    H225578   3.513   0.498   0.031 -0.7272  0.0401 -1.8609
 1315TIP3   OH225579   1.625   3.427   7.738  0.1320 -0.3589 -0.3785
 1315TIP3    H125580   1.544   3.449   7.784  0.2093 -1.5392  0.3688
 1315TIP3    H225581   1.625   3.331   7.735  0.8018 -0.3306 -1.6537
 1316TIP3   OH225582   2.997   0.341   8.138  0.4267 -0.0602 -0.3649
 1316TIP3    H125583   2.986   0.249   8.116 -1.6720  0.3620 -1.2287
 1316TIP3    H225584   3.036   0.339   8.226 -0.3138 -1.7736 -0.0295
 1317TIP3   OH225585   0.030   6.523   8.499 -0.3004 -0.2466 -0.1710
 1317TIP3    H125586   0.009   6.497   8.409  2.7096  2.6916 -1.9566
 1317TIP3    H225587  -0.025   6.600   8.515  0.6882  0.5119 -0.3636
 1318TIP3   OH225588   5.156   0.033   1.779  0.2203 -1.2473  0.7006
 1318TIP3    H125589   5.198   0.099   1.724 -0.3150 -1.8665 -0.4761
 1318TIP3    H225590   5.136   0.079   1.861  1.5502 -0.4732  0.6091
 1319TIP3   OH225591   4.130   3.853   1.570  0.1965  0.3449 -0.5634
 1319TIP3    H125592   4.057   3.904   1.604  0.9272  0.2371  1.2789
 1319TIP3    H225593   4.119   3.766   1.610  0.6581 -0.0371 -1.2443
 1320TIP3   OH225594   1.949   3.985   6.947  0.5630  0.1857  0.2614
 1320TIP3    H125595   1.986   4.005   6.861 -0.7204 -0.7664 -0.5547
 1320TIP3    H225596   1.857   4.011   6.939  0.3859 -0.0870  1.2911
 1321TIP3   OH225597   4.844   2.449   1.352 -0.1174 -0.4221  0.1605
 1321TIP3    H125598   4.882   2.536   1.341  1.3266 -1.1002 -0.5370
 1321TIP3    H225599   4.832   2.440   1.447 -0.4815  0.5944  0.2268
 1322TIP3   OH225600   1.941   5.639   8.282 -0.0354  0.7340 -0.0932
 1322TIP3    H125601   2.006   5.704   8.257 -0.4286  0.9912 -0.4543
 1322TIP3    H225602   1.888   5.682   8.349  0.3267  0.4333  0.3906
 1323TIP3   OH225603   6.466   6.349   7.220  0.2368  0.2289 -0.2623
 1323TIP3    H125604   6.407   6.424   7.231  1.4016  1.0237  0.8149
 1323TIP3    H225605   6.547   6.387   7.186  0.6338 -0.6262 -0.2906
 1324TIP3   OH225606   5.911   5.783   8.535  0.2890  0.3959 -0.2461
 1324TIP3    H125607   5.881   5.847   8.600  0.7691 -0.2125  0.6073
 1324TIP3    H225608   5.874   5.813   8.452  0.9720  2.0947  0.0159
 1325TIP3   OH225609   6.840   4.177   7.919  0.9405 -0.0172  0.1621
 1325TIP3    H125610   6.840   4.264   7.880 -0.1157  1.0270  2.3097
 1325TIP3    H225611   6.906   4.128   7.870  1.4122  1.9109 -1.2262
 1326TIP3   OH225612   4.228   6.163   0.216 -0.2860 -0.0496 -0.3964
 1326TIP3    H125613   4.302   6.107   0.194  0.1630 -0.0217  0.9858
 1326TIP3    H225614   4.264   6.230   0.274 -0.7107  1.9790 -2.3088
 1327TIP3   OH225615   4.921   0.146   8.324  0.1613 -0.0707 -0.5187
 1327TIP3    H125616   4.952   0.057   8.308 -0.2404 -0.2303 -0.4396
 1327TIP3    H225617   4.830   0.134   8.354 -0.6536  0.4678 -2.6006
 1328TIP3   OH225618   4.434   4.307   8.310  0.2213 -0.6970 -0.5997
 1328TIP3    H125619   4.444   4.402   8.310  0.0025 -0.6588  0.8779
 1328TIP3    H225620   4.476   4.279   8.229 -0.4794  0.7299 -1.5018
 1329TIP3   OH225621   1.787   3.411   6.932  0.1785  0.0908  0.5256
 1329TIP3    H125622   1.797   3.427   7.026 -1.6580  0.9317  0.6099
 1329TIP3    H225623   1.732   3.333   6.926  1.1530 -0.5877  0.1197
 1330TIP3   OH225624   5.138   0.611   8.452  0.1613 -0.1661 -0.3228
 1330TIP3    H125625   5.120   0.704   8.467 -1.8197 -0.3798 -1.0334
 1330TIP3    H225626   5.144   0.603   8.357 -0.3961 -0.8721 -0.3062
 1331TIP3   OH225627   1.892   2.944   8.039  0.4996  0.3281 -0.5492
 1331TIP3    H125628   1.983   2.944   8.068  0.2362  2.0445  0.3650
 1331TIP3    H225629   1.884   2.863   7.988  2.0882 -0.6650  0.6796
 1332TIP3   OH225630   6.006   5.391   8.787  0.0198 -0.6731  0.5503
 1332TIP3    H125631   5.919   5.388   8.747  0.4392  0.2169 -0.4766
 1332TIP3    H225632   5.998   5.458   8.855 -0.5318 -1.7788  1.6285
 1333TIP3   OH225633   6.311   4.892   7.638 -0.0253 -0.7862  0.0918
 1333TIP3    H125634   6.229   4.914   7.682 -0.1566  0.1241 -0.5844
 1333TIP3    H225635   6.287   4.879   7.547  0.8796  1.7434 -0.5787
 1334TIP3   OH225636   6.408   5.905   8.815  0.2503 -0.3531 -0.1054
 1334TIP3    H125637   6.390   5.812   8.829 -0.3300 -0.0149  1.6605
 1334TIP3    H225638   6.329   5.949   8.846  0.2022  0.7175 -1.6297
 1335TIP3   OH225639   4.831   1.410   7.823 -0.4739  0.3139  0.4600
 1335TIP3    H125640   4.862   1.488   7.869  1.5713  0.2047 -0.5954
 1335TIP3    H225641   4.875   1.338   7.867 -0.9239 -0.0744  0.2779
 1336TIP3   OH225642   5.260   1.894   1.485 -0.3873 -0.1932 -0.3949
 1336TIP3    H125643   5.323   1.904   1.413 -0.6360 -0.3469 -0.6356
 1336TIP3    H225644   5.256   1.981   1.525  1.4610 -0.6183  0.8768
 1337TIP3   OH225645   5.692   1.222   6.865  1.0921  0.3826  0.0308
 1337TIP3    H125646   5.678   1.248   6.774 -0.6189  1.4408  0.5479
 1337TIP3    H225647   5.604   1.216   6.902  1.7518  2.3581  2.2307
 1338TIP3   OH225648   6.678   6.560   7.892  0.3538 -0.4753  0.0286
 1338TIP3    H125649   6.599   6.586   7.938  1.6096  0.5281  1.7456
 1338TIP3    H225650   6.666   6.593   7.803 -1.4479 -1.0318  0.0335
 1339TIP3   OH225651   5.379   5.412   0.641  0.3714  0.1107  0.4214
 1339TIP3    H125652   5.321   5.336   0.628  1.4450 -1.1535  2.3609
 1339TIP3    H225653   5.333   5.466   0.706  0.1286  0.5321 -0.0995
 1340TIP3   OH225654   3.476   3.264   1.506  0.6282 -0.6113 -0.5903
 1340TIP3    H125655   3.468   3.271   1.601  1.6737  2.3278 -0.6163
 1340TIP3    H225656   3.389   3.287   1.473  0.8392  0.5650 -0.3583
 1341TIP3   OH225657   4.789   2.243   8.121 -0.5067 -0.6173 -0.2320
 1341TIP3    H125658   4.762   2.199   8.041 -0.7822  1.5783 -1.4050
 1341TIP3    H225659   4.794   2.335   8.098  0.9225 -0.0912  1.8849
 1342TIP3   OH225660   3.621   0.788   2.316 -0.8549  0.4353 -0.4646
 1342TIP3    H125661   3.669   0.857   2.270 -2.8011  0.6294 -2.4078
 1342TIP3    H225662   3.529   0.816   2.311 -1.4173 -0.9194  1.2329
 1343TIP3   OH225663   4.228   5.968   8.664  0.5338  0.1489 -0.3837
 1343TIP3    H125664   4.161   5.999   8.725  0.8699  2.1005 -0.9509
 1343TIP3    H225665   4.182   5.902   8.611 -0.0771 -0.7208  1.1576
 1344TIP3   OH225666   6.702   5.650   1.604 -0.5003  0.9971 -0.6829
 1344TIP3    H125667   6.630   5.617   1.658  0.1533 -0.7015 -0.7847
 1344TIP3    H225668   6.748   5.712   1.661  1.1435 -1.9272  1.4845
 1345TIP3   OH225669   2.692   2.145   7.233  0.3839 -0.3363 -0.4108
 1345TIP3    H125670   2.768   2.099   7.270  0.4398 -0.9658 -1.2795
 1345TIP3    H225671   2.728   2.195   7.160  0.3212  1.1105  0.5145
 1346TIP3   OH225672   0.077   1.612   8.344 -0.0918 -0.1380 -0.6639
 1346TIP3    H125673   0.073   1.548   8.415 -1.4199  2.8726  2.2896
 1346TIP3    H225674   0.169   1.637   8.339  0.4444 -2.0922 -1.8592
 1347TIP3   OH225675   0.507   2.201   6.903  0.2821  0.4473  0.5753
 1347TIP3    H125676   0.463   2.129   6.858  0.0530  1.7960 -1.5117
 1347TIP3    H225677   0.597   2.172   6.914 -0.1538 -0.7283  1.1076
 1348TIP3   OH225678   5.751   0.256   8.227 -0.1940 -0.4386 -0.1266
 1348TIP3    H125679   5.828   0.274   8.282  0.4518 -0.1635 -1.0893
 1348TIP3    H225680   5.704   0.186   8.272 -1.0332  1.4293  2.0789
 1349TIP3   OH225681   1.448   4.589   6.829  0.1120 -0.3400  0.4616
 1349TIP3    H125682   1.433   4.540   6.748  0.6278  0.5624 -0.2002
 1349TIP3    H225683   1.525   4.643   6.810 -1.0233  1.4715  0.8148
 1350TIP3   OH225684   4.663   6.667   6.927 -0.9307 -0.2407  0.6020
 1350TIP3    H125685   4.578   6.634   6.954 -2.8019  2.7285 -1.1366
 1350TIP3    H225686   4.671   6.642   6.835  1.3896 -2.6890  1.3138
 1351TIP3   OH225687   3.334   2.450   0.060 -0.0454  0.2659 -0.3269
 1351TIP3    H125688   3.370   2.528   0.020 -0.7408  0.5268 -0.4679
 1351TIP3    H225689   3.348   2.381  -0.005  1.7062 -0.0318  0.3088
 1352TIP3   OH225690   2.059   3.523   8.583 -0.4833  0.6814  0.1179
 1352TIP3    H125691   2.025   3.490   8.666 -2.6075 -0.6831 -1.1721
 1352TIP3    H225692   2.153   3.508   8.587 -0.6055  0.1303  2.0156
 1353TIP3   OH225693   2.589   3.050   1.612 -0.3999  0.2622 -0.2296
 1353TIP3    H125694   2.660   3.056   1.675  0.2388 -0.1053 -0.9004
 1353TIP3    H225695   2.615   3.109   1.541 -1.4690  1.2626  0.1781
 1354TIP3   OH225696   0.254   4.971   6.408  0.4405  0.1228  0.3208
 1354TIP3    H125697   0.321   5.032   6.375  0.4359 -0.4488 -0.8108
 1354TIP3    H225698   0.171   5.013   6.385  0.3680  1.0253  2.0828
 1355TIP3   OH225699   2.542   4.480   0.301 -0.3585 -0.4644 -0.5800
 1355TIP3    H125700   2.491   4.420   0.247  0.1202 -1.1762 -0.2668
 1355TIP3    H225701   2.502   4.474   0.388 -0.6696  0.1157 -0.6813
 1356TIP3   OH225702   0.456   3.703   8.160 -0.5057 -0.2579 -0.3035
 1356TIP3    H125703   0.520   3.650   8.209 -0.8809  0.2661  0.7804
 1356TIP3    H225704   0.373   3.656   8.170 -0.8629  0.5591  0.7532
 1357TIP3   OH225705   1.594   2.917   0.745  0.1424 -0.0220 -0.0243
 1357TIP3    H125706   1.589   2.834   0.793  3.7742 -0.2041  0.2742
 1357TIP3    H225707   1.534   2.975   0.793 -1.4886 -2.0471  0.5443
 1358TIP3   OH225708   4.820   3.829   1.608  0.0658  0.0959  0.6960
 1358TIP3    H125709   4.797   3.882   1.684 -3.4712 -0.1482 -0.0222
 1358TIP3    H225710   4.790   3.741   1.630  0.8845 -0.4239 -0.1946
 1359TIP3   OH225711   6.123   3.892   0.408  0.1230  0.5413  0.1816
 1359TIP3    H125712   6.121   3.798   0.425  0.1160  0.6151  0.6077
 1359TIP3    H225713   6.142   3.931   0.493  0.8522  0.8891 -0.1296
 1360TIP3   OH225714   5.351   4.363   0.375  0.5799 -0.1574 -0.0969
 1360TIP3    H125715   5.334   4.286   0.321  0.1038  0.2187 -0.4903
 1360TIP3    H225716   5.428   4.339   0.427 -0.1035 -1.2524  0.4666
 1361TIP3   OH225717   6.169   2.501   8.667 -0.2452  0.3681 -0.2166
 1361TIP3    H125718   6.251   2.499   8.717 -2.2121 -2.0819  3.3914
 1361TIP3    H225719   6.160   2.592   8.640  2.1329  1.4426  2.1105
 1362TIP3   OH225720   0.338   1.035   7.245 -0.3370  0.0564 -0.5421
 1362TIP3    H125721   0.382   1.059   7.163 -0.1511  0.9999 -0.1839
 1362TIP3    H225722   0.369   1.100   7.308 -1.1028 -0.1734  0.0789
 1363TIP3   OH225723   0.250   1.667   7.129  0.2098  0.0886  0.0589
 1363TIP3    H125724   0.316   1.735   7.123 -0.0057  0.6753  2.8566
 1363TIP3    H225725   0.181   1.694   7.068  0.9767  1.3224 -0.2915
 1364TIP3   OH225726   6.031   1.837   6.839  0.0434 -0.0266  0.9581
 1364TIP3    H125727   6.088   1.913   6.834  0.7257 -0.4855  1.6390
 1364TIP3    H225728   6.027   1.803   6.749  1.2591 -0.2896  0.9865
 1365TIP3   OH225729   2.718   6.750   0.741  0.7482 -0.7432 -0.2660
 1365TIP3    H125730   2.704   6.731   0.649  1.0620 -0.3447 -0.3964
 1365TIP3    H225731   2.629   6.759   0.777  0.6105 -1.7115 -0.3482
 1366TIP3   OH225732   6.277   5.381   8.831 -0.6921 -0.3942  0.1979
 1366TIP3    H125733   6.277   5.475   8.814 -1.2826 -0.3814  0.2467
 1366TIP3    H225734   6.185   5.356   8.826 -0.4703 -1.1012 -0.5091
 1367TIP3   OH225735   6.101   2.302   8.224  0.7187 -0.5428  0.0013
 1367TIP3    H125736   6.098   2.257   8.308  0.2874  0.5570  0.5995
 1367TIP3    H225737   6.010   2.307   8.195  0.8895 -1.1861 -0.7011
 1368TIP3   OH225738   2.627   4.080   0.142 -0.1954 -0.3857  0.3473
 1368TIP3    H125739   2.609   4.053   0.232 -2.8589  2.2199  0.7277
 1368TIP3    H225740   2.547   4.058   0.094  0.9461 -1.1402 -1.2986
 1369TIP3   OH225741   4.142   4.124   8.295  0.0372  0.0851 -0.3664
 1369TIP3    H125742   4.093   4.196   8.255  0.5802  1.5154  1.3981
 1369TIP3    H225743   4.224   4.165   8.324  1.0315 -1.6102 -0.6804
 1370TIP3   OH225744   0.412   5.114   8.522 -0.2162  0.5442  0.2168
 1370TIP3    H125745   0.464   5.171   8.465  0.6879 -0.0795  0.4025
 1370TIP3    H225746   0.402   5.163   8.604 -0.8726  1.1218 -0.1935
 1371TIP3   OH225747   0.615   2.939   7.262 -0.8313  0.2758 -0.1146
 1371TIP3    H125748   0.665   2.969   7.338 -0.2559 -2.3595  0.6529
 1371TIP3    H225749   0.645   2.993   7.190  1.4159  0.3507  0.8178
 1372TIP3   OH225750   5.502   2.436   7.564 -0.4052  0.9645 -0.6891
 1372TIP3    H125751   5.436   2.432   7.634  0.4882  0.8375  0.1580
 1372TIP3    H225752   5.505   2.529   7.541  0.2034  1.2119  0.3362
 1373TIP3   OH225753   6.842   5.878   7.627  0.1926  0.2701  0.0738
 1373TIP3    H125754   6.827   5.973   7.626  0.2237  0.3006  1.1250
 1373TIP3    H225755   6.932   5.868   7.598 -0.3637  0.4079 -1.8684
 1374TIP3   OH225756   4.215   3.174   8.421 -0.0411  0.0965 -0.0916
 1374TIP3    H125757   4.196   3.104   8.482  1.4643  0.3937  0.7568
 1374TIP3    H225758   4.135   3.227   8.420 -0.0967  0.1012  1.6475
 1375TIP3   OH225759   5.257   6.231   0.070  0.4426  0.2123 -0.1902
 1375TIP3    H125760   5.268   6.179   0.149 -1.3494  1.4325  0.9265
 1375TIP3    H225761   5.327   6.297   0.075 -0.1422  0.7718  0.8074
 1376TIP3   OH225762   1.699   2.767   1.889  0.1313 -0.3844  0.0944
 1376TIP3    H125763   1.733   2.714   1.961  0.3363  1.1562  1.1631
 1376TIP3    H225764   1.612   2.731   1.872  1.5307 -3.3410 -1.6115
 1377TIP3   OH225765   5.748   5.020   7.411  0.6251 -0.3463  0.1331
 1377TIP3    H125766   5.705   5.102   7.436  0.5209 -0.7717  1.4720
 1377TIP3    H225767   5.841   5.042   7.409  0.6758 -0.3509  1.3054
 1378TIP3   OH225768   0.774   3.432   8.575  0.4884 -0.8601 -0.2757
 1378TIP3    H125769   0.724   3.392   8.504  0.7064 -1.6774  0.0286
 1378TIP3    H225770   0.775   3.366   8.644  1.9962 -0.8662 -0.2820
 1379TIP3   OH225771   4.648   1.880   1.597  0.0478 -0.2069 -0.0121
 1379TIP3    H125772   4.637   1.786   1.603  1.8711 -0.3800  2.0403
 1379TIP3    H225773   4.608   1.914   1.677  2.0344  0.3865  0.8069
 1380TIP3   OH225774   5.711   4.428   7.107 -0.0845  0.1746  0.3286
 1380TIP3    H125775   5.717   4.335   7.128 -1.2908 -0.7766 -3.0308
 1380TIP3    H225776   5.621   4.440   7.077  1.2057  1.2965 -3.6282
 1381TIP3   OH225777   1.871   1.551   7.750  0.4696  0.2488  0.4304
 1381TIP3    H125778   1.948   1.609   7.746 -0.1829  1.0747 -0.5919
 1381TIP3    H225779   1.887   1.485   7.683  0.2012  0.5555  0.0556
 1382TIP3   OH225780   3.350   5.640   6.308  0.4704 -0.8709  0.2174
 1382TIP3    H125781   3.356   5.680   6.395  1.2262  0.1579 -0.2902
 1382TIP3    H225782   3.322   5.711   6.251  0.2506 -1.4709 -0.4311
 1383TIP3   OH225783   0.993   3.006   1.114  0.3132 -0.4755  0.3904
 1383TIP3    H125784   1.042   3.048   1.043 -0.7850 -1.3595 -0.9325
 1383TIP3    H225785   0.985   3.075   1.181  0.8142  0.5846 -0.6062
 1384TIP3   OH225786   6.487   3.196   0.343  0.0913  0.1722  0.5542
 1384TIP3    H125787   6.406   3.208   0.292 -0.7293 -1.5803  1.3528
 1384TIP3    H225788   6.456   3.168   0.429  1.5657 -0.2495  0.9652
 1385TIP3   OH225789   0.357   4.829   8.505 -0.0963 -0.0165  0.7480
 1385TIP3    H125790   0.370   4.923   8.495  0.9435 -0.2391 -0.3261
 1385TIP3    H225791   0.331   4.800   8.418  3.1995 -1.2117  0.0174
 1386TIP3   OH225792   5.278   2.788   7.279 -0.5788  0.1993 -0.4009
 1386TIP3    H125793   5.286   2.723   7.209  0.9638 -1.6300  1.3609
 1386TIP3    H225794   5.185   2.806   7.285 -0.7705  0.4210 -2.8895
 1387TIP3   OH225795   6.510   1.771   0.588  1.1043 -0.1612  0.2442
 1387TIP3    H125796   6.498   1.823   0.668  0.7480  1.0156 -0.5417
 1387TIP3    H225797   6.421   1.754   0.557  1.2246 -1.1117  0.3881
 1388TIP3   OH225798   4.045   4.651   1.155  0.3375 -0.3393  0.1709
 1388TIP3    H125799   4.033   4.734   1.110 -0.7328  0.0662  1.1410
 1388TIP3    H225800   4.105   4.671   1.227 -1.0465 -0.0455  1.2730
 1389TIP3   OH225801   3.622   6.601   7.869  0.7941 -0.0845  0.0782
 1389TIP3    H125802   3.688   6.666   7.892 -1.2679  2.2009 -0.1849
 1389TIP3    H225803   3.563   6.599   7.944  0.3432 -1.0351 -0.2897
 1390TIP3   OH225804   2.717   3.576   0.413 -0.6010  0.1160 -0.2568
 1390TIP3    H125805   2.762   3.516   0.353 -1.7600  1.0783 -2.1800
 1390TIP3    H225806   2.702   3.655   0.361 -1.5345  1.0519  1.3674
 1391TIP3   OH225807   5.543   0.807   0.973 -0.3885 -0.0294 -0.0813
 1391TIP3    H125808   5.493   0.864   1.031 -0.0845 -1.4024  1.6111
 1391TIP3    H225809   5.520   0.718   1.000  0.9147 -0.7124 -1.0719
 1392TIP3   OH225810   1.620   3.211   0.919  0.3411 -0.0232  0.8964
 1392TIP3    H125811   1.709   3.184   0.895  0.9826  1.9949  0.8095
 1392TIP3    H225812   1.566   3.184   0.845  1.2691  0.5838 -0.0347
 1393TIP3   OH225813   5.128   1.175   7.025  0.0931  0.1102 -0.5400
 1393TIP3    H125814   5.207   1.120   7.029 -0.6014 -1.0207 -1.6696
 1393TIP3    H225815   5.142   1.232   6.949  0.2296  0.5781 -0.1682
 1394TIP3   OH225816   2.510   3.283   1.053  0.3218  0.2613 -0.3571
 1394TIP3    H125817   2.469   3.224   0.990  2.1803 -0.9420 -0.5176
 1394TIP3    H225818   2.437   3.330   1.092 -1.2737 -2.0488 -0.3171
 1395TIP3   OH225819   0.561   5.984   0.097  0.0689  0.5534  0.3665
 1395TIP3    H125820   0.624   5.938   0.153  1.0449 -0.0010 -1.1167
 1395TIP3    H225821   0.615   6.025   0.030 -1.1048  0.6533 -0.5450
 1396TIP3   OH225822   4.286   0.891   8.400 -0.6279 -0.7034 -0.3289
 1396TIP3    H125823   4.249   0.804   8.387 -2.4755 -0.3888  2.1491
 1396TIP3    H225824   4.211   0.950   8.400  0.5928  0.9947 -2.1816
 1397TIP3   OH225825   5.416   5.567   1.593 -0.0516 -0.7176 -0.1170
 1397TIP3    H125826   5.458   5.486   1.623 -1.0173 -0.6804  1.4654
 1397TIP3    H225827   5.417   5.624   1.670  1.1740  1.0643 -1.3612
 1398TIP3   OH225828   6.345   3.468   7.435 -0.2772 -0.1428  0.4106
 1398TIP3    H125829   6.271   3.528   7.440  0.8046  1.2445  0.4776
 1398TIP3    H225830   6.402   3.505   7.367  0.3303 -1.2047  0.3122
 1399TIP3   OH225831   2.592   0.808   8.536  0.7263  0.3607 -0.5300
 1399TIP3    H125832   2.524   0.742   8.546 -0.0787  1.4605  1.9819
 1399TIP3    H225833   2.652   0.771   8.470 -0.7185 -1.9418 -0.6528
 1400TIP3   OH225834   4.940   0.677   8.023 -0.4832  0.0077 -0.3816
 1400TIP3    H125835   4.960   0.743   8.090 -0.2763 -0.9298  0.4997
 1400TIP3    H225836   4.906   0.602   8.072 -0.3656 -0.6845 -1.3301
 1401TIP3   OH225837   3.236   1.752   0.146  0.0002 -0.0837 -0.0238
 1401TIP3    H125838   3.282   1.700   0.081  1.0093 -0.6967  1.1654
 1401TIP3    H225839   3.144   1.748   0.119  0.3832 -0.4009 -1.3400
 1402TIP3   OH225840   3.589   6.738   0.214  0.0074  0.3397  0.0387
 1402TIP3    H125841   3.578   6.746   0.308 -1.9600 -1.8466  0.0869
 1402TIP3    H225842   3.531   6.804   0.176 -2.0745 -1.1760  0.4150
 1403TIP3   OH225843   1.727   3.482   0.837  0.0418  0.0269 -0.3016
 1403TIP3    H125844   1.664   3.424   0.794  1.0806 -0.5280 -1.1281
 1403TIP3    H225845   1.784   3.423   0.887 -0.5764  0.5869  1.1251
 1404TIP3   OH225846   4.268   3.813   2.118  0.1290  0.4643 -0.3828
 1404TIP3    H125847   4.182   3.772   2.118  0.1836  0.3530 -0.1111
 1404TIP3    H225848   4.268   3.871   2.194  0.4621  0.1133 -0.1116
 1405TIP3   OH225849   1.157   1.446   0.749 -0.2730 -0.8740 -0.0339
 1405TIP3    H125850   1.081   1.444   0.808 -0.1547 -1.1336  0.1097
 1405TIP3    H225851   1.176   1.539   0.738 -1.2952 -0.7408 -0.9413
 1406TIP3   OH225852   1.870   0.216   7.987 -0.4692  0.6146 -0.2887
 1406TIP3    H125853   1.774   0.211   7.977 -0.6968 -0.7365  2.0056
 1406TIP3    H225854   1.883   0.268   8.067  0.6968  0.1414 -0.1565
 1407TIP3   OH225855   4.563   0.351   8.804 -0.5490  0.0509 -0.2451
 1407TIP3    H125856   4.513   0.280   8.763 -1.6404  0.0412  1.0088
 1407TIP3    H225857   4.609   0.310   8.876  2.9267 -0.3160 -2.4754
 1408TIP3   OH225858   6.305   2.162   7.878 -0.1438  0.3629 -0.0514
 1408TIP3    H125859   6.302   2.149   7.973  0.1249 -0.2798 -0.1224
 1408TIP3    H225860   6.277   2.077   7.842 -1.6040  1.0240 -0.5399
 1409TIP3   OH225861   3.336   5.048   0.608  0.4203 -0.1114  0.2522
 1409TIP3    H125862   3.339   5.139   0.635 -0.8692  0.7644 -2.2256
 1409TIP3    H225863   3.257   5.013   0.648  0.9730 -0.2124  1.2931
 1410TIP3   OH225864   6.244   3.248   8.301 -0.2920  0.1047  0.1584
 1410TIP3    H125865   6.258   3.339   8.275  0.3262  0.2802  1.0497
 1410TIP3    H225866   6.259   3.197   8.222 -1.1148  0.8054 -0.4689
 1411TIP3   OH225867   0.757   3.301   1.691 -0.3660 -0.2221  0.6887
 1411TIP3    H125868   0.791   3.387   1.716 -0.1874 -0.4785  1.3545
 1411TIP3    H225869   0.807   3.239   1.744 -1.6497 -0.6315  1.4694
 1412TIP3   OH225870   4.429   2.733   6.712 -0.3396  0.0316  0.0002
 1412TIP3    H125871   4.477   2.755   6.633 -1.2837 -0.5943 -0.7798
 1412TIP3    H225872   4.495   2.730   6.781  0.4496  0.8894 -0.6944
 1413TIP3   OH225873   2.316   2.488   0.877 -0.7102  0.2140 -0.5334
 1413TIP3    H125874   2.263   2.424   0.830 -1.8791  1.2022 -0.5838
 1413TIP3    H225875   2.391   2.503   0.820 -0.8900 -0.4125 -0.9446
 1414TIP3   OH225876   3.467   0.757   0.715  0.2257  0.1153 -0.0631
 1414TIP3    H125877   3.523   0.826   0.679 -0.2551  0.0175 -1.0530
 1414TIP3    H225878   3.427   0.796   0.793  0.2099  0.8482 -0.4324
 1415TIP3   OH225879   5.951   1.602   7.606 -0.3255 -0.5055 -0.6324
 1415TIP3    H125880   5.892   1.605   7.682 -2.0467  0.8936 -1.9414
 1415TIP3    H225881   6.038   1.613   7.644 -1.1859  0.9109  1.1152
 1416TIP3   OH225882   5.338   6.122   8.673 -0.2605  0.2219 -1.0410
 1416TIP3    H125883   5.253   6.079   8.668 -0.4344  0.1903  1.1531
 1416TIP3    H225884   5.342   6.157   8.762  0.7058  3.0229 -2.0755
 1417TIP3   OH225885   0.761   6.050   6.508 -0.5618 -0.1920 -0.9998
 1417TIP3    H125886   0.784   6.089   6.424  0.7479 -0.8247 -0.9716
 1417TIP3    H225887   0.705   5.975   6.486 -1.8107  0.7653 -1.1550
 1418TIP3   OH225888   3.056   0.418   2.116 -0.4199  0.0479 -0.8470
 1418TIP3    H125889   2.979   0.368   2.144 -0.0620  0.3335  0.7633
 1418TIP3    H225890   3.026   0.508   2.111 -0.0359  0.2808  0.5745
 1419TIP3   OH225891   4.487   6.750   0.277 -0.3395  0.2934 -0.1651
 1419TIP3    H125892   4.495   6.766   0.371  1.2516  0.6708 -0.3415
 1419TIP3    H225893   4.452   6.661   0.271 -1.3304  0.5853  0.7649
 1420TIP3   OH225894   5.935   0.329   8.431  0.3275  0.2604  0.0929
 1420TIP3    H125895   5.948   0.383   8.509  1.7526  0.8221 -0.4962
 1420TIP3    H225896   6.014   0.275   8.426 -0.4075 -0.8341 -0.1676
 1421TIP3   OH225897   6.851   6.572   1.227  0.1794 -0.2301  0.0817
 1421TIP3    H125898   6.921   6.623   1.268  0.4076  0.7677 -1.4479
 1421TIP3    H225899   6.874   6.481   1.245  2.1772  0.0423 -0.7847
 1422TIP3   OH225900   2.851   6.305   8.641 -0.2008 -0.1927 -0.0283
 1422TIP3    H125901   2.812   6.222   8.615  1.1749 -1.2537  1.1367
 1422TIP3    H225902   2.787   6.343   8.702 -0.4377 -0.8167  0.1197
 1423TIP3   OH225903   1.231   1.713   0.862 -0.4280 -0.0753  0.4633
 1423TIP3    H125904   1.274   1.795   0.886  0.7987  0.1238 -2.1102
 1423TIP3    H225905   1.301   1.647   0.868 -1.3816 -0.9957  2.4286
 1424TIP3   OH225906   6.086   0.305   7.954 -0.2543 -0.0639 -0.6204
 1424TIP3    H125907   6.014   0.242   7.959  0.8738 -1.5082 -1.8734
 1424TIP3    H225908   6.043   0.388   7.933 -1.5881 -0.8095 -0.9828
 1425TIP3   OH225909   3.953   3.826   1.893 -0.1341  0.3089  0.4972
 1425TIP3    H125910   3.867   3.838   1.933 -0.4906  0.7904 -0.3853
 1425TIP3    H225911   4.000   3.907   1.915  0.3911 -0.2915  1.6667
 1426TIP3   OH225912   5.196   3.592   7.395 -0.0600  0.5116 -0.5038
 1426TIP3    H125913   5.219   3.609   7.304 -0.4061 -1.5019 -1.0298
 1426TIP3    H225914   5.158   3.504   7.394 -3.0920  1.6274  1.0735
 1427TIP3   OH225915   0.257   2.071   8.164 -0.6979  0.1047 -0.0735
 1427TIP3    H125916   0.326   2.132   8.190 -0.4806 -0.5813  1.0531
 1427TIP3    H225917   0.303   1.989   8.147 -0.9824  0.2235 -1.5810
 1428TIP3   OH225918   5.766   2.793   0.131 -0.3490 -0.2730  0.3803
 1428TIP3    H125919   5.680   2.828   0.157 -1.3364 -1.1327 -1.5526
 1428TIP3    H225920   5.745   2.714   0.082  1.5081  0.0578 -1.0152
 1429TIP3   OH225921   0.184   0.209   1.687 -0.1471  0.2190 -0.3131
 1429TIP3    H125922   0.152   0.171   1.769 -0.9650  2.3079  0.4127
 1429TIP3    H225923   0.105   0.226   1.636  0.3225 -0.6257 -1.3592
 1430TIP3   OH225924   0.786   5.179   1.038 -0.3208  0.1046  0.3579
 1430TIP3    H125925   0.795   5.275   1.042  1.3781  0.0554 -0.9468
 1430TIP3    H225926   0.759   5.161   0.948  1.4394 -0.7015 -0.0651
 1431TIP3   OH225927   4.401   4.400   7.400 -0.2891  0.5399 -0.2489
 1431TIP3    H125928   4.419   4.494   7.393  0.3004  0.4367 -0.1290
 1431TIP3    H225929   4.484   4.361   7.425 -0.4520 -0.0601 -0.6139
 1432TIP3   OH225930   4.998   5.572   0.132 -0.5109  0.1215 -0.2447
 1432TIP3    H125931   5.081   5.619   0.119  0.4387 -1.0503  1.1857
 1432TIP3    H225932   4.984   5.525   0.049 -1.0826  2.2445 -1.4093
 1433TIP3   OH225933   1.312   4.899   0.633 -0.4419 -0.2116 -0.0133
 1433TIP3    H125934   1.303   4.978   0.687  0.2263 -0.3670  0.3323
 1433TIP3    H225935   1.406   4.881   0.632 -0.4240 -0.1228 -1.3813
 1434TIP3   OH225936   5.809   5.922   8.304 -0.4436  0.1153  0.3812
 1434TIP3    H125937   5.803   5.870   8.223  1.4806 -1.0469  0.9048
 1434TIP3    H225938   5.721   5.957   8.317 -1.5465 -2.0761 -0.6414
 1435TIP3   OH225939   2.387   0.175   1.577  0.7867 -0.2148  0.6090
 1435TIP3    H125940   2.361   0.267   1.578 -1.4935 -0.7971  0.9247
 1435TIP3    H225941   2.380   0.146   1.668  0.0473 -1.0324  0.3118
 1436TIP3   OH225942   4.557   2.128   1.825 -0.2529 -0.0576 -0.8114
 1436TIP3    H125943   4.570   2.183   1.748  0.8618 -0.4357 -0.9097
 1436TIP3    H225944   4.512   2.050   1.792  1.0963 -0.6630 -1.2802
 1437TIP3   OH225945   6.429   6.546   7.524  0.2036 -0.2707  0.0934
 1437TIP3    H125946   6.348   6.533   7.473  0.3825  1.4777 -0.7170
 1437TIP3    H225947   6.492   6.580   7.460  1.0647  0.0315  1.0795
 1438TIP3   OH225948   2.689   4.834   6.784  0.2531 -0.2855 -0.6062
 1438TIP3    H125949   2.673   4.741   6.773  0.4419 -0.4622  0.5229
 1438TIP3    H225950   2.602   4.874   6.786  0.1286 -0.5844  0.0863
 1439TIP3   OH225951   0.407   2.352   7.663 -0.1416  0.7885 -0.3192
 1439TIP3    H125952   0.385   2.404   7.740  1.3445  0.8996  0.0613
 1439TIP3    H225953   0.437   2.416   7.599 -1.4806  0.7104 -1.0608
 1440TIP3   OH225954   3.702   3.477   0.961  0.7521 -0.1836 -0.2332
 1440TIP3    H125955   3.677   3.389   0.988  0.2058  0.1862  0.5147
 1440TIP3    H225956   3.623   3.513   0.920  1.0943 -0.1784 -0.8950
 1441TIP3   OH225957   0.866   3.602   6.033 -0.6645  0.8060 -0.1310
 1441TIP3    H125958   0.954   3.633   6.055 -0.4894  1.9114 -2.1717
 1441TIP3    H225959   0.822   3.593   6.118  1.9942 -1.8555  1.1940
 1442TIP3   OH225960   2.165   2.366   8.709  0.0288  0.3908  0.4406
 1442TIP3    H125961   2.080   2.387   8.670  0.7824  3.3118  0.1242
 1442TIP3    H225962   2.148   2.361   8.803 -0.6335  0.0230  0.3080
 1443TIP3   OH225963   1.959   4.466   1.527 -0.2819 -0.1161  0.3221
 1443TIP3    H125964   1.895   4.494   1.462  0.8631 -2.6043 -2.0849
 1443TIP3    H225965   1.977   4.545   1.578 -3.0717  1.3611 -0.7437
 1444TIP3   OH225966   4.328   1.296   1.950 -0.0724 -0.0460  0.1105
 1444TIP3    H125967   4.334   1.201   1.962  0.3670 -0.0975 -0.4792
 1444TIP3    H225968   4.393   1.331   2.010  0.4901 -0.1799 -0.4073
 1445TIP3   OH225969   5.861   2.811   0.615  0.4877  0.5080  0.5980
 1445TIP3    H125970   5.853   2.902   0.642 -4.1059  0.5836 -0.2207
 1445TIP3    H225971   5.836   2.761   0.693 -1.0312  0.1994 -0.0552
 1446TIP3   OH225972   6.455   3.282   7.060 -0.6974 -0.0904 -0.3229
 1446TIP3    H125973   6.496   3.196   7.066 -1.1259 -0.3900 -1.3545
 1446TIP3    H225974   6.361   3.264   7.072 -0.7145  0.3489  0.2619
 1447TIP3   OH225975   4.319   1.529   0.243 -0.2603  0.0468  0.2335
 1447TIP3    H125976   4.358   1.591   0.181 -0.0002  0.2248  0.5700
 1447TIP3    H225977   4.225   1.533   0.226 -0.1224 -0.5673 -0.7562
 1448TIP3   OH225978   2.413   6.033   7.116 -0.1102 -0.5647 -0.2979
 1448TIP3    H125979   2.417   6.128   7.101  1.8409 -0.9178 -2.6862
 1448TIP3    H225980   2.495   6.013   7.161 -1.0593 -1.0124  1.2994
 1449TIP3   OH225981   5.235   1.826   7.424  0.6378  0.0921 -0.0622
 1449TIP3    H125982   5.319   1.863   7.450  0.4441  0.7843 -0.4045
 1449TIP3    H225983   5.192   1.805   7.507  0.9012  0.3049  0.1290
 1450TIP3   OH225984   5.513   2.785   8.690  0.5866 -0.8043 -0.1523
 1450TIP3    H125985   5.540   2.838   8.765  1.4935 -1.4143 -0.0291
 1450TIP3    H225986   5.588   2.727   8.673  0.3030 -0.8513 -1.3704
 1451TIP3   OH225987   5.761   4.134   8.459  0.1022  0.1731 -0.0092
 1451TIP3    H125988   5.719   4.077   8.524  1.4394  0.0726  0.7925
 1451TIP3    H225989   5.815   4.074   8.406 -0.0253  0.4302 -0.4375
 1452TIP3   OH225990   2.790   2.710   1.791 -0.0610 -0.1507  0.0622
 1452TIP3    H125991   2.815   2.696   1.882  0.6189 -2.1794 -0.3729
 1452TIP3    H225992   2.726   2.640   1.773 -2.5973  2.0699 -0.1976
 1453TIP3   OH225993   4.680   5.011   8.178  0.1924 -0.0664 -0.1935
 1453TIP3    H125994   4.618   4.951   8.218 -1.3262  1.6111  0.0895
 1453TIP3    H225995   4.663   5.096   8.219  0.7148  1.0564 -2.1163
 1454TIP3   OH225996   6.693   4.793   6.806  0.6881 -0.1369  0.0105
 1454TIP3    H125997   6.618   4.848   6.830  1.4343 -0.0069  2.2548
 1454TIP3    H225998   6.751   4.852   6.758  1.1422  0.9066  1.7558
 1455TIP3   OH225999   5.537   2.467   8.547 -0.5001 -0.0635  0.3449
 1455TIP3    H126000   5.594   2.490   8.620 -1.1675  1.2353  0.4852
 1455TIP3    H226001   5.573   2.384   8.514  1.9994  1.1170 -0.1486
 1456TIP3   OH226002   4.156   5.730   7.221  0.1673 -0.5521  0.2351
 1456TIP3    H126003   4.134   5.717   7.129  0.7914 -1.8315  0.2484
 1456TIP3    H226004   4.074   5.761   7.261  0.1928  1.1904 -0.9362
 1457TIP3   OH226005   2.584   1.246   0.005 -0.0306  0.2518 -0.1225
 1457TIP3    H126006   2.549   1.189  -0.063  1.4753 -2.5610  1.2912
 1457TIP3    H226007   2.679   1.231   0.003  0.0513 -0.0476  2.6274
 1458TIP3   OH226008   0.965   0.480   1.145 -0.6361  0.1282  0.0124
 1458TIP3    H126009   0.939   0.414   1.080 -0.3358  0.2469 -0.2336
 1458TIP3    H226010   0.886   0.530   1.162 -1.2178 -1.1309  1.2030
 1459TIP3   OH226011   3.213   3.807   0.537  0.1779 -0.3397 -0.0680
 1459TIP3    H126012   3.119   3.791   0.530  0.2388 -0.4173 -0.8523
 1459TIP3    H226013   3.253   3.723   0.512  0.4771  0.3892 -2.2600
 1460TIP3   OH226014   2.596   6.653   1.001 -0.1866  0.0325  0.1551
 1460TIP3    H126015   2.535   6.673   1.071  0.4677  1.4288  0.3724
 1460TIP3    H226016   2.681   6.643   1.045  0.0029 -0.4331 -0.2973
 1461TIP3   OH226017   2.768   1.801   8.066 -0.5210 -0.1182  0.3788
 1461TIP3    H126018   2.769   1.799   8.162  0.0335 -1.6412  0.3527
 1461TIP3    H226019   2.675   1.805   8.044 -0.6330  1.7141  0.9615
 1462TIP3   OH226020   5.201   1.559   1.614 -0.3581  0.0661  0.1343
 1462TIP3    H126021   5.176   1.649   1.596 -1.4951  0.2353  2.2114
 1462TIP3    H226022   5.168   1.542   1.702 -1.3404 -2.7785 -0.6546
 1463TIP3   OH226023   3.353   5.252   1.953 -0.1998 -0.3055 -0.1633
 1463TIP3    H126024   3.261   5.248   1.982  0.3667  1.4427  2.2258
 1463TIP3    H226025   3.386   5.334   1.991  1.9327 -0.0349 -2.3763
 1464TIP3   OH226026   5.581   0.431   1.937  0.3021  0.1501  0.0432
 1464TIP3    H126027   5.553   0.431   2.028  2.5447 -1.3554  0.8219
 1464TIP3    H226028   5.563   0.342   1.906  1.9797 -0.1599 -0.1264
 1465TIP3   OH226029   5.030   4.728   8.205  0.2774  0.4272 -0.0810
 1465TIP3    H126030   5.016   4.740   8.299 -0.6683  1.6022 -0.3469
 1465TIP3    H226031   4.977   4.796   8.164  0.1079 -0.5179 -1.5046
 1466TIP3   OH226032   6.780   0.363   0.483 -0.1971 -0.5818  0.0694
 1466TIP3    H126033   6.722   0.292   0.457 -0.6840  0.0668 -0.6540
 1466TIP3    H226034   6.740   0.399   0.562 -0.9936  0.1021 -0.6373
 1467TIP3   OH226035   5.849   1.797   0.651 -0.3661 -0.4555  0.3079
 1467TIP3    H126036   5.876   1.709   0.627 -2.3692 -1.0717  0.1481
 1467TIP3    H226037   5.859   1.848   0.570  2.3196 -0.0789  0.7895
 1468TIP3   OH226038   6.097   4.852   2.118  0.0875  0.0172 -1.1473
 1468TIP3    H126039   6.122   4.783   2.180 -1.1088  0.3264 -0.2969
 1468TIP3    H226040   6.003   4.844   2.108  0.0104  1.1348 -1.5272
 1469TIP3   OH226041   1.445   6.274   1.086 -0.0645 -0.0159  0.0085
 1469TIP3    H126042   1.447   6.237   1.174 -2.3015 -3.0672 -1.0183
 1469TIP3    H226043   1.535   6.300   1.068  0.7987 -1.0463  2.5175
 1470TIP3   OH226044   6.592   0.127   6.704 -0.0087 -0.6244  0.3033
 1470TIP3    H126045   6.682   0.160   6.701 -0.1768 -0.1330  0.5633
 1470TIP3    H226046   6.591   0.069   6.780 -0.2115  0.3011  1.0340
 1471TIP3   OH226047   1.011   5.522   7.235  0.0935  0.2020 -0.0512
 1471TIP3    H126048   0.931   5.493   7.190 -0.4640  0.1414  0.9248
 1471TIP3    H226049   0.992   5.612   7.262 -0.1345 -0.1987  1.2079
 1472TIP3   OH226050   6.290   3.903   0.664 -0.4147 -0.0274 -0.4690
 1472TIP3    H126051   6.332   3.988   0.657 -0.6983  0.1394 -0.1718
 1472TIP3    H226052   6.339   3.847   0.603 -0.8757  0.5937 -1.4258
 1473TIP3   OH226053   5.856   5.580   1.060  0.2323 -0.5552 -0.0371
 1473TIP3    H126054   5.947   5.551   1.050  0.4880  0.1488  0.1624
 1473TIP3    H226055   5.859   5.643   1.133 -0.4036 -0.4798 -0.0724
 1474TIP3   OH226056   3.808   2.732   1.401  0.4106 -0.5129 -0.5086
 1474TIP3    H126057   3.883   2.751   1.345  0.3957  1.2767  0.0042
 1474TIP3    H226058   3.846   2.714   1.487  0.4704 -3.7425 -1.0812
 1475TIP3   OH226059   6.351   2.837   8.297  0.0980 -0.1676 -0.2072
 1475TIP3    H126060   6.415   2.812   8.364 -0.5784  0.6013  0.7635
 1475TIP3    H226061   6.272   2.857   8.346  0.0660  2.0481 -1.0512
 1476TIP3   OH226062   6.560   0.085   7.864 -0.5447  0.0125  0.2492
 1476TIP3    H126063   6.487   0.146   7.879 -0.2516  0.5074 -0.2957
 1476TIP3    H226064   6.580   0.050   7.950 -1.5642 -0.2902  0.3835
 1477TIP3   OH226065   5.841   4.853   0.874 -0.1947 -0.5664  0.4596
 1477TIP3    H126066   5.756   4.812   0.890  0.0296 -1.1876  0.0924
 1477TIP3    H226067   5.824   4.916   0.804 -0.0818 -1.7024 -0.6251
 1478TIP3   OH226068   5.062   6.405   8.487  0.4217  0.0969 -0.5452
 1478TIP3    H126069   5.109   6.441   8.412  1.0146 -0.1243 -0.2868
 1478TIP3    H226070   5.045   6.313   8.463  0.4036  0.0907 -0.5090
 1479TIP3   OH226071   4.822   5.296   1.051 -0.4888  0.5717  0.2138
 1479TIP3    H126072   4.813   5.351   1.128 -2.4985 -0.3953  0.7541
 1479TIP3    H226073   4.824   5.357   0.977 -0.9423  1.4148  0.8838
 1480TIP3   OH226074   2.144   4.572   8.178  0.1639 -0.0408  0.4112
 1480TIP3    H126075   2.232   4.603   8.157  0.1407  0.7260  1.3920
 1480TIP3    H226076   2.103   4.556   8.092  1.5130 -1.2401 -0.0594
 1481TIP3   OH226077   3.173   6.669   0.098 -0.1002  0.0817  0.2761
 1481TIP3    H126078   3.084   6.642   0.120  0.4020 -1.5939  0.3546
 1481TIP3    H226079   3.198   6.729   0.168 -0.4706 -0.9975  1.3709
 1482TIP3   OH226080   2.396   0.039   7.292  0.1362  0.2861 -0.0450
 1482TIP3    H126081   2.380  -0.039   7.239  0.0831  0.3134 -0.0692
 1482TIP3    H226082   2.447   0.008   7.366  1.0344  0.4068 -0.6028
 1483TIP3   OH226083   3.225   3.144   0.040  0.1318  0.0141  0.1095
 1483TIP3    H126084   3.185   3.162  -0.045 -1.7374 -0.9213  0.7324
 1483TIP3    H226085   3.225   3.228   0.086  0.6499  0.4110 -0.6060
 1484TIP3   OH226086   6.820   2.612   8.242 -0.0231 -0.2006  0.0755
 1484TIP3    H126087   6.741   2.565   8.215 -0.4296 -0.3973  1.5266
 1484TIP3    H226088   6.877   2.609   8.165 -1.9960  1.2607 -1.5600
 1485TIP3   OH226089   0.665   4.994   1.552  0.1774  0.5303 -0.0337
 1485TIP3    H126090   0.599   4.969   1.617  1.6889  1.4194  1.9376
 1485TIP3    H226091   0.614   5.028   1.478 -1.6458 -1.6902  0.0916
 1486TIP3   OH226092   3.671   0.756   7.954 -0.2784  0.4725  0.3211
 1486TIP3    H126093   3.761   0.738   7.926 -1.2481  0.9035 -3.6811
 1486TIP3    H226094   3.663   0.851   7.951 -0.6648  0.5161  1.7039
 1487TIP3   OH226095   5.794   3.214   8.050 -0.0303 -0.2343  0.1586
 1487TIP3    H126096   5.800   3.124   8.017  1.0202 -0.3782  0.6808
 1487TIP3    H226097   5.878   3.229   8.092 -1.0663  0.1334  2.2400
 1488TIP3   OH226098   5.510   3.972   0.556 -0.3253  0.3499 -0.4898
 1488TIP3    H126099   5.605   3.968   0.567 -0.4293 -1.1258  0.0743
 1488TIP3    H226100   5.484   4.052   0.602  0.5748  0.4442 -0.1312
 1489TIP3   OH226101   4.754   5.405   1.522  0.6124 -0.0854 -0.5246
 1489TIP3    H126102   4.685   5.340   1.525  1.5894 -1.1996 -1.2740
 1489TIP3    H226103   4.734   5.465   1.594  0.0330 -1.5657  0.5965
 1490TIP3   OH226104   6.485   0.653   0.864  0.1457 -0.1907  0.0058
 1490TIP3    H126105   6.453   0.683   0.779  0.9725  0.3781 -0.1171
 1490TIP3    H226106   6.476   0.730   0.921 -0.3511 -0.5537  0.4214
 1491TIP3   OH226107   4.884   6.148   0.653  0.7056 -0.3579  0.1956
 1491TIP3    H126108   4.892   6.209   0.726 -0.3627 -1.0152  0.8991
 1491TIP3    H226109   4.821   6.083   0.684  2.4541 -2.3310 -0.1642
 1492TIP3   OH226110   2.394   3.236   8.176 -0.2533  0.3538 -0.0092
 1492TIP3    H126111   2.394   3.322   8.135  3.8295 -0.0461 -1.1776
 1492TIP3    H226112   2.327   3.187   8.129 -1.1311  2.2071 -0.7863
 1493TIP3   OH226113   3.145   6.594   1.234  0.3007 -0.2892  0.3728
 1493TIP3    H126114   3.185   6.671   1.194  0.4188 -0.4639  0.1505
 1493TIP3    H226115   3.055   6.594   1.201 -0.2804  0.7833  1.8189
 1494TIP3   OH226116   1.338   1.315   7.039  0.7567 -0.3216  0.6414
 1494TIP3    H126117   1.271   1.305   6.972  1.2392 -2.0271  0.3645
 1494TIP3    H226118   1.303   1.380   7.099  0.5929  1.7597 -1.5839
 1495TIP3   OH226119   6.337   0.357   0.331 -0.3900  0.1417  0.2958
 1495TIP3    H126120   6.321   0.313   0.247  1.2775 -0.4617  0.2409
 1495TIP3    H226121   6.422   0.400   0.319 -0.9532  1.5393  1.1101
 1496TIP3   OH226122   0.557   4.953   0.095 -0.2668 -0.1250  0.4551
 1496TIP3    H126123   0.562   4.932   0.002 -0.5159  1.4815  0.0337
 1496TIP3    H226124   0.486   4.898   0.129  1.2851 -2.3715  0.2400
 1497TIP3   OH226125   4.875   4.711   8.491 -0.2403 -0.4378  0.2430
 1497TIP3    H126126   4.915   4.654   8.557  0.8299 -1.3671 -1.1565
 1497TIP3    H226127   4.796   4.664   8.465 -0.5490 -0.1746  0.6851
 1498TIP3   OH226128   6.827   4.343   7.631 -0.0891  0.3930 -0.3220
 1498TIP3    H126129   6.894   4.401   7.595  0.8255 -2.3547 -3.5911
 1498TIP3    H226130   6.746   4.393   7.625  0.7797  1.6809 -2.1878
 1499TIP3   OH226131   1.129   4.099   7.404 -0.4478 -0.5373 -0.3032
 1499TIP3    H126132   1.088   4.045   7.471 -1.4731 -0.4528 -0.8375
 1499TIP3    H226133   1.065   4.100   7.332 -0.3913  1.2542 -0.3672
 1500TIP3   OH226134   1.078   5.194   0.975  0.0467  0.2798 -0.3001
 1500TIP3    H126135   1.112   5.115   0.933 -1.2318 -0.9110  0.8163
 1500TIP3    H226136   0.986   5.175   0.993  0.1663  1.2758  1.6661
 1501TIP3   OH226137   6.092   2.776   7.246  0.1322  0.1785 -0.1327
 1501TIP3    H126138   6.068   2.685   7.266  1.1233 -0.3288 -1.1803
 1501TIP3    H226139   6.186   2.781   7.263  0.1271  0.9627 -0.2833
 1502TIP3   OH226140   5.128   4.686   6.396 -0.2458  0.4534 -0.2815
 1502TIP3    H126141   5.113   4.683   6.301  0.3219  1.2427 -0.4051
 1502TIP3    H226142   5.222   4.671   6.406 -0.1601  1.2038  0.0911
 1503TIP3   OH226143   5.515   4.902   1.981 -0.1639 -0.3814  0.0135
 1503TIP3    H126144   5.432   4.858   2.002  0.2889 -1.0748  0.3988
 1503TIP3    H226145   5.504   4.991   2.014 -0.3998 -0.7442  0.9602
 1504TIP3   OH226146   5.255   2.609   7.032  0.1249 -0.5409 -0.4360
 1504TIP3    H126147   5.338   2.589   6.989 -0.3220 -2.9416 -0.3489
 1504TIP3    H226148   5.214   2.675   6.977  1.3935 -0.5060 -1.3759
 1505TIP3   OH226149   3.156   6.317   8.196 -0.1633  0.1105 -0.6034
 1505TIP3    H126150   3.126   6.231   8.165 -4.6165  1.9248 -2.2146
 1505TIP3    H226151   3.105   6.332   8.276 -0.5992  1.7624 -1.1491
 1506TIP3   OH226152   1.463   1.154   0.602 -0.7807 -0.2735  0.2370
 1506TIP3    H126153   1.407   1.222   0.567  0.4092  0.7488  0.2694
 1506TIP3    H226154   1.447   1.155   0.696 -0.8543 -0.1206  0.2221
 1507TIP3   OH226155   5.084   1.360   8.088 -0.0392  0.5175 -0.9044
 1507TIP3    H126156   5.044   1.440   8.053 -0.4720  0.6276 -0.1781
 1507TIP3    H226157   5.040   1.289   8.042 -2.2695  0.5591  0.9606
 1508TIP3   OH226158   4.109   2.590   7.431  0.3139  0.3729 -0.0842
 1508TIP3    H126159   4.070   2.600   7.518  0.7100  3.6757 -0.1777
 1508TIP3    H226160   4.045   2.630   7.371  0.9941  0.0777 -1.0423
 1509TIP3   OH226161   4.277   0.650   0.511 -0.3239 -0.4188 -0.6709
 1509TIP3    H126162   4.205   0.712   0.501  0.8303  0.9386 -0.8554
 1509TIP3    H226163   4.301   0.626   0.422 -1.0940 -1.5481 -0.5876
 1510TIP3   OH226164   0.878   5.815   1.499  0.9608 -0.4312 -0.1941
 1510TIP3    H126165   0.898   5.778   1.584 -1.4757  2.6450  1.9610
 1510TIP3    H226166   0.945   5.882   1.485  2.1839 -1.8356 -1.4991
 1511TIP3   OH226167   1.049   3.979   8.757  0.1914 -0.0633  0.3773
 1511TIP3    H126168   1.029   4.010   8.845  1.0664 -0.3087  0.6747
 1511TIP3    H226169   0.978   3.919   8.736  0.3330 -0.5369  1.2048
 1512TIP3   OH226170   5.034   1.399   2.326 -0.2137  0.0936 -0.0758
 1512TIP3    H126171   4.974   1.391   2.252 -2.8550 -1.3248  2.0357
 1512TIP3    H226172   5.086   1.318   2.323 -1.2613 -0.6116  0.3547
 1513TIP3   OH226173   2.172   1.274   7.317  0.4907  0.0171  0.3204
 1513TIP3    H126174   2.221   1.343   7.362 -1.0386 -0.2084  2.4807
 1513TIP3    H226175   2.108   1.245   7.381 -0.6899 -1.5605 -1.4829
 1514TIP3   OH226176   6.179   2.031   1.009  0.4737  0.0325  0.3136
 1514TIP3    H126177   6.127   1.951   1.000  1.8939 -0.7437 -2.0410
 1514TIP3    H226178   6.117   2.102   0.997 -0.3460 -0.8262 -0.8271
 1515TIP3   OH226179   0.117   5.746   6.632 -0.0229 -0.1943  0.3046
 1515TIP3    H126180   0.077   5.660   6.645 -1.8248  0.6335  0.4837
 1515TIP3    H226181   0.154   5.741   6.544 -1.0198 -0.8384 -0.1002
 1516TIP3   OH226182   3.875   4.683   6.377 -0.3085  0.3964 -0.5144
 1516TIP3    H126183   3.945   4.618   6.376 -0.4656  0.2266 -1.5889
 1516TIP3    H226184   3.798   4.636   6.347 -1.2006  0.2842  1.7348
 1517TIP3   OH226185   5.355   3.729   8.712 -0.3903  0.5832 -0.1494
 1517TIP3    H126186   5.396   3.668   8.651 -2.2474 -0.3340 -0.5560
 1517TIP3    H226187   5.265   3.697   8.721 -0.8464  2.1066  1.2084
 1518TIP3   OH226188   0.970   1.078   6.899 -0.7196  0.8919  0.2691
 1518TIP3    H126189   0.903   1.058   6.834  1.6832 -0.1943 -2.0907
 1518TIP3    H226190   0.936   1.043   6.981 -3.0424  0.5034 -0.7861
 1519TIP3   OH226191   2.085   3.286   7.331 -0.1577  0.1008 -0.1156
 1519TIP3    H126192   2.102   3.364   7.384  1.4782 -0.2814 -0.0070
 1519TIP3    H226193   2.020   3.236   7.381  1.7645 -0.5375  1.9160
 1520TIP3   OH226194   0.961   1.517   7.015  0.4228 -0.0107 -0.6243
 1520TIP3    H126195   0.873   1.478   7.019 -0.1722  1.2620 -0.8836
 1520TIP3    H226196   1.019   1.443   6.994 -0.4425 -1.0613  0.5191
 1521TIP3   OH226197   4.607   5.145   0.244 -0.2607  0.1857  0.1511
 1521TIP3    H126198   4.557   5.125   0.165  0.6788 -0.1404 -0.3719
 1521TIP3    H226199   4.698   5.145   0.215  0.1429 -0.5632  1.3535
 1522TIP3   OH226200   6.399   5.855   0.823  0.1854  0.0565  0.3141
 1522TIP3    H126201   6.437   5.943   0.819  0.5044 -0.0689  0.5590
 1522TIP3    H226202   6.431   5.819   0.906 -0.0180 -0.2578  0.2564
 1523TIP3   OH226203   0.889   5.914   0.474  0.0031  0.3045 -0.3102
 1523TIP3    H126204   0.890   5.819   0.463  0.1729  0.2831 -0.1234
 1523TIP3    H226205   0.907   5.928   0.567  0.0377  0.5219 -0.3473
 1524TIP3   OH226206   5.458   4.944   7.670  0.1156 -0.4710  0.6052
 1524TIP3    H126207   5.547   4.911   7.657 -0.0488 -1.3773  1.6311
 1524TIP3    H226208   5.468   5.039   7.675  0.8962 -0.5016 -0.2226
 1525TIP3   OH226209   4.574   2.895   8.575  0.6810  0.4390  0.2354
 1525TIP3    H126210   4.517   2.833   8.621 -0.4821 -0.0014 -1.6646
 1525TIP3    H226211   4.663   2.863   8.592  0.1174 -1.8706 -0.7381
 1526TIP3   OH226212   2.483   5.216   1.368 -0.1938  0.5056 -0.4782
 1526TIP3    H126213   2.545   5.270   1.319  0.2399  0.3237 -0.1357
 1526TIP3    H226214   2.421   5.185   1.302 -0.9255  2.0493 -0.5555
 1527TIP3   OH226215   5.808   3.679   0.376 -0.1601  0.1547 -0.8637
 1527TIP3    H126216   5.900   3.657   0.390 -0.8830 -2.7824 -0.0916
 1527TIP3    H226217   5.779   3.618   0.309 -2.0088 -0.3056  0.3012
 1528TIP3   OH226218   6.554   6.515   0.918  0.2789 -0.0197  0.3659
 1528TIP3    H126219   6.482   6.570   0.946  1.4759  1.3697  0.8494
 1528TIP3    H226220   6.633   6.567   0.936  1.4662 -1.8465  0.7623
 1529TIP3   OH226221   3.068   5.286   6.717  0.1251 -0.0676 -0.7565
 1529TIP3    H126222   3.061   5.320   6.627 -0.2162 -0.7075 -0.9781
 1529TIP3    H226223   3.088   5.193   6.706  0.3005 -0.1052 -0.1628
 1530TIP3   OH226224   4.031   1.567   7.929  0.6124  0.2688 -0.7562
 1530TIP3    H126225   3.986   1.614   7.999 -2.1516 -1.0412 -1.5073
 1530TIP3    H226226   4.028   1.627   7.854  0.8144  0.4756 -0.6010
 1531TIP3   OH226227   1.518   0.293   7.641  0.2860  0.2986  0.2507
 1531TIP3    H126228   1.574   0.266   7.569  2.0370  1.1292  1.2202
 1531TIP3    H226229   1.571   0.358   7.689 -1.0599  0.2541  1.8875
 1532TIP3   OH226230   1.089   6.590   5.960 -0.1945 -0.2572  0.7373
 1532TIP3    H126231   1.004   6.546   5.953 -0.4514 -0.0185  2.1842
 1532TIP3    H226232   1.134   6.545   6.032  0.2335  0.7068  1.0836
 1533TIP3   OH226233   2.295   2.712   7.388 -0.0452 -0.2079 -0.6939
 1533TIP3    H126234   2.321   2.797   7.424 -2.7767  0.7906 -0.8780
 1533TIP3    H226235   2.335   2.647   7.447 -0.4520  1.2736  1.3020
 1534TIP3   OH226236   2.354   0.676   7.201  0.2732 -0.0712 -0.2662
 1534TIP3    H126237   2.421   0.744   7.206 -0.3106  0.4766  0.7451
 1534TIP3    H226238   2.358   0.633   7.286  0.9966 -1.6918 -1.0955
 1535TIP3   OH226239   6.387   4.930   6.295 -0.2156  0.2476 -0.0138
 1535TIP3    H126240   6.316   4.986   6.325 -0.6741  0.2629 -1.0756
 1535TIP3    H226241   6.344   4.848   6.269  0.3731 -0.3924  0.9564
 1536TIP3   OH226242   3.194   5.814   1.016  1.1071  0.1265 -0.1069
 1536TIP3    H126243   3.276   5.845   1.053  0.9670 -0.2306  0.5208
 1536TIP3    H226244   3.153   5.765   1.087  0.2841  0.4228 -0.3702
 1537TIP3   OH226245   1.228   6.838   0.731  0.0490  0.3265  0.5358
 1537TIP3    H126246   1.321   6.834   0.756  0.5790  0.5332 -1.3016
 1537TIP3    H226247   1.184   6.784   0.797  1.6975 -1.2512  0.4249
 1538TIP3   OH226248   4.709   3.690   0.122 -0.1980 -0.2200 -0.0243
 1538TIP3    H126249   4.637   3.752   0.109  0.0665  0.6276  2.1205
 1538TIP3    H226250   4.686   3.643   0.203  0.6004 -1.5166 -0.5184
 1539TIP3   OH226251   1.669   5.672   7.568 -0.2808  0.4452 -0.6848
 1539TIP3    H126252   1.663   5.588   7.523 -2.2941 -0.3160  0.8513
 1539TIP3    H226253   1.709   5.652   7.653  0.7050  1.3500 -0.8999
 1540TIP3   OH226254   2.082   2.569   1.499  0.2246 -0.5012  0.0439
 1540TIP3    H126255   2.075   2.588   1.592 -2.6489 -0.2286 -0.1377
 1540TIP3    H226256   2.123   2.647   1.462 -0.7809  0.4225  0.8151
 1541TIP3   OH226257   6.328   4.327   1.278 -0.0950  0.0261 -0.3928
 1541TIP3    H126258   6.387   4.262   1.316  0.0199 -0.3724 -1.2325
 1541TIP3    H226259   6.249   4.279   1.257 -0.5957  0.4842  0.3769
 1542TIP3   OH226260   4.164   1.409   6.257  0.1572 -0.0213  0.1361
 1542TIP3    H126261   4.243   1.386   6.208  0.8749  1.7089  0.4247
 1542TIP3    H226262   4.196   1.460   6.331 -1.1981  0.3397  0.4994
 1543TIP3   OH226263   4.769   6.333   8.837  0.4134 -0.1098 -0.0685
 1543TIP3    H126264   4.769   6.332   8.932  0.5004 -2.1633 -0.0446
 1543TIP3    H226265   4.860   6.314   8.813  0.1940 -0.5497 -0.5553
 1544TIP3   OH226266   6.474   0.765   8.050 -0.0965  0.4747  0.3268
 1544TIP3    H126267   6.509   0.845   8.013 -0.0303  0.4263  0.2835
 1544TIP3    H226268   6.397   0.744   7.996  1.1466 -0.6879 -1.0878
 1545TIP3   OH226269   5.009   1.481   1.330  0.1281 -0.2158  0.4117
 1545TIP3    H126270   4.961   1.564   1.327 -0.6632 -0.6772 -0.4782
 1545TIP3    H226271   4.968   1.432   1.402  0.4968  0.1048  0.8412
 1546TIP3   OH226272   1.038   5.035   1.961 -0.4154 -0.3236 -0.2046
 1546TIP3    H126273   1.066   5.034   2.052 -1.2078 -2.7576  0.0681
 1546TIP3    H226274   0.950   5.071   1.963 -0.3002 -0.0476 -0.0641
 1547TIP3   OH226275   1.247   1.942   8.240  0.3068  0.2660  0.6289
 1547TIP3    H126276   1.154   1.930   8.218  0.6522 -2.2426  0.2433
 1547TIP3    H226277   1.293   1.890   8.174  1.8731 -0.0484  1.9244
 1548TIP3   OH226278   3.871   4.305   1.162  0.2823  0.1172 -0.0432
 1548TIP3    H126279   3.840   4.309   1.071  0.1493 -0.4555 -0.0262
 1548TIP3    H226280   3.958   4.344   1.160  1.0611 -1.5613 -0.7715
 1549TIP3   OH226281   3.885   1.575   1.643  0.1826 -0.0796  0.6348
 1549TIP3    H126282   3.897   1.493   1.690 -1.0485  0.2746  1.6131
 1549TIP3    H226283   3.795   1.571   1.609  0.5421  0.3181 -0.4109
 1550TIP3   OH226284   2.348   6.501   8.157  0.5985 -0.1860 -0.1199
 1550TIP3    H126285   2.293   6.579   8.154 -0.9200 -0.9655  2.8340
 1550TIP3    H226286   2.436   6.532   8.138 -0.3300  1.7307 -1.6083
 1551TIP3   OH226287   3.030   4.862   1.964  0.1652  0.2553 -0.1311
 1551TIP3    H126288   2.953   4.835   2.014  0.7937  0.7850  1.1565
 1551TIP3    H226289   3.027   4.809   1.884 -0.4535 -1.1685  0.8116
 1552TIP3   OH226290   6.365   4.180   8.068  0.4522  0.1623  0.5940
 1552TIP3    H126291   6.399   4.220   7.988 -0.9524  1.2019  0.4798
 1552TIP3    H226292   6.351   4.088   8.045  0.1683  0.4226 -0.3341
 1553TIP3   OH226293   2.773   4.741   7.421 -0.6822  0.3162 -0.3136
 1553TIP3    H126294   2.847   4.769   7.367 -1.0937  0.9350 -0.5734
 1553TIP3    H226295   2.784   4.646   7.429 -0.0454  0.3541 -0.6207
 1554TIP3   OH226296   4.084   5.303   1.315  0.2535 -0.2858 -0.7072
 1554TIP3    H126297   4.062   5.256   1.395  2.5076 -0.6337 -0.2368
 1554TIP3    H226298   4.009   5.360   1.300 -1.1990 -1.8220  0.3935
 1555TIP3   OH226299   4.583   5.295   7.146 -0.2568  0.1139  0.4181
 1555TIP3    H126300   4.596   5.385   7.177  0.4270 -0.0104  0.4973
 1555TIP3    H226301   4.535   5.306   7.064  1.9209  0.7172 -0.8605
 1556TIP3   OH226302   1.029   5.030   8.593 -0.2898 -0.1815 -0.5972
 1556TIP3    H126303   1.103   4.992   8.640 -0.1546  0.2133 -0.4877
 1556TIP3    H226304   0.971   4.956   8.576  0.7428 -0.7363 -1.8632
 1557TIP3   OH226305   5.904   6.427   0.284  0.3147 -0.1215  0.0537
 1557TIP3    H126306   5.826   6.472   0.253 -0.4380 -0.8726  0.8245
 1557TIP3    H226307   5.977   6.479   0.249 -0.4530 -0.6570 -2.5690
 1558TIP3   OH226308   6.571   6.673   8.472  0.8147  0.7817  0.0107
 1558TIP3    H126309   6.487   6.687   8.428 -0.7399 -0.9034  2.2469
 1558TIP3    H226310   6.596   6.761   8.501  0.7106  1.5649 -2.0374
 1559TIP3   OH226311   6.600   3.029   1.429  0.1010  0.5914  0.6122
 1559TIP3    H126312   6.678   2.975   1.441  0.2988  1.0451  1.4952
 1559TIP3    H226313   6.527   2.967   1.432  0.4177  0.1596 -0.2480
 1560TIP3   OH226314   2.505   4.676   0.076  0.0069  0.1936  0.5898
 1560TIP3    H126315   2.504   4.634   0.162  1.7420  0.0223  0.5574
 1560TIP3    H226316   2.545   4.761   0.092  2.7050 -0.7853 -0.3911
 1561TIP3   OH226317   5.178   4.266   8.739  0.4047  0.0498  0.5250
 1561TIP3    H126318   5.251   4.306   8.693 -0.6469  0.3973 -0.9024
 1561TIP3    H226319   5.209   4.178   8.760  1.4068  0.3562  0.3963
 1562TIP3   OH226320   1.721   5.932   7.491 -0.0139 -0.0095 -0.3264
 1562TIP3    H126321   1.689   6.001   7.549  0.0341  0.8501 -1.2905
 1562TIP3    H226322   1.685   5.851   7.527  0.8140  0.3733  1.4697
 1563TIP3   OH226323   1.887   4.200   0.740  0.0692 -0.2524  0.5500
 1563TIP3    H126324   1.900   4.188   0.834 -2.1540  1.8954  1.2544
 1563TIP3    H226325   1.938   4.130   0.699  2.7117 -0.1246  3.2377
 1564TIP3   OH226326   5.471   5.867   1.228 -0.2057 -0.7370  0.5870
 1564TIP3    H126327   5.498   5.778   1.252 -0.0657 -0.1313  2.8474
 1564TIP3    H226328   5.553   5.917   1.227 -0.2787 -0.6041 -0.7102
 1565TIP3   OH226329   3.656   4.127   8.149 -0.0212 -0.3535 -0.6309
 1565TIP3    H126330   3.675   4.048   8.097  1.4539  0.0731 -0.8099
 1565TIP3    H226331   3.743   4.165   8.166 -0.5706  0.2155  1.0698
 1566TIP3   OH226332   2.972   5.285   1.408 -0.1528  0.2467  0.1580
 1566TIP3    H126333   3.026   5.301   1.330 -0.1904  2.7181  0.5740
 1566TIP3    H226334   3.034   5.289   1.481 -0.2601 -1.2114  0.3623
 1567TIP3   OH226335   6.769   6.748   0.059 -0.4235  0.3055  0.1117
 1567TIP3    H126336   6.707   6.694   0.108 -1.6623  1.4154 -0.1780
 1567TIP3    H226337   6.788   6.821   0.118  0.8561 -0.1568  0.3066
 1568TIP3   OH226338   1.057   6.792   5.786  0.0664 -0.4174 -0.2831
 1568TIP3    H126339   1.073   6.734   5.860  0.7485  0.4849  0.3069
 1568TIP3    H226340   0.979   6.842   5.811  0.3208 -0.0835 -0.1502
 1569TIP3   OH226341   5.146   3.515   1.488  0.8271  0.0500  0.5308
 1569TIP3    H126342   5.116   3.569   1.561  1.8050  0.6378  0.5023
 1569TIP3    H226343   5.219   3.563   1.450  1.8543 -1.3784  0.6212
 1570TIP3   OH226344   1.114   1.295   6.893  0.3811  0.0799  0.1005
 1570TIP3    H126345   1.129   1.285   6.799  1.6211 -0.5068  0.3359
 1570TIP3    H226346   1.038   1.241   6.912  0.3054 -0.0343 -0.5141
 1571TIP3   OH226347   0.867   3.470   1.404 -0.0396 -0.3152 -0.1055
 1571TIP3    H126348   0.805   3.534   1.438  0.0452 -0.0900 -0.3677
 1571TIP3    H226349   0.944   3.478   1.460  0.1787  0.2003 -0.4758
 1572TIP3   OH226350   0.879   5.373   0.590 -0.0505  0.3828 -0.1968
 1572TIP3    H126351   0.869   5.380   0.495  1.0578  2.4240 -0.2176
 1572TIP3    H226352   0.797   5.407   0.625  0.7012  2.5946 -0.4501
 1573TIP3   OH226353   0.387   0.598   6.497 -0.2566  0.0339  0.1640
 1573TIP3    H126354   0.305   0.640   6.471 -0.6741  0.1760  1.6580
 1573TIP3    H226355   0.371   0.504   6.485 -0.0826  0.1401 -1.0322
 1574TIP3   OH226356   4.163   2.684   1.727  0.2636  0.4102 -0.1868
 1574TIP3    H126357   4.193   2.771   1.750 -0.7309  0.5158  0.8005
 1574TIP3    H226358   4.218   2.625   1.778 -0.6342  0.5717  1.0089
 1575TIP3   OH226359   2.391   6.256   0.776 -0.2017  0.3034  0.6734
 1575TIP3    H126360   2.465   6.316   0.766  0.2629 -0.3100  0.2976
 1575TIP3    H226361   2.432   6.172   0.799 -0.8316  0.1072  1.0969
 1576TIP3   OH226362   2.474   4.182   8.456  0.2285  0.2400  0.7680
 1576TIP3    H126363   2.436   4.254   8.407 -0.4200  0.2986  1.3442
 1576TIP3    H226364   2.401   4.145   8.507  0.7638 -0.1620  1.2668
 1577TIP3   OH226365   4.393   6.809   1.189  0.1732 -0.5673 -0.3855
 1577TIP3    H126366   4.473   6.757   1.185 -1.0042 -2.5600  0.5449
 1577TIP3    H226367   4.360   6.796   1.278 -1.7420 -0.7095 -1.0675
 1578TIP3   OH226368   5.912   4.715   6.689 -0.4567  0.4205 -0.1500
 1578TIP3    H126369   5.980   4.650   6.672  0.9856  1.8568 -0.1586
 1578TIP3    H226370   5.917   4.732   6.784  1.1770  2.5175 -0.5304
 1579TIP3   OH226371   2.574   1.495   8.132  0.1194  0.2315  0.2700
 1579TIP3    H126372   2.668   1.478   8.128  0.1831  0.6777 -0.3960
 1579TIP3    H226373   2.536   1.414   8.164  0.7271  0.0386  0.5265
 1580TIP3   OH226374   0.862   3.653   8.682  0.1111 -0.1199  0.6004
 1580TIP3    H126375   0.817   3.582   8.637 -1.1141  2.2725 -2.3127
 1580TIP3    H226376   0.808   3.670   8.759 -0.6762 -1.0788  0.2780
 1581TIP3   OH226377   2.545   4.153   0.535 -0.6338 -0.0283 -0.2618
 1581TIP3    H126378   2.606   4.165   0.607 -0.2859 -0.7934 -0.4261
 1581TIP3    H226379   2.479   4.222   0.548 -1.5489 -1.2063  1.7648
 1582TIP3   OH226380   1.226   2.719   1.570 -1.0315 -0.0095 -0.2890
 1582TIP3    H126381   1.265   2.802   1.542 -0.4097 -0.2159 -0.0641
 1582TIP3    H226382   1.186   2.739   1.655  0.9646 -0.4040  0.8075
 1583TIP3   OH226383   3.976   6.857   8.813 -0.0634  0.7297  0.4859
 1583TIP3    H126384   4.053   6.914   8.824  0.4573  0.2905 -0.7146
 1583TIP3    H226385   3.915   6.885   8.881  1.1813  1.0582  1.4982
 1584TIP3   OH226386   1.482   6.520   8.297  0.1090 -0.3160 -0.1658
 1584TIP3    H126387   1.524   6.585   8.353  0.8935 -0.3492 -0.6943
 1584TIP3    H226388   1.500   6.550   8.208 -2.0930  0.3674 -0.4502
 1585TIP3   OH226389   2.449   5.820   1.886 -0.8737 -0.2974 -0.3016
 1585TIP3    H126390   2.479   5.911   1.892 -1.3253 -0.2105  0.7127
 1585TIP3    H226391   2.397   5.806   1.964 -2.5477 -0.8127 -1.4567
 1586TIP3   OH226392   3.144   4.056   8.692  0.0089  0.6209 -0.0501
 1586TIP3    H126393   3.227   4.040   8.648 -0.0344 -1.0257  0.4194
 1586TIP3    H226394   3.091   4.104   8.628  1.1707  1.3599 -0.4840
 1587TIP3   OH226395   5.230   0.642   1.584  0.0530 -0.2325 -0.9245
 1587TIP3    H126396   5.271   0.688   1.511 -1.8800  3.2690 -0.0087
 1587TIP3    H226397   5.158   0.593   1.545 -0.5598  1.0829 -1.4806
 1588TIP3   OH226398   2.272   3.853   7.755  0.1274 -0.4580 -0.0970
 1588TIP3    H126399   2.349   3.807   7.720  0.9277 -0.2409  1.2897
 1588TIP3    H226400   2.305   3.899   7.832 -0.7311  2.1099 -1.1574
 1589TIP3   OH226401   5.925   6.603   0.521 -0.1686 -0.0594  0.4073
 1589TIP3    H126402   5.911   6.534   0.456 -0.0175  1.5127 -1.3514
 1589TIP3    H226403   5.837   6.630   0.547 -0.2657  0.5825 -0.5609
 1590TIP3   OH226404   3.717   2.810   7.067 -0.0202  0.7166 -0.1729
 1590TIP3    H126405   3.627   2.793   7.039  0.4323 -0.3172 -1.1092
 1590TIP3    H226406   3.729   2.904   7.055 -0.3831  0.5673 -1.8820
 1591TIP3   OH226407   6.134   3.465   0.172 -0.4524 -0.1130 -0.6597
 1591TIP3    H126408   6.045   3.448   0.140 -0.1255 -0.6347 -1.3231
 1591TIP3    H226409   6.171   3.378   0.185 -0.0054  0.1043 -0.4728
 1592TIP3   OH226410   5.369   3.875   7.781  0.0306  0.5033 -0.0861
 1592TIP3    H126411   5.418   3.836   7.708 -0.2473  0.9982 -0.5533
 1592TIP3    H226412   5.306   3.808   7.806 -0.6070  0.7248 -1.0415
 1593TIP3   OH226413   3.040   3.169   1.703 -0.1780  0.0198 -0.1481
 1593TIP3    H126414   3.067   3.175   1.795  0.1864 -0.2135 -0.2369
 1593TIP3    H226415   2.967   3.106   1.703 -0.0843 -0.0890 -0.0381
 1594TIP3   OH226416   1.999   6.011   8.122 -0.8463  0.1098  0.0731
 1594TIP3    H126417   2.021   6.040   8.033 -1.6959 -1.0629 -0.5339
 1594TIP3    H226418   2.044   5.927   8.131 -0.7909  0.2114  0.7435
 1595TIP3   OH226419   6.558   1.652   7.814  0.0042  0.3785 -0.3595
 1595TIP3    H126420   6.486   1.626   7.872  0.1278 -0.7236 -0.6766
 1595TIP3    H226421   6.516   1.706   7.747 -0.2559  1.0724  0.3552
 1596TIP3   OH226422   0.335   0.475   0.737 -0.1432 -0.0784  0.3096
 1596TIP3    H126423   0.311   0.568   0.733  0.3751  0.0393 -0.1214
 1596TIP3    H226424   0.252   0.430   0.751 -0.6547  0.2981 -1.3762
 1597TIP3   OH226425   4.906   2.864   0.058  0.0831 -0.6706  0.1078
 1597TIP3    H126426   4.940   2.808  -0.013  0.0672  0.4253 -0.7892
 1597TIP3    H226427   4.980   2.874   0.118  0.1991 -1.3396  0.0872
 1598TIP3   OH226428   5.951   2.812   0.938 -0.0523 -0.1917 -0.2594
 1598TIP3    H126429   5.997   2.763   0.870 -1.0341 -0.1008 -1.0153
 1598TIP3    H226430   5.859   2.811   0.911 -0.4435 -0.0058  0.9865
 1599TIP3   OH226431   0.460   1.412   1.384  0.0012 -0.5172  0.0940
 1599TIP3    H126432   0.368   1.430   1.363  0.1846 -1.1974 -1.3840
 1599TIP3    H226433   0.482   1.479   1.449 -1.3619  0.0465  0.0270
 1600TIP3   OH226434   1.181   5.074   1.474 -0.6396  0.2312 -0.1695
 1600TIP3    H126435   1.150   5.158   1.507 -0.9651  0.7459 -1.7142
 1600TIP3    H226436   1.137   5.063   1.390 -4.3442 -3.6560  1.8292
 1601TIP3   OH226437   3.915   2.714   6.845 -0.1704  0.5789 -0.1545
 1601TIP3    H126438   3.892   2.642   6.903  1.5640  0.7506  0.8086
 1601TIP3    H226439   3.912   2.676   6.757  2.0886 -1.1503  0.4130
 1602TIP3   OH226440   3.679   5.730   1.787  0.0906 -0.0148  0.0516
 1602TIP3    H126441   3.641   5.678   1.858  2.0185 -0.6976  0.6399
 1602TIP3    H226442   3.687   5.818   1.823 -1.0962  0.2097 -0.1729
 1603TIP3   OH226443   3.643   1.411   8.341  0.6183  0.1090 -0.3979
 1603TIP3    H126444   3.710   1.354   8.379  0.8274  0.1014 -0.7706
 1603TIP3    H226445   3.560   1.372   8.366  0.7401  0.5888  0.7916
 1604TIP3   OH226446   6.113   5.450   1.104 -0.2545  0.3703 -0.6457
 1604TIP3    H126447   6.184   5.471   1.165  0.5295 -0.0998 -1.3631
 1604TIP3    H226448   6.150   5.382   1.047 -1.2022  0.2952 -1.1930
 1605TIP3   OH226449   3.137   3.539   2.807 -0.5949  0.1789  0.1557
 1605TIP3    H126450   3.191   3.464   2.782 -1.1480 -1.5489  3.5375
 1605TIP3    H226451   3.200   3.609   2.826  0.1329 -0.3629 -0.2017
 1606TIP3   OH226452   0.160   6.285   7.016 -0.2634 -0.2914 -0.7721
 1606TIP3    H126453   0.209   6.267   7.096 -0.9704  2.5351  0.4180
 1606TIP3    H226454   0.076   6.240   7.028 -0.6156  0.6356  0.4236
 1607TIP3   OH226455   5.506   3.163   8.326 -1.1631  0.5577  0.0605
 1607TIP3    H126456   5.437   3.100   8.349 -1.3908  1.7840  3.2610
 1607TIP3    H226457   5.586   3.110   8.323 -1.7093 -0.2979  0.1823
 1608TIP3   OH226458   0.840   6.307   6.906  0.5762 -0.3634 -0.5614
 1608TIP3    H126459   0.808   6.380   6.853  0.6556  1.0776  1.2669
 1608TIP3    H226460   0.842   6.232   6.846  0.0684  1.0239 -2.3855
 1609TIP3   OH226461   2.861   6.831   0.109  0.0892  0.6612 -0.7064
 1609TIP3    H126462   2.883   6.743   0.140  0.4386  0.6417 -1.0158
 1609TIP3    H226463   2.928   6.852   0.045  0.3507  1.3959 -0.2023
 1610TIP3   OH226464   6.258   6.095   1.035 -0.1661 -0.0759  0.6533
 1610TIP3    H126465   6.288   6.186   1.037  0.7635 -0.3514  0.0516
 1610TIP3    H226466   6.163   6.101   1.032 -0.1438  0.8593  1.2616
 1611TIP3   OH226467   2.556   1.600   1.497 -0.2139  0.1921 -0.5533
 1611TIP3    H126468   2.561   1.505   1.510  0.4898  0.3428  0.3890
 1611TIP3    H226469   2.644   1.631   1.518 -1.1303  1.3597  1.9437
 1612TIP3   OH226470   0.415   5.298   0.820 -0.1654 -0.2334 -0.1880
 1612TIP3    H126471   0.363   5.315   0.898 -0.2599 -0.0602 -0.2894
 1612TIP3    H226472   0.418   5.202   0.814  0.9357 -0.2918  0.7629
 1613TIP3   OH226473   5.805   0.539   2.117 -0.3698  0.2009 -0.3502
 1613TIP3    H126474   5.747   0.557   2.191  0.3403 -0.7850  0.4704
 1613TIP3    H226475   5.893   0.545   2.154  0.2240  3.2996 -1.8911
 1614TIP3   OH226476   5.891   4.037   1.300  0.0119 -0.2220 -0.6524
 1614TIP3    H126477   5.862   4.076   1.382 -1.1783  2.0166 -2.0392
 1614TIP3    H226478   5.830   3.966   1.284 -1.1899  0.7780 -0.6705
 1615TIP3   OH226479   6.299   0.618   0.648  0.6775 -0.2142  0.0107
 1615TIP3    H126480   6.258   0.562   0.582  0.8804  0.4945 -0.7286
 1615TIP3    H226481   6.225   0.664   0.688  0.3335 -2.1095  1.7230
 1616TIP3   OH226482   2.148   6.605   7.871  0.1584 -0.5991  0.1985
 1616TIP3    H126483   2.185   6.523   7.903  0.8803 -0.2221  0.3373
 1616TIP3    H226484   2.059   6.581   7.843 -0.3690 -1.0199  2.1026
 1617TIP3   OH226485   0.854   1.625   7.528 -0.1046  0.4154 -0.0663
 1617TIP3    H126486   0.823   1.540   7.560 -1.3637  1.0400  0.4591
 1617TIP3    H226487   0.879   1.609   7.437  0.6057 -0.7158  0.3084
 1618TIP3   OH226488   2.721   3.992   0.404  0.2381 -0.0472 -0.4184
 1618TIP3    H126489   2.682   4.077   0.424 -2.3249 -0.4689 -2.9460
 1618TIP3    H226490   2.677   3.931   0.462  1.8182  0.2301  1.1422
 1619TIP3   OH226491   1.855   4.056   8.685  0.1871  0.2892 -0.4099
 1619TIP3    H126492   1.793   4.037   8.616 -1.2860 -1.6655  1.3372
 1619TIP3    H226493   1.899   3.973   8.702  0.7201  0.7877  0.7827
 1620TIP3   OH226494   0.897   2.982   7.169 -0.2916  0.0958 -0.0204
 1620TIP3    H126495   0.854   2.962   7.086 -0.3284 -1.8576  0.4236
 1620TIP3    H226496   0.885   3.077   7.180  3.0216  1.2955 -4.0628
 1621TIP3   OH226497   2.954   4.475   1.685  0.0001 -0.0195  0.5167
 1621TIP3    H126498   2.888   4.489   1.753 -1.3745  0.3679 -0.8461
 1621TIP3    H226499   2.930   4.392   1.644 -0.4640  0.7559 -0.8541
 1622TIP3   OH226500   4.665   4.793   1.428  0.1295  0.2775 -0.1404
 1622TIP3    H126501   4.680   4.701   1.449  0.9203  0.2402 -0.7944
 1622TIP3    H226502   4.620   4.828   1.504 -0.0348 -0.6066  0.1895
 1623TIP3   OH226503   0.796   1.390   8.088 -0.0257 -0.5620  0.0232
 1623TIP3    H126504   0.753   1.408   8.172 -1.8443 -0.5744 -0.8509
 1623TIP3    H226505   0.882   1.355   8.111  0.3398  1.3697  1.8607
 1624TIP3   OH226506   1.165   6.076   7.973 -0.0173  0.1621 -0.0394
 1624TIP3    H126507   1.091   6.128   7.940  0.5682  0.0250 -1.6548
 1624TIP3    H226508   1.236   6.094   7.912  0.1395 -2.7235 -0.8808
 1625TIP3   OH226509   3.355   4.023   7.328 -0.4658 -0.7966  0.1268
 1625TIP3    H126510   3.366   3.968   7.250  1.8447  0.3985 -0.4855
 1625TIP3    H226511   3.423   3.992   7.388 -1.6075 -1.0638  1.3187
 1626TIP3   OH226512   4.783   1.392   2.080 -0.2169  0.2799  0.2108
 1626TIP3    H126513   4.785   1.473   2.131 -0.3188  0.1295  0.4552
 1626TIP3    H226514   4.693   1.386   2.048 -0.3506 -0.0067  0.6324
 1627TIP3   OH226515   2.891   5.700   8.302 -0.1002 -0.1176  0.1658
 1627TIP3    H126516   2.898   5.623   8.244  0.5537  0.1811 -0.1689
 1627TIP3    H226517   2.939   5.675   8.381 -2.2256 -1.0839  1.2402
 1628TIP3   OH226518   5.321   2.520   7.840  0.1641  0.6926  0.3588
 1628TIP3    H126519   5.333   2.610   7.811  0.2636  0.2047 -1.2338
 1628TIP3    H226520   5.409   2.487   7.853  0.1741  0.4655 -0.2658
 1629TIP3   OH226521   4.536   4.060   0.965  0.3301 -0.5371 -0.4800
 1629TIP3    H126522   4.571   4.080   1.052 -0.5653  0.1290 -0.2665
 1629TIP3    H226523   4.445   4.087   0.969  0.2757 -0.5257 -1.6231
 1630TIP3   OH226524   2.130   3.131   1.523  0.0335  0.2926  0.0475
 1630TIP3    H126525   2.137   3.111   1.430  0.5495  0.0255  0.1434
 1630TIP3    H226526   2.143   3.047   1.568 -0.1232  0.4332  0.3639
 1631TIP3   OH226527   4.979   1.156   7.933 -0.1307 -0.5096 -0.1898
 1631TIP3    H126528   4.920   1.082   7.943 -2.4119  1.0708 -1.0491
 1631TIP3    H226529   5.061   1.118   7.903 -1.1201 -2.7078 -0.2621
 1632TIP3   OH226530   2.859   2.996   0.698 -0.9466 -0.1409  0.0375
 1632TIP3    H126531   2.881   3.028   0.611 -0.8462 -0.9366 -0.2381
 1632TIP3    H226532   2.789   3.054   0.728 -0.6495  0.4397 -0.3659
 1633TIP3   OH226533   2.535   5.081   1.975 -0.1656 -0.1015  0.0632
 1633TIP3    H126534   2.560   5.028   2.051  2.2039  0.5411 -0.1701
 1633TIP3    H226535   2.445   5.056   1.957 -0.1402 -1.7589  1.8435
 1634TIP3   OH226536   0.915   1.821   6.459 -0.5133 -0.4047  0.4831
 1634TIP3    H126537   0.974   1.746   6.454  1.7538  1.3311 -1.0146
 1634TIP3    H226538   0.872   1.824   6.374  1.2832  1.3084 -0.4452
 1635TIP3   OH226539   1.097   2.397   1.513 -0.7847  0.3457  0.0570
 1635TIP3    H126540   1.070   2.487   1.492 -1.4738 -0.3995 -2.5481
 1635TIP3    H226541   1.115   2.357   1.429  1.4327 -1.4371  1.2899
 1636TIP3   OH226542   3.413   0.888   7.626  0.0027 -0.1256  0.0303
 1636TIP3    H126543   3.323   0.863   7.648  0.0393  0.3033  0.7094
 1636TIP3    H226544   3.455   0.805   7.601 -0.4242 -0.4186  0.2594
 1637TIP3   OH226545   4.306   2.168   7.347  0.4539  0.4549  0.3764
 1637TIP3    H126546   4.303   2.246   7.291  1.7726 -0.6277 -1.3083
 1637TIP3    H226547   4.221   2.168   7.392  0.0227  2.3039 -0.3216
 1638TIP3   OH226548   0.199   4.104   7.739  0.1683  0.0865 -0.5108
 1638TIP3    H126549   0.258   4.160   7.689 -0.4924  0.1128 -1.2843
 1638TIP3    H226550   0.166   4.041   7.675 -1.2190  0.5358 -0.2669
 1639TIP3   OH226551   1.290   3.897   2.454  0.1115  0.3804 -0.4285
 1639TIP3    H126552   1.237   3.936   2.385  0.5341 -1.0694 -1.6116
 1639TIP3    H226553   1.237   3.907   2.534 -1.5290 -0.1665 -1.4032
 1640TIP3   OH226554   3.865   0.640   7.560 -0.1056  1.0347  0.0975
 1640TIP3    H126555   3.857   0.711   7.496  0.1403  0.1795 -0.9180
 1640TIP3    H226556   3.911   0.571   7.513 -2.0351 -0.5454  0.4119
 1641TIP3   OH226557   2.948   0.084   7.522  0.3103  0.0801 -0.2772
 1641TIP3    H126558   2.854   0.083   7.540  0.3049 -0.8989 -0.3279
 1641TIP3    H226559   2.973   0.176   7.530 -1.1447  0.7817 -2.8927
 1642TIP3   OH226560   2.278   0.306   0.798  0.4444 -0.1627 -0.4171
 1642TIP3    H126561   2.304   0.358   0.873  0.0107 -0.2405 -0.2094
 1642TIP3    H226562   2.196   0.346   0.768 -0.8752 -1.7888  0.8447
 1643TIP3   OH226563   5.936   6.137   1.919  0.3774 -0.0504  0.2237
 1643TIP3    H126564   5.965   6.068   1.859  0.3270 -0.2389  0.4117
 1643TIP3    H226565   5.867   6.095   1.971  1.0081 -0.1598  0.9971
 1644TIP3   OH226566   1.857   1.306   7.532  0.5462 -0.0204  0.3333
 1644TIP3    H126567   1.784   1.368   7.533 -0.4692 -1.1092 -1.1650
 1644TIP3    H226568   1.816   1.220   7.524  1.9745 -0.7425  0.3935
 1645TIP3   OH226569   6.399   2.417   0.673  0.3828  0.4622 -0.4321
 1645TIP3    H126570   6.310   2.431   0.643 -0.0957 -1.8107 -0.2598
 1645TIP3    H226571   6.452   2.480   0.624 -1.2748  1.7536 -0.6267
 1646TIP3   OH226572   4.715   3.688   0.978 -0.1214  0.4384  0.0350
 1646TIP3    H126573   4.744   3.621   1.039 -0.6492 -0.5466 -0.7679
 1646TIP3    H226574   4.736   3.771   1.022 -1.0836 -0.2174  1.8529
 1647TIP3   OH226575   4.631   1.007   0.348 -0.2284 -0.0923 -0.2075
 1647TIP3    H126576   4.637   1.011   0.443 -0.0106  0.7776 -0.2462
 1647TIP3    H226577   4.663   0.920   0.325  0.7626  0.0914  0.4368
 1648TIP3   OH226578   4.174   5.077   0.111  0.4434 -0.0570 -0.0040
 1648TIP3    H126579   4.175   5.042   0.200  0.6464  0.8002  0.3380
 1648TIP3    H226580   4.097   5.132   0.108 -0.1720 -0.9257 -0.7087
 1649TIP3   OH226581   1.896   3.587   1.621 -0.1307 -0.1457  0.1144
 1649TIP3    H126582   1.891   3.496   1.592 -1.5298 -0.1293  0.2404
 1649TIP3    H226583   1.947   3.631   1.553 -0.2255 -0.8356 -0.4095
 1650TIP3   OH226584   3.302   0.152   0.729  0.4164  0.0644 -0.0951
 1650TIP3    H126585   3.211   0.164   0.754  0.3673  0.0435 -0.2605
 1650TIP3    H226586   3.318   0.059   0.740 -0.1852 -0.3160 -2.0200
 1651TIP3   OH226587   5.417   0.971   1.700  0.4057  0.6787  0.0049
 1651TIP3    H126588   5.330   0.974   1.661  0.0941 -1.4806  0.4214
 1651TIP3    H226589   5.402   0.972   1.795  0.6591 -1.5919  0.1205
 1652TIP3   OH226590   3.094   5.215   0.841  0.1562  0.4579 -0.1902
 1652TIP3    H126591   3.118   5.124   0.858 -3.2513 -0.2986  1.3450
 1652TIP3    H226592   2.999   5.218   0.854  0.2832  4.5513  1.2422
 1653TIP3   OH226593   3.375   0.197   0.091 -0.3277  0.3193  0.5322
 1653TIP3    H126594   3.317   0.230   0.160 -0.4815  2.4223 -0.5183
 1653TIP3    H226595   3.316   0.171   0.021 -0.2408 -2.8775  1.5108
 1654TIP3   OH226596   1.978   2.172   0.963 -0.3925  0.1221  0.0933
 1654TIP3    H126597   1.953   2.261   0.938  0.8384 -0.0181 -1.8821
 1654TIP3    H226598   1.954   2.118   0.888  0.6400 -0.8785  0.4532
 1655TIP3   OH226599   1.136   0.625   1.292  0.3538 -0.4353 -0.1893
 1655TIP3    H126600   1.070   0.577   1.242 -0.1470  1.3680 -1.3488
 1655TIP3    H226601   1.137   0.582   1.378  0.0251 -2.5390 -1.1753
 1656TIP3   OH226602   0.975   3.059   7.571  0.1284 -0.2648 -0.1033
 1656TIP3    H126603   0.987   2.987   7.509 -1.3402  1.3002 -2.3343
 1656TIP3    H226604   1.020   3.133   7.531 -0.3830  0.6558  0.9783
 1657TIP3   OH226605   0.956   5.502   6.884 -0.1424 -0.2527  0.2622
 1657TIP3    H126606   1.015   5.427   6.879 -0.2152 -0.2835 -0.1488
 1657TIP3    H226607   0.914   5.493   6.970 -0.5305 -0.9745  0.0156
 1658TIP3   OH226608   5.605   5.021   1.648 -0.1254 -0.6385 -0.2250
 1658TIP3    H126609   5.550   5.070   1.708 -0.0113 -1.9285  0.9831
 1658TIP3    H226610   5.671   4.979   1.704  0.2406 -1.5335 -1.2882
 1659TIP3   OH226611   2.041   6.657   7.414 -0.7069  0.1934  0.5064
 1659TIP3    H126612   2.087   6.605   7.349  0.4031  0.6661  0.8966
 1659TIP3    H226613   2.030   6.598   7.489 -0.0209  0.3231  0.7097
 1660TIP3   OH226614   6.701   4.313   6.517 -0.1156  0.1449 -0.2742
 1660TIP3    H126615   6.783   4.280   6.479 -0.6757 -2.5744  0.6677
 1660TIP3    H226616   6.649   4.341   6.442  0.3403 -1.4247 -1.2314
 1661TIP3   OH226617   1.343   0.307   1.058  0.1922  0.0151  0.7188
 1661TIP3    H126618   1.260   0.317   1.013 -0.0041  0.6947  1.2111
 1661TIP3    H226619   1.404   0.275   0.991 -0.0630  1.1210 -0.0588
 1662TIP3   OH226620   1.261   0.592   7.184  0.3491  0.1258 -0.3757
 1662TIP3    H126621   1.190   0.553   7.235  0.5813 -0.1811 -0.2840
 1662TIP3    H226622   1.310   0.645   7.247  0.4505 -0.0010 -0.3479
 1663TIP3   OH226623   1.294   2.214   8.589 -0.4725  0.4645 -0.1485
 1663TIP3    H126624   1.341   2.245   8.512 -0.0942  1.3961  0.4318
 1663TIP3    H226625   1.363   2.189   8.651 -0.7731 -0.5108 -0.1925
 1664TIP3   OH226626   0.882   2.685   7.562 -0.1637 -0.0047  0.5476
 1664TIP3    H126627   0.908   2.603   7.603  2.8124  0.3736 -0.3870
 1664TIP3    H226628   0.946   2.749   7.592 -0.6904  1.3182 -0.9939
 1665TIP3   OH226629   4.164   6.099   7.753 -0.2463 -0.5567  0.5627
 1665TIP3    H126630   4.159   6.119   7.847 -1.6089 -0.4964  0.5022
 1665TIP3    H226631   4.193   6.181   7.713 -3.9408  0.9174  0.5222
 1666TIP3   OH226632   3.195   6.000   8.457 -0.1567  0.3181 -0.5822
 1666TIP3    H126633   3.236   5.984   8.372  0.0333  1.2734 -0.6781
 1666TIP3    H226634   3.120   5.941   8.458  0.2920 -0.2717 -1.0827
 1667TIP3   OH226635   0.031   1.971   0.460  0.1208 -0.3195 -0.0469
 1667TIP3    H126636   0.104   1.944   0.516  0.3285  1.6132  0.6729
 1667TIP3    H226637  -0.025   2.025   0.516 -0.6891  0.0722 -1.1849
 1668TIP3   OH226638   3.197   0.512   0.450 -0.5130  0.3331  0.1259
 1668TIP3    H126639   3.246   0.593   0.437  0.1186  0.2531  1.8250
 1668TIP3    H226640   3.166   0.516   0.540  0.7233 -1.9253  0.7268
 1669TIP3   OH226641   4.588   0.196   0.191 -0.2735  0.3013 -0.3130
 1669TIP3    H126642   4.493   0.189   0.197 -0.1212 -2.5762  0.1555
 1669TIP3    H226643   4.609   0.275   0.242 -2.2414 -0.3799  1.7382
 1670TIP3   OH226644   3.516   3.007   0.065 -0.2388  0.2726 -0.0729
 1670TIP3    H126645   3.433   3.040   0.031  0.8745  1.0421 -2.1499
 1670TIP3    H226646   3.515   2.914   0.043  0.2295  0.6542 -1.7857
 1671TIP3   OH226647   4.655   1.393   7.224 -0.0131 -0.1512 -0.1036
 1671TIP3    H126648   4.746   1.382   7.253 -0.3093  0.9383  1.3677
 1671TIP3    H226649   4.612   1.312   7.251 -0.2667  0.8080  2.6465
 1672TIP3   OH226650   3.647   2.187   0.068  0.0772  0.2539 -0.2159
 1672TIP3    H126651   3.577   2.128   0.042 -1.4671  1.0663  1.8077
 1672TIP3    H226652   3.618   2.273   0.038  0.2183  0.5837  0.5587
 1673TIP3   OH226653   4.089   2.832   0.811 -0.9094  0.0775  0.1615
 1673TIP3    H126654   4.108   2.857   0.720  0.7109  0.8333  0.6601
 1673TIP3    H226655   4.163   2.776   0.836 -1.7528 -0.7755  0.7712
 1674TIP3   OH226656   5.589   2.446   7.884  0.5417 -0.1885 -0.5280
 1674TIP3    H126657   5.622   2.463   7.972  1.4480  1.3604 -1.1381
 1674TIP3    H226658   5.651   2.384   7.847  0.4024 -0.5038 -0.2431
 1675TIP3   OH226659   3.299   2.015   6.721 -0.5208 -0.9132 -0.0243
 1675TIP3    H126660   3.211   2.021   6.759 -0.0783  3.2545  0.8445
 1675TIP3    H226661   3.310   2.097   6.673  2.2464 -2.1519 -1.7843
 1676TIP3   OH226662   1.579   4.936   2.104 -0.0009 -0.0493  0.6251
 1676TIP3    H126663   1.500   4.950   2.156  0.1166  1.0664  0.5209
 1676TIP3    H226664   1.634   5.013   2.121  1.2387 -0.9633  0.9824
 1677TIP3   OH226665   1.106   5.175   1.730  0.1405 -0.0751 -0.1819
 1677TIP3    H126666   1.101   5.131   1.815  0.5315  0.0549 -0.0921
 1677TIP3    H226667   1.198   5.197   1.719  0.6615 -2.5931 -1.8983
 1678TIP3   OH226668   5.352   0.917   0.347 -0.0131  0.1665  0.4188
 1678TIP3    H126669   5.289   0.929   0.418 -1.4939  1.7225 -1.0574
 1678TIP3    H226670   5.400   1.000   0.343 -0.8649  0.6432 -1.1614
 1679TIP3   OH226671   5.766   5.418   0.223 -0.5783  0.4060 -0.4006
 1679TIP3    H126672   5.686   5.367   0.213 -0.1991 -0.6843  1.5165
 1679TIP3    H226673   5.737   5.505   0.250 -1.1305 -0.0697  0.5727
 1680TIP3   OH226674   2.275   0.371   1.798 -0.3334 -0.4371  0.1040
 1680TIP3    H126675   2.183   0.344   1.801 -0.4750  0.0478  0.2932
 1680TIP3    H226676   2.304   0.369   1.889 -1.0010  2.1682  0.4605
 1681TIP3   OH226677   6.320   2.264   1.010  0.1599 -0.2093  0.1266
 1681TIP3    H126678   6.407   2.268   1.049 -0.5863  0.6205  1.7971
 1681TIP3    H226679   6.290   2.174   1.028  0.6392 -0.4852 -0.4224
 1682TIP3   OH226680   1.051   0.138   0.342  0.0113 -0.3444  0.2747
 1682TIP3    H126681   1.056   0.201   0.270 -0.0831  0.4403  0.9384
 1682TIP3    H226682   1.141   0.127   0.370  0.0971 -0.9745 -0.2263
 1683TIP3   OH226683   6.824   3.174   7.574 -0.1189  0.5630  0.0660
 1683TIP3    H126684   6.864   3.167   7.660 -0.9945  1.1327  0.5389
 1683TIP3    H226685   6.783   3.261   7.573 -2.9093 -0.6253  0.3418
 1684TIP3   OH226686   4.413   0.575   8.766  0.2330  0.1856 -0.0863
 1684TIP3    H126687   4.472   0.631   8.716 -1.1272  1.4481 -0.3404
 1684TIP3    H226688   4.465   0.496   8.784  1.2523  0.2800 -2.2281
 1685TIP3   OH226689   4.550   5.968   8.712 -0.0656  0.0404  0.0562
 1685TIP3    H126690   4.554   6.062   8.730 -0.0456  0.0341  0.0835
 1685TIP3    H226691   4.458   5.953   8.688 -0.6147 -0.3064  2.1734
 1686TIP3   OH226692   5.944   1.011   6.636 -0.0485  0.1227 -0.6087
 1686TIP3    H126693   5.851   1.003   6.658  0.1519 -1.7019 -0.2377
 1686TIP3    H226694   5.963   0.934   6.583  1.5808 -0.3907  0.6304
 1687TIP3   OH226695   3.969   0.646   2.252 -0.0154 -0.7580 -0.0375
 1687TIP3    H126696   3.955   0.731   2.294  3.6567 -0.4017  0.8265
 1687TIP3    H226697   4.034   0.663   2.184  0.3722 -2.7543 -0.2323
 1688TIP3   OH226698   1.719   1.014   1.886  0.5162  0.4680 -0.2260
 1688TIP3    H126699   1.716   1.110   1.890  0.6647  0.5245 -1.2371
 1688TIP3    H226700   1.683   0.992   1.800 -0.6759 -0.4558  0.4844
 1689TIP3   OH226701   0.747   5.473   1.011 -0.0836 -0.4772  0.1476
 1689TIP3    H126702   0.673   5.532   1.001  0.2247 -0.2556 -0.8997
 1689TIP3    H226703   0.819   5.530   1.039  0.3089 -0.2648 -1.2167
 1690TIP3   OH226704   4.520   5.334   0.836  0.1748 -0.4479 -0.3728
 1690TIP3    H126705   4.463   5.282   0.893  2.1960 -1.7880  0.5749
 1690TIP3    H226706   4.534   5.415   0.884  1.7164 -1.4956  1.0740
 1691TIP3   OH226707   0.941   1.702   1.019 -0.1647 -0.0077 -0.1207
 1691TIP3    H126708   0.927   1.612   0.989  0.5624 -0.2634  0.2784
 1691TIP3    H226709   0.985   1.692   1.104 -3.1760  0.6247  1.6766
 1692TIP3   OH226710   6.548   2.587   0.505 -0.4607 -0.4513  0.6116
 1692TIP3    H126711   6.633   2.581   0.462 -0.7610 -1.1736  0.1039
 1692TIP3    H226712   6.545   2.677   0.538 -0.7802  0.6644 -2.1237
 1693TIP3   OH226713   2.063   0.439   7.137  0.4566  0.3954 -0.5919
 1693TIP3    H126714   2.108   0.497   7.075 -0.8263  0.8423 -1.1472
 1693TIP3    H226715   2.036   0.364   7.084 -1.1943  1.0653 -0.7639
 1694TIP3   OH226716   6.834   0.098   0.216  0.3488  0.4055  0.3380
 1694TIP3    H126717   6.862   0.041   0.288 -0.3373 -2.3402 -1.4080
 1694TIP3    H226718   6.916   0.124   0.174  0.6392 -1.0677 -0.0699
 1695TIP3   OH226719   2.968   6.622   7.756 -0.2832 -0.1967 -0.1052
 1695TIP3    H126720   3.048   6.617   7.809 -1.0753 -1.7700  1.0232
 1695TIP3    H226721   2.930   6.707   7.780 -0.7992 -0.9983  2.2254
 1696TIP3   OH226722   3.948   3.512   0.560  0.3001  0.0604 -0.4834
 1696TIP3    H126723   3.982   3.438   0.510 -0.2493 -0.2872 -0.3566
 1696TIP3    H226724   3.943   3.584   0.496  0.8071 -0.0143 -0.6134
 1697TIP3   OH226725   0.373   4.256   7.932  0.1577  0.1586 -0.3193
 1697TIP3    H126726   0.345   4.174   7.973  1.5251 -0.1290  0.1172
 1697TIP3    H226727   0.292   4.297   7.903 -0.6078 -1.0874 -0.0586
 1698TIP3   OH226728   1.299   0.934   1.663 -1.1387  0.3961 -0.0713
 1698TIP3    H126729   1.251   0.938   1.581 -0.0102 -1.1184 -0.8493
 1698TIP3    H226730   1.376   0.989   1.648  0.0491 -1.4021 -0.7467
 1699TIP3   OH226731   4.166   0.775   8.767  0.0478 -0.3080  0.1012
 1699TIP3    H126732   4.246   0.722   8.758  1.5422  2.0023 -1.0224
 1699TIP3    H226733   4.159   0.823   8.684 -1.9428  0.3419  0.5909
 1700TIP3   OH226734   3.348   4.338   7.405 -0.0545  0.1355 -0.3971
 1700TIP3    H126735   3.293   4.344   7.483  0.1928  1.1028 -0.2821
 1700TIP3    H226736   3.412   4.270   7.426  0.5688  1.0027  0.6135
 1701TIP3   OH226737   5.571   1.121   8.575  0.7236 -0.2328  0.0980
 1701TIP3    H126738   5.539   1.057   8.638  1.9045  0.3292  1.3131
 1701TIP3    H226739   5.503   1.188   8.573  0.4199 -0.5281  0.3352
 1702TIP3   OH226740   4.288   4.574   0.721  0.0894 -0.1211 -0.0673
 1702TIP3    H126741   4.336   4.654   0.741  0.4335 -0.3170 -0.0985
 1702TIP3    H226742   4.353   4.505   0.727 -0.6996 -0.7634  2.5613
 1703TIP3   OH226743   5.640   4.922   8.006  0.2036 -0.2002 -0.2812
 1703TIP3    H126744   5.605   4.915   8.095 -0.0667  0.4636 -0.3282
 1703TIP3    H226745   5.602   5.004   7.972 -0.7318 -1.0885 -1.4674
 1704TIP3   OH226746   1.513   2.148   6.440  0.1924  0.5594 -0.5749
 1704TIP3    H126747   1.571   2.108   6.505  1.7603  0.9243 -1.7012
 1704TIP3    H226748   1.443   2.188   6.492 -0.6681 -2.3039  0.6927
 1705TIP3   OH226749   5.861   1.966   6.643  0.8421  0.1400 -0.3628
 1705TIP3    H126750   5.849   2.017   6.562  1.7938 -0.3901 -0.8679
 1705TIP3    H226751   5.896   1.882   6.613  1.3924  0.0021  0.6156
 1706TIP3   OH226752   0.451   3.357   0.488  0.7454 -0.5742 -0.2222
 1706TIP3    H126753   0.393   3.429   0.465  1.7037 -0.0549 -1.1038
 1706TIP3    H226754   0.396   3.297   0.539 -0.6382 -0.2597 -1.2768
 1707TIP3   OH226755   5.861   2.822   6.585  0.3893  0.3437  0.2273
 1707TIP3    H126756   5.858   2.728   6.568 -1.8088  0.3526  0.3731
 1707TIP3    H226757   5.805   2.861   6.519  1.2762  1.5867  0.1649
 1708TIP3   OH226758   2.633   5.887   7.591  0.0631  0.0256 -0.4610
 1708TIP3    H126759   2.723   5.876   7.559 -0.3618  0.3795 -1.8196
 1708TIP3    H226760   2.604   5.798   7.611  1.6237  0.0878  2.7050
 1709TIP3   OH226761   0.474   3.205   1.652 -0.1771 -0.0701 -0.0671
 1709TIP3    H126762   0.437   3.137   1.595  0.5389  1.1266 -2.0716
 1709TIP3    H226763   0.536   3.251   1.596  0.0498  1.6403  1.5192
 1710TIP3   OH226764   6.553   2.730   7.795  0.8224  0.2424 -0.7059
 1710TIP3    H126765   6.588   2.818   7.779  2.1604 -0.3161 -0.9308
 1710TIP3    H226766   6.480   2.722   7.733 -1.3089  2.2773  1.3262
 1711TIP3   OH226767   6.474   6.061   6.667  0.5621 -0.5225 -0.2279
 1711TIP3    H126768   6.470   6.130   6.600 -0.7948 -1.2672 -0.9642
 1711TIP3    H226769   6.412   5.995   6.636 -0.3619 -0.7421  1.9598
 1712TIP3   OH226770   3.836   3.797   2.511 -0.0491  0.6912 -0.0123
 1712TIP3    H126771   3.841   3.768   2.420 -1.9539  1.1515 -0.3129
 1712TIP3    H226772   3.923   3.833   2.530  1.1097 -1.4681 -0.8920
 1713TIP3   OH226773   2.572   6.533   6.914  0.3296  0.1280  0.8247
 1713TIP3    H126774   2.663   6.508   6.933  0.2688  0.9258  2.2468
 1713TIP3    H226775   2.579   6.589   6.837  0.9329 -0.5302  0.3765
 1714TIP3   OH226776   5.938   2.584   1.829 -0.0368 -0.4781 -0.7592
 1714TIP3    H126777   5.900   2.651   1.771  0.2348  0.2990 -0.0653
 1714TIP3    H226778   5.886   2.506   1.812 -1.7163  0.4560 -0.1216
 1715TIP3   OH226779   4.345   1.756   7.596 -0.1561  0.0306  0.9868
 1715TIP3    H126780   4.435   1.783   7.614 -0.7336  1.7854  1.3694
 1715TIP3    H226781   4.323   1.799   7.513 -1.1688  0.9470  1.7159
 1716TIP3   OH226782   5.654   4.284   8.231 -0.4026  0.0710 -0.6452
 1716TIP3    H126783   5.669   4.240   8.315  0.4141  1.7220  0.1240
 1716TIP3    H226784   5.738   4.322   8.209 -1.1888  1.7173 -0.9656
 1717TIP3   OH226785   3.921   2.403   7.217 -0.2524 -0.3196  0.4961
 1717TIP3    H126786   3.954   2.416   7.128 -0.0555  1.4171  0.7751
 1717TIP3    H226787   3.900   2.492   7.248 -1.5250 -1.0096  1.7326
 1718TIP3   OH226788   1.628   4.289   6.687  0.7674  0.1709 -0.0991
 1718TIP3    H126789   1.666   4.318   6.604 -1.1815  0.3031 -0.9963
 1718TIP3    H226790   1.536   4.317   6.683  0.0341 -1.8753  1.0983
 1719TIP3   OH226791   0.758   6.037   8.261  0.5048 -0.6992  0.2299
 1719TIP3    H126792   0.702   6.047   8.338 -1.5159 -0.8708 -1.1319
 1719TIP3    H226793   0.709   6.081   8.191  1.9062 -1.2335 -1.1271
 1720TIP3   OH226794   6.165   3.677   7.636 -0.6070  0.2818 -0.0429
 1720TIP3    H126795   6.160   3.704   7.545 -0.0323  1.8892  0.3719
 1720TIP3    H226796   6.115   3.596   7.640 -0.8224  0.3038 -1.7319
 1721TIP3   OH226797   3.106   3.684   0.194 -0.2088  0.1268 -0.1584
 1721TIP3    H126798   3.181   3.733   0.161 -1.0256  0.6886 -1.2705
 1721TIP3    H226799   3.052   3.750   0.237 -0.6293 -0.0508 -0.4062
 1722TIP3   OH226800   0.226   4.585   7.905  0.1440  0.1885 -0.0838
 1722TIP3    H126801   0.148   4.551   7.861  1.0555 -0.1553 -1.4771
 1722TIP3    H226802   0.273   4.634   7.837 -0.5789  3.4618  1.5340
 1723TIP3   OH226803   3.421   5.872   8.340 -0.4032  0.1593  0.1954
 1723TIP3    H126804   3.456   5.840   8.257 -1.4119 -1.4642  0.3661
 1723TIP3    H226805   3.467   5.955   8.355  0.7456 -0.1696 -1.3227
 1724TIP3   OH226806   3.500   6.689   1.408  0.2912 -0.2578  0.6105
 1724TIP3    H126807   3.559   6.660   1.477  1.0355  0.5195  0.3307
 1724TIP3    H226808   3.446   6.613   1.388  2.3517 -1.5564 -0.3227
 1725TIP3   OH226809   3.135   0.823   1.172 -0.2153  0.4789 -0.0586
 1725TIP3    H126810   3.201   0.772   1.125  0.1882 -0.4074  1.3930
 1725TIP3    H226811   3.166   0.914   1.166  0.0683  0.3184 -1.0753
 1726TIP3   OH226812   1.929   4.774   7.341  0.3484  0.1219  0.6873
 1726TIP3    H126813   1.936   4.692   7.390  0.4464 -0.4699 -0.2902
 1726TIP3    H226814   1.884   4.750   7.260  2.9804  0.3757 -0.9735
 1727TIP3   OH226815   3.312   3.818   0.109  0.2325 -0.1352 -0.6374
 1727TIP3    H126816   3.323   3.867   0.190  0.1095 -1.7511  0.3903
 1727TIP3    H226817   3.268   3.879   0.050 -0.5923  0.7497  0.8462
 1728TIP3   OH226818   1.864   2.484   7.703  0.2281  0.0691  0.6603
 1728TIP3    H126819   1.908   2.550   7.650  1.0602 -0.3441  0.8139
 1728TIP3    H226820   1.896   2.400   7.668 -0.9221 -0.2670  0.3690
 1729TIP3   OH226821   0.835   4.205   7.904  0.2745 -0.1646 -0.0967
 1729TIP3    H126822   0.820   4.111   7.904  2.0452 -0.5235 -1.4634
 1729TIP3    H226823   0.763   4.241   7.853  0.0104 -0.8881 -0.2420
 1730TIP3   OH226824   0.482   3.184   6.719  0.6379 -0.2576  0.1359
 1730TIP3    H126825   0.497   3.149   6.632  2.4345 -0.0568  0.3201
 1730TIP3    H226826   0.561   3.161   6.768 -0.0563  0.1931  1.5159
 1731TIP3   OH226827   2.815   2.302   7.031 -0.6268  0.6993  0.1147
 1731TIP3    H126828   2.907   2.331   7.031 -0.7250  1.0142  0.0494
 1731TIP3    H226829   2.765   2.381   7.011 -0.9407  0.6142  0.5550
 1732TIP3   OH226830   2.550   3.398   7.600  0.4317  0.1851 -0.5119
 1732TIP3    H126831   2.598   3.479   7.615 -0.4025  0.5154  0.5726
 1732TIP3    H226832   2.476   3.424   7.545  0.0815  0.1952 -0.0406
 1733TIP3   OH226833   0.321   0.843   1.558 -0.5954 -0.4245  0.5058
 1733TIP3    H126834   0.241   0.792   1.540 -0.1233 -0.1337 -3.2438
 1733TIP3    H226835   0.291   0.934   1.562 -0.6055 -0.4054  0.0837
 1734TIP3   OH226836   0.186   3.650   0.823  0.5777 -0.0422  0.4446
 1734TIP3    H126837   0.139   3.590   0.765 -0.1888 -0.1779  1.1971
 1734TIP3    H226838   0.248   3.595   0.870  2.0643  0.2408 -1.0683
 1735TIP3   OH226839   6.472   0.045   8.822  0.0178 -0.1358 -0.1277
 1735TIP3    H126840   6.475   0.069   8.730  0.3509  1.1182  0.1880
 1735TIP3    H226841   6.492  -0.049   8.824 -0.3143 -0.2483 -1.3401
 1736TIP3   OH226842   1.241   1.186   1.487 -0.3967 -0.3554  0.5700
 1736TIP3    H126843   1.263   1.205   1.579 -2.1556 -1.7625  1.3297
 1736TIP3    H226844   1.326   1.188   1.442  0.2471  3.4857  1.5487
 1737TIP3   OH226845   4.893   3.010   6.945 -0.5412 -0.2735 -0.1860
 1737TIP3    H126846   4.871   2.919   6.968 -0.7298  0.0053  0.8025
 1737TIP3    H226847   4.971   3.003   6.891 -1.2384 -1.0958 -1.1192
 1738TIP3   OH226848   5.682   3.785   1.505 -0.3183  0.4031  0.2706
 1738TIP3    H126849   5.609   3.811   1.561 -1.2549  0.5525 -0.9773
 1738TIP3    H226850   5.759   3.827   1.545 -1.0265  0.8760  1.1718
 1739TIP3   OH226851   3.730   1.362   1.322  0.6443  0.4518  0.1445
 1739TIP3    H126852   3.777   1.312   1.256 -0.1264 -1.2240  0.8264
 1739TIP3    H226853   3.798   1.418   1.362  1.1236  1.4576 -1.9542
 1740TIP3   OH226854   0.999   6.088   6.667  0.1844  0.5513 -0.2383
 1740TIP3    H126855   0.936   6.079   6.595 -0.0469  3.1560 -0.4586
 1740TIP3    H226856   0.951   6.058   6.745 -0.1390 -0.6785 -0.8754
 1741TIP3   OH226857   3.119   5.953   7.672  0.0479  0.1958  0.3450
 1741TIP3    H126858   3.119   6.049   7.672 -2.1803  0.3042 -1.6077
 1741TIP3    H226859   3.093   5.929   7.583 -0.7927 -2.1798  1.1411
 1742TIP3   OH226860   4.264   2.555   1.309  0.1498  0.2471 -0.3140
 1742TIP3    H126861   4.293   2.627   1.254  2.0613  0.3354  0.7250
 1742TIP3    H226862   4.320   2.481   1.283 -0.0534 -0.1539  0.3614
 1743TIP3   OH226863   0.144   1.694   0.972 -0.0034 -0.2378  0.0933
 1743TIP3    H126864   0.177   1.646   1.048 -1.1704 -1.7823 -0.3399
 1743TIP3    H226865   0.146   1.786   1.000  3.3050 -0.3207  0.5750
 1744TIP3   OH226866   3.788   0.097   8.270  0.0350 -0.1253 -0.1244
 1744TIP3    H126867   3.729   0.051   8.329  0.5975 -1.0616 -0.2797
 1744TIP3    H226868   3.739   0.105   8.188  0.1135 -0.9070 -0.2576
 1745TIP3   OH226869   2.328   0.216   7.805  0.1314 -0.4709  0.4784
 1745TIP3    H126870   2.362   0.186   7.889 -2.4567 -1.7779  1.1770
 1745TIP3    H226871   2.256   0.275   7.829  1.4703  1.8909 -0.8972
 1746TIP3   OH226872   1.194   3.574   6.423  0.1830 -0.2890  0.3887
 1746TIP3    H126873   1.283   3.575   6.459  0.0571  1.5847  0.7373
 1746TIP3    H226874   1.156   3.493   6.458  1.1284 -0.1570  1.8335
 1747TIP3   OH226875   1.427   3.858   2.223  0.4798  0.2852 -0.2515
 1747TIP3    H126876   1.375   3.848   2.302  0.3748 -1.8706 -0.5498
 1747TIP3    H226877   1.419   3.951   2.201 -3.1039  0.1146 -0.1944
 1748TIP3   OH226878   3.884   3.672   6.508  0.9550 -0.5155  0.1193
 1748TIP3    H126879   3.916   3.598   6.455  0.7279 -0.7349  0.2864
 1748TIP3    H226880   3.791   3.653   6.521  1.3382 -1.3271  1.9843
 1749TIP3   OH226881   0.629   4.328   7.800 -0.2056  1.0662  0.3470
 1749TIP3    H126882   0.624   4.336   7.705  0.6264  0.4744  0.2427
 1749TIP3    H226883   0.554   4.274   7.824  1.2764 -1.4314 -0.3410
 1750TIP3   OH226884   5.067   1.124   1.677 -0.2916 -0.2774  0.0837
 1750TIP3    H126885   5.052   1.043   1.628  1.1699 -0.9320  0.6515
 1750TIP3    H226886   5.132   1.171   1.625  1.2997 -0.9950  1.3196
 1751TIP3   OH226887   5.112   6.488   1.127  0.0346 -0.0860 -0.1089
 1751TIP3    H126888   5.082   6.574   1.155 -1.5353 -0.5710 -0.2045
 1751TIP3    H226889   5.205   6.500   1.108 -0.4476  1.9359 -1.5124
 1752TIP3   OH226890   5.713   2.387   0.973 -0.2488 -0.8302  0.0455
 1752TIP3    H126891   5.629   2.341   0.975 -1.3444  1.0853  1.0581
 1752TIP3    H226892   5.723   2.414   0.881 -1.0955 -0.5160  0.0288
 1753TIP3   OH226893   5.009   6.706   1.578 -0.3455  0.1969  0.4035
 1753TIP3    H126894   5.049   6.756   1.650  0.1990  1.4025 -0.7012
 1753TIP3    H226895   4.996   6.771   1.509 -2.0683 -0.6741 -0.1278
 1754TIP3   OH226896   0.515   5.268   1.145 -0.1010  0.1507 -0.2054
 1754TIP3    H126897   0.523   5.174   1.128  1.4880  0.5726 -2.2971
 1754TIP3    H226898   0.605   5.296   1.164 -0.5651  1.2392  0.4500
 1755TIP3   OH226899   2.928   5.254   7.438  0.1908 -0.3496  0.8587
 1755TIP3    H126900   2.868   5.267   7.511 -1.1602 -2.6966  0.2771
 1755TIP3    H226901   3.015   5.250   7.479 -0.1960  1.2145  1.9351
 1756TIP3   OH226902   0.986   6.709   0.902 -0.2529 -0.5216  0.5907
 1756TIP3    H126903   1.048   6.654   0.950  0.1477 -0.1000  0.5610
 1756TIP3    H226904   1.010   6.798   0.927  0.4090 -0.2565 -0.9055
 1757TIP3   OH226905   3.512   0.640   7.587 -0.0437 -0.4517 -0.3470
 1757TIP3    H126906   3.507   0.611   7.678  0.3298 -0.9026 -0.4634
 1757TIP3    H226907   3.597   0.608   7.557  0.4019  0.8154 -0.4689
 1758TIP3   OH226908   3.795   0.367   8.368 -0.3658 -0.3625 -0.5943
 1758TIP3    H126909   3.790   0.278   8.332 -0.9366 -1.2301  1.4788
 1758TIP3    H226910   3.865   0.362   8.434  0.0549  0.9326 -0.9122
 1759TIP3   OH226911   2.899   3.148   7.052 -0.1583 -0.0406 -0.1656
 1759TIP3    H126912   2.932   3.222   7.104  2.1916  0.4227 -2.1188
 1759TIP3    H226913   2.901   3.180   6.962  0.3821 -2.2916 -1.0077
 1760TIP3   OH226914   2.232   5.306   7.550  0.4030  0.2919 -0.1609
 1760TIP3    H126915   2.156   5.269   7.596  0.2901  2.0096  1.1460
 1760TIP3    H226916   2.230   5.265   7.464 -0.6988 -1.3833  0.6031
 1761TIP3   OH226917   4.688   4.130   7.083  0.0982  0.2510 -0.2349
 1761TIP3    H126918   4.651   4.141   7.171 -0.6237  0.5228 -0.5672
 1761TIP3    H226919   4.709   4.036   7.077 -0.7750  0.0457 -0.1316
 1762TIP3   OH226920   1.903   6.035   1.390  0.3195 -0.3101 -0.0580
 1762TIP3    H126921   1.809   6.018   1.377 -0.2172  0.1224  2.5736
 1762TIP3    H226922   1.905   6.102   1.458  2.5702  0.5156 -0.8689
 1763TIP3   OH226923   6.739   5.191   0.339  0.6111 -0.0939 -0.0219
 1763TIP3    H126924   6.707   5.276   0.309  0.3880 -0.3633 -0.5701
 1763TIP3    H226925   6.829   5.207   0.366 -0.1558  0.8500  2.2685
 1764TIP3   OH226926   6.457   1.356   0.842  0.6287  0.6060 -0.6742
 1764TIP3    H126927   6.426   1.431   0.891 -0.4112 -0.6843  0.7399
 1764TIP3    H226928   6.496   1.298   0.908  1.9720  0.1546 -1.8051
 1765TIP3   OH226929   0.455   2.910   1.592 -0.2460 -0.2432 -0.8871
 1765TIP3    H126930   0.407   2.930   1.672 -0.9571 -1.5989 -0.9637
 1765TIP3    H226931   0.547   2.907   1.620 -0.2485  1.4124 -0.5639
 1766TIP3   OH226932   4.935   5.305   0.463 -0.4670 -0.2213 -0.9048
 1766TIP3    H126933   4.966   5.393   0.441 -0.7075  0.0180 -0.3148
 1766TIP3    H226934   4.877   5.319   0.538  0.1805 -0.9841 -0.2518
 1767TIP3   OH226935   2.872   6.497   7.247  0.1152  0.4908  0.6971
 1767TIP3    H126936   2.867   6.579   7.296  1.9159  1.2634 -0.2835
 1767TIP3    H226937   2.945   6.511   7.186  0.6790 -1.9759  0.7315
 1768TIP3   OH226938   5.965   3.895   8.392  0.1231 -0.1653  0.1451
 1768TIP3    H126939   5.952   3.967   8.330 -0.1736 -0.0980  0.2839
 1768TIP3    H226940   6.055   3.907   8.423  0.5827 -0.7205 -0.9291
 1769TIP3   OH226941   4.661   3.028   1.085 -0.3705  0.2539 -0.3952
 1769TIP3    H126942   4.667   3.054   0.993 -1.0679  0.7350 -0.3101
 1769TIP3    H226943   4.632   2.937   1.083  0.2447  0.0534 -0.6560
 1770TIP3   OH226944   4.886   4.267   0.027  0.2143 -0.6217 -0.9718
 1770TIP3    H126945   4.947   4.202   0.062  0.2759 -0.5939 -1.0253
 1770TIP3    H226946   4.939   4.318  -0.035 -0.4863 -2.1968 -2.9759
 1771TIP3   OH226947   1.561   2.560   2.162  0.3101 -0.4722 -0.2850
 1771TIP3    H126948   1.513   2.637   2.190  0.7342 -1.3672  3.4396
 1771TIP3    H226949   1.644   2.594   2.128  0.3932  0.7246  1.0594
 1772TIP3   OH226950   4.121   1.950   7.061 -0.3369 -0.1198 -0.0025
 1772TIP3    H126951   4.068   1.941   7.140 -0.1132 -0.0387  0.1588
 1772TIP3    H226952   4.144   2.043   7.058  0.0006 -0.1999  0.0637
 1773TIP3   OH226953   4.669   4.040   6.647 -0.0423 -0.5902 -0.4441
 1773TIP3    H126954   4.730   3.974   6.613 -1.1113 -1.5770 -0.5371
 1773TIP3    H226955   4.703   4.062   6.733  0.7403 -0.7072 -0.7136
 1774TIP3   OH226956   1.136   1.049   0.278  0.3593  0.4300  0.1603
 1774TIP3    H126957   1.184   0.971   0.247 -0.9311  0.0994 -1.1329
 1774TIP3    H226958   1.149   1.049   0.373  1.3950 -0.6733  0.0458
 1775TIP3   OH226959   5.409   3.848   1.572 -0.0859  0.0765  0.2411
 1775TIP3    H126960   5.323   3.815   1.597  1.0554 -2.6882  0.9217
 1775TIP3    H226961   5.460   3.845   1.653  1.4958 -1.4714 -0.7352
 1776TIP3   OH226962   2.018   1.763   7.842  0.4131  0.5458  0.2318
 1776TIP3    H126963   1.951   1.822   7.805  0.8308  0.7701 -0.1755
 1776TIP3    H226964   1.998   1.761   7.936 -0.5562  0.1078  0.0277
 1777TIP3   OH226965   4.563   0.665   0.753  0.0262  0.1434 -0.4763
 1777TIP3    H126966   4.541   0.612   0.676 -0.5695 -0.7943  0.3212
 1777TIP3    H226967   4.508   0.630   0.823 -1.3269  2.6511 -0.1849
 1778TIP3   OH226968   2.162   2.738   0.696 -0.1799 -0.2120 -0.5039
 1778TIP3    H126969   2.164   2.766   0.787  0.5257 -0.4270 -0.4541
 1778TIP3    H226970   2.069   2.720   0.679 -0.1487 -1.5433  0.5845
 1779TIP3   OH226971   3.747   3.752   1.258  0.0316 -0.1028 -0.3728
 1779TIP3    H126972   3.804   3.705   1.319  0.3517 -0.0667 -0.6436
 1779TIP3    H226973   3.796   3.754   1.176 -1.4378 -2.3732 -1.3922
 1780TIP3   OH226974   0.331   6.719   8.050  0.1765 -0.2566 -0.7635
 1780TIP3    H126975   0.382   6.701   7.971  1.0241  0.7768 -0.4877
 1780TIP3    H226976   0.243   6.738   8.019 -0.1548 -2.3652 -1.2324
 1781TIP3   OH226977   0.520   1.487   1.646  0.3845 -0.5622  0.1196
 1781TIP3    H126978   0.427   1.495   1.668  0.7352  0.9625  1.1846
 1781TIP3    H226979   0.543   1.397   1.668 -1.3643 -1.7346 -2.3931
 1782TIP3   OH226980   5.512   5.815   6.983  0.0715  0.7125 -0.2896
 1782TIP3    H126981   5.510   5.865   7.065  1.8633  0.6534 -0.1736
 1782TIP3    H226982   5.420   5.797   6.964 -0.3679  0.1850  2.0439
 1783TIP3   OH226983   4.685   4.320   1.490  0.6580 -0.0768  0.5182
 1783TIP3    H126984   4.611   4.380   1.490  1.5507  1.0682  0.4333
 1783TIP3    H226985   4.758   4.372   1.524  1.5719 -0.9717 -0.0024
 1784TIP3   OH226986   5.693   6.026   2.004  0.0696 -0.3819 -0.3350
 1784TIP3    H126987   5.662   5.946   1.961  0.2089  0.0935 -1.3611
 1784TIP3    H226988   5.615   6.063   2.046  0.1550 -1.4396  0.8082
 1785TIP3   OH226989   3.324   0.747   0.434  0.0287 -0.8082  0.0775
 1785TIP3    H126990   3.410   0.771   0.399  0.0230 -0.4342  0.3119
 1785TIP3    H226991   3.304   0.816   0.497  0.1858 -1.6258  1.0531
 1786TIP3   OH226992   3.559   4.926   2.230  0.6393 -0.2703 -0.0526
 1786TIP3    H126993   3.604   4.873   2.164 -1.7906 -1.9929 -0.4685
 1786TIP3    H226994   3.486   4.966   2.183 -1.2063 -1.5962  1.5140
 1787TIP3   OH226995   0.564   4.302   7.061 -0.2410  0.3407  0.1756
 1787TIP3    H126996   0.553   4.380   7.116  0.9206 -0.7393  2.0726
 1787TIP3    H226997   0.583   4.336   6.974  1.2758  2.2300  1.1586
 1788TIP3   OH226998   6.682   3.607   0.962  0.3282  0.1193 -0.4859
 1788TIP3    H126999   6.629   3.528   0.948 -1.3491  1.4756 -2.2638
 1788TIP3    H227000   6.753   3.600   0.898  1.7891 -1.1772  1.1751
 1789TIP3   OH227001   3.044   0.476   0.090 -0.0762 -0.5945  0.1370
 1789TIP3    H127002   3.005   0.509   0.172  1.2165 -1.4795  1.1438
 1789TIP3    H227003   3.077   0.554   0.046 -0.9020 -0.0922  0.3754
 1790TIP3   OH227004   5.353   0.034   8.750  0.4390 -0.1916 -0.0545
 1790TIP3    H127005   5.421   0.050   8.685  1.0739 -1.6606  0.2326
 1790TIP3    H227006   5.352  -0.060   8.763 -1.7192 -0.2330 -0.1016
 1791TIP3   OH227007   3.198   3.794   2.111 -0.4626 -0.1853 -0.0492
 1791TIP3    H127008   3.256   3.727   2.074  0.8714  0.3173  1.0318
 1791TIP3    H227009   3.154   3.749   2.184  1.2098  0.3274  1.3448
 1792TIP3   OH227010   0.581   2.484   6.783  0.0969  0.0934  0.0718
 1792TIP3    H127011   0.619   2.513   6.700 -0.7491 -1.0736 -0.7566
 1792TIP3    H227012   0.493   2.454   6.761 -0.5098  0.6549  1.5688
 1793TIP3   OH227013   5.169   4.874   8.425  0.3267 -0.3200 -0.0865
 1793TIP3    H127014   5.181   4.881   8.331 -0.6463 -0.9184 -0.2635
 1793TIP3    H227015   5.248   4.830   8.456  0.0999 -1.2380 -0.7864
 1794TIP3   OH227016   3.743   3.032   0.765 -0.0821 -0.1592 -0.4256
 1794TIP3    H127017   3.786   3.036   0.680 -0.4529 -3.3315 -0.8796
 1794TIP3    H227018   3.753   3.120   0.801  3.9416  0.1621 -1.8335
 1795TIP3   OH227019   2.063   1.042   7.145  0.1731  0.2006  0.0744
 1795TIP3    H127020   2.015   0.993   7.212 -0.7161  0.8349 -0.0935
 1795TIP3    H227021   2.099   1.117   7.193  0.7932 -0.1271  0.1411
 1796TIP3   OH227022   0.446   2.965   7.594  0.0090  0.0743  0.0856
 1796TIP3    H127023   0.360   2.997   7.620 -0.7787 -0.7046 -1.4046
 1796TIP3    H227024   0.491   3.043   7.560  0.5609  0.8226  2.3614
 1797TIP3   OH227025   6.673   0.952   0.798 -0.0737  1.0783  0.5204
 1797TIP3    H127026   6.588   0.949   0.755  0.5566 -2.9302 -0.8855
 1797TIP3    H227027   6.719   1.023   0.754 -1.3239  0.6083 -1.7279
 1798TIP3   OH227028   3.468   5.274   6.744 -0.4869  0.2059 -0.1961
 1798TIP3    H127029   3.433   5.340   6.804 -0.4434 -0.5490  0.6830
 1798TIP3    H227030   3.563   5.289   6.745 -0.5886  1.0925 -1.1903
 1799TIP3   OH227031   6.694   1.438   6.143 -0.8712 -0.1203  0.2910
 1799TIP3    H127032   6.706   1.372   6.075 -0.3549 -1.7061  1.8551
 1799TIP3    H227033   6.782   1.470   6.161 -1.0373  0.4877  0.0463
 1800TIP3   OH227034   4.500   2.821   6.452  0.3775 -0.3706  0.3591
 1800TIP3    H127035   4.595   2.809   6.451  0.7155  1.8215 -1.2307
 1800TIP3    H227036   4.471   2.794   6.365 -0.1657  0.7011  0.1834
 1801TIP3   OH227037   0.421   6.800   7.805  0.0815 -0.0919 -0.1265
 1801TIP3    H127038   0.473   6.838   7.876 -1.5074  1.3569  0.3099
 1801TIP3    H227039   0.388   6.875   7.756 -1.6838 -0.9487 -0.3215
 1802TIP3   OH227040   1.981   6.565   8.764 -0.1163  0.2464 -0.0853
 1802TIP3    H127041   1.897   6.604   8.787 -0.1572 -0.1781  0.5101
 1802TIP3    H227042   2.015   6.531   8.847  0.4978  0.1412 -0.3778
 1803TIP3   OH227043   2.696   6.307   1.120  0.0892  0.0514 -0.5561
 1803TIP3    H127044   2.747   6.317   1.039 -1.5479 -0.2259 -1.6647
 1803TIP3    H227045   2.605   6.312   1.092 -0.5250  0.0644  1.3096
 1804TIP3   OH227046   1.946   1.735   7.480 -0.0638 -0.1708  0.7138
 1804TIP3    H127047   2.019   1.761   7.535 -0.7612 -2.1055  2.6711
 1804TIP3    H227048   1.874   1.793   7.506  0.0581  0.0499  0.5721
 1805TIP3   OH227049   6.854   4.562   0.503  0.4400  0.1047  0.7967
 1805TIP3    H127050   6.903   4.493   0.548 -0.0085  0.5079  1.9353
 1805TIP3    H227051   6.764   4.529   0.500  0.8893 -1.3494 -2.6679
 1806TIP3   OH227052   1.353   3.601   1.753 -0.1195  0.3222 -0.2571
 1806TIP3    H127053   1.410   3.588   1.830  1.3436  0.6273 -1.2390
 1806TIP3    H227054   1.271   3.557   1.776  0.3553  0.2047  1.3827
 1807TIP3   OH227055   4.797   1.746   8.155  0.1504 -0.2346  0.4095
 1807TIP3    H127056   4.836   1.800   8.223 -1.6978 -0.4170  1.7032
 1807TIP3    H227057   4.707   1.732   8.184 -0.4166 -1.1898 -1.5783
 1808TIP3   OH227058   2.100   3.223   1.995 -0.0897  0.5338  0.2157
 1808TIP3    H127059   2.045   3.196   2.068  1.0463  1.1989  1.3596
 1808TIP3    H227060   2.188   3.190   2.017 -0.0734 -0.9655 -1.8106
 1809TIP3   OH227061   1.938   1.771   1.495  0.8370  0.0155 -0.1338
 1809TIP3    H127062   2.014   1.800   1.445  0.4937 -1.9052 -1.9337
 1809TIP3    H227063   1.957   1.679   1.515 -0.7367 -0.3282 -0.1009
 1810TIP3   OH227064   0.197   4.964   1.076 -0.0802 -0.4576 -0.0145
 1810TIP3    H127065   0.103   4.959   1.062 -0.1378 -0.2427  0.2926
 1810TIP3    H227066   0.209   5.039   1.134  0.4001  0.4595 -1.2469
 1811TIP3   OH227067   0.240   0.184   7.864  0.1360  0.0490  0.6679
 1811TIP3    H127068   0.166   0.169   7.922 -0.6014 -0.1861 -0.3019
 1811TIP3    H227069   0.296   0.245   7.911 -1.1729  1.0229  1.0106
 1812TIP3   OH227070   4.066   4.287   8.004 -0.0299 -0.4431  0.4038
 1812TIP3    H127071   4.103   4.369   8.037 -1.8602  0.0319  1.4390
 1812TIP3    H227072   3.993   4.315   7.948  0.2844 -1.3569 -0.5032
 1813TIP3   OH227073   6.831   2.591   6.632  0.0825  0.2808 -0.0005
 1813TIP3    H127074   6.878   2.660   6.587  1.8455  1.0181  2.7207
 1813TIP3    H227075   6.777   2.638   6.697 -1.7376 -0.7457 -0.7104
 1814TIP3   OH227076   5.772   3.253   2.473  0.2576  0.1436  0.4800
 1814TIP3    H127077   5.793   3.164   2.446 -1.0174 -0.1736  0.4437
 1814TIP3    H227078   5.857   3.296   2.486  0.8913 -0.6722 -0.7960
 1815TIP3   OH227079   3.440   2.960   0.679 -0.1410 -0.8795  0.2212
 1815TIP3    H127080   3.471   2.950   0.589  1.2692  0.3085  0.5450
 1815TIP3    H227081   3.495   3.029   0.716 -2.5115  0.6213  1.1783
 1816TIP3   OH227082   5.790   1.150   8.753 -0.5687  0.3312 -0.3403
 1816TIP3    H127083   5.731   1.156   8.678  1.0267 -1.2210 -1.8220
 1816TIP3    H227084   5.768   1.066   8.794  0.2455 -0.0377 -0.6318
 1817TIP3   OH227085   2.962   4.545   7.682 -0.3760 -0.3394  0.4749
 1817TIP3    H127086   2.999   4.625   7.645  0.0735  0.1787  1.9619
 1817TIP3    H227087   3.037   4.485   7.689 -0.1458  0.0718  1.8155
 1818TIP3   OH227088   0.631   3.659   2.318  0.0441 -0.2999 -0.2213
 1818TIP3    H127089   0.726   3.663   2.306  0.2868 -1.0132  1.2229
 1818TIP3    H227090   0.610   3.566   2.309 -0.3156 -0.3171  0.6925
 1819TIP3   OH227091   1.489   3.397   0.023 -0.1799 -0.9011 -0.0732
 1819TIP3    H127092   1.453   3.414   0.111  0.2902  0.3829 -0.1107
 1819TIP3    H227093   1.554   3.466   0.010  1.5866 -2.5668 -0.4246
 1820TIP3   OH227094   0.585   4.518   0.449 -0.4205 -1.0069  0.3418
 1820TIP3    H127095   0.657   4.460   0.423  1.1099  0.7861  0.3063
 1820TIP3    H227096   0.506   4.468   0.432  0.7598 -2.4029 -1.4047
 1821TIP3   OH227097   1.599   1.443   7.604 -0.3057 -1.0058  0.7870
 1821TIP3    H127098   1.535   1.405   7.665 -1.2597  1.5308  1.4808
 1821TIP3    H227099   1.557   1.523   7.573  1.7604 -0.2806 -0.2846
 1822TIP3   OH227100   4.157   3.434   1.849  0.1865  0.2443  0.2461
 1822TIP3    H127101   4.219   3.497   1.814  1.2358 -1.3931 -0.9392
 1822TIP3    H227102   4.191   3.349   1.824 -0.4970 -0.9142  2.9022
 1823TIP3   OH227103   4.403   4.296   0.601  0.1780 -0.1933 -0.4999
 1823TIP3    H127104   4.467   4.350   0.648 -0.3305 -0.6652  0.7900
 1823TIP3    H227105   4.419   4.315   0.509  2.1417 -0.2672 -0.2260
 1824TIP3   OH227106   2.551   5.993   0.246  0.0150 -0.4191  1.2057
 1824TIP3    H127107   2.523   5.937   0.318 -0.4879 -0.4808  0.9670
 1824TIP3    H227108   2.508   6.077   0.263 -1.4928 -0.9216  0.0838
 1825TIP3   OH227109   2.248   1.510   8.018 -0.6236  0.2413  0.0151
 1825TIP3    H127110   2.168   1.562   8.016 -0.1168  1.1691  1.8688
 1825TIP3    H227111   2.248   1.469   8.104  0.7654  0.0368 -0.0606
 1826TIP3   OH227112   5.560   0.403   0.300 -0.0410  0.9352 -0.0627
 1826TIP3    H127113   5.567   0.337   0.231  3.9593 -0.3068  1.2180
 1826TIP3    H227114   5.532   0.353   0.377  1.5105  0.9531  0.5526
 1827TIP3   OH227115   2.741   5.729   6.919  0.3700 -0.3668  0.0433
 1827TIP3    H127116   2.682   5.717   6.994 -1.2011  1.5563 -0.7905
 1827TIP3    H227117   2.713   5.663   6.856 -1.7503  1.1934 -0.7759
 1828TIP3   OH227118   4.385   2.742   6.234  0.3957  0.5526  0.5693
 1828TIP3    H127119   4.358   2.655   6.204  1.1171  0.6033 -0.2571
 1828TIP3    H227120   4.313   2.799   6.207  0.6793  0.4717 -0.4026
 1829TIP3   OH227121   3.676   0.720   0.039 -0.3964  0.2176 -0.1074
 1829TIP3    H127122   3.655   0.787  -0.026  0.3524  0.7680  0.2116
 1829TIP3    H227123   3.711   0.647  -0.012 -1.6931 -0.1527 -0.5057
 1830TIP3   OH227124   6.239   0.108   1.071 -0.6205  0.3617  0.4032
 1830TIP3    H127125   6.307   0.053   1.109 -0.6400 -0.0659 -0.1530
 1830TIP3    H227126   6.210   0.059   0.993 -2.4923 -0.1233  1.3342
 1831TIP3   OH227127   4.283   2.792   0.567 -0.0851  0.3889  0.1685
 1831TIP3    H127128   4.335   2.869   0.590  0.9712 -0.1197 -0.4308
 1831TIP3    H227129   4.307   2.726   0.631 -0.5380  0.3696  0.3202
 1832TIP3   OH227130   1.819   3.246   1.918  0.2156 -0.3804  0.0255
 1832TIP3    H127131   1.913   3.240   1.901  0.2402 -3.7506  0.5946
 1832TIP3    H227132   1.807   3.205   2.003 -1.9057 -1.4973 -0.7320
 1833TIP3   OH227133   0.270   2.355   8.012  0.1044  0.1024  0.6865
 1833TIP3    H127134   0.331   2.300   7.963  0.7379  2.1822 -0.9854
 1833TIP3    H227135   0.310   2.441   8.013 -2.1515  1.2328  0.7761
 1834TIP3   OH227136   2.446   4.183   6.925 -0.1299 -0.0057 -0.2287
 1834TIP3    H127137   2.399   4.108   6.889 -0.7095  0.3460 -0.2276
 1834TIP3    H227138   2.485   4.225   6.848 -1.1675  0.6077 -0.4456
 1835TIP3   OH227139   0.990   2.065   1.347 -0.1793  0.2435 -0.1434
 1835TIP3    H127140   0.975   2.051   1.254 -0.3000 -1.0809  0.0482
 1835TIP3    H227141   0.925   2.009   1.390  0.9260 -0.4310  0.7166
 1836TIP3   OH227142   1.534   6.657   6.485 -0.5088 -0.3934  0.3289
 1836TIP3    H127143   1.615   6.624   6.523 -0.6561  0.4035  1.3493
 1836TIP3    H227144   1.501   6.721   6.547 -3.0355 -2.1650  1.0117
 1837TIP3   OH227145   6.844   4.755   7.132 -0.1884 -0.4892  0.3160
 1837TIP3    H127146   6.868   4.679   7.186 -1.1052 -1.2574 -0.3232
 1837TIP3    H227147   6.891   4.742   7.050  0.1309 -0.0362  0.4237
 1838TIP3   OH227148   0.979   6.307   6.062 -0.0409 -0.0393 -0.0186
 1838TIP3    H127149   0.906   6.359   6.027 -1.4168 -0.8626  1.4917
 1838TIP3    H227150   0.990   6.340   6.151  0.9197 -0.4630  0.0226
 1839TIP3   OH227151   3.724   3.125   6.410  0.2622  0.0409  0.7196
 1839TIP3    H127152   3.736   3.145   6.317 -1.2815  3.4399  1.0828
 1839TIP3    H227153   3.659   3.055   6.412  0.3293 -0.0831 -0.7458
 1840TIP3   OH227154   4.915   1.410   7.285  0.5795  0.1314 -0.2185
 1840TIP3    H127155   4.902   1.340   7.349 -0.2421  1.0519  0.6563
 1840TIP3    H227156   5.005   1.398   7.254  0.2406 -1.7377 -0.6382
 1841TIP3   OH227157   3.843   2.149   7.049 -0.3824 -0.4667 -0.1606
 1841TIP3    H127158   3.852   2.178   7.140 -1.8753 -1.1921  0.2525
 1841TIP3    H227159   3.930   2.161   7.011  0.5169 -1.0177  1.6204
 1842TIP3   OH227160   0.820   4.284   0.785  0.2353  0.0286  0.2420
 1842TIP3    H127161   0.858   4.243   0.863  1.1711 -0.6571 -0.5574
 1842TIP3    H227162   0.727   4.294   0.806  0.5478  0.2658  1.6102
 1843TIP3   OH227163   0.367   4.806   0.214  0.2111 -0.0713 -0.0454
 1843TIP3    H127164   0.373   4.818   0.309 -2.3027 -1.5127  0.3893
 1843TIP3    H227165   0.293   4.746   0.202 -0.2444  0.9046 -2.9761
 1844TIP3   OH227166   6.308   0.368   7.191  0.3576 -0.4032 -0.2618
 1844TIP3    H127167   6.316   0.273   7.198  1.3034 -0.2970  0.2848
 1844TIP3    H227168   6.218   0.386   7.219  0.5091 -1.0466  0.7190
 1845TIP3   OH227169   2.017   3.816   7.681 -0.2724 -0.1851  0.2425
 1845TIP3    H127170   2.019   3.819   7.586  0.2678  4.5250  0.1642
 1845TIP3    H227171   2.109   3.803   7.707  0.0100  1.1502 -0.0024
 1846TIP3   OH227172   0.020   1.171   7.996 -0.0339 -0.0127  0.0516
 1846TIP3    H127173  -0.042   1.146   8.065 -0.3916 -1.5897 -0.8112
 1846TIP3    H227174   0.078   1.095   7.987  0.1484  0.2616 -1.2322
 1847TIP3   OH227175   0.700   1.760   7.843  0.1784 -0.0668  0.5884
 1847TIP3    H127176   0.645   1.837   7.854  0.0216 -0.1343  0.2912
 1847TIP3    H227177   0.649   1.689   7.882 -0.0529 -0.1715  0.1103
 1848TIP3   OH227178   4.340   6.832   7.377 -0.6024 -0.0716  0.0533
 1848TIP3    H127179   4.411   6.818   7.315  1.4194  2.0189  1.7094
 1848TIP3    H227180   4.298   6.913   7.347  0.2169  0.8028  1.1510
 1849TIP3   OH227181   0.854   0.536   1.758  0.5789  0.5451 -0.0194
 1849TIP3    H127182   0.760   0.536   1.742  0.5161 -0.7026  0.2329
 1849TIP3    H227183   0.879   0.444   1.753  2.1135  0.9928 -1.9570
 1850TIP3   OH227184   1.881   2.132   7.968  0.1582  0.4911  0.7156
 1850TIP3    H127185   1.829   2.088   7.900  0.2870 -0.4961  1.2350
 1850TIP3    H227186   1.849   2.222   7.969  0.0250  0.4749 -0.5295
 1851TIP3   OH227187   6.629   1.940   6.375  0.3102  0.0445 -0.5551
 1851TIP3    H127188   6.606   1.979   6.291 -0.0125 -0.8356 -0.8860
 1851TIP3    H227189   6.717   1.973   6.394  0.3232  0.3631 -1.1625
 1852TIP3   OH227190   4.360   3.429   1.505 -0.5293  0.1273 -0.0565
 1852TIP3    H127191   4.318   3.489   1.567 -1.6345 -0.3550 -0.3180
 1852TIP3    H227192   4.389   3.486   1.433 -1.6958  0.3507 -0.3724
 1853TIP3   OH227193   4.471   5.721   0.252  0.3337  0.0647 -0.7780
 1853TIP3    H127194   4.563   5.718   0.225  0.5588  0.8738 -0.1575
 1853TIP3    H227195   4.421   5.708   0.172  0.9965 -0.3686 -1.1232
 1854TIP3   OH227196   4.919   4.969   6.615  0.1607 -0.1517 -0.0526
 1854TIP3    H127197   4.904   4.875   6.623  0.1505 -0.2624 -1.1890
 1854TIP3    H227198   4.936   4.983   6.522 -1.6907  1.2212 -0.2427
 1855TIP3   OH227199   1.121   1.453   1.426  0.6043 -0.7368 -0.5126
 1855TIP3    H127200   1.207   1.459   1.468  0.4289  1.9385 -0.3342
 1855TIP3    H227201   1.059   1.472   1.496  0.1295  0.9530 -1.3458
 1856TIP3   OH227202   0.440   1.153   7.019  0.1161 -0.0166  0.2623
 1856TIP3    H127203   0.420   1.237   7.059 -2.5546 -0.4921  0.0700
 1856TIP3    H227204   0.483   1.175   6.936  0.6782  1.0953  0.8285
 1857TIP3   OH227205   6.821   0.935   0.413 -0.0150 -0.1727 -0.2857
 1857TIP3    H127206   6.728   0.958   0.406 -0.1587 -1.1509 -2.1470
 1857TIP3    H227207   6.824   0.869   0.482 -0.3038  1.5602  1.4912
 1858TIP3   OH227208   5.521   0.784   7.108  0.1915  0.3147  0.8395
 1858TIP3    H127209   5.571   0.822   7.180 -1.2854 -0.6476  2.4602
 1858TIP3    H227210   5.544   0.691   7.109  1.1677  0.4979 -0.8509
 1859TIP3   OH227211   2.909   4.184   0.317  0.0024  0.6382  0.0091
 1859TIP3    H127212   2.834   4.125   0.316  1.8470 -1.9039  0.8001
 1859TIP3    H227213   2.952   4.169   0.232  0.3244  1.0831  0.0895
 1860TIP3   OH227214   1.141   5.373   1.197  0.2030  0.1827  0.5907
 1860TIP3    H127215   1.229   5.355   1.164 -0.5141 -1.7721 -0.4078
 1860TIP3    H227216   1.147   5.358   1.291  1.0166  0.4659  0.5904
 1861TIP3   OH227217   0.773   5.180   6.848 -0.2079  0.3520 -0.1554
 1861TIP3    H127218   0.850   5.169   6.904  2.0204  0.5372 -2.9052
 1861TIP3    H227219   0.728   5.095   6.852  1.6092 -0.6761 -0.3921
 1862TIP3   OH227220   0.670   1.995   7.172 -0.6719 -0.3421  0.1552
 1862TIP3    H127221   0.632   2.063   7.227 -1.0215 -0.3723 -0.0479
 1862TIP3    H227222   0.762   1.991   7.198 -0.5503  0.4987 -0.1307
 1863TIP3   OH227223   0.073   2.216   8.561 -0.3272  0.0770  0.4704
 1863TIP3    H127224   0.091   2.124   8.542  2.9479  0.8769 -1.0757
 1863TIP3    H227225   0.099   2.262   8.481  0.4264  2.5143  2.0192
 1864TIP3   OH227226   0.128   0.756   1.136 -0.1497  0.2718 -0.5073
 1864TIP3    H127227   0.115   0.756   1.041 -0.1696 -0.2141 -0.5105
 1864TIP3    H227228   0.195   0.822   1.152  0.4609 -0.2230 -0.9569
 1865TIP3   OH227229   2.638   4.354   0.002  0.1210  0.2830 -0.2086
 1865TIP3    H127230   2.645   4.274   0.054 -0.3146  0.0087 -0.5663
 1865TIP3    H227231   2.544   4.373   0.000  0.1963  0.6394 -0.3664
 1866TIP3   OH227232   0.807   1.438   1.732 -0.5582  0.0314  0.3058
 1866TIP3    H127233   0.748   1.363   1.724 -0.3870 -0.0957  0.2282
 1866TIP3    H227234   0.751   1.514   1.719 -0.3729 -0.1360 -1.7500
 1867TIP3   OH227235   5.682   3.028   0.808 -0.7252 -0.0833  0.4624
 1867TIP3    H127236   5.598   3.009   0.849 -0.6163  0.4320  0.9366
 1867TIP3    H227237   5.662   3.093   0.741 -0.7533 -0.1789  0.3794
 1868TIP3   OH227238   0.114   2.064   7.049  0.0724 -0.8288  0.5388
 1868TIP3    H127239   0.136   2.077   6.956 -0.4652  1.0196  0.6341
 1868TIP3    H227240   0.198   2.045   7.091  0.5259 -0.3029 -0.1143
 1869TIP3   OH227241   5.274   0.053   1.070 -0.7388 -0.4133  0.4370
 1869TIP3    H127242   5.323  -0.013   1.120 -1.2007 -0.6537  0.5788
 1869TIP3    H227243   5.203   0.004   1.028 -0.6052 -0.1408 -0.1165
 1870TIP3   OH227244   0.419   0.563   1.345  0.1568 -0.0564  0.1628
 1870TIP3    H127245   0.382   0.598   1.264  1.3552  1.5322  0.2608
 1870TIP3    H227246   0.487   0.502   1.316  0.5119  0.4324 -0.0552
 1871TIP3   OH227247   0.207   1.368   8.104  0.0208  0.3673  0.2736
 1871TIP3    H127248   0.140   1.301   8.091  1.7746 -1.9347  2.1073
 1871TIP3    H227249   0.189   1.434   8.037 -3.1940 -0.7883 -0.1558
 1872TIP3   OH227250   5.899   0.493   8.651 -0.1107  0.0689 -0.6760
 1872TIP3    H127251   5.812   0.478   8.687 -0.3460 -0.5127 -1.4562
 1872TIP3    H227252   5.910   0.589   8.654 -0.5379  0.0987 -0.0418
 1873TIP3   OH227253   0.624   4.864   7.893  0.5955 -0.2047 -0.4393
 1873TIP3    H127254   0.640   4.770   7.902 -0.4218 -0.1668  3.1764
 1873TIP3    H227255   0.692   4.906   7.946 -0.3712  0.9557 -0.0708
 1874TIP3   OH227256   5.327   1.068   8.078 -0.4940  0.2397 -0.0484
 1874TIP3    H127257   5.293   0.985   8.046  2.8332 -1.2289 -0.1499
 1874TIP3    H227258   5.295   1.074   8.168 -0.7798 -1.1720 -0.0357
 1875TIP3   OH227259   4.525   6.275   8.376 -0.1063 -0.2165 -0.5014
 1875TIP3    H127260   4.540   6.189   8.339 -2.9817 -0.5174 -1.1460
 1875TIP3    H227261   4.430   6.287   8.374  0.0637  2.2664  1.1667
 1876TIP3   OH227262   1.940   5.659   7.908 -0.3671 -0.0730  0.2814
 1876TIP3    H127263   1.883   5.588   7.938 -0.7552  0.6605  1.3335
 1876TIP3    H227264   1.995   5.679   7.984  1.5198 -0.9470 -0.7866
 1877TIP3   OH227265   5.435   1.166   0.060  0.0797  0.1959  0.4018
 1877TIP3    H127266   5.480   1.242   0.024 -1.3343  0.7959 -0.1625
 1877TIP3    H227267   5.478   1.150   0.144  0.7417  1.2770  0.2808
 1878TIP3   OH227268   5.708   5.482   1.959  1.0672  0.0499 -0.4020
 1878TIP3    H127269   5.748   5.488   1.873  1.7755  0.3937 -0.0629
 1878TIP3    H227270   5.696   5.389   1.975 -0.3555  0.0249 -1.4354
 1879TIP3   OH227271   3.142   0.272   0.265 -0.1905  0.0164  0.2533
 1879TIP3    H127272   3.130   0.346   0.324  2.5940  0.6711  0.1339
 1879TIP3    H227273   3.086   0.293   0.190 -0.1090  1.6121  0.5914
 1880TIP3   OH227274   5.281   6.427   2.013 -0.3222 -0.1231  0.2800
 1880TIP3    H127275   5.249   6.433   2.103 -1.0232  0.4101  0.0045
 1880TIP3    H227276   5.284   6.518   1.983 -0.3494 -0.3191 -0.3231
 1881TIP3   OH227277   1.025   1.324   7.313  0.1939 -0.4039  0.1696
 1881TIP3    H127278   1.115   1.311   7.287 -0.0485 -0.0856 -0.8575
 1881TIP3    H227279   1.011   1.418   7.304 -0.3542 -0.5037 -0.0447
 1882TIP3   OH227280   4.599   2.957   7.513  0.4254  0.6914 -0.3252
 1882TIP3    H127281   4.578   2.866   7.494  1.9335  0.3594 -0.5189
 1882TIP3    H227282   4.518   3.005   7.495  0.0029 -0.4287 -1.5502
 1883TIP3   OH227283   4.750   0.256   0.933 -0.1605 -0.0332  0.6305
 1883TIP3    H127284   4.721   0.323   0.995  1.6601 -0.7332  2.3412
 1883TIP3    H227285   4.683   0.188   0.937 -2.3764  1.8183 -1.5978
 1884TIP3   OH227286   3.511   4.811   7.769 -0.8505 -0.4017  0.4747
 1884TIP3    H127287   3.494   4.752   7.842 -1.8279 -0.7742 -0.0469
 1884TIP3    H227288   3.455   4.887   7.784  0.1377  0.2594  0.9532
 1885TIP3   OH227289   2.186   5.159   7.322 -0.0535 -0.9029 -0.3018
 1885TIP3    H127290   2.132   5.143   7.245 -1.5931 -0.5439  0.6622
 1885TIP3    H227291   2.145   5.107   7.391 -1.5659  2.3027  1.4076
 1886TIP3   OH227292   1.523   3.023   0.228 -0.0987  0.1527  0.3072
 1886TIP3    H127293   1.520   3.100   0.284  0.4992 -0.5533  1.3488
 1886TIP3    H227294   1.536   2.950   0.289  0.5066 -0.6426 -0.7437
 1887TIP3   OH227295   2.878   4.965   0.804  0.1300  0.1068 -0.0102
 1887TIP3    H127296   2.889   4.911   0.883  0.1787  0.6355  0.3497
 1887TIP3    H227297   2.943   4.931   0.743 -1.5413 -1.9616 -0.7563
 1888TIP3   OH227298   4.690   1.021   8.182  0.8128 -0.3395 -0.2542
 1888TIP3    H127299   4.729   0.953   8.127 -0.1449 -1.2086  0.1220
 1888TIP3    H227300   4.646   1.080   8.120  1.1300 -0.3922 -0.5340
 1889TIP3   OH227301   6.351   6.645   7.769 -0.0562  0.6507  0.3363
 1889TIP3    H127302   6.394   6.609   7.691  1.7601  0.0204  1.5619
 1889TIP3    H227303   6.257   6.639   7.750  0.3057  2.0063 -2.4284
 1890TIP3   OH227304   6.649   6.268   0.861 -0.0779 -0.1931 -0.0241
 1890TIP3    H127305   6.615   6.195   0.913 -1.5286 -1.9561 -3.1689
 1890TIP3    H227306   6.595   6.343   0.888 -1.1165 -1.1508  0.6500
 1891TIP3   OH227307   1.050   0.389   6.511 -0.3853 -0.5644  0.3144
 1891TIP3    H127308   1.053   0.320   6.445  0.5217 -0.9381  0.7232
 1891TIP3    H227309   1.124   0.446   6.489  0.4021 -1.1173  1.4407
 1892TIP3   OH227310   3.582   3.808   8.196  1.3796 -0.1960  0.7768
 1892TIP3    H127311   3.654   3.759   8.234  1.6295  0.3698  1.0526
 1892TIP3    H227312   3.613   3.832   8.108  0.9106 -1.2693  0.3098
 1893TIP3   OH227313   6.249   3.398   1.628 -0.2661 -0.7056 -0.1753
 1893TIP3    H127314   6.171   3.382   1.681 -1.1653 -0.9022 -1.5081
 1893TIP3    H227315   6.252   3.324   1.567  0.4736 -0.2556 -0.6972
 1894TIP3   OH227316   6.031   2.473   1.466  1.0062 -0.1602 -0.0241
 1894TIP3    H127317   6.016   2.439   1.554 -0.1402 -0.0380 -0.1586
 1894TIP3    H227318   6.006   2.565   1.472  1.0097 -0.1313 -0.4584
 1895TIP3   OH227319   1.685   2.351   1.995 -0.4857 -0.0458 -0.1040
 1895TIP3    H127320   1.616   2.408   2.030  0.2723  0.3185  0.8699
 1895TIP3    H227321   1.767   2.398   2.016  0.1217 -1.2039  0.1837
 1896TIP3   OH227322   1.584   4.745   7.684  0.7264  0.6540 -0.2790
 1896TIP3    H127323   1.577   4.650   7.696 -0.9484  0.9236  1.1404
 1896TIP3    H227324   1.601   4.779   7.772  3.7300  1.5586 -1.0642
 1897TIP3   OH227325   2.575   0.396   2.094  0.1200  0.0815  0.1460
 1897TIP3    H127326   2.608   0.482   2.120 -1.2928  0.0822  2.1158
 1897TIP3    H227327   2.481   0.400   2.111  0.0158 -1.8419  0.2362
 1898TIP3   OH227328   5.031   2.195   7.282 -0.1260  0.1520  0.0123
 1898TIP3    H127329   4.938   2.216   7.281  0.0914  1.2476  0.6910
 1898TIP3    H227330   5.035   2.104   7.313 -0.9241  0.3693  0.7948
 1899TIP3   OH227331   1.858   4.611   1.262 -0.1699 -0.6380  0.2409
 1899TIP3    H127332   1.798   4.546   1.225  0.0719 -2.4820  2.8450
 1899TIP3    H227333   1.944   4.571   1.254  0.1391 -0.0937  0.7777
 1900TIP3   OH227334   1.013   1.276   7.586  0.1401 -0.3787 -0.5851
 1900TIP3    H127335   0.939   1.218   7.605 -0.3908  1.2090  2.7340
 1900TIP3    H227336   1.012   1.285   7.490 -1.2718 -3.7464 -1.0292
 1901TIP3   OH227337   0.100   5.903   0.129  0.0210 -0.7302  0.2611
 1901TIP3    H127338   0.095   5.997   0.147  0.5690 -0.9708  1.7611
 1901TIP3    H227339   0.156   5.896   0.051 -0.6840  0.2149 -0.3584
 1902TIP3   OH227340   2.205   4.632   8.477  0.3009 -0.2515  0.2647
 1902TIP3    H127341   2.205   4.703   8.541 -0.8323  0.2394 -0.2573
 1902TIP3    H227342   2.294   4.630   8.442  0.2551  1.1396  0.0364
 1903TIP3   OH227343   3.548   3.261   8.276 -0.5046 -0.0643  0.4033
 1903TIP3    H127344   3.545   3.350   8.242 -0.9133 -0.1853  0.1038
 1903TIP3    H227345   3.491   3.263   8.354 -1.7014 -0.3897 -0.4322
 1904TIP3   OH227346   5.629   0.251   7.577 -0.4046  0.0036 -0.2237
 1904TIP3    H127347   5.670   0.165   7.578 -1.8786 -0.7329  0.6137
 1904TIP3    H227348   5.573   0.250   7.499 -0.5789  0.1328 -0.1005
 1905TIP3   OH227349   5.542   2.640   1.853  0.0101 -0.3487  0.3638
 1905TIP3    H127350   5.635   2.628   1.870  0.2342 -1.3452 -1.4080
 1905TIP3    H227351   5.517   2.714   1.908  2.1948  0.9806 -0.3378
 1906TIP3   OH227352   3.048   2.960   7.935 -0.1392 -0.0383 -0.3648
 1906TIP3    H127353   3.109   3.031   7.918  0.3274 -0.4274 -0.3359
 1906TIP3    H227354   3.025   2.926   7.848 -3.3494  2.5660 -0.7295
 1907TIP3   OH227355   2.031   3.908   1.179  0.2750 -0.4736 -0.0792
 1907TIP3    H127356   1.998   3.934   1.264  1.9163  3.0133 -0.3128
 1907TIP3    H227357   2.124   3.890   1.194  0.5395 -0.0014 -1.0415
 1908TIP3   OH227358   2.060   4.782   7.972 -0.5608 -0.6320  0.2402
 1908TIP3    H127359   2.071   4.868   7.931 -1.6766  0.0220  1.2605
 1908TIP3    H227360   2.098   4.721   7.909  0.7085  0.6367 -0.3027
 1909TIP3   OH227361   4.434   3.639   1.038  0.2482  0.6421  0.3628
 1909TIP3    H127362   4.521   3.643   0.997  0.4804  1.0101  0.8782
 1909TIP3    H227363   4.394   3.561   1.001  1.8722 -1.1619  2.1410
 1910TIP3   OH227364   1.611   0.767   7.648  0.1348  0.3505 -0.0822
 1910TIP3    H127365   1.559   0.699   7.604  1.1016 -0.2643 -0.2974
 1910TIP3    H227366   1.697   0.728   7.659  0.6349  1.4629  0.0311
 1911TIP3   OH227367   4.602   2.558   1.272  0.0492  0.3570  0.1642
 1911TIP3    H127368   4.668   2.497   1.305  0.1164  1.0288  1.3001
 1911TIP3    H227369   4.548   2.579   1.348 -0.9656  0.4871 -0.5585
 1912TIP3   OH227370   6.543   2.360   8.702 -0.9284  0.3001 -0.3260
 1912TIP3    H127371   6.515   2.439   8.747  0.0267  0.1265  0.6203
 1912TIP3    H227372   6.484   2.292   8.735  0.9843 -0.2342  2.3043
 1913TIP3   OH227373   5.325   6.655   7.132 -0.1491  0.3621 -0.7281
 1913TIP3    H127374   5.380   6.578   7.148 -1.7742 -1.0277 -1.6208
 1913TIP3    H227375   5.249   6.643   7.189 -0.1596  1.6174 -0.4447
 1914TIP3   OH227376   4.257   2.798   7.463  0.2977  0.3634  0.3300
 1914TIP3    H127377   4.316   2.791   7.538  0.1576  0.7800  0.4814
 1914TIP3    H227378   4.211   2.714   7.460 -1.1952  1.0425  1.9723
 1915TIP3   OH227379   1.832   4.824   1.420 -0.0745 -0.0898 -0.6502
 1915TIP3    H127380   1.833   4.765   1.345  1.3505  0.6760 -1.2663
 1915TIP3    H227381   1.758   4.794   1.473 -0.6254 -1.1286 -1.9604
 1916TIP3   OH227382   4.563   5.102   7.903  0.6019 -0.8346 -0.3428
 1916TIP3    H127383   4.492   5.163   7.926  0.1611 -1.0219 -1.1924
 1916TIP3    H227384   4.595   5.071   7.988  1.4298  1.2302  0.1775
 1917TIP3   OH227385   3.171   3.004   7.110  0.3087  0.0741  0.4860
 1917TIP3    H127386   3.120   2.932   7.148  0.7787 -0.0696  0.8501
 1917TIP3    H227387   3.119   3.082   7.129  0.3636 -0.0391  1.1209
 1918TIP3   OH227388   0.754   4.447   8.117 -0.5426  0.3075 -0.7223
 1918TIP3    H127389   0.778   4.381   8.052 -2.5115  0.3521 -1.5609
 1918TIP3    H227390   0.776   4.531   8.077 -0.2245  0.2712 -0.6283
 1919TIP3   OH227391   5.421   5.383   0.160 -0.0803  0.1000 -0.5619
 1919TIP3    H127392   5.378   5.349   0.239 -0.7476  0.6073 -0.6979
 1919TIP3    H227393   5.478   5.311   0.131 -2.1308 -1.3028 -1.3666
 1920TIP3   OH227394   1.553   6.590   2.099  0.1451  0.4036  0.1883
 1920TIP3    H127395   1.499   6.668   2.115  1.4082  1.3761 -0.0819
 1920TIP3    H227396   1.560   6.548   2.185 -0.2340  0.7948  0.4165
 1921TIP3   OH227397   3.884   5.919   7.819 -0.3121  0.2832  0.0692
 1921TIP3    H127398   3.797   5.948   7.790  0.8437  1.3516 -2.6537
 1921TIP3    H227399   3.945   5.981   7.780  1.7237 -0.1606  2.2741
 1922TIP3   OH227400   4.108   5.924   1.305 -0.1603  0.4087 -0.0009
 1922TIP3    H127401   4.097   6.008   1.260  2.0628  1.2761  0.9305
 1922TIP3    H227402   4.108   5.859   1.235 -3.0762  0.9744 -0.6579
 1923TIP3   OH227403   0.933   3.215   0.467  0.1120  0.0207 -0.3191
 1923TIP3    H127404   0.964   3.230   0.556 -0.3498 -0.0144 -0.1482
 1923TIP3    H227405   0.897   3.126   0.469 -1.0366  0.4716 -0.2065
 1924TIP3   OH227406   1.192   4.371   1.564 -0.3586 -0.2527  0.3263
 1924TIP3    H127407   1.132   4.352   1.636 -0.2217 -0.6743  0.3284
 1924TIP3    H227408   1.171   4.306   1.497 -0.1372 -0.1805  0.1867
 1925TIP3   OH227409   5.150   1.736   8.604 -0.4948  0.4728 -0.7402
 1925TIP3    H127410   5.157   1.649   8.642 -2.0939  0.5357 -0.2332
 1925TIP3    H227411   5.152   1.722   8.510 -1.3478 -0.1718 -0.6640
 1926TIP3   OH227412   2.136   2.538   8.244 -0.2146 -0.5715  0.6090
 1926TIP3    H127413   2.148   2.445   8.223 -1.0844 -0.6019  0.2094
 1926TIP3    H227414   2.129   2.581   8.159  0.4993 -0.0822  0.7829
 1927TIP3   OH227415   5.850   0.708   8.106  0.5970  0.6464 -0.1274
 1927TIP3    H127416   5.869   0.634   8.047  0.8364 -0.1814  0.9663
 1927TIP3    H227417   5.755   0.705   8.118  0.5769  0.6710 -0.2769
 1928TIP3   OH227418   0.671   1.641   6.578  0.5004  0.1196 -0.1331
 1928TIP3    H127419   0.644   1.642   6.486  2.1434 -0.1336 -0.6414
 1928TIP3    H227420   0.729   1.716   6.588 -3.0927  2.9785  1.8885
 1929TIP3   OH227421   2.379   5.841   0.430  0.2354  0.7171  0.1682
 1929TIP3    H127422   2.315   5.788   0.382 -0.6425  2.4884 -0.7464
 1929TIP3    H227423   2.440   5.778   0.466 -0.4687 -0.8772 -1.2570
 1930TIP3   OH227424   2.066   2.256   8.207  0.5399  0.0065 -0.2665
 1930TIP3    H127425   2.093   2.201   8.281  0.4019  0.2376 -0.0435
 1930TIP3    H227426   2.045   2.194   8.137  0.2488 -0.2337  0.0308
 1931TIP3   OH227427   2.200   5.192   1.477  0.2217  0.0395 -0.0891
 1931TIP3    H127428   2.204   5.205   1.572 -2.5022  2.4673 -0.1710
 1931TIP3    H227429   2.284   5.224   1.445  1.3174 -1.0945  1.4576
 1932TIP3   OH227430   5.997   2.576   6.769  0.8019  0.1386  0.0428
 1932TIP3    H127431   6.080   2.562   6.723  0.9257 -0.3827  0.4151
 1932TIP3    H227432   5.930   2.568   6.701  1.1378  2.5489 -0.6597
 1933TIP3   OH227433   0.479   4.020   1.553  0.5381 -0.0714 -0.4627
 1933TIP3    H127434   0.460   4.050   1.465  0.2534 -0.5228 -0.5567
 1933TIP3    H227435   0.403   4.046   1.605 -0.2003 -1.5678 -0.7668
 1934TIP3   OH227436   4.913   0.569   7.651 -0.2115  0.0055 -0.1788
 1934TIP3    H127437   4.983   0.579   7.715 -1.7999  0.2911  1.5962
 1934TIP3    H227438   4.927   0.481   7.614 -0.7130 -1.2754  2.4726
 1935TIP3   OH227439   2.787   0.506   7.579  0.3634 -0.0200 -0.6431
 1935TIP3    H127440   2.852   0.542   7.519  0.7211  0.6396  0.1093
 1935TIP3    H227441   2.734   0.448   7.525 -0.3009  1.7088 -1.9601
 1936TIP3   OH227442   3.166   0.412   8.345  0.3907  0.2299  0.0041
 1936TIP3    H127443   3.217   0.491   8.364  1.3321 -0.3825  0.0951
 1936TIP3    H227444   3.176   0.358   8.423  0.7117 -0.4617 -0.5110
 1937TIP3   OH227445   2.644   4.500   1.374  0.2426  0.1932  0.3885
 1937TIP3    H127446   2.647   4.441   1.448 -1.7527  0.7829  0.9902
 1937TIP3    H227447   2.552   4.525   1.366  0.8773  2.6489 -0.2607
 1938TIP3   OH227448   5.870   3.951   8.740  0.3671  0.3295  0.1742
 1938TIP3    H127449   5.961   3.980   8.746  1.1618 -1.6576 -1.0760
 1938TIP3    H227450   5.842   3.942   8.831  2.2298 -1.2237  0.6694
 1939TIP3   OH227451   1.398   3.892   0.461 -0.1365 -0.5688 -0.0331
 1939TIP3    H127452   1.388   3.983   0.487  0.6757 -0.2205 -0.9007
 1939TIP3    H227453   1.339   3.844   0.519  0.9680  0.2715  1.8741
 1940TIP3   OH227454   3.523   4.130   0.281  0.3199  0.0822  0.1022
 1940TIP3    H127455   3.588   4.065   0.253 -0.0564 -1.4407  2.5000
 1940TIP3    H227456   3.443   4.080   0.293 -0.7570  1.5560 -0.6850
 1941TIP3   OH227457   3.573   2.255   7.157  0.4803 -0.1394  0.1951
 1941TIP3    H127458   3.602   2.170   7.124  2.1808  0.7097 -0.5786
 1941TIP3    H227459   3.604   2.318   7.093  0.1494  1.1744  1.2786
 1942TIP3   OH227460   2.710   5.825   2.420  0.1932 -0.0638  0.0271
 1942TIP3    H127461   2.798   5.813   2.455  1.5304  1.4125 -2.4836
 1942TIP3    H227462   2.719   5.898   2.359 -3.3942  1.9703  1.6109
 1943TIP3   OH227463   2.668   3.698   1.364 -0.3127  0.1476  0.0006
 1943TIP3    H127464   2.703   3.767   1.421  1.1263 -0.5472  0.0053
 1943TIP3    H227465   2.574   3.702   1.378 -0.2107  1.6596  0.5140
 1944TIP3   OH227466   3.210   0.690   1.441 -0.6308  0.2149  0.0896
 1944TIP3    H127467   3.192   0.751   1.370 -0.6962  1.1533  0.9017
 1944TIP3    H227468   3.275   0.734   1.496 -1.2222 -0.1287  1.0885
 1945TIP3   OH227469   3.283   3.890   1.131  0.0681  0.6146 -0.2260
 1945TIP3    H127470   3.358   3.862   1.182 -1.4260 -3.1898  0.2105
 1945TIP3    H227471   3.293   3.845   1.047 -0.6353  1.8212 -0.9906
 1946TIP3   OH227472   6.464   6.639   8.020  0.6101  0.7289  0.1345
 1946TIP3    H127473   6.435   6.715   8.070  0.9216  0.8114  0.1904
 1946TIP3    H227474   6.419   6.648   7.935 -0.7413  0.0421  0.7355
 1947TIP3   OH227475   4.386   1.000   7.696  0.1092 -0.2418 -0.3346
 1947TIP3    H127476   4.350   0.961   7.616 -2.1192  0.2852  0.3487
 1947TIP3    H227477   4.394   1.093   7.675  0.6749 -0.2797 -0.3133
 1948TIP3   OH227478   2.825   5.699   0.295 -0.3474 -0.0847  0.1977
 1948TIP3    H127479   2.914   5.699   0.260 -0.5940 -0.4429 -0.4425
 1948TIP3    H227480   2.810   5.789   0.323  0.2774 -0.0618  0.4683
 1949TIP3   OH227481   3.557   4.470   8.508  0.6946  0.1785  0.1397
 1949TIP3    H127482   3.527   4.450   8.419  2.0942  3.2330 -1.1802
 1949TIP3    H227483   3.477   4.471   8.561 -0.3106 -0.6658 -1.2988
 1950TIP3   OH227484   1.791   6.547   7.078  0.2283  0.1615 -0.0297
 1950TIP3    H127485   1.736   6.625   7.073 -0.6343 -0.3937  0.4618
 1950TIP3    H227486   1.776   6.513   7.166  0.1657 -0.8554 -0.4149
 1951TIP3   OH227487   0.068   3.027   2.235  0.6134 -0.1079  0.1860
 1951TIP3    H127488   0.019   3.108   2.248  0.9868  0.0084  0.8995
 1951TIP3    H227489   0.098   3.031   2.144 -1.1176 -0.4239 -0.4294
 1952TIP3   OH227490   3.486   5.431   7.197 -0.0153 -0.1209  0.2540
 1952TIP3    H127491   3.406   5.471   7.163  0.2521 -0.1579 -0.4250
 1952TIP3    H227492   3.526   5.388   7.121 -0.4675 -1.9828  1.0223
 1953TIP3   OH227493   1.587   6.218   1.677  0.4384 -1.1165 -0.2576
 1953TIP3    H127494   1.640   6.262   1.744 -2.1281 -1.0877  1.9147
 1953TIP3    H227495   1.527   6.286   1.645 -1.3405 -2.1433  0.7291
 1954TIP3   OH227496   6.821   6.149   0.696  0.2918  0.8666 -0.1484
 1954TIP3    H127497   6.757   6.190   0.753 -0.1005 -0.1987  0.1957
 1954TIP3    H227498   6.802   6.184   0.609 -0.6804  0.6504 -0.0279
 1955TIP3   OH227499   6.611   0.699   0.256  0.0780  0.0851 -0.4168
 1955TIP3    H127500   6.632   0.678   0.347 -0.0342 -0.5070 -0.5231
 1955TIP3    H227501   6.588   0.792   0.258  0.0305  0.0674  0.1661
 1956TIP3   OH227502   3.621   4.798   8.380  0.5358 -0.0887  0.1157
 1956TIP3    H127503   3.546   4.839   8.423 -0.0104 -1.4962  0.5534
 1956TIP3    H227504   3.660   4.743   8.447 -0.0578 -1.9724 -0.9873
 1957TIP3   OH227505   1.731   3.471   0.502 -0.1097  0.3727 -0.1552
 1957TIP3    H127506   1.755   3.544   0.445  1.8193  0.7211  0.9853
 1957TIP3    H227507   1.655   3.503   0.551 -0.1794  1.0539 -0.6852
 1958TIP3   OH227508   6.761   2.235   7.649 -0.2567 -0.3610 -0.4879
 1958TIP3    H127509   6.842   2.245   7.599  0.8134 -1.5309  0.9203
 1958TIP3    H227510   6.748   2.320   7.691  1.8113 -0.8757  1.4312
 1959TIP3   OH227511   3.470   2.187   7.401  0.8458 -0.6208 -0.3953
 1959TIP3    H127512   3.490   2.200   7.308 -3.2562 -0.7356 -1.4552
 1959TIP3    H227513   3.446   2.274   7.432 -2.6713 -1.2749 -0.9235
 1960TIP3   OH227514   0.426   3.534   1.693  0.2302 -0.3222 -0.4471
 1960TIP3    H127515   0.479   3.468   1.737  0.3632 -0.5604 -0.9638
 1960TIP3    H227516   0.445   3.615   1.740  3.4064  0.2724 -2.4181
 1961TIP3   OH227517   1.725   1.189   0.529 -1.0522  0.0620  0.1065
 1961TIP3    H127518   1.716   1.229   0.442 -2.9915  1.3629  0.8220
 1961TIP3    H227519   1.635   1.176   0.558 -0.4914 -3.3069  0.6757
 1962TIP3   OH227520   5.134   2.238   6.869  0.1808 -0.5505  0.1223
 1962TIP3    H127521   5.040   2.219   6.866  0.1414 -0.3981  0.3850
 1962TIP3    H227522   5.164   2.220   6.780 -0.2828  0.3554 -0.2252
 1963TIP3   OH227523   4.151   1.672   0.946  0.1764  0.1533 -0.3685
 1963TIP3    H127524   4.097   1.746   0.975 -1.0475 -0.8915  0.1307
 1963TIP3    H227525   4.178   1.629   1.026  2.4293  1.0635 -0.5793
 1964TIP3   OH227526   0.164   1.908   7.634  0.0011  0.0646 -0.8676
 1964TIP3    H127527   0.114   1.848   7.578 -0.3020 -0.9734  0.4505
 1964TIP3    H227528   0.226   1.851   7.679 -2.0257  0.2292  2.3934
 1965TIP3   OH227529   5.507   6.678   7.404  0.2028 -0.0602  0.2170
 1965TIP3    H127530   5.495   6.583   7.400  0.0791 -0.0693  0.7711
 1965TIP3    H227531   5.425   6.711   7.440  0.2398  0.2610  0.0140
 1966TIP3   OH227532   5.644   3.155   1.474 -0.1064 -0.2625 -0.0850
 1966TIP3    H127533   5.721   3.210   1.491  0.0166 -0.4219 -0.1234
 1966TIP3    H227534   5.599   3.149   1.558 -1.0663  1.3288 -0.4318
 1967TIP3   OH227535   3.426   5.969   7.073 -0.0557 -0.0533 -0.0389
 1967TIP3    H127536   3.399   5.911   7.002  1.0879 -0.5930 -0.0566
 1967TIP3    H227537   3.347   6.016   7.097 -0.3929  0.4252 -1.9218
 1968TIP3   OH227538   2.022   3.503   0.280 -0.8185  0.0006  0.6799
 1968TIP3    H127539   1.939   3.551   0.283 -0.1040  1.2141  1.5384
 1968TIP3    H227540   2.034   3.470   0.370  0.7076  1.7659  1.1797
 1969TIP3   OH227541   1.028   2.199   8.164 -0.0037 -0.1767  0.1217
 1969TIP3    H127542   1.022   2.103   8.164 -0.4619 -0.4597 -5.1013
 1969TIP3    H227543   1.116   2.217   8.131 -0.0062  1.2251  0.8212
 1970TIP3   OH227544   5.120   3.285   6.334 -0.2767 -0.0713  0.7845
 1970TIP3    H127545   5.186   3.268   6.267 -1.2108 -0.3903 -0.0837
 1970TIP3    H227546   5.047   3.326   6.286 -1.0434 -0.4877  1.5615
 1971TIP3   OH227547   1.951   3.076   2.171  0.3964  0.3974 -0.1059
 1971TIP3    H127548   1.859   3.088   2.191  0.4991  0.3701  0.3773
 1971TIP3    H227549   1.990   3.043   2.252  0.4727 -1.4250 -0.8326
 1972TIP3   OH227550   4.062   2.388   7.938  0.3056 -0.0198 -0.8778
 1972TIP3    H127551   4.116   2.395   8.016 -1.6155  0.4183  0.5044
 1972TIP3    H227552   4.111   2.434   7.870  0.7510  2.1868  0.8183
 1973TIP3   OH227553   4.717   4.887   7.729 -0.2713 -0.1967  0.3906
 1973TIP3    H127554   4.668   4.954   7.777 -0.0872  0.6471 -0.5541
 1973TIP3    H227555   4.736   4.928   7.645  3.1624  0.0291  1.1375
 1974TIP3   OH227556   5.115   2.561   7.654  0.5035  0.0820  0.0975
 1974TIP3    H127557   5.139   2.516   7.573  0.9594  0.3790  0.0697
 1974TIP3    H227558   5.190   2.549   7.712 -1.0332 -2.9280  1.6800
 1975TIP3   OH227559   5.591   6.403   0.402  0.2914 -0.3723  0.1831
 1975TIP3    H127560   5.638   6.342   0.346 -0.7367 -1.2065  0.2121
 1975TIP3    H227561   5.512   6.426   0.353  0.8128  1.2138  0.0204
 1976TIP3   OH227562   4.971   3.662   0.346 -0.2439  0.1866 -0.3765
 1976TIP3    H127563   5.055   3.669   0.300  0.4620 -2.3968  0.3989
 1976TIP3    H227564   4.984   3.711   0.427  1.1718 -1.6087  0.5454
 1977TIP3   OH227565   0.371   4.671   7.692  0.1469  0.8350 -0.0554
 1977TIP3    H127566   0.466   4.667   7.683  0.4933  0.6241  2.8149
 1977TIP3    H227567   0.346   4.750   7.645  2.0073  1.9648  0.7301
 1978TIP3   OH227568   1.168   2.503   8.442  0.2965  0.3915  0.6350
 1978TIP3    H127569   1.094   2.462   8.488  0.8182 -0.9478  0.3206
 1978TIP3    H227570   1.211   2.556   8.509  0.3790 -0.6298  1.4115
 1979TIP3   OH227571   5.089   5.552   0.379  0.5047  0.1157 -0.1071
 1979TIP3    H127572   5.178   5.585   0.374  0.6672 -0.2861  0.0770
 1979TIP3    H227573   5.061   5.543   0.288  0.2207  1.3644 -0.1605
 1980TIP3   OH227574   1.690   4.457   1.147  0.7199 -0.4737 -0.2396
 1980TIP3    H127575   1.688   4.441   1.053  1.9444  2.7895 -0.9667
 1980TIP3    H227576   1.598   4.455   1.173  0.4365 -2.5187 -1.2371
 1981TIP3   OH227577   4.353   5.949   8.108 -0.4029  0.1752  0.2730
 1981TIP3    H127578   4.302   5.913   8.035 -0.1123 -0.6741  0.4816
 1981TIP3    H227579   4.408   5.877   8.137  0.4504  0.8970  0.4804
 1982TIP3   OH227580   2.483   3.775   7.562 -1.0435 -0.4284  0.3211
 1982TIP3    H127581   2.507   3.866   7.576  1.6644 -1.1351  0.9849
 1982TIP3    H227582   2.523   3.752   7.478 -2.0874 -0.9065 -0.0593
 1983TIP3   OH227583   6.107   0.720   8.174 -0.2347 -0.0304 -0.7709
 1983TIP3    H127584   6.013   0.737   8.182  0.0891  1.2183  1.0568
 1983TIP3    H227585   6.125   0.727   8.080 -2.1697 -1.7062 -1.3324
 1984TIP3   OH227586   4.041   1.588   0.676 -0.2017 -0.5733 -0.0967
 1984TIP3    H127587   4.089   1.624   0.750  0.4777  1.1669 -1.3086
 1984TIP3    H227588   4.109   1.546   0.622 -0.4863 -0.6596 -0.3881
 1985TIP3   OH227589   5.342   6.485   0.958 -0.1769  0.1105  0.0350
 1985TIP3    H127590   5.347   6.394   0.928  1.0352  0.2362 -0.1891
 1985TIP3    H227591   5.428   6.522   0.938  0.2062  0.6219  2.3801
 1986TIP3   OH227592   5.602   6.748   8.595 -0.1211 -0.2255 -0.2440
 1986TIP3    H127593   5.681   6.728   8.546 -0.4077 -1.0127 -0.3958
 1986TIP3    H227594   5.533   6.752   8.528 -0.1997  0.5421 -0.1255
 1987TIP3   OH227595   2.604   2.834   1.442  0.0947  0.4952  0.4116
 1987TIP3    H127596   2.605   2.922   1.478 -1.8404  0.3511  0.9596
 1987TIP3    H227597   2.516   2.801   1.462 -0.5626 -0.2103 -3.0057
 1988TIP3   OH227598   5.679   0.522   1.009 -0.4276 -0.5194  0.3577
 1988TIP3    H127599   5.748   0.573   1.052 -0.5764 -0.5923  0.6911
 1988TIP3    H227600   5.703   0.522   0.916  0.1405 -0.7318  0.4971
 1989TIP3   OH227601   4.190   0.391   7.690 -0.1633  0.4774  0.9455
 1989TIP3    H127602   4.097   0.372   7.698 -0.2162 -0.1535 -0.7720
 1989TIP3    H227603   4.221   0.332   7.622  1.4699  0.8030  1.3555
 1990TIP3   OH227604   3.872   1.022   8.572  0.0581 -0.5857  0.0220
 1990TIP3    H127605   3.967   1.027   8.558 -0.0841  2.2871 -0.5663
 1990TIP3    H227606   3.834   1.051   8.489 -1.1408  2.4207  1.4371
 1991TIP3   OH227607   2.585   3.648   8.782  0.1001 -0.1348  0.5917
 1991TIP3    H127608   2.635   3.668   8.862 -0.4632 -0.6924  1.0949
 1991TIP3    H227609   2.643   3.675   8.711  0.9354 -0.3437  1.1718
 1992TIP3   OH227610   5.881   4.691   1.491  0.2585 -0.0175 -0.2204
 1992TIP3    H127611   5.922   4.632   1.427  0.7678  0.2570 -0.1475
 1992TIP3    H227612   5.802   4.645   1.518  0.6940 -0.7024 -0.1028
 1993TIP3   OH227613   6.281   0.582   0.126  0.4633  0.0338 -0.6106
 1993TIP3    H127614   6.346   0.637   0.083 -0.8547  2.1932 -0.0115
 1993TIP3    H227615   6.245   0.638   0.195 -1.3899 -1.3913 -0.3543
 1994TIP3   OH227616   1.988   4.916   0.980  0.1707  0.4042  0.4089
 1994TIP3    H127617   1.967   4.946   0.892  2.9555 -0.2479 -0.5832
 1994TIP3    H227618   2.024   4.993   1.024 -0.1891  0.4588  0.6120
 1995TIP3   OH227619   6.748   5.036   6.661 -0.0916  0.2724  0.5989
 1995TIP3    H127620   6.710   5.007   6.578 -0.8036  0.1627  0.9536
 1995TIP3    H227621   6.821   5.092   6.636 -0.0168 -0.1306 -0.1000
 1996TIP3   OH227622   4.517   5.797   1.207  0.5514 -0.1947  0.0215
 1996TIP3    H127623   4.532   5.778   1.300  0.1483 -0.5293  0.0226
 1996TIP3    H227624   4.443   5.740   1.183  1.4745 -1.0711 -0.8260
 1997TIP3   OH227625   4.252   6.472   6.762 -0.7368  0.0332  0.0437
 1997TIP3    H127626   4.309   6.475   6.685 -1.0022 -1.2493 -0.2292
 1997TIP3    H227627   4.207   6.387   6.755 -0.6862 -0.1546  1.6622
 1998TIP3   OH227628   2.485   2.172   0.899  0.2811  0.5178 -0.2365
 1998TIP3    H127629   2.467   2.165   0.805 -0.6897  3.7663 -0.3949
 1998TIP3    H227630   2.399   2.162   0.940  0.5334  0.2654  0.2386
 1999TIP3   OH227631   3.901   4.740   6.668 -0.2015 -0.6341  0.1790
 1999TIP3    H127632   3.957   4.699   6.734 -0.8021 -0.7372  0.6323
 1999TIP3    H227633   3.913   4.686   6.590  0.0299 -0.8908  0.3877
 2000TIP3   OH227634   5.568   0.748   6.832 -0.2146  0.3023  0.1637
 2000TIP3    H127635   5.571   0.761   6.927 -0.7372 -2.1601  0.5744
 2000TIP3    H227636   5.503   0.679   6.819 -0.7060  1.1022 -2.0776
 2001TIP3   OH227637   0.371   6.800   0.447  0.4777 -0.3707 -0.2152
 2001TIP3    H127638   0.332   6.796   0.359  0.2386 -2.4155 -0.0776
 2001TIP3    H227639   0.434   6.728   0.448  0.2717 -0.5674  1.3832
 2002TIP3   OH227640   0.802   6.510   7.672  0.4710 -0.3070  0.1327
 2002TIP3    H127641   0.792   6.605   7.661  2.9707 -0.1062 -1.0458
 2002TIP3    H227642   0.860   6.484   7.601  3.0200 -2.0591  2.6559
 2003TIP3   OH227643   2.252   6.065   8.442  0.4618 -0.2521  0.4446
 2003TIP3    H127644   2.157   6.076   8.433  0.4585 -1.0504 -0.7567
 2003TIP3    H227645   2.270   6.084   8.534 -0.7740  0.5131  0.5512
 2004TIP3   OH227646   5.757   1.551   0.449 -0.8295  0.5638 -0.0731
 2004TIP3    H127647   5.831   1.537   0.508 -1.8598  1.3936  1.5060
 2004TIP3    H227648   5.795   1.591   0.371  0.8592 -2.4198 -0.9284
 2005TIP3   OH227649   5.373   1.989   0.535 -0.3415  0.1772 -0.1190
 2005TIP3    H127650   5.428   1.928   0.485 -1.9208 -1.9057  0.5373
 2005TIP3    H227651   5.324   1.934   0.596 -1.8047  2.1308  0.6096
 2006TIP3   OH227652   5.772   1.167   7.203 -0.5493  0.5215  0.0093
 2006TIP3    H127653   5.676   1.171   7.208 -0.4636  0.4303  2.9477
 2006TIP3    H227654   5.794   1.229   7.133 -2.6607  2.1879  0.7022
 2007TIP3   OH227655   6.292   1.878   0.192  0.3018 -0.2372  0.0081
 2007TIP3    H127656   6.339   1.962   0.198 -0.7588  0.3602  0.2469
 2007TIP3    H227657   6.347   1.824   0.135  1.3287  0.3919  0.3628
 2008TIP3   OH227658   3.768   4.965   6.544 -0.3811  0.0225 -0.3436
 2008TIP3    H127659   3.841   5.003   6.593 -0.1394  0.0748 -0.7312
 2008TIP3    H227660   3.793   4.873   6.532 -1.0176 -0.2956  0.6911
 2009TIP3   OH227661   1.555   5.131   0.914  0.4883  0.1106 -0.4612
 2009TIP3    H127662   1.492   5.165   0.978 -0.6180 -0.9604 -0.9365
 2009TIP3    H227663   1.506   5.129   0.831  0.6196 -2.1556 -0.5490
 2010TIP3   OH227664   3.957   0.698   0.768 -0.1246 -0.1530 -0.1852
 2010TIP3    H127665   3.921   0.713   0.680  1.0466 -0.8425 -0.8051
 2010TIP3    H227666   3.927   0.610   0.791 -0.5258  0.0703  0.1746
 2011TIP3   OH227667   5.671   4.074   1.803  0.7249  0.3379  0.4094
 2011TIP3    H127668   5.634   3.987   1.818  0.4321  0.5086  0.6913
 2011TIP3    H227669   5.612   4.133   1.850 -0.1062  0.8704 -1.2342
 2012TIP3   OH227670   6.781   4.535   1.554  0.6780 -0.0742  0.1501
 2012TIP3    H127671   6.755   4.562   1.642  0.7529  1.0976 -0.1632
 2012TIP3    H227672   6.700   4.507   1.512  0.5237  0.0511  0.3638
 2013TIP3   OH227673   1.296   6.860   1.043  0.3151 -0.2817 -0.2242
 2013TIP3    H127674   1.362   6.927   1.064 -0.3650  0.0419  0.9671
 2013TIP3    H227675   1.328   6.819   0.963  0.8192  1.3887 -0.9184
 2014TIP3   OH227676   2.342   1.335   1.407 -0.2785  0.4454 -0.3747
 2014TIP3    H127677   2.309   1.328   1.496 -0.2050  1.9752 -0.1914
 2014TIP3    H227678   2.417   1.276   1.404 -1.1738 -0.7552  0.1073
 2015TIP3   OH227679   3.907   1.187   7.223 -0.0830 -0.3978 -0.6352
 2015TIP3    H127680   3.929   1.155   7.311  0.3403 -0.3526 -0.7216
 2015TIP3    H227681   3.927   1.281   7.226  0.1032 -0.4305 -0.8332
 2016TIP3   OH227682   5.059   3.725   1.134 -0.2890  0.2908  0.0961
 2016TIP3    H127683   5.129   3.734   1.069 -0.3900  1.7422  0.1537
 2016TIP3    H227684   4.997   3.795   1.113 -3.0722 -2.4129 -1.5039
 2017TIP3   OH227685   2.351   3.651   6.985  0.8726  0.2365 -0.1896
 2017TIP3    H127686   2.427   3.674   6.932  0.8901 -2.3977 -1.4786
 2017TIP3    H227687   2.277   3.654   6.924  0.3525  0.3016  0.4300
 2018TIP3   OH227688   2.943   0.104   1.930 -0.1669 -0.7199 -0.3688
 2018TIP3    H127689   2.876   0.153   1.883 -0.3454  1.2571  1.7611
 2018TIP3    H227690   2.894   0.044   1.986 -0.1310 -0.1240  0.3098
 2019TIP3   OH227691   4.279   3.830   0.913  0.2545  0.3986 -0.3677
 2019TIP3    H127692   4.346   3.893   0.889  0.4164  0.5139  0.3623
 2019TIP3    H227693   4.319   3.778   0.983 -0.6646  0.9505  0.5975
 2020TIP3   OH227694   6.785   0.930   7.104 -0.0866 -0.0282 -0.0936
 2020TIP3    H127695   6.709   0.923   7.162 -0.3300  1.0559 -0.2622
 2020TIP3    H227696   6.806   0.840   7.081 -0.1026 -0.4716  1.5259
 2021TIP3   OH227697   0.533   5.494   1.409 -0.0712 -0.1667  0.1175
 2021TIP3    H127698   0.481   5.483   1.330  1.4460 -0.7802 -0.8446
 2021TIP3    H227699   0.612   5.539   1.380  0.1241  0.4164  1.4632
 2022TIP3   OH227700   5.915   6.140   8.426  0.3346 -0.5206 -0.1048
 2022TIP3    H127701   5.902   6.066   8.368 -0.1627  0.3364 -1.1234
 2022TIP3    H227702   6.010   6.156   8.425  0.2759 -0.1286 -1.2075
 2023TIP3   OH227703   3.012   3.088   8.276 -0.1822  0.1317  0.4636
 2023TIP3    H127704   3.016   3.162   8.216  0.2871 -1.3834 -1.4686
 2023TIP3    H227705   3.085   3.103   8.337 -0.5965  1.6411  0.6266
 2024TIP3   OH227706   4.442   1.191   8.204 -0.2681 -0.6192  0.0290
 2024TIP3    H127707   4.467   1.247   8.278  0.2603  0.6044 -1.0536
 2024TIP3    H227708   4.438   1.250   8.129  0.4087 -2.0442 -1.1732
 2025TIP3   OH227709   1.045   0.659   2.015 -0.5116 -0.0452  0.1718
 2025TIP3    H127710   1.031   0.738   1.962 -0.1965  0.5171  0.9075
 2025TIP3    H227711   0.988   0.593   1.975 -1.0974  0.6734 -0.2018
 2026TIP3   OH227712   0.115   1.021   0.856  0.2166  0.0977 -0.8408
 2026TIP3    H127713   0.125   1.072   0.775 -1.4917  0.4863 -0.8520
 2026TIP3    H227714   0.052   1.071   0.907 -0.8402 -1.5642 -0.4616
 2027TIP3   OH227715   4.136   3.559   8.683 -0.5128 -0.1048  0.3068
 2027TIP3    H127716   4.068   3.495   8.662 -0.8160 -0.0900  1.1923
 2027TIP3    H227717   4.212   3.507   8.708  0.3756 -0.1516 -2.2672
 2028TIP3   OH227718   1.200   1.981   0.429 -0.6705  0.2480 -0.1773
 2028TIP3    H127719   1.263   2.053   0.427  0.2750 -0.5639 -0.7310
 2028TIP3    H227720   1.252   1.904   0.455 -1.7710 -0.1426  0.9436
 2029TIP3   OH227721   1.975   5.873   7.470 -0.2430 -0.5659  0.4689
 2029TIP3    H127722   1.891   5.919   7.464  1.6710  3.2764 -0.4867
 2029TIP3    H227723   1.984   5.830   7.385 -0.7161  0.0630  0.0881
 2030TIP3   OH227724   0.825   0.422   7.202  0.3938  0.4283 -0.5919
 2030TIP3    H127725   0.821   0.419   7.106 -1.7878  1.5119 -0.5921
 2030TIP3    H227726   0.757   0.484   7.227  1.5662  0.9306  1.6502
 2031TIP3   OH227727   1.490   1.463   1.422  0.0775 -0.1592  0.5762
 2031TIP3    H127728   1.431   1.529   1.459  1.8525  2.1483 -0.4195
 2031TIP3    H227729   1.574   1.481   1.463  1.0832 -0.4299 -1.2858
 2032TIP3   OH227730   0.682   6.020   7.480 -0.4454  0.2010 -0.3817
 2032TIP3    H127731   0.739   6.092   7.453 -0.9713  0.2668 -1.3402
 2032TIP3    H227732   0.699   6.011   7.574  1.2436  0.1304 -0.6500
 2033TIP3   OH227733   3.654   0.924   0.585  0.6069 -0.2224  0.2120
 2033TIP3    H127734   3.674   1.013   0.557  1.8867 -0.1305  1.2935
 2033TIP3    H227735   3.651   0.873   0.504  3.4944  0.1432 -0.2284
 2034TIP3   OH227736   5.444   6.229   0.830  0.6019 -0.8013 -0.3241
 2034TIP3    H127737   5.379   6.163   0.808  0.3871 -0.3522 -1.0411
 2034TIP3    H227738   5.464   6.213   0.923 -0.9963 -0.5433  0.0822
 2035TIP3   OH227739   6.250   6.226   6.809 -0.0040 -0.1688  0.6387
 2035TIP3    H127740   6.274   6.144   6.765 -2.0321  0.2280 -1.4096
 2035TIP3    H227741   6.251   6.291   6.739 -2.8291  0.6249  1.2090
 2036TIP3   OH227742   1.772   0.671   8.272 -0.1544  0.1848 -0.6769
 2036TIP3    H127743   1.708   0.611   8.308  0.3875  0.7663  1.4325
 2036TIP3    H227744   1.850   0.658   8.326  0.8947  0.7863 -1.9872
 2037TIP3   OH227745   6.654   1.738   6.553  0.4403  0.1891  0.2489
 2037TIP3    H127746   6.702   1.664   6.517 -1.5145 -0.9298 -0.1670
 2037TIP3    H227747   6.644   1.799   6.479 -1.6000 -1.0924 -0.6253
 2038TIP3   OH227748   6.679   1.399   1.665 -0.3646 -0.1398 -0.3557
 2038TIP3    H127749   6.690   1.479   1.615  1.3832  0.4310  0.8514
 2038TIP3    H227750   6.628   1.426   1.742 -0.6309 -0.3998 -0.4408
 2039TIP3   OH227751   4.615   2.548   7.709 -0.2133 -0.6549 -0.2480
 2039TIP3    H127752   4.687   2.575   7.765 -0.4699  0.3485 -0.3854
 2039TIP3    H227753   4.646   2.566   7.620 -0.4934 -0.5641 -0.3277
 2040TIP3   OH227754   2.004   4.249   7.422  0.3606 -0.1442  0.2632
 2040TIP3    H127755   2.091   4.262   7.384 -0.2212 -0.2659 -1.2009
 2040TIP3    H227756   2.015   4.177   7.484  1.2737 -0.2840 -0.0461
 2041TIP3   OH227757   3.516   6.398   1.094  0.3808  0.1677  0.2976
 2041TIP3    H127758   3.566   6.469   1.055 -1.5533  1.2310 -0.3733
 2041TIP3    H227759   3.480   6.435   1.175 -2.1665  0.6706 -0.9661
 2042TIP3   OH227760   2.489   1.169   7.927 -0.9071 -0.1827 -0.7960
 2042TIP3    H127761   2.534   1.137   7.849  0.3286 -0.6673  0.0697
 2042TIP3    H227762   2.453   1.253   7.902  1.9052  1.0326 -1.1226
 2043TIP3   OH227763   5.642   0.321   1.197 -0.4413 -0.5371 -0.0797
 2043TIP3    H127764   5.703   0.257   1.162 -0.6804 -0.8670  0.0950
 2043TIP3    H227765   5.653   0.398   1.142 -0.5997 -0.9415 -0.6919
 2044TIP3   OH227766   4.519   4.679   1.670 -0.2172  0.7124 -0.0724
 2044TIP3    H127767   4.500   4.739   1.742 -1.0182 -0.3064  0.5957
 2044TIP3    H227768   4.606   4.645   1.689 -1.4115 -1.5247  1.9168
 2045TIP3   OH227769   4.764   6.425   8.307  0.6185 -0.0272 -0.6989
 2045TIP3    H127770   4.686   6.377   8.334  0.3618 -0.8100 -2.6539
 2045TIP3    H227771   4.732   6.512   8.284  0.9312  0.8472  1.9058
 2046TIP3   OH227772   3.013   1.785   7.399  0.2493 -0.1056  0.7398
 2046TIP3    H127773   3.045   1.698   7.372 -0.4733 -0.5272  1.2120
 2046TIP3    H227774   2.985   1.773   7.489 -2.1994 -0.0335  0.0482
 2047TIP3   OH227775   1.488   6.376   6.804  0.0329 -0.0371  0.2290
 2047TIP3    H127776   1.446   6.312   6.747  0.2144 -0.0676  0.1285
 2047TIP3    H227777   1.449   6.361   6.890  0.5450 -0.7280  0.3526
 2048TIP3   OH227778   5.920   1.537   0.659 -0.2501 -0.5160  0.0556
 2048TIP3    H127779   6.008   1.503   0.642 -0.3619 -0.9703  0.3801
 2048TIP3    H227780   5.869   1.461   0.684 -0.6119 -0.1720  0.3737
 2049TIP3   OH227781   6.155   1.577   7.358 -0.5593  0.0530  0.3903
 2049TIP3    H127782   6.065   1.544   7.365 -0.6401  0.1762 -0.0116
 2049TIP3    H227783   6.149   1.647   7.292 -0.0174 -0.4880 -0.2434
 2050TIP3   OH227784   3.453   6.461   7.727 -0.5010 -0.2339  0.2877
 2050TIP3    H127785   3.374   6.502   7.764 -0.9569 -1.0314  0.2167
 2050TIP3    H227786   3.525   6.506   7.771 -1.0143 -0.2948  1.2352
 2051TIP3   OH227787   6.534   1.010   0.091  0.2516  0.1030  0.4095
 2051TIP3    H127788   6.601   1.061   0.137  0.8956  0.0491 -0.4500
 2051TIP3    H227789   6.477   1.076   0.051 -1.5670  0.2297  2.8978
 2052TIP3   OH227790   6.725   3.384   2.664 -0.4400 -0.2953  0.0367
 2052TIP3    H127791   6.661   3.375   2.594 -0.5749  1.1096 -0.0494
 2052TIP3    H227792   6.764   3.296   2.673 -1.1608 -0.7452 -1.0619
 2053TIP3   OH227793   2.453   2.557   7.639  0.7040  0.3938  0.8452
 2053TIP3    H127794   2.505   2.632   7.610  1.6661  0.4827  2.6514
 2053TIP3    H227795   2.469   2.490   7.573 -0.9463  2.0052 -1.3565
 2054TIP3   OH227796   3.324   3.680   8.356  0.2525  0.4505 -0.1476
 2054TIP3    H127797   3.417   3.684   8.333  0.5232  0.5238  0.8918
 2054TIP3    H227798   3.321   3.623   8.434 -0.7564 -0.7686 -1.0324
 2055TIP3   OH227799   3.308   0.171   8.102  0.0309  0.3547 -0.1004
 2055TIP3    H127800   3.335   0.172   8.194  0.2854 -0.0225 -0.1712
 2055TIP3    H227801   3.215   0.146   8.104  0.2619 -0.5044 -0.0028
 2056TIP3   OH227802   6.551   3.616   8.653  0.1632  0.1210  0.1730
 2056TIP3    H127803   6.624   3.676   8.673 -0.2300  1.1204 -1.2011
 2056TIP3    H227804   6.484   3.673   8.616 -0.6614 -1.0385 -0.1466
 2057TIP3   OH227805   5.636   3.306   8.784  0.4607  0.4091 -0.3200
 2057TIP3    H127806   5.621   3.220   8.822 -1.0243  0.1620 -1.3529
 2057TIP3    H227807   5.701   3.290   8.715  2.8959  0.8013  1.7410
 2058TIP3   OH227808   2.773   5.833   8.824 -0.1421 -0.1410  0.1652
 2058TIP3    H127809   2.721   5.756   8.797 -1.0562  0.7037 -0.5609
 2058TIP3    H227810   2.734   5.859   8.908  0.0059 -0.3245  0.2909
 2059TIP3   OH227811   0.422   4.862   8.167  0.1597 -0.2892 -0.5372
 2059TIP3    H127812   0.389   4.901   8.086  0.4771 -1.3619 -1.2011
 2059TIP3    H227813   0.428   4.768   8.147 -1.2432 -0.8016  1.2192
 2060TIP3   OH227814   5.099   2.492   2.195  0.2451 -0.2767  0.2866
 2060TIP3    H127815   5.037   2.534   2.135 -0.1078 -2.7473 -1.2236
 2060TIP3    H227816   5.133   2.564   2.249 -0.3868  1.8676 -1.9957
 2061TIP3   OH227817   0.172   1.801   1.681 -0.3044  0.3608 -0.4013
 2061TIP3    H127818   0.161   1.833   1.770  0.6103  1.1529 -0.5614
 2061TIP3    H227819   0.175   1.880   1.627 -2.9874 -0.1412 -1.4319
 2062TIP3   OH227820   1.256   2.656   1.305 -0.0242 -0.4488  0.0229
 2062TIP3    H127821   1.209   2.673   1.386 -2.0986 -0.6592 -1.0691
 2062TIP3    H227822   1.347   2.678   1.325 -0.7614  1.2320  1.8500
 2063TIP3   OH227823   1.483   4.423   7.500  0.2496  0.4781 -0.0942
 2063TIP3    H127824   1.431   4.408   7.421  1.2651 -1.5759 -0.4497
 2063TIP3    H227825   1.562   4.371   7.487  0.8841  0.8435  1.8774
 2064TIP3   OH227826   5.242   2.346   8.048 -0.0643  0.1238 -0.4156
 2064TIP3    H127827   5.187   2.278   8.010 -1.0826  1.7022 -1.8842
 2064TIP3    H227828   5.273   2.397   7.973 -0.9959  2.5029  0.7280
 2065TIP3   OH227829   1.369   6.630   8.643 -0.0921 -0.1990 -0.4889
 2065TIP3    H127830   1.428   6.574   8.693 -0.9405 -0.2456  0.5039
 2065TIP3    H227831   1.306   6.569   8.605 -1.7844  0.1087  1.6347
 2066TIP3   OH227832   1.136   5.336   0.597  0.4316  0.3606  0.5917
 2066TIP3    H127833   1.160   5.385   0.675  0.4650 -1.1134  1.5391
 2066TIP3    H227834   1.040   5.336   0.596  0.4313  0.3193  0.6616
 2067TIP3   OH227835   4.260   4.171   0.124 -0.1666 -0.0221  0.2718
 2067TIP3    H127836   4.272   4.124   0.207  1.0284 -0.6704 -0.2463
 2067TIP3    H227837   4.234   4.103   0.062 -0.3766  0.3452 -0.0476
 2068TIP3   OH227838   5.097   1.019   7.529  0.2002  0.0854 -0.1149
 2068TIP3    H127839   5.115   1.064   7.612  0.3102  1.8658 -1.0519
 2068TIP3    H227840   5.033   1.075   7.485 -0.4993 -1.2614 -0.8922
 2069TIP3   OH227841   6.780   2.801   1.555 -0.0475  0.1998  0.4863
 2069TIP3    H127842   6.765   2.781   1.647  2.0201  2.7116  1.5126
 2069TIP3    H227843   6.874   2.821   1.550  0.3404 -1.7784 -2.6200
 2070TIP3   OH227844   2.321   5.084   1.201 -0.2661  0.0395  0.9211
 2070TIP3    H127845   2.348   5.063   1.112  2.0159  1.7400  1.1175
 2070TIP3    H227846   2.225   5.081   1.199 -0.3768  1.6422 -2.0529
 2071TIP3   OH227847   0.030   3.434   6.832  0.2033 -0.7438 -0.5017
 2071TIP3    H127848   0.123   3.430   6.810  0.1468  0.3619 -0.9940
 2071TIP3    H227849  -0.012   3.379   6.766  0.1569  1.6679 -2.6654
 2072TIP3   OH227850   6.700   6.079   0.075 -0.0968  0.2485 -0.2136
 2072TIP3    H127851   6.669   5.999   0.117 -0.5364 -0.2963 -1.5304
 2072TIP3    H227852   6.775   6.051   0.021  0.1962  0.8554 -0.1376
 2073TIP3   OH227853   6.432   0.556   7.352  0.0291 -0.2858  0.7275
 2073TIP3    H127854   6.359   0.609   7.384 -0.3939 -0.9543  0.8951
 2073TIP3    H227855   6.391   0.492   7.293  0.5804 -0.1734  0.2104
 2074TIP3   OH227856   2.757   1.209   7.778  0.5001  0.0498 -0.3261
 2074TIP3    H127857   2.755   1.192   7.873 -0.9289 -1.4970 -0.5917
 2074TIP3    H227858   2.838   1.259   7.765  2.2401 -2.0758  1.3367
 2075TIP3   OH227859   3.030   0.318   7.027  0.4600 -0.0299 -1.0985
 2075TIP3    H127860   2.980   0.300   6.947 -0.3448 -0.5594 -0.4918
 2075TIP3    H227861   3.042   0.413   7.026 -1.5379  0.2616 -0.7125
 2076TIP3   OH227862   0.081   5.473   8.713  0.1671 -0.4734  0.0827
 2076TIP3    H127863   0.055   5.564   8.730 -0.9405 -0.6886 -0.3908
 2076TIP3    H227864   0.131   5.477   8.632  1.5450 -0.0794  0.9105
 2077TIP3   OH227865   0.368   5.866   7.322 -0.7261  0.1759  0.1162
 2077TIP3    H127866   0.433   5.915   7.272 -0.6284 -0.4770 -0.4208
 2077TIP3    H227867   0.298   5.847   7.259 -1.2553  0.5343  0.5905
 2078TIP3   OH227868   5.597   0.974   8.350  0.2087  0.4779 -0.0509
 2078TIP3    H127869   5.543   0.914   8.402  0.1212  0.5817 -0.0212
 2078TIP3    H227870   5.618   1.045   8.411 -2.3637  2.1431 -0.9224
 2079TIP3   OH227871   1.337   2.937   1.758  0.0305  0.3628 -0.1722
 2079TIP3    H127872   1.367   3.028   1.755 -1.4461  0.9915  1.8883
 2079TIP3    H227873   1.249   2.941   1.795  0.5283 -1.9995  1.5579
 2080TIP3   OH227874   5.853   0.136   7.982  0.5570 -0.1312 -0.4452
 2080TIP3    H127875   5.778   0.175   7.936  1.1781  0.6756 -0.8082
 2080TIP3    H227876   5.846   0.170   8.071 -1.1945 -2.4595  0.3860
 2081TIP3   OH227877   5.062   5.456   8.575 -0.1474  0.1043  0.2389
 2081TIP3    H127878   5.139   5.457   8.517 -0.5892 -0.7829 -0.3891
 2081TIP3    H227879   5.095   5.421   8.658  0.5033  1.4316  0.5693
 2082TIP3   OH227880   0.575   5.678   7.854 -0.0707 -0.1466 -0.3456
 2082TIP3    H127881   0.539   5.682   7.765 -0.4476  0.3908 -0.1725
 2082TIP3    H227882   0.584   5.584   7.872  2.0719 -0.2803 -1.7622
 2083TIP3   OH227883   0.810   3.699   0.495 -0.7633  0.4093 -0.1577
 2083TIP3    H127884   0.847   3.627   0.545 -0.1627  0.1063 -1.0152
 2083TIP3    H227885   0.773   3.758   0.561  0.3129  0.1924  0.6584
 2084TIP3   OH227886   2.142   0.725   8.633  0.4941  0.0813 -0.1035
 2084TIP3    H127887   2.171   0.816   8.622  0.4135  0.3581  1.7057
 2084TIP3    H227888   2.047   0.729   8.627  0.5540 -0.1269 -1.4610
 2085TIP3   OH227889   0.905   5.678   7.626 -0.3175  0.3340 -0.0219
 2085TIP3    H127890   0.982   5.679   7.569  0.6959  0.1860  1.2971
 2085TIP3    H227891   0.831   5.691   7.566  0.2430 -3.9841 -2.0376
 2086TIP3   OH227892   5.123   4.447   0.880 -0.4964  0.0779 -0.1494
 2086TIP3    H127893   5.062   4.418   0.949 -1.5719  0.9853 -0.6782
 2086TIP3    H227894   5.139   4.539   0.900 -0.1749  0.1302 -0.6467
 2087TIP3   OH227895   3.021   4.735   1.710 -0.1849 -0.4757  0.1586
 2087TIP3    H127896   2.982   4.758   1.626 -0.0985 -0.3333  0.1566
 2087TIP3    H227897   3.016   4.640   1.714 -0.1737 -0.4839 -0.0146
 2088TIP3   OH227898   6.730   3.480   1.552  0.1555 -0.0664  0.1465
 2088TIP3    H127899   6.792   3.546   1.521  0.1123  0.3784  0.9703
 2088TIP3    H227900   6.685   3.522   1.626 -1.0476 -0.4296 -0.3580
 2089TIP3   OH227901   3.554   1.885   1.026  0.1412  0.3878  0.6644
 2089TIP3    H127902   3.478   1.939   1.007 -0.8836 -1.2436 -0.0553
 2089TIP3    H227903   3.552   1.872   1.121 -1.8227 -1.4727  0.4335
 2090TIP3   OH227904   6.343   0.243   8.398  0.0912  0.2062  0.3413
 2090TIP3    H127905   6.306   0.301   8.332 -1.0645 -1.4230 -0.5110
 2090TIP3    H227906   6.412   0.294   8.440  1.3184  1.0840 -2.5528
 2091TIP3   OH227907   4.767   3.682   7.783 -0.2217  0.1691 -0.0895
 2091TIP3    H127908   4.702   3.678   7.713  0.5874  0.3501 -0.8706
 2091TIP3    H227909   4.835   3.620   7.756  0.6342  1.0634 -0.0214
 2092TIP3   OH227910   4.731   6.282   1.483  0.1972  0.5400  0.1444
 2092TIP3    H127911   4.739   6.371   1.517 -1.0028  1.0659 -0.8424
 2092TIP3    H227912   4.672   6.238   1.545  0.2295  0.6524  0.2553
 2093TIP3   OH227913   6.682   3.824   0.426  0.6137  0.5195  0.0772
 2093TIP3    H127914   6.598   3.801   0.465  0.9748  0.0518  0.5884
 2093TIP3    H227915   6.730   3.742   0.422  0.8440  0.6814 -0.7345
 2094TIP3   OH227916   1.516   1.372   0.005  0.0055  0.2655  0.3074
 2094TIP3    H127917   1.438   1.382   0.060  0.2380 -0.1629  0.7102
 2094TIP3    H227918   1.501   1.291  -0.043  0.0111  0.4053  0.0669
 2095TIP3   OH227919   0.425   5.485   6.658 -0.5718 -0.9821 -0.5411
 2095TIP3    H127920   0.485   5.444   6.720  0.6326  2.6173  0.9286
 2095TIP3    H227921   0.380   5.552   6.710 -0.5136  1.2678 -3.1891
 2096TIP3   OH227922   0.573   3.543   7.285 -0.1214 -0.0803  0.4455
 2096TIP3    H127923   0.578   3.531   7.190  1.7408  3.8997 -0.1783
 2096TIP3    H227924   0.487   3.583   7.299 -0.1458 -0.0900  0.3279
 2097TIP3   OH227925   5.609   1.629   7.605 -0.3320  0.2111 -0.5781
 2097TIP3    H127926   5.626   1.553   7.551 -0.1087 -0.4242  0.3553
 2097TIP3    H227927   5.638   1.603   7.693 -0.2165  1.3786 -0.2505
 2098TIP3   OH227928   5.432   6.724   0.292 -0.5449  0.5220  0.1312
 2098TIP3    H127929   5.509   6.779   0.279  0.4688 -0.4542  1.6652
 2098TIP3    H227930   5.371   6.779   0.341  0.3367  0.4460  1.3777
 2099TIP3   OH227931   5.222   1.044   8.326  0.2760  0.7438  0.1397
 2099TIP3    H127932   5.129   1.062   8.313  0.5124  1.0219 -1.3317
 2099TIP3    H227933   5.235   1.047   8.421 -1.5476 -1.0243  0.5078
 2100TIP3   OH227934   3.208   5.848   0.193  0.4858 -0.0923 -0.2993
 2100TIP3    H127935   3.278   5.910   0.174  0.3191  0.1555 -0.1026
 2100TIP3    H227936   3.237   5.766   0.151  0.7097  0.1120 -0.5489
 2101TIP3   OH227937   2.124   6.588   0.425  0.3155  0.2169  0.3032
 2101TIP3    H127938   2.191   6.524   0.448 -1.0700 -0.6463  2.2344
 2101TIP3    H227939   2.155   6.670   0.462  1.4615  0.4370 -1.0303
 2102TIP3   OH227940   2.490   3.530   2.468  0.1822  0.5039 -0.7100
 2102TIP3    H127941   2.413   3.582   2.449 -0.4237  0.1237  0.5920
 2102TIP3    H227942   2.564   3.590   2.457 -0.6215  2.7734  3.9421
 2103TIP3   OH227943   5.865   4.044   2.048  0.1006  0.4344  0.0837
 2103TIP3    H127944   5.807   4.080   1.981 -0.6058 -0.2013  0.3433
 2103TIP3    H227945   5.845   4.096   2.126 -0.1236  0.2103  0.1751
 2104TIP3   OH227946   3.221   4.661   7.816  0.2338  0.1258  0.0660
 2104TIP3    H127947   3.173   4.698   7.742  1.9100  0.3859 -0.9393
 2104TIP3    H227948   3.223   4.567   7.799  0.1802  0.1277  0.0496
 2105TIP3   OH227949   1.728   4.097   7.753 -0.5711 -0.3257  0.3062
 2105TIP3    H127950   1.750   4.094   7.846  1.4461 -1.3243 -0.1548
 2105TIP3    H227951   1.704   4.007   7.731  0.6286 -0.4703 -0.4862
 2106TIP3   OH227952   6.335   0.340   7.672  0.0486  0.4995  0.2083
 2106TIP3    H127953   6.428   0.362   7.669  0.3989 -0.9655 -1.6399
 2106TIP3    H227954   6.334   0.244   7.678 -1.3160  0.4095 -1.0374
 2107TIP3   OH227955   2.855   5.185   2.157 -0.0754  0.8488  0.1737
 2107TIP3    H127956   2.787   5.242   2.192  0.7695  1.7793  0.3686
 2107TIP3    H227957   2.808   5.111   2.119 -1.2080  1.6886 -0.1139
 2108TIP3   OH227958   5.896   5.452   7.906  0.8525 -0.3890 -0.1159
 2108TIP3    H127959   5.804   5.474   7.897  1.4161  2.8041  0.6882
 2108TIP3    H227960   5.937   5.489   7.827  1.5141 -1.6135 -0.3752
 2109TIP3   OH227961   5.437   5.388   6.356 -0.1670 -0.4314 -0.3542
 2109TIP3    H127962   5.480   5.423   6.279 -2.2856 -0.2781 -1.5396
 2109TIP3    H227963   5.406   5.465   6.404  0.1699 -0.5519  0.0590
 2110TIP3   OH227964   4.124   6.657   0.785  0.1943  0.5014  0.0985
 2110TIP3    H127965   4.062   6.589   0.814 -2.2796  1.7738 -1.7761
 2110TIP3    H227966   4.163   6.690   0.865 -0.5838 -1.2564  1.2775
 2111TIP3   OH227967   5.890   3.310   7.395 -0.0506 -0.0854 -0.1295
 2111TIP3    H127968   5.839   3.303   7.314 -0.4375 -0.3076  0.1302
 2111TIP3    H227969   5.929   3.223   7.406 -1.0989 -0.4798  0.6377
 2112TIP3   OH227970   2.365   0.654   8.506 -0.4651 -0.1746  0.1518
 2112TIP3    H127971   2.303   0.705   8.558 -0.7375 -1.2169  0.8893
 2112TIP3    H227972   2.327   0.651   8.418 -0.3066  1.0968  0.0181
 2113TIP3   OH227973   0.331   2.829   8.465 -0.1020 -0.0910 -0.0686
 2113TIP3    H127974   0.293   2.742   8.473 -0.3787 -0.0635 -0.9610
 2113TIP3    H227975   0.269   2.877   8.410 -1.0151  1.2954  2.0039
 2114TIP3   OH227976   2.691   1.986   6.530 -0.1409  0.4295  0.3121
 2114TIP3    H127977   2.634   2.017   6.600  0.9313  0.4957  1.1731
 2114TIP3    H227978   2.777   1.977   6.571  0.6368  1.0123 -1.1348
 2115TIP3   OH227979   5.899   0.475   7.623 -0.0808  0.7319  0.2373
 2115TIP3    H127980   5.894   0.546   7.559  0.0752  1.1151  0.6420
 2115TIP3    H227981   5.875   0.396   7.574  0.4010  0.9608 -0.3737
 2116TIP3   OH227982   3.092   6.081   1.106  0.6708  0.0312 -0.0148
 2116TIP3    H127983   3.123   6.023   1.036 -1.8248 -2.5069  0.8154
 2116TIP3    H227984   3.049   6.153   1.060 -0.2337 -1.1751 -1.1219
 2117TIP3   OH227985   1.159   3.592   1.498  0.1367 -0.1587 -0.2249
 2117TIP3    H127986   1.089   3.637   1.451  1.7667  1.0119 -1.6359
 2117TIP3    H227987   1.210   3.662   1.539  1.0892 -0.8993 -0.1063
 2118TIP3   OH227988   0.742   1.386   7.552 -1.0802  0.1823  0.0655
 2118TIP3    H127989   0.739   1.398   7.647  1.2956  1.9395  0.0259
 2118TIP3    H227990   0.797   1.309   7.540 -1.6472 -0.2313  0.1174
 2119TIP3   OH227991   2.976   3.276   8.092  0.5702 -0.1558 -0.1398
 2119TIP3    H127992   2.996   3.315   8.006 -1.2714  0.8533 -0.1659
 2119TIP3    H227993   2.972   3.351   8.151  0.3995 -0.6936  0.5338
 2120TIP3   OH227994   6.372   3.148   6.482 -0.1561 -0.5648  0.8728
 2120TIP3    H127995   6.377   3.060   6.443  0.9734 -0.1890  0.0961
 2120TIP3    H227996   6.355   3.206   6.408  1.3734  0.0990  0.9969
 2121TIP3   OH227997   2.569   2.863   7.368 -0.4660 -0.6453  0.2503
 2121TIP3    H127998   2.516   2.886   7.291  1.1144 -1.0774 -1.0341
 2121TIP3    H227999   2.646   2.920   7.361 -0.4699 -0.4327  1.7523
 2122TIP3   OH228000   3.447   0.251   1.426 -0.0922 -0.3677 -0.3524
 2122TIP3    H128001   3.524   0.306   1.414 -1.2134  0.9625 -1.7929
 2122TIP3    H228002   3.477   0.163   1.404  0.6228  0.3950 -2.6739
 2123TIP3   OH228003   4.420   2.790   7.692  0.1935  0.2725 -0.0872
 2123TIP3    H128004   4.457   2.703   7.710 -1.0195 -0.6122 -1.6670
 2123TIP3    H228005   4.438   2.840   7.772  0.1967 -1.6757  1.2111
 2124TIP3   OH228006   2.241   1.238   6.309 -0.7038 -0.0467  0.2619
 2124TIP3    H128007   2.271   1.267   6.223 -1.5555  0.9605  0.2717
 2124TIP3    H228008   2.249   1.316   6.364 -0.6476 -0.5397  0.9648
 2125TIP3   OH228009   1.488   5.180   1.941  0.4053  0.1881 -0.6905
 2125TIP3    H128010   1.574   5.143   1.964 -1.4965 -2.3719  3.3857
 2125TIP3    H228011   1.457   5.221   2.022 -1.6017  2.5934 -2.5276
 2126TIP3   OH228012   5.870   5.610   8.132  0.6149  0.6571 -0.0912
 2126TIP3    H128013   5.905   5.565   8.055  0.1273 -0.3553  0.2725
 2126TIP3    H228014   5.828   5.689   8.096  1.1829  0.6585 -0.7646
 2127TIP3   OH228015   6.438   0.438   1.740  0.7259 -0.0017  0.2999
 2127TIP3    H128016   6.436   0.457   1.646 -1.1430 -0.8444  0.1111
 2127TIP3    H228017   6.519   0.388   1.754  2.1816  2.0494 -0.4067
 2128TIP3   OH228018   2.115   1.217   0.216  0.4604  0.1321  0.0521
 2128TIP3    H128019   2.149   1.151   0.156 -0.6369 -0.2512 -0.1644
 2128TIP3    H228020   2.185   1.230   0.280  1.0160 -0.6127 -0.4021
 2129TIP3   OH228021   6.719   4.367   1.244  0.2661 -0.1586 -0.3678
 2129TIP3    H128022   6.813   4.363   1.256  0.1533 -2.2031  0.2956
 2129TIP3    H228023   6.687   4.282   1.276 -1.7747  0.4082 -0.7312
 2130TIP3   OH228024   5.130   4.593   0.061 -0.3313 -0.1098 -0.2331
 2130TIP3    H128025   5.111   4.550   0.145  1.4860 -0.1274  0.2088
 2130TIP3    H228026   5.199   4.656   0.081  1.3795 -1.3140 -1.9981
 2131TIP3   OH228027   4.378   5.520   1.736 -0.1185  0.2278 -0.5904
 2131TIP3    H128028   4.333   5.436   1.727  0.2129 -0.1015  0.6461
 2131TIP3    H228029   4.310   5.585   1.721 -0.8689 -0.2666  0.5313
 2132TIP3   OH228030   4.378   4.759   6.256  0.0220 -0.4580  0.2415
 2132TIP3    H128031   4.404   4.684   6.310  0.4032 -0.1390  0.5052
 2132TIP3    H228032   4.460   4.803   6.236 -0.2688  0.3211  0.7201
 2133TIP3   OH228033   0.090   3.068   7.828 -0.2272 -0.5770  0.5708
 2133TIP3    H128034   0.124   3.137   7.884  1.2617  1.1221 -2.1911
 2133TIP3    H228035   0.161   3.003   7.825  0.2250 -0.0495 -0.3150
 2134TIP3   OH228036   2.539   5.215   8.203  0.2295 -0.0700  0.0412
 2134TIP3    H128037   2.587   5.255   8.130  1.6874  1.0320  1.5458
 2134TIP3    H228038   2.448   5.215   8.174  0.9264 -1.1711 -2.4371
 2135TIP3   OH228039   4.660   6.126   6.897 -0.2027 -0.2478 -0.3367
 2135TIP3    H128040   4.669   6.054   6.835  0.4721 -1.6526  1.2999
 2135TIP3    H228041   4.749   6.142   6.928 -0.6587 -0.3572  1.0934
 2136TIP3   OH228042   5.182   5.428   6.812  0.4796  0.0108  0.4957
 2136TIP3    H128043   5.121   5.372   6.764  1.4136 -1.7434  1.2689
 2136TIP3    H228044   5.216   5.489   6.746 -0.2906 -0.5682 -0.4528
 2137TIP3   OH228045   1.940   5.451   0.547 -0.3508  0.3660 -0.2122
 2137TIP3    H128046   1.870   5.468   0.483 -1.6480  2.3725  1.5670
 2137TIP3    H228047   1.930   5.521   0.611  1.2053 -1.2488  1.9305
 2138TIP3   OH228048   6.230   3.719   8.545 -0.0433 -0.2193 -0.3298
 2138TIP3    H128049   6.177   3.664   8.487 -0.5709  0.3346 -0.3736
 2138TIP3    H228050   6.235   3.669   8.627 -0.2020 -0.5034 -0.4919
 2139TIP3   OH228051   3.121   0.810   7.423  0.6391  0.1655 -0.5393
 2139TIP3    H128052   3.089   0.845   7.340 -0.4953  1.1118  0.2595
 2139TIP3    H228053   3.191   0.750   7.399 -1.8075 -2.1520 -2.4272
 2140TIP3   OH228054   2.158   0.585   0.395 -0.0609  0.0458  0.4393
 2140TIP3    H128055   2.172   0.680   0.403  1.9918 -0.1808  0.1207
 2140TIP3    H228056   2.245   0.550   0.374 -1.0508 -1.7420 -0.9865
 2141TIP3   OH228057   5.117   3.273   7.916  0.3333  0.1945 -0.1666
 2141TIP3    H128058   5.196   3.225   7.940  1.0107  0.4792 -1.7222
 2141TIP3    H228059   5.127   3.291   7.823 -0.1280  2.9108  0.2222
 2142TIP3   OH228060   4.317   4.751   1.493  0.4485  0.1662 -0.1877
 2142TIP3    H128061   4.386   4.732   1.557  0.4421  1.0960  0.1188
 2142TIP3    H228062   4.241   4.775   1.546  0.3019  0.4897 -0.5361
 2143TIP3   OH228063   4.386   2.303   1.234 -0.0368  0.1473  0.7514
 2143TIP3    H128064   4.372   2.283   1.142  0.4048  2.4320  0.1205
 2143TIP3    H228065   4.479   2.285   1.248  0.0619  0.4920  0.5464
 2144TIP3   OH228066   2.295   1.751   1.684 -0.2063  0.7021 -0.3895
 2144TIP3    H128067   2.311   1.710   1.599 -1.6482  0.7859 -0.7356
 2144TIP3    H228068   2.355   1.825   1.687  0.9686 -0.2161 -0.6429
 2145TIP3   OH228069   0.098   2.699   7.711 -0.2227 -0.0270 -0.0189
 2145TIP3    H128070   0.014   2.675   7.672 -1.0097  1.1877  0.8386
 2145TIP3    H228071   0.123   2.781   7.668 -0.3491  0.5201  0.9159
 2146TIP3   OH228072   2.343   1.263   2.135 -0.1906 -0.5194  0.3682
 2146TIP3    H128073   2.369   1.173   2.118 -0.2202 -0.2381 -1.3414
 2146TIP3    H228074   2.382   1.284   2.220 -2.3584 -2.9465  2.1011
 2147TIP3   OH228075   3.212   2.429   7.936 -0.4821 -0.1945  0.4543
 2147TIP3    H128076   3.155   2.409   8.010 -0.6459  0.6742  0.5708
 2147TIP3    H228077   3.204   2.523   7.924  3.0243  0.4874  2.2184
 2148TIP3   OH228078   5.264   1.840   0.775  0.2504  0.1022  0.4699
 2148TIP3    H128079   5.254   1.829   0.869 -0.1687  2.9988  0.8526
 2148TIP3    H228080   5.347   1.796   0.755  0.6078 -0.1289  2.2738
 2149TIP3   OH228081   4.559   2.534   8.149 -0.8943 -0.0959  0.2640
 2149TIP3    H128082   4.540   2.616   8.105 -0.5421  0.9194  1.9245
 2149TIP3    H228083   4.654   2.536   8.163 -0.7364 -1.2348 -0.5147
 2150TIP3   OH228084   6.335   6.078   2.345  0.2174 -0.3728 -0.6217
 2150TIP3    H128085   6.301   6.166   2.332  0.1994  0.3260  3.1372
 2150TIP3    H228086   6.426   6.083   2.316  1.3770  2.0960  2.7880
 2151TIP3   OH228087   6.366   3.220   7.937  0.1930 -0.3396 -0.1930
 2151TIP3    H128088   6.449   3.207   7.892 -0.8888 -2.6359 -1.6814
 2151TIP3    H228089   6.304   3.244   7.868 -0.5709  0.6059  0.7826
 2152TIP3   OH228090   6.276   3.821   0.929  0.3983 -0.5832  0.4022
 2152TIP3    H128091   6.290   3.845   0.837  0.8573 -0.8193  0.4080
 2152TIP3    H228092   6.247   3.902   0.971 -0.9529 -0.7401 -0.1875
 2153TIP3   OH228093   0.032   2.817   6.496 -0.2010 -0.1322 -0.0666
 2153TIP3    H128094  -0.046   2.870   6.479 -0.4104 -0.2567  0.4900
 2153TIP3    H228095   0.104   2.881   6.501 -0.3278  0.0207 -0.1903
 2154TIP3   OH228096   5.590   6.054   0.079  0.0438  0.5971 -0.6580
 2154TIP3    H128097   5.670   6.022   0.120 -1.2936 -0.9384  0.9050
 2154TIP3    H228098   5.607   6.147   0.064  2.2023  0.2547 -0.6469
 2155TIP3   OH228099   3.841   0.440   0.759 -0.3080  0.2351 -0.5076
 2155TIP3    H128100   3.823   0.404   0.846 -0.6325  1.7211  0.0792
 2155TIP3    H228101   3.759   0.428   0.710 -0.9813  1.5958  0.2191
 2156TIP3   OH228102   4.568   1.422   8.788  0.1935 -0.7783  0.7555
 2156TIP3    H128103   4.582   1.506   8.833 -0.9190  0.4473 -1.0259
 2156TIP3    H228104   4.475   1.423   8.766  0.8385 -0.7991 -2.4095
 2157TIP3   OH228105   6.673   0.535   0.030 -0.7238 -0.0490  0.0735
 2157TIP3    H128106   6.658   0.598   0.101  2.0259  1.1884 -0.2928
 2157TIP3    H228107   6.637   0.453   0.063 -1.2411  0.9083  2.0960
 2158TIP3   OH228108   2.150   3.177   8.045  0.1367  0.1243 -0.1835
 2158TIP3    H128109   2.111   3.092   8.025 -1.5512  0.6870  0.5274
 2158TIP3    H228110   2.145   3.226   7.962  1.5731 -0.6015 -0.7304
 2159TIP3   OH228111   3.158   5.090   8.574 -0.2565 -0.7580 -0.2657
 2159TIP3    H128112   3.063   5.077   8.575 -0.1148 -2.3134 -2.2537
 2159TIP3    H228113   3.178   5.116   8.484  1.3341 -1.6227 -0.1928
 2160TIP3   OH228114   6.514   4.316   2.183  0.4526 -0.5735  0.5404
 2160TIP3    H128115   6.606   4.325   2.159  0.7003  0.4841  1.7256
 2160TIP3    H228116   6.516   4.291   2.276 -0.3997  1.7909  1.2813
 2161TIP3   OH228117   0.302   6.646   8.593  0.5775 -0.4369  0.2502
 2161TIP3    H128118   0.273   6.601   8.673  1.0382 -0.3812  0.4496
 2161TIP3    H228119   0.285   6.738   8.611  1.7195 -0.3035  0.7397
 2162TIP3   OH228120   1.144   3.434   1.880  0.1007  0.4502 -0.2764
 2162TIP3    H128121   1.107   3.488   1.950  0.0313  0.4966 -0.3489
 2162TIP3    H228122   1.086   3.357   1.876  0.5688  0.0608  0.2592
 2163TIP3   OH228123   6.495   5.809   6.931  0.1828 -0.3307 -0.1732
 2163TIP3    H128124   6.548   5.799   7.010  1.5722  0.4841 -0.9385
 2163TIP3    H228125   6.429   5.874   6.954 -0.0682 -0.8536  0.6100
 2164TIP3   OH228126   2.924   3.943   0.743 -0.2530  0.6755  0.8178
 2164TIP3    H128127   2.834   3.947   0.777 -1.2975  0.9586 -1.7175
 2164TIP3    H228128   2.926   3.860   0.694  0.9660  0.5527  1.0589
 2165TIP3   OH228129   2.395   2.091   1.394  0.1508 -0.3502 -0.3262
 2165TIP3    H128130   2.367   2.003   1.370  2.6207 -1.2731 -0.1878
 2165TIP3    H228131   2.315   2.144   1.393 -1.1634 -2.2329 -1.9662
 2166TIP3   OH228132   1.672   4.360   0.515 -0.0980 -0.5220 -0.6084
 2166TIP3    H128133   1.745   4.414   0.485 -0.9615  0.3796 -1.1528
 2166TIP3    H228134   1.709   4.305   0.584  1.3104 -0.7827 -1.5485
 2167TIP3   OH228135   0.392   6.172   0.206  0.0322 -0.5141 -0.6722
 2167TIP3    H128136   0.456   6.121   0.156 -0.7318 -1.9871 -0.2094
 2167TIP3    H228137   0.395   6.134   0.294  0.0950  0.8748 -0.0634
 2168TIP3   OH228138   2.178   2.428   7.355 -0.3957  0.2988 -0.1080
 2168TIP3    H128139   2.110   2.457   7.416  1.3377  1.0695  1.5375
 2168TIP3    H228140   2.207   2.344   7.390 -0.4252  0.0134 -0.7543
 2169TIP3   OH228141   0.960   0.122   6.600 -0.1607 -0.1929  0.2656
 2169TIP3    H128142   1.054   0.120   6.584 -0.1602  0.5277  0.1272
 2169TIP3    H228143   0.922   0.074   6.526  0.0665  0.0098  0.0153
 2170TIP3   OH228144   3.968   1.067   7.484  0.2841  0.0649 -0.1117
 2170TIP3    H128145   4.058   1.095   7.468  0.3029 -0.4309 -0.9096
 2170TIP3    H228146   3.956   1.079   7.578  0.9805  0.7126 -0.0940
 2171TIP3   OH228147   6.189   5.843   8.508  0.2938 -0.0438  0.5996
 2171TIP3    H128148   6.215   5.754   8.486  0.4699  0.5013 -1.6409
 2171TIP3    H228149   6.094   5.845   8.491  0.5059  0.5012 -0.6810
 2172TIP3   OH228150   3.976   3.975   0.141  0.2344 -0.0081 -0.0560
 2172TIP3    H128151   3.964   4.017   0.056  0.6103 -0.1053 -0.1565
 2172TIP3    H228152   4.017   3.890   0.121 -0.7374 -0.5365  0.1220
 2173TIP3   OH228153   0.753   2.552   7.998  0.4127  0.5907  0.2043
 2173TIP3    H128154   0.817   2.537   8.068  0.8315  1.2959 -0.0171
 2173TIP3    H228155   0.770   2.481   7.935  1.3815  1.0870 -0.1235
 2174TIP3   OH228156   2.538   6.100   8.131  0.3395  0.3271  0.1921
 2174TIP3    H128157   2.564   6.070   8.218 -3.2399 -1.1592  0.9210
 2174TIP3    H228158   2.616   6.087   8.077  2.3057  0.1540  2.8623
 2175TIP3   OH228159   1.381   2.934   0.968 -0.0402 -0.4024  0.3538
 2175TIP3    H128160   1.454   2.875   0.988  0.0119 -0.4354  0.0735
 2175TIP3    H228161   1.306   2.895   1.013  0.3048  0.1592  1.4636
 2176TIP3   OH228162   3.992   3.322   8.281  0.1470  0.6682  0.1018
 2176TIP3    H128163   3.948   3.406   8.269  2.8271  2.6376  2.6074
 2176TIP3    H228164   4.081   3.337   8.248 -0.2400 -2.5342 -3.0201
 2177TIP3   OH228165   0.008   4.664   1.339  0.1031  0.0366 -0.3672
 2177TIP3    H128166  -0.003   4.588   1.397  1.9710 -1.0595 -1.3390
 2177TIP3    H228167   0.074   4.636   1.276  0.7710  2.4725 -0.8364
 2178TIP3   OH228168   4.678   1.783   2.211  0.2531 -0.1085  0.4701
 2178TIP3    H128169   4.689   1.876   2.191 -2.7475  0.2152 -0.0844
 2178TIP3    H228170   4.654   1.743   2.128 -0.1519 -1.0718  1.0390
 2179TIP3   OH228171   3.918   4.695   0.116  0.4755  0.4226  0.0471
 2179TIP3    H128172   3.841   4.638   0.121  0.2707  0.5766 -1.0600
 2179TIP3    H228173   3.913   4.749   0.194 -0.6908  0.6140 -0.1387
 2180TIP3   OH228174   2.693   2.884   0.929  0.4064 -0.2273 -0.0787
 2180TIP3    H128175   2.665   2.807   0.978  0.5602 -0.0381  0.3075
 2180TIP3    H228176   2.733   2.848   0.849 -0.1343 -0.5209 -0.2192
 2181TIP3   OH228177   4.435   5.069   7.648 -0.2909 -0.0822  0.4578
 2181TIP3    H128178   4.466   5.091   7.736  1.4935  2.4587 -0.6936
 2181TIP3    H228179   4.374   5.139   7.626 -0.6922 -0.6742 -0.3768
 2182TIP3   OH228180   3.879   6.088   0.873 -0.5437  0.3979  0.3766
 2182TIP3    H128181   3.962   6.100   0.825 -0.1366  1.6533  1.3436
 2182TIP3    H228182   3.813   6.129   0.817 -0.4727 -0.3237 -0.2494
 2183TIP3   OH228183   4.980   3.965   7.632 -0.0351  0.2006 -0.1028
 2183TIP3    H128184   4.950   3.891   7.685  1.2754 -0.6216 -0.4689
 2183TIP3    H228185   5.048   3.929   7.575  0.1009  1.5272 -0.8382
 2184TIP3   OH228186   1.803   6.357   7.838 -0.3549  0.2128  0.0592
 2184TIP3    H128187   1.808   6.332   7.930  2.3933  1.9918  0.4969
 2184TIP3    H228188   1.763   6.443   7.838  1.9093  1.3371 -0.0658
 2185TIP3   OH228189   3.529   3.103   8.011 -0.4470  0.3665 -0.1650
 2185TIP3    H128190   3.496   3.014   8.021 -2.6324  1.1846  0.4651
 2185TIP3    H228191   3.495   3.150   8.087  0.0859  1.9144 -0.8382
 2186TIP3   OH228192   3.083   3.767   7.062  0.1351  0.0615  0.3486
 2186TIP3    H128193   3.141   3.748   7.135 -0.2973  1.3391  1.0740
 2186TIP3    H228194   3.114   3.712   6.990  0.3382 -1.5026  1.5854
 2187TIP3   OH228195   4.319   2.302   8.111  0.1015  0.6762 -0.2446
 2187TIP3    H128196   4.367   2.340   8.185 -0.3954  0.1032  0.3916
 2187TIP3    H228197   4.365   2.334   8.034  1.0541  0.7391  0.3265
 2188TIP3   OH228198   5.091   3.866   1.850 -0.4323  0.2888 -0.6794
 2188TIP3    H128199   5.087   3.839   1.942 -2.3245 -0.5467 -0.9580
 2188TIP3    H228200   5.072   3.960   1.852 -1.4466  0.0870 -0.2756
 2189TIP3   OH228201   4.248   4.371   8.668  0.0372  0.0868  0.6822
 2189TIP3    H128202   4.246   4.466   8.675  0.1141  0.0741  0.8886
 2189TIP3    H228203   4.305   4.343   8.740  0.4515 -0.0798  0.2947
 2190TIP3   OH228204   3.079   2.146   0.946  0.1820  0.3758 -0.5928
 2190TIP3    H128205   3.021   2.220   0.965 -0.3794 -0.1070 -0.4029
 2190TIP3    H228206   3.040   2.073   0.993  1.0547  0.0865 -0.3189
 2191TIP3   OH228207   1.984   5.162   0.542 -0.5474  0.1730 -0.7010
 2191TIP3    H128208   1.954   5.250   0.520  0.1652  0.2219 -1.5165
 2191TIP3    H228209   1.965   5.110   0.464  1.3119  0.1799 -1.2078
 2192TIP3   OH228210   3.237   4.224   7.150  0.2075  0.1094 -0.6187
 2192TIP3    H128211   3.286   4.162   7.204 -1.7863 -1.7491 -0.7686
 2192TIP3    H228212   3.235   4.305   7.201  0.7320 -0.7356  0.8079
 2193TIP3   OH228213   3.963   6.019   8.831 -0.0360 -0.2167 -0.4802
 2193TIP3    H128214   3.971   5.924   8.835  0.3301 -0.1963 -0.6715
 2193TIP3    H228215   3.879   6.034   8.788  0.1944 -0.4581 -1.0298
 2194TIP3   OH228216   3.893   0.384   6.786  0.4116  0.2231 -0.2082
 2194TIP3    H128217   3.881   0.354   6.876  1.2285 -0.5976 -0.3534
 2194TIP3    H228218   3.853   0.471   6.784 -0.4758 -0.1414  0.6872
 2195TIP3   OH228219   6.177   2.224   0.395 -0.0907  0.2246 -0.4739
 2195TIP3    H128220   6.160   2.205   0.487 -2.1045  0.2299 -0.7990
 2195TIP3    H228221   6.251   2.285   0.396  0.2773 -0.2169  1.0956
 2196TIP3   OH228222   2.049   0.866   7.790  0.4875 -0.0024 -0.1946
 2196TIP3    H128223   2.028   0.954   7.758  1.9306  0.0529 -1.1233
 2196TIP3    H228224   2.017   0.865   7.880  0.4257  1.4740 -0.1694
 2197TIP3   OH228225   4.734   4.168   8.148  0.6938  0.4633 -0.6485
 2197TIP3    H128226   4.649   4.154   8.106  0.5841  1.1927 -0.6917
 2197TIP3    H228227   4.738   4.101   8.216 -0.3343  0.9858 -0.0304
 2198TIP3   OH228228   0.473   4.902   1.063  0.0931  0.5557 -0.3772
 2198TIP3    H128229   0.497   4.928   1.152  1.0557  0.6108 -0.6381
 2198TIP3    H228230   0.378   4.906   1.062  0.0985  1.3119  0.4248
 2199TIP3   OH228231   2.938   6.758   1.614 -0.4185  0.2520  0.5320
 2199TIP3    H128232   2.897   6.700   1.549 -0.4885 -0.0287  0.8216
 2199TIP3    H228233   2.886   6.838   1.611 -0.0264  0.4797 -0.2131
 2200TIP3   OH228234   2.351   1.638   8.538 -0.3199  0.1648  0.0100
 2200TIP3    H128235   2.345   1.719   8.590  0.9280  0.1706  0.1869
 2200TIP3    H228236   2.441   1.609   8.551 -0.5680 -0.9057 -0.5902
 2201TIP3   OH228237   2.843   4.265   1.893  0.1228  0.6093 -0.0210
 2201TIP3    H128238   2.935   4.240   1.887  0.1623  0.3459  1.3976
 2201TIP3    H228239   2.844   4.361   1.902  0.4688  0.4395  2.6783
 2202TIP3   OH228240   5.225   6.675   1.923 -0.4047  0.1773  0.2894
 2202TIP3    H128241   5.139   6.635   1.908 -0.1921  0.0317 -0.6083
 2202TIP3    H228242   5.226   6.753   1.867  0.2080 -0.0620 -0.0438
 2203TIP3   OH228243   6.520   6.365   1.291  0.5296 -0.1450 -0.0778
 2203TIP3    H128244   6.561   6.432   1.345 -0.0041  0.1979 -0.0919
 2203TIP3    H228245   6.583   6.348   1.221  0.3366  0.9233 -0.5349
 2204TIP3   OH228246   3.839   0.013   1.751  0.2977  0.1642  0.1434
 2204TIP3    H128247   3.860  -0.031   1.833 -0.4144  0.9817  0.7917
 2204TIP3    H228248   3.748  -0.011   1.734  0.7884 -0.9279 -1.0338
 2205TIP3   OH228249   3.370   1.809   8.682  0.1268  0.4504  0.1521
 2205TIP3    H128250   3.384   1.724   8.640 -1.0198 -1.0410  2.5848
 2205TIP3    H228251   3.453   1.854   8.672  0.2654 -0.2418 -2.6289
 2206TIP3   OH228252   6.070   1.701   8.830 -0.5328 -0.3094 -0.0424
 2206TIP3    H128253   6.136   1.752   8.783 -1.2240  0.3875 -0.2691
 2206TIP3    H228254   6.013   1.766   8.869 -2.3558 -0.8737 -1.6259
 2207TIP3   OH228255   2.847   0.036   7.815  0.8473 -0.3117 -0.5102
 2207TIP3    H128256   2.787   0.023   7.889  0.2637 -1.8900 -1.2022
 2207TIP3    H228257   2.798   0.092   7.755  0.7894 -0.1013 -0.2661
 2208TIP3   OH228258   2.485   5.789   1.545  0.1382  0.4568  0.1656
 2208TIP3    H128259   2.468   5.712   1.600 -4.1396 -0.8598 -2.5196
 2208TIP3    H228260   2.435   5.859   1.586  0.7185  0.7333  0.4090
 2209TIP3   OH228261   0.614   4.211   0.268 -0.4693 -0.4066  0.3441
 2209TIP3    H128262   0.675   4.162   0.323 -0.6470 -1.4423 -0.3458
 2209TIP3    H228263   0.657   4.215   0.182 -0.3830  0.8202  0.4308
 2210TIP3   OH228264   4.842   5.172   7.223  0.4548 -0.1659 -0.7392
 2210TIP3    H128265   4.884   5.188   7.139  0.5811 -1.8123 -1.0258
 2210TIP3    H228266   4.753   5.207   7.212  0.7132  0.3396 -1.2709
 2211TIP3   OH228267   2.519   2.269   7.947  0.0903 -0.0342 -0.4230
 2211TIP3    H128268   2.555   2.217   7.875 -0.1352 -2.2998  0.9915
 2211TIP3    H228269   2.425   2.275   7.927 -0.0416 -1.0155 -0.1379
 2212TIP3   OH228270   2.871   2.361   0.434 -0.6435 -0.4143 -0.6890
 2212TIP3    H128271   2.822   2.292   0.479  0.5244 -0.5250  0.4764
 2212TIP3    H228272   2.820   2.441   0.451 -0.9943 -0.6947 -0.4204
 2213TIP3   OH228273   1.307   0.638   1.648 -0.1017  0.3538  0.0428
 2213TIP3    H128274   1.221   0.627   1.606 -0.1627  1.3154 -0.0987
 2213TIP3    H228275   1.322   0.732   1.647  0.8953  0.1990  0.2089
 2214TIP3   OH228276   0.300   3.136   8.206  0.3053 -0.2713  0.3813
 2214TIP3    H128277   0.234   3.144   8.137  1.2247 -0.1254 -0.5091
 2214TIP3    H228278   0.315   3.226   8.234  0.1960 -0.2942  0.5122
 2215TIP3   OH228279   0.415   1.940   0.820  0.3776  0.0189  0.4086
 2215TIP3    H128280   0.320   1.950   0.827  0.1675 -0.3788 -1.4671
 2215TIP3    H228281   0.444   1.929   0.911 -1.0229  2.6792  1.2969
 2216TIP3   OH228282   4.769   4.979   7.473  0.0420 -0.1157 -0.2206
 2216TIP3    H128283   4.858   4.998   7.444  0.0864 -0.4506 -0.3098
 2216TIP3    H228284   4.744   4.901   7.423 -0.8609  0.8406 -1.3373
 2217TIP3   OH228285   1.272   2.343   0.887 -0.4903  0.0483  0.4149
 2217TIP3    H128286   1.179   2.342   0.863 -0.5069  0.9563  0.3880
 2217TIP3    H228287   1.277   2.284   0.963 -0.7715 -1.3305 -0.6061
 2218TIP3   OH228288   5.515   1.188   7.118 -0.2169 -0.0958  0.2540
 2218TIP3    H128289   5.451   1.229   7.176 -0.1270  2.1712 -1.1382
 2218TIP3    H228290   5.463   1.151   7.047 -0.1290 -0.2155  0.2518
 2219TIP3   OH228291   3.111   2.777   1.966 -0.5500 -0.0017  0.2292
 2219TIP3    H128292   3.017   2.790   1.978 -0.6070 -0.6585  0.5410
 2219TIP3    H228293   3.146   2.771   2.055 -0.6178 -2.4685  0.1394
 2220TIP3   OH228294   5.992   0.595   1.348 -0.2663 -0.4177 -0.1674
 2220TIP3    H128295   6.072   0.557   1.311  0.5872 -0.6244  1.7641
 2220TIP3    H228296   5.939   0.520   1.373 -0.9213 -0.2800 -1.1046
 2221TIP3   OH228297   2.014   1.486   6.590 -0.7330 -0.7374  0.4606
 2221TIP3    H128298   1.927   1.525   6.583  0.0476  1.3050  1.1584
 2221TIP3    H228299   2.038   1.496   6.682  0.8112  0.1495 -0.0025
 2222TIP3   OH228300   1.475   6.449   1.875 -0.2140 -0.4222  0.1038
 2222TIP3    H128301   1.507   6.501   1.948  0.4788 -1.4173  0.5304
 2222TIP3    H228302   1.544   6.383   1.860  0.1041  0.3214 -2.0478
 2223TIP3   OH228303   0.668   2.924   8.750  0.1172  0.1000 -0.3261
 2223TIP3    H128304   0.662   2.938   8.845  0.3770 -1.5510 -0.0279
 2223TIP3    H228305   0.582   2.949   8.717  0.0572  0.8018  0.3143
 2224TIP3   OH228306   5.760   5.694   8.754 -0.0318 -0.3124 -0.5052
 2224TIP3    H128307   5.735   5.601   8.760  2.0970 -0.8923  0.3936
 2224TIP3    H228308   5.798   5.703   8.666 -0.6181 -0.1704 -0.7495
 2225TIP3   OH228309   0.127   1.205   7.351 -0.1842 -0.0769  0.1050
 2225TIP3    H128310   0.067   1.133   7.369 -0.6862 -0.0896 -1.4533
 2225TIP3    H228311   0.179   1.174   7.277  0.0118  0.9266 -0.1882
 2226TIP3   OH228312   4.078   1.775   1.456  0.0314 -0.5895  0.5612
 2226TIP3    H128313   4.033   1.772   1.540 -0.6256 -1.3268  0.1988
 2226TIP3    H228314   4.170   1.786   1.478 -0.3024  0.9368  1.3275
 2227TIP3   OH228315   4.548   2.680   0.481  0.0570  0.1679 -0.0216
 2227TIP3    H128316   4.507   2.767   0.478  1.1979  0.7207 -0.3533
 2227TIP3    H228317   4.492   2.625   0.427 -0.6932  0.6940  0.2046
 2228TIP3   OH228318   3.879   2.476   6.950  0.3629  0.0014  0.3620
 2228TIP3    H128319   3.787   2.453   6.961  0.7648 -1.2743  1.4001
 2228TIP3    H228320   3.909   2.419   6.878  0.2657  0.7094 -0.2560
 2229TIP3   OH228321   1.392   1.092   1.960 -0.3326 -0.2222  0.0034
 2229TIP3    H128322   1.357   1.097   1.871 -1.3752  0.0455  0.4108
 2229TIP3    H228323   1.373   1.002   1.988  2.4299 -1.2209 -0.9694
 2230TIP3   OH228324   4.147   3.105   8.804  0.3691 -0.4987 -0.2938
 2230TIP3    H128325   4.211   3.103   8.733  2.2611 -0.1104  1.3063
 2230TIP3    H228326   4.125   3.014   8.819 -1.8335 -0.5060 -2.7857
 2231TIP3   OH228327   0.933   0.070   6.894  0.4268 -0.1838 -0.1663
 2231TIP3    H128328   0.960   0.117   6.816  0.9175  0.1324  0.1895
 2231TIP3    H228329   0.898  -0.013   6.861 -1.4315  0.8244 -0.8746
 2232TIP3   OH228330   1.250   0.466   8.086 -0.0629  0.3604 -0.5887
 2232TIP3    H128331   1.322   0.522   8.116  0.1897 -0.1405 -0.2279
 2232TIP3    H228332   1.280   0.431   8.002 -0.8179  1.8529 -1.5261
 2233TIP3   OH228333   2.126   4.359   1.900 -0.1726  0.4927 -0.3298
 2233TIP3    H128334   2.112   4.351   1.994 -0.2910  0.1294 -0.3787
 2233TIP3    H228335   2.081   4.283   1.862 -0.8772  1.0987 -0.7483
 2234TIP3   OH228336   3.369   4.183   8.453 -0.4482  0.2004  0.3329
 2234TIP3    H128337   3.351   4.097   8.414 -0.4951 -1.3667  3.4324
 2234TIP3    H228338   3.464   4.192   8.448 -0.5695  0.8603 -1.5581
 2235TIP3   OH228339   5.634   4.798   6.644 -0.7579  0.6927 -0.1898
 2235TIP3    H128340   5.725   4.787   6.670 -0.7306  0.4887 -0.3677
 2235TIP3    H228341   5.623   4.741   6.568 -1.6071 -1.0753  1.1672
 2236TIP3   OH228342   1.984   3.591   6.017 -0.6278  0.1217  0.3633
 2236TIP3    H128343   1.906   3.641   5.997  0.1669  1.3210  0.1542
 2236TIP3    H228344   1.999   3.606   6.110 -0.1190  0.6821  0.1967
 2237TIP3   OH228345   3.604   1.514   1.838  0.5104 -0.0124  0.0629
 2237TIP3    H128346   3.545   1.484   1.769 -0.2663 -0.5923  0.9690
 2237TIP3    H228347   3.685   1.466   1.823  0.5339  0.2616 -0.7559
 2238TIP3   OH228348   0.382   0.237   8.662  0.1516 -0.1905  0.0600
 2238TIP3    H128349   0.451   0.294   8.627 -0.1894  1.2027  1.5162
 2238TIP3    H228350   0.398   0.237   8.757 -0.4899 -1.7175  0.1958
 2239TIP3   OH228351   4.831   6.242   1.777 -0.1266  0.2059 -0.3914
 2239TIP3    H128352   4.838   6.306   1.706  1.0221 -0.1239 -0.5958
 2239TIP3    H228353   4.870   6.285   1.852  1.6355 -0.6007 -0.7947
 2240TIP3   OH228354   1.804   4.018   7.316 -0.4078 -0.5514 -0.4668
 2240TIP3    H128355   1.760   4.052   7.239 -0.4031  0.7022  0.0680
 2240TIP3    H228356   1.788   4.083   7.384  0.8376 -0.8984  0.1912
 2241TIP3   OH228357   3.477   3.447   2.032 -0.2340 -0.0166  0.5221
 2241TIP3    H128358   3.451   3.538   2.022  0.2689  0.0617 -0.2311
 2241TIP3    H228359   3.456   3.425   2.122 -2.1665  0.2577  0.1651
 2242TIP3   OH228360   5.345   4.190   0.617 -0.4840 -0.0266 -0.2358
 2242TIP3    H128361   5.261   4.224   0.587 -0.7491 -0.8996 -0.4992
 2242TIP3    H228362   5.396   4.269   0.639 -0.6791  0.5953 -1.8678
 2243TIP3   OH228363   2.175   2.041   7.518  0.2436  0.5662 -0.3509
 2243TIP3    H128364   2.160   2.012   7.428 -1.9723  1.2193 -0.2380
 2243TIP3    H228365   2.261   2.005   7.540 -0.3348 -1.9337 -1.7921
 2244TIP3   OH228366   4.674   4.388   6.878  0.5045 -0.4591 -0.1267
 2244TIP3    H128367   4.751   4.345   6.842  1.3028  0.6165  0.2477
 2244TIP3    H228368   4.635   4.322   6.936  2.1999 -0.4382  1.1329
 2245TIP3   OH228369   6.078   2.975   7.062  0.0744 -0.5572  0.3809
 2245TIP3    H128370   6.039   2.954   6.978 -0.6400 -1.5685  0.9433
 2245TIP3    H228371   6.064   2.897   7.116  1.2327 -0.2467  1.1911
 2246TIP3   OH228372   4.393   6.380   7.175  0.5225 -0.4048 -0.2747
 2246TIP3    H128373   4.310   6.348   7.211  0.3834 -2.2470 -2.0451
 2246TIP3    H228374   4.454   6.376   7.249 -0.7512  0.2172  0.8619
 2247TIP3   OH228375   0.854   0.263   8.575  0.5396  0.2780  0.4124
 2247TIP3    H128376   0.890   0.213   8.502  0.0985 -0.1800  0.5072
 2247TIP3    H228377   0.918   0.333   8.590 -0.2572  1.5684 -1.6796
 2248TIP3   OH228378   0.695   2.874   8.126 -0.2369  0.1210  0.3379
 2248TIP3    H128379   0.610   2.914   8.142 -0.1492  0.0009  1.1449
 2248TIP3    H228380   0.717   2.830   8.209  0.2824 -0.4491 -0.0942
 2249TIP3   OH228381   5.947   1.392   7.990 -0.4921 -0.6260 -0.0640
 2249TIP3    H128382   6.021   1.365   8.044 -0.3623 -0.0552  0.0546
 2249TIP3    H228383   5.894   1.313   7.980 -0.3693 -0.8077  0.6555
 2250TIP3   OH228384   0.415   5.594   8.197 -0.5704 -0.9091  0.0182
 2250TIP3    H128385   0.471   5.671   8.201 -2.3971  0.4144  2.3289
 2250TIP3    H228386   0.350   5.615   8.130 -0.2415 -1.0851 -0.3647
 2251TIP3   OH228387   3.429   4.653   7.985 -0.0933  0.2510 -0.1892
 2251TIP3    H128388   3.385   4.715   8.043 -1.1716 -0.2480 -0.4501
 2251TIP3    H228389   3.357   4.607   7.940  0.6859 -1.1935  0.0053
 2252TIP3   OH228390   4.073   1.612   0.165 -0.1619  0.8212 -0.2458
 2252TIP3    H128391   4.049   1.544   0.101  0.4789 -0.4688  0.8354
 2252TIP3    H228392   4.072   1.694   0.115 -1.3987  0.0867 -1.4860
 2253TIP3   OH228393   6.748   6.685   1.011  0.1394 -0.4652 -0.0469
 2253TIP3    H128394   6.782   6.647   1.093  0.6857  0.4287  0.1536
 2253TIP3    H228395   6.825   6.722   0.968 -0.0478 -1.4146 -1.2581
 2254TIP3   OH228396   3.356   2.396   0.357  0.3063  0.4941  0.4540
 2254TIP3    H128397   3.349   2.316   0.306  0.9168  0.5738  0.2476
 2254TIP3    H228398   3.315   2.463   0.302 -0.8682  0.2000  0.9306
 2255TIP3   OH228399   2.037   6.290   8.312 -0.0450  1.0701  0.2936
 2255TIP3    H128400   2.075   6.254   8.232 -1.3629  0.8317 -0.2526
 2255TIP3    H228401   2.041   6.385   8.300 -0.3846  1.0324 -0.1343
 2256TIP3   OH228402   0.191   0.966   1.792  0.2725 -0.0762 -0.1554
 2256TIP3    H128403   0.123   1.032   1.777  1.6806  1.1869 -1.2953
 2256TIP3    H228404   0.266   0.997   1.742  0.1212 -4.1283 -3.4183
 2257TIP3   OH228405   3.522   4.483   1.387 -0.0510  0.0652  0.1771
 2257TIP3    H128406   3.446   4.452   1.436 -0.8158 -0.4166 -1.2426
 2257TIP3    H228407   3.586   4.507   1.454 -1.0493 -0.5359  1.3893
 2258TIP3   OH228408   6.065   1.636   1.792  0.2480 -0.4960  0.4223
 2258TIP3    H128409   6.058   1.624   1.698  0.1697 -0.5358  0.4332
 2258TIP3    H228410   5.979   1.668   1.819  0.3086 -0.3663  0.4618
 2259TIP3   OH228411   3.491   5.613   8.759 -0.0837  0.2348 -0.4203
 2259TIP3    H128412   3.572   5.564   8.750 -0.1073  0.3256 -1.2375
 2259TIP3    H228413   3.469   5.641   8.669 -0.8994  0.3896 -0.1878
 2260TIP3   OH228414   1.241   4.883   8.707 -0.4821  0.1109 -0.0803
 2260TIP3    H128415   1.237   4.879   8.803 -0.2789  2.2194  0.0613
 2260TIP3    H228416   1.261   4.793   8.681 -1.8561 -0.8011  1.7617
 2261TIP3   OH228417   6.728   4.288   8.390  0.4543  0.0752 -0.6474
 2261TIP3    H128418   6.657   4.350   8.407  0.1944 -0.4583  0.3049
 2261TIP3    H228419   6.779   4.328   8.320  0.6359  1.6464  0.3454
 2262TIP3   OH228420   0.151   2.843   1.652  0.0852 -0.3458  0.0548
 2262TIP3    H128421   0.193   2.840   1.566  1.5844  1.1688  0.6704
 2262TIP3    H228422   0.208   2.898   1.704 -1.6408  0.1133  1.5676
 2263TIP3   OH228423   6.180   0.743   7.490  0.3724 -0.1933  0.1037
 2263TIP3    H128424   6.133   0.826   7.505  1.1502  0.0965  1.0368
 2263TIP3    H228425   6.215   0.720   7.576 -0.9616 -2.2262  0.1862
 2264TIP3   OH228426   6.075   2.658   8.340 -0.6581  0.0378 -0.0262
 2264TIP3    H128427   6.013   2.704   8.396 -1.8279 -1.0293 -0.3945
 2264TIP3    H228428   6.032   2.575   8.321 -0.2370  0.2825 -2.3467
 2265TIP3   OH228429   5.937   6.577   1.926 -0.1133  0.1297  0.6631
 2265TIP3    H128430   5.924   6.659   1.880  1.4576 -0.7101 -1.4890
 2265TIP3    H228431   5.856   6.528   1.911 -0.1634  0.4138 -0.0490
 2266TIP3   OH228432   0.561   4.618   6.351  0.0694 -0.0117 -0.7194
 2266TIP3    H128433   0.471   4.620   6.318  0.2899  0.7613 -1.3256
 2266TIP3    H228434   0.613   4.588   6.276  0.2470 -1.0486 -0.1844
 2267TIP3   OH228435   0.153   0.878   0.224 -0.5536 -0.2328 -0.5665
 2267TIP3    H128436   0.108   0.892   0.141 -0.0137 -0.8136 -0.9630
 2267TIP3    H228437   0.085   0.891   0.291 -1.4548 -1.5871 -1.1679
 2268TIP3   OH228438   3.230   0.502   7.741 -1.4780 -0.4421 -0.1260
 2268TIP3    H128439   3.319   0.466   7.738 -0.9988  0.7010 -0.6075
 2268TIP3    H228440   3.176   0.432   7.775 -0.9011 -2.2391 -2.6183
 2269TIP3   OH228441   3.706   3.938   7.974 -0.0026 -0.5733 -0.2122
 2269TIP3    H128442   3.794   3.964   7.946  0.8104 -2.8016  0.0865
 2269TIP3    H228443   3.656   3.934   7.892  0.5209 -0.5534 -0.5414
 2270TIP3   OH228444   3.954   0.766   0.100  0.0629  0.1308 -0.1317
 2270TIP3    H128445   3.884   0.737   0.041 -1.3157  1.5214  0.7398
 2270TIP3    H228446   4.029   0.780   0.042 -0.6064 -0.6006 -1.2188
 2271TIP3   OH228447   1.720   6.694   8.837  0.0760 -0.0181  0.3009
 2271TIP3    H128448   1.700   6.679   8.930 -0.4082 -1.5614 -0.0170
 2271TIP3    H228449   1.672   6.624   8.791  0.4186  0.6382 -1.1013
 2272TIP3   OH228450   6.712   4.057   8.537 -0.2871 -0.0069 -0.1931
 2272TIP3    H128451   6.658   4.114   8.592  2.4101  2.3153  0.2867
 2272TIP3    H228452   6.754   4.116   8.475  1.8210 -1.6160 -0.4230
 2273TIP3   OH228453   0.990   6.125   7.126  0.1565 -0.1724 -0.1645
 2273TIP3    H128454   0.909   6.074   7.118 -0.9059  1.3348  0.3682
 2273TIP3    H228455   0.960   6.217   7.125  1.8807  0.4214 -0.1091
 2274TIP3   OH228456   1.142   5.875   8.166  0.6208  0.1310  0.1086
 2274TIP3    H128457   1.174   5.949   8.115 -2.0501  0.1313 -1.7836
 2274TIP3    H228458   1.164   5.798   8.113  0.8892 -0.2007  0.6876
 2275TIP3   OH228459   0.591   3.491   7.559 -0.5840  0.5258  0.0949
 2275TIP3    H128460   0.614   3.445   7.479 -0.2415 -0.0458  0.5105
 2275TIP3    H228461   0.495   3.485   7.563 -0.5947  0.4669 -0.2208
 2276TIP3   OH228462   6.131   6.529   7.608  0.2676 -0.0498  0.1999
 2276TIP3    H128463   6.127   6.443   7.565 -0.1427  0.8296 -1.6054
 2276TIP3    H228464   6.047   6.570   7.589  0.7453  1.0554  0.3665
 2277TIP3   OH228465   6.314   1.281   7.895 -0.3690 -0.0281  0.1781
 2277TIP3    H128466   6.316   1.376   7.907  0.9915 -0.0397  0.2058
 2277TIP3    H228467   6.340   1.245   7.980  0.3049 -0.3782 -0.1637
 2278TIP3   OH228468   6.083   6.309   8.185 -0.0507 -0.3372 -1.0028
 2278TIP3    H128469   6.120   6.240   8.130 -0.3413 -1.0321 -0.3455
 2278TIP3    H228470   6.151   6.328   8.249 -0.8205 -1.7034  0.2833
 2279TIP3   OH228471   0.965   2.269   6.295  0.2036  0.0761 -0.4952
 2279TIP3    H128472   0.882   2.288   6.253 -1.2082  0.2427  2.1756
 2279TIP3    H228473   1.024   2.338   6.265 -1.4761  1.7309 -0.1210
 2280TIP3   OH228474   5.284   1.706   0.123 -0.1743  0.6395 -0.0195
 2280TIP3    H128475   5.193   1.702   0.153  0.8033  0.2526  3.1438
 2280TIP3    H228476   5.280   1.673   0.033 -3.2677  1.5931 -0.3793
 2281TIP3   OH228477   3.405   0.835   1.548  0.4675  0.4155 -0.6656
 2281TIP3    H128478   3.491   0.814   1.585  0.7184  1.3556 -0.6880
 2281TIP3    H228479   3.421   0.911   1.492 -0.3384  0.4470 -0.8648
 2282TIP3   OH228480   6.340   3.238   0.788  0.6550  0.0581  0.1338
 2282TIP3    H128481   6.430   3.269   0.775  0.5572 -0.0256 -0.7782
 2282TIP3    H228482   6.290   3.317   0.810  0.6472  0.3703 -0.9518
 2283TIP3   OH228483   6.331   3.472   7.773 -0.2175 -0.8706 -0.0571
 2283TIP3    H128484   6.348   3.438   7.685 -0.8397 -1.9533  0.2190
 2283TIP3    H228485   6.382   3.553   7.778  0.1342 -0.9985 -1.2726
 2284TIP3   OH228486   5.296   4.648   7.014 -0.5628 -0.2867  0.2835
 2284TIP3    H128487   5.312   4.657   6.920  0.4567 -0.8413  0.3916
 2284TIP3    H228488   5.309   4.737   7.049  1.1655 -0.4650  0.1769
 2285TIP3   OH228489   2.673   4.004   6.427  0.2842  0.4254  0.1844
 2285TIP3    H128490   2.711   4.080   6.384 -1.4388  1.1935 -0.0677
 2285TIP3    H228491   2.616   3.964   6.361  0.2311 -0.3605  0.6911
 2286TIP3   OH228492   2.633   1.569   8.637 -0.2896  0.3598  0.0458
 2286TIP3    H128493   2.712   1.551   8.586  0.0302 -0.2843  0.7452
 2286TIP3    H228494   2.655   1.647   8.687 -0.2724  0.4649 -0.1253
 2287TIP3   OH228495   5.243   5.468   8.277 -0.2377 -0.0997  0.6300
 2287TIP3    H128496   5.255   5.422   8.360  1.2841  2.3023  1.8771
 2287TIP3    H228497   5.331   5.475   8.240 -0.9511 -1.6851 -1.6116
 2288TIP3   OH228498   3.184   2.387   0.741 -0.1879 -0.3656  0.0443
 2288TIP3    H128499   3.165   2.343   0.658 -0.6482 -1.6323  0.7956
 2288TIP3    H228500   3.220   2.319   0.797 -3.2065 -0.4811  2.0660
 2289TIP3   OH228501   2.471   2.931   0.649  0.2344 -0.7507 -0.4062
 2289TIP3    H128502   2.521   3.009   0.672  0.1065 -0.8953  0.3879
 2289TIP3    H228503   2.431   2.903   0.732 -0.7822 -0.8962 -0.9329
 2290TIP3   OH228504   2.596   2.390   1.043 -0.3670 -0.4867 -0.1697
 2290TIP3    H128505   2.603   2.310   1.096 -0.7508  0.3510  1.1878
 2290TIP3    H228506   2.532   2.367   0.975 -2.1189 -0.7251  1.4516
 2291TIP3   OH228507   1.374   2.461   7.909 -0.5689 -0.2111 -0.0816
 2291TIP3    H128508   1.415   2.441   7.825 -0.8969 -0.7161 -0.1263
 2291TIP3    H228509   1.447   2.486   7.966 -0.1939 -1.0590 -0.1695
 2292TIP3   OH228510   0.683   2.486   7.479 -0.0529  0.1704  0.1403
 2292TIP3    H128511   0.592   2.509   7.460 -0.7413 -0.5693  2.2111
 2292TIP3    H228512   0.727   2.570   7.492 -1.0646  0.5171  1.5641
 2293TIP3   OH228513   4.255   5.708   1.616  0.7076 -0.0665  0.3158
 2293TIP3    H128514   4.174   5.715   1.667  0.7198  0.7349  0.2236
 2293TIP3    H228515   4.265   5.793   1.574  0.8991 -0.5997 -0.7389
 2294TIP3   OH228516   1.264   3.463   0.751 -0.1372 -0.4364  0.2939
 2294TIP3    H128517   1.248   3.423   0.837 -2.3268  1.5965  0.9223
 2294TIP3    H228518   1.182   3.452   0.704 -0.6127  2.5491  0.2416
 2295TIP3   OH228519   4.030   4.666   2.197 -0.2819 -0.5935  0.0088
 2295TIP3    H128520   3.937   4.666   2.173 -0.2843 -0.5284  0.0190
 2295TIP3    H228521   4.034   4.720   2.276 -0.2744 -0.8122  0.1585
 2296TIP3   OH228522   6.493   4.900   0.699 -0.2891  0.2984  0.0477
 2296TIP3    H128523   6.483   4.966   0.630 -0.2850 -1.2087 -1.4670
 2296TIP3    H228524   6.584   4.872   0.693  0.0122  0.9128  1.4285
 2297TIP3   OH228525   5.136   4.093   8.379  0.3103 -0.6168 -0.4167
 2297TIP3    H128526   5.116   4.007   8.342  2.3650 -1.7123  0.8367
 2297TIP3    H228527   5.220   4.081   8.423  0.5449  1.9958 -0.0067
 2298TIP3   OH228528   1.379   5.798   0.591  0.1757 -0.2705 -0.2753
 2298TIP3    H128529   1.408   5.829   0.677  0.7223 -1.3213 -0.0612
 2298TIP3    H228530   1.293   5.760   0.607  0.8178 -1.6689  0.1176
 2299TIP3   OH228531   0.268   1.328   1.876  0.5311 -0.3223  0.5012
 2299TIP3    H128532   0.281   1.275   1.954  0.3194 -2.1397 -0.6166
 2299TIP3    H228533   0.307   1.276   1.805 -1.1491  0.2153 -0.9177
 2300TIP3   OH228534   0.559   2.630   0.711 -0.4350  0.0875 -0.3959
 2300TIP3    H128535   0.586   2.538   0.704  1.5899  0.3725  1.9865
 2300TIP3    H228536   0.543   2.658   0.621  3.6967 -1.2802 -1.7691
 2301TIP3   OH228537   2.874   2.722   8.229  0.1446 -0.6233 -0.4225
 2301TIP3    H128538   2.948   2.760   8.276  0.0093 -2.6757  1.6257
 2301TIP3    H228539   2.811   2.794   8.222  1.6051  0.6921 -0.7093
 2302TIP3   OH228540   2.812   3.000   0.145 -0.3907  0.4538 -0.0979
 2302TIP3    H128541   2.771   2.920   0.112 -1.6432  0.7467  0.6955
 2302TIP3    H228542   2.905   2.980   0.148 -0.6878 -0.9729  0.0990
 2303TIP3   OH228543   4.486   6.092   0.184  0.4534  0.4072 -0.4333
 2303TIP3    H128544   4.512   6.031   0.114 -0.3336  0.6559 -0.9480
 2303TIP3    H228545   4.495   6.041   0.264 -1.1117 -0.7147 -0.9265
 2304TIP3   OH228546   3.745   3.563   1.957 -0.3351  0.1513 -0.5201
 2304TIP3    H128547   3.752   3.637   2.017 -1.9185  0.2146 -0.3677
 2304TIP3    H228548   3.681   3.505   1.998  3.3211 -3.1452  1.1871
 2305TIP3   OH228549   1.239   6.522   6.724  0.0821  0.0991 -0.0151
 2305TIP3    H128550   1.202   6.518   6.635 -0.2968  1.2256  0.0851
 2305TIP3    H228551   1.195   6.451   6.771 -0.0498 -0.2176 -0.6052
 2306TIP3   OH228552   2.412   4.628   8.068  0.0970  0.2637 -0.2022
 2306TIP3    H128553   2.455   4.543   8.069 -1.9156 -0.8237  0.7710
 2306TIP3    H228554   2.419   4.657   7.977  2.9266  0.2620 -0.0696
 2307TIP3   OH228555   0.548   0.266   5.854 -0.5369  0.2225 -0.3609
 2307TIP3    H128556   0.591   0.212   5.921 -0.3616  0.8952  0.0860
 2307TIP3    H228557   0.597   0.248   5.774 -0.1378  0.1272 -0.0995
 2308TIP3   OH228558   6.445   1.101   1.014 -0.0823 -0.0137 -0.1987
 2308TIP3    H128559   6.512   1.040   0.985 -0.5199 -1.1853  1.1123
 2308TIP3    H228560   6.363   1.053   1.004 -0.7570  1.3384 -1.6411
 2309TIP3   OH228561   0.895   6.668   8.509  0.4550  0.3370  0.4078
 2309TIP3    H128562   0.827   6.600   8.506  0.6261  0.1991 -0.3685
 2309TIP3    H228563   0.904   6.698   8.419  1.5006  0.2785  0.4787
 2310TIP3   OH228564   5.150   0.375   0.829  0.1819  0.7713 -0.0144
 2310TIP3    H128565   5.149   0.397   0.922 -0.9115  0.2429  0.1080
 2310TIP3    H228566   5.131   0.458   0.785  1.0713  1.1008  0.2055
 2311TIP3   OH228567   1.661   5.492   2.133  0.0110 -0.1529  0.0711
 2311TIP3    H128568   1.754   5.507   2.145 -0.2122  0.0794  1.8000
 2311TIP3    H228569   1.640   5.532   2.049  1.2280  0.9447  0.2667
 2312TIP3   OH228570   5.641   5.286   8.133  0.4775 -0.7110 -0.6441
 2312TIP3    H128571   5.618   5.250   8.047  0.8026  0.8495 -1.4189
 2312TIP3    H228572   5.614   5.378   8.128  1.5260 -0.3254  0.5313
 2313TIP3   OH228573   6.581   4.500   0.429 -0.1865  0.1836 -0.1030
 2313TIP3    H128574   6.508   4.500   0.368 -0.1359  2.3498 -0.2464
 2313TIP3    H228575   6.542   4.529   0.512 -0.0949 -1.9118  0.7116
 2314TIP3   OH228576   5.355   0.987   7.476 -0.0639  0.2531 -0.9540
 2314TIP3    H128577   5.381   0.966   7.565  0.0714 -2.0137 -1.4664
 2314TIP3    H228578   5.260   0.985   7.477 -0.0548 -0.3268 -0.9632
 2315TIP3   OH228579   1.803   1.244   8.667  0.1017  0.3805 -0.5341
 2315TIP3    H128580   1.881   1.189   8.678  0.1278  0.5588  0.2327
 2315TIP3    H228581   1.819   1.292   8.586  1.0383  0.8065 -0.1115
 2316TIP3   OH228582   1.616   5.678   7.837  0.0643  0.1016 -0.5242
 2316TIP3    H128583   1.659   5.762   7.820  1.3175 -0.6646 -1.3079
 2316TIP3    H228584   1.687   5.619   7.862 -0.8262 -0.6915  0.2114
 2317TIP3   OH228585   5.520   0.124   7.139 -0.0908 -0.1485  0.0060
 2317TIP3    H128586   5.507   0.031   7.123 -0.9238  0.0263 -0.3537
 2317TIP3    H228587   5.503   0.135   7.233 -1.7498 -0.0753 -0.2779
 2318TIP3   OH228588   4.758   0.545   7.005  0.2137  0.2415  0.0445
 2318TIP3    H128589   4.688   0.594   7.048 -1.8759 -0.4102 -2.4009
 2318TIP3    H228590   4.837   0.598   7.018 -1.5119  3.1770 -0.6694
 2319TIP3   OH228591   6.105   5.985   7.396 -0.0297 -0.2447 -0.3517
 2319TIP3    H128592   6.072   5.920   7.335 -2.5119 -0.8166  1.4693
 2319TIP3    H228593   6.170   5.938   7.448  0.1267 -0.4987 -0.7725
 2320TIP3   OH228594   1.407   5.491   8.691 -0.2836 -0.2546 -0.0940
 2320TIP3    H128595   1.492   5.535   8.692 -0.0713 -0.6630  0.1569
 2320TIP3    H228596   1.344   5.562   8.689  0.0537  0.0708  0.4944
 2321TIP3   OH228597   0.714   5.999   7.038  0.4825 -0.2901 -0.1371
 2321TIP3    H128598   0.700   6.034   6.951 -1.6187  0.3310  0.3795
 2321TIP3    H228599   0.632   5.954   7.060  1.1543 -0.9167  1.3070
 2322TIP3   OH228600   5.166   1.911   7.914  0.0215  0.5034  0.6720
 2322TIP3    H128601   5.087   1.918   7.861 -0.7845 -0.7960  1.6443
 2322TIP3    H228602   5.173   1.996   7.957 -0.6532  0.7512  0.3125
 2323TIP3   OH228603   3.267   3.628   7.418  0.0632  0.0565 -0.0049
 2323TIP3    H128604   3.289   3.667   7.334  1.9193 -0.1855  0.3088
 2323TIP3    H228605   3.213   3.552   7.397  2.0922 -1.1454 -1.1827
 2324TIP3   OH228606   1.354   2.756   0.287 -0.2554  0.4720  0.2402
 2324TIP3    H128607   1.421   2.704   0.243 -2.4483 -1.9460 -0.4687
 2324TIP3    H228608   1.393   2.778   0.372  1.1958 -1.3608  0.1135
 2325TIP3   OH228609   1.717   1.075   7.496  0.1004 -0.0890  0.3957
 2325TIP3    H128610   1.787   1.018   7.464  0.7229  2.2569 -3.0296
 2325TIP3    H228611   1.663   1.093   7.418 -2.2110  1.0770  2.1173
 2326TIP3   OH228612   5.225   1.469   0.826  0.5603 -0.4410 -0.1873
 2326TIP3    H128613   5.317   1.473   0.851  0.3291  3.7737  0.7117
 2326TIP3    H228614   5.177   1.476   0.908 -0.5221 -0.2757 -0.8124
 2327TIP3   OH228615   3.381   5.309   0.682  0.1324 -0.5402 -0.1756
 2327TIP3    H128616   3.476   5.308   0.670  0.6362 -0.4195  2.9018
 2327TIP3    H228617   3.365   5.386   0.736 -1.5826 -1.1818  0.2846
 2328TIP3   OH228618   1.668   2.369   1.244  0.0639  0.2849 -0.1472
 2328TIP3    H128619   1.632   2.447   1.286 -1.5536  0.4127 -1.6424
 2328TIP3    H228620   1.748   2.350   1.293 -0.3016  1.9779  1.2110
 2329TIP3   OH228621   4.299   4.624   8.785 -0.0265  0.0126  0.2519
 2329TIP3    H128622   4.316   4.590   8.872  0.2254 -1.3218 -0.3005
 2329TIP3    H228623   4.253   4.707   8.800 -0.4352 -0.4439  1.6349
 2330TIP3   OH228624   6.090   3.157   1.285 -0.8019 -0.1824 -0.0727
 2330TIP3    H128625   5.998   3.164   1.312 -0.9293 -0.2951 -0.4602
 2330TIP3    H228626   6.138   3.141   1.366 -1.3269 -1.9642 -0.0644
 2331TIP3   OH228627   5.494   2.886   0.162 -0.2136 -0.4128  0.2527
 2331TIP3    H128628   5.477   2.978   0.145 -0.1271 -0.1019  1.7006
 2331TIP3    H228629   5.407   2.845   0.162 -0.3727 -0.0941  0.7718
 2332TIP3   OH228630   3.039   2.700   7.026 -0.2440 -0.0524  0.4968
 2332TIP3    H128631   3.023   2.697   6.932  0.7628  3.8372  0.0398
 2332TIP3    H228632   2.961   2.742   7.063  0.7737  1.5771  0.8741
 2333TIP3   OH228633   1.935   1.410   8.093 -0.6027 -0.1801  0.1514
 2333TIP3    H128634   1.985   1.464   8.154 -1.9098  1.5145 -0.2194
 2333TIP3    H228635   2.002   1.359   8.047  0.7588  1.5384  0.1199
 2334TIP3   OH228636   6.709   2.467   1.784  0.5645 -0.5482 -0.0126
 2334TIP3    H128637   6.786   2.420   1.817  2.1530  0.4631 -1.9826
 2334TIP3    H228638   6.734   2.560   1.791  0.9165 -0.2542 -3.5012
 2335TIP3   OH228639   4.847   0.944   6.846 -0.2692 -0.0918 -0.1205
 2335TIP3    H128640   4.772   1.000   6.863 -1.1835 -0.4770 -2.4174
 2335TIP3    H228641   4.921   0.990   6.885 -1.5206  0.8289  1.2706
 2336TIP3   OH228642   3.644   0.909   8.697  0.1988 -0.2457  0.2366
 2336TIP3    H128643   3.604   0.840   8.644 -0.4468  0.0363  0.3427
 2336TIP3    H228644   3.707   0.950   8.639 -1.4525  0.9516 -0.8154
 2337TIP3   OH228645   1.875   5.820   1.150  0.1691 -0.4108 -0.1046
 2337TIP3    H128646   1.796   5.780   1.185 -0.2220 -0.8288 -1.3875
 2337TIP3    H228647   1.933   5.746   1.131  0.2051 -0.2337 -0.7069
 2338TIP3   OH228648   5.066   6.596   0.818  0.2883  0.4720  0.1438
 2338TIP3    H128649   5.142   6.574   0.872 -0.3167 -0.1729  0.7614
 2338TIP3    H228650   5.092   6.674   0.770  2.2095 -1.0624 -1.4802
 2339TIP3   OH228651   1.600   1.793   0.359 -1.1741  0.5116  0.3511
 2339TIP3    H128652   1.668   1.793   0.425 -0.1893 -0.4539 -0.6288
 2339TIP3    H228653   1.519   1.778   0.407 -0.7640  2.0118  1.5715
 2340TIP3   OH228654   6.053   4.335   8.431 -0.0120  0.0380  0.0325
 2340TIP3    H128655   5.977   4.284   8.458 -0.4645  0.5653 -0.2389
 2340TIP3    H228656   6.098   4.279   8.367  0.3054 -0.6301  0.8220
 2341TIP3   OH228657   1.048   3.459   8.373 -0.8532  0.2077  0.1457
 2341TIP3    H128658   1.067   3.399   8.446 -1.8433 -0.2720  0.0386
 2341TIP3    H228659   1.105   3.534   8.387  0.8304 -0.9914 -0.0190
 2342TIP3   OH228660   4.605   0.192   1.812  0.5416 -0.2847 -0.2563
 2342TIP3    H128661   4.584   0.129   1.882 -0.9804  1.1123  0.6116
 2342TIP3    H228662   4.651   0.263   1.856  1.6415 -0.4416 -1.1097
 2343TIP3   OH228663   1.156   0.474   8.370  0.1046  0.1564 -0.0770
 2343TIP3    H128664   1.184   0.423   8.294  0.5155 -0.0306  0.1989
 2343TIP3    H228665   1.159   0.565   8.340  0.4266  0.0948 -0.2387
 2344TIP3   OH228666   2.717   1.999   0.913 -0.1221 -0.1556 -0.2117
 2344TIP3    H128667   2.638   2.054   0.917 -0.1543 -0.2596  2.3861
 2344TIP3    H228668   2.768   2.036   0.841 -1.2915  1.7046 -0.1682
 2345TIP3   OH228669   0.542   6.417   0.174 -0.7168  0.0821  0.7182
 2345TIP3    H128670   0.523   6.496   0.225 -1.3033  0.6746 -0.3929
 2345TIP3    H228671   0.465   6.362   0.186 -1.8059  1.0992 -1.1405
 2346TIP3   OH228672   0.225   0.460   2.074 -0.1213  0.1399  0.0624
 2346TIP3    H128673   0.233   0.506   2.158  0.4197  0.8011 -0.3333
 2346TIP3    H228674   0.231   0.530   2.009 -0.3111 -0.3934 -0.5339
 2347TIP3   OH228675   5.293   4.415   8.342  0.0041  0.5073  0.4971
 2347TIP3    H128676   5.343   4.496   8.338 -0.5269  0.9518  2.2054
 2347TIP3    H228677   5.230   4.429   8.412 -2.5902 -0.0110 -1.5576
 2348TIP3   OH228678   4.262   2.520   0.642  0.3741  0.5487 -0.1465
 2348TIP3    H128679   4.331   2.466   0.604 -0.7695  0.1568 -1.7664
 2348TIP3    H228680   4.255   2.490   0.733  3.0429  1.3627  0.4330
 2349TIP3   OH228681   4.748   3.153   6.448  0.2752 -0.4208 -0.7145
 2349TIP3    H128682   4.752   3.243   6.479 -0.8173 -0.5937 -0.0153
 2349TIP3    H228683   4.782   3.157   6.359  0.2859  0.6681 -0.6779
 2350TIP3   OH228684   3.861   3.508   8.123  0.0388 -0.0587  0.0679
 2350TIP3    H128685   3.891   3.592   8.086  0.9723 -1.3701 -2.3775
 2350TIP3    H228686   3.766   3.511   8.113 -0.0342  1.0704  0.8752
 2351TIP3   OH228687   1.119   5.707   0.653 -0.2838  0.2033  0.1976
 2351TIP3    H128688   1.058   5.769   0.691 -0.1222 -0.8232  2.2732
 2351TIP3    H228689   1.086   5.621   0.679  1.0425 -0.4579 -0.1733
 2352TIP3   OH228690   0.243   1.361   0.773 -0.0717 -0.5834 -0.1368
 2352TIP3    H128691   0.280   1.416   0.704 -2.0699 -0.4671 -1.1811
 2352TIP3    H228692   0.306   1.368   0.845  1.0274  0.9772 -1.1782
 2353TIP3   OH228693   6.651   2.818   0.931  0.1295 -0.2973  0.5695
 2353TIP3    H128694   6.608   2.903   0.945 -0.9860 -0.7046 -0.2512
 2353TIP3    H228695   6.740   2.840   0.903 -1.1134  0.7746 -3.1527
 2354TIP3   OH228696   4.758   6.626   7.188 -0.0293 -0.1809 -0.3670
 2354TIP3    H128697   4.776   6.535   7.213  2.4068  0.2658 -0.2446
 2354TIP3    H228698   4.735   6.621   7.096  0.5116 -0.8969 -0.4799
 2355TIP3   OH228699   4.936   4.129   8.545 -0.0241  0.0120 -0.9433
 2355TIP3    H128700   4.960   4.059   8.607  0.5078 -1.9029 -3.1696
 2355TIP3    H228701   4.992   4.114   8.469 -1.8329  1.1926 -2.6016
 2356TIP3   OH228702   4.074   4.486   6.428 -0.4321 -0.1021  0.1854
 2356TIP3    H128703   4.070   4.465   6.521 -0.0262  0.3634  0.3137
 2356TIP3    H228704   4.118   4.411   6.388 -0.7978 -0.3991  0.3303
 2357TIP3   OH228705   4.842   2.646   0.514  0.3087  0.2901  0.1026
 2357TIP3    H128706   4.751   2.655   0.488  0.3764 -2.2200 -1.3049
 2357TIP3    H228707   4.876   2.736   0.514 -1.2894  0.9964 -2.6916
 2358TIP3   OH228708   3.480   3.816   1.314  0.1919 -0.3249 -0.2448
 2358TIP3    H128709   3.480   3.900   1.361 -1.1327  0.0908 -0.9440
 2358TIP3    H228710   3.565   3.813   1.271  0.6612  0.1768  0.6212
 2359TIP3   OH228711   0.743   3.116   7.435  0.5439  0.1213  0.0589
 2359TIP3    H128712   0.776   3.155   7.354  0.0650  1.6657  0.5638
 2359TIP3    H228713   0.821   3.101   7.489  0.7153  0.7813  0.0024
 2360TIP3   OH228714   3.017   6.296   0.115  0.6000 -0.1193  0.4306
 2360TIP3    H128715   2.958   6.236   0.161  0.6873  1.0805  2.2396
 2360TIP3    H228716   2.964   6.334   0.045  0.0562 -1.0519  0.3274
 2361TIP3   OH228717   1.216   4.732   2.043  0.1025 -0.1180 -0.4389
 2361TIP3    H128718   1.121   4.729   2.055  0.4071  0.3545  3.6698
 2361TIP3    H228719   1.242   4.816   2.080  2.2092 -0.7862 -0.2830
 2362TIP3   OH228720   5.292   5.104   6.024 -0.1804  0.0979  1.2551
 2362TIP3    H128721   5.236   5.030   6.048 -0.0766 -0.6911 -0.7672
 2362TIP3    H228722   5.381   5.074   6.046 -0.2678  0.2369  1.8250
 2363TIP3   OH228723   0.332   5.247   7.504 -0.1447  0.2457  0.0706
 2363TIP3    H128724   0.307   5.232   7.595  1.2635  1.2120  0.6552
 2363TIP3    H228725   0.279   5.321   7.475 -1.3932 -0.7521 -0.2816
 2364TIP3   OH228726   3.748   6.383   7.619 -0.0367  0.3863 -0.4378
 2364TIP3    H128727   3.657   6.365   7.641 -0.1242 -0.5206 -1.4494
 2364TIP3    H228728   3.765   6.330   7.541  1.1752  1.0146 -0.6327
 2365TIP3   OH228729   2.751   5.034   1.068  0.2007  0.0842 -0.4649
 2365TIP3    H128730   2.760   5.095   1.140 -0.4184  1.0532 -1.1774
 2365TIP3    H228731   2.780   5.083   0.991  1.1100 -1.0091 -0.8575
 2366TIP3   OH228732   4.129   2.621   8.832  0.4729  0.6617 -0.4426
 2366TIP3    H128733   4.049   2.660   8.867 -0.4633  1.3719 -3.1314
 2366TIP3    H228734   4.126   2.641   8.739  3.5619  0.2628 -0.7181
 2367TIP3   OH228735   2.550   0.021   1.434 -0.0542  0.3980  0.2023
 2367TIP3    H128736   2.505  -0.050   1.480 -1.4134  0.9909 -0.1649
 2367TIP3    H228737   2.512   0.101   1.470 -0.6430  0.8880 -1.4319
 2368TIP3   OH228738   6.691   3.154   1.189  0.1159  0.3550 -0.0077
 2368TIP3    H128739   6.663   3.134   1.278 -0.9253 -2.4818 -0.8569
 2368TIP3    H228740   6.662   3.245   1.175 -1.5064  0.2035  1.8883
 2369TIP3   OH228741   4.918   2.781   7.067  0.2459  0.0199  0.6175
 2369TIP3    H128742   5.008   2.763   7.040 -0.1574 -0.6010 -0.3917
 2369TIP3    H228743   4.877   2.694   7.074 -1.0779  0.3478 -1.9380
 2370TIP3   OH228744   6.654   6.178   7.808 -0.4465  0.3041 -0.4304
 2370TIP3    H128745   6.738   6.223   7.805  0.6498 -1.4500  1.2341
 2370TIP3    H228746   6.599   6.233   7.864  0.3731  0.3460  0.3555
 2371TIP3   OH228747   3.612   6.165   8.023 -0.1042  0.4713 -0.6030
 2371TIP3    H128748   3.652   6.224   7.960 -1.5367  0.2041 -1.8138
 2371TIP3    H228749   3.531   6.209   8.049 -0.4204 -0.2483 -0.3404
 2372TIP3   OH228750   0.783   4.427   2.317 -0.1422 -0.3369 -0.4362
 2372TIP3    H128751   0.727   4.487   2.366 -0.5127 -0.6197 -0.5072
 2372TIP3    H228752   0.802   4.473   2.235  1.9671  0.9137  0.6696
 2373TIP3   OH228753   0.658   5.411   0.736 -0.0199 -0.4674 -0.8963
 2373TIP3    H128754   0.705   5.452   0.809 -1.2322  0.1143 -0.4057
 2373TIP3    H228755   0.582   5.369   0.778  0.1455 -1.5439 -1.6407
 2374TIP3   OH228756   3.695   2.404   1.298 -0.4670 -0.2438  0.0156
 2374TIP3    H128757   3.706   2.482   1.244  0.2503 -0.1719  0.2601
 2374TIP3    H228758   3.604   2.407   1.326  0.0519  1.6132  1.6891
 2375TIP3   OH228759   6.753   1.657   1.660  0.3219  0.3991  0.8101
 2375TIP3    H128760   6.755   1.726   1.726 -2.6191  0.3907  1.0404
 2375TIP3    H228761   6.792   1.581   1.703 -0.0083  0.8643  1.9620
 2376TIP3   OH228762   6.760   6.175   7.039  0.1043  0.2186 -0.6687
 2376TIP3    H128763   6.686   6.231   7.017  0.8676  1.3466 -0.4840
 2376TIP3    H228764   6.765   6.178   7.135 -0.6628 -1.2865 -0.5504
 2377TIP3   OH228765   6.738   4.142   0.857  0.2962  0.0532 -0.4686
 2377TIP3    H128766   6.659   4.197   0.861  0.6213  0.4738  0.3979
 2377TIP3    H228767   6.748   4.108   0.946 -0.0368 -1.6295 -1.0550
 2378TIP3   OH228768   4.395   2.788   8.273 -0.3740  0.3778  0.2167
 2378TIP3    H128769   4.329   2.726   8.304 -1.7968  1.8393  0.2439
 2378TIP3    H228770   4.463   2.785   8.339 -0.4232 -1.1003  0.2440
 2379TIP3   OH228771   1.353   5.164   8.086 -0.2647 -0.8277 -0.0208
 2379TIP3    H128772   1.284   5.113   8.129 -0.1521 -2.2080 -1.3898
 2379TIP3    H228773   1.430   5.153   8.143 -0.4624 -1.5132  0.1223
 2380TIP3   OH228774   2.211   2.031   8.297  0.6601  0.3006  0.2259
 2380TIP3    H128775   2.177   1.945   8.274  2.2934 -0.0935 -0.8923
 2380TIP3    H228776   2.293   2.038   8.248  1.2654  1.9199  1.3887
 2381TIP3   OH228777   2.133   6.025   1.832 -0.4804 -0.4123 -0.8712
 2381TIP3    H128778   2.161   6.001   1.921  2.6893  0.6683 -1.4681
 2381TIP3    H228779   2.077   6.102   1.845  2.5372  1.7848  0.1327
 2382TIP3   OH228780   0.221   5.014   0.059  0.1830 -0.0159 -0.4250
 2382TIP3    H128781   0.219   5.110   0.061  1.2525  0.0306 -1.0391
 2382TIP3    H228782   0.297   4.990   0.112  1.8252 -0.3755 -2.8024
 2383TIP3   OH228783   2.302   1.627   1.428 -0.1722 -0.4471  0.4246
 2383TIP3    H128784   2.287   1.535   1.408  0.4102 -0.1166 -1.8460
 2383TIP3    H228785   2.397   1.635   1.438 -0.3605 -0.3805  2.4201
 2384TIP3   OH228786   0.675   4.571   8.542  0.0472 -0.3575 -0.3489
 2384TIP3    H128787   0.610   4.501   8.545 -1.9089  1.3796 -0.0138
 2384TIP3    H228788   0.684   4.592   8.449  1.8770 -2.0817 -0.6135
 2385TIP3   OH228789   1.771   3.080   1.367 -0.3505  0.0830 -0.1244
 2385TIP3    H128790   1.752   3.144   1.435 -0.3899 -1.3551  1.2860
 2385TIP3    H228791   1.834   3.021   1.407  0.3271 -0.2877 -1.6763
 2386TIP3   OH228792   4.183   0.758   0.919  0.1563  0.0809 -0.8527
 2386TIP3    H128793   4.110   0.745   0.858 -1.4589  3.3361  0.1525
 2386TIP3    H228794   4.235   0.829   0.880  2.2445 -1.4142 -0.9788
 2387TIP3   OH228795   5.220   5.242   6.272  0.1152  0.4929  0.3169
 2387TIP3    H128796   5.229   5.226   6.178  0.2014 -0.3612  0.4634
 2387TIP3    H228797   5.308   5.269   6.301  1.1134 -2.7844  0.7901
 2388TIP3   OH228798   5.939   4.835   8.810 -0.7517 -0.0298  0.0945
 2388TIP3    H128799   5.922   4.929   8.800 -2.7056 -0.2244  1.2350
 2388TIP3    H228800   5.864   4.792   8.771 -1.3456 -1.0301  2.2108
 2389TIP3   OH228801   3.860   1.554   7.648  0.2745 -0.3998 -0.1772
 2389TIP3    H128802   3.825   1.490   7.586  1.3880 -0.9050 -0.3172
 2389TIP3    H228803   3.829   1.639   7.616  0.2156 -0.7248 -0.9974
 2390TIP3   OH228804   2.338   0.533   0.012 -0.5078 -0.4801 -0.0013
 2390TIP3    H128805   2.393   0.498  -0.058 -0.4322  0.2045 -0.2877
 2390TIP3    H228806   2.360   0.626   0.016  0.3997 -0.7236  1.7474
 2391TIP3   OH228807   5.126   3.321   8.194  0.6160 -0.1128 -0.2139
 2391TIP3    H128808   5.098   3.331   8.103 -1.2211  0.3729  0.3521
 2391TIP3    H228809   5.091   3.235   8.219  0.6429 -0.0031  0.1944
 2392TIP3   OH228810   3.320   4.874   1.996  0.0388 -0.2488  0.8821
 2392TIP3    H128811   3.329   4.961   2.033 -0.6545 -0.4016  1.4269
 2392TIP3    H228812   3.229   4.869   1.968  0.2625 -0.5432  0.1923
 2393TIP3   OH228813   6.681   4.559   6.937 -0.8685 -0.9156 -0.1603
 2393TIP3    H128814   6.697   4.556   7.031 -1.8894 -2.2442  0.0113
 2393TIP3    H228815   6.691   4.651   6.914 -2.2031 -0.2572  1.5799
 2394TIP3   OH228816   2.781   0.122   1.631  1.0626 -0.5999 -0.0584
 2394TIP3    H128817   2.732   0.144   1.709  1.3326 -1.1134  0.2600
 2394TIP3    H228818   2.770   0.197   1.573 -1.7352 -1.4831 -0.8133
 2395TIP3   OH228819   6.749   3.416   7.637 -0.4091 -0.4702  0.5057
 2395TIP3    H128820   6.729   3.500   7.596 -1.7015 -1.1657 -0.3527
 2395TIP3    H228821   6.830   3.432   7.687 -0.4324  1.1662  0.0686
 2396TIP3   OH228822   6.260   6.124   7.982 -0.3846 -0.1161 -0.2548
 2396TIP3    H128823   6.328   6.101   7.919 -1.1660 -0.4367 -1.0087
 2396TIP3    H228824   6.189   6.063   7.963 -1.0678  0.5274  0.1798
 2397TIP3   OH228825   5.105   6.831   0.696  0.1554 -0.0573 -0.1509
 2397TIP3    H128826   5.066   6.881   0.767 -0.4969 -0.8630  0.0773
 2397TIP3    H228827   5.057   6.858   0.618 -1.2293 -1.3599  0.1908
 2398TIP3   OH228828   0.869   3.857   0.938  0.0354  0.1605  0.6075
 2398TIP3    H128829   0.873   3.761   0.935 -1.1952  0.1137 -0.5682
 2398TIP3    H228830   0.940   3.882   0.997  0.5389 -1.4594  0.7431
 2399TIP3   OH228831   4.085   4.444   1.600 -0.5284  0.2564  0.2746
 2399TIP3    H128832   4.089   4.409   1.689  0.9612  1.1701  0.6057
 2399TIP3    H228833   4.175   4.469   1.580 -0.7965 -0.1073 -1.5750
 2400TIP3   OH228834   4.272   2.464   7.246  0.3360  0.1411 -0.9907
 2400TIP3    H128835   4.224   2.507   7.317  0.7697 -1.2064  0.1467
 2400TIP3    H228836   4.227   2.493   7.166 -1.2928  0.2798 -0.0690
 2401TIP3   OH228837   1.624   4.980   1.664  0.1037  0.6258  0.6971
 2401TIP3    H128838   1.586   4.927   1.594  0.5660  1.0941  0.0743
 2401TIP3    H228839   1.682   4.920   1.711  2.1856  0.9760 -1.2241
 2402TIP3   OH228840   5.740   3.729   8.422 -0.7310  0.4334 -0.2411
 2402TIP3    H128841   5.820   3.781   8.430  0.3651 -1.3603  1.2274
 2402TIP3    H228842   5.700   3.759   8.340  0.3573  2.7907  0.0197
 2403TIP3   OH228843   2.953   6.104   1.540 -0.6248 -0.4541 -0.5290
 2403TIP3    H128844   2.930   6.177   1.599  1.3529  0.3826 -0.7194
 2403TIP3    H228845   3.019   6.140   1.482 -1.0228 -1.8814 -1.9349
 2404TIP3   OH228846   6.036   6.861   7.611  0.1008  0.1290 -0.1405
 2404TIP3    H128847   6.126   6.874   7.642  0.7340  1.1978 -2.2330
 2404TIP3    H228848   6.018   6.939   7.559 -2.0572 -0.0839  0.2235
 2405TIP3   OH228849   0.458   2.205   0.276  0.0196  0.1672  0.0036
 2405TIP3    H128850   0.384   2.235   0.222  0.5862 -1.8836 -2.1176
 2405TIP3    H228851   0.458   2.263   0.352 -2.5339  1.5019 -0.8910
 2406TIP3   OH228852   1.231   2.997   1.437  0.0361  0.4011  0.0652
 2406TIP3    H128853   1.248   3.039   1.521  0.7361 -0.7992  0.5473
 2406TIP3    H228854   1.174   3.058   1.391  0.5872  1.6121  0.9453
 2407TIP3   OH228855   6.335   1.391   8.511 -0.0388  0.2149  0.8769
 2407TIP3    H128856   6.265   1.392   8.446 -1.2511 -2.3595  2.0109
 2407TIP3    H228857   6.393   1.320   8.482 -0.5542 -0.9096  2.4985
 2408TIP3   OH228858   3.813   4.044   6.597  0.2692 -1.1060 -0.4156
 2408TIP3    H128859   3.792   4.026   6.506  0.0704 -0.5106 -0.4884
 2408TIP3    H228860   3.730   4.031   6.644 -0.0336  0.1976 -0.5553
 2409TIP3   OH228861   5.784   3.954   0.516 -0.2470  0.1240 -0.0149
 2409TIP3    H128862   5.796   3.902   0.437 -0.8729 -1.3463  0.8309
 2409TIP3    H228863   5.867   4.001   0.526  1.2910 -2.4768  0.4247
 2410TIP3   OH228864   6.779   3.000   8.308 -0.0359  0.3588  0.1932
 2410TIP3    H128865   6.712   2.947   8.265 -0.9504  0.8456  0.9700
 2410TIP3    H228866   6.748   3.090   8.300  0.9036  0.6733 -0.0745
 2411TIP3   OH228867   0.094   2.938   0.911  0.4492  0.6740  0.7991
 2411TIP3    H128868   0.162   2.933   0.978  1.0945 -0.9010  0.0735
 2411TIP3    H228869   0.103   2.857   0.861 -0.1583  1.7013 -1.0627
 2412TIP3   OH228870   1.903   0.308   6.910 -0.1394  0.0838 -0.1584
 2412TIP3    H128871   1.982   0.292   6.860  0.5643 -1.7856  1.4411
 2412TIP3    H228872   1.832   0.293   6.848  0.7008  1.3025 -1.4809
 2413TIP3   OH228873   2.050   3.178   0.495 -0.1368  0.3042 -0.0739
 2413TIP3    H128874   1.959   3.178   0.464  0.0637 -1.4126 -0.7645
 2413TIP3    H228875   2.061   3.264   0.537 -1.5857  1.1757 -1.3705
 2414TIP3   OH228876   5.627   6.494   1.803  0.2430 -0.4440 -0.3546
 2414TIP3    H128877   5.546   6.531   1.769  0.1848  0.8646  1.1047
 2414TIP3    H228878   5.598   6.429   1.867  0.3310  0.1638  0.3103
 2415TIP3   OH228879   1.411   2.240   1.152 -0.2607  0.0291 -0.3393
 2415TIP3    H128880   1.389   2.168   1.211 -0.7769 -1.5098 -2.2698
 2415TIP3    H228881   1.507   2.245   1.154 -0.0036 -2.4547 -1.9743
 2416TIP3   OH228882   5.946   1.045   1.733 -0.7352 -0.8044  0.0066
 2416TIP3    H128883   5.865   1.055   1.682 -1.6096 -2.3371  1.0246
 2416TIP3    H228884   5.956   0.950   1.744  1.4323 -0.6900 -0.4039
 2417TIP3   OH228885   1.888   2.717   0.686  0.2057  0.6499  0.3328
 2417TIP3    H128886   1.853   2.803   0.663 -0.7519 -0.2638 -2.0493
 2417TIP3    H228887   1.811   2.660   0.684  1.0718 -0.5399  0.1065
 2418TIP3   OH228888   3.988   3.181   7.418  0.0931  0.2315 -0.1594
 2418TIP3    H128889   3.978   3.149   7.328  2.3515 -0.9716 -0.0391
 2418TIP3    H228890   4.080   3.207   7.424 -0.3342  1.5004  1.4561
 2419TIP3   OH228891   4.904   3.945   7.281 -0.3204 -0.4056 -0.4740
 2419TIP3    H128892   4.985   3.926   7.327 -0.6894 -0.5466  0.1271
 2419TIP3    H228893   4.929   3.947   7.188  0.1680 -1.5294 -0.3859
 2420TIP3   OH228894   2.833   2.988   1.750  0.1461 -0.2778 -0.0985
 2420TIP3    H128895   2.823   2.984   1.845  0.3512  1.2011  0.0152
 2420TIP3    H228896   2.798   2.905   1.718 -2.2271  0.1485  1.1102
 2421TIP3   OH228897   6.724   4.722   6.371 -0.1809  0.0600 -0.5975
 2421TIP3    H128898   6.806   4.731   6.420  0.1664  0.7836 -1.2978
 2421TIP3    H228899   6.725   4.794   6.308 -0.7569 -0.6750 -1.4801
 2422TIP3   OH228900   2.963   0.590   8.318  0.0845 -0.0009  0.0211
 2422TIP3    H128901   3.011   0.595   8.235  1.6578  2.0937  0.9638
 2422TIP3    H228902   3.002   0.516   8.364  1.0484  0.4535 -0.0461
 2423TIP3   OH228903   1.630   5.663   1.274 -0.0259 -0.3734 -0.4254
 2423TIP3    H128904   1.586   5.623   1.349  1.5766 -0.6532  0.3946
 2423TIP3    H228905   1.711   5.613   1.264  0.4952  0.6340 -1.4125
 2424TIP3   OH228906   5.820   2.952   7.988 -0.1008 -0.2939  0.3106
 2424TIP3    H128907   5.788   2.878   7.937  1.4036  0.0294 -1.1774
 2424TIP3    H228908   5.896   2.918   8.035 -0.2674 -0.0618  0.7533
 2425TIP3   OH228909   1.428   4.008   6.802  0.5482 -0.9668 -0.0012
 2425TIP3    H128910   1.362   4.067   6.839  0.8453 -0.7360  0.1722
 2425TIP3    H228911   1.433   3.936   6.864 -1.0634 -2.0728 -1.0763
 2426TIP3   OH228912   2.241   4.494   7.384  0.2365  0.1802 -0.0572
 2426TIP3    H128913   2.332   4.462   7.383  0.3731  0.5757 -0.2759
 2426TIP3    H228914   2.223   4.519   7.294 -0.1939 -0.1739 -0.0720
 2427TIP3   OH228915   5.241   3.279   7.636  0.1776 -0.0343 -0.1008
 2427TIP3    H128916   5.300   3.220   7.683 -0.9482 -0.6976  0.5258
 2427TIP3    H228917   5.197   3.223   7.572 -1.2659 -0.0056  0.8379
 2428TIP3   OH228918   1.853   6.104   7.294 -0.7025 -0.8242 -0.1716
 2428TIP3    H128919   1.810   6.035   7.344  0.1474 -1.8731 -0.8298
 2428TIP3    H228920   1.783   6.148   7.247 -1.4553 -0.1529  1.5059
 2429TIP3   OH228921   2.503   3.243   8.439 -0.5344  0.0410 -0.0500
 2429TIP3    H128922   2.557   3.312   8.476  1.1577 -1.2532  0.0129
 2429TIP3    H228923   2.511   3.254   8.344 -0.4380  0.0555 -0.0399
 2430TIP3   OH228924   4.682   6.859   2.255  0.2629  0.1443  1.1926
 2430TIP3    H128925   4.746   6.929   2.263 -1.4745  1.6631  3.2638
 2430TIP3    H228926   4.717   6.788   2.310  1.0754  0.1542  0.7046
 2431TIP3   OH228927   2.700   4.529   7.754  0.5287 -0.4308 -0.5833
 2431TIP3    H128928   2.730   4.494   7.838  0.5598  0.9157 -0.0062
 2431TIP3    H228929   2.780   4.560   7.711  0.5772 -1.5865 -1.3526
 2432TIP3   OH228930   6.313   2.779   8.742 -0.0070  0.2240 -0.3076
 2432TIP3    H128931   6.394   2.814   8.704 -0.0407 -0.1710 -0.7601
 2432TIP3    H228932   6.244   2.828   8.698 -0.0909 -0.9788 -1.6011
 2433TIP3   OH228933   4.575   1.057   8.642  0.0387  0.1118 -0.5573
 2433TIP3    H128934   4.494   1.108   8.651 -0.4294 -0.4148 -1.5961
 2433TIP3    H228935   4.586   1.045   8.547  1.6031  0.5711 -0.4660
 2434TIP3   OH228936   6.118   0.854   0.210  0.7947  0.3599  0.0802
 2434TIP3    H128937   6.135   0.888   0.122 -0.4584  2.4902  0.5985
 2434TIP3    H228938   6.121   0.931   0.267 -2.4381 -0.2388  1.2868
 2435TIP3   OH228939   2.467   4.866   7.001  1.0734 -0.0965  0.4403
 2435TIP3    H128940   2.486   4.958   6.984  1.3447 -0.3483 -0.7005
 2435TIP3    H228941   2.552   4.826   7.018  0.8588  0.0453  2.0256
 2436TIP3   OH228942   0.158   1.303   0.372 -0.7212  0.2280  0.1161
 2436TIP3    H128943   0.158   1.227   0.430 -0.9822  0.4577  0.4149
 2436TIP3    H228944   0.103   1.367   0.415 -0.6552  0.5222 -0.2287
 2437TIP3   OH228945   1.537   3.515   6.850 -0.3233 -0.2272 -0.0389
 2437TIP3    H128946   1.584   3.524   6.768 -0.8569  0.1044 -0.3107
 2437TIP3    H228947   1.604   3.526   6.918  0.6485 -3.1433 -0.3906
 2438TIP3   OH228948   4.595   2.079   8.256  0.5416  0.5433 -0.1139
 2438TIP3    H128949   4.554   2.152   8.302  0.5510  0.8221 -0.5336
 2438TIP3    H228950   4.662   2.120   8.201  1.2179  0.1153  0.3866
 2439TIP3   OH228951   1.680   4.227   7.515  0.2642 -0.4251  0.6583
 2439TIP3    H128952   1.658   4.206   7.605 -1.7013  3.8612  1.4191
 2439TIP3    H228953   1.763   4.274   7.520 -0.2237  0.4898  0.3670
 2440TIP3   OH228954   1.141   1.389   2.093 -0.0116 -0.4033  0.2459
 2440TIP3    H128955   1.093   1.445   2.155  0.3026  0.1214  0.0200
 2440TIP3    H228956   1.073   1.344   2.044 -0.3653  1.8563 -1.4923
 2441TIP3   OH228957   3.609   5.947   0.724 -0.2301  0.2354  0.2377
 2441TIP3    H128958   3.635   5.872   0.671  0.0212 -0.2476  1.0404
 2441TIP3    H228959   3.659   6.020   0.687  3.3661 -0.8524  2.4406
 2442TIP3   OH228960   6.533   5.101   7.082  0.3499  0.3855 -0.1861
 2442TIP3    H128961   6.583   5.141   7.012  0.4049 -0.9187 -0.9298
 2442TIP3    H228962   6.442   5.115   7.059  0.3281  2.1856  0.8302
 2443TIP3   OH228963   1.076   4.803   1.179  0.0831 -0.5082  0.8174
 2443TIP3    H128964   0.993   4.807   1.132 -0.7572  1.3551  2.3337
 2443TIP3    H228965   1.115   4.889   1.167  1.4119 -1.0731  0.8671
 2444TIP3   OH228966   0.358   1.418   0.119  0.2508 -0.2398  0.3063
 2444TIP3    H128967   0.386   1.344   0.066 -0.8039 -0.5868  0.2207
 2444TIP3    H228968   0.374   1.390   0.209  1.5882  0.1672  0.2303
 2445TIP3   OH228969   0.899   5.621   0.054 -0.0682 -0.1026  0.1488
 2445TIP3    H128970   0.941   5.668   0.125  0.7318 -1.6051  0.7264
 2445TIP3    H228971   0.971   5.583   0.003 -0.6604 -0.4423 -0.4648
 2446TIP3   OH228972   1.911   5.792   8.653  0.0284 -0.2735  0.7726
 2446TIP3    H128973   1.911   5.812   8.559  4.4088 -0.3883  0.5367
 2446TIP3    H228974   1.878   5.702   8.658 -1.6073  0.2253 -0.4434
 2447TIP3   OH228975   5.916   2.460   0.415 -0.2999 -0.1979 -0.0340
 2447TIP3    H128976   5.888   2.369   0.406 -1.9590 -0.3665  4.3318
 2447TIP3    H228977   5.834   2.509   0.423  0.6095  1.3964 -0.0942
 2448TIP3   OH228978   6.054   2.067   8.763  0.2529 -0.1413 -0.1235
 2448TIP3    H128979   6.058   2.075   8.858  0.3858 -2.2961  0.0913
 2448TIP3    H228980   5.997   1.992   8.747 -1.8728  1.6930 -1.8593
 2449TIP3   OH228981   0.527   0.283   0.731  0.6396  0.2292 -0.5498
 2449TIP3    H128982   0.454   0.345   0.725  0.3906  0.0155  0.2580
 2449TIP3    H228983   0.504   0.225   0.803  1.5787  0.1181 -0.3286
 2450TIP3   OH228984   1.510   1.108   6.989  0.0979  0.4697 -1.0669
 2450TIP3    H128985   1.446   1.179   6.989 -1.1949 -0.6646 -1.0618
 2450TIP3    H228986   1.494   1.061   6.907 -0.0567 -0.6624 -0.4087
 2451TIP3   OH228987   3.060   1.527   7.330  0.1127  0.3293 -0.2530
 2451TIP3    H128988   3.125   1.497   7.267  0.8167 -1.4874  1.2531
 2451TIP3    H228989   3.047   1.452   7.388  0.3593  2.2677  2.4707
 2452TIP3   OH228990   1.186   4.196   8.211 -0.2449 -0.1743  0.3562
 2452TIP3    H128991   1.188   4.112   8.255  2.2368  0.2578  1.2154
 2452TIP3    H228992   1.099   4.231   8.230 -1.9166 -3.0624 -1.2031
 2453TIP3   OH228993   1.358   6.393   7.043 -0.1262 -0.3161 -1.0457
 2453TIP3    H128994   1.350   6.487   7.057  3.5002  0.0178 -0.2505
 2453TIP3    H228995   1.336   6.355   7.128  1.2619  0.0902 -0.4783
 2454TIP3   OH228996   3.380   5.208   0.266 -0.3745 -0.9826  0.1253
 2454TIP3    H128997   3.371   5.114   0.282 -2.4883 -0.9211 -0.5234
 2454TIP3    H228998   3.302   5.232   0.217 -0.2551  1.2728  0.9329
 2455TIP3   OH228999   2.574   4.348   1.902  0.4839 -0.6497 -0.5105
 2455TIP3    H129000   2.578   4.404   1.979  0.2998 -1.1165 -0.1554
 2455TIP3    H229001   2.660   4.306   1.898  0.0169 -1.7503  0.3135
 2456TIP3   OH229002   4.545   0.485   1.836  0.8396 -0.7268 -0.2537
 2456TIP3    H129003   4.611   0.548   1.864  0.1003 -0.2462  0.4553
 2456TIP3    H229004   4.482   0.536   1.785 -1.3240 -0.1792  2.6954
 2457TIP3   OH229005   5.386   5.717   8.507 -0.6660 -0.1565 -0.4741
 2457TIP3    H129006   5.361   5.627   8.524  0.7079 -0.4194  0.3342
 2457TIP3    H229007   5.464   5.731   8.561 -1.1506  1.6854 -0.1738
 2458TIP3   OH229008   1.054   5.237   6.905  0.5351  0.4890 -0.3649
 2458TIP3    H129009   1.114   5.177   6.861  0.6919  0.3082  0.0873
 2458TIP3    H229010   1.061   5.214   6.998  0.6582  1.2549 -0.1769
 2459TIP3   OH229011   4.059   2.418   0.184  0.3414  0.4604  0.6557
 2459TIP3    H129012   4.049   2.512   0.197  0.2147  0.2737  2.1472
 2459TIP3    H229013   3.970   2.383   0.195  0.2177  0.2403 -0.8322
 2460TIP3   OH229014   3.421   4.506   2.585 -0.1112  0.0360 -0.5989
 2460TIP3    H129015   3.413   4.599   2.604  3.0267  0.4443 -0.8644
 2460TIP3    H229016   3.508   4.482   2.616  0.1182 -2.2619 -2.7161
 2461TIP3   OH229017   6.608   3.326   2.402 -0.5182 -0.4426  0.5586
 2461TIP3    H129018   6.568   3.239   2.403 -0.4975 -0.4538  0.4568
 2461TIP3    H229019   6.575   3.367   2.322 -0.5052 -0.3673  0.5916
 2462TIP3   OH229020   5.988   3.410   6.959 -0.0186  0.3528 -0.0174
 2462TIP3    H129021   5.922   3.442   6.898  0.8162  1.0289 -0.5850
 2462TIP3    H229022   6.020   3.329   6.919 -0.2928  0.1778  0.1145
 2463TIP3   OH229023   5.175   4.175   7.193 -0.1694  0.7096 -0.2525
 2463TIP3    H129024   5.132   4.172   7.108  1.5011  0.6751 -1.1317
 2463TIP3    H229025   5.263   4.143   7.177  0.5208  1.7097  1.2865
 2464TIP3   OH229026   3.371   6.211   1.522  0.2165  0.5129  0.3282
 2464TIP3    H129027   3.409   6.133   1.480  0.2741  1.6521 -1.8965
 2464TIP3    H229028   3.444   6.248   1.572  0.5857 -0.1065  0.2637
 2465TIP3   OH229029   1.488   0.141   1.876 -0.2831  0.0597 -0.4420
 2465TIP3    H129030   1.562   0.195   1.849 -0.6384  0.4965 -0.5565
 2465TIP3    H229031   1.416   0.170   1.821 -0.2033 -1.3695 -1.3747
 2466TIP3   OH229032   4.009   5.283   8.687 -0.5008  0.8524 -0.0913
 2466TIP3    H129033   3.914   5.289   8.674 -0.8640  0.3613  1.9861
 2466TIP3    H229034   4.030   5.191   8.671 -0.5452  0.7589  0.3762
 2467TIP3   OH229035   3.405   3.094   7.621  0.0839  0.5176 -0.2485
 2467TIP3    H129036   3.339   3.163   7.623 -2.0312 -1.4086  0.9568
 2467TIP3    H229037   3.359   3.017   7.586  1.2420 -1.2681  1.8663
 2468TIP3   OH229038   4.461   0.787   1.322  0.6983  0.1176 -0.7232
 2468TIP3    H129039   4.541   0.736   1.326  0.8531  0.3680 -0.5979
 2468TIP3    H229040   4.460   0.823   1.234  0.9839  0.5295 -0.5600
 2469TIP3   OH229041   2.750   2.990   8.223 -0.4367  0.1462  0.3438
 2469TIP3    H129042   2.840   3.014   8.245 -1.0587  0.8818  2.2569
 2469TIP3    H229043   2.739   3.021   8.133  0.0279  3.6936  1.3760
 2470TIP3   OH229044   5.746   1.875   0.196 -0.3192 -0.0005 -0.4525
 2470TIP3    H129045   5.735   1.788   0.156 -0.2171 -1.2611  2.0606
 2470TIP3    H229046   5.836   1.875   0.229 -1.1858 -0.1653  2.1269
 2471TIP3   OH229047   0.814   1.455   0.501 -0.6885  0.3243  0.5897
 2471TIP3    H129048   0.734   1.425   0.544 -1.0880 -0.8541 -0.8929
 2471TIP3    H229049   0.808   1.551   0.501 -1.8339  0.2616  0.9643
 2472TIP3   OH229050   4.025   4.820   2.814  0.1761 -0.1870  0.1860
 2472TIP3    H129051   4.001   4.789   2.727  1.9054  0.0353 -0.4190
 2472TIP3    H229052   4.105   4.773   2.835  1.6154  2.1032  0.2059
 2473TIP3   OH229053   2.866   6.844   6.584 -0.2226 -0.5554  0.7596
 2473TIP3    H129054   2.932   6.818   6.520  1.1894 -1.3993  2.4798
 2473TIP3    H229055   2.823   6.920   6.545  0.7478 -0.9012 -1.0598
 2474TIP3   OH229056   6.731   3.194   7.322 -0.0218 -0.0602  0.1465
 2474TIP3    H129057   6.703   3.284   7.342  1.0118  0.1115  0.8911
 2474TIP3    H229058   6.752   3.156   7.407  0.9828 -0.5165 -0.2923
 2475TIP3   OH229059   5.895   2.766   8.518 -0.1617  0.0780 -0.1566
 2475TIP3    H129060   5.811   2.740   8.479 -0.8826 -0.0387  1.3932
 2475TIP3    H229061   5.880   2.762   8.613  2.2387 -2.0963  0.2318
 2476TIP3   OH229062   6.143   2.924   8.574 -0.2425  0.5956  0.5694
 2476TIP3    H129063   6.154   3.019   8.574  2.3535  0.4010  2.9106
 2476TIP3    H229064   6.051   2.911   8.549 -0.6449  3.6771  0.0240
 2477TIP3   OH229065   4.351   6.845   6.796  0.3834  0.0773 -0.4226
 2477TIP3    H129066   4.336   6.890   6.712  1.6771  2.8671  0.6925
 2477TIP3    H229067   4.446   6.836   6.801  0.6652  2.6965  1.8779
 2478TIP3   OH229068   1.282   5.935   0.246 -0.0824  0.0279 -0.3205
 2478TIP3    H129069   1.334   5.860   0.216  0.8213 -0.8195  3.0220
 2478TIP3    H229070   1.343   6.009   0.243  0.0076 -0.0545 -0.5285
 2479TIP3   OH229071   1.368   4.532   7.873 -0.3532  0.1628 -0.0675
 2479TIP3    H129072   1.299   4.598   7.875  0.6257  1.2068  0.1728
 2479TIP3    H229073   1.340   4.466   7.937 -1.2695  0.3999 -0.2073
 2480TIP3   OH229074   5.133   3.140   8.775  0.1880 -0.0377  0.7865
 2480TIP3    H129075   5.127   3.178   8.687 -1.0441 -0.3104  0.7411
 2480TIP3    H229076   5.101   3.209   8.833  0.6461  0.0055  0.9934
 2481TIP3   OH229077   6.771   5.714   7.048 -0.6262  0.2254  0.6276
 2481TIP3    H129078   6.757   5.646   6.983 -1.0167 -0.2629  1.2067
 2481TIP3    H229079   6.721   5.684   7.125 -0.8751  1.2050  0.8596
 2482TIP3   OH229080   5.344   2.480   8.252  0.7489  0.3050 -0.5325
 2482TIP3    H129081   5.263   2.482   8.303  0.8799  1.7708 -0.3213
 2482TIP3    H229082   5.322   2.434   8.171  0.3990 -1.6192  0.5958
 2483TIP3   OH229083   4.521   4.080   0.171 -0.5445  0.6307  0.0767
 2483TIP3    H129084   4.565   4.013   0.224  0.9344  0.1606 -1.6489
 2483TIP3    H229085   4.465   4.030   0.112 -0.6984  1.0340 -0.1223
 2484TIP3   OH229086   1.573   3.040   7.390  0.3855  0.3534  0.2697
 2484TIP3    H129087   1.500   3.058   7.450 -0.0919 -0.7586  0.0467
 2484TIP3    H229088   1.618   2.964   7.429  0.2876 -0.1544 -0.5804
 2485TIP3   OH229089   4.684   6.815   0.110 -0.3379 -0.2368 -0.4070
 2485TIP3    H129090   4.700   6.907   0.132  1.9659 -0.7909  0.5928
 2485TIP3    H229091   4.619   6.786   0.173 -0.4970  0.5097 -0.2190
 2486TIP3   OH229092   4.369   1.928   8.195  0.4067  0.0874  0.2960
 2486TIP3    H129093   4.439   1.974   8.241  0.4179  0.6748 -0.2930
 2486TIP3    H229094   4.412   1.849   8.161  1.0306  0.8707 -0.8186
 2487TIP3   OH229095   5.340   1.326   7.990 -0.4072 -0.2187 -0.5018
 2487TIP3    H129096   5.332   1.233   8.009  0.6741 -0.2834 -0.3009
 2487TIP3    H229097   5.263   1.366   8.031 -1.4030 -1.1274 -1.4326
 2488TIP3   OH229098   4.444   4.841   1.878 -0.0507 -0.1054  0.9188
 2488TIP3    H129099   4.493   4.896   1.939 -1.2870  1.0260  0.9379
 2488TIP3    H229100   4.359   4.828   1.920 -0.2506 -0.9236  0.2915
 2489TIP3   OH229101   2.416   0.530   7.442  0.0958 -0.4211  0.6719
 2489TIP3    H129102   2.479   0.483   7.387  0.3250  0.2126  0.3784
 2489TIP3    H229103   2.363   0.462   7.482  0.4023 -0.9254  0.2282
 2490TIP3   OH229104   1.060   1.299   8.197 -0.2003  0.0778 -0.2752
 2490TIP3    H129105   1.155   1.307   8.196 -0.1545 -0.3811 -1.7285
 2490TIP3    H229106   1.043   1.222   8.252  0.4354 -1.2755 -1.8795
 2491TIP3   OH229107   5.902   6.777   0.027 -0.0586  0.0525  0.2657
 2491TIP3    H129108   5.914   6.858  -0.022 -0.5360 -0.9949 -1.7469
 2491TIP3    H229109   5.935   6.795   0.114  1.0869  1.9873 -0.5152
 2492TIP3   OH229110   5.621   4.156   0.326  0.4560 -0.2947 -0.1809
 2492TIP3    H129111   5.622   4.235   0.380  1.8618  0.1368 -0.7903
 2492TIP3    H229112   5.675   4.093   0.374 -1.1868 -1.1485  0.6249
 2493TIP3   OH229113   6.790   4.191   7.242  0.1424  0.0680  0.0290
 2493TIP3    H129114   6.774   4.097   7.246 -1.3389  0.1758 -1.8490
 2493TIP3    H229115   6.703   4.231   7.245  0.6529  1.2983 -0.5545
 2494TIP3   OH229116   1.719   3.929   8.473 -0.3366  0.1154 -0.6044
 2494TIP3    H129117   1.775   3.852   8.481 -1.2393 -0.5198 -0.1424
 2494TIP3    H229118   1.631   3.893   8.460 -0.8809  1.0580  0.3148
 2495TIP3   OH229119   4.782   5.595   7.704  0.1094 -0.0362 -0.5565
 2495TIP3    H129120   4.707   5.584   7.646  0.8224 -2.8742 -1.0939
 2495TIP3    H229121   4.752   5.563   7.789  0.5675 -0.8006 -0.6746
 2496TIP3   OH229122   0.952   0.844   6.446  0.4084 -0.1598  0.0048
 2496TIP3    H129123   0.924   0.789   6.519  0.3426 -1.4578 -0.9674
 2496TIP3    H229124   0.871   0.883   6.413  0.3123 -0.3409  0.0238
 2497TIP3   OH229125   2.610   0.389   1.512 -0.2238  0.1624  0.8083
 2497TIP3    H129126   2.538   0.397   1.450  1.1793 -2.0565 -1.2676
 2497TIP3    H229127   2.571   0.415   1.596 -3.5944 -1.2832 -0.1060
 2498TIP3   OH229128   1.736   1.973   1.565  0.4131 -0.3243 -0.2971
 2498TIP3    H129129   1.661   1.937   1.611 -0.4233  0.1247 -1.2634
 2498TIP3    H229130   1.798   1.900   1.559 -0.2405 -0.9021 -0.1065
 2499TIP3   OH229131   3.192   0.008   0.304 -0.0727  0.1471 -0.5525
 2499TIP3    H129132   3.170   0.095   0.270 -1.3266  0.0422 -0.0607
 2499TIP3    H229133   3.120  -0.013   0.364  0.5798 -0.9306 -0.1230
 2500TIP3   OH229134   1.595   0.471   8.364 -0.1772 -0.0839  0.0562
 2500TIP3    H129135   1.543   0.447   8.441 -0.2528 -1.5510 -0.4342
 2500TIP3    H229136   1.657   0.399   8.353 -2.4396 -1.7894 -3.2896
 2501TIP3   OH229137   4.631   5.519   7.278  0.1188  0.5337 -0.4325
 2501TIP3    H129138   4.697   5.585   7.297  0.4528  0.5896 -1.7100
 2501TIP3    H229139   4.639   5.456   7.350  1.8622  0.3047 -0.7883
 2502TIP3   OH229140   3.317   4.054   7.694  0.9448 -0.0659  0.2697
 2502TIP3    H129141   3.250   3.989   7.674  1.2948  0.3286 -2.6272
 2502TIP3    H229142   3.277   4.137   7.667  1.5661  0.5590  1.2216
 2503TIP3   OH229143   2.591   4.915   6.348  0.2370 -0.9132 -0.0887
 2503TIP3    H129144   2.649   4.984   6.381  1.8626 -1.5889 -1.4346
 2503TIP3    H229145   2.630   4.833   6.378 -1.0886 -1.3415  0.5721
 2504TIP3   OH229146   0.580   3.391   7.953 -0.2308 -0.2518 -0.5968
 2504TIP3    H129147   0.530   3.362   8.030  1.1080 -3.1145 -0.7012
 2504TIP3    H229148   0.665   3.418   7.989 -0.4999  0.9713 -0.8330
 2505TIP3   OH229149   4.462   3.250   7.082  0.3133 -0.0156 -0.3308
 2505TIP3    H129150   4.502   3.234   7.168 -2.3547 -2.4508  0.6311
 2505TIP3    H229151   4.533   3.234   7.020  2.2875  1.6650  1.3516
 2506TIP3   OH229152   4.581   3.501   1.953 -0.2626  0.0182 -0.4644
 2506TIP3    H129153   4.504   3.543   1.990 -0.0005  0.1722 -0.0852
 2506TIP3    H229154   4.551   3.414   1.928 -0.1003 -0.6670  1.5372
 2507TIP3   OH229155   4.950   3.307   1.786 -0.0923  0.0252  0.8770
 2507TIP3    H129156   4.912   3.372   1.727  0.6199  0.5855  1.0193
 2507TIP3    H229157   4.940   3.345   1.873 -1.3905 -0.9208  1.1678
 2508TIP3   OH229158   4.934   4.406   1.076 -0.0573  0.2598  0.4773
 2508TIP3    H129159   4.939   4.327   1.131 -0.8814  1.6009  2.6014
 2508TIP3    H229160   4.868   4.385   1.010  1.6164 -1.7346 -0.6845
 2509TIP3   OH229161   3.140   4.746   7.558  0.1216  0.5316  0.1733
 2509TIP3    H129162   3.136   4.829   7.509  1.3527  0.5415  0.0545
 2509TIP3    H229163   3.230   4.717   7.547 -0.0587 -0.3634  0.9924
 2510TIP3   OH229164   6.800   3.576   0.464 -0.1882 -0.3919 -0.4939
 2510TIP3    H129165   6.820   3.544   0.552  1.4683 -0.7735 -0.9840
 2510TIP3    H229166   6.713   3.540   0.445  0.3913 -2.2197  0.1015
 2511TIP3   OH229167   3.480   2.472   8.056 -0.0288 -0.1979  0.4684
 2511TIP3    H129168   3.486   2.535   7.984  0.6399 -0.5101  0.2466
 2511TIP3    H229169   3.392   2.435   8.047  0.0462 -0.2324 -0.1848
 2512TIP3   OH229170   6.711   6.543   1.554  0.0322  0.4210 -0.6296
 2512TIP3    H129171   6.696   6.511   1.642 -2.4061  2.3630 -0.2360
 2512TIP3    H229172   6.752   6.629   1.567  0.3920  0.3819 -1.4391
 2513TIP3   OH229173   4.194   4.160   7.448  0.0314 -0.2660 -0.1516
 2513TIP3    H129174   4.274   4.214   7.447 -0.1973  0.0774 -0.1745
 2513TIP3    H229175   4.143   4.196   7.521 -0.2962 -0.1954 -0.4153
 2514TIP3   OH229176   3.067   2.397   1.669 -0.2323  0.3489 -0.3178
 2514TIP3    H129177   3.026   2.474   1.708 -1.2083 -0.5509  0.5178
 2514TIP3    H229178   2.994   2.337   1.652  0.3671  0.0455 -2.0230
 2515TIP3   OH229179   4.468   1.135   6.700 -0.6446  0.1345 -0.6652
 2515TIP3    H129180   4.481   1.099   6.788 -0.5775 -0.8015 -1.0417
 2515TIP3    H229181   4.553   1.173   6.677 -0.4293 -0.2993 -0.6146
 2516TIP3   OH229182   2.902   0.641   7.809  0.6674 -0.1405 -0.2647
 2516TIP3    H129183   2.870   0.717   7.760  0.5456 -0.4814 -0.7220
 2516TIP3    H229184   2.862   0.566   7.766 -1.4740 -0.3444  1.8851
 2517TIP3   OH229185   6.531   2.059   7.745  0.1004  0.0052  0.3173
 2517TIP3    H129186   6.579   2.042   7.826  0.9789  0.1005 -0.1717
 2517TIP3    H229187   6.492   2.145   7.758 -1.0183 -0.6169  1.2197
 2518TIP3   OH229188   5.850   1.640   8.208 -0.1858 -0.2067  0.3336
 2518TIP3    H129189   5.941   1.613   8.193  0.0098  1.3105 -1.6255
 2518TIP3    H229190   5.855   1.735   8.221 -1.4723 -0.1540  0.6076
 2519TIP3   OH229191   0.404   3.017   8.646 -0.2267 -0.3983  0.0414
 2519TIP3    H129192   0.361   3.102   8.641  0.7351  0.0352 -1.9768
 2519TIP3    H229193   0.379   2.972   8.565 -0.9616 -2.1892  1.2102
 2520TIP3   OH229194   2.724   1.690   1.939 -0.1642 -0.1691 -0.0250
 2520TIP3    H129195   2.632   1.667   1.939  0.0744 -1.2989  2.1369
 2520TIP3    H229196   2.767   1.619   1.891 -0.3882  0.3695 -1.0515
 2521TIP3   OH229197   3.278   1.131   0.055  0.5217 -0.5450 -0.3046
 2521TIP3    H129198   3.233   1.048   0.040 -1.3638  0.2135  0.7835
 2521TIP3    H229199   3.365   1.106   0.087  0.6640 -2.0716 -1.7348
 2522TIP3   OH229200   6.363   6.837   8.379 -0.1184  0.2285  0.3106
 2522TIP3    H129201   6.382   6.930   8.392 -1.0595  0.4366  0.3042
 2522TIP3    H229202   6.323   6.832   8.293 -0.6657 -0.0878  0.5775
 2523TIP3   OH229203   6.653   1.404   0.026 -0.0240 -0.3720 -0.0167
 2523TIP3    H129204   6.709   1.410   0.104 -2.0709  0.4205  1.4849
 2523TIP3    H229205   6.620   1.493   0.014 -2.0126 -1.0812 -0.0176
 2524TIP3   OH229206   5.707   6.042   1.573 -0.2621 -0.4171  0.2193
 2524TIP3    H129207   5.801   6.057   1.566 -0.3476 -0.2409 -0.7300
 2524TIP3    H229208   5.699   5.974   1.640  0.5615 -0.6305  0.1176
 2525TIP3   OH229209   0.058   5.762   0.439 -0.6364  0.1391 -0.1978
 2525TIP3    H129210   0.144   5.767   0.398  0.3178  0.5826  1.7301
 2525TIP3    H229211   0.033   5.670   0.433  0.5965 -0.2513  0.3896
 2526TIP3   OH229212   3.791   5.602   7.843  0.4602 -0.2142 -0.1476
 2526TIP3    H129213   3.827   5.634   7.760  0.6591 -0.9854 -0.3706
 2526TIP3    H229214   3.854   5.631   7.909  1.9878 -2.2037 -0.6124
 2527TIP3   OH229215   0.696   0.435   1.015  0.1998  0.4306  0.1908
 2527TIP3    H129216   0.681   0.462   0.925  1.2312 -0.1310 -0.1682
 2527TIP3    H229217   0.682   0.340   1.015  0.0106  0.4524  0.6687
 2528TIP3   OH229218   5.538   2.953   8.058  0.2207 -0.4056 -0.1660
 2528TIP3    H129219   5.631   2.953   8.035  0.3989 -0.1635  0.5234
 2528TIP3    H229220   5.532   2.897   8.134 -0.5538 -2.2130 -1.4852
 2529TIP3   OH229221   3.051   0.076   8.119 -0.1160  0.1303 -0.2937
 2529TIP3    H129222   3.045   0.045   8.209  2.1477  0.2321 -0.0453
 2529TIP3    H229223   3.057  -0.005   8.067 -2.1195  0.0524 -0.4684
 2530TIP3   OH229224   0.830   6.667   6.890  0.0481  0.0523 -0.2680
 2530TIP3    H129225   0.838   6.582   6.847  0.7825  0.5881 -1.2304
 2530TIP3    H229226   0.736   6.684   6.892 -0.2810 -1.5244  1.4892
 2531TIP3   OH229227   3.892   4.759   7.318 -0.2872  0.0163  0.9923
 2531TIP3    H129228   3.882   4.833   7.378  0.1699  0.7273  0.2092
 2531TIP3    H229229   3.979   4.770   7.281  0.2610 -1.5598  1.7049
 2532TIP3   OH229230   1.914   0.765   1.555 -0.0050  0.0943 -0.2871
 2532TIP3    H129231   1.874   0.683   1.524 -0.3018 -0.5390  1.6586
 2532TIP3    H229232   2.000   0.739   1.588 -0.2449  0.4944  0.6812
 2533TIP3   OH229233   5.932   0.124   0.474  0.4276 -0.2492 -0.2647
 2533TIP3    H129234   5.955   0.217   0.470 -2.8554  0.6291 -2.4113
 2533TIP3    H229235   5.865   0.118   0.542  0.5995 -1.0581 -0.1515
 2534TIP3   OH229236   1.037   2.871   7.763  0.4173  0.5131 -0.1328
 2534TIP3    H129237   0.997   2.945   7.716  0.5334 -0.2547 -1.5121
 2534TIP3    H229238   0.968   2.838   7.820  0.2684  1.4868  0.2654
 2535TIP3   OH229239   2.937   1.225   7.164 -0.2459 -0.0078  0.2769
 2535TIP3    H129240   3.001   1.154   7.154  0.4335  0.8201 -1.6627
 2535TIP3    H229241   2.989   1.304   7.173 -1.0133  0.4526  0.8941
 2536TIP3   OH229242   2.842   5.109   8.207 -0.1103 -0.4873  0.1037
 2536TIP3    H129243   2.784   5.184   8.220 -1.6712 -1.7556  0.8494
 2536TIP3    H229244   2.849   5.101   8.112 -1.5397 -0.5321 -0.0301
 2537TIP3   OH229245   2.163   5.763   8.086 -0.0620 -0.4365 -0.3625
 2537TIP3    H129246   2.186   5.696   8.021  0.2813 -0.6840  0.0110
 2537TIP3    H229247   2.243   5.777   8.135 -0.1580  0.1922 -0.3832
 2538TIP3   OH229248   1.535   6.383   7.407 -0.2605 -0.0444 -0.3499
 2538TIP3    H129249   1.625   6.394   7.436 -0.3618 -2.7376  1.3804
 2538TIP3    H229250   1.513   6.293   7.431 -3.3209  0.4073 -1.0062
 2539TIP3   OH229251   2.897   1.309   0.169 -0.6052  0.4631 -0.4783
 2539TIP3    H129252   2.894   1.217   0.144  1.7182  0.5752 -1.4138
 2539TIP3    H229253   2.898   1.357   0.086 -0.5550  1.2560 -0.0287
 2540TIP3   OH229254   5.867   6.425   7.949 -1.2035  0.2977 -0.3940
 2540TIP3    H129255   5.962   6.413   7.950 -1.1662  0.5977  0.2160
 2540TIP3    H229256   5.834   6.363   8.015 -1.4838 -0.1741 -0.9642
 2541TIP3   OH229257   4.911   0.139   1.488 -0.2076  0.2527  0.0084
 2541TIP3    H129258   4.984   0.110   1.544 -1.3916  0.3343  1.6742
 2541TIP3    H229259   4.952   0.160   1.404  1.5446 -0.6026  0.5946
 2542TIP3   OH229260   2.953   0.030   0.542  0.1323  0.3896  0.0653
 2542TIP3    H129261   2.880   0.092   0.532  1.5827  1.9129 -1.7391
 2542TIP3    H229262   2.996   0.059   0.623 -1.1579 -0.4878  1.1173
 2543TIP3   OH229263   2.402   2.896   1.899  0.2332 -0.2955  0.4419
 2543TIP3    H129264   2.333   2.950   1.937  0.1635 -0.1538  0.1146
 2543TIP3    H229265   2.418   2.829   1.965 -0.1190 -0.2462  0.5823
 2544TIP3   OH229266   1.172   2.828   0.675 -0.4280  0.4872 -0.0068
 2544TIP3    H129267   1.208   2.774   0.745  1.4873  1.2585 -0.3451
 2544TIP3    H229268   1.221   2.910   0.681 -0.6891  0.8054 -1.8438
 2545TIP3   OH229269   3.976   0.070   1.237 -0.0966  0.0268  0.2670
 2545TIP3    H129270   4.046   0.134   1.222 -0.7259  0.5817 -0.3928
 2545TIP3    H229271   3.946   0.089   1.326  1.0989 -0.7390  0.8604
 2546TIP3   OH229272   5.773   4.467   7.843  0.0980 -0.4550 -0.6094
 2546TIP3    H129273   5.796   4.487   7.752 -1.9085 -1.1647 -1.3348
 2546TIP3    H229274   5.682   4.495   7.851 -0.4404 -2.3455  0.5449
 2547TIP3   OH229275   3.366   0.312   1.687 -0.3429 -0.0964  0.2068
 2547TIP3    H129276   3.278   0.319   1.723 -0.6753  0.0194 -0.6034
 2547TIP3    H229277   3.353   0.310   1.592  0.3716 -2.3239  0.0963
 2548TIP3   OH229278   1.787   6.217   8.676  0.4052  0.3149  0.2059
 2548TIP3    H129279   1.713   6.162   8.648  1.5457 -0.2646 -1.8169
 2548TIP3    H229280   1.788   6.290   8.615  1.4195  0.3855  0.2861
 2549TIP3   OH229281   4.531   6.460   7.623  0.1395 -0.1975 -0.0861
 2549TIP3    H129282   4.604   6.522   7.617 -0.0680 -0.0315 -0.9662
 2549TIP3    H229283   4.547   6.413   7.705  0.2412  1.0724  0.6383
 2550TIP3   OH229284   2.896   6.785   8.530  0.5127 -0.1346 -0.1491
 2550TIP3    H129285   2.867   6.775   8.440  0.8076  0.8395 -0.3715
 2550TIP3    H229286   2.852   6.715   8.578 -0.0497 -0.3472 -0.9546
 2551TIP3   OH229287   5.271   4.889   1.624 -0.2449  0.3027 -0.5305
 2551TIP3    H129288   5.244   4.963   1.570 -0.7524  0.7266  0.2884
 2551TIP3    H229289   5.237   4.909   1.712  0.7274 -0.2739 -0.0023
 2552TIP3   OH229290   4.377   4.047   6.632 -0.3861 -0.6084 -0.1804
 2552TIP3    H129291   4.472   4.044   6.627 -0.2593  2.3432 -1.4571
 2552TIP3    H229292   4.348   3.963   6.596  1.7051 -1.3849 -0.1588
 2553TIP3   OH229293   1.369   1.659   0.464 -0.0174  0.5414  0.1470
 2553TIP3    H129294   1.356   1.598   0.391  0.3680  1.3688 -0.6306
 2553TIP3    H229295   1.282   1.668   0.504  0.1464 -1.4724  1.0843
 2554TIP3   OH229296   1.778   4.793   8.056 -0.2019 -0.0960 -0.3136
 2554TIP3    H129297   1.806   4.799   8.147  0.2019 -1.0807 -0.3529
 2554TIP3    H229298   1.859   4.780   8.007 -0.4816 -0.3276 -0.7261
 2555TIP3   OH229299   0.355   1.949   0.337  0.1671  0.4383  0.5591
 2555TIP3    H129300   0.399   2.026   0.301  0.5313  0.4229  0.9682
 2555TIP3    H229301   0.321   1.978   0.421 -1.5659  0.7733 -0.2116
 2556TIP3   OH229302   5.784   4.640   8.085  0.4192  0.2555  0.2528
 2556TIP3    H129303   5.781   4.678   8.173  1.6660  0.3054  0.2996
 2556TIP3    H229304   5.695   4.649   8.052 -0.2542 -0.3955  1.7689
 2557TIP3   OH229305   3.318   6.493   7.091  0.4506  0.0580  0.0869
 2557TIP3    H129306   3.322   6.513   6.998  1.4856  0.9896  0.2970
 2557TIP3    H229307   3.227   6.508   7.115  0.4016  0.8886 -0.5620
 2558TIP3   OH229308   5.209   5.624   7.074  0.5610 -0.8882  0.1244
 2558TIP3    H129309   5.245   5.602   6.988  2.5317 -1.8851  1.1524
 2558TIP3    H229310   5.152   5.550   7.096  0.3055 -0.7810 -0.1605
 2559TIP3   OH229311   0.338   2.955   7.870  0.5388  0.3308 -0.2050
 2559TIP3    H129312   0.401   2.914   7.810  0.7729 -0.9093  0.8460
 2559TIP3    H229313   0.365   2.926   7.957 -2.0244 -1.0685  0.2250
 2560TIP3   OH229314   2.161   2.955   6.485  0.0297 -0.1849 -0.1211
 2560TIP3    H129315   2.108   2.883   6.520 -0.8051  0.0691 -0.8343
 2560TIP3    H229316   2.098   3.023   6.463  0.7327  0.4305 -0.2737
 2561TIP3   OH229317   6.700   5.873   6.655 -0.3509 -0.5900  0.0953
 2561TIP3    H129318   6.629   5.937   6.666  0.8199  0.4888  1.8221
 2561TIP3    H229319   6.682   5.832   6.570 -2.0136  0.9248 -0.3515
 2562TIP3   OH229320   5.049   6.238   1.231  0.4352 -0.1894  0.3184
 2562TIP3    H129321   5.137   6.233   1.270  0.4647  0.8732  0.4237
 2562TIP3    H229322   5.050   6.320   1.182 -0.3011 -0.4854 -0.1970
 2563TIP3   OH229323   4.109   5.640   1.272 -0.1420  0.2051  0.2609
 2563TIP3    H129324   4.089   5.676   1.358  0.0498  1.0370 -0.0252
 2563TIP3    H229325   4.033   5.586   1.250 -0.0115 -0.3397  1.1148
 2564TIP3   OH229326   2.486   4.861   8.197  0.1781  0.5722  0.5488
 2564TIP3    H129327   2.570   4.845   8.239 -1.0013  1.2771  3.3680
 2564TIP3    H229328   2.454   4.774   8.174  1.1178  0.2236  0.5111
 2565TIP3   OH229329   5.093   3.056   2.239 -0.1199  0.0567  0.0811
 2565TIP3    H129330   5.031   3.117   2.200 -0.2814 -0.8417 -1.1426
 2565TIP3    H229331   5.149   3.029   2.165  0.5859 -0.4901  0.8011
 2566TIP3   OH229332   4.624   0.710   8.140 -0.4413 -0.2254  0.6590
 2566TIP3    H129333   4.587   0.698   8.228 -0.1778 -2.5386  0.4994
 2566TIP3    H229334   4.714   0.677   8.148 -1.1668 -2.8563 -1.0296
 2567TIP3   OH229335   3.417   3.320   8.532 -0.1935  0.7671  0.1423
 2567TIP3    H129336   3.359   3.391   8.561 -0.0366  1.1311 -0.4256
 2567TIP3    H229337   3.492   3.326   8.591 -0.7674  0.2243  0.9528
 2568TIP3   OH229338   4.093   3.155   1.235 -0.0605  0.3907 -0.3544
 2568TIP3    H129339   4.157   3.219   1.206 -1.1446  1.8513  0.3409
 2568TIP3    H229340   4.103   3.151   1.330  0.4223 -0.9973 -0.4296
 2569TIP3   OH229341   5.933   5.075   0.592 -0.5549  0.4616 -0.1921
 2569TIP3    H129342   5.970   5.098   0.677  1.3517 -0.5691 -0.6980
 2569TIP3    H229343   5.981   5.130   0.529 -0.7485 -0.0065 -0.7587
 2570TIP3   OH229344   4.190   5.297   7.252 -0.2280 -0.0195 -0.0331
 2570TIP3    H129345   4.157   5.274   7.339  2.4101 -1.5815  0.6387
 2570TIP3    H229346   4.268   5.350   7.269  1.6412 -2.1849 -1.3062
 2571TIP3   OH229347   0.631   1.630   0.210 -0.0089 -0.5313  0.4856
 2571TIP3    H129348   0.599   1.694   0.146  2.5467 -0.1531 -0.5830
 2571TIP3    H229349   0.611   1.545   0.170 -0.4684 -0.3366  0.2921
 2572TIP3   OH229350   6.706   3.748   1.198 -0.1481  0.0474 -0.1581
 2572TIP3    H129351   6.711   3.701   1.115 -0.0633  0.3860 -0.3462
 2572TIP3    H229352   6.621   3.792   1.195  0.8365  2.0304 -1.1436
 2573TIP3   OH229353   3.730   3.152   1.708  0.2038  0.1758  0.7927
 2573TIP3    H129354   3.732   3.219   1.776 -0.6406  1.4823 -0.4260
 2573TIP3    H229355   3.818   3.113   1.711 -0.0159 -0.3108  3.0627
 2574TIP3   OH229356   0.507   1.030   0.948  0.3238 -0.1425  0.5427
 2574TIP3    H129357   0.484   0.938   0.933  1.0688 -0.8849  3.4439
 2574TIP3    H229358   0.569   1.051   0.878  0.8499 -2.1198  0.3603
 2575TIP3   OH229359   2.328   5.115   6.933  0.2979  0.5361 -0.2216
 2575TIP3    H129360   2.382   5.156   6.866 -2.0805  1.4328 -1.7235
 2575TIP3    H229361   2.287   5.188   6.980  0.1073 -0.1089  0.6462
 2576TIP3   OH229362   2.395   3.250   7.821 -0.0193 -0.0420 -0.0755
 2576TIP3    H129363   2.302   3.272   7.825  0.2932  1.2142  0.8289
 2576TIP3    H229364   2.432   3.313   7.759  0.4627  0.3942  0.6487
 2577TIP3   OH229365   5.570   4.951   8.630  0.0302  0.6040  0.0015
 2577TIP3    H129366   5.495   4.973   8.575  0.6936  1.4504 -0.5805
 2577TIP3    H229367   5.630   5.024   8.620  1.0498 -0.1686  0.2738
 2578TIP3   OH229368   4.810   2.752   8.616  0.1806  0.1203 -0.7232
 2578TIP3    H129369   4.813   2.726   8.524  1.2920 -1.2897 -0.3354
 2578TIP3    H229370   4.901   2.769   8.640 -0.3467  3.1133 -0.5301
 2579TIP3   OH229371   0.500   5.005   1.341 -0.1061  0.0363 -0.0493
 2579TIP3    H129372   0.437   4.935   1.357 -0.3301 -0.2753 -1.9642
 2579TIP3    H229373   0.448   5.075   1.300  0.5638  0.2463 -0.5691
 2580TIP3   OH229374   2.391   3.861   0.886 -0.1371  0.1435 -0.1594
 2580TIP3    H129375   2.417   3.913   0.962 -0.4934 -1.9046  1.4470
 2580TIP3    H229376   2.309   3.900   0.856  0.5247  1.5901 -0.1448
 2581TIP3   OH229377   2.497   4.297   7.167  0.0877 -0.0056  0.4959
 2581TIP3    H129378   2.489   4.242   7.089 -0.1596 -0.0086  0.5228
 2581TIP3    H229379   2.484   4.237   7.241 -0.4267  0.1283  0.5199
 2582TIP3   OH229380   5.747   3.880   0.176 -0.2318  0.1906  0.4621
 2582TIP3    H129381   5.784   3.798   0.210 -1.6771  1.0864  4.8816
 2582TIP3    H229382   5.660   3.855   0.145  0.4014 -0.3466 -0.9633
 2583TIP3   OH229383   0.041   0.064   0.724 -0.3527  0.2376  0.1867
 2583TIP3    H129384   0.035  -0.010   0.663 -1.4725 -1.0816  1.7871
 2583TIP3    H229385   0.098   0.127   0.680  0.7087 -1.5916 -1.2262
 2584TIP3   OH229386   6.858   4.758   8.006 -0.2766 -0.1749  0.8017
 2584TIP3    H129387   6.773   4.739   8.045 -0.1444 -0.4174  0.9698
 2584TIP3    H229388   6.922   4.728   8.070 -0.0551 -1.0575  0.1764
 2585TIP3   OH229389   5.410   0.466   0.754  0.4169  0.0727  0.4976
 2585TIP3    H129390   5.327   0.486   0.710  0.7307 -1.9728 -1.1578
 2585TIP3    H229391   5.399   0.501   0.842 -1.6182  1.1790 -0.1261
 2586TIP3   OH229392   1.104   4.507   8.832 -0.7287 -0.8067  0.1309
 2586TIP3    H129393   1.025   4.512   8.777 -0.7500 -0.8870  0.1536
 2586TIP3    H229394   1.172   4.474   8.773 -0.7118 -0.7328  0.1105
 2587TIP3   OH229395   3.519   1.587   1.224 -0.1025  0.2712  0.5463
 2587TIP3    H129396   3.543   1.660   1.281  1.0579  0.7289 -0.4761
 2587TIP3    H229397   3.590   1.523   1.236  0.4689  0.6239 -0.7817
 2588TIP3   OH229398   5.906   3.478   7.615  0.1414  0.1474  0.9388
 2588TIP3    H129399   5.894   3.425   7.536 -1.5241  1.4538  0.2471
 2588TIP3    H229400   5.830   3.458   7.670  0.4104  0.5034  1.4566
 2589TIP3   OH229401   2.362   1.655   6.132 -0.0809  0.2793 -0.0679
 2589TIP3    H129402   2.422   1.581   6.140 -0.6157 -0.0365  1.3008
 2589TIP3    H229403   2.397   1.707   6.060  1.7232  0.0055  0.5682
 2590TIP3   OH229404   1.794   1.640   7.282  0.0904 -0.1010  0.1316
 2590TIP3    H129405   1.881   1.609   7.304  0.5251  0.2153 -1.0337
 2590TIP3    H229406   1.790   1.728   7.319  0.1985 -0.1871  0.3489
 2591TIP3   OH229407   5.332   4.948   0.977  0.9162 -0.5055 -0.0073
 2591TIP3    H129408   5.369   4.987   0.898  0.3520 -2.0235 -1.0642
 2591TIP3    H229409   5.271   5.014   1.010  0.2272 -0.3345 -1.5567
 2592TIP3   OH229410   3.988   4.030   8.506 -0.1002 -0.5899 -0.2950
 2592TIP3    H129411   4.037   4.066   8.432  0.0528  0.5674  0.3335
 2592TIP3    H229412   4.055   4.005   8.570 -0.2485  1.9795  1.0134
 2593TIP3   OH229413   1.551   3.974   1.498  0.1218 -0.2336  0.2637
 2593TIP3    H129414   1.510   3.927   1.571  0.1090  0.2299  0.5560
 2593TIP3    H229415   1.542   3.914   1.423  0.2257 -0.7533  0.6625
 2594TIP3   OH229416   1.650   1.345   6.669 -0.3371  0.0434  0.1447
 2594TIP3    H129417   1.659   1.266   6.616 -1.1070 -2.8588  3.8655
 2594TIP3    H229418   1.617   1.411   6.609 -1.9224 -3.1176 -2.8259
 2595TIP3   OH229419   5.017   3.373   7.366  0.4613  0.0255  0.4057
 2595TIP3    H129420   4.978   3.423   7.294  1.0975  0.4122  0.3211
 2595TIP3    H229421   4.949   3.373   7.434  0.4925  1.1219  0.4555
 2596TIP3   OH229422   3.149   4.069   7.957  0.5204  0.1870 -0.0456
 2596TIP3    H129423   3.180   4.104   7.874  0.3556 -0.0345 -0.2039
 2596TIP3    H229424   3.228   4.052   8.008  0.6527 -0.2546 -0.3956
 2597TIP3   OH229425   1.287   6.470   7.324 -0.1281 -0.6125  0.0930
 2597TIP3    H129426   1.373   6.435   7.346  0.8432  0.5770 -1.6002
 2597TIP3    H229427   1.273   6.540   7.387  0.7972  0.0925 -0.4520
 2598TIP3   OH229428   3.364   4.203   8.777 -0.2911  0.2188 -0.1400
 2598TIP3    H129429   3.284   4.153   8.791 -0.0391 -0.2798 -0.4804
 2598TIP3    H229430   3.338   4.273   8.717 -0.6519  0.5371  0.3736
 2599TIP3   OH229431   1.818   0.573   7.612  0.4110  0.2552  0.1441
 2599TIP3    H129432   1.834   0.497   7.557  0.1928  0.0740  0.3276
 2599TIP3    H229433   1.889   0.634   7.590 -0.3020  0.6529 -1.1450
 2600TIP3   OH229434   5.088   0.200   1.286 -0.0629  0.9875  0.9496
 2600TIP3    H129435   5.110   0.223   1.196 -2.4632 -0.7163 -0.2026
 2600TIP3    H229436   5.144   0.125   1.307 -0.5137  0.4507  0.2815
 2601TIP3   OH229437   1.008   6.276   0.530 -0.0428  0.3647 -0.4336
 2601TIP3    H129438   0.925   6.278   0.482 -0.2198 -1.9743 -0.3789
 2601TIP3    H229439   0.993   6.211   0.599  2.0610 -0.7395 -0.9294
 2602TIP3   OH229440   5.524   3.173   0.257 -0.1058 -0.3147  0.4527
 2602TIP3    H129441   5.453   3.163   0.194  0.6416 -0.0430 -0.4590
 2602TIP3    H229442   5.487   3.144   0.340 -1.2923 -0.1185  0.0068
 2603TIP3   OH229443   5.090   2.567   8.035 -0.2830 -0.2281  0.0889
 2603TIP3    H129444   5.148   2.586   7.961 -0.9317 -0.5244 -0.5140
 2603TIP3    H229445   5.125   2.486   8.072 -0.6760 -0.7829 -0.6934
 2604TIP3   OH229446   0.624   0.659   0.793  0.0429 -0.2667 -0.1142
 2604TIP3    H129447   0.552   0.652   0.855  0.7615 -0.3104  0.7460
 2604TIP3    H229448   0.638   0.753   0.782  0.1967 -0.2583  0.1396
 2605TIP3   OH229449   4.908   1.921   1.172 -0.2984 -0.0373  0.2984
 2605TIP3    H129450   4.944   1.875   1.247 -0.4922  2.2970  1.9255
 2605TIP3    H229451   4.971   1.991   1.154 -0.3590 -0.3997 -1.6236
 2606TIP3   OH229452   3.156   1.104   1.163 -0.4274 -0.4628  0.2152
 2606TIP3    H129453   3.223   1.162   1.126 -0.7997 -0.9776 -1.3769
 2606TIP3    H229454   3.105   1.161   1.220  0.6745  0.1979  0.5827
 2607TIP3   OH229455   3.509   6.591   0.578  0.0683  0.1290  0.3480
 2607TIP3    H129456   3.528   6.520   0.516 -0.5418 -0.1401  0.4691
 2607TIP3    H229457   3.469   6.660   0.525  0.3482  0.2501  0.2914
 2608TIP3   OH229458   4.900   1.435   0.581  0.4928 -0.8640  0.2140
 2608TIP3    H129459   4.809   1.460   0.598  0.1761 -2.0168  0.3448
 2608TIP3    H229460   4.934   1.504   0.524  0.0103  0.3795  1.3899
 2609TIP3   OH229461   5.956   4.858   6.482  0.2467  0.3643  0.0365
 2609TIP3    H129462   6.049   4.878   6.481  0.1176  0.9959 -1.3477
 2609TIP3    H229463   5.945   4.798   6.556  1.1996  2.8115  2.3106
 2610TIP3   OH229464   1.510   5.878   8.735 -0.1415 -0.4368 -0.0350
 2610TIP3    H129465   1.559   5.807   8.693  0.6085 -0.0539  0.1868
 2610TIP3    H229466   1.537   5.876   8.826 -0.5480 -0.2270  0.0927
 2611TIP3   OH229467   5.533   4.627   1.393  0.3610 -0.4696 -0.4976
 2611TIP3    H129468   5.598   4.621   1.322  0.8680  0.2232 -0.1108
 2611TIP3    H229469   5.489   4.711   1.378 -0.9329 -1.2319 -1.1419
 2612TIP3   OH229470   5.799   3.453   1.657  0.6948 -0.6470 -0.0592
 2612TIP3    H129471   5.712   3.417   1.679  0.5936 -0.9715 -0.9583
 2612TIP3    H229472   5.808   3.529   1.715  0.2044 -1.1483  0.7007
 2613TIP3   OH229473   3.738   2.135   1.194  0.2507  0.0625 -0.2816
 2613TIP3    H129474   3.643   2.127   1.197  0.3670 -1.4617  2.4345
 2613TIP3    H229475   3.757   2.220   1.234  0.0402  0.2690 -0.6218
 2614TIP3   OH229476   0.195   4.858   6.954 -0.2788 -0.2269 -0.3940
 2614TIP3    H129477   0.141   4.935   6.971  0.3077  0.4235 -1.3568
 2614TIP3    H229478   0.241   4.878   6.872  1.8890 -0.4699  0.6786
 2615TIP3   OH229479   6.701   2.956   7.141  0.7779 -0.3725 -0.1629
 2615TIP3    H129480   6.779   2.925   7.096  1.1256  0.5168 -0.1975
 2615TIP3    H229481   6.731   3.030   7.193 -0.3135  1.0190 -1.4060
 2616TIP3   OH229482   0.129   5.952   8.499 -0.0094 -0.1206 -0.5394
 2616TIP3    H129483   0.124   5.973   8.592  0.0435  0.8081 -0.7345
 2616TIP3    H229484   0.144   5.858   8.496  0.1857 -0.1260  0.3948
 2617TIP3   OH229485   6.435   4.499   1.092  0.1665 -0.3510  0.2507
 2617TIP3    H129486   6.440   4.432   1.161 -0.5375 -0.4792  0.1862
 2617TIP3    H229487   6.520   4.495   1.049  0.0073 -1.4662  0.0113
 2618TIP3   OH229488   5.071   0.244   0.597  0.3892 -0.6043 -0.2813
 2618TIP3    H129489   4.982   0.279   0.586 -0.9957 -2.9979  2.0853
 2618TIP3    H229490   5.112   0.303   0.660 -0.2424 -0.5561  0.0962
 2619TIP3   OH229491   1.360   4.406   6.615 -0.1497  0.1912 -0.4211
 2619TIP3    H129492   1.308   4.396   6.535 -0.7138  0.1851 -0.0652
 2619TIP3    H229493   1.296   4.437   6.680  0.1926 -0.3173  0.1600
 2620TIP3   OH229494   0.538   3.315   8.480  0.1862 -0.1588 -0.0009
 2620TIP3    H129495   0.567   3.223   8.476  1.3322  0.2312 -2.1353
 2620TIP3    H229496   0.453   3.311   8.524 -0.1033 -2.3380 -0.6140
 2621TIP3   OH229497   0.486   3.875   1.049 -0.2954  0.3070 -0.2154
 2621TIP3    H129498   0.416   3.879   1.115 -0.4961  1.7303 -0.4663
 2621TIP3    H229499   0.494   3.783   1.027 -0.4979 -0.1603  1.5106
 2622TIP3   OH229500   3.098   2.413   1.303  0.1575  0.0689  0.3183
 2622TIP3    H129501   3.089   2.505   1.329 -2.3298  0.1725 -0.6058
 2622TIP3    H229502   3.167   2.414   1.236  2.7109  0.6180  2.7672
 2623TIP3   OH229503   4.186   5.251   1.025  0.3723  0.1288 -0.0414
 2623TIP3    H129504   4.173   5.280   1.115  0.3079  1.3776 -0.4312
 2623TIP3    H229505   4.173   5.330   0.973 -1.4884 -0.9448 -1.3078
 2624TIP3   OH229506   6.076   6.686   6.159  0.1207  0.1158 -0.5722
 2624TIP3    H129507   5.997   6.702   6.212 -0.0533 -0.0108 -0.7916
 2624TIP3    H229508   6.057   6.605   6.112  1.2798 -1.1801  1.0692
 2625TIP3   OH229509   4.839   3.320   2.344 -0.6977  0.3616 -0.7870
 2625TIP3    H129510   4.760   3.373   2.351 -0.3742  0.6443  1.7430
 2625TIP3    H229511   4.893   3.347   2.419  0.6106 -1.7098 -0.8916
 2626TIP3   OH229512   3.236   3.527   1.731  0.5947  0.4778  0.3149
 2626TIP3    H129513   3.186   3.601   1.698 -0.6062 -1.0094 -1.3572
 2626TIP3    H229514   3.321   3.533   1.687 -0.1828 -0.1763 -1.3559
 2627TIP3   OH229515   4.450   0.190   6.997 -0.0892  0.0294 -0.4827
 2627TIP3    H129516   4.534   0.221   6.965 -0.1417 -0.2063 -0.8586
 2627TIP3    H229517   4.428   0.117   6.939  0.5719 -1.4634  1.0660
 2628TIP3   OH229518   0.460   0.316   8.041 -0.1524  0.0174  0.4025
 2628TIP3    H129519   0.494   0.248   8.100 -0.1933  0.6701  1.2025
 2628TIP3    H229520   0.442   0.390   8.099 -2.6685 -0.1941  0.0132
 2629TIP3   OH229521   1.017   4.403   0.630 -0.5925  0.4736 -0.8189
 2629TIP3    H129522   0.968   4.367   0.705  0.9843  0.0216  0.0456
 2629TIP3    H229523   1.079   4.465   0.669  1.6335 -1.2193 -1.4608
 2630TIP3   OH229524   4.609   5.746   8.434 -0.5388 -0.3640  0.7918
 2630TIP3    H129525   4.660   5.697   8.499  2.8650 -0.2878 -1.5745
 2630TIP3    H229526   4.636   5.837   8.447  0.1783 -0.3509 -0.6664
 2631TIP3   OH229527   3.303   2.417   8.328  0.5562  0.1696  0.6031
 2631TIP3    H129528   3.210   2.436   8.345  0.5678  0.9960 -0.2035
 2631TIP3    H229529   3.306   2.322   8.317 -0.5447  0.2993 -1.2519
 2632TIP3   OH229530   0.750   5.617   6.734 -0.4690  0.3443 -0.3761
 2632TIP3    H129531   0.802   5.550   6.779 -0.8946  0.3881  0.1852
 2632TIP3    H229532   0.689   5.567   6.680  0.8604  0.2863 -1.8936
 2633TIP3   OH229533   3.223   6.521   7.894 -0.1781 -0.3395 -0.5308
 2633TIP3    H129534   3.199   6.521   7.987  1.6382 -1.1756 -0.0018
 2633TIP3    H229535   3.196   6.435   7.862 -1.3217  0.1619 -0.9455
 2634TIP3   OH229536   5.255   5.608   7.936  0.8219  0.0136 -0.2908
 2634TIP3    H129537   5.188   5.676   7.936  1.5455  0.7453 -0.1228
 2634TIP3    H229538   5.207   5.526   7.926 -0.5405  0.1213  3.6310
 2635TIP3   OH229539   2.451   5.564   1.175  0.0689  0.1866  0.1959
 2635TIP3    H129540   2.383   5.497   1.177 -0.6216  0.8774  0.8627
 2635TIP3    H229541   2.532   5.518   1.192 -0.1362 -0.7554 -1.2185
 2636TIP3   OH229542   0.285   0.990   1.099 -0.4325 -0.0228 -0.3506
 2636TIP3    H129543   0.365   1.037   1.077 -1.6418  1.7044 -1.3322
 2636TIP3    H229544   0.221   1.020   1.033 -2.0976 -0.6988  0.8908
 2637TIP3   OH229545   1.929   5.259   1.449 -0.4465 -0.4662  0.6450
 2637TIP3    H129546   2.016   5.220   1.442 -1.4908 -2.6719 -1.2364
 2637TIP3    H229547   1.929   5.330   1.385  0.2546  0.2118  1.3736
 2638TIP3   OH229548   0.620   4.641   8.799 -0.7311  0.1739 -0.1081
 2638TIP3    H129549   0.618   4.624   8.704  0.9156 -1.0801  0.0465
 2638TIP3    H229550   0.645   4.733   8.806  1.3384 -0.2662 -0.9266
 2639TIP3   OH229551   2.590   2.474   0.761  0.2406  0.5200  0.3318
 2639TIP3    H129552   2.674   2.489   0.805  0.0784  1.7126  0.2480
 2639TIP3    H229553   2.600   2.515   0.675 -0.4099  0.6170  0.2997
 2640TIP3   OH229554   4.095   5.919   0.255  0.4066  0.1904 -0.2425
 2640TIP3    H129555   4.014   5.925   0.203 -0.4457 -2.4337  0.6409
 2640TIP3    H229556   4.133   6.007   0.249 -1.3093  0.8888 -2.5857
 2641TIP3   OH229557   0.344   4.688   2.055  0.5838  1.0754  0.0867
 2641TIP3    H129558   0.396   4.714   2.130  0.8461 -1.9418  1.1035
 2641TIP3    H229559   0.253   4.690   2.086  0.5217  1.6402 -0.1265
 2642TIP3   OH229560   5.482   3.762   0.140 -0.5216  0.0554 -0.0396
 2642TIP3    H129561   5.493   3.718   0.056  1.1213  0.8240 -0.2719
 2642TIP3    H229562   5.503   3.695   0.205  0.8263  0.1317 -0.3565
 2643TIP3   OH229563   3.916   5.025   8.273 -0.3964 -0.1180  0.1372
 2643TIP3    H129564   3.921   4.999   8.181 -0.4924  1.3103 -0.2917
 2643TIP3    H229565   3.938   4.945   8.321  3.4997 -0.0804 -1.1686
 2644TIP3   OH229566   1.382   3.171   8.595  0.2408 -0.2061  0.2701
 2644TIP3    H129567   1.427   3.157   8.678 -0.1112  2.1674  0.9206
 2644TIP3    H229568   1.323   3.245   8.611 -0.6370 -0.3775 -1.8008
 2645TIP3   OH229569   5.316   3.107   2.386 -0.0033 -0.8625  0.0752
 2645TIP3    H129570   5.375   3.038   2.354 -0.6870 -2.1134  1.4297
 2645TIP3    H229571   5.229   3.079   2.357 -0.1465  0.0891 -0.4313
 2646TIP3   OH229572   3.790   5.738   7.030  0.7641  0.1781 -0.3930
 2646TIP3    H129573   3.804   5.644   7.042 -2.9011 -0.5143 -0.2417
 2646TIP3    H229574   3.815   5.777   7.114  0.1431 -1.0103  0.3709
 2647TIP3   OH229575   3.387   3.222   6.718  0.0568  0.0417 -0.4520
 2647TIP3    H129576   3.313   3.282   6.731  0.3352  0.0476  1.3554
 2647TIP3    H229577   3.386   3.203   6.624 -3.7605 -1.9022 -0.2369
 2648TIP3   OH229578   1.588   3.989   6.081  0.0020  0.4750 -0.7603
 2648TIP3    H129579   1.494   3.972   6.085  0.1589 -0.4638 -0.6024
 2648TIP3    H229580   1.628   3.905   6.106  0.8602  1.6320  2.2283
 2649TIP3   OH229581   1.236   6.570   0.902  0.3346 -0.3422 -0.4259
 2649TIP3    H129582   1.326   6.586   0.931  0.0975  0.0999  0.0855
 2649TIP3    H229583   1.244   6.500   0.837  1.0374 -0.3623 -0.3287
 2650TIP3   OH229584   0.500   4.082   1.960  0.2321 -0.5482  0.0360
 2650TIP3    H129585   0.530   4.140   2.030 -0.4016 -2.7667  2.2889
 2650TIP3    H229586   0.539   4.119   1.881  1.3064  1.8805  1.5561
 2651TIP3   OH229587   0.646   2.361   7.128 -0.0511  0.0703 -0.1557
 2651TIP3    H129588   0.621   2.306   7.202 -1.4884 -2.3958 -2.3405
 2651TIP3    H229589   0.612   2.316   7.051  2.8671  1.5828 -2.5533
 2652TIP3   OH229590   2.073   4.113   8.332 -0.4490 -0.0432 -0.3892
 2652TIP3    H129591   2.084   4.153   8.418 -2.0061  0.4998 -0.4114
 2652TIP3    H229592   2.126   4.034   8.335 -2.5555 -1.5069  2.0371
 2653TIP3   OH229593   5.847   4.409   1.135  0.1868  0.0097  0.0175
 2653TIP3    H129594   5.860   4.434   1.226 -1.3314 -1.5121  0.6931
 2653TIP3    H229595   5.782   4.471   1.102  0.8560  0.6654 -0.1255
 2654TIP3   OH229596   3.934   2.855   8.263  0.8980  0.0021  0.3208
 2654TIP3    H129597   3.866   2.804   8.219 -0.7133  1.2500  1.2286
 2654TIP3    H229598   3.945   2.933   8.208  1.6579 -0.2170  0.1502
 2655TIP3   OH229599   4.054   0.165   6.583 -0.1672 -0.0604 -0.0480
 2655TIP3    H129600   4.028   0.073   6.579 -0.6290  0.0840 -0.4275
 2655TIP3    H229601   4.144   0.163   6.617 -0.2056 -0.6440  0.0266
 2656TIP3   OH229602   5.141   2.198   7.612 -0.1155 -0.2703 -0.0698
 2656TIP3    H129603   5.089   2.159   7.542  0.0811  1.2600 -1.1084
 2656TIP3    H229604   5.230   2.165   7.597 -0.3839 -1.3329  0.5425
 2657TIP3   OH229605   5.810   0.992   7.554  0.4494  0.1203 -0.6189
 2657TIP3    H129606   5.855   0.977   7.472 -1.7131  2.1538 -2.3531
 2657TIP3    H229607   5.847   1.074   7.588  0.0448  0.2913 -0.5747
 2658TIP3   OH229608   0.976   5.612   8.540 -0.4338  0.1268  0.2951
 2658TIP3    H129609   1.050   5.627   8.481 -0.9326  0.6892 -0.1978
 2658TIP3    H229610   1.013   5.560   8.611  0.7057  1.2968  0.6143
 2659TIP3   OH229611   5.710   5.744   0.814 -0.3956 -0.3036  0.1563
 2659TIP3    H129612   5.636   5.802   0.828 -1.0197 -0.2712 -2.7539
 2659TIP3    H229613   5.671   5.658   0.796  0.3953 -0.8793  1.0351
 2660TIP3   OH229614   1.798   2.381   7.959  0.2471  0.3240 -0.2325
 2660TIP3    H129615   1.735   2.441   7.999  0.3585 -0.1545  0.6748
 2660TIP3    H229616   1.825   2.425   7.878  0.5217  1.6149  0.5386
 2661TIP3   OH229617   5.828   1.989   7.728 -0.7257 -0.1946 -0.6524
 2661TIP3    H129618   5.759   1.923   7.717 -1.3222  0.1952  0.5823
 2661TIP3    H229619   5.909   1.939   7.733 -1.1360 -0.8191 -0.1065
 2662TIP3   OH229620   3.097   5.322   7.783 -0.2575 -0.1635 -0.2524
 2662TIP3    H129621   3.082   5.403   7.734  0.4429  0.3637  0.3818
 2662TIP3    H229622   3.146   5.266   7.723  1.6774  0.9388  0.2252
 2663TIP3   OH229623   1.947   5.374   8.178  0.2306  0.5552 -0.4218
 2663TIP3    H129624   1.863   5.331   8.166 -0.0163  0.9792 -0.2149
 2663TIP3    H229625   1.927   5.457   8.221  0.7488  0.6745 -0.3938
 2664TIP3   OH229626   1.291   1.156   7.377 -0.2184 -0.4250 -0.2862
 2664TIP3    H129627   1.383   1.179   7.359 -0.4409  0.4257 -0.3711
 2664TIP3    H229628   1.256   1.133   7.291  0.0024 -1.1004 -0.2021
 2665TIP3   OH229629   0.836   4.815   6.832  0.3951  0.2543 -0.7138
 2665TIP3    H129630   0.762   4.754   6.837 -0.3331  0.9246 -2.5211
 2665TIP3    H229631   0.837   4.859   6.917 -0.4377 -0.7052 -0.1827
 2666TIP3   OH229632   3.576   0.022   7.179  0.5301 -0.5046 -0.2544
 2666TIP3    H129633   3.514  -0.030   7.129  0.7351 -1.1419  0.1469
 2666TIP3    H229634   3.657   0.020   7.127 -0.1644  1.5612 -1.5380
 2667TIP3   OH229635   2.151   0.655   1.739 -0.1393 -0.0462  0.1645
 2667TIP3    H129636   2.151   0.576   1.685  0.1642  1.1378 -1.6526
 2667TIP3    H229637   2.134   0.624   1.828  2.1934 -2.3893 -0.1057
 2668TIP3   OH229638   1.316   0.619   0.619 -0.1104  0.2708  1.0337
 2668TIP3    H129639   1.238   0.672   0.608  0.0187  0.4429  0.9529
 2668TIP3    H229640   1.343   0.634   0.709 -1.1968 -1.1786  1.6491
 2669TIP3   OH229641   2.414   2.962   0.939  0.1198 -0.3858 -0.5903
 2669TIP3    H129642   2.395   2.875   0.973  0.8205 -0.7870 -1.1767
 2669TIP3    H229643   2.508   2.959   0.917 -0.0628  0.1875 -1.5225
 2670TIP3   OH229644   5.433   4.419   7.028  0.4417  0.3286  0.6615
 2670TIP3    H129645   5.410   4.512   7.032 -1.5191 -0.1257  1.1390
 2670TIP3    H229646   5.349   4.374   7.017  1.4808 -1.3181 -1.2996
 2671TIP3   OH229647   4.888   1.537   8.308 -0.1990  0.4579 -0.0027
 2671TIP3    H129648   4.885   1.596   8.233  0.0750  1.4674  0.7707
 2671TIP3    H229649   4.809   1.559   8.359  0.9652  1.6343  1.3644
 2672TIP3   OH229650   5.351   4.166   8.174  0.0148 -0.3616  0.4065
 2672TIP3    H129651   5.432   4.189   8.220  1.1919 -0.8264 -1.3639
 2672TIP3    H229652   5.370   4.081   8.133 -1.0487 -0.0345 -0.7996
 2673TIP3   OH229653   6.788   4.416   1.991 -0.4801 -0.6971 -0.5817
 2673TIP3    H129654   6.789   4.467   2.072  2.3765  0.0617 -0.9531
 2673TIP3    H229655   6.747   4.474   1.927 -1.0490 -0.5501 -0.0903
 2674TIP3   OH229656   6.503   3.056   0.949 -0.0753 -0.5169 -0.3526
 2674TIP3    H129657   6.546   3.107   1.018 -1.1230 -1.4542  1.0513
 2674TIP3    H229658   6.451   3.120   0.902 -0.4205 -0.0528  0.6211
 2675TIP3   OH229659   6.789   5.499   7.523 -0.1286  0.0880 -0.1911
 2675TIP3    H129660   6.708   5.513   7.572 -0.3130  0.5985 -0.6314
 2675TIP3    H229661   6.815   5.587   7.495 -0.6644 -0.2981 -2.0111
 2676TIP3   OH229662   4.673   6.224   0.481  0.3310  0.2613 -0.7916
 2676TIP3    H129663   4.741   6.193   0.541 -0.4598 -0.3749 -0.2140
 2676TIP3    H229664   4.620   6.147   0.462 -2.7057  1.4583  1.9725
 2677TIP3   OH229665   5.469   2.827   6.661  0.5231  0.3252 -0.2148
 2677TIP3    H129666   5.377   2.821   6.635  0.6438 -0.3371 -0.5227
 2677TIP3    H229667   5.504   2.899   6.609  0.6826 -0.7856 -1.6952
 2678TIP3   OH229668   3.842   5.387   0.951  0.1133  0.4465  0.3716
 2678TIP3    H129669   3.848   5.462   1.010 -1.8440  0.9742 -0.0179
 2678TIP3    H229670   3.858   5.424   0.864  0.4098  0.1719  0.3087
 2679TIP3   OH229671   6.845   2.304   0.797 -0.4178  0.4682 -0.2168
 2679TIP3    H129672   6.927   2.310   0.846 -1.1106 -0.1017  1.0606
 2679TIP3    H229673   6.788   2.368   0.840 -1.1769 -0.3554  0.0135
 2680TIP3   OH229674   1.467   1.527   6.891 -0.7757 -0.2477  0.3298
 2680TIP3    H129675   1.557   1.544   6.919 -0.1110 -1.6425 -0.8298
 2680TIP3    H229676   1.435   1.459   6.951 -0.4072 -1.0439 -0.3524
 2681TIP3   OH229677   0.661   4.397   1.061  0.1624 -0.0485 -0.4508
 2681TIP3    H129678   0.588   4.445   1.022 -0.6667  0.0391  1.1322
 2681TIP3    H229679   0.658   4.311   1.020  1.0200  0.8722 -2.5571
 2682TIP3   OH229680   2.933   1.622   0.721  0.4539  0.0133  0.4646
 2682TIP3    H129681   2.954   1.560   0.651  0.2238 -0.2984  0.6680
 2682TIP3    H229682   3.012   1.624   0.776  1.7233  2.3068 -1.2459
 2683TIP3   OH229683   4.238   0.023   0.681  0.2319  0.0862  0.0034
 2683TIP3    H129684   4.294  -0.019   0.616 -1.0619 -0.8091 -0.6023
 2683TIP3    H229685   4.193  -0.050   0.724  0.5449  0.7043  1.4400
 2684TIP3   OH229686   4.338   0.097   6.545 -0.5154  0.6870 -0.2709
 2684TIP3    H129687   4.354   0.182   6.585  1.4859 -0.3725  1.3874
 2684TIP3    H229688   4.365   0.107   6.454  1.3905  1.4135  0.3281
 2685TIP3   OH229689   3.363   2.458   7.426  0.3249 -0.5763  0.4917
 2685TIP3    H129690   3.436   2.497   7.379  0.6145 -3.6242 -1.9194
 2685TIP3    H229691   3.339   2.523   7.492  4.0125  1.3230  0.2369
 2686TIP3   OH229692   3.833   5.793   8.077 -0.1503 -0.0476  0.0340
 2686TIP3    H129693   3.854   5.833   7.993  1.9422  0.7273  0.8760
 2686TIP3    H229694   3.755   5.840   8.107 -1.8188 -1.3092 -2.0600
 2687TIP3   OH229695   5.347   1.229   7.342 -0.6386  0.0434 -0.0962
 2687TIP3    H129696   5.375   1.140   7.365  0.3009  0.0925 -0.9938
 2687TIP3    H229697   5.329   1.270   7.427  1.0513 -0.3224  0.4874
 2688TIP3   OH229698   2.683   0.174   0.531 -0.5623  0.2490  0.5349
 2688TIP3    H129699   2.662   0.117   0.457  0.2961 -0.0871  0.5490
 2688TIP3    H229700   2.627   0.251   0.518  0.4570  0.7506 -1.1306
 2689TIP3   OH229701   1.691   6.109   0.974  0.2483  0.5009  0.1338
 2689TIP3    H129702   1.754   6.181   0.970  1.0529 -0.0975  1.2775
 2689TIP3    H229703   1.739   6.034   0.941  0.2977 -0.0492  1.4023
 2690TIP3   OH229704   5.467   3.952   6.883 -0.4181 -0.3768 -0.2454
 2690TIP3    H129705   5.394   3.891   6.892 -0.5622 -0.2749 -0.6830
 2690TIP3    H229706   5.545   3.898   6.894 -0.5559 -0.5169  0.0542
 2691TIP3   OH229707   3.763   4.736   2.348  0.1533  0.4595  0.3276
 2691TIP3    H129708   3.706   4.812   2.341 -0.0416  0.1875 -1.5381
 2691TIP3    H229709   3.849   4.772   2.368 -0.0914  1.1152  0.2369
 2692TIP3   OH229710   6.452   4.859   0.339 -0.8693 -0.5511  0.2761
 2692TIP3    H129711   6.409   4.850   0.255 -0.5671 -2.4343  0.2940
 2692TIP3    H229712   6.387   4.904   0.394 -1.8353 -1.0684 -0.4069
 2693TIP3   OH229713   3.595   0.231   2.306  0.2561 -0.5318  0.0474
 2693TIP3    H129714   3.549   0.153   2.338 -0.3622 -0.1064  0.2241
 2693TIP3    H229715   3.527   0.298   2.303  1.0208  0.3274  1.0513
 2694TIP3   OH229716   0.845   4.880   1.059  0.1490 -0.2157  0.0880
 2694TIP3    H129717   0.827   4.831   0.979 -0.2373 -1.0677  0.6763
 2694TIP3    H229718   0.800   4.964   1.047 -1.5713 -1.0722  0.2081
 2695TIP3   OH229719   1.884   0.688   7.160 -0.4179  0.6031 -0.2009
 2695TIP3    H129720   1.839   0.657   7.081 -1.2230  0.2201  0.4038
 2695TIP3    H229721   1.956   0.625   7.172  0.4313  1.3215 -1.2682
 2696TIP3   OH229722   6.854   2.312   8.223  0.2842 -0.1330 -0.1947
 2696TIP3    H129723   6.918   2.376   8.256 -0.5324 -0.1990  1.6966
 2696TIP3    H229724   6.779   2.321   8.283 -0.7742 -1.2816 -1.2822
 2697TIP3   OH229725   0.908   4.145   1.003  0.7105 -0.4310 -0.0603
 2697TIP3    H129726   0.955   4.099   1.073 -0.9879 -0.6754  0.9783
 2697TIP3    H229727   0.816   4.120   1.015  0.0659  1.2828 -1.0252
 2698TIP3   OH229728   1.470   4.961   1.443  0.4206  0.3250 -0.2939
 2698TIP3    H129729   1.393   5.011   1.472  1.5414  1.4248  0.9055
 2698TIP3    H229730   1.451   4.939   1.352 -1.3239  0.5328 -0.0256
 2699TIP3   OH229731   0.172   4.869   8.280 -0.1432  0.3621  0.0762
 2699TIP3    H129732   0.160   4.964   8.289  0.3627  0.3859  0.5481
 2699TIP3    H229733   0.254   4.860   8.230  1.1976  0.1780  2.1915
 2700TIP3   OH229734   6.425   0.093   6.979 -0.1046 -0.4107 -0.4685
 2700TIP3    H129735   6.360   0.097   7.049  1.8922 -1.7220  1.6003
 2700TIP3    H229736   6.501   0.141   7.013  0.4857  0.0464 -2.2976
 2701TIP3   OH229737   3.788   2.536   1.027  0.1178  0.1878 -0.0749
 2701TIP3    H129738   3.846   2.474   0.982 -1.1463 -0.6571 -0.5770
 2701TIP3    H229739   3.826   2.622   1.008  1.1206 -0.3301 -0.5070
 2702TIP3   OH229740   3.511   0.424   1.017  0.2514  0.2161 -0.0414
 2702TIP3    H129741   3.500   0.427   0.922 -1.1403  0.9394  0.1242
 2702TIP3    H229742   3.508   0.331   1.039 -2.1099  0.1444 -0.4486
 2703TIP3   OH229743   3.702   2.018   7.384  0.0835  0.2785  0.0294
 2703TIP3    H129744   3.608   2.037   7.377  0.6896  3.6027 -1.0489
 2703TIP3    H229745   3.732   2.073   7.457  1.3969  0.3742 -0.5568
 2704TIP3   OH229746   4.279   6.530   8.466 -0.1040  0.3090 -0.4387
 2704TIP3    H129747   4.319   6.493   8.544  1.5526  0.1501 -1.3234
 2704TIP3    H229748   4.191   6.491   8.464  0.7937 -1.9093 -0.1569
 2705TIP3   OH229749   5.337   5.683   1.854  0.7518  0.0414 -0.5084
 2705TIP3    H129750   5.347   5.593   1.885 -0.1853 -0.0680 -0.4999
 2705TIP3    H229751   5.243   5.699   1.854  0.8047  0.5559 -1.8451
 2706TIP3   OH229752   1.729   6.415   1.312 -0.6596 -0.6024  0.5521
 2706TIP3    H129753   1.674   6.339   1.298 -0.4927 -0.3729 -1.6541
 2706TIP3    H229754   1.805   6.382   1.360  0.4939 -2.3891 -2.2387
 2707TIP3   OH229755   3.426   5.627   6.010  0.1738 -0.3341  0.0323
 2707TIP3    H129756   3.392   5.571   5.940 -1.0374 -1.0550  1.1402
 2707TIP3    H229757   3.360   5.621   6.079  0.1727  2.1905  0.3574
 2708TIP3   OH229758   4.875   2.864   1.916 -0.4877  0.7724  0.0246
 2708TIP3    H129759   4.963   2.827   1.908 -1.1961 -1.5300  1.7596
 2708TIP3    H229760   4.822   2.814   1.853 -1.0639  0.1648  0.9643
 2709TIP3   OH229761   5.918   4.961   1.437  0.1581 -0.0393  0.1949
 2709TIP3    H129762   5.950   4.981   1.525  2.8425 -0.7612 -0.5364
 2709TIP3    H229763   5.900   4.867   1.437 -0.6707  0.1046  0.1732
 2710TIP3   OH229764   3.610   3.202   6.101 -0.1095 -0.2290  0.0936
 2710TIP3    H129765   3.588   3.278   6.047 -3.4662  0.1964  1.7668
 2710TIP3    H229766   3.702   3.214   6.123 -0.1750  2.6771 -0.7953
 2711TIP3   OH229767   5.707   2.318   7.430 -0.0654  0.0553  0.5200
 2711TIP3    H129768   5.640   2.347   7.492  1.3302  3.1882  0.7618
 2711TIP3    H229769   5.758   2.253   7.478 -0.8532  0.1547  1.5215
 2712TIP3   OH229770   0.979   6.077   2.191 -0.2309  0.0369 -0.6278
 2712TIP3    H129771   1.013   5.988   2.186  1.9028  0.7083  0.6216
 2712TIP3    H229772   0.993   6.113   2.103 -2.4194 -1.2245 -1.5678
 2713TIP3   OH229773   6.177   4.505   7.297  0.2408  0.5704  0.1878
 2713TIP3    H129774   6.110   4.565   7.263  0.8333  0.1423 -1.8906
 2713TIP3    H229775   6.149   4.419   7.267  1.2793  0.2875  0.0023
 2714TIP3   OH229776   1.714   5.470   0.379  0.1429  0.1886  0.2144
 2714TIP3    H129777   1.732   5.484   0.286 -1.2737 -3.0892 -0.7136
 2714TIP3    H229778   1.622   5.495   0.390 -0.6098 -2.1139 -0.1007
 2715TIP3   OH229779   5.627   2.718   8.416 -0.0140  0.2807  0.0198
 2715TIP3    H129780   5.567   2.763   8.356  0.8058 -0.4110 -1.3521
 2715TIP3    H229781   5.586   2.633   8.431  0.3507  0.0021 -0.5180
 2716TIP3   OH229782   0.591   0.408   7.801  0.1190  0.1940 -0.1614
 2716TIP3    H129783   0.593   0.393   7.895 -2.9011  2.8638  0.4863
 2716TIP3    H229784   0.676   0.450   7.782  0.0807  1.2168  1.7274
 2717TIP3   OH229785   6.581   0.078   8.542  0.1945  0.3787 -0.2295
 2717TIP3    H129786   6.593   0.157   8.488  0.8620 -0.6466 -1.6382
 2717TIP3    H229787   6.660   0.072   8.595  0.0565  0.7540  0.0224
 2718TIP3   OH229788   1.850   0.981   8.378  0.0272 -0.2684 -0.3373
 2718TIP3    H129789   1.825   0.890   8.362 -0.3888 -0.5935  1.8734
 2718TIP3    H229790   1.880   0.982   8.469  1.6315  1.4905 -0.8294
 2719TIP3   OH229791   2.799   3.499   7.448 -0.2227  0.4427 -0.3579
 2719TIP3    H129792   2.765   3.413   7.471  2.5149 -0.9218 -0.9791
 2719TIP3    H229793   2.861   3.520   7.518 -0.1332  1.4560 -0.7191
 2720TIP3   OH229794   3.244   6.254   6.263 -0.1815  0.1926  0.6510
 2720TIP3    H129795   3.221   6.192   6.332 -0.7023  1.2422  1.4401
 2720TIP3    H229796   3.323   6.297   6.295  0.8243 -0.7825 -0.3883
 2721TIP3   OH229797   3.192   0.068   7.385  0.2528  0.1963 -0.0659
 2721TIP3    H129798   3.119   0.060   7.446 -0.7093 -0.4609 -1.2319
 2721TIP3    H229799   3.225  -0.022   7.376  1.3186  0.5113  0.5620
 2722TIP3   OH229800   0.405   5.723   2.084 -0.4867  0.4356  0.2872
 2722TIP3    H129801   0.495   5.752   2.070  0.4812 -1.9288  1.0534
 2722TIP3    H229802   0.414   5.633   2.117 -3.1528 -0.3401 -0.8224
 2723TIP3   OH229803   2.527   6.254   8.661  0.5833 -0.5792 -0.7245
 2723TIP3    H129804   2.480   6.175   8.689 -1.1940  1.5892  3.2717
 2723TIP3    H229805   2.468   6.296   8.599 -1.0688  0.0843  1.1737
 2724TIP3   OH229806   5.459   5.792   7.859 -0.7506 -0.3688  0.0622
 2724TIP3    H129807   5.381   5.744   7.886 -1.7517  0.6705 -0.8284
 2724TIP3    H229808   5.443   5.812   7.766  0.9212 -0.7654 -0.3424
 2725TIP3   OH229809   0.845   1.063   7.981  0.0197 -0.5003 -0.1653
 2725TIP3    H129810   0.815   1.145   8.018  0.4830 -1.1818  1.8783
 2725TIP3    H229811   0.767   1.008   7.976 -0.2213 -0.0708 -1.1645
 2726TIP3   OH229812   5.736   2.603   1.134  0.3608 -0.0484  0.4291
 2726TIP3    H129813   5.728   2.520   1.086 -1.9883  0.6504 -0.5029
 2726TIP3    H229814   5.714   2.580   1.225  0.1297 -0.5236  0.2571
 2727TIP3   OH229815   0.716   2.375   6.194  0.3718  0.1651 -0.1295
 2727TIP3    H129816   0.660   2.343   6.124  1.0638  0.2559 -0.7414
 2727TIP3    H229817   0.776   2.436   6.151  1.9855 -1.1249  0.1641
 2728TIP3   OH229818   6.473   1.201   1.710  0.1205 -0.3268  0.2122
 2728TIP3    H129819   6.531   1.134   1.747 -0.5348 -0.1990  1.5145
 2728TIP3    H229820   6.530   1.276   1.694  0.4520 -0.4517  0.7884
 2729TIP3   OH229821   1.913   4.566   1.804 -0.3347 -0.1116 -0.5715
 2729TIP3    H129822   1.957   4.481   1.798  0.4915  0.1176  1.4471
 2729TIP3    H229823   1.976   4.628   1.766  0.5647  0.0279  1.0699
 2730TIP3   OH229824   3.684   6.142   7.156 -0.0040  0.0301 -0.0176
 2730TIP3    H129825   3.644   6.229   7.161  0.3314  0.1417  0.9382
 2730TIP3    H229826   3.615   6.082   7.184 -0.1266  0.0106 -0.3473
 2731TIP3   OH229827   2.112   6.401   8.558  0.4290  0.0285 -0.0794
 2731TIP3    H129828   2.047   6.411   8.628  0.2159 -1.7903  0.0212
 2731TIP3    H229829   2.060   6.395   8.478  0.6102  0.8666 -0.2679
 2732TIP3   OH229830   1.346   5.216   8.766 -0.0267 -0.1004  0.3745
 2732TIP3    H129831   1.354   5.306   8.734  1.7750  0.5360  2.3206
 2732TIP3    H229832   1.257   5.209   8.799 -0.4962  0.6483 -0.7173
 2733TIP3   OH229833   5.519   4.595   7.993  0.1640 -0.4286 -0.1695
 2733TIP3    H129834   5.475   4.672   7.957  1.5851 -0.0948 -1.2829
 2733TIP3    H229835   5.467   4.521   7.964 -0.1406  0.0031 -0.7292
 2734TIP3   OH229836   1.091   1.700   1.251  0.5072  0.0804 -0.5131
 2734TIP3    H129837   1.143   1.762   1.302  3.1242 -1.9641 -0.4814
 2734TIP3    H229838   1.075   1.627   1.311  0.4743 -0.7615 -1.5193
 2735TIP3   OH229839   4.097   3.583   7.155 -0.0050  0.7019 -0.3779
 2735TIP3    H129840   4.042   3.505   7.160 -0.5986  1.1791  2.8132
 2735TIP3    H229841   4.164   3.570   7.222 -0.8455  3.3374  1.1509
 2736TIP3   OH229842   5.881   2.095   2.112  0.1144  0.4026  0.0022
 2736TIP3    H129843   5.799   2.110   2.160  1.6624  0.9956  2.6811
 2736TIP3    H229844   5.894   2.000   2.118 -0.9223  0.1192 -1.5366
 2737TIP3   OH229845   0.262   3.961   7.212  0.3056  0.0913  0.2636
 2737TIP3    H129846   0.331   3.998   7.157  0.1841 -0.5924 -0.3656
 2737TIP3    H229847   0.228   3.887   7.161 -2.0801  1.4194 -0.2450
 2738TIP3   OH229848   3.437   1.464   6.915 -0.1012  0.0364  0.5371
 2738TIP3    H129849   3.472   1.418   6.838 -1.8364  0.5259 -0.5818
 2738TIP3    H229850   3.455   1.556   6.899  1.3856  0.0116  1.7503
 2739TIP3   OH229851   6.661   6.234   0.496 -0.1906 -0.1347 -0.0145
 2739TIP3    H129852   6.577   6.254   0.456  0.0689  0.7181 -0.1448
 2739TIP3    H229853   6.693   6.158   0.447 -1.4533 -1.3087  0.8761
 2740TIP3   OH229854   6.173   0.624   0.959 -0.2958  0.2110  1.0141
 2740TIP3    H129855   6.104   0.558   0.952 -0.1008  0.1253 -0.2331
 2740TIP3    H229856   6.254   0.574   0.968 -0.1046  0.2472 -0.3125
 2741TIP3   OH229857   2.276   0.953   6.572  0.1293 -0.1728  0.0410
 2741TIP3    H129858   2.350   0.932   6.629  0.7356 -1.1980 -1.0891
 2741TIP3    H229859   2.228   1.021   6.620  1.2562 -0.1715  1.2310
 2742TIP3   OH229860   0.223   3.935   7.528  0.4564 -0.3615 -0.1524
 2742TIP3    H129861   0.219   3.839   7.529 -0.0748 -0.4039 -2.0307
 2742TIP3    H229862   0.277   3.956   7.452  0.1389  0.8337 -0.0738
 2743TIP3   OH229863   1.180   1.003   8.242  0.0514  0.0409 -0.0996
 2743TIP3    H129864   1.201   1.020   8.150 -0.8005 -2.7082 -0.8982
 2743TIP3    H229865   1.085   1.011   8.248  0.1225  0.4598  0.6206
 2744TIP3   OH229866   0.727   6.242   7.800 -0.3537  0.1063  0.4501
 2744TIP3    H129867   0.695   6.154   7.781  0.4770 -0.2050  0.4660
 2744TIP3    H229868   0.805   6.252   7.746 -0.7258  1.0339  0.0608
 2745TIP3   OH229869   2.169   2.109   7.927  0.3851  0.2936  0.0345
 2745TIP3    H129870   2.199   2.168   7.858  3.4910  1.0276  1.8297
 2745TIP3    H229871   2.080   2.084   7.900  0.8506  1.7442 -3.3628
 2746TIP3   OH229872   5.317   3.093   7.998  0.2995 -0.6703 -0.4777
 2746TIP3    H129873   5.396   3.038   7.996 -0.6621 -2.1508  0.1046
 2746TIP3    H229874   5.254   3.041   8.048 -0.5678  1.1567  0.3978
 2747TIP3   OH229875   5.316   5.717   7.303  0.9104 -0.1207 -0.0440
 2747TIP3    H129876   5.295   5.648   7.239  2.7322 -0.5533 -0.2282
 2747TIP3    H229877   5.299   5.799   7.257 -2.9682 -0.3129  0.7298
 2748TIP3   OH229878   1.357   0.741   1.186  0.0358 -0.3128  0.0742
 2748TIP3    H129879   1.280   0.693   1.218  0.3288 -0.1327  1.0950
 2748TIP3    H229880   1.329   0.832   1.181  0.2093 -0.2260  0.5800
 2749TIP3   OH229881   0.445   0.211   0.339 -0.0742 -0.8612 -0.5119
 2749TIP3    H129882   0.518   0.268   0.364 -0.6365 -0.3763  0.0822
 2749TIP3    H229883   0.464   0.128   0.382  0.6881 -1.0943 -1.2762
 2750TIP3   OH229884   4.048   1.269   6.605  0.3654  0.0373  0.0654
 2750TIP3    H129885   3.992   1.318   6.665 -0.1449  0.5637 -0.8329
 2750TIP3    H229886   3.993   1.252   6.528  1.1818 -0.1358 -0.4962
 2751TIP3   OH229887   0.433   3.390   8.182  0.2456 -0.0695  0.2555
 2751TIP3    H129888   0.478   3.406   8.265  1.9267  1.0955 -0.8002
 2751TIP3    H229889   0.359   3.450   8.183  0.6697  0.4612  0.6340
 2752TIP3   OH229890   1.843   0.319   0.998 -0.4940 -0.2809 -0.0420
 2752TIP3    H129891   1.780   0.328   1.069 -1.1085 -2.0245 -0.3053
 2752TIP3    H229892   1.874   0.228   1.006  0.8942  0.1018 -0.8059
 2753TIP3   OH229893   1.609   4.431   7.777 -0.0145 -0.4397  0.2911
 2753TIP3    H129894   1.585   4.380   7.700 -1.3847 -1.8053  1.5697
 2753TIP3    H229895   1.527   4.470   7.807  0.3459 -0.5777  1.5157
 2754TIP3   OH229896   5.035   3.621   1.733  0.4429 -0.2924  0.0030
 2754TIP3    H129897   5.030   3.706   1.776  0.8086 -1.0421  1.6158
 2754TIP3    H229898   4.944   3.596   1.717  0.3347  0.3763 -0.4380
 2755TIP3   OH229899   5.603   0.524   7.153 -0.2575  0.2623  0.4202
 2755TIP3    H129900   5.542   0.510   7.080 -2.0773 -2.0872  2.2555
 2755TIP3    H229901   5.547   0.548   7.227  1.0498 -1.3833  2.0241
 2756TIP3   OH229902   5.248   4.146   7.834  0.1214  0.2360 -0.0788
 2756TIP3    H129903   5.287   4.060   7.817  2.9414  1.2678  0.4784
 2756TIP3    H229904   5.196   4.134   7.913 -0.9807 -1.3115 -0.9915
 2757TIP3   OH229905   4.242   4.857   0.474  0.6810 -0.5210  0.0786
 2757TIP3    H129906   4.335   4.837   0.487  1.0945  0.8441 -0.6587
 2757TIP3    H229907   4.239   4.951   0.455 -0.5503 -0.9663 -2.4733
 2758TIP3   OH229908   5.853   0.496   0.434 -0.2690  0.1088 -0.6242
 2758TIP3    H129909   5.834   0.568   0.493  1.0856 -1.0418  1.3316
 2758TIP3    H229910   5.769   0.453   0.420 -0.4990 -0.0474  1.1183
 2759TIP3   OH229911   4.245   5.870   7.605 -0.7679 -0.0814  0.3400
 2759TIP3    H129912   4.324   5.853   7.658 -1.5681 -2.0625  0.9977
 2759TIP3    H229913   4.215   5.956   7.634  1.8003  1.2993 -0.8179
 2760TIP3   OH229914   3.053   1.513   6.939  0.2569 -0.0415  0.0537
 2760TIP3    H129915   3.074   1.422   6.916  0.2246 -0.9422  3.1162
 2760TIP3    H229916   3.135   1.550   6.970 -0.2276  0.0830  1.2741
 2761TIP3   OH229917   1.276   2.289   0.387 -0.5342  0.0537  0.4283
 2761TIP3    H129918   1.206   2.355   0.383 -0.6471 -0.0353  0.8428
 2761TIP3    H229919   1.292   2.278   0.481 -0.9168 -0.9312  0.3896
 2762TIP3   OH229920   5.444   6.253   7.987  0.2664  0.1312 -0.0531
 2762TIP3    H129921   5.361   6.277   7.947  0.7379  1.1759 -0.4253
 2762TIP3    H229922   5.493   6.208   7.918  0.6982  1.0776 -0.3728
 2763TIP3   OH229923   0.664   2.582   6.560  0.0902  0.0698  1.0531
 2763TIP3    H129924   0.646   2.658   6.505  0.9362 -0.6294 -0.2612
 2763TIP3    H229925   0.760   2.578   6.564  0.0733 -1.2712  0.5704
 2764TIP3   OH229926   5.386   2.258   0.412  0.3209 -0.3043  0.2561
 2764TIP3    H129927   5.465   2.240   0.361  1.0718 -0.8104  1.5443
 2764TIP3    H229928   5.377   2.182   0.470 -0.0208  0.6400  1.4697
 2765TIP3   OH229929   6.834   6.547   6.885 -0.1508  0.4162 -0.0584
 2765TIP3    H129930   6.896   6.486   6.846  0.4660  0.7212  0.4090
 2765TIP3    H229931   6.818   6.513   6.973 -1.0595  0.0569 -0.3626
 2766TIP3   OH229932   3.589   5.123   0.047  0.3142 -0.1279  0.4765
 2766TIP3    H129933   3.505   5.115   0.001  0.8154  0.0330 -0.4910
 2766TIP3    H229934   3.579   5.066   0.124  0.0734 -1.7956 -0.7385
 2767TIP3   OH229935   2.062   6.698   1.172 -0.1961  0.3352 -0.4691
 2767TIP3    H129936   2.096   6.611   1.196 -0.4458  0.6315  1.0702
 2767TIP3    H229937   2.133   6.739   1.123  0.2101 -0.4584 -0.5645
 2768TIP3   OH229938   3.353   4.671   0.054 -0.0605  0.2900 -0.0178
 2768TIP3    H129939   3.334   4.702   0.143  0.4158 -0.1083  0.2315
 2768TIP3    H229940   3.286   4.711  -0.001  0.3098  1.4488  0.3545
 2769TIP3   OH229941   3.987   2.530   2.058 -0.3140 -0.3622 -0.5479
 2769TIP3    H129942   3.943   2.480   1.990  0.6126  1.9853 -3.0425
 2769TIP3    H229943   3.936   2.611   2.065  0.8600  0.3526 -0.0449
 2770TIP3   OH229944   2.265   4.121   7.387  0.2359 -0.6921  0.0203
 2770TIP3    H129945   2.232   4.081   7.468 -0.8639  0.9161  0.4350
 2770TIP3    H229946   2.234   4.063   7.318 -0.1702 -1.2748  0.6666
 2771TIP3   OH229947   0.548   1.006   7.698  0.0157  1.0916  0.0019
 2771TIP3    H129948   0.518   1.094   7.720 -1.6175  0.4225  0.5812
 2771TIP3    H229949   0.480   0.971   7.641  1.7714  0.9889 -2.1977
 2772TIP3   OH229950   3.513   1.735   6.950  0.1397 -0.3398 -0.4260
 2772TIP3    H129951   3.565   1.755   6.872  0.9098 -1.8077 -0.3154
 2772TIP3    H229952   3.549   1.792   7.018  0.0520  0.3030 -0.9053
 2773TIP3   OH229953   0.268   0.329   8.405 -0.1805 -0.0755  0.1841
 2773TIP3    H129954   0.329   0.331   8.479 -0.5574  0.9403  0.4732
 2773TIP3    H229955   0.225   0.243   8.413  1.5101 -1.0201 -0.3002
 2774TIP3   OH229956   2.394   0.644   0.884 -0.5060  0.1617 -0.2822
 2774TIP3    H129957   2.424   0.730   0.912 -1.3364 -0.1569  1.7687
 2774TIP3    H229958   2.407   0.644   0.789  1.9615  1.5420 -0.0308
 2775TIP3   OH229959   0.971   1.193   0.789  0.3157 -0.4220  0.4869
 2775TIP3    H129960   1.059   1.183   0.827  0.7017 -0.4303 -0.3835
 2775TIP3    H229961   0.987   1.216   0.698 -0.5642  1.7190  0.8192
 2776TIP3   OH229962   5.814   1.916   8.314  0.3288 -0.6465 -0.0819
 2776TIP3    H129963   5.866   1.884   8.388 -0.7382 -0.0551  0.9517
 2776TIP3    H229964   5.875   1.966   8.260  1.1079 -1.0588  0.4135
 2777TIP3   OH229965   2.068   1.180   8.463 -0.3399  0.2890 -0.1847
 2777TIP3    H129966   2.123   1.245   8.507 -2.6694  0.2275  3.1783
 2777TIP3    H229967   2.001   1.232   8.418 -1.5311  0.3089  1.5491
 2778TIP3   OH229968   6.230   3.990   8.458  0.3164  0.7155 -0.1307
 2778TIP3    H129969   6.259   3.918   8.514 -1.0780 -0.6628 -1.0779
 2778TIP3    H229970   6.307   4.046   8.448  2.3727 -2.1025 -1.5959
 2779TIP3   OH229971   0.731   2.462   0.333 -0.0449  0.3739 -0.4338
 2779TIP3    H129972   0.689   2.452   0.248 -0.9422  1.8627 -0.1975
 2779TIP3    H229973   0.733   2.373   0.369 -0.7213 -0.1018 -1.5087
 2780TIP3   OH229974   5.582   0.293   6.770  0.0882  0.1155 -0.0425
 2780TIP3    H129975   5.648   0.322   6.708 -0.1095  1.0836  0.1814
 2780TIP3    H229976   5.544   0.215   6.729  0.4278  0.3405 -0.8142
 2781TIP3   OH229977   4.678   5.614   0.965  0.1172 -0.0516  0.1120
 2781TIP3    H129978   4.630   5.575   1.038 -1.0675  0.8194 -0.1740
 2781TIP3    H229979   4.686   5.707   0.988  1.5867 -0.1441  0.0935
 2782TIP3   OH229980   4.678   1.865   7.758  0.0133  0.1838  0.0756
 2782TIP3    H129981   4.634   1.937   7.804  0.6152  0.4680  0.2266
 2782TIP3    H229982   4.653   1.787   7.807  1.2943  0.5731  1.4302
 2783TIP3   OH229983   0.362   2.001   7.262 -0.0736 -0.7688 -0.5039
 2783TIP3    H129984   0.423   1.951   7.207 -0.3186 -1.1729 -0.4140
 2783TIP3    H229985   0.384   1.976   7.351  1.1968  0.8799 -0.3223
 2784TIP3   OH229986   4.487   4.328   0.349 -0.7671 -0.0804  0.7924
 2784TIP3    H129987   4.510   4.252   0.296 -0.9263  0.3066  0.1559
 2784TIP3    H229988   4.539   4.399   0.312 -1.3632  0.3339  0.7396
 2785TIP3   OH229989   0.688   5.721   6.453  0.3361  0.1678 -0.2493
 2785TIP3    H129990   0.732   5.637   6.467 -0.4075 -0.4156 -1.3248
 2785TIP3    H229991   0.607   5.699   6.409 -0.6654  1.3082  0.9369
 2786TIP3   OH229992   3.161   5.797   0.449 -0.5703  0.3533  0.2723
 2786TIP3    H129993   3.125   5.709   0.438  0.7088 -0.2466  0.7413
 2786TIP3    H229994   3.168   5.832   0.359 -2.8302  0.7456  0.1826
 2787TIP3   OH229995   5.436   0.399   1.368 -0.6081 -0.5561  0.2275
 2787TIP3    H129996   5.482   0.349   1.300 -0.2711  0.2340 -0.1507
 2787TIP3    H229997   5.476   0.370   1.450 -0.5130 -0.9990  0.0292
 2788TIP3   OH229998   0.662   0.975   1.165  0.1234 -0.4332  0.3643
 2788TIP3    H129999   0.602   1.008   1.099 -0.2079  0.3661  1.0580
 2788TIP3    H230000   0.607   0.924   1.224  0.5832 -2.0556 -0.5441
 2789TIP3   OH230001   3.625   4.763   1.152  0.1469  0.0479 -0.0676
 2789TIP3    H130002   3.709   4.808   1.155  0.5352 -0.7015  0.7004
 2789TIP3    H230003   3.596   4.760   1.244 -1.4826  1.6816 -0.4684
 2790TIP3   OH230004   1.156   6.631   0.267 -0.2035  0.2791 -0.2277
 2790TIP3    H130005   1.193   6.560   0.215 -0.1215  1.1225 -1.3721
 2790TIP3    H230006   1.177   6.710   0.217  2.5786  1.5127  2.5494
 2791TIP3   OH230007   2.135   3.945   0.820 -0.7738 -0.0022 -0.3560
 2791TIP3    H130008   2.094   3.913   0.740 -0.2544 -1.2039 -0.1722
 2791TIP3    H230009   2.062   3.978   0.873 -1.4819 -1.7578 -0.1813
 2792TIP3   OH230010   4.013   2.960   6.941  0.1675 -0.3199 -0.7083
 2792TIP3    H130011   4.099   2.922   6.959 -0.2033 -0.8655 -0.0218
 2792TIP3    H230012   3.965   2.891   6.895  0.1048 -0.0156 -1.0998
 2793TIP3   OH230013   3.538   2.661   1.380 -0.0056 -0.5474  0.0031
 2793TIP3    H130014   3.519   2.651   1.287 -0.5014  0.1738  0.0157
 2793TIP3    H230015   3.630   2.687   1.383 -0.5101  1.4716 -0.4392
 2794TIP3   OH230016   6.555   1.331   2.149 -0.5254 -0.0978  0.1516
 2794TIP3    H130017   6.573   1.238   2.132  2.0770  0.2433  0.6789
 2794TIP3    H230018   6.473   1.331   2.197 -0.2036 -2.2073  0.7941
 2795TIP3   OH230019   0.994   5.225   7.193  0.2306  0.4389  0.0384
 2795TIP3    H130020   1.046   5.294   7.233 -0.2352 -0.0836  1.6322
 2795TIP3    H230021   1.017   5.146   7.243  0.3675 -0.4701 -1.3986
 2796TIP3   OH230022   0.084   3.249   1.496  0.0188 -0.0971  0.4104
 2796TIP3    H130023   0.023   3.323   1.501 -0.7390 -0.7369  0.9343
 2796TIP3    H230024   0.168   3.288   1.471 -0.0220  1.1341  2.0370
 2797TIP3   OH230025   0.539   6.767   6.403  0.2875 -0.1541 -0.3116
 2797TIP3    H130026   0.489   6.746   6.324  0.3409 -1.7716  0.0400
 2797TIP3    H230027   0.488   6.835   6.447  0.0340  0.4579 -1.5023
 2798TIP3   OH230028   3.112   5.122   6.367  0.0415 -0.5144 -0.3495
 2798TIP3    H130029   3.037   5.072   6.335 -0.3616 -0.4806  0.5014
 2798TIP3    H230030   3.077   5.209   6.385 -0.0485 -0.8294  1.2296
 2799TIP3   OH230031   3.323   2.797   0.197  0.3661 -0.1686  0.7841
 2799TIP3    H130032   3.346   2.759   0.112 -0.8992  1.2173 -0.2361
 2799TIP3    H230033   3.256   2.739   0.233  1.0347 -0.8583  0.9387
 2800TIP3   OH230034   3.695   2.060   6.649 -0.2747 -0.0377 -0.0482
 2800TIP3    H130035   3.646   2.135   6.616  0.0345 -0.0677 -0.5811
 2800TIP3    H230036   3.695   1.997   6.577  2.0723  0.6622 -0.7258
 2801TIP3   OH230037   1.442   3.001   6.935  0.0111  0.1837 -0.2818
 2801TIP3    H130038   1.377   3.006   6.865  0.7946  0.3074 -1.0128
 2801TIP3    H230039   1.486   2.917   6.921 -1.0292 -0.6419  1.1634
 2802TIP3   OH230040   0.188   6.210   8.380  0.2441 -0.7081 -0.0263
 2802TIP3    H130041   0.188   6.259   8.461  0.6177 -0.2686 -0.2899
 2802TIP3    H230042   0.161   6.121   8.405 -4.0253  0.3797 -0.0355
 2803TIP3   OH230043   2.943   3.698   0.607 -0.3027 -0.3323 -0.0314
 2803TIP3    H130044   2.939   3.701   0.703 -0.8432  0.5753 -0.0602
 2803TIP3    H230045   2.944   3.605   0.585 -0.1467 -0.5496  0.8581
 2804TIP3   OH230046   5.876   3.430   8.646 -0.1421 -1.0684  0.3291
 2804TIP3    H130047   5.853   3.523   8.645 -2.2691 -1.5200  1.5330
 2804TIP3    H230048   5.868   3.402   8.555 -0.7748 -0.3459  0.1546
 2805TIP3   OH230049   4.327   5.881   6.996  0.5486 -0.0696 -0.8549
 2805TIP3    H130050   4.248   5.828   7.011  1.3397 -0.8240  1.1157
 2805TIP3    H230051   4.294   5.966   6.966 -1.0901 -0.0789  0.7304
 2806TIP3   OH230052   6.118   1.283   1.473  0.4666 -0.4742 -0.3704
 2806TIP3    H130053   6.026   1.304   1.484  0.8141  1.3548 -0.6160
 2806TIP3    H230054   6.156   1.361   1.433  2.1683 -1.0906 -0.0505
 2807TIP3   OH230055   2.819   1.566   7.120  0.0885 -0.0619  0.0764
 2807TIP3    H130056   2.860   1.580   7.205 -0.8458  1.5329  0.3034
 2807TIP3    H230057   2.890   1.576   7.057  0.1437  2.4714  0.4733
 2808TIP3   OH230058   6.016   4.241   7.252  0.3373  0.6458  0.0019
 2808TIP3    H130059   6.088   4.191   7.213 -0.4759 -0.2246 -0.4399
 2808TIP3    H230060   5.945   4.233   7.188  0.3533  2.8761 -0.3498
 2809TIP3   OH230061   3.789   4.299   0.074  0.0686 -0.1230 -0.0113
 2809TIP3    H130062   3.837   4.345   0.143 -0.0259  0.1267 -0.1132
 2809TIP3    H230063   3.706   4.345   0.068 -0.2755 -0.6875  0.3167
 2810TIP3   OH230064   5.580   4.701   0.924  0.0846 -0.0055  0.0199
 2810TIP3    H130065   5.582   4.606   0.914 -0.5098  0.0592 -0.8338
 2810TIP3    H230066   5.514   4.730   0.861 -2.0167  0.6896  2.3775
 2811TIP3   OH230067   6.061   3.248   8.012 -0.2869 -0.2756  0.8546
 2811TIP3    H130068   6.112   3.175   8.046  0.7363 -0.1432 -0.3319
 2811TIP3    H230069   6.020   3.214   7.932 -1.3963 -0.1347  1.3556
 2812TIP3   OH230070   2.597   3.551   0.883  0.4771 -0.0201  0.0668
 2812TIP3    H130071   2.651   3.496   0.826 -0.7680 -1.9242  0.6085
 2812TIP3    H230072   2.617   3.522   0.972  1.4161  1.9932  0.5494
 2813TIP3   OH230073   5.936   1.604   0.243  0.0451 -0.0895 -0.0184
 2813TIP3    H130074   6.026   1.634   0.233  0.4516 -0.9186  0.9035
 2813TIP3    H230075   5.918   1.552   0.165 -0.1170  1.2067 -0.8561
 2814TIP3   OH230076   2.001   3.112   8.300  0.0347 -0.0811 -0.4146
 2814TIP3    H130077   2.027   3.141   8.212  0.1727 -3.2575 -1.5601
 2814TIP3    H230078   2.081   3.119   8.352  0.5884 -0.3622 -1.2083
 2815TIP3   OH230079   1.278   6.001   6.247  0.1701  0.5026 -0.2669
 2815TIP3    H130080   1.247   6.053   6.322  0.5411 -0.2921  0.4540
 2815TIP3    H230081   1.359   5.961   6.278 -1.5532 -2.8533  0.2712
 2816TIP3   OH230082   6.451   4.143   0.618  0.2245  0.1692  0.0289
 2816TIP3    H130083   6.539   4.151   0.581  0.6661  1.0279  1.1912
 2816TIP3    H230084   6.413   4.230   0.607  0.3735  0.4544  1.5284
 2817TIP3   OH230085   4.580   1.663   8.317 -0.2419  0.0015  0.0228
 2817TIP3    H130086   4.551   1.716   8.392 -0.2833  0.9981 -0.6768
 2817TIP3    H230087   4.506   1.664   8.257 -0.2169 -0.8111 -0.0271
 2818TIP3   OH230088   5.641   5.528   7.870  0.2030  0.3067  0.5479
 2818TIP3    H130089   5.563   5.493   7.914  2.3714 -1.2738  3.4676
 2818TIP3    H230090   5.654   5.614   7.910  0.8766 -0.1509  1.3340
 2819TIP3   OH230091   5.526   5.922   0.874 -0.1206 -0.1762 -0.2583
 2819TIP3    H130092   5.523   5.971   0.957 -1.2165  0.1329 -0.4552
 2819TIP3    H230093   5.444   5.946   0.830  0.3619 -0.4888 -1.3480
 2820TIP3   OH230094   3.282   6.819   6.883 -0.1309  0.0707 -0.1197
 2820TIP3    H130095   3.226   6.741   6.886 -0.7725  0.5005 -0.7254
 2820TIP3    H230096   3.336   6.807   6.804  1.5471 -0.9366  1.1078
 2821TIP3   OH230097   3.421   2.288   8.714 -0.0514 -0.0582  0.4916
 2821TIP3    H130098   3.415   2.367   8.660 -0.0017  0.8884  1.8504
 2821TIP3    H230099   3.395   2.217   8.654 -0.1226  0.9713 -0.7389
 2822TIP3   OH230100   6.421   0.855   7.671  0.0029  0.4945  0.0664
 2822TIP3    H130101   6.347   0.877   7.727 -0.0195  1.8235 -0.4279
 2822TIP3    H230102   6.437   0.936   7.621  0.0759 -0.5821 -1.7518
 2823TIP3   OH230103   3.054   2.330   7.584 -0.6316 -0.4146 -0.7953
 2823TIP3    H130104   2.965   2.356   7.611  0.3290  1.1406  1.2382
 2823TIP3    H230105   3.074   2.387   7.510 -1.4146 -0.9532 -1.4305
 2824TIP3   OH230106   5.059   2.752   1.027 -0.3914  0.1966  0.2202
 2824TIP3    H130107   4.996   2.733   1.097  0.4354  0.5436  1.0890
 2824TIP3    H230108   5.132   2.692   1.044  0.6732  1.6051  0.8453
 2825TIP3   OH230109   3.657   4.860   1.418  0.2450  0.0872  0.2039
 2825TIP3    H130110   3.742   4.866   1.461 -0.0366 -0.1717  0.8036
 2825TIP3    H230111   3.596   4.840   1.488 -0.7052  2.5512  0.1663
 2826TIP3   OH230112   4.475   2.992   6.902 -0.6232 -0.3139 -0.0545
 2826TIP3    H130113   4.420   3.071   6.897  0.5276  0.4841 -0.6147
 2826TIP3    H230114   4.519   2.989   6.817  1.7485  0.2576  1.0514
 2827TIP3   OH230115   0.612   4.404   7.535 -0.1172 -0.0298 -0.2434
 2827TIP3    H130116   0.535   4.376   7.485 -0.2692  0.9837 -0.5824
 2827TIP3    H230117   0.662   4.457   7.475 -0.0150  0.7378  0.5025
 2828TIP3   OH230118   6.667   1.664   0.783 -0.3178 -0.1106 -0.0258
 2828TIP3    H130119   6.614   1.642   0.707  0.5786 -0.9738 -0.4242
 2828TIP3    H230120   6.680   1.581   0.829  1.5959 -0.1513 -0.5557
 2829TIP3   OH230121   0.853   5.972   1.798  0.6324  0.0772  0.6704
 2829TIP3    H130122   0.877   6.009   1.883 -0.6809 -1.2110  1.6593
 2829TIP3    H230123   0.897   5.886   1.796 -0.2814 -0.4011  0.5834
 2830TIP3   OH230124   2.600   5.578   0.208 -0.0768  0.6755 -0.5959
 2830TIP3    H130125   2.681   5.619   0.237  0.3683 -0.3067 -0.4068
 2830TIP3    H230126   2.598   5.594   0.113  1.2335 -0.7606 -0.9020
 2831TIP3   OH230127   5.496   3.626   7.169  0.0372  0.2079  0.3983
 2831TIP3    H130128   5.480   3.715   7.200 -0.1040  0.3663 -0.1198
 2831TIP3    H230129   5.511   3.636   7.075 -1.7282 -0.5131  0.0081
 2832TIP3   OH230130   1.241   2.860   7.560 -0.0987 -0.0784 -0.2384
 2832TIP3    H130131   1.187   2.895   7.489  0.2500  2.5666  0.6563
 2832TIP3    H230132   1.183   2.859   7.636 -0.6796 -3.5675 -0.5815
 2833TIP3   OH230133   5.573   6.038   7.260  0.1446  0.3149 -0.0057
 2833TIP3    H130134   5.625   6.046   7.180 -1.5294 -2.8082 -1.5801
 2833TIP3    H230135   5.632   6.067   7.329  2.1832  1.7270 -2.1844
 2834TIP3   OH230136   4.646   6.043   8.169 -0.2997  0.1844 -0.2602
 2834TIP3    H130137   4.707   5.996   8.226 -1.0156 -0.0956  0.2858
 2834TIP3    H230138   4.690   6.044   8.084  0.8488  0.7302  0.3150
 2835TIP3   OH230139   5.169   1.384   7.202  0.0608  0.0396 -0.0510
 2835TIP3    H130140   5.137   1.304   7.159  0.5784  0.3874 -1.0924
 2835TIP3    H230141   5.235   1.353   7.263  0.1459 -0.3451 -0.3365
 2836TIP3   OH230142   3.848   2.027   8.198  0.1512  0.3536 -0.3166
 2836TIP3    H130143   3.767   2.078   8.205  0.4888  0.7687  0.7080
 2836TIP3    H230144   3.904   2.062   8.266  0.5487 -1.1140  0.1376
 2837TIP3   OH230145   3.242   1.018   0.538  0.5532  0.5502 -0.2304
 2837TIP3    H130146   3.305   1.084   0.568  1.4868  0.6185 -2.1406
 2837TIP3    H230147   3.184   1.066   0.479 -0.1676  0.1016  0.1038
 2838TIP3   OH230148   0.558   0.164   6.925  0.7554  0.2877 -0.7026
 2838TIP3    H130149   0.579   0.119   6.844  0.9509 -2.3622  0.7116
 2838TIP3    H230150   0.636   0.218   6.944  1.0444  0.2782 -1.8180
 2839TIP3   OH230151   3.595   0.768   0.326  0.0120 -0.1929  0.3477
 2839TIP3    H130152   3.620   0.677   0.342 -2.0402 -0.8276  0.2345
 2839TIP3    H230153   3.619   0.785   0.235  0.2776 -0.6795  0.3283
 2840TIP3   OH230154   4.731   1.396   1.082  0.3864  0.1153 -0.0560
 2840TIP3    H130155   4.741   1.445   1.000 -2.0143 -0.1151 -0.5444
 2840TIP3    H230156   4.736   1.463   1.150  1.5679  0.4191 -0.4147
 2841TIP3   OH230157   5.262   5.084   0.357  0.6031  0.2083  0.3522
 2841TIP3    H130158   5.355   5.104   0.356  0.8236 -0.5361  2.0399
 2841TIP3    H230159   5.233   5.110   0.445 -0.0234 -2.6052  1.0711
 2842TIP3   OH230160   5.041   3.933   8.723  0.6717 -0.3463  1.0662
 2842TIP3    H130161   5.136   3.927   8.735  0.7832 -1.4090 -0.0562
 2842TIP3    H230162   5.010   3.981   8.800  2.0783 -0.2538  1.6161
 2843TIP3   OH230163   6.509   0.930   8.271  0.2801 -0.0095 -0.0320
 2843TIP3    H130164   6.452   0.857   8.248 -2.0781  2.0814 -1.4632
 2843TIP3    H230165   6.498   0.940   8.365 -0.4180 -0.6809 -0.0342
 2844TIP3   OH230166   1.215   0.984   0.615  0.1750 -0.7448 -0.0549
 2844TIP3    H130167   1.300   0.966   0.574 -0.8518 -0.4038 -2.4823
 2844TIP3    H230168   1.232   1.059   0.672  1.7557 -1.4664  0.5048
 2845TIP3   OH230169   3.927   3.512   7.759  0.2541  0.2008  0.8108
 2845TIP3    H130170   3.918   3.425   7.719  2.2300 -0.1321  0.9923
 2845TIP3    H230171   3.866   3.511   7.832 -1.1980 -0.2857 -0.3592
 2846TIP3   OH230172   6.624   4.883   7.233 -0.0851 -0.5597  0.3390
 2846TIP3    H130173   6.624   4.970   7.193  0.5526 -0.9975 -0.6580
 2846TIP3    H230174   6.695   4.837   7.189 -1.1814 -1.9772 -0.0411
 2847TIP3   OH230175   1.882   0.968   1.342 -1.0022  0.0828  0.3463
 2847TIP3    H130176   1.829   0.912   1.286  0.1422 -1.3519  0.6207
 2847TIP3    H230177   1.917   0.909   1.409 -0.0899  1.2098  0.9135
 2848TIP3   OH230178   3.203   0.782   8.175  0.8547  0.2003 -0.2194
 2848TIP3    H130179   3.136   0.727   8.135  0.1180 -0.6022  1.9311
 2848TIP3    H230180   3.160   0.867   8.187  1.4951  0.8410 -2.1749
 2849TIP3   OH230181   6.598   0.242   7.149 -0.0359 -0.5451  0.1457
 2849TIP3    H130182   6.674   0.300   7.157 -1.0447  0.9696 -0.7708
 2849TIP3    H230183   6.554   0.249   7.234  0.5085 -0.9526  0.4691
 2850TIP3   OH230184   3.225   5.305   2.227  0.0201 -0.0629  0.3942
 2850TIP3    H130185   3.179   5.344   2.301 -2.9565 -1.9308 -0.3016
 2850TIP3    H230186   3.210   5.366   2.154  0.5448  0.3890  0.6570
 2851TIP3   OH230187   6.253   6.234   7.095 -0.3052  0.4152 -0.2718
 2851TIP3    H130188   6.231   6.270   7.009  0.8271  0.8475 -0.3957
 2851TIP3    H230189   6.327   6.287   7.125 -0.3894 -0.0325  0.7675
 2852TIP3   OH230190   4.121   4.273   7.701  0.0952 -0.2017  0.2142
 2852TIP3    H130191   4.199   4.312   7.742 -0.2205 -0.9173  1.5650
 2852TIP3    H230192   4.053   4.339   7.712 -0.0027 -0.4168  0.9035
 2853TIP3   OH230193   4.244   0.922   1.438 -0.0533 -0.5703  0.2567
 2853TIP3    H130194   4.319   0.865   1.421 -0.2781 -0.1109 -2.8561
 2853TIP3    H230195   4.268   1.005   1.396 -0.5976  1.0388  2.8889
 2854TIP3   OH230196   1.878   2.355   0.366  0.1072  0.5930  0.1004
 2854TIP3    H130197   1.902   2.313   0.449  1.2641  0.1860 -0.4111
 2854TIP3    H230198   1.802   2.306   0.335  0.8376 -0.5091  0.0013
 2855TIP3   OH230199   3.518   3.708   6.899  0.0214 -0.1966  0.9477
 2855TIP3    H130200   3.602   3.724   6.855 -1.9940  3.1083 -2.3233
 2855TIP3    H230201   3.514   3.775   6.968  0.3563 -0.8962  1.6613
 2856TIP3   OH230202   4.248   0.190   7.980 -0.2560 -0.0719 -0.3672
 2856TIP3    H130203   4.195   0.120   8.018 -1.0873 -0.1064 -1.5259
 2856TIP3    H230204   4.198   0.270   7.997  1.7937  0.6538  3.0252
 2857TIP3   OH230205   0.248   5.260   6.778  0.4548 -0.1840 -0.3551
 2857TIP3    H130206   0.303   5.288   6.705  1.6971  0.5369  0.8033
 2857TIP3    H230207   0.310   5.235   6.846 -0.6692 -1.6071  0.1984
 2858TIP3   OH230208   6.696   1.883   1.849  0.4288  0.2374 -0.4261
 2858TIP3    H130209   6.786   1.880   1.881  0.9635 -2.3829 -1.9144
 2858TIP3    H230210   6.643   1.893   1.928  1.9674  1.7720  0.4971
 2859TIP3   OH230211   0.445   3.330   0.962  0.8833 -0.4902 -0.7843
 2859TIP3    H130212   0.415   3.304   1.049 -0.2898 -2.3760 -1.6887
 2859TIP3    H230213   0.541   3.329   0.969  0.8076 -0.4554  0.5175
 2860TIP3   OH230214   1.909   4.706   8.542 -0.0952  0.0734  0.2266
 2860TIP3    H130215   1.827   4.746   8.572  0.4751  1.7412 -0.2930
 2860TIP3    H230216   1.971   4.721   8.614  0.1376  0.1477  0.0122
 2861TIP3   OH230217   4.923   5.196   6.102  0.2479  0.7946  0.0116
 2861TIP3    H130218   4.974   5.120   6.131 -0.6034  0.0287 -0.4686
 2861TIP3    H230219   4.985   5.248   6.050  0.7108  0.1946 -0.0483
 2862TIP3   OH230220   2.569   1.192   0.295  0.1646 -0.3517 -0.5778
 2862TIP3    H130221   2.633   1.238   0.350  1.7470 -1.7490 -1.1587
 2862TIP3    H230222   2.585   1.225   0.206  0.4334 -1.0741 -0.8025
 2863TIP3   OH230223   4.322   4.008   2.696 -0.2686  0.4951  0.4491
 2863TIP3    H130224   4.393   3.960   2.654 -0.8593  0.1691 -0.1813
 2863TIP3    H230225   4.313   4.088   2.644 -1.8110 -0.4593 -0.8348
 2864TIP3   OH230226   0.201   2.298   0.186 -0.2321 -0.3188  0.0628
 2864TIP3    H130227   0.141   2.245   0.133 -0.9289 -0.2871  0.8033
 2864TIP3    H230228   0.149   2.326   0.261  0.5374  0.2365  0.4065
 2865TIP3   OH230229   3.639   5.752   0.124 -0.1348  0.3967  0.3459
 2865TIP3    H130230   3.624   5.704   0.043 -0.5589  1.3112 -0.1399
 2865TIP3    H230231   3.625   5.688   0.194 -0.4645 -0.2285 -0.2836
 2866TIP3   OH230232   3.941   1.329   8.114  0.0792 -0.4085  0.4743
 2866TIP3    H130233   3.998   1.377   8.054 -1.5812  0.5812 -0.3877
 2866TIP3    H230234   3.853   1.342   8.078 -0.9314 -0.1556  2.8937
 2867TIP3   OH230235   3.627   3.183   7.757 -0.3276  0.0294  0.3913
 2867TIP3    H130236   3.592   3.179   7.846 -2.2331 -1.7867 -0.3693
 2867TIP3    H230237   3.559   3.144   7.702  1.7283 -1.0296 -1.5722
 2868TIP3   OH230238   6.561   2.896   8.641 -0.5622  0.1186  0.1701
 2868TIP3    H130239   6.605   2.952   8.577 -2.3968  0.9360 -0.4493
 2868TIP3    H230240   6.557   2.810   8.600  1.5927 -0.3459  0.8072
 2869TIP3   OH230241   1.415   0.072   7.774 -0.1366  0.2024  0.0548
 2869TIP3    H130242   1.420   0.116   7.858 -2.3459  0.8242 -0.0843
 2869TIP3    H230243   1.453   0.135   7.712  0.3502  0.2567  0.4036
 2870TIP3   OH230244   1.474   1.910   7.465 -0.0713  0.2553 -0.4307
 2870TIP3    H130245   1.386   1.889   7.436  0.0359 -0.8013 -0.0269
 2870TIP3    H230246   1.481   1.872   7.553  0.8189  0.2025 -0.5114
 2871TIP3   OH230247   1.266   0.657   8.644  0.3515  0.6861 -0.7028
 2871TIP3    H130248   1.339   0.695   8.693  0.6160 -1.1424  0.4350
 2871TIP3    H230249   1.189   0.674   8.698  0.8079 -2.4156  1.1750
 2872TIP3   OH230250   5.439   2.131   0.072 -0.1720  0.2397  0.2360
 2872TIP3    H130251   5.354   2.173   0.081 -0.0205  0.2294  1.9127
 2872TIP3    H230252   5.421   2.053   0.019 -0.8700  1.1362 -0.8946
 2873TIP3   OH230253   5.917   4.568   7.217 -0.0064 -0.1258  0.7982
 2873TIP3    H130254   5.876   4.655   7.213 -0.9242 -0.5603  0.1591
 2873TIP3    H230255   5.854   4.510   7.173  0.5889 -1.1162  1.2049
 2874TIP3   OH230256   0.642   0.258   8.256  0.0198 -0.5300  0.1665
 2874TIP3    H130257   0.714   0.321   8.251  1.4353 -2.0958 -0.1931
 2874TIP3    H230258   0.581   0.296   8.319  0.1824  1.7806 -0.9666
 2875TIP3   OH230259   0.876   5.097   1.339  0.0294  0.3783  0.2306
 2875TIP3    H130260   0.865   5.003   1.349 -0.6629  0.4231 -0.0024
 2875TIP3    H230261   0.863   5.112   1.245  2.8861  0.3740 -0.2481
 2876TIP3   OH230262   6.336   6.683   2.324  0.2615  0.5529  0.4723
 2876TIP3    H130263   6.262   6.739   2.345 -0.1528  0.3017 -0.2704
 2876TIP3    H230264   6.377   6.725   2.249  1.7177  1.4470  1.7252
 2877TIP3   OH230265   0.603   6.334   0.513 -0.1269  0.8214 -0.0139
 2877TIP3    H130266   0.511   6.352   0.492 -0.1657 -0.0387 -0.6760
 2877TIP3    H230267   0.601   6.296   0.601 -0.4172  0.7066 -0.0696
 2878TIP3   OH230268   5.988   1.777   8.489  0.5873  0.4743 -0.0587
 2878TIP3    H130269   5.932   1.803   8.562 -0.1285 -0.1097 -0.3851
 2878TIP3    H230270   6.066   1.740   8.530  0.1416  0.0486  0.4143
 2879TIP3   OH230271   2.989   0.165   1.233  0.3385  0.1707 -0.3171
 2879TIP3    H130272   2.902   0.159   1.273  0.3372 -0.8364 -0.4462
 2879TIP3    H230273   2.991   0.093   1.169  2.1316 -1.4660  1.4293
 2880TIP3   OH230274   4.758   3.874   1.981 -0.1070 -0.1066  0.3425
 2880TIP3    H130275   4.677   3.862   2.030 -0.0665 -1.1400  0.1726
 2880TIP3    H230276   4.740   3.948   1.923 -0.7281  0.0418  0.7166
 2881TIP3   OH230277   0.947   2.642   0.814 -0.1992  0.3576 -0.0544
 2881TIP3    H130278   0.922   2.552   0.838 -3.8682  1.6330  1.4903
 2881TIP3    H230279   1.022   2.661   0.870  0.7688 -1.7173 -0.5256
 2882TIP3   OH230280   4.839   0.040   6.984  0.0342 -0.0296 -0.2741
 2882TIP3    H130281   4.788  -0.041   6.985  0.3087 -0.2155  0.9747
 2882TIP3    H230282   4.809   0.087   6.906 -0.8922 -0.8507 -0.4296
 2883TIP3   OH230283   1.111   2.373   1.948  0.0900 -0.1961  0.3325
 2883TIP3    H130284   1.164   2.388   2.026  0.5578 -0.4559  0.0732
 2883TIP3    H230285   1.043   2.440   1.951 -0.7794 -1.1023  1.7195
 2884TIP3   OH230286   6.608   6.575   0.205  0.4101 -0.7170 -0.0745
 2884TIP3    H130287   6.558   6.591   0.285 -0.5564 -2.0520 -0.3772
 2884TIP3    H230288   6.545   6.533   0.146  0.8797  0.9171 -1.8347
 2885TIP3   OH230289   5.137   5.186   1.066  0.4129 -0.1945  0.9301
 2885TIP3    H130290   5.068   5.215   1.126  1.2871  0.0357  1.8627
 2885TIP3    H230291   5.212   5.243   1.087  0.7330 -0.0876 -0.4104
 2886TIP3   OH230292   6.103   0.570   2.157  0.3581 -0.5742 -0.0551
 2886TIP3    H130293   6.129   0.547   2.068  0.5691 -1.5213  0.2358
 2886TIP3    H230294   6.134   0.660   2.169 -0.6144 -0.0420 -1.2919
 2887TIP3   OH230295   4.823   0.454   8.618  0.0771 -0.2884  0.1096
 2887TIP3    H130296   4.882   0.386   8.648  1.0382  0.8810  0.9703
 2887TIP3    H230297   4.804   0.506   8.696 -1.2192  0.0198 -0.3714
 2888TIP3   OH230298   5.363   4.204   1.867  0.6114  0.0608  0.0597
 2888TIP3    H130299   5.414   4.229   1.944  1.9170 -3.0177  0.3484
 2888TIP3    H230300   5.401   4.120   1.839 -2.1026 -0.6899 -1.8195
 2889TIP3   OH230301   1.419   1.092   8.365  0.4135  0.5149  0.8101
 2889TIP3    H130302   1.493   1.091   8.304  0.7498  0.5048  1.2097
 2889TIP3    H230303   1.343   1.066   8.312  0.5187  1.4661  0.1788
 2890TIP3   OH230304   2.494   1.341   8.569  0.3352 -0.7324  1.1306
 2890TIP3    H130305   2.575   1.300   8.539  0.1060 -0.5708  0.2684
 2890TIP3    H230306   2.517   1.431   8.587  0.1078 -0.3487 -0.3167
 2891TIP3   OH230307   4.924   1.068   0.304 -0.0273  0.5107 -0.8724
 2891TIP3    H130308   4.872   0.991   0.325  0.3443  0.2624 -0.8587
 2891TIP3    H230309   4.963   1.048   0.218  0.9468  0.2196 -0.3719
 2892TIP3   OH230310   3.129   6.598   8.151  0.2756  0.2434 -0.0592
 2892TIP3    H130311   3.104   6.519   8.199 -1.4801  1.1335  0.5962
 2892TIP3    H230312   3.186   6.646   8.211  0.5073 -0.0512 -0.0467
 2893TIP3   OH230313   1.170   1.759   8.469  0.1893  0.1463 -0.3556
 2893TIP3    H130314   1.261   1.734   8.486 -0.2455 -0.7530  0.7648
 2893TIP3    H230315   1.132   1.684   8.423 -0.6260 -0.5810  1.3943
 2894TIP3   OH230316   1.569   4.775   8.434  0.0605 -0.1246  0.1030
 2894TIP3    H130317   1.530   4.766   8.347  0.9318  1.3836 -0.4927
 2894TIP3    H230318   1.608   4.863   8.433 -0.7601  0.3168  2.3613
 2895TIP3   OH230319   2.415   2.602   7.142 -0.5874 -0.1932 -0.5323
 2895TIP3    H130320   2.459   2.525   7.179 -1.9716 -0.7427  0.0534
 2895TIP3    H230321   2.433   2.598   7.048 -0.3104 -1.0149 -0.4506
 2896TIP3   OH230322   6.250   1.732   8.595 -0.9301 -0.6493 -0.1481
 2896TIP3    H130323   6.292   1.646   8.591 -1.5275 -1.2381  3.2531
 2896TIP3    H230324   6.321   1.794   8.574  0.4830 -1.8313  0.8746
 2897TIP3   OH230325   1.353   0.624   0.925  0.6495  0.2663  0.7831
 2897TIP3    H130326   1.445   0.608   0.902  1.3000  2.6503  1.4420
 2897TIP3    H230327   1.357   0.653   1.017 -0.9173 -0.7640  1.2060
 2898TIP3   OH230328   2.812   1.617   6.642 -0.1285  0.0259 -0.1386
 2898TIP3    H130329   2.856   1.550   6.590 -1.0909 -0.1531 -0.7379
 2898TIP3    H230330   2.879   1.647   6.704  1.4314  1.1071 -2.2348
 2899TIP3   OH230331   1.145   4.392   0.921 -0.0338 -0.6939  0.6142
 2899TIP3    H130332   1.143   4.296   0.913  1.0255 -0.6785  0.0319
 2899TIP3    H230333   1.082   4.411   0.990 -0.1554 -1.8250  0.8396
 2900TIP3   OH230334   5.808   5.988   7.055 -0.5075 -0.1063 -0.5669
 2900TIP3    H130335   5.894   5.989   7.097 -0.4656 -0.9046 -0.6241
 2900TIP3    H230336   5.827   5.977   6.962 -0.6397  0.7255 -0.7034
 2901TIP3   OH230337   3.374   0.421   0.747  0.3893 -0.0476  0.5397
 2901TIP3    H130338   3.291   0.428   0.701  1.7941  0.8423 -2.1089
 2901TIP3    H230339   3.393   0.328   0.748 -1.1466 -0.3932  2.2938
 2902TIP3   OH230340   3.143   4.085   2.162  0.3900  0.1151 -0.2653
 2902TIP3    H130341   3.164   3.992   2.175  0.7482  0.3885  1.4298
 2902TIP3    H230342   3.081   4.105   2.233  1.0288  1.3884 -0.0461
 2903TIP3   OH230343   1.701   3.290   0.131 -0.4496 -0.1381  0.3314
 2903TIP3    H130344   1.623   3.322   0.086  0.9573  1.8938 -0.8297
 2903TIP3    H230345   1.767   3.358   0.117  1.7370 -2.0356  0.7120
 2904TIP3   OH230346   0.876   4.444   8.641 -0.0349  0.4097 -0.9380
 2904TIP3    H130347   0.790   4.485   8.634  0.7075  2.4359  0.6846
 2904TIP3    H230348   0.923   4.473   8.562 -0.0255  1.4594 -0.5592
 2905TIP3   OH230349   1.172   0.839   7.399 -0.1201 -0.7316 -0.0607
 2905TIP3    H130350   1.175   0.851   7.494 -0.8688  1.0414 -0.2232
 2905TIP3    H230351   1.143   0.749   7.387  0.8901 -1.2923  1.3743
 2906TIP3   OH230352   5.656   4.566   0.305  0.1087 -0.2808  0.2386
 2906TIP3    H130353   5.699   4.645   0.272 -1.0479  0.4485  0.4537
 2906TIP3    H230354   5.679   4.563   0.398  0.9596 -0.7523  0.0281
 2907TIP3   OH230355   5.483   4.237   2.117 -0.4806  0.3912  0.1251
 2907TIP3    H130356   5.493   4.176   2.189  0.4366 -0.7885 -0.9571
 2907TIP3    H230357   5.503   4.323   2.155  0.0894 -0.2150  1.2371
 2908TIP3   OH230358   4.962   6.404   7.114  0.2061  0.4612 -0.0407
 2908TIP3    H130359   4.948   6.330   7.054  3.0335  0.4246 -0.8217
 2908TIP3    H230360   4.976   6.479   7.056 -0.4365  1.1637  0.6913
 2909TIP3   OH230361   4.291   0.548   1.440  0.0138 -0.1375  0.0977
 2909TIP3    H130362   4.263   0.627   1.394  0.4108  0.0142  0.1136
 2909TIP3    H230363   4.340   0.499   1.375 -1.0482 -0.8445 -0.2080
 2910TIP3   OH230364   6.703   4.890   8.620  0.3424 -0.0138  0.2066
 2910TIP3    H130365   6.772   4.952   8.644  1.7104 -0.6817 -1.7305
 2910TIP3    H230366   6.749   4.806   8.609 -1.3639 -1.3313  2.2372
 2911TIP3   OH230367   2.942   6.280   7.916 -0.2953  0.1182  0.0047
 2911TIP3    H130368   2.948   6.196   7.961 -1.0910 -1.0604 -1.9483
 2911TIP3    H230369   2.866   6.271   7.859 -1.4098  2.8039  0.9141
 2912TIP3   OH230370   1.772   5.904   7.875 -0.6739 -0.5523 -0.0228
 2912TIP3    H130371   1.835   5.972   7.852 -1.0402 -0.8339 -2.0395
 2912TIP3    H230372   1.823   5.841   7.926  1.6249 -2.2477 -3.9679
 2913TIP3   OH230373   4.513   1.843   8.523  0.3419  0.0296 -0.1483
 2913TIP3    H130374   4.514   1.938   8.537  1.2857 -0.0692  0.6463
 2913TIP3    H230375   4.591   1.812   8.570 -0.1695 -1.1850 -0.0656
 2914TIP3   OH230376   1.144   4.663   0.615  0.8267  0.4057  0.2106
 2914TIP3    H130377   1.179   4.751   0.616 -0.8660  1.1863  2.6839
 2914TIP3    H230378   1.058   4.671   0.573  1.0833 -0.3006 -0.4875
 2915TIP3   OH230379   0.593   0.615   8.073 -0.2298 -0.0963  0.2421
 2915TIP3    H130380   0.515   0.615   8.017  0.1779 -0.1244 -0.3313
 2915TIP3    H230381   0.567   0.564   8.150 -1.4281  1.5730  0.9918
 2916TIP3   OH230382   5.799   0.963   6.993 -0.3337 -0.2207 -0.2262
 2916TIP3    H130383   5.770   1.025   7.060  0.4491 -1.2857  1.1531
 2916TIP3    H230384   5.789   1.010   6.910  0.7306  1.9233  0.8015
 2917TIP3   OH230385   1.552   5.157   6.829  0.6285  0.2339  0.2661
 2917TIP3    H130386   1.478   5.192   6.780  2.0725  4.0817  0.5109
 2917TIP3    H230387   1.622   5.147   6.764  0.7945 -0.5334  0.5475
 2918TIP3   OH230388   3.100   1.508   1.718  0.4605  0.3525  0.2053
 2918TIP3    H130389   3.080   1.588   1.670 -2.1158  0.6307  1.5835
 2918TIP3    H230390   3.136   1.538   1.801  2.0030 -0.0429 -0.2913
 2919TIP3   OH230391   4.326   1.999   7.905  0.8530  0.3433  0.3747
 2919TIP3    H130392   4.325   1.905   7.918  1.2761  0.4171  0.9564
 2919TIP3    H230393   4.273   2.034   7.976  1.0007  0.5704  0.3728
 2920TIP3   OH230394   3.193   4.251   0.356  0.1438  0.0266  0.4791
 2920TIP3    H130395   3.099   4.249   0.334 -0.0012 -0.0990  1.0850
 2920TIP3    H230396   3.219   4.341   0.340  0.5617 -0.4831 -2.2166
 2921TIP3   OH230397   1.702   4.072   6.830 -0.8312  0.1860  0.4343
 2921TIP3    H130398   1.695   4.165   6.809 -0.5040  0.3533  1.0334
 2921TIP3    H230399   1.632   4.031   6.779  1.0538  0.2793 -2.4133
 2922TIP3   OH230400   0.976   5.958   1.126  0.6702  0.8530 -0.2529
 2922TIP3    H130401   1.038   5.898   1.167 -0.6757 -1.2424 -1.1310
 2922TIP3    H230402   1.015   5.979   1.042 -0.0760 -1.0919 -1.1472
 2923TIP3   OH230403   4.290   1.822   2.322  0.0054 -0.1302 -0.3208
 2923TIP3    H130404   4.330   1.879   2.257 -1.4802 -0.4691 -1.5964
 2923TIP3    H230405   4.196   1.827   2.304 -0.5180  0.0974  2.0972
 2924TIP3   OH230406   1.862   4.408   7.155  0.6568 -0.0619 -0.4746
 2924TIP3    H130407   1.835   4.419   7.064 -1.0060 -0.3600 -0.0444
 2924TIP3    H230408   1.852   4.314   7.172 -1.4320  0.3145  0.6972
 2925TIP3   OH230409   3.339   4.045   2.416  0.0719 -0.2779  0.4143
 2925TIP3    H130410   3.396   4.030   2.491 -1.7043 -0.7987  1.7294
 2925TIP3    H230411   3.274   3.975   2.422 -0.9339  0.5210 -0.8101
 2926TIP3   OH230412   2.318   4.512   1.646  0.0345 -0.8169  0.4693
 2926TIP3    H130413   2.300   4.576   1.714  1.7754 -1.2251  1.3658
 2926TIP3    H230414   2.275   4.432   1.677 -1.0886 -0.4297 -0.0466
 2927TIP3   OH230415   5.021   3.972   2.279  0.2784 -0.0669 -0.2994
 2927TIP3    H130416   4.974   3.889   2.282 -1.1616  0.6703 -1.3207
 2927TIP3    H230417   5.094   3.960   2.341 -1.3325 -1.1815  1.5076
 2928TIP3   OH230418   0.607   5.394   1.939  0.1981 -0.0860 -0.5846
 2928TIP3    H130419   0.561   5.396   1.855 -1.2120 -2.7031 -0.0097
 2928TIP3    H230420   0.621   5.486   1.961 -1.7304  0.7548 -2.4414
 2929TIP3   OH230421   1.497   4.533   0.295  0.2059 -0.3369  0.2255
 2929TIP3    H130422   1.513   4.543   0.389 -2.3005  0.5055  0.6470
 2929TIP3    H230423   1.417   4.481   0.290  0.3324 -0.4253 -1.4663
 2930TIP3   OH230424   3.439   0.528   6.998 -0.1276 -0.5100 -0.0284
 2930TIP3    H130425   3.355   0.555   7.033 -0.2254 -0.3409 -0.3852
 2930TIP3    H230426   3.431   0.541   6.903  0.3320 -0.3945 -0.0551
 2931TIP3   OH230427   6.833   5.708   8.792  0.3487 -0.0360 -0.1290
 2931TIP3    H130428   6.881   5.776   8.839  0.2867 -0.7326  0.9710
 2931TIP3    H230429   6.766   5.756   8.743 -1.3694  0.5930  2.6067
 2932TIP3   OH230430   3.226   3.104   0.400 -0.6738 -0.0033  0.3457
 2932TIP3    H130431   3.262   3.045   0.333  0.6969  0.9891  0.1756
 2932TIP3    H230432   3.131   3.088   0.396 -0.3480 -2.4155  0.5429
 2933TIP3   OH230433   3.668   0.410   1.298  0.2060 -0.0081  0.6222
 2933TIP3    H130434   3.595   0.473   1.297 -1.4509 -1.7922  2.0835
 2933TIP3    H230435   3.741   0.459   1.336 -1.0212  1.0404  1.7363
 2934TIP3   OH230436   6.822   0.507   1.122  0.2264  0.2526 -0.1578
 2934TIP3    H130437   6.842   0.601   1.120 -1.1413  0.5675  0.1234
 2934TIP3    H230438   6.731   0.501   1.095  0.8088 -1.1893 -1.9936
 2935TIP3   OH230439   4.612   3.464   2.374  0.1136 -0.0845  0.5358
 2935TIP3    H130440   4.521   3.438   2.386  0.6751 -1.9739  0.9199
 2935TIP3    H230441   4.616   3.553   2.410 -1.7338  0.3774 -0.2598
 2936TIP3   OH230442   1.837   1.844   2.391 -0.4164 -0.1123 -0.0407
 2936TIP3    H130443   1.874   1.921   2.435  0.8560 -0.0535 -1.1244
 2936TIP3    H230444   1.743   1.853   2.401 -0.2545  1.1775  0.5361
 2937TIP3   OH230445   3.632   3.566   0.578 -0.0731  0.1211 -0.0662
 2937TIP3    H130446   3.723   3.542   0.561  0.8909  2.3542  1.5104
 2937TIP3    H230447   3.594   3.489   0.622  1.7252 -0.0467  1.2969
 2938TIP3   OH230448   6.359   2.824   0.853 -0.5359 -0.2754  0.2290
 2938TIP3    H130449   6.351   2.762   0.925  1.8975 -0.5710  0.3488
 2938TIP3    H230450   6.405   2.899   0.892 -1.7948  0.8438 -0.3576
 2939TIP3   OH230451   5.623   3.725   7.934  0.7041 -0.0752 -0.2512
 2939TIP3    H130452   5.715   3.700   7.924  1.1068  1.3551 -0.3738
 2939TIP3    H230453   5.581   3.696   7.853  1.0394 -0.7597 -0.1844
 2940TIP3   OH230454   1.520   0.229   0.874 -0.2237  0.0645  0.3342
 2940TIP3    H130455   1.614   0.223   0.856 -0.1206 -0.2648  0.9709
 2940TIP3    H230456   1.486   0.143   0.850 -0.5971  0.6098 -1.1867
 2941TIP3   OH230457   6.517   5.278   1.018 -0.2629 -0.1588 -0.1918
 2941TIP3    H130458   6.534   5.280   1.112 -0.5380 -1.1305 -0.1123
 2941TIP3    H230459   6.512   5.185   0.997 -1.8257  0.0592 -0.8800
 2942TIP3   OH230460   5.970   2.735   1.433  0.2047  0.5196 -0.4468
 2942TIP3    H130461   5.874   2.745   1.439  0.1721  1.0800 -1.6061
 2942TIP3    H230462   5.994   2.784   1.354  1.6448  1.6731  0.6518
 2943TIP3   OH230463   0.913   4.783   0.514 -0.2877  0.6110 -0.4782
 2943TIP3    H130464   0.928   4.867   0.471 -0.7002  1.4323  0.9326
 2943TIP3    H230465   0.824   4.759   0.490 -1.3388  2.1558  1.6133
 2944TIP3   OH230466   3.262   6.166   7.205  0.5661  0.1774  0.7623
 2944TIP3    H130467   3.303   6.252   7.202 -1.6272  1.2864 -0.1029
 2944TIP3    H230468   3.191   6.175   7.268  1.7665 -1.7822  2.5123
 2945TIP3   OH230469   6.042   0.787   1.525 -0.1282 -0.1858  0.2205
 2945TIP3    H130470   6.028   0.731   1.449 -0.3014  1.4262 -1.0075
 2945TIP3    H230471   5.977   0.758   1.589 -1.1719 -0.4653 -0.9236
 2946TIP3   OH230472   1.583   1.146   7.265 -0.4966  0.4821  0.1931
 2946TIP3    H130473   1.555   1.135   7.174 -0.9548 -0.2545  0.4127
 2946TIP3    H230474   1.622   1.233   7.267 -1.3437  0.9027 -0.4963
 2947TIP3   OH230475   2.131   4.847   0.100  0.5797 -0.0677 -0.2994
 2947TIP3    H130476   2.041   4.846   0.068  1.4209 -1.5144 -3.0436
 2947TIP3    H230477   2.132   4.782   0.170 -0.3465 -0.8365 -0.9565
 2948TIP3   OH230478   1.411   3.863   7.911 -0.3455 -0.0935 -0.7221
 2948TIP3    H130479   1.377   3.940   7.866  0.2990  1.2902  1.0591
 2948TIP3    H230480   1.338   3.800   7.907 -0.9724  0.6512 -1.9986
 2949TIP3   OH230481   4.750   4.772   1.179  0.4119  0.3741 -0.5549
 2949TIP3    H130482   4.784   4.861   1.170  0.7476  0.1071 -2.1461
 2949TIP3    H230483   4.694   4.776   1.257  1.5740  1.6042  0.2528
 2950TIP3   OH230484   0.173   3.430   0.001  0.6503 -0.4207  0.0898
 2950TIP3    H130485   0.143   3.480  -0.075  2.6377  0.6537 -0.0569
 2950TIP3    H230486   0.120   3.463   0.074  0.3267  0.2121 -0.4264
 2951TIP3   OH230487   3.757   4.636   2.105  0.1238 -0.4441 -0.1058
 2951TIP3    H130488   3.747   4.668   2.194 -0.9719 -0.6986 -0.1230
 2951TIP3    H230489   3.749   4.541   2.113 -0.0821 -0.4612 -0.4874
 2952TIP3   OH230490   1.591   1.494   2.317 -0.8883  0.2395 -0.0082
 2952TIP3    H130491   1.587   1.586   2.340 -2.3253 -0.2864  2.1708
 2952TIP3    H230492   1.677   1.465   2.345 -0.3206  0.9447 -0.9630
 2953TIP3   OH230493   4.089   2.275   1.783  0.2909  0.2111  0.1769
 2953TIP3    H130494   4.161   2.313   1.731 -0.7988  0.7030 -1.0110
 2953TIP3    H230495   4.035   2.350   1.806  0.0021 -0.1943  0.8385
 2954TIP3   OH230496   4.901   0.268   1.795 -0.0962 -0.4659 -0.0308
 2954TIP3    H130497   4.900   0.191   1.738  0.3312 -0.5249  0.0374
 2954TIP3    H230498   4.962   0.245   1.866 -0.8773 -0.5212  0.6360
 2955TIP3   OH230499   0.013   0.423   1.384 -0.1345 -0.1051 -0.0514
 2955TIP3    H130500   0.024   0.328   1.384 -2.2315 -0.4342  1.5367
 2955TIP3    H230501   0.011   0.447   1.291  1.5393 -1.4134 -0.4675
 2956TIP3   OH230502   4.017   0.322   7.985 -0.2622 -0.0884  0.7788
 2956TIP3    H130503   3.963   0.343   8.062 -1.1040  0.4204  0.0733
 2956TIP3    H230504   4.013   0.401   7.931  3.3186  1.0071  1.8321
 2957TIP3   OH230505   0.657   6.786   7.249  0.3982 -0.6008  0.6722
 2957TIP3    H130506   0.579   6.819   7.205 -1.2022 -3.3729  1.2323
 2957TIP3    H230507   0.661   6.837   7.330  0.6943  1.2873 -0.4546
 2958TIP3   OH230508   5.461   2.139   0.746  0.5303  0.0847 -0.5382
 2958TIP3    H130509   5.417   2.095   0.673  1.2313 -3.3739  0.9058
 2958TIP3    H230510   5.549   2.102   0.746  0.3769 -0.5094  2.3308
 2959TIP3   OH230511   1.774   6.638   7.828  0.2671 -0.0403  0.8233
 2959TIP3    H130512   1.681   6.660   7.824 -0.1529 -1.8259 -0.0016
 2959TIP3    H230513   1.812   6.684   7.752 -0.2742 -0.6905  0.1406
 2960TIP3   OH230514   3.580   6.134   2.209 -0.4493 -0.1544  0.0676
 2960TIP3    H130515   3.486   6.146   2.227  0.1222  1.6353  2.2016
 2960TIP3    H230516   3.612   6.221   2.188  0.4976 -1.0014 -2.3848
 2961TIP3   OH230517   3.212   5.258   7.530  0.7269 -0.5910 -0.1903
 2961TIP3    H130518   3.293   5.296   7.496  0.1577 -0.1574 -1.0918
 2961TIP3    H230519   3.224   5.164   7.522  0.3458 -0.4986 -2.2701
 2962TIP3   OH230520   5.947   4.299   7.517 -0.4284  0.0336 -0.0060
 2962TIP3    H130521   5.953   4.291   7.421 -2.2700 -0.4108 -0.1303
 2962TIP3    H230522   5.935   4.209   7.547 -1.4142  0.3155  0.4814
 2963TIP3   OH230523   4.014   6.384   8.442  0.4701  1.0847 -0.2592
 2963TIP3    H130524   3.940   6.334   8.408  1.5992 -0.7036 -0.2409
 2963TIP3    H230525   3.992   6.401   8.534 -0.7486  2.3096 -0.7406
 2964TIP3   OH230526   2.912   1.954   6.682 -0.0244 -0.9900  0.3871
 2964TIP3    H130527   2.965   1.880   6.714  1.5215  0.2183  0.7543
 2964TIP3    H230528   2.968   1.995   6.616 -0.0388  0.9452  1.5132
 2965TIP3   OH230529   0.610   4.600   8.287 -0.0354 -0.4120 -0.3303
 2965TIP3    H130530   0.645   4.523   8.242 -0.5852 -0.2898 -0.9861
 2965TIP3    H230531   0.523   4.612   8.250 -1.1758 -1.2262  1.8645
 2966TIP3   OH230532   0.891   1.235   8.523  0.3446 -0.2022 -0.3995
 2966TIP3    H130533   0.864   1.265   8.610 -0.0793  1.6952 -1.1215
 2966TIP3    H230534   0.961   1.295   8.498 -0.3747  0.0896 -1.8473
 2967TIP3   OH230535   4.883   4.993   1.453  0.5401  0.2920  0.4673
 2967TIP3    H130536   4.821   5.055   1.492  1.1570  1.8192 -0.8739
 2967TIP3    H230537   4.834   4.910   1.448 -0.4793  0.7715  1.8413
 2968TIP3   OH230538   5.857   1.526   2.022  0.3446 -0.5068 -0.6853
 2968TIP3    H130539   5.776   1.477   2.010  0.0390  0.1930 -1.5940
 2968TIP3    H230540   5.845   1.606   1.971  0.8356  0.5362  0.7700
 2969TIP3   OH230541   3.504   2.760   7.322 -0.6561 -0.2824 -0.0709
 2969TIP3    H130542   3.478   2.803   7.241 -0.5743 -0.0036  0.0483
 2969TIP3    H230543   3.536   2.674   7.295 -0.8542 -0.2815 -0.3080
 2970TIP3   OH230544   5.476   1.907   1.306  0.9196 -0.5863  0.1165
 2970TIP3    H130545   5.520   1.991   1.298  0.9815 -0.5599  0.7055
 2970TIP3    H230546   5.546   1.842   1.304  0.8544 -0.6427 -0.5685
 2971TIP3   OH230547   5.007   1.872   6.960  0.0531 -0.3215  0.3333
 2971TIP3    H130548   5.017   1.787   7.002  0.8660 -0.6463 -0.4790
 2971TIP3    H230549   4.912   1.884   6.951 -0.0730 -2.2593 -1.6699
 2972TIP3   OH230550   2.896   0.320   6.799 -0.2664 -0.1710 -0.3488
 2972TIP3    H130551   2.926   0.307   6.709  1.1442 -1.3483  0.2477
 2972TIP3    H230552   2.835   0.394   6.794 -0.4605 -0.4137 -2.3035
 2973TIP3   OH230553   4.578   6.050   6.598 -0.1808 -0.1284 -0.4592
 2973TIP3    H130554   4.565   5.964   6.557  2.3121 -0.4774 -0.6868
 2973TIP3    H230555   4.663   6.042   6.642 -1.2058  1.3219  1.9631
 2974TIP3   OH230556   1.985   0.016   0.939 -0.2544 -0.2424  0.1356
 2974TIP3    H130557   2.062  -0.006   0.992  0.0417 -0.8365 -0.5270
 2974TIP3    H230558   1.924  -0.056   0.954 -0.4220 -0.0970  0.1519
 2975TIP3   OH230559   5.669   4.329   7.491  0.5920 -0.0022  0.6033
 2975TIP3    H130560   5.760   4.300   7.485  0.7316  0.5786 -0.3141
 2975TIP3    H230561   5.617   4.249   7.480  0.9843 -0.2280  0.3875
 2976TIP3   OH230562   0.168   2.823   7.243  0.5701  0.3219 -0.3142
 2976TIP3    H130563   0.138   2.845   7.155 -0.9369  1.4932  0.4504
 2976TIP3    H230564   0.240   2.884   7.260  0.2393  0.7400 -0.3950
 2977TIP3   OH230565   5.323   2.358   1.381 -0.0050 -0.4099  0.3876
 2977TIP3    H130566   5.360   2.447   1.385  1.9364 -1.1813  0.7556
 2977TIP3    H230567   5.302   2.345   1.288  0.4399  0.1547  0.2021
 2978TIP3   OH230568   2.857   2.057   7.414  0.0681  0.1284 -0.1142
 2978TIP3    H130569   2.910   2.137   7.424 -0.4898  0.2529  2.5454
 2978TIP3    H230570   2.922   1.988   7.400  0.8108  0.5795  0.9559
 2979TIP3   OH230571   3.818   2.570   0.289  0.6668 -0.0353 -0.4815
 2979TIP3    H130572   3.811   2.592   0.381 -1.9190  2.5148 -1.1379
 2979TIP3    H230573   3.792   2.478   0.284 -1.9741  0.5089  1.1347
 2980TIP3   OH230574   6.224   3.601   1.291  0.1584  0.0824 -0.2526
 2980TIP3    H130575   6.157   3.615   1.358  0.5229  1.3473 -0.1309
 2980TIP3    H230576   6.304   3.587   1.341  0.0988 -0.9048 -0.4098
 2981TIP3   OH230577   2.633   5.952   1.386 -1.0376  0.5375  0.4126
 2981TIP3    H130578   2.593   5.893   1.450 -0.7096  0.6977  0.7690
 2981TIP3    H230579   2.705   5.902   1.349 -0.0167  1.1038  1.5604
 2982TIP3   OH230580   0.829   1.936   1.137 -0.4263  0.3870 -0.0487
 2982TIP3    H130581   0.833   1.880   1.060  0.0822 -0.3898  0.5289
 2982TIP3    H230582   0.768   1.891   1.197  1.5423 -0.6757  1.2573
 2983TIP3   OH230583   1.705   4.503   2.215 -0.7398 -0.3827 -0.0819
 2983TIP3    H130584   1.651   4.444   2.163 -0.2004 -1.2739  0.3500
 2983TIP3    H230585   1.730   4.452   2.292 -0.6374  0.5596  0.5313
 2984TIP3   OH230586   4.153   6.141   1.077  0.1151 -0.3687 -0.3191
 2984TIP3    H130587   4.156   6.232   1.107  2.6772 -0.4646 -0.0562
 2984TIP3    H230588   4.092   6.142   1.003 -2.4662  0.8618  1.6557
 2985TIP3   OH230589   5.499   1.467   0.934 -0.0374  0.3818 -0.1626
 2985TIP3    H130590   5.493   1.535   1.002  1.8678  0.6335 -0.1922
 2985TIP3    H230591   5.566   1.500   0.874  0.0901 -1.0065 -0.8045
 2986TIP3   OH230592   2.578   4.056   8.230 -0.1224  0.0749  0.0346
 2986TIP3    H130593   2.545   4.102   8.307  0.0661 -0.2483  0.3096
 2986TIP3    H230594   2.602   3.969   8.262 -1.2108 -0.4981 -0.6237
 2987TIP3   OH230595   4.290   1.568   0.510 -0.9302  0.4695 -0.2803
 2987TIP3    H130596   4.260   1.553   0.420 -0.5320 -0.4943 -0.2689
 2987TIP3    H230597   4.374   1.613   0.501  0.0082 -1.2502 -0.4676
 2988TIP3   OH230598   4.558   3.091   6.170  0.7394  0.3686  0.4225
 2988TIP3    H130599   4.472   3.070   6.135  0.0872  2.3712  0.7161
 2988TIP3    H230600   4.569   3.032   6.244  0.6051 -1.4227 -0.9202
 2989TIP3   OH230601   2.733   0.194   1.338  0.1376 -0.7285 -0.5428
 2989TIP3    H130602   2.669   0.133   1.374  0.0489 -1.1159 -1.3564
 2989TIP3    H230603   2.709   0.279   1.376 -1.0231 -0.8119 -1.0556
 2990TIP3   OH230604   1.034   4.651   6.987 -0.5274  0.2922 -0.1852
 2990TIP3    H130605   1.064   4.686   6.903 -0.9596 -0.6978 -0.7667
 2990TIP3    H230606   0.943   4.625   6.971 -0.1589 -1.2677  0.1641
 2991TIP3   OH230607   2.818   1.527   1.207  0.2804 -0.4338 -0.0763
 2991TIP3    H130608   2.843   1.619   1.205 -2.0618  0.2372 -0.8492
 2991TIP3    H230609   2.726   1.527   1.234 -0.2887 -2.3993 -1.7549
 2992TIP3   OH230610   2.363   4.018   8.003 -0.1278  0.1442  0.4170
 2992TIP3    H130611   2.413   4.072   7.942 -0.6598  0.7323  0.4860
 2992TIP3    H230612   2.414   4.020   8.084 -0.1720  0.6042  0.4384
 2993TIP3   OH230613   0.802   4.531   6.983  0.0588 -0.2055  0.7027
 2993TIP3    H130614   0.730   4.562   7.037 -1.0887  0.0225 -0.8803
 2993TIP3    H230615   0.766   4.454   6.938  0.9753 -0.3862  0.2576
 2994TIP3   OH230616   5.131   6.060   1.835  0.3868  0.6559  0.6131
 2994TIP3    H130617   5.169   5.980   1.799 -0.3977  0.4529  0.2036
 2994TIP3    H230618   5.162   6.130   1.777 -0.5861  0.3742 -0.2968
 2995TIP3   OH230619   3.451   3.602   0.001  0.2663  0.4960 -0.0958
 2995TIP3    H130620   3.368   3.557  -0.017 -0.7215  2.4346 -0.5767
 2995TIP3    H230621   3.429   3.671   0.062  1.8864 -0.0001  1.1345
 2996TIP3   OH230622   5.423   2.865   8.308  0.2136 -0.3928  0.1334
 2996TIP3    H130623   5.361   2.862   8.236 -0.6346  0.6951  0.7754
 2996TIP3    H230624   5.372   2.896   8.383  1.3261 -0.3378  0.9077
 2997TIP3   OH230625   4.578   0.346   7.487 -0.1710 -0.8742 -0.4132
 2997TIP3    H130626   4.496   0.297   7.488 -0.4905 -0.4543 -2.1212
 2997TIP3    H230627   4.616   0.326   7.401 -0.1791  1.5925 -1.0633
 2998TIP3   OH230628   3.182   1.488   7.869 -0.1965  0.3454  0.1994
 2998TIP3    H130629   3.225   1.522   7.947 -1.8056  0.2869  1.1490
 2998TIP3    H230630   3.183   1.562   7.807 -1.4736  1.3820  1.3560
 2999TIP3   OH230631   6.377   5.375   8.135 -0.6426  0.0235 -0.0815
 2999TIP3    H130632   6.456   5.390   8.187 -0.0016 -0.6999 -0.8263
 2999TIP3    H230633   6.324   5.454   8.149  0.6836  1.0090 -0.4157
 3000TIP3   OH230634   1.980   3.838   7.190 -0.3938 -0.1768 -0.1458
 3000TIP3    H130635   1.952   3.866   7.103 -1.4993  0.5427  0.4063
 3000TIP3    H230636   1.934   3.897   7.250  1.4829  0.3200  0.8943
 3001TIP3   OH230637   2.080   3.470   6.964 -0.0838  0.3945  0.2679
 3001TIP3    H130638   2.107   3.542   6.907  2.6592  1.0465  2.1683
 3001TIP3    H230639   1.986   3.481   6.974  0.2672  4.0188  0.8010
 3002TIP3   OH230640   2.366   5.852   6.701  0.5977 -0.0641  0.2123
 3002TIP3    H130641   2.361   5.855   6.605  0.4701 -0.3799  0.2081
 3002TIP3    H230642   2.284   5.890   6.730  0.2208 -0.8422  0.1850
 3003TIP3   OH230643   4.074   5.362   8.196  0.4052  0.0721 -0.2833
 3003TIP3    H130644   4.169   5.366   8.210  0.6241 -1.3480 -1.1485
 3003TIP3    H230645   4.059   5.274   8.161 -1.3157  0.0802  0.3729
 3004TIP3   OH230646   5.088   5.419   7.167  0.0913 -0.5003  0.5173
 3004TIP3    H130647   5.052   5.379   7.246 -2.2382  2.5684  1.2030
 3004TIP3    H230648   5.041   5.377   7.095 -1.3492 -0.0348  1.1370
 3005TIP3   OH230649   1.320   6.676   7.090 -0.8712  0.1611  0.6239
 3005TIP3    H130650   1.226   6.696   7.097 -0.9955  0.5771 -1.5424
 3005TIP3    H230651   1.350   6.728   7.015  1.5860  1.6238  2.4494
 3006TIP3   OH230652   5.658   5.287   7.444  0.5382 -0.0561 -0.0917
 3006TIP3    H130653   5.742   5.328   7.424 -0.7835  2.8044 -0.1837
 3006TIP3    H230654   5.601   5.311   7.372 -1.7674  2.6295  2.3568
 3007TIP3   OH230655   4.493   4.595   0.418  1.0346 -0.5929 -0.2419
 3007TIP3    H130656   4.531   4.679   0.390 -0.5174  0.0939 -0.4000
 3007TIP3    H230657   4.530   4.580   0.505  0.2347  1.0390  0.4345
 3008TIP3   OH230658   4.643   1.071   7.522 -0.4621 -0.2280  0.2706
 3008TIP3    H130659   4.640   0.994   7.579 -0.0028 -0.2426  0.2802
 3008TIP3    H230660   4.607   1.141   7.576  0.7998 -0.0414  0.9186
 3009TIP3   OH230661   0.142   4.692   0.072  0.0992  0.2109  0.1727
 3009TIP3    H130662   0.121   4.777   0.034  0.5977 -0.3989 -1.5566
 3009TIP3    H230663   0.066   4.669   0.125 -1.3028  0.4350 -1.6619
 3010TIP3   OH230664   3.993   2.086   1.083  0.2859 -0.4877 -0.3720
 3010TIP3    H130665   3.984   2.038   1.000 -1.1455 -1.0052  0.0528
 3010TIP3    H230666   3.903   2.110   1.106  0.8838  1.9446 -0.2699
 3011TIP3   OH230667   5.352   6.446   0.256  0.4945 -0.3630  0.4258
 3011TIP3    H130668   5.359   6.540   0.275  1.2116 -0.9525  3.8315
 3011TIP3    H230669   5.277   6.417   0.308 -1.1401 -1.4091 -2.3263
 3012TIP3   OH230670   5.942   6.160   7.800 -0.2375 -0.1651  0.4314
 3012TIP3    H130671   5.997   6.235   7.823  1.1817 -1.2984  0.8718
 3012TIP3    H230672   5.952   6.151   7.705  1.1228 -0.9188  0.6214
 3013TIP3   OH230673   1.828   1.848   8.306  0.0797  0.3986  0.2712
 3013TIP3    H130674   1.765   1.803   8.251 -0.8866  1.0053  0.8589
 3013TIP3    H230675   1.793   1.937   8.314  0.9863  0.7318  0.6474
 3014TIP3   OH230676   0.196   4.218   7.262 -0.1224  0.1505 -0.1724
 3014TIP3    H130677   0.239   4.136   7.237 -0.6409  0.6021 -2.7669
 3014TIP3    H230678   0.104   4.205   7.239 -0.4021  1.1200  0.3527
 3015TIP3   OH230679   2.669   3.349   8.073 -0.4305 -0.2357  0.1418
 3015TIP3    H130680   2.573   3.346   8.074 -0.4295 -0.6791  1.4883
 3015TIP3    H230681   2.694   3.322   8.162  0.9132  0.8384  0.1144
 3016TIP3   OH230682   0.816   6.802   1.146  0.4877  0.0658  0.0023
 3016TIP3    H130683   0.799   6.795   1.240  0.7231 -0.6253 -0.0006
 3016TIP3    H230684   0.836   6.713   1.118  0.6411  0.2984 -0.6642
 3017TIP3   OH230685   0.935   3.730   6.459 -0.5830  0.5487  0.1443
 3017TIP3    H130686   1.005   3.708   6.397  1.0571  2.0914  1.3149
 3017TIP3    H230687   0.966   3.695   6.543 -0.7835  1.9525  0.8357
 3018TIP3   OH230688   3.616   4.038   8.784 -0.2421  0.0795 -0.3106
 3018TIP3    H130689   3.541   4.096   8.780 -0.2788  0.3139  2.1600
 3018TIP3    H230690   3.620   4.010   8.875  1.4610 -1.5683 -0.8167
 3019TIP3   OH230691   2.965   0.095   8.737  0.3755  0.0999  0.2779
 3019TIP3    H130692   2.932   0.027   8.677  0.5278 -0.0194  0.3274
 3019TIP3    H230693   3.057   0.105   8.712  0.5977 -0.3836  0.8924
 3020TIP3   OH230694   5.076   5.722   7.478  0.3234  0.1521  0.5233
 3020TIP3    H130695   5.162   5.721   7.437  0.1199 -0.6066  0.0834
 3020TIP3    H230696   5.081   5.653   7.544 -0.6878 -1.6335 -1.1508
 3021TIP3   OH230697   5.707   2.851   1.436  0.0177 -0.2715 -0.4249
 3021TIP3    H130698   5.618   2.851   1.399  0.0593 -0.8109 -0.5326
 3021TIP3    H230699   5.722   2.942   1.463 -0.9933 -0.3745  0.5895
 3022TIP3   OH230700   4.153   0.392   6.820  0.0854  0.0575 -0.3976
 3022TIP3    H130701   4.069   0.376   6.776  0.5806 -0.9124 -1.0113
 3022TIP3    H230702   4.216   0.338   6.773  1.0780  0.7973  0.0360
 3023TIP3   OH230703   0.185   2.801   1.385  0.4067  0.1065  0.0524
 3023TIP3    H130704   0.135   2.875   1.352 -1.5082 -1.0878  0.0950
 3023TIP3    H230705   0.178   2.735   1.317  0.3549 -0.7426  0.8521
 3024TIP3   OH230706   1.059   4.370   7.860 -0.4564 -0.2794  0.8968
 3024TIP3    H130707   1.103   4.338   7.782  1.6910 -1.7565  2.5926
 3024TIP3    H230708   0.991   4.305   7.879  0.1791 -0.8560  1.2136
 3025TIP3   OH230709   6.429   5.134   6.537  0.5319 -0.4432 -0.7246
 3025TIP3    H130710   6.509   5.161   6.492 -0.2726  1.2583 -1.2387
 3025TIP3    H230711   6.359   5.156   6.475 -0.3193 -2.4468 -0.5288
 3026TIP3   OH230712   2.882   2.868   7.746  0.0290  0.2702 -0.3697
 3026TIP3    H130713   2.865   2.961   7.736 -0.9275  0.2453  0.7862
 3026TIP3    H230714   2.817   2.825   7.690  0.3486  0.2867 -0.7576
 3027TIP3   OH230715   6.500   6.647   8.764 -0.5369  1.0946 -0.2541
 3027TIP3    H130716   6.554   6.619   8.689 -0.0224 -0.2845  0.5976
 3027TIP3    H230717   6.415   6.606   8.748 -0.9045  2.0480 -0.8346
 3028TIP3   OH230718   4.182   6.848   0.344 -0.7160 -0.0199  0.0841
 3028TIP3    H130719   4.117   6.918   0.341 -0.2288  0.5101  1.2349
 3028TIP3    H230720   4.204   6.831   0.253 -1.1096  1.0727 -0.2240
 3029TIP3   OH230721   0.899   5.846   6.827 -0.5934  0.0930  0.6115
 3029TIP3    H130722   0.830   5.875   6.886 -2.3039  0.4703 -1.4838
 3029TIP3    H230723   0.867   5.764   6.789 -0.4221  0.8067 -1.1766
 3030TIP3   OH230724   3.568   2.976   1.565  0.1076  0.2853 -0.6805
 3030TIP3    H130725   3.554   3.064   1.529  2.6191 -0.1479 -3.1338
 3030TIP3    H230726   3.627   2.990   1.639 -2.0235  0.8581  0.9971
 3031TIP3   OH230727   5.288   6.285   1.362  0.3538 -0.0424  0.0074
 3031TIP3    H130728   5.346   6.254   1.432 -0.1576  1.4292  1.1340
 3031TIP3    H230729   5.342   6.344   1.310  0.7888 -1.2853 -0.9968
 3032TIP3   OH230730   2.003   4.299   2.169  0.7311  0.1897  0.6901
 3032TIP3    H130731   1.941   4.316   2.098  1.4613  2.9554  0.5916
 3032TIP3    H230732   1.948   4.286   2.246 -0.0044  0.0099  0.1491
 3033TIP3   OH230733   3.478   0.154   1.081 -0.2341  0.7823  0.4090
 3033TIP3    H130734   3.523   0.092   1.138  0.4997  0.4752 -0.4868
 3033TIP3    H230735   3.385   0.142   1.101  0.0314  1.0581  1.9120
 3034TIP3   OH230736   1.906   6.721   8.525 -0.2660 -0.1526 -0.0978
 3034TIP3    H130737   1.938   6.643   8.571  0.7416 -0.3702 -1.1045
 3034TIP3    H230738   1.946   6.794   8.572  0.2364 -0.3424 -0.2132
 3035TIP3   OH230739   5.490   2.771   7.458 -0.0701  0.7556  0.4581
 3035TIP3    H130740   5.422   2.775   7.391  0.3662 -1.2174 -0.1603
 3035TIP3    H230741   5.560   2.719   7.418  0.5470  0.2172  2.1515
 3036TIP3   OH230742   6.802   4.320   2.425  0.1259  0.0966 -0.4931
 3036TIP3    H130743   6.869   4.254   2.445  1.0101 -0.0270 -3.4622
 3036TIP3    H230744   6.719   4.272   2.427  0.3679 -0.3034  0.7440
 3037TIP3   OH230745   0.438   6.569   7.657  0.7810  0.2400  0.3612
 3037TIP3    H130746   0.407   6.655   7.685  0.3995  0.3658 -0.4113
 3037TIP3    H230747   0.400   6.557   7.570  0.9739 -0.6364  0.3866
 3038TIP3   OH230748   4.983   6.287   2.503  0.0419 -0.6629  0.3274
 3038TIP3    H130749   4.917   6.355   2.515 -1.1414 -1.6851 -0.2380
 3038TIP3    H230750   4.934   6.209   2.478  1.5109 -1.2546 -0.9083
 3039TIP3   OH230751   6.565   2.435   1.132 -0.1606 -0.1639  0.2912
 3039TIP3    H130752   6.615   2.426   1.214 -0.7668  1.9838  0.9698
 3039TIP3    H230753   6.483   2.477   1.159  0.1764  1.8575 -1.5427
 3040TIP3   OH230754   6.717   4.276   0.526  0.4721  0.1265  0.3715
 3040TIP3    H130755   6.757   4.313   0.604  0.8328  0.2499  0.1270
 3040TIP3    H230756   6.669   4.349   0.486  2.1074  0.6462 -0.7272
 3041TIP3   OH230757   1.322   1.539   7.703  0.3353  0.0543 -0.2604
 3041TIP3    H130758   1.362   1.504   7.782  0.6115  0.1371 -0.3633
 3041TIP3    H230759   1.343   1.633   7.705 -1.0380  0.3901  0.4123
 3042TIP3   OH230760   3.949   2.418   0.846  0.4739 -0.0319 -0.7995
 3042TIP3    H130761   4.009   2.485   0.880 -0.4961  0.4194  0.0751
 3042TIP3    H230762   3.910   2.458   0.768  0.5317  0.0846 -0.7688
 3043TIP3   OH230763   0.694   0.163   0.971 -0.2991  0.9021 -0.8058
 3043TIP3    H130764   0.606   0.127   0.966 -0.3758 -0.0637  3.7257
 3043TIP3    H230765   0.751   0.087   0.986  1.0588  1.7133 -1.5933
 3044TIP3   OH230766   6.796   2.359   7.911  0.0980  0.0429 -0.1785
 3044TIP3    H130767   6.733   2.347   7.982  1.2585  1.0307  1.0978
 3044TIP3    H230768   6.750   2.412   7.846 -0.6100  0.1539  0.3979
 3045TIP3   OH230769   0.854   2.947   0.502  0.5137 -0.1983 -0.1886
 3045TIP3    H130770   0.807   2.873   0.462  0.5273  0.2712 -1.1004
 3045TIP3    H230771   0.854   2.928   0.596  0.8912 -1.5723 -0.4497
 3046TIP3   OH230772   0.812   4.060   8.409  0.0433 -0.3714  0.0703
 3046TIP3    H130773   0.891   4.095   8.449 -0.3834 -0.4619  1.0252
 3046TIP3    H230774   0.754   4.040   8.483 -0.7561 -0.5860 -0.5920
 3047TIP3   OH230775   1.186   3.769   7.533  0.4044 -0.8675  0.3733
 3047TIP3    H130776   1.139   3.842   7.575  0.8510 -0.2602 -0.1554
 3047TIP3    H230777   1.124   3.696   7.535 -0.1805 -0.3740  0.6083
 3048TIP3   OH230778   0.131   4.029   8.220  0.1347 -0.0451  0.4451
 3048TIP3    H130779   0.162   4.010   8.309  1.0496  1.0371  0.3778
 3048TIP3    H230780   0.209   4.023   8.166  0.1027  1.9209  0.1350
 3049TIP3   OH230781   2.617   2.149   7.691 -0.2900 -0.1676 -0.2885
 3049TIP3    H130782   2.676   2.085   7.729 -0.9516  0.9847  2.9769
 3049TIP3    H230783   2.675   2.218   7.656  0.3206 -0.6041 -0.1422
 3050TIP3   OH230784   0.001   1.349   1.346 -0.7329  0.1225 -0.1117
 3050TIP3    H130785  -0.081   1.303   1.363  0.5790 -1.4093  3.0124
 3050TIP3    H230786   0.050   1.341   1.429  2.3407  1.4226 -1.6453
 3051TIP3   OH230787   6.577   0.655   1.523  0.5215  0.5206  0.6083
 3051TIP3    H130788   6.545   0.655   1.432  1.2334 -0.6335  0.3273
 3051TIP3    H230789   6.497   0.656   1.576 -0.0146 -1.1589 -0.0707
 3052TIP3   OH230790   1.874   0.334   7.455 -0.0214 -0.1396 -0.2164
 3052TIP3    H130791   1.927   0.316   7.533  0.4543  0.3976 -0.4080
 3052TIP3    H230792   1.805   0.268   7.458  0.4145 -0.5902  0.2611
 3053TIP3   OH230793   4.348   5.779   0.910  0.2644  0.0613  0.4107
 3053TIP3    H130794   4.272   5.769   0.853  0.1756  2.0960  0.0770
 3053TIP3    H230795   4.337   5.712   0.977 -3.1781  1.7635  1.7974
 3054TIP3   OH230796   5.771   4.257   2.192  0.8115 -0.1328 -0.1909
 3054TIP3    H130797   5.722   4.317   2.136 -0.2010 -0.0156  0.8007
 3054TIP3    H230798   5.855   4.301   2.206  0.1659  0.9597  0.3418
 3055TIP3   OH230799   1.402   0.141   6.945 -0.1767  0.5578 -0.5508
 3055TIP3    H130800   1.431   0.232   6.955 -0.8940  0.7876 -0.5196
 3055TIP3    H230801   1.324   0.135   6.999  1.1945 -0.7455  1.4161
 3056TIP3   OH230802   0.270   6.620   2.209 -0.4749  0.5862 -0.8459
 3056TIP3    H130803   0.358   6.658   2.214 -0.5881  1.1968 -2.7432
 3056TIP3    H230804   0.220   6.667   2.276  0.5162  0.5101 -0.0179
 3057TIP3   OH230805   1.489   0.726   1.432 -0.0859 -0.1053  0.5422
 3057TIP3    H130806   1.447   0.663   1.490 -0.0771 -1.0940 -0.4955
 3057TIP3    H230807   1.467   0.696   1.343 -0.1441  1.3969  0.0210
 3058TIP3   OH230808   0.089   3.049   1.288  0.4007 -0.1403  0.0969
 3058TIP3    H130809   0.012   3.045   1.231  1.5987 -1.2953 -1.5632
 3058TIP3    H230810   0.076   3.127   1.341 -0.3698  1.5660 -2.4307
 3059TIP3   OH230811   2.731   0.517   8.546  0.2646  0.0947  0.2000
 3059TIP3    H130812   2.802   0.465   8.583 -0.4317 -1.4686 -0.5683
 3059TIP3    H230813   2.775   0.591   8.504  1.3924 -0.4866  0.3215
 3060TIP3   OH230814   0.434   6.779   7.056 -0.4642 -0.2608 -0.7825
 3060TIP3    H130815   0.381   6.706   7.086  1.0515 -1.1399 -0.1149
 3060TIP3    H230816   0.472   6.749   6.973 -2.3203  1.0416 -2.2057
 3061TIP3   OH230817   4.893   1.504   2.551  0.1765  0.3161  0.2771
 3061TIP3    H130818   4.838   1.577   2.523 -1.6712 -0.8474  0.6630
 3061TIP3    H230819   4.953   1.490   2.478  0.2261  1.8723 -0.0105
 3062TIP3   OH230820   0.123   4.399   1.303 -0.0207 -0.5830  0.4264
 3062TIP3    H130821   0.188   4.393   1.373 -1.3648 -1.9472  1.6217
 3062TIP3    H230822   0.164   4.354   1.229  1.4258  0.8972  0.2399
 3063TIP3   OH230823   2.704   1.830   8.688  0.4540  0.4302  0.5445
 3063TIP3    H130824   2.661   1.901   8.734 -4.3989 -1.1914 -0.8104
 3063TIP3    H230825   2.729   1.867   8.603 -0.8373  0.8973  0.3489
 3064TIP3   OH230826   4.837   1.502   0.861 -1.0735 -0.0126  0.3263
 3064TIP3    H130827   4.873   1.465   0.780  1.0327 -0.3538  1.3333
 3064TIP3    H230828   4.871   1.591   0.864 -0.6544 -0.1788  1.0611
 3065TIP3   OH230829   3.549   3.947   1.751  0.0994  0.2388  0.4917
 3065TIP3    H130830   3.579   4.038   1.746 -0.6543  0.4537 -0.4457
 3065TIP3    H230831   3.605   3.899   1.690  0.0176  0.2130  0.4366
 3066TIP3   OH230832   0.828   2.669   1.404  0.0904 -0.4346 -0.4037
 3066TIP3    H130833   0.820   2.608   1.331 -0.7083 -0.5000 -0.2710
 3066TIP3    H230834   0.820   2.756   1.364 -0.6249 -0.4779 -0.3711
 3067TIP3   OH230835   6.016   4.331   1.613  0.0480 -0.3436  0.4070
 3067TIP3    H130836   5.973   4.248   1.594  2.7929 -2.3516  2.3042
 3067TIP3    H230837   5.960   4.372   1.679 -0.8359 -1.1130  0.1499
 3068TIP3   OH230838   6.503   1.370   7.420 -0.3319 -0.1872 -0.0493
 3068TIP3    H130839   6.446   1.313   7.368 -1.7059 -0.8015  2.0044
 3068TIP3    H230840   6.518   1.446   7.364  0.9170 -2.1458 -2.5743
 3069TIP3   OH230841   6.608   1.983   8.813 -0.7899 -0.4204  0.8266
 3069TIP3    H130842   6.657   1.916   8.860 -2.2369 -1.4218  0.9485
 3069TIP3    H230843   6.548   2.020   8.878 -0.6531  0.3663  0.5240
 3070TIP3   OH230844   0.628   2.424   0.036  0.4591 -0.2068  0.0034
 3070TIP3    H130845   0.538   2.396   0.023 -0.1962  0.5473  2.4215
 3070TIP3    H230846   0.628   2.516   0.012 -0.3031  0.6864  3.0439
 3071TIP3   OH230847   2.792   3.576   8.349 -0.2887  0.1668  0.4288
 3071TIP3    H130848   2.845   3.608   8.275 -1.9312  0.3563 -0.7232
 3071TIP3    H230849   2.805   3.481   8.347 -1.5647 -0.0378 -1.2117
 3072TIP3   OH230850   1.309   5.021   7.272  0.0489 -0.0406  0.0788
 3072TIP3    H130851   1.394   4.985   7.246  0.0183  0.4494 -0.7501
 3072TIP3    H230852   1.328   5.113   7.293 -0.2682  0.0659 -0.0989
 3073TIP3   OH230853   1.213   3.787   0.653  0.0016  0.1499  0.0292
 3073TIP3    H130854   1.130   3.819   0.688 -0.7763 -0.6009 -1.0574
 3073TIP3    H230855   1.267   3.771   0.730 -1.0970  0.0307  0.8000
 3074TIP3   OH230856   6.166   1.335   8.139  0.7487  0.2147  0.3815
 3074TIP3    H130857   6.117   1.336   8.221 -0.9671  0.6247 -0.6238
 3074TIP3    H230858   6.258   1.333   8.167  0.1949 -0.9899  2.3019
 3075TIP3   OH230859   0.402   2.730   1.975 -0.1521 -0.0036 -0.4710
 3075TIP3    H130860   0.451   2.718   2.056 -2.5819  3.0040  1.7420
 3075TIP3    H230861   0.449   2.799   1.929  0.9256 -1.3317 -1.4191
 3076TIP3   OH230862   4.732   3.840   7.031 -0.2801 -0.1640  0.6482
 3076TIP3    H130863   4.777   3.810   6.952 -1.9947 -0.2852 -0.3143
 3076TIP3    H230864   4.726   3.763   7.086 -3.2085 -1.3401 -1.1236
 3077TIP3   OH230865   2.009   6.237   6.660 -0.2676 -0.1558  0.1155
 3077TIP3    H130866   2.044   6.297   6.726  0.1849  1.3649 -1.4306
 3077TIP3    H230867   1.914   6.243   6.670 -0.2121  0.4213  0.3280
 3078TIP3   OH230868   6.586   4.928   1.517 -0.5492  0.0904 -0.3947
 3078TIP3    H130869   6.620   4.873   1.587  1.5258 -0.6788 -1.8811
 3078TIP3    H230870   6.531   4.993   1.561  2.2768  0.9411  2.2395
 3079TIP3   OH230871   1.137   0.923   6.732  0.2730 -0.0363  0.7617
 3079TIP3    H130872   1.080   0.911   6.656  0.1985  0.5912  0.7155
 3079TIP3    H230873   1.098   0.997   6.779  0.5060 -0.2143  1.2349
 3080TIP3   OH230874   1.938   3.403   6.313 -0.4280 -0.4048 -0.1322
 3080TIP3    H130875   1.858   3.388   6.262  1.0623 -0.6300 -2.5394
 3080TIP3    H230876   1.949   3.498   6.312 -1.3934 -0.2368  1.4817
 3081TIP3   OH230877   5.871   0.734   1.119 -0.1053  0.4392  0.3588
 3081TIP3    H130878   5.791   0.752   1.169  0.2045  0.7495  0.7435
 3081TIP3    H230879   5.932   0.698   1.183  0.7792  2.1437  0.5234
 3082TIP3   OH230880   1.581   2.023   0.198  0.2394 -0.3319 -0.0800
 3082TIP3    H130881   1.608   1.941   0.238 -1.7995 -0.4175  1.3147
 3082TIP3    H230882   1.503   2.000   0.147  0.4489  0.4967 -0.7863
 3083TIP3   OH230883   5.123   6.400   1.763 -0.4029  0.2832 -0.2738
 3083TIP3    H130884   5.190   6.401   1.831 -0.0563 -0.3381 -0.5975
 3083TIP3    H230885   5.042   6.421   1.809 -0.3634 -1.2174  0.5643
 3084TIP3   OH230886   6.756   1.949   7.189  0.0407 -0.1495 -0.1277
 3084TIP3    H130887   6.843   1.942   7.150 -0.1515 -1.6980 -0.3272
 3084TIP3    H230888   6.772   1.983   7.277  0.8211 -0.1751 -0.2542
 3085TIP3   OH230889   2.158   3.394   8.305 -0.2229 -0.0939 -0.7632
 3085TIP3    H130890   2.207   3.323   8.347  0.6351  0.8179 -0.1897
 3085TIP3    H230891   2.195   3.400   8.217  0.8207  0.6869 -0.2849
 3086TIP3   OH230892   1.614   6.063   6.812  0.5615  0.0134 -0.2648
 3086TIP3    H130893   1.535   6.109   6.784  0.6220  0.5816  0.4789
 3086TIP3    H230894   1.588   6.014   6.890  0.6252 -0.8509 -0.7632
 3087TIP3   OH230895   5.066   5.868   7.090  0.4571  0.3085 -0.1277
 3087TIP3    H130896   5.140   5.921   7.121  0.0837 -0.7802  2.9241
 3087TIP3    H230897   5.101   5.779   7.085 -0.8295 -0.4783  2.6972
 3088TIP3   OH230898   3.556   4.711   2.738 -0.1724 -0.4417 -0.0949
 3088TIP3    H130899   3.563   4.701   2.833 -0.7234  2.5078  0.3519
 3088TIP3    H230900   3.641   4.745   2.711 -0.2767 -0.5079 -0.5156
 3089TIP3   OH230901   1.017   6.459   7.964  0.0502 -0.0625 -0.3067
 3089TIP3    H130902   0.936   6.408   7.970 -0.6538  1.1775  1.2456
 3089TIP3    H230903   1.058   6.449   8.050 -0.9453  3.2455  0.7035
 3090TIP3   OH230904   4.530   1.363   6.942 -0.1378 -0.0544  0.0121
 3090TIP3    H130905   4.449   1.402   6.908 -1.6044 -2.9681 -0.1246
 3090TIP3    H230906   4.535   1.393   7.033 -0.6903  1.1354 -0.3382
 3091TIP3   OH230907   4.482   5.182   1.564  0.0722 -0.4744 -0.6888
 3091TIP3    H130908   4.495   5.107   1.622 -1.4731 -0.1477  0.1551
 3091TIP3    H230909   4.415   5.235   1.609  0.7360  1.1328 -1.5171
 3092TIP3   OH230910   1.269   1.254   0.095  0.2993  0.5100  0.0153
 3092TIP3    H130911   1.243   1.176   0.143  2.1492 -0.8859 -1.1120
 3092TIP3    H230912   1.186   1.291   0.062 -0.5263 -1.9191 -0.8226
 3093TIP3   OH230913   6.611   5.279   6.351  0.4523 -0.3083 -0.1060
 3093TIP3    H130914   6.686   5.338   6.364  2.2304 -2.4142 -0.0770
 3093TIP3    H230915   6.537   5.325   6.392  2.1540  0.9979  1.7294
 3094TIP3   OH230916   2.669   3.821   8.296  0.0567  0.4268  0.0159
 3094TIP3    H130917   2.760   3.828   8.323 -0.1512  0.1463  0.8100
 3094TIP3    H230918   2.647   3.728   8.307 -0.5000  0.5995  0.4198
 3095TIP3   OH230919   4.813   0.144   7.595 -0.0455  0.1584 -0.5935
 3095TIP3    H130920   4.755   0.070   7.576  0.2996  0.3024 -2.4077
 3095TIP3    H230921   4.761   0.203   7.649 -1.0580 -0.4283 -0.9133
 3096TIP3   OH230922   1.917   3.488   8.186  0.5256  0.6783 -0.0299
 3096TIP3    H130923   1.990   3.469   8.245  1.3942  0.7298 -1.0610
 3096TIP3    H230924   1.858   3.414   8.197  0.2548  1.0812  1.5085
 3097TIP3   OH230925   5.285   1.296   1.204 -0.3394 -0.2459  0.2428
 3097TIP3    H130926   5.224   1.249   1.147  0.2004 -1.5533  0.7110
 3097TIP3    H230927   5.362   1.311   1.150 -0.5608  0.2200  0.0541
 3098TIP3   OH230928   2.412   0.407   1.014  0.2323 -0.5817 -0.1442
 3098TIP3    H130929   2.421   0.499   0.992  0.2991 -0.5484  0.0173
 3098TIP3    H230930   2.494   0.385   1.059 -0.3905 -0.3275  1.1801
 3099TIP3   OH230931   4.391   2.725   8.713 -0.1979  0.1506 -0.1377
 3099TIP3    H130932   4.393   2.690   8.802 -1.3460 -1.2021 -0.6096
 3099TIP3    H230933   4.337   2.663   8.664  0.8924  0.5553 -1.9248
 3100TIP3   OH230934   3.761   4.298   8.631  0.5503 -0.1945 -0.0963
 3100TIP3    H130935   3.678   4.347   8.626  0.2282 -0.6567  0.6209
 3100TIP3    H230936   3.827   4.365   8.646  0.2684  0.1457 -0.3375
 3101TIP3   OH230937   0.642   4.589   7.884 -0.2338  0.5792 -0.6294
 3101TIP3    H130938   0.614   4.504   7.852  0.9776 -1.0281  2.1819
 3101TIP3    H230939   0.737   4.590   7.871 -0.1375  1.1684  0.0224
 3102TIP3   OH230940   4.989   1.103   1.927  0.2059 -0.5553  0.1119
 3102TIP3    H130941   5.013   1.117   1.835  0.7556 -1.1766  0.1527
 3102TIP3    H230942   4.942   1.019   1.926 -0.8069 -0.0006  0.2329
 3103TIP3   OH230943   0.302   2.647   0.784 -1.0589  0.3104 -0.4811
 3103TIP3    H130944   0.248   2.681   0.712 -0.5020  2.0113 -0.1555
 3103TIP3    H230945   0.391   2.643   0.747 -0.9984 -0.1332 -0.2926
 3104TIP3   OH230946   1.899   2.964   7.649  0.6067 -0.3092  0.3857
 3104TIP3    H130947   1.930   2.902   7.715  0.8020 -0.8130 -0.1647
 3104TIP3    H230948   1.932   2.929   7.566 -1.3930 -0.8608 -0.2391
 3105TIP3   OH230949   6.072   2.508   7.257 -0.2984  0.0185  0.3533
 3105TIP3    H130950   6.002   2.490   7.193 -1.1643 -0.5422  1.4324
 3105TIP3    H230951   6.132   2.433   7.248 -0.8785 -0.5080  0.7990
 3106TIP3   OH230952   6.528   5.167   0.501 -0.1019  0.7147  0.0713
 3106TIP3    H130953   6.553   5.244   0.552 -1.3007  0.8240  0.5312
 3106TIP3    H230954   6.595   5.161   0.432  1.8851  0.2405  1.9401
 3107TIP3   OH230955   0.476   5.782   7.019  0.2861 -0.7037  0.3722
 3107TIP3    H130956   0.383   5.771   7.039 -0.2055  1.2619 -0.5565
 3107TIP3    H230957   0.504   5.696   6.988 -1.3843 -1.1714  0.0333
 3108TIP3   OH230958   1.335   1.315   1.738  0.0638  0.2956  0.1213
 3108TIP3    H130959   1.270   1.361   1.791 -1.0868 -1.6843  0.5525
 3108TIP3    H230960   1.419   1.353   1.763 -0.7349  1.3737  1.2282
 3109TIP3   OH230961   6.000   2.843   6.826 -0.7211 -0.3348  0.1879
 3109TIP3    H130962   5.985   2.749   6.832  0.1756 -0.7233 -2.3553
 3109TIP3    H230963   5.976   2.866   6.736  1.3059  1.3801 -0.0245
 3110TIP3   OH230964   0.220   6.083   1.364  0.0824 -0.6078 -1.0641
 3110TIP3    H130965   0.161   6.157   1.352  0.0237 -0.1908  1.2407
 3110TIP3    H230966   0.308   6.122   1.363 -0.0101 -0.1060  1.9591
 3111TIP3   OH230967   0.226   4.224   0.832 -0.6866  0.7713  0.2613
 3111TIP3    H130968   0.190   4.135   0.828  1.2916 -0.0446 -0.1892
 3111TIP3    H230969   0.280   4.231   0.754 -0.5427  2.2738  0.4754
 3112TIP3   OH230970   1.540   2.344   8.445 -0.7584 -0.6404 -0.3079
 3112TIP3    H130971   1.628   2.316   8.419 -0.2004 -1.0856  1.8659
 3112TIP3    H230972   1.493   2.353   8.362  0.6662 -2.5794 -1.4363
 3113TIP3   OH230973   0.581   5.653   8.737 -0.6682 -0.2954  0.1161
 3113TIP3    H130974   0.594   5.694   8.652 -2.0167 -2.9712 -1.5376
 3113TIP3    H230975   0.653   5.590   8.745 -0.5068 -0.0128  1.0089
 3114TIP3   OH230976   4.328   0.283   0.245 -0.6658  0.0246 -0.2355
 3114TIP3    H130977   4.331   0.371   0.282 -0.4937 -0.8133  1.8930
 3114TIP3    H230978   4.299   0.227   0.318 -0.5624 -1.7105 -1.4577
 3115TIP3   OH230979   1.328   1.545   8.067  0.0932  0.4352  0.7723
 3115TIP3    H130980   1.317   1.475   8.132  0.4509 -0.6743 -0.3223
 3115TIP3    H230981   1.239   1.564   8.038  0.1431 -1.2913 -0.6536
 3116TIP3   OH230982   5.256   1.201   0.660 -0.1853 -0.2960  0.0828
 3116TIP3    H130983   5.165   1.191   0.631 -0.2351  0.9383 -0.2420
 3116TIP3    H230984   5.263   1.293   0.683  0.8671 -0.4852  0.5528
 3117TIP3   OH230985   4.758   2.586   0.089  0.0974  0.3572  0.3386
 3117TIP3    H130986   4.813   2.552   0.019 -0.0774  1.8491 -0.5655
 3117TIP3    H230987   4.789   2.676   0.103  0.1810  0.0791  2.2446
 3118TIP3   OH230988   3.908   1.466   0.963  0.3683  0.3268  0.2231
 3118TIP3    H130989   3.970   1.483   1.034  1.1257 -1.1439 -0.0471
 3118TIP3    H230990   3.864   1.550   0.949  0.4598  0.7389  2.1661
 3119TIP3   OH230991   1.511   5.013   8.734 -0.3347  0.5740 -0.0416
 3119TIP3    H130992   1.468   4.935   8.771 -1.7863  1.6677  0.6818
 3119TIP3    H230993   1.461   5.086   8.769 -0.4057  1.7759 -2.4585
 3120TIP3   OH230994   4.211   1.058   6.543 -0.7933 -0.1751  0.2451
 3120TIP3    H130995   4.296   1.074   6.585 -0.1060 -1.0939 -0.7376
 3120TIP3    H230996   4.149   1.109   6.595  0.2737  0.0903  1.3196
 3121TIP3   OH230997   1.377   5.250   1.710  0.2476 -0.2914  0.1671
 3121TIP3    H130998   1.460   5.258   1.663  0.0676 -0.3068 -0.1598
 3121TIP3    H230999   1.400   5.207   1.792  0.3860 -1.4089 -0.4301
 3122TIP3   OH231000   5.375   3.431   1.253 -0.1821  0.2411  0.8980
 3122TIP3    H131001   5.361   3.400   1.343 -0.8786  1.5444  1.2597
 3122TIP3    H231002   5.467   3.459   1.252  0.5368 -1.9168  0.5011
 3123TIP3   OH231003   6.182   4.094   0.975 -0.4352  0.1668 -0.3575
 3123TIP3    H131004   6.267   4.112   1.015 -0.5250  0.5335 -0.3288
 3123TIP3    H231005   6.120   4.146   1.026 -0.8895 -1.1973  0.5614
 3124TIP3   OH231006   5.619   4.169   1.169 -0.0998 -0.0602  0.5730
 3124TIP3    H131007   5.594   4.157   1.260  2.2605 -1.4192  1.1255
 3124TIP3    H231008   5.698   4.116   1.158 -0.3232  0.0259 -2.2810
 3125TIP3   OH231009   5.681   0.954   7.956 -0.0517  1.2149 -0.4431
 3125TIP3    H131010   5.637   0.892   8.014 -1.2080  2.5716  0.1842
 3125TIP3    H231011   5.741   0.900   7.904 -0.3246 -0.2792  0.7346
 3126TIP3   OH231012   2.958   2.475   8.124 -0.0682  0.4340  0.0423
 3126TIP3    H131013   2.916   2.559   8.140 -1.6846 -0.1504 -0.8694
 3126TIP3    H231014   2.986   2.445   8.210 -0.1104  1.5752  0.4687
 3127TIP3   OH231015   2.887   2.737   0.684 -0.2477 -0.1335 -0.1797
 3127TIP3    H131016   2.865   2.737   0.591  0.2099 -0.7868 -0.2967
 3127TIP3    H231017   2.896   2.829   0.707 -0.7945  0.0475 -0.6805
 3128TIP3   OH231018   1.641   4.679   1.543 -0.0518 -0.2787 -0.0628
 3128TIP3    H131019   1.594   4.631   1.475 -0.3113  1.2890 -1.0372
 3128TIP3    H231020   1.578   4.685   1.616  0.5869 -2.8627  0.7996
 3129TIP3   OH231021   5.288   2.637   1.120  0.4081  0.3742  0.4537
 3129TIP3    H131022   5.304   2.654   1.212 -1.3664  2.8343  0.4222
 3129TIP3    H231023   5.367   2.667   1.075  0.5602  0.8669  1.0476
 3130TIP3   OH231024   2.442   6.323   7.738 -0.1302 -0.4024  0.3447
 3130TIP3    H131025   2.413   6.316   7.829  0.6480  0.4578  0.6758
 3130TIP3    H231026   2.424   6.237   7.700  1.1698 -1.3782  1.8055
 3131TIP3   OH231027   0.868   0.922   6.160  0.0019  0.2780 -0.4016
 3131TIP3    H131028   0.789   0.937   6.108  0.1764 -0.9975 -1.0641
 3131TIP3    H231029   0.900   0.837   6.131 -1.0103 -1.5011  3.1833
 3132TIP3   OH231030   1.986   6.006   0.987  0.2158 -0.1939 -0.5523
 3132TIP3    H131031   1.943   5.966   1.063 -0.7497 -0.2692 -1.1298
 3132TIP3    H231032   2.073   5.965   0.985  0.0107 -0.6901  0.1170
 3133TIP3   OH231033   3.456   1.687   1.975  0.0486 -0.0637  0.1778
 3133TIP3    H131034   3.521   1.739   2.023  0.5721 -0.1488 -0.4419
 3133TIP3    H231035   3.507   1.622   1.928 -0.5618 -0.7331  0.4265
 3134TIP3   OH231036   1.750   2.197   0.586 -0.2744 -0.0035 -0.4940
 3134TIP3    H131037   1.695   2.203   0.508 -1.2233  0.2510  0.1788
 3134TIP3    H231038   1.698   2.238   0.655  0.1044 -1.1793  0.5160
 3135TIP3   OH231039   4.607   6.842   1.992  0.2951  0.4273  0.0234
 3135TIP3    H131040   4.621   6.810   2.082  0.2031 -1.9808 -0.7397
 3135TIP3    H231041   4.693   6.835   1.951 -0.5605 -3.9570 -1.5726
 3136TIP3   OH231042   4.247   2.419   0.895 -0.0124 -0.2874 -0.0759
 3136TIP3    H131043   4.294   2.356   0.840 -0.9773  0.1777 -1.4807
 3136TIP3    H231044   4.213   2.368   0.968  1.5778 -0.8592  0.3132
 3137TIP3   OH231045   2.802   6.398   7.009  0.3002 -0.3921 -0.1912
 3137TIP3    H131046   2.799   6.416   7.103  0.5826 -0.7623 -0.1095
 3137TIP3    H231047   2.881   6.346   6.997  0.2150 -0.4265 -0.6206
 3138TIP3   OH231048   1.701   5.677   8.114 -0.1223 -0.1127  0.1386
 3138TIP3    H131049   1.609   5.675   8.141 -0.0306  0.7523  0.5410
 3138TIP3    H231050   1.748   5.638   8.188 -0.3482 -2.7015 -0.9935
 3139TIP3   OH231051   0.666   6.171   8.686  0.3711 -0.8118 -0.4552
 3139TIP3    H131052   0.756   6.170   8.719 -0.0624  0.6412  0.9469
 3139TIP3    H231053   0.636   6.261   8.703 -1.4091 -1.3257 -0.6848
 3140TIP3   OH231054   4.904   3.338   2.081 -0.5544 -0.2690 -0.3023
 3140TIP3    H131055   4.866   3.305   2.162  0.0523 -0.1509  0.0360
 3140TIP3    H231056   4.896   3.433   2.088  1.6414 -0.0957  0.7318
 3141TIP3   OH231057   2.481   0.918   7.257 -0.0648 -0.3907  0.2324
 3141TIP3    H131058   2.482   0.981   7.184 -1.5266 -2.3623 -1.6294
 3141TIP3    H231059   2.403   0.941   7.307 -0.6530 -0.7199 -0.5007
 3142TIP3   OH231060   4.618   2.084   7.926 -0.0848 -0.0582 -0.0272
 3142TIP3    H131061   4.625   2.158   7.865  0.1988  2.1732  2.4993
 3142TIP3    H231062   4.524   2.077   7.944 -0.0351  0.3142  0.4022
 3143TIP3   OH231063   5.082   3.683   2.111 -0.3412  0.2901 -0.4144
 3143TIP3    H131064   5.090   3.647   2.199  1.4251 -0.9908 -1.0351
 3143TIP3    H231065   4.991   3.667   2.086 -0.8282  0.5819  1.1200
 3144TIP3   OH231066   6.556   3.278   1.557  0.6988 -0.5153 -0.3950
 3144TIP3    H131067   6.589   3.213   1.494 -0.4330 -1.5241  0.0286
 3144TIP3    H231068   6.612   3.354   1.543  1.1991 -1.1059 -1.8468
 3145TIP3   OH231069   2.794   2.393   7.651  0.0356 -0.3673  0.1108
 3145TIP3    H131070   2.793   2.455   7.723  0.0414  0.4075 -0.5487
 3145TIP3    H231071   2.775   2.445   7.573  1.0899 -1.0016 -0.5947
 3146TIP3   OH231072   3.226   0.175   8.690  0.2532  0.2097 -0.7708
 3146TIP3    H131073   3.224   0.271   8.689  0.4680  0.2153 -1.4406
 3146TIP3    H231074   3.271   0.152   8.609  0.4674 -0.4543 -0.4674
 3147TIP3   OH231075   1.795   3.523   1.865  0.1231  0.7683 -0.3130
 3147TIP3    H131076   1.808   3.429   1.860 -0.4348  0.7451 -1.9993
 3147TIP3    H231077   1.818   3.555   1.777  1.3353  2.3475  0.5274
 3148TIP3   OH231078   3.904   3.083   7.170 -0.1689  0.7018 -0.5368
 3148TIP3    H131079   3.915   3.041   7.084  0.9373  1.4827 -0.7921
 3148TIP3    H231080   3.823   3.045   7.204 -0.2368 -0.1764 -1.6022
 3149TIP3   OH231081   5.808   2.993   8.751 -0.8723 -0.2126 -0.0437
 3149TIP3    H131082   5.897   3.029   8.749 -1.1604  0.5708  0.6267
 3149TIP3    H231083   5.809   2.933   8.826 -0.9943  0.0502  0.1714
 3150TIP3   OH231084   2.746   3.901   8.793 -0.5648  0.3339  0.1565
 3150TIP3    H131085   2.748   3.989   8.831 -0.4734 -0.0635  1.1020
 3150TIP3    H231086   2.730   3.916   8.700  1.9696  1.4770 -0.1680
 3151TIP3   OH231087   5.289   5.639   0.200  0.4395  0.2592  0.2928
 3151TIP3    H131088   5.336   5.557   0.213 -1.5439 -1.0679 -0.3325
 3151TIP3    H231089   5.324   5.674   0.118 -0.2741 -1.1952 -0.6740
 3152TIP3   OH231090   0.361   1.144   8.834  0.1062  0.0419 -0.3936
 3152TIP3    H131091   0.346   1.065   8.886  0.0157  0.4746  0.2550
 3152TIP3    H231092   0.426   1.118   8.769  0.4489 -0.4415  0.1310
 3153TIP3   OH231093   0.069   0.831   7.748  0.0358 -0.5224 -0.1779
 3153TIP3    H131094   0.120   0.814   7.669  0.1773 -1.4708  0.1114
 3153TIP3    H231095  -0.018   0.856   7.715 -0.1785 -1.8017 -0.6323
 3154TIP3   OH231096   0.736   4.114   7.268 -1.0871  0.0561 -0.0362
 3154TIP3    H131097   0.688   4.176   7.213 -0.5766 -0.1964 -0.7825
 3154TIP3    H231098   0.709   4.028   7.236  0.0178 -0.0950 -0.6364
 3155TIP3   OH231099   6.761   1.904   0.894  0.2166 -0.1325  0.3757
 3155TIP3    H131100   6.758   1.949   0.810 -0.9688 -0.1226  0.4030
 3155TIP3    H231101   6.740   1.813   0.874  0.7959 -0.3089  0.5526
 3156TIP3   OH231102   6.133   1.096   1.084 -0.7881 -0.0164 -0.1202
 3156TIP3    H131103   6.046   1.070   1.052 -0.5905 -0.4396 -0.3116
 3156TIP3    H231104   6.153   1.034   1.153 -1.3540  1.0908  1.0764
 3157TIP3   OH231105   0.344   6.517   0.810  0.3085  0.4390  0.5837
 3157TIP3    H131106   0.360   6.574   0.885 -1.1164  1.9114 -0.1557
 3157TIP3    H231107   0.311   6.576   0.742 -2.0816 -1.3450  0.0474
 3158TIP3   OH231108   6.245   5.218   0.999  0.0207  0.7335 -0.1795
 3158TIP3    H131109   6.247   5.125   1.023 -0.2861  1.0362  1.0900
 3158TIP3    H231110   6.334   5.236   0.968  0.4865  0.3295  0.8639
 3159TIP3   OH231111   3.186   5.419   0.514 -0.0441 -0.2263  0.0752
 3159TIP3    H131112   3.236   5.345   0.548  0.7336 -0.9344 -2.3846
 3159TIP3    H231113   3.096   5.387   0.511  0.1869 -0.8522 -0.3619
 3160TIP3   OH231114   3.238   5.029   7.727 -0.1849  0.1369 -0.7631
 3160TIP3    H131115   3.297   5.058   7.797 -0.0955  1.3319 -1.3055
 3160TIP3    H231116   3.295   5.018   7.651 -0.7876  2.5528 -1.6374
 3161TIP3   OH231117   2.414   4.757   1.210  0.0398 -0.2521 -0.3206
 3161TIP3    H131118   2.394   4.712   1.293 -1.2032 -1.4749 -1.2287
 3161TIP3    H231119   2.328   4.777   1.173  0.5529  2.4384 -0.2540
 3162TIP3   OH231120   5.027   4.223   7.692  0.1960  0.3699 -0.4429
 3162TIP3    H131121   5.010   4.132   7.671  0.3945 -0.0374  1.0323
 3162TIP3    H231122   5.109   4.221   7.743  0.1793  1.3575 -0.3490
 3163TIP3   OH231123   5.202   6.069   6.905 -0.4679 -0.0954 -0.2550
 3163TIP3    H131124   5.245   5.994   6.947 -0.9025  0.3569  1.0575
 3163TIP3    H231125   5.181   6.038   6.817 -0.7843 -1.5937  0.3024
 3164TIP3   OH231126   1.785   0.986   6.844  0.6402  0.5211 -0.2942
 3164TIP3    H131127   1.747   0.898   6.852  3.3884 -0.6598  1.0773
 3164TIP3    H231128   1.710   1.045   6.852 -0.9890 -1.6189  2.1096
 3165TIP3   OH231129   1.478   4.760   0.126 -0.3473 -0.3294 -0.2438
 3165TIP3    H131130   1.510   4.734   0.040 -0.9445  1.3828 -1.0270
 3165TIP3    H231131   1.477   4.679   0.177 -0.2294 -1.4292 -1.9154
 3166TIP3   OH231132   1.929   5.007   1.624 -0.0262 -0.1296  0.1758
 3166TIP3    H131133   2.002   4.988   1.682  1.0566  2.6329 -0.1309
 3166TIP3    H231134   1.935   4.941   1.555  1.9112 -0.2570  0.4206
 3167TIP3   OH231135   6.124   1.177   6.774  0.0576  0.5721 -0.4678
 3167TIP3    H131136   6.085   1.107   6.723 -0.4883  0.6063 -0.1100
 3167TIP3    H231137   6.218   1.165   6.764 -0.0402  0.5617 -1.4450
 3168TIP3   OH231138   0.165   2.906   8.278  0.0108 -0.1339  0.0701
 3168TIP3    H131139   0.213   2.976   8.234 -0.5132  0.2362  0.0794
 3168TIP3    H231140   0.073   2.924   8.259 -0.2153 -0.0685  1.1615
 3169TIP3   OH231141   0.829   4.025   6.924  0.1257  0.1468  0.0878
 3169TIP3    H131142   0.887   3.987   6.991  1.1211 -0.1279 -0.9090
 3169TIP3    H231143   0.761   3.959   6.912 -0.9278  0.8324  1.8813
 3170TIP3   OH231144   3.634   6.857   8.487  0.9984 -0.2450 -0.6069
 3170TIP3    H131145   3.667   6.892   8.570 -0.0804 -3.6993  1.4599
 3170TIP3    H231146   3.544   6.887   8.483  1.1595  0.2295 -0.7244
 3171TIP3   OH231147   1.209   3.334   6.892 -0.4280  0.2737  0.1993
 3171TIP3    H131148   1.226   3.394   6.819 -1.4139  0.5522  0.1796
 3171TIP3    H231149   1.287   3.339   6.946  2.4106 -3.3086 -3.0505
 3172TIP3   OH231150   4.704   2.574   7.456  0.1629  0.0019 -0.5137
 3172TIP3    H131151   4.786   2.608   7.421  1.3851 -2.0910  0.2082
 3172TIP3    H231152   4.641   2.585   7.384  1.2611  0.8465 -1.3717
 3173TIP3   OH231153   3.698   2.479   7.556 -0.2702 -0.0835  0.0735
 3173TIP3    H131154   3.692   2.574   7.561  1.0481 -0.0338  1.3715
 3173TIP3    H231155   3.622   2.447   7.606 -0.2321  0.3000  0.3791
 3174TIP3   OH231156   0.478   1.938   7.776  0.3387 -0.0869 -0.1821
 3174TIP3    H131157   0.421   1.863   7.759  0.0581  0.4147 -1.5765
 3174TIP3    H231158   0.427   1.995   7.832  0.2596 -0.5689  0.2472
 3175TIP3   OH231159   0.945   3.522   7.603 -0.2544  0.0896 -0.1860
 3175TIP3    H131160   0.870   3.482   7.647  0.4315  0.0899  1.0345
 3175TIP3    H231161   0.912   3.605   7.569 -0.6382  0.4143  0.9590
 3176TIP3   OH231162   3.681   4.231   0.503  0.0323 -0.1439 -0.0199
 3176TIP3    H131163   3.646   4.203   0.418 -1.7132  1.4829  0.0783
 3176TIP3    H231164   3.775   4.212   0.498 -0.3766 -2.1319 -1.4278
 3177TIP3   OH231165   0.712   3.327   0.318 -0.3771  0.2429  0.1266
 3177TIP3    H131166   0.643   3.338   0.383  0.3406 -0.2569  1.0016
 3177TIP3    H231167   0.786   3.292   0.368 -0.3832 -1.9467 -1.2871
 3178TIP3   OH231168   1.970   6.090   0.714 -0.0636 -0.5287 -0.5380
 3178TIP3    H131169   1.954   6.073   0.807 -1.8706  0.1622 -0.6682
 3178TIP3    H231170   2.056   6.052   0.696  1.1958  0.9861  1.8272
 3179TIP3   OH231171   1.920   6.652   6.869 -0.0341  0.3522  0.2850
 3179TIP3    H131172   1.887   6.604   6.945  1.1115  0.8566  1.1414
 3179TIP3    H231173   1.843   6.691   6.829 -0.8221 -1.0287  0.3867
 3180TIP3   OH231174   3.133   5.685   0.789  0.3426  0.0078  0.7162
 3180TIP3    H131175   3.209   5.718   0.740  0.3309  0.9755  1.3092
 3180TIP3    H231176   3.138   5.731   0.874 -0.7551 -0.1118  0.8572
 3181TIP3   OH231177   2.230   6.767   8.520 -0.4898 -0.3016  0.2682
 3181TIP3    H131178   2.238   6.856   8.487 -1.9106  0.6862  2.3945
 3181TIP3    H231179   2.225   6.712   8.441  0.4576  1.4561 -1.0765
 3182TIP3   OH231180   3.554   3.311   0.683 -0.0164  0.0131  0.9101
 3182TIP3    H131181   3.517   3.314   0.771 -0.1742  1.9014  0.8141
 3182TIP3    H231182   3.479   3.328   0.625  0.4201  0.7437  0.5439
 3183TIP3   OH231183   5.579   3.568   8.814  0.3340  0.0783 -0.1535
 3183TIP3    H131184   5.593   3.474   8.801  1.9016  0.5271 -2.3881
 3183TIP3    H231185   5.534   3.596   8.734 -1.4003  1.0387  1.1006
 3184TIP3   OH231186   6.122   2.255   6.637 -0.3347 -0.6243 -0.6833
 3184TIP3    H131187   6.150   2.346   6.645 -1.1764 -0.5019  2.1993
 3184TIP3    H231188   6.030   2.260   6.614  0.0431 -0.8417 -2.3590
 3185TIP3   OH231189   0.666   4.364   8.822 -0.3951  0.1175 -0.4791
 3185TIP3    H131190   0.681   4.456   8.845  0.7642  0.0523 -0.9046
 3185TIP3    H231191   0.596   4.366   8.758 -0.8930  0.6397  0.0710
 3186TIP3   OH231192   1.462   6.680   6.826  0.2193  0.1982  0.1089
 3186TIP3    H131193   1.531   6.618   6.803  0.2492  0.0427  0.6280
 3186TIP3    H231194   1.381   6.635   6.803  0.2855  0.4016 -0.5510
 3187TIP3   OH231195   6.545   6.260   6.889 -0.4823 -0.1967  0.1415
 3187TIP3    H131196   6.556   6.187   6.829 -2.6127  1.1919 -2.1247
 3187TIP3    H231197   6.457   6.248   6.925  0.1310 -0.0884  1.7488
 3188TIP3   OH231198   3.639   3.347   8.717  0.1582 -0.0792 -0.0306
 3188TIP3    H131199   3.730   3.321   8.704 -0.1513 -1.5932  0.5490
 3188TIP3    H231200   3.644   3.426   8.771  1.1450  0.9454 -1.5323
 3189TIP3   OH231201   4.223   6.214   8.423 -0.3709  0.1801 -0.3934
 3189TIP3    H131202   4.198   6.171   8.505  1.3225 -0.2448 -0.0560
 3189TIP3    H231203   4.149   6.270   8.401 -0.6270  0.7543  1.7475
 3190TIP3   OH231204   6.234   1.575   7.621 -0.3345  0.2892 -0.3543
 3190TIP3    H131205   6.300   1.628   7.665  1.1946 -1.4933 -0.3578
 3190TIP3    H231206   6.230   1.611   7.532  1.6304 -0.3710 -0.7455
 3191TIP3   OH231207   3.250   5.073   7.302  0.2782  0.3396  0.2027
 3191TIP3    H131208   3.233   5.148   7.245  2.1491 -0.3856 -1.4039
 3191TIP3    H231209   3.196   5.002   7.266 -0.3187  0.4780  0.7933
 3192TIP3   OH231210   1.958   1.815   0.070  0.6383 -0.0491 -0.3343
 3192TIP3    H131211   1.878   1.795   0.118  0.2950  0.6595 -0.6058
 3192TIP3    H231212   2.020   1.845   0.136  1.1834 -1.9887  0.0974
 3193TIP3   OH231213   5.696   1.754   1.396 -0.3599 -0.4882 -0.0914
 3193TIP3    H131214   5.686   1.737   1.490  2.4321 -1.3563  0.1347
 3193TIP3    H231215   5.775   1.807   1.389 -1.4925  1.0929 -1.8700
 3194TIP3   OH231216   2.591   3.806   0.542 -0.1480 -0.0823 -0.1904
 3194TIP3    H131217   2.619   3.721   0.508 -2.0601 -0.8310 -0.0194
 3194TIP3    H231218   2.622   3.807   0.632 -0.4710 -0.7783 -0.0662
 3195TIP3   OH231219   5.780   4.400   1.405 -0.2254  0.2648  0.2807
 3195TIP3    H131220   5.799   4.351   1.485 -0.6966  0.7629  0.7050
 3195TIP3    H231221   5.686   4.388   1.392 -0.4550  1.4733  0.6884
 3196TIP3   OH231222   2.530   3.703   6.744 -0.1022  0.2062 -0.3642
 3196TIP3    H131223   2.607   3.649   6.760 -0.7180 -0.5062  0.2715
 3196TIP3    H231224   2.565   3.791   6.727  0.9310 -0.4616 -1.8521
 3197TIP3   OH231225   3.886   2.688   7.261 -0.3093  0.1207 -0.2416
 3197TIP3    H131226   3.880   2.748   7.335  0.7449 -0.6472  0.4989
 3197TIP3    H231227   3.821   2.720   7.199 -2.0826  0.0665  1.5031
 3198TIP3   OH231228   0.009   4.195   1.858 -0.3205  0.4382 -0.2382
 3198TIP3    H131229   0.008   4.280   1.903 -1.6957  0.7790 -0.8560
 3198TIP3    H231230  -0.047   4.208   1.781  1.0850 -0.4463 -1.4596
 3199TIP3   OH231231   0.824   3.471   7.051 -0.0036  0.6972 -0.1588
 3199TIP3    H131232   0.885   3.545   7.052 -0.1147  0.7880 -0.1083
 3199TIP3    H231233   0.738   3.511   7.037  0.2019  0.3942 -2.9558
 3200TIP3   OH231234   3.505   5.762   0.461  0.5089  0.4264  0.1412
 3200TIP3    H131235   3.509   5.686   0.520 -0.5628  2.7447  3.5194
 3200TIP3    H231236   3.413   5.787   0.460  0.5442  0.7064 -2.3657
 3201TIP3   OH231237   0.118   1.896   1.959  0.0434 -0.7079  0.0556
 3201TIP3    H131238   0.198   1.943   1.982  0.8556 -1.0815 -1.7846
 3201TIP3    H231239   0.130   1.808   1.996 -0.6034 -0.0891  1.8089
 3202TIP3   OH231240   2.224   5.282   8.127 -0.1219  0.2390  0.0807
 3202TIP3    H131241   2.243   5.314   8.039 -0.8040 -1.4587 -0.7343
 3202TIP3    H231242   2.137   5.317   8.147  0.2109  0.9714  0.2607
 3203TIP3   OH231243   6.068   1.814   0.365 -0.0654 -0.4842 -0.2008
 3203TIP3    H131244   6.030   1.874   0.430 -0.4864 -0.4685 -0.4583
 3203TIP3    H231245   6.095   1.870   0.293 -2.4554 -0.7781 -1.4157
 3204TIP3   OH231246   0.971   4.900   2.326  0.1227 -0.2981 -0.4357
 3204TIP3    H131247   0.931   4.849   2.255 -0.9056  0.5465 -0.4890
 3204TIP3    H231248   0.932   4.863   2.406 -1.6169  1.1658 -0.5345
 3205TIP3   OH231249   0.492   0.610   0.472 -0.1861 -0.0874 -0.2068
 3205TIP3    H131250   0.527   0.697   0.488  0.9391 -0.5002 -0.3588
 3205TIP3    H231251   0.459   0.581   0.557  0.9750 -0.1790  0.2247
 3206TIP3   OH231252   3.703   3.802   2.119 -0.2128  0.4641 -0.0180
 3206TIP3    H131253   3.663   3.757   2.194 -1.3492  3.5378  1.3779
 3206TIP3    H231254   3.795   3.810   2.142  0.0640 -1.2300 -0.4002
 3207TIP3   OH231255   3.627   1.640   6.723  0.5885 -0.2510  0.3281
 3207TIP3    H131256   3.578   1.694   6.661  0.8793  0.0262  0.3361
 3207TIP3    H231257   3.596   1.551   6.707  0.7713 -0.2034 -0.3320
 3208TIP3   OH231258   1.628   3.805   7.682  0.3734 -0.3710  0.0674
 3208TIP3    H131259   1.557   3.817   7.746 -0.8583  1.6363 -1.5519
 3208TIP3    H231260   1.584   3.775   7.603  1.2724  1.0860 -1.0306
 3209TIP3   OH231261   2.417   1.759   7.399  0.0976 -0.3041 -0.0254
 3209TIP3    H131262   2.477   1.816   7.449  1.5011 -0.3973 -1.5087
 3209TIP3    H231263   2.354   1.819   7.360  1.0817  0.1997 -0.9124
 3210TIP3   OH231264   5.110   3.258   1.468  0.4906 -0.1351 -0.0347
 3210TIP3    H131265   5.025   3.269   1.425  0.0282 -1.7875  0.3992
 3210TIP3    H231266   5.142   3.348   1.479 -1.1980  0.5354 -0.1723
 3211TIP3   OH231267   5.451   6.731   1.207  0.1388  0.1224  0.6310
 3211TIP3    H131268   5.530   6.770   1.245  0.0341  2.0235 -0.9278
 3211TIP3    H231269   5.479   6.700   1.121 -0.7908  0.9300  0.0089
 3212TIP3   OH231270   2.489   5.268   7.135 -0.0313  0.4618  0.0543
 3212TIP3    H131271   2.407   5.231   7.105  0.5633 -0.0435 -0.9965
 3212TIP3    H231272   2.514   5.331   7.067  1.0459 -0.2787 -0.2681
 3213TIP3   OH231273   3.149   4.758   8.091  0.0810  0.0457  0.1611
 3213TIP3    H131274   3.168   4.761   7.997  0.6998  0.6931  0.2984
 3213TIP3    H231275   3.054   4.771   8.097  0.0578  0.1220 -0.3692
 3214TIP3   OH231276   5.099   4.359   0.624  0.0348 -0.0365 -0.3702
 3214TIP3    H131277   5.135   4.435   0.578  0.5847  0.5039  0.9067
 3214TIP3    H231278   5.110   4.380   0.717 -0.0855 -1.5495  0.0042
 3215TIP3   OH231279   1.986   3.107   8.686 -0.5590  0.0716 -0.4008
 3215TIP3    H131280   2.077   3.131   8.704 -0.2710 -0.3612 -1.2486
 3215TIP3    H231281   1.949   3.184   8.641 -1.6949  1.7656  3.0338
 3216TIP3   OH231282   3.902   4.963   6.958  0.1780  0.2063 -0.4506
 3216TIP3    H131283   3.925   5.024   7.028 -0.5769  2.5191 -2.0908
 3216TIP3    H231284   3.925   5.010   6.878 -1.6806 -1.1319 -1.8426
 3217TIP3   OH231285   4.172   6.613   8.822 -0.3517 -0.7956 -0.0287
 3217TIP3    H131286   4.213   6.682   8.874 -0.3101 -1.0674  0.2978
 3217TIP3    H231287   4.246   6.573   8.775 -0.4234 -0.3735 -0.5097
 3218TIP3   OH231288   6.363   4.768   7.935 -0.1221  0.3687  0.3520
 3218TIP3    H131289   6.430   4.807   7.879 -0.5357  0.7385  0.1138
 3218TIP3    H231290   6.331   4.693   7.884  0.2956  0.0300  0.5813
 3219TIP3   OH231291   0.533   3.848   7.448 -0.1897 -0.3519  0.4063
 3219TIP3    H131292   0.545   3.776   7.509  0.3439  0.4207  1.2265
 3219TIP3    H231293   0.557   3.926   7.497 -0.4693  0.3635 -0.5613
 3220TIP3   OH231294   2.252   6.379   6.952  0.0558 -0.5984 -0.1960
 3220TIP3    H131295   2.258   6.313   6.882 -0.0840 -0.3779 -0.4180
 3220TIP3    H231296   2.309   6.346   7.021 -1.1983 -1.7332  0.3349
 3221TIP3   OH231297   1.547   0.013   8.323  0.2177 -0.1585  0.5692
 3221TIP3    H131298   1.575   0.076   8.389 -1.0653  0.5888  0.4231
 3221TIP3    H231299   1.474  -0.034   8.364  0.3882 -0.7280  0.2316
 3222TIP3   OH231300   0.633   1.430   1.173  0.2870  0.1760 -0.8987
 3222TIP3    H131301   0.721   1.427   1.210  0.8094  1.4048 -1.9578
 3222TIP3    H231302   0.575   1.424   1.249  1.2845  0.0701 -0.1215
 3223TIP3   OH231303   3.301   0.238   7.846 -0.5854 -0.1029 -0.1431
 3223TIP3    H131304   3.213   0.220   7.812 -2.2612  4.7649  0.7468
 3223TIP3    H231305   3.292   0.231   7.941 -0.2019  1.0297 -0.0125
 3224TIP3   OH231306   3.537   5.388   1.405 -0.0383  0.0640  0.0166
 3224TIP3    H131307   3.548   5.380   1.310 -1.0799  0.6559 -0.1613
 3224TIP3    H231308   3.522   5.481   1.420  0.4102  0.0206  0.8080
 3225TIP3   OH231309   4.405   2.122   8.495  0.2051  0.0036 -0.4478
 3225TIP3    H131310   4.480   2.119   8.554 -0.4902 -1.0529  0.4194
 3225TIP3    H231311   4.419   2.201   8.442  1.3709  0.4022  0.4150
 3226TIP3   OH231312   0.528   3.612   1.005 -0.4103  0.5415 -0.4720
 3226TIP3    H131313   0.623   3.615   1.009 -0.3412 -0.2155 -1.2299
 3226TIP3    H231314   0.509   3.553   0.932 -1.4160 -2.4396  1.9436
 3227TIP3   OH231315   6.016   2.601   0.148  0.3886  0.2909  0.2669
 3227TIP3    H131316   5.945   2.560   0.198  0.9969 -1.4961 -0.2550
 3227TIP3    H231317   5.973   2.667   0.095 -0.3652  1.8775  2.6909
 3228TIP3   OH231318   0.728   5.663   7.151 -0.2388  0.4651 -0.2599
 3228TIP3    H131319   0.691   5.708   7.075 -0.9371  0.5638  0.1295
 3228TIP3    H231320   0.738   5.572   7.123 -1.6006  0.2400 -0.1165
 3229TIP3   OH231321   1.735   4.380   6.176 -0.1547 -0.0709  0.2670
 3229TIP3    H131322   1.748   4.298   6.128 -1.6710  0.1187 -0.5098
 3229TIP3    H231323   1.697   4.440   6.112  0.7421  1.2074  0.8768
 3230TIP3   OH231324   5.169   2.897   8.134  0.0531  0.3346  0.1931
 3230TIP3    H131325   5.113   2.962   8.178 -0.1168  0.2049  0.1683
 3230TIP3    H231326   5.107   2.833   8.098  0.2256  0.0873  0.3308
 3231TIP3   OH231327   5.254   6.057   7.490  0.5572  0.3795  0.1435
 3231TIP3    H131328   5.161   6.066   7.508  0.9631  0.4619  2.4765
 3231TIP3    H231329   5.284   6.146   7.469 -0.1972  0.0618 -2.7206
 3232TIP3   OH231330   2.527   2.651   8.773 -0.0805  0.5017 -0.4244
 3232TIP3    H131331   2.483   2.610   8.848  0.3793 -0.0335 -0.4446
 3232TIP3    H231332   2.508   2.592   8.700 -0.2463  0.8472 -0.6591
 3233TIP3   OH231333   2.539   3.046   7.936 -0.1412 -0.0762 -0.0247
 3233TIP3    H131334   2.476   3.118   7.930 -0.7880 -0.2009  3.2499
 3233TIP3    H231335   2.623   3.088   7.952 -0.1164 -0.0214 -0.2883
 3234TIP3   OH231336   6.125   0.968   8.389 -0.2454  0.3741  0.4565
 3234TIP3    H131337   6.040   0.925   8.380  0.2983 -1.0743  1.7158
 3234TIP3    H231338   6.127   0.996   8.481  0.5179  0.6541  0.3568
 3235TIP3   OH231339   3.357   2.861   6.813  0.2517 -0.0863 -1.0735
 3235TIP3    H131340   3.316   2.944   6.840 -0.4631 -0.1891 -1.8062
 3235TIP3    H231341   3.322   2.844   6.726 -0.9475 -2.0320 -0.2784
 3236TIP3   OH231342   1.168   6.779   2.042 -0.3697  0.0998  0.5945
 3236TIP3    H131343   1.118   6.846   1.997 -0.3083  1.0273  1.8256
 3236TIP3    H231344   1.113   6.701   2.040 -1.2545  0.7134  0.7344
 3237TIP3   OH231345   4.686   4.425   7.458 -0.6116 -0.7306 -0.4871
 3237TIP3    H131346   4.692   4.336   7.491 -2.6661 -1.2537 -1.3384
 3237TIP3    H231347   4.741   4.427   7.380  1.2292 -0.5753  0.7770
 3238TIP3   OH231348   3.468   5.889   8.626 -0.4049  0.0565  0.0721
 3238TIP3    H131349   3.444   5.930   8.543  0.6273  0.1599 -0.1893
 3238TIP3    H231350   3.390   5.898   8.680 -1.1081 -0.0353 -0.8865
 3239TIP3   OH231351   4.293   1.479   8.714 -0.4253  0.4620  0.2335
 3239TIP3    H131352   4.204   1.458   8.743 -0.1315 -0.0178  0.8194
 3239TIP3    H231353   4.297   1.574   8.712 -1.6122  0.5294 -1.8840
 3240TIP3   OH231354   4.209   6.532   0.553 -0.1895 -0.2107  0.1421
 3240TIP3    H131355   4.263   6.603   0.519 -0.4686  0.2052  0.5614
 3240TIP3    H231356   4.164   6.570   0.628  0.3902 -1.1036  0.9685
 3241TIP3   OH231357   3.055   1.190   8.578 -0.0881  0.0855  0.3747
 3241TIP3    H131358   3.089   1.264   8.528  1.5126  0.4062  1.8733
 3241TIP3    H231359   3.130   1.156   8.625 -0.9088 -2.1664  0.1853
 3242TIP3   OH231360   0.459   6.017   0.412 -0.3572  0.1295 -0.6967
 3242TIP3    H131361   0.459   5.999   0.506 -0.8511  3.1560 -0.0199
 3242TIP3    H231362   0.420   5.939   0.373  0.3729 -1.4556  1.5150
 3243TIP3   OH231363   5.483   4.859   0.422  0.1483  0.5867  0.2494
 3243TIP3    H131364   5.540   4.816   0.486 -2.3495 -1.0594  1.5703
 3243TIP3    H231365   5.404   4.805   0.421 -1.8097  3.2672 -0.6815
 3244TIP3   OH231366   5.977   0.126   1.161  0.0629  0.1756  0.6966
 3244TIP3    H131367   6.072   0.136   1.159  0.2368 -1.3690 -1.2170
 3244TIP3    H231368   5.949   0.144   1.072 -1.2769 -0.8477  0.8844
 3245TIP3   OH231369   1.053   3.500   1.133 -0.3418 -0.0052  0.2598
 3245TIP3    H131370   1.072   3.423   1.186  0.3912  0.1273  0.2057
 3245TIP3    H231371   1.139   3.535   1.110 -0.6631  0.6537  0.0280
 3246TIP3   OH231372   1.763   2.736   7.884  0.0207  0.6177 -0.2769
 3246TIP3    H131373   1.735   2.675   7.952  0.3737 -0.1797 -0.8273
 3246TIP3    H231374   1.683   2.754   7.834 -0.1654  0.9230  0.1293
 3247TIP3   OH231375   2.251   0.350   7.547 -0.3941 -0.1410  0.4853
 3247TIP3    H131376   2.263   0.313   7.635 -2.5097  0.7799  1.2162
 3247TIP3    H231377   2.190   0.290   7.504 -1.4783  0.8422  0.6189
 3248TIP3   OH231378   3.635   5.490   6.863  0.2764 -0.6307  0.2117
 3248TIP3    H131379   3.670   5.540   6.789  1.5644  0.0224  1.2164
 3248TIP3    H231380   3.708   5.486   6.926 -1.6485  1.4834  2.7886
 3249TIP3   OH231381   3.586   5.905   8.096  0.4181  0.3094  0.0710
 3249TIP3    H131382   3.551   5.869   8.014  0.1752  1.0325 -0.1549
 3249TIP3    H231383   3.563   5.998   8.093 -2.3505 -0.1855  2.3860
 3250TIP3   OH231384   4.905   4.345   8.276 -0.0087 -0.7798 -0.4006
 3250TIP3    H131385   4.850   4.283   8.228 -2.3293  2.7170 -2.7608
 3250TIP3    H231386   4.844   4.410   8.310  2.4040  2.1843 -1.2685
 3251TIP3   OH231387   2.110   5.105   0.771  0.2668 -0.4316 -0.2292
 3251TIP3    H131388   2.101   5.104   0.676 -0.6471  2.8365 -0.2770
 3251TIP3    H231389   2.027   5.139   0.804  0.9716 -0.3601  1.6555
 3252TIP3   OH231390   4.696   5.949   0.737 -0.0250  0.3598  0.2609
 3252TIP3    H131391   4.619   5.999   0.766 -0.8141 -0.3431 -0.5865
 3252TIP3    H231392   4.660   5.868   0.701  1.1905 -0.5110  0.9374
 3253TIP3   OH231393   3.330   2.816   1.810 -0.0930  0.2232 -0.4986
 3253TIP3    H131394   3.265   2.771   1.865  1.2372 -3.7591 -1.7972
 3253TIP3    H231395   3.356   2.892   1.860 -2.1611 -0.7559  2.3091
 3254TIP3   OH231396   1.191   4.303   7.608 -0.6441 -0.7718 -0.6940
 3254TIP3    H131397   1.176   4.265   7.521  0.1714 -1.1779 -0.6646
 3254TIP3    H231398   1.281   4.278   7.630  0.0223  1.3596 -0.7621
 3255TIP3   OH231399   0.410   3.232   1.208 -0.0051 -0.4002  0.4200
 3255TIP3    H131400   0.453   3.155   1.245 -1.8077 -1.4842  0.3985
 3255TIP3    H231401   0.369   3.274   1.284 -1.6544 -1.2677  0.0692
 3256TIP3   OH231402   1.588   3.578   8.016 -0.0617  0.1244  0.0482
 3256TIP3    H131403   1.561   3.660   8.058 -1.4704  0.1486 -0.8307
 3256TIP3    H231404   1.683   3.583   8.013 -0.0092  0.8261  1.7734
 3257TIP3   OH231405   5.353   6.235   8.399 -0.4272  0.1321 -0.5863
 3257TIP3    H131406   5.345   6.207   8.490  0.2474  0.2439 -0.4850
 3257TIP3    H231407   5.270   6.209   8.358 -0.9996  0.6481  0.2096
 3258TIP3   OH231408   3.910   2.142   6.295 -0.1494 -0.4994  0.6513
 3258TIP3    H131409   3.832   2.189   6.324 -0.5695 -0.8739  0.1546
 3258TIP3    H231410   3.972   2.150   6.368 -0.1686  0.9097  0.5315
 3259TIP3   OH231411   4.866   5.449   2.165  0.1724  0.4319  0.5042
 3259TIP3    H131412   4.937   5.509   2.145  1.5798 -0.3758  2.6819
 3259TIP3    H231413   4.864   5.388   2.092  0.8349  1.2530 -0.2122
 3260TIP3   OH231414   1.718   1.519   6.408 -0.0626  0.4466 -0.7378
 3260TIP3    H131415   1.807   1.498   6.382  0.5249 -0.1409  1.5143
 3260TIP3    H231416   1.666   1.444   6.380  0.8190 -0.9145  1.0648
 3261TIP3   OH231417   3.663   2.255   8.564 -0.8010 -0.1568  0.1159
 3261TIP3    H131418   3.598   2.292   8.623 -1.4479  0.2255 -0.8245
 3261TIP3    H231419   3.629   2.272   8.476 -0.3134 -1.5560 -0.3645
 3262TIP3   OH231420   1.782   3.886   1.653 -0.4232 -0.1129  0.2068
 3262TIP3    H131421   1.828   3.803   1.652 -1.7467 -0.8759  0.3440
 3262TIP3    H231422   1.691   3.863   1.673 -1.2479  1.1402 -1.8228
 3263TIP3   OH231423   5.751   0.818   8.575  0.4152  0.3069  0.4650
 3263TIP3    H131424   5.811   0.854   8.510  1.3749  1.0799  1.7372
 3263TIP3    H231425   5.675   0.788   8.524  1.1071  0.9342 -0.9818
 3264TIP3   OH231426   1.314   0.139   0.385 -0.3233  0.6540 -0.0795
 3264TIP3    H131427   1.405   0.108   0.390 -1.0241 -1.6179 -0.3186
 3264TIP3    H231428   1.306   0.201   0.458  0.9954 -0.2686  0.9037
 3265TIP3   OH231429   6.196   4.975   6.827 -0.8476 -0.1181 -0.1568
 3265TIP3    H131430   6.209   5.066   6.852  1.2946 -0.3457 -0.2203
 3265TIP3    H231431   6.146   4.937   6.900 -0.1761  0.6911  0.7599
 3266TIP3   OH231432   5.207   6.157   7.797 -0.4420  0.2114  0.1197
 3266TIP3    H131433   5.204   6.228   7.733  0.1652 -1.4661 -1.8787
 3266TIP3    H231434   5.155   6.087   7.758  1.2171 -1.4254  0.7101
 3267TIP3   OH231435   3.915   0.138   0.889  0.0097  0.0084 -0.0464
 3267TIP3    H131436   3.996   0.187   0.888  0.2267 -0.3328  0.4761
 3267TIP3    H231437   3.873   0.161   0.972 -0.4036  0.1459 -0.2896
 3268TIP3   OH231438   4.501   2.354   8.362  0.3354  0.2620  0.4810
 3268TIP3    H131439   4.589   2.355   8.399  0.6377  2.6741 -0.1142
 3268TIP3    H231440   4.506   2.413   8.287 -2.3409  2.5061  1.8903
 3269TIP3   OH231441   3.782   0.917   0.830  0.5896 -0.0301  0.1671
 3269TIP3    H131442   3.738   0.914   0.745  1.6376 -0.0645 -0.3879
 3269TIP3    H231443   3.804   0.825   0.849  2.3477  0.1934 -0.6123
 3270TIP3   OH231444   1.155   6.468   8.545  0.0570 -0.5156 -0.3197
 3270TIP3    H131445   1.222   6.402   8.531 -0.9520 -1.5834 -0.3093
 3270TIP3    H231446   1.082   6.420   8.584 -0.3170  0.8121  0.6749
 3271TIP3   OH231447   1.112   3.516   8.108  0.1431  0.2578  0.6426
 3271TIP3    H131448   1.129   3.438   8.056 -0.6204  0.1335  0.5784
 3271TIP3    H231449   1.074   3.483   8.189 -1.8989  0.6576 -0.1104
 3272TIP3   OH231450   6.375   3.728   7.262 -0.0458 -0.3909  0.2218
 3272TIP3    H131451   6.453   3.680   7.233  0.1372 -0.3749  0.6688
 3272TIP3    H231452   6.410   3.799   7.316 -0.3294  0.1489 -0.2979
 3273TIP3   OH231453   2.351   0.361   1.364  0.0690 -0.3008  0.3083
 3273TIP3    H131454   2.347   0.265   1.368  0.2481 -0.2786  1.4245
 3273TIP3    H231455   2.289   0.385   1.295  0.6064 -1.2566 -0.5421
 3274TIP3   OH231456   5.347   4.633   0.318  0.7540  0.0925  0.2493
 3274TIP3    H131457   5.344   4.537   0.329  0.1423 -0.1381 -1.5876
 3274TIP3    H231458   5.424   4.649   0.264  0.4087  0.5533 -0.1136
 3275TIP3   OH231459   0.895   6.152   0.756  0.0811 -0.0155 -0.0999
 3275TIP3    H131460   0.891   6.196   0.841 -1.7573 -1.0487  0.3983
 3275TIP3    H231461   0.872   6.062   0.774  1.4786 -0.7031 -1.4640
 3276TIP3   OH231462   0.330   6.788   6.732 -0.4336 -0.2320  0.2015
 3276TIP3    H131463   0.321   6.850   6.660 -0.3678 -0.5669 -0.0931
 3276TIP3    H231464   0.252   6.804   6.786 -1.1162 -0.8194 -0.5843
 3277TIP3   OH231465   3.090   1.718   1.410 -0.1842  0.2479  0.0534
 3277TIP3    H131466   3.139   1.656   1.357 -1.3726 -0.0895 -0.6782
 3277TIP3    H231467   3.157   1.776   1.447  0.8787 -1.0457  0.2252
 3278TIP3   OH231468   3.132   5.640   7.753 -0.1992 -0.0178 -0.0651
 3278TIP3    H131469   3.215   5.594   7.752 -0.3896 -0.3959 -1.4134
 3278TIP3    H231470   3.150   5.723   7.709 -0.4306  0.1053  0.0698
 3279TIP3   OH231471   1.214   4.041   8.429  0.4978 -0.0414 -0.2678
 3279TIP3    H131472   1.251   3.997   8.506 -1.6626 -1.9710 -0.1923
 3279TIP3    H231473   1.176   4.122   8.463 -0.8406 -1.0911  0.8596
 3280TIP3   OH231474   5.409   0.619   7.894  0.4140  0.1242  0.1561
 3280TIP3    H131475   5.434   0.575   7.812  2.6043  1.6557 -0.0957
 3280TIP3    H231476   5.462   0.575   7.961  0.3800  0.4036  0.3652
 3281TIP3   OH231477   1.267   0.360   6.147 -0.2974  0.1335 -0.1918
 3281TIP3    H131478   1.259   0.266   6.132  0.0864 -0.3178  2.0459
 3281TIP3    H231479   1.217   0.376   6.227 -0.1584  1.8072 -0.3965
 3282TIP3   OH231480   4.287   3.073   6.088 -0.2263 -0.6189 -0.0218
 3282TIP3    H131481   4.239   2.991   6.087 -1.0724 -0.1313 -1.2125
 3282TIP3    H231482   4.219   3.141   6.090  0.4464  0.0855  1.7050
 3283TIP3   OH231483   2.164   4.294   1.599  0.7069  0.0459 -0.0901
 3283TIP3    H131484   2.109   4.353   1.547  1.8876  2.5742  1.3713
 3283TIP3    H231485   2.104   4.228   1.633 -0.9541  1.2371 -0.6284
 3284TIP3   OH231486   3.709   5.369   8.117 -0.0552  0.0195  0.1708
 3284TIP3    H131487   3.796   5.359   8.078  1.6218  2.2750  3.0187
 3284TIP3    H231488   3.710   5.312   8.194 -0.2244  1.6902  1.4588
 3285TIP3   OH231489   5.392   6.728   0.658 -0.4334  0.3681 -0.4696
 3285TIP3    H131490   5.313   6.780   0.646 -0.3628  0.3977 -0.7993
 3285TIP3    H231491   5.361   6.637   0.657 -0.1749  0.2227 -3.2135
 3286TIP3   OH231492   4.728   1.616   0.363 -0.4629 -0.0221 -0.1121
 3286TIP3    H131493   4.700   1.614   0.271  1.0818  2.2675 -0.7360
 3286TIP3    H231494   4.756   1.707   0.377  0.0985 -0.5208  2.3925
 3287TIP3   OH231495   3.601   5.391   6.268 -0.1996  0.3819 -0.4476
 3287TIP3    H131496   3.685   5.432   6.248 -0.6172  0.9467 -1.0938
 3287TIP3    H231497   3.624   5.311   6.316  0.6674  0.8648 -0.0408
 3288TIP3   OH231498   3.463   5.034   6.579 -0.0929  0.3142  0.1422
 3288TIP3    H131499   3.459   5.109   6.638 -0.5112 -0.8537  1.6677
 3288TIP3    H231500   3.556   5.008   6.579 -0.4214 -1.0974  2.2253
 3289TIP3   OH231501   1.436   5.765   8.053 -0.1435  0.3133  0.6819
 3289TIP3    H131502   1.492   5.739   7.979  0.6896 -0.3860  1.5327
 3289TIP3    H231503   1.354   5.718   8.039  0.6952 -1.3756  1.2141
 3290TIP3   OH231504   3.723   2.499   8.157  0.5851  0.2879 -0.5713
 3290TIP3    H131505   3.637   2.500   8.116 -0.2441  0.5796  1.0581
 3290TIP3    H231506   3.709   2.543   8.241  1.8646 -1.4284  0.6119
 3291TIP3   OH231507   0.689   5.690   6.154 -0.2658 -0.6574  0.3564
 3291TIP3    H131508   0.720   5.643   6.232 -0.9560  0.9708  1.6919
 3291TIP3    H231509   0.764   5.743   6.127  0.0485 -1.3991 -0.2499
 3292TIP3   OH231510   6.678   5.391   0.647  0.1996  0.2169  0.8358
 3292TIP3    H131511   6.604   5.442   0.614 -1.0353 -0.9396  1.6742
 3292TIP3    H231512   6.736   5.455   0.688 -1.2684  0.9894  1.8127
 3293TIP3   OH231513   1.329   3.037   7.177  0.1211  0.0059 -0.0964
 3293TIP3    H131514   1.396   2.989   7.227 -0.0152 -0.0873 -0.0032
 3293TIP3    H231515   1.370   3.053   7.092  1.0935  1.8223  0.6534
 3294TIP3   OH231516   1.722   2.088   1.929 -0.2321  0.8386 -0.0845
 3294TIP3    H131517   1.734   2.181   1.948  1.0168  1.0669 -1.7226
 3294TIP3    H231518   1.631   2.081   1.901 -0.6579  1.3393  1.1002
 3295TIP3   OH231519   3.810   2.297   0.266 -0.2076  0.3079 -0.0539
 3295TIP3    H131520   3.770   2.263   0.186  1.3616 -3.7015  0.6104
 3295TIP3    H231521   3.742   2.292   0.332 -0.4815  0.0510 -0.3553
 3296TIP3   OH231522   5.451   4.665   1.663  0.3188 -0.2163 -0.8564
 3296TIP3    H131523   5.489   4.622   1.587  1.7654  0.4366 -0.5274
 3296TIP3    H231524   5.442   4.757   1.638  1.5549  0.1655 -0.0006
 3297TIP3   OH231525   1.950   0.989   8.797 -0.0615  0.3595  0.6390
 3297TIP3    H131526   1.912   0.933   8.730  0.8043 -0.1898  0.5920
 3297TIP3    H231527   1.883   0.995   8.865 -0.0700 -0.9547  0.7604
 3298TIP3   OH231528   2.785   1.936   1.792  0.2463  0.8808  0.4645
 3298TIP3    H131529   2.874   1.908   1.810  0.1814  1.7494  2.3320
 3298TIP3    H231530   2.730   1.884   1.850 -0.1381  2.5486  1.6876
 3299TIP3   OH231531   6.590   5.570   7.279 -0.1596  0.5362  0.3735
 3299TIP3    H131532   6.683   5.559   7.302 -0.1849 -0.8406 -0.1230
 3299TIP3    H231533   6.548   5.490   7.310 -0.5410 -0.4985 -2.5468
 3300TIP3   OH231534   4.837   0.795   0.371  0.5798  0.0171  0.2254
 3300TIP3    H131535   4.826   0.734   0.444 -2.6010 -1.1118 -0.9987
 3300TIP3    H231536   4.899   0.751   0.312  0.0867 -0.9734  0.4245
 3301TIP3   OH231537   4.788   1.931   0.675 -1.1008 -0.0084 -0.0696
 3301TIP3    H131538   4.876   1.968   0.684 -1.5049  0.7909  0.7206
 3301TIP3    H231539   4.787   1.894   0.587  0.9445 -2.5383  0.8414
 3302TIP3   OH231540   5.958   4.079   0.264 -0.3389  0.2945  0.2338
 3302TIP3    H131541   5.998   4.012   0.319 -0.6010 -0.0975 -0.0390
 3302TIP3    H231542   5.893   4.031   0.212  0.0495  0.6170 -0.5647
 3303TIP3   OH231543   3.693   5.261   0.347 -0.3418 -0.1562  0.1435
 3303TIP3    H131544   3.613   5.226   0.309 -0.6851  0.0657  0.6439
 3303TIP3    H231545   3.700   5.218   0.432 -1.2356  1.5823  1.1426
 3304TIP3   OH231546   0.885   3.464   0.116 -0.1887  0.3849  0.3126
 3304TIP3    H131547   0.958   3.415   0.155 -1.1353 -0.8178  0.6369
 3304TIP3    H231548   0.819   3.469   0.185 -0.9964  0.1684 -0.4188
 3305TIP3   OH231549   1.509   1.548   1.149 -0.3689 -0.0752  0.3407
 3305TIP3    H131550   1.510   1.504   1.234 -1.2288 -1.0637 -0.1366
 3305TIP3    H231551   1.595   1.591   1.144 -0.8462  1.2628  2.3158
 3306TIP3   OH231552   5.602   4.348   0.533 -0.3373  0.6197 -0.0511
 3306TIP3    H131553   5.647   4.427   0.563 -0.6962  0.3826  1.1717
 3306TIP3    H231554   5.629   4.280   0.595  0.3461 -0.3427 -1.3777
 3307TIP3   OH231555   1.047   4.548   7.328  0.7641  0.3043  0.1278
 3307TIP3    H131556   1.083   4.467   7.363 -0.4448 -0.0520  0.5876
 3307TIP3    H231557   1.121   4.589   7.282  1.3506 -1.1204 -0.2567
 3308TIP3   OH231558   1.048   6.825   7.432  0.3155  0.1491 -0.3915
 3308TIP3    H131559   0.975   6.808   7.491  0.1087  0.3756 -0.5831
 3308TIP3    H231560   1.026   6.907   7.388  0.2685 -0.2276 -1.0865
 3309TIP3   OH231561   0.388   2.446   0.419  0.2807 -0.4564  0.1071
 3309TIP3    H131562   0.298   2.421   0.439  1.3713 -2.6017  2.8938
 3309TIP3    H231563   0.381   2.536   0.386 -2.7100 -0.0006  1.6587
 3310TIP3   OH231564   2.391   6.538   7.573 -0.3029 -0.3577 -0.7602
 3310TIP3    H131565   2.369   6.612   7.629 -0.2842 -0.2190 -0.9363
 3310TIP3    H231566   2.419   6.469   7.634 -0.7315 -0.3658 -0.5649
 3311TIP3   OH231567   5.454   0.473   8.584  0.3043 -0.0274  0.0512
 3311TIP3    H131568   5.364   0.440   8.582 -0.0616  0.9439 -0.0363
 3311TIP3    H231569   5.451   0.553   8.531  1.2610 -0.0839 -0.0955
 3312TIP3   OH231570   2.596   5.713   7.139 -0.6391  0.3861 -0.6127
 3312TIP3    H131571   2.515   5.695   7.186  0.6876 -2.1750  0.8978
 3312TIP3    H231572   2.620   5.802   7.164 -0.9383 -0.2457  2.1856
 3313TIP3   OH231573   6.234   1.211   0.127  0.6409  0.1318 -0.4100
 3313TIP3    H131574   6.305   1.210   0.190 -0.9962 -1.2154  1.5638
 3313TIP3    H231575   6.262   1.273   0.059  3.0386  0.6709  0.9665
 3314TIP3   OH231576   2.612   2.663   1.091 -0.4744  0.4209 -0.3087
 3314TIP3    H131577   2.540   2.660   1.155 -0.0466 -0.5535  0.1419
 3314TIP3    H231578   2.616   2.575   1.055  2.4159 -0.4689  1.8534
 3315TIP3   OH231579   0.633   1.051   0.083  0.1069  0.3984  0.2263
 3315TIP3    H131580   0.593   0.966   0.062 -1.3031  1.2768 -0.8854
 3315TIP3    H231581   0.722   1.045   0.050  0.8242 -1.4614  2.3139
 3316TIP3   OH231582   6.745   5.646   0.765 -0.3338  0.1889  0.1129
 3316TIP3    H131583   6.757   5.695   0.846 -1.5933 -0.3818  0.6641
 3316TIP3    H231584   6.834   5.620   0.740  0.3458  2.3298  0.0271
 3317TIP3   OH231585   3.050   5.527   0.241 -0.8305  0.1537  0.1154
 3317TIP3    H131586   3.018   5.450   0.194  1.0808 -1.5099  1.4036
 3317TIP3    H231587   3.144   5.512   0.250 -0.7521  1.6251  2.2668
 3318TIP3   OH231588   5.919   2.219   6.869  0.0795  0.5893  0.1117
 3318TIP3    H131589   5.833   2.236   6.831 -2.3597 -1.1194  4.1726
 3318TIP3    H231590   5.951   2.142   6.823 -0.7527  0.9688 -1.1501
 3319TIP3   OH231591   1.748   4.200   8.399  0.1066 -0.7073 -0.3801
 3319TIP3    H131592   1.667   4.220   8.351 -1.1908  1.3533  2.4007
 3319TIP3    H231593   1.749   4.104   8.405 -1.1430 -0.8773 -1.9774
 3320TIP3   OH231594   0.854   5.331   6.635 -0.2248  0.2042  0.1413
 3320TIP3    H131595   0.854   5.288   6.721  1.9601 -0.3914 -0.0852
 3320TIP3    H231596   0.946   5.333   6.610 -0.8159  0.2583 -2.2528
 3321TIP3   OH231597   3.472   3.742   1.983 -0.6597 -0.7358 -0.5295
 3321TIP3    H131598   3.552   3.793   1.970  0.3889 -2.6372 -1.9477
 3321TIP3    H231599   3.411   3.776   1.917 -0.2442 -0.8158 -0.9541
 3322TIP3   OH231600   4.484   5.703   8.188  0.2313  0.3778 -0.5591
 3322TIP3    H131601   4.543   5.717   8.261  0.6721 -0.6577 -0.6946
 3322TIP3    H231602   4.399   5.688   8.228  0.1358  1.3908 -0.3431
 3323TIP3   OH231603   5.676   4.603   7.431  0.4267 -0.5646 -0.4462
 3323TIP3    H131604   5.762   4.606   7.390  0.9241  0.0370  0.5976
 3323TIP3    H231605   5.665   4.511   7.457  1.1808 -0.4685  0.2588
 3324TIP3   OH231606   2.802   0.920   6.841  0.3432 -0.0839  0.2852
 3324TIP3    H131607   2.834   0.982   6.775  0.3089  0.3146  0.6390
 3324TIP3    H231608   2.748   0.973   6.899 -0.8990 -0.7322 -0.2518
 3325TIP3   OH231609   0.405   1.490   6.261  0.9186  0.2301 -0.0775
 3325TIP3    H131610   0.335   1.487   6.326  1.4384  0.4081  0.4901
 3325TIP3    H231611   0.448   1.574   6.275  0.6612  0.5455 -1.0500
 3326TIP3   OH231612   1.863   2.076   8.815  0.5703 -0.3612 -0.2717
 3326TIP3    H131613   1.916   2.009   8.772 -0.6876 -1.2348 -0.5365
 3326TIP3    H231614   1.803   2.106   8.747  0.3502  0.2030  0.1652
 3327TIP3   OH231615   2.156   3.418   0.786  0.3599 -0.2883  0.1972
 3327TIP3    H131616   2.197   3.500   0.761 -0.1570  0.6988  2.3947
 3327TIP3    H231617   2.228   3.363   0.817  0.4083  0.3750  1.3129
 3328TIP3   OH231618   4.627   4.856   0.014  0.3515  0.0736 -0.5776
 3328TIP3    H131619   4.623   4.772  -0.031 -0.8634 -0.4211  0.4131
 3328TIP3    H231620   4.716   4.859   0.051  0.9088 -0.0897 -1.8569
 3329TIP3   OH231621   2.271   1.476   6.472 -0.3793  0.1366 -0.7162
 3329TIP3    H131622   2.286   1.571   6.473 -0.1165  0.0932  0.2737
 3329TIP3    H231623   2.183   1.465   6.509  0.4558 -0.1227  1.3238
 3330TIP3   OH231624   1.035   6.665   7.084  0.4415  0.6638 -0.5070
 3330TIP3    H131625   0.960   6.635   7.032 -0.8331  0.4935  1.3396
 3330TIP3    H231626   1.017   6.758   7.100 -0.7702  0.0931  2.0305
 3331TIP3   OH231627   4.721   5.277   0.663 -0.0553 -0.0355 -0.0912
 3331TIP3    H131628   4.648   5.312   0.713  0.8035  1.3891  0.2249
 3331TIP3    H231629   4.681   5.226   0.593 -1.3551  1.4385 -0.4554
 3332TIP3   OH231630   1.300   6.682   7.485 -0.4608 -1.0549 -0.5525
 3332TIP3    H131631   1.220   6.734   7.472 -0.9197 -1.3261  1.0267
 3332TIP3    H231632   1.370   6.739   7.454 -0.9220  0.6772  1.3333
 3333TIP3   OH231633   6.589   4.404   0.015  0.1709  0.7840 -0.3865
 3333TIP3    H131634   6.599   4.480  -0.043 -0.4759  1.0250 -0.1953
 3333TIP3    H231635   6.546   4.439   0.093  1.6072  0.5850  0.5244
 3334TIP3   OH231636   5.793   6.604   0.806  0.5239 -0.8439  0.5878
 3334TIP3    H131637   5.723   6.622   0.744  2.8770  3.5601 -1.2639
 3334TIP3    H231638   5.828   6.520   0.778 -1.5970 -1.3427 -0.8304
 3335TIP3   OH231639   1.616   0.908   0.454 -0.5513  0.2700  0.3547
 3335TIP3    H131640   1.655   0.943   0.534  2.0690 -1.2484 -0.1252
 3335TIP3    H231641   1.639   0.815   0.455 -3.7653 -0.6669 -0.3508
 3336TIP3   OH231642   0.982   6.202   1.238  0.0781  0.6821 -0.3485
 3336TIP3    H131643   1.003   6.112   1.212 -1.7174 -0.0283  0.4891
 3336TIP3    H231644   1.042   6.256   1.186  2.5844 -1.0275  0.5351
 3337TIP3   OH231645   2.991   5.529   7.112  0.2505  0.2862  0.3624
 3337TIP3    H131646   2.956   5.506   7.026  0.7229  0.2626  0.1742
 3337TIP3    H231647   2.914   5.528   7.170 -0.0367  0.1005 -0.0149
 3338TIP3   OH231648   6.444   2.387   0.303  0.0351  0.2405  0.1386
 3338TIP3    H131649   6.395   2.468   0.288  2.5818  2.2372  1.9116
 3338TIP3    H231650   6.512   2.411   0.365  2.8470 -2.5160 -1.6140
 3339TIP3   OH231651   1.261   5.563   7.079 -0.8111  0.4278 -0.1921
 3339TIP3    H131652   1.302   5.514   7.150 -1.8894 -2.1895 -1.2558
 3339TIP3    H231653   1.170   5.573   7.107 -1.6684 -2.1043 -1.8249
 3340TIP3   OH231654   3.143   5.701   8.468 -0.2245 -0.3682  0.2340
 3340TIP3    H131655   3.183   5.621   8.432  0.6926 -0.7004  1.8734
 3340TIP3    H231656   3.153   5.692   8.563  0.0034  1.7554  0.4607
 3341TIP3   OH231657   3.105   2.281   7.294 -0.2417  0.3091  0.1769
 3341TIP3    H131658   3.113   2.321   7.207  0.6095  0.6268  0.3893
 3341TIP3    H231659   3.164   2.332   7.349 -1.6875  0.9257  1.2451
 3342TIP3   OH231660   1.920   3.708   8.459  0.1501  0.1236 -0.5317
 3342TIP3    H131661   1.943   3.709   8.366 -3.0863  0.5375 -1.4498
 3342TIP3    H231662   1.935   3.617   8.487  0.2589 -0.2284 -1.6952
 3343TIP3   OH231663   3.452   3.623   1.570 -0.0115 -0.7155  0.2309
 3343TIP3    H131664   3.478   3.686   1.503 -2.3033 -1.1264 -1.1816
 3343TIP3    H231665   3.531   3.607   1.620  0.8664  2.6115  0.1385
 3344TIP3   OH231666   1.230   0.749   8.350  0.1695 -0.4059  0.0464
 3344TIP3    H131667   1.196   0.836   8.329  1.7291  0.4001  0.6595
 3344TIP3    H231668   1.209   0.736   8.443  0.9068 -0.1906  0.2502
 3345TIP3   OH231669   0.928   1.887   7.200 -0.0125  0.1396  0.1487
 3345TIP3    H131670   0.942   1.807   7.252  0.3113  0.2332  0.2047
 3345TIP3    H231671   0.904   1.855   7.113  0.9445 -0.0302 -0.0647
 3346TIP3   OH231672   4.392   2.177   0.857 -0.0989  0.5365  0.0025
 3346TIP3    H131673   4.484   2.152   0.871 -0.1880  0.7922  1.2092
 3346TIP3    H231674   4.352   2.100   0.816  0.3750 -0.0627  0.6350
 3347TIP3   OH231675   5.676   1.645   8.816  0.3384 -0.3308 -0.6874
 3347TIP3    H131676   5.711   1.557   8.830  1.1586  0.1170  0.2317
 3347TIP3    H231677   5.606   1.634   8.752  0.2370 -1.6889 -0.3556
 3348TIP3   OH231678   4.352   3.850   7.996  0.5282 -0.0941 -0.0833
 3348TIP3    H131679   4.303   3.833   8.077  2.3492  0.7907  1.2939
 3348TIP3    H231680   4.319   3.934   7.966  1.5853  0.8601  1.2455
 3349TIP3   OH231681   3.799   3.134   8.252  0.1775  0.0907  0.6882
 3349TIP3    H131682   3.850   3.215   8.249 -0.4475  0.4612 -0.8112
 3349TIP3    H231683   3.713   3.159   8.218  0.0428 -1.2418 -0.0031
 3350TIP3   OH231684   0.386   0.586   1.067 -0.5687  0.9121 -0.4450
 3350TIP3    H131685   0.345   0.669   1.043 -2.3769  0.5068  1.0448
 3350TIP3    H231686   0.316   0.522   1.063  0.6581 -0.4581 -0.9680
 3351TIP3   OH231687   5.273   2.819   0.645 -0.0023 -0.2454  0.4030
 3351TIP3    H131688   5.243   2.730   0.626  0.6839 -0.7167  1.4314
 3351TIP3    H231689   5.192   2.870   0.656 -0.4138 -1.0092  1.0027
 3352TIP3   OH231690   1.199   3.698   8.429  0.1446 -0.3425 -0.1729
 3352TIP3    H131691   1.253   3.753   8.485 -1.0062  0.1899  0.4640
 3352TIP3    H231692   1.113   3.741   8.429 -0.5191 -1.6090 -0.4440
 3353TIP3   OH231693   5.989   6.815   1.587 -0.0352  0.2363 -0.2672
 3353TIP3    H131694   5.924   6.746   1.575 -0.1854  0.0291  1.5051
 3353TIP3    H231695   5.979   6.842   1.679  1.6759  0.9208 -0.2502
 3354TIP3   OH231696   2.217   3.167   8.463  0.3177 -0.4101 -0.1819
 3354TIP3    H131697   2.306   3.203   8.455 -0.3517  1.7481  1.1652
 3354TIP3    H231698   2.216   3.125   8.549 -0.8618  2.6758  1.4530
 3355TIP3   OH231699   1.793   2.368   7.247  0.8726 -0.3093 -0.1398
 3355TIP3    H131700   1.760   2.330   7.328 -1.9660 -0.8310 -1.4287
 3355TIP3    H231701   1.820   2.292   7.194  1.4976 -0.0544 -0.1995
 3356TIP3   OH231702   6.306   5.037   1.969 -0.4699  0.0417  0.2085
 3356TIP3    H131703   6.266   5.109   1.919  1.0694  1.4361  0.8877
 3356TIP3    H231704   6.233   4.997   2.016 -1.4822  0.6372 -0.8037
 3357TIP3   OH231705   6.524   2.141   8.301 -0.2608  0.1913  0.2352
 3357TIP3    H131706   6.581   2.202   8.347 -0.6155  1.4387 -0.9117
 3357TIP3    H231707   6.438   2.153   8.341 -0.1340 -0.2801  0.6613
 3358TIP3   OH231708   3.803   5.461   7.099 -0.3147 -0.1187  0.4934
 3358TIP3    H131709   3.833   5.371   7.088 -0.6848 -0.1835 -0.0963
 3358TIP3    H231710   3.832   5.487   7.186  2.2803  0.1679 -0.3630
 3359TIP3   OH231711   3.944   6.534   0.162  0.0012 -0.0367 -0.5371
 3359TIP3    H131712   3.955   6.439   0.164  1.0661  0.0698 -0.3132
 3359TIP3    H231713   3.992   6.565   0.239  1.9846  0.8341 -2.0162
 3360TIP3   OH231714   2.696   4.696   7.064 -0.7374 -0.1106 -0.2758
 3360TIP3    H131715   2.770   4.755   7.052 -1.9692  1.6029  0.2843
 3360TIP3    H231716   2.736   4.609   7.070  1.3296  0.8589  1.1094
 3361TIP3   OH231717   2.298   2.998   8.675 -0.1367 -0.5396  0.1484
 3361TIP3    H131718   2.315   3.026   8.765 -1.1785 -0.2615  0.2660
 3361TIP3    H231719   2.264   2.909   8.683 -1.1088 -0.1789  0.1054
 3362TIP3   OH231720   2.836   1.214   0.943  0.0394 -0.1395  0.1528
 3362TIP3    H131721   2.787   1.288   0.907 -0.8342 -0.2740  1.0297
 3362TIP3    H231722   2.927   1.229   0.915 -0.1467  1.1984  0.2245
 3363TIP3   OH231723   1.614   0.950   1.638  0.0922  0.0466  0.9469
 3363TIP3    H131724   1.571   0.887   1.580  1.6802 -0.1500 -0.0667
 3363TIP3    H231725   1.626   1.028   1.584  0.1458  0.4269  1.5074
 3364TIP3   OH231726   1.082   3.471   8.692  0.6472  0.7772  0.2526
 3364TIP3    H131727   1.040   3.449   8.775 -1.6330  0.4800 -0.8915
 3364TIP3    H231728   1.024   3.535   8.652  2.2091  1.6483 -0.7310
 3365TIP3   OH231729   5.550   1.815   0.720 -0.2912 -0.2890 -0.0231
 3365TIP3    H131730   5.595   1.896   0.744 -1.9970  1.0047 -0.9794
 3365TIP3    H231731   5.571   1.802   0.628  0.6397 -1.4310  0.3250
 3366TIP3   OH231732   3.925   5.141   1.503 -0.2780 -0.1903  0.4796
 3366TIP3    H131733   3.957   5.134   1.592  0.0184  1.7160  0.5626
 3366TIP3    H231734   3.833   5.167   1.512 -0.3880 -0.4672  0.2144
 3367TIP3   OH231735   4.461   6.082   1.097 -0.2977  0.6823  0.4250
 3367TIP3    H131736   4.368   6.087   1.120 -0.2294  0.2072  0.8361
 3367TIP3    H231737   4.481   5.988   1.100  0.1447  0.7643  0.1301
 3368TIP3   OH231738   1.894   5.236   0.164 -0.6371  0.4384 -0.3007
 3368TIP3    H131739   1.946   5.290   0.224 -1.6395  0.1191  0.9110
 3368TIP3    H231740   1.885   5.152   0.210 -0.0848 -0.3886 -1.6290
 3369TIP3   OH231741   0.227   3.574   8.254  0.0486  0.3881 -0.3570
 3369TIP3    H131742   0.248   3.615   8.338  1.7439  0.3073 -0.7090
 3369TIP3    H231743   0.158   3.628   8.217  1.6318  2.4795 -0.4255
 3370TIP3   OH231744   3.137   0.148   1.541 -0.0601 -0.3351  0.1466
 3370TIP3    H131745   3.154   0.054   1.540  0.7935 -0.3350  3.4396
 3370TIP3    H231746   3.047   0.155   1.573 -0.0547 -0.0147  0.0935
 3371TIP3   OH231747   3.094   4.076   0.916  0.4054 -0.4080  0.0493
 3371TIP3    H131748   3.033   4.032   0.856  0.7037 -2.0793  0.9081
 3371TIP3    H231749   3.070   4.042   1.002  0.4184  1.4469  0.8122
 3372TIP3   OH231750   6.206   2.810   1.163 -0.2716 -0.1996 -0.6877
 3372TIP3    H131751   6.297   2.816   1.195  0.1998  3.0129 -2.2227
 3372TIP3    H231752   6.191   2.716   1.152  2.2343 -0.9602  1.2567
 3373TIP3   OH231753   4.877   1.452   8.836 -0.2844  0.0390 -0.4366
 3373TIP3    H131754   4.936   1.418   8.904  0.1033  1.6665  0.0665
 3373TIP3    H231755   4.789   1.429   8.867 -0.0158 -2.8518 -1.4287
 3374TIP3   OH231756   2.978   0.906   7.912 -0.2422  0.1919  0.3856
 3374TIP3    H131757   2.922   0.925   7.836  0.2082 -0.1919 -0.0522
 3374TIP3    H231758   2.985   0.811   7.913  1.4439  0.2725 -0.3507
 3375TIP3   OH231759   2.730   1.170   6.947  0.4636 -0.2413  0.4953
 3375TIP3    H131760   2.788   1.184   7.021  0.4135 -1.3935  0.7727
 3375TIP3    H231761   2.787   1.171   6.871  0.9726 -1.9021  0.8091
 3376TIP3   OH231762   4.615   5.253   8.244  0.0373  0.2320 -0.0992
 3376TIP3    H131763   4.535   5.306   8.245 -2.0166 -2.5788  1.1929
 3376TIP3    H231764   4.658   5.272   8.327 -1.0830 -0.5727  0.6956
 3377TIP3   OH231765   1.356   4.243   0.029 -0.3345 -0.0661  0.0938
 3377TIP3    H131766   1.378   4.278  -0.057 -0.4400  2.4784  1.0216
 3377TIP3    H231767   1.271   4.200   0.017 -0.2236  0.0202 -1.1120
 3378TIP3   OH231768   4.561   5.116   0.515 -0.2299  0.6952  0.7319
 3378TIP3    H131769   4.578   5.143   0.425 -0.2438  1.2160  0.8830
 3378TIP3    H231770   4.468   5.130   0.527 -0.4357 -0.3799  0.4997
 3379TIP3   OH231771   4.275   2.975   7.255  0.1924  0.0584 -0.0402
 3379TIP3    H131772   4.285   2.897   7.310 -0.5328  0.6471  0.9531
 3379TIP3    H231773   4.256   2.941   7.168  2.9738 -0.9482 -0.3581
 3380TIP3   OH231774   4.340   1.130   1.269 -0.1317  0.3083  0.1098
 3380TIP3    H131775   4.266   1.164   1.220 -0.0782  0.5465  0.1936
 3380TIP3    H231776   4.414   1.135   1.208 -0.1622  0.1735  0.0623
 3381TIP3   OH231777   5.686   0.536   8.401  0.3569  0.0498  0.2356
 3381TIP3    H131778   5.752   0.502   8.340 -0.8875 -2.9572  0.4013
 3381TIP3    H231779   5.690   0.476   8.476  0.3658  2.3907  2.2559
 3382TIP3   OH231780   6.590   5.916   1.281 -0.5005 -0.0285  0.5313
 3382TIP3    H131781   6.684   5.932   1.282 -0.3870 -0.5421 -0.4241
 3382TIP3    H231782   6.578   5.840   1.338 -0.2725 -0.2501  0.2863
 3383TIP3   OH231783   4.275   6.764   1.443 -0.0596 -0.6986  0.2577
 3383TIP3    H131784   4.357   6.780   1.490  0.1205 -0.1773 -0.2224
 3383TIP3    H231785   4.222   6.842   1.460 -0.5889 -1.1724  0.8271
 3384TIP3   OH231786   5.173   2.420   7.379 -0.0696 -0.2394 -0.1502
 3384TIP3    H131787   5.256   2.423   7.331 -0.4090 -0.3521 -0.7653
 3384TIP3    H231788   5.134   2.336   7.353  0.1577 -0.7317  1.0539
 3385TIP3   OH231789   0.595   4.249   1.306  0.1589  0.1454 -0.6001
 3385TIP3    H131790   0.585   4.278   1.215  1.0720 -0.5249 -0.9269
 3385TIP3    H231791   0.508   4.220   1.332 -0.2654  1.0123 -1.0151
 3386TIP3   OH231792   1.582   2.103   7.815  0.0930  0.3194 -0.6284
 3386TIP3    H131793   1.581   2.185   7.767  0.7283 -0.3063 -1.7547
 3386TIP3    H231794   1.645   2.048   7.768  1.3632 -0.0566  1.3965
 3387TIP3   OH231795   6.760   0.954   6.057 -0.6211  0.3104  0.2680
 3387TIP3    H131796   6.819   0.912   6.120 -0.4417  1.9491  1.2623
 3387TIP3    H231797   6.673   0.923   6.082 -0.6279  1.4253  1.8051
 3388TIP3   OH231798   1.940   0.299   0.057  0.1335  0.4971  0.4617
 3388TIP3    H131799   2.003   0.227   0.045 -1.1586 -0.4852 -0.7405
 3388TIP3    H231800   1.932   0.338  -0.030  0.6273  1.9736  1.0527
 3389TIP3   OH231801   1.885   6.069   6.948  0.4806  0.4374 -0.7604
 3389TIP3    H131802   1.900   6.164   6.954 -0.8601  0.6050  0.6675
 3389TIP3    H231803   1.790   6.061   6.938  0.3706 -0.7898  0.9162
 3390TIP3   OH231804   2.317   2.868   1.327  0.5575  0.4931 -0.0950
 3390TIP3    H131805   2.303   2.866   1.421 -2.5399  0.8717 -0.4461
 3390TIP3    H231806   2.342   2.958   1.308 -0.6535  0.9095  0.2007
 3391TIP3   OH231807   5.967   0.403   0.976  0.0400 -0.1742  0.0055
 3391TIP3    H131808   5.971   0.407   0.880  0.2550 -1.1790 -0.0428
 3391TIP3    H231809   5.890   0.349   0.994  1.8406 -2.8628  0.2765
 3392TIP3   OH231810   5.688   1.515   8.384 -0.6005  0.5033  0.2625
 3392TIP3    H131811   5.771   1.528   8.337 -1.1476  2.7015 -0.2364
 3392TIP3    H231812   5.636   1.460   8.326 -0.4671  1.3906 -0.7349
 3393TIP3   OH231813   5.533   5.139   0.373  0.4799  0.2575 -0.4926
 3393TIP3    H131814   5.534   5.046   0.397 -0.5194  0.3976  0.1689
 3393TIP3    H231815   5.564   5.184   0.451 -2.2743  0.6769  0.4929
 3394TIP3   OH231816   6.447   5.650   8.468  0.2031  0.7431  0.0132
 3394TIP3    H131817   6.442   5.556   8.489  0.3891  0.9979  1.2925
 3394TIP3    H231818   6.376   5.665   8.406 -2.6653  0.5362  2.9901
 3395TIP3   OH231819   0.573   0.522   6.684 -0.2346  0.4326  0.3494
 3395TIP3    H131820   0.522   0.554   6.610 -0.6832 -0.9252  0.0434
 3395TIP3    H231821   0.576   0.427   6.671  1.7716  0.4140  0.7530
 3396TIP3   OH231822   0.318   0.818   0.879  0.2599  0.4944  0.5429
 3396TIP3    H131823   0.261   0.895   0.890 -0.8854 -0.0828 -1.0123
 3396TIP3    H231824   0.322   0.804   0.785  0.9237 -1.0223  0.7659
 3397TIP3   OH231825   5.107   6.198   7.279 -0.3229 -0.5389 -0.7557
 3397TIP3    H131826   5.064   6.252   7.211  0.8256  0.5847 -0.6232
 3397TIP3    H231827   5.107   6.254   7.357 -0.0699 -1.1544 -0.3134
 3398TIP3   OH231828   4.793   0.548   6.734  0.0639 -0.0695  0.4374
 3398TIP3    H131829   4.718   0.500   6.700 -0.2422  0.7130 -0.0087
 3398TIP3    H231830   4.793   0.529   6.828 -0.3966 -0.4634  0.3612
 3399TIP3   OH231831   5.413   2.142   7.490  0.3414  0.2473 -0.5331
 3399TIP3    H131832   5.460   2.061   7.471  1.5596  0.7961  0.0515
 3399TIP3    H231833   5.473   2.192   7.546 -0.2115  1.7297 -1.2165
 3400TIP3   OH231834   5.292   0.976   7.074  0.1629  0.3739  0.1903
 3400TIP3    H131835   5.209   0.958   7.120  0.6275 -1.6110  0.3492
 3400TIP3    H231836   5.347   0.900   7.094  1.2051  0.5464 -1.8112
 3401TIP3   OH231837   0.647   2.914   1.916 -0.4861 -0.3342 -0.1290
 3401TIP3    H131838   0.729   2.947   1.953 -1.0566 -1.2443  2.1368
 3401TIP3    H231839   0.673   2.837   1.865  0.0748 -0.8764  0.9300
 3402TIP3   OH231840   3.985   5.769   6.718  0.3650  0.1896  0.3453
 3402TIP3    H131841   4.077   5.751   6.699  0.5053 -0.0129  1.2080
 3402TIP3    H231842   3.979   5.865   6.716 -0.1166  0.2314 -2.9580
 3403TIP3   OH231843   2.285   6.200   6.732  0.5625  0.9924  0.2488
 3403TIP3    H131844   2.238   6.118   6.716  0.0851  1.2791  0.1806
 3403TIP3    H231845   2.318   6.226   6.646 -1.5739  2.2676 -0.2445
 3404TIP3   OH231846   3.992   2.905   5.923  0.4736  0.1465  0.4198
 3404TIP3    H131847   3.973   2.918   5.830 -1.5586  0.6045  0.8441
 3404TIP3    H231848   3.907   2.885   5.963  0.8291  2.3327  2.5560
 3405TIP3   OH231849   1.385   2.057   1.330  0.1877  0.2677 -0.3198
 3405TIP3    H131850   1.307   2.019   1.372  0.0109 -0.4041 -1.2130
 3405TIP3    H231851   1.405   1.996   1.259 -0.6428  2.2995 -2.4254
 3406TIP3   OH231852   4.339   4.426   7.781  0.2162  0.4364 -0.2234
 3406TIP3    H131853   4.331   4.503   7.725 -0.0040 -0.6137 -1.6822
 3406TIP3    H231854   4.429   4.428   7.813 -0.0769  1.8288  0.5788
 3407TIP3   OH231855   6.866   2.117   6.457  0.0493 -0.2457  0.5150
 3407TIP3    H131856   6.820   2.200   6.440  0.7579  0.5640  2.3811
 3407TIP3    H231857   6.930   2.111   6.386 -1.1472 -0.0985 -0.6361
 3408TIP3   OH231858   1.183   5.014   8.261  0.0654  1.0072 -0.3474
 3408TIP3    H131859   1.224   5.048   8.341 -0.4139 -0.3680  0.5301
 3408TIP3    H231860   1.096   5.053   8.261  0.5786  2.1789 -1.0135
 3409TIP3   OH231861   6.050   6.799   7.337  0.0476  0.1704 -0.5365
 3409TIP3    H131862   6.053   6.718   7.285  1.1849  0.0308 -0.2812
 3409TIP3    H231863   6.052   6.768   7.428  1.2229  0.5027 -0.4454
 3410TIP3   OH231864   1.813   2.097   7.147  0.0016 -0.0377  0.3845
 3410TIP3    H131865   1.899   2.072   7.114  0.8973  2.6845  0.4693
 3410TIP3    H231866   1.795   2.033   7.216  1.2385 -1.5515 -0.6346
 3411TIP3   OH231867   6.110   6.597   0.313  0.0233  0.2094  0.6393
 3411TIP3    H131868   6.066   6.602   0.397  0.0878  1.3637  0.6168
 3411TIP3    H231869   6.114   6.688   0.282  1.3026 -0.0210  0.0700
 3412TIP3   OH231870   2.304   5.381   8.370 -0.0106 -0.6119  0.0746
 3412TIP3    H131871   2.285   5.301   8.320 -0.0443 -0.2488 -0.5033
 3412TIP3    H231872   2.219   5.406   8.408 -0.2340 -0.2317 -0.6671
 3413TIP3   OH231873   1.374   4.498   8.335 -0.3341  0.0931  0.4349
 3413TIP3    H131874   1.320   4.492   8.256  0.5011  2.5830 -0.4356
 3413TIP3    H231875   1.429   4.575   8.320  2.0946 -1.2019  2.1280
 3414TIP3   OH231876   6.109   5.428   8.521 -1.0701 -0.5764 -0.0223
 3414TIP3    H131877   6.116   5.333   8.510  0.8189 -0.3805 -0.8176
 3414TIP3    H231878   6.093   5.440   8.615 -2.0423 -1.6910 -0.0194
 3415TIP3   OH231879   1.686   4.474   8.666  0.3481 -0.0159  0.2331
 3415TIP3    H131880   1.667   4.385   8.697 -1.8223 -0.3042 -1.6262
 3415TIP3    H231881   1.706   4.462   8.573 -1.4706  1.5362 -0.4149
 3416TIP3   OH231882   5.008   3.389   8.433  0.0851  0.2158 -0.1300
 3416TIP3    H131883   5.042   3.371   8.345  0.4412  0.3854 -0.0271
 3416TIP3    H231884   4.947   3.317   8.450  1.0206 -0.5652  0.0245
 3417TIP3   OH231885   4.079   1.081   8.404  0.5172 -0.3483 -0.5528
 3417TIP3    H131886   4.089   1.177   8.404  2.3032 -0.4836  0.7994
 3417TIP3    H231887   4.016   1.064   8.334 -0.2256  1.8485 -0.5110
 3418TIP3   OH231888   3.223   4.425   0.596  0.0044 -0.7886 -0.6543
 3418TIP3    H131889   3.310   4.430   0.637 -0.4155 -0.1095  0.1883
 3418TIP3    H231890   3.241   4.401   0.505  1.0888 -0.5403 -0.5224
 3419TIP3   OH231891   1.249   0.185   8.486 -0.1040  0.3108  0.1975
 3419TIP3    H131892   1.160   0.190   8.452 -0.4462  0.1415  1.0253
 3419TIP3    H231893   1.275   0.094   8.475 -1.1463 -0.3659  2.5403
 3420TIP3   OH231894   3.096   1.283   7.454  0.1053  0.0488  0.0020
 3420TIP3    H131895   3.169   1.222   7.444 -1.0796 -1.3496 -0.5495
 3420TIP3    H231896   3.021   1.227   7.473 -0.9545  1.3874 -0.0705
 3421TIP3   OH231897   1.204   4.799   0.125 -0.4015  0.1270  0.2420
 3421TIP3    H131898   1.172   4.804   0.215  1.3808 -2.0422  1.0912
 3421TIP3    H231899   1.297   4.780   0.133 -0.0749  0.4303 -2.0852
 3422TIP3   OH231900   2.846   5.495   0.503 -0.5892 -0.0366  0.0026
 3422TIP3    H131901   2.798   5.414   0.486  1.2694 -0.7208 -2.6491
 3422TIP3    H231902   2.848   5.540   0.418  0.0531  1.8910  0.9726
 3423TIP3   OH231903   0.548   5.931   6.121  0.1336  0.1632 -0.0506
 3423TIP3    H131904   0.631   5.975   6.103  0.0547  0.0121 -0.7876
 3423TIP3    H231905   0.573   5.839   6.131  0.0289  0.0835 -0.4992
 3424TIP3   OH231906   0.595   6.208   8.075 -0.2057  0.5193  0.3007
 3424TIP3    H131907   0.558   6.148   8.010 -1.1532  0.6804  0.6664
 3424TIP3    H231908   0.646   6.270   8.024 -0.8606  0.5856 -0.2917
 3425TIP3   OH231909   2.273   0.041   6.979  0.2819  0.2058 -0.1822
 3425TIP3    H131910   2.301  -0.035   7.030  1.8862 -0.4105 -1.8680
 3425TIP3    H231911   2.306   0.024   6.891 -1.1885  1.8779 -1.1224
 3426TIP3   OH231912   2.037   0.952   8.067 -0.6159  0.9072 -0.4547
 3426TIP3    H131913   2.081   1.036   8.058  0.8103  0.3917  1.0492
 3426TIP3    H231914   1.976   0.964   8.139  0.2562  0.4570  0.3969
 3427TIP3   OH231915   6.562   1.414   0.551 -0.5781  0.1349 -0.4934
 3427TIP3    H131916   6.526   1.438   0.637 -0.8931  0.8090 -0.8043
 3427TIP3    H231917   6.630   1.349   0.570 -0.3034  0.6496  0.3080
 3428TIP3   OH231918   2.774   4.800   8.244 -0.1989  0.2612 -0.2068
 3428TIP3    H131919   2.792   4.773   8.154  2.0118 -0.8921  0.5136
 3428TIP3    H231920   2.854   4.844   8.272 -0.2673 -0.7033  1.6555
 3429TIP3   OH231921   1.579   5.936   7.067  0.1868 -0.1216 -0.4128
 3429TIP3    H131922   1.613   5.890   7.144 -1.1510 -1.0548 -0.3462
 3429TIP3    H231923   1.494   5.897   7.051 -0.8747  2.0801 -0.5962
 3430TIP3   OH231924   1.746   4.917   8.658 -0.2161 -0.1896  0.0937
 3430TIP3    H131925   1.790   4.900   8.741  0.3802 -0.6806 -0.3183
 3430TIP3    H231926   1.657   4.940   8.683  0.6717  2.5472  1.0527
 3431TIP3   OH231927   3.659   5.141   7.443 -0.0345 -0.0061 -0.2728
 3431TIP3    H131928   3.705   5.206   7.496 -0.6634  1.5572 -1.5473
 3431TIP3    H231929   3.642   5.068   7.503  1.6313  0.5317  0.9330
 3432TIP3   OH231930   3.272   0.447   8.679 -0.0867  0.3529  0.2021
 3432TIP3    H131931   3.314   0.485   8.756 -2.1677  2.8291  0.2562
 3432TIP3    H231932   3.267   0.519   8.616 -0.5559 -0.9729 -1.3499
 3433TIP3   OH231933   3.334   0.554   8.101  0.1268 -0.2426 -0.1262
 3433TIP3    H131934   3.292   0.493   8.162  1.1663  0.6811  1.5957
 3433TIP3    H231935   3.267   0.622   8.085  0.1071 -0.0721  0.6387
 3434TIP3   OH231936   6.125   4.700   6.904  0.3005  0.2384  0.8685
 3434TIP3    H131937   6.097   4.631   6.843  1.9907 -0.1210  0.4470
 3434TIP3    H231938   6.049   4.758   6.911 -0.7628 -1.0350  0.3271
 3435TIP3   OH231939   2.548   5.105   6.782  0.0184 -0.0317  0.9626
 3435TIP3    H131940   2.533   5.149   6.698 -0.2578 -2.2472 -0.2298
 3435TIP3    H231941   2.644   5.106   6.793  0.3300 -2.1241 -0.8532
 3436TIP3   OH231942   0.983   2.150   2.198  0.1011  0.3917  0.4089
 3436TIP3    H131943   0.963   2.222   2.138 -0.5853  1.1078  1.4618
 3436TIP3    H231944   0.931   2.169   2.276  1.2098 -0.3398  1.3582
 3437TIP3   OH231945   1.426   5.386   6.931  0.1329 -0.6341 -0.3216
 3437TIP3    H131946   1.367   5.459   6.947 -0.1377 -1.3480  2.2771
 3437TIP3    H231947   1.371   5.318   6.894  0.1981  0.0828 -1.8191
 3438TIP3   OH231948   2.926   3.121   0.421  0.4958 -0.1253 -0.0883
 3438TIP3    H131949   2.901   3.213   0.416  1.4067  0.0710 -1.4634
 3438TIP3    H231950   2.915   3.088   0.332  0.0856 -1.3898  0.4002
 3439TIP3   OH231951   1.501   2.792   7.767 -0.3765  0.4539 -0.0537
 3439TIP3    H131952   1.451   2.754   7.839  2.2329 -2.4924  0.4382
 3439TIP3    H231953   1.494   2.887   7.780 -2.5292  0.0745  2.2120
 3440TIP3   OH231954   6.618   5.441   0.320 -0.0922  0.3322  0.5264
 3440TIP3    H131955   6.610   5.469   0.229 -0.9726  1.6124  0.9790
 3440TIP3    H231956   6.537   5.469   0.362  0.8715  1.0085  2.0193
 3441TIP3   OH231957   5.160   0.531   8.167 -0.7686  0.3469  0.5248
 3441TIP3    H131958   5.204   0.467   8.111  0.7331  1.3359  0.4904
 3441TIP3    H231959   5.073   0.495   8.182 -0.1515 -1.4265  0.0803
 3442TIP3   OH231960   6.236   5.826   7.786  0.3046  0.6006  0.0121
 3442TIP3    H131961   6.284   5.899   7.746 -0.4507  1.3502  0.4407
 3442TIP3    H231962   6.294   5.750   7.775  1.1667  1.2910 -0.3103
 3443TIP3   OH231963   5.808   1.100   0.503  0.0089 -0.6037 -0.5286
 3443TIP3    H131964   5.758   1.018   0.493 -1.1604 -0.1740  1.3300
 3443TIP3    H231965   5.889   1.073   0.547 -0.7159 -0.7011  0.8023
 3444TIP3   OH231966   0.863   5.174   2.133 -0.1614  0.4888  0.5268
 3444TIP3    H131967   0.771   5.150   2.121 -0.2210 -0.3943  2.4293
 3444TIP3    H231968   0.861   5.267   2.153 -0.4523  0.8768 -1.1395
 3445TIP3   OH231969   2.938   4.111   2.335 -0.1540 -0.5973 -0.3460
 3445TIP3    H131970   2.866   4.164   2.368  0.7441  2.1110 -2.3295
 3445TIP3    H231971   2.949   4.042   2.400 -3.0968  0.1314  1.0990
 3446TIP3   OH231972   1.963   4.727   6.963  0.1684 -0.8613 -0.0125
 3446TIP3    H131973   2.016   4.649   6.946  1.7187  0.1174  0.0834
 3446TIP3    H231974   1.905   4.702   7.034 -0.0111 -2.2107 -0.6193
 3447TIP3   OH231975   1.338   4.353   7.271  0.2816 -0.6125 -0.7665
 3447TIP3    H131976   1.301   4.268   7.249 -0.8719  0.0828 -1.5679
 3447TIP3    H231977   1.333   4.404   7.191  2.1046 -0.1536 -0.6495
 3448TIP3   OH231978   3.101   4.192   1.900  0.1456  0.4163 -0.3750
 3448TIP3    H131979   3.169   4.156   1.844  0.1830 -0.3650  0.1616
 3448TIP3    H231980   3.119   4.155   1.986 -1.1875 -0.0982 -0.3038
 3449TIP3   OH231981   2.730   1.718   8.335 -0.1681  0.2750  0.3996
 3449TIP3    H131982   2.786   1.717   8.413  0.3301 -1.9602  0.0836
 3449TIP3    H231983   2.721   1.626   8.311 -2.4587  0.7205 -0.6972
 3450TIP3   OH231984   3.971   3.843   7.130 -0.5048 -0.4310  0.0605
 3450TIP3    H131985   4.003   3.755   7.113 -1.7817 -1.0849  0.8894
 3450TIP3    H231986   4.028   3.877   7.199 -0.0170 -0.6001 -0.2557
 3451TIP3   OH231987   3.991   1.844   0.551  0.1670 -0.2258  0.1041
 3451TIP3    H131988   4.005   1.769   0.610 -0.2984  0.7090  1.4425
 3451TIP3    H231989   4.079   1.865   0.519  0.4974 -0.4665  0.8262
 3452TIP3   OH231990   4.808   4.953   0.684  0.2503 -0.1043 -0.1094
 3452TIP3    H131991   4.736   4.964   0.747 -0.4582 -1.3579 -0.6521
 3452TIP3    H231992   4.848   5.040   0.678 -1.4049  0.7059 -0.0048
 3453TIP3   OH231993   5.670   5.216   1.940 -0.2756  0.4602 -0.6808
 3453TIP3    H131994   5.721   5.140   1.912 -0.4091  0.4584 -0.9198
 3453TIP3    H231995   5.590   5.180   1.976 -0.0172  0.4519 -0.0977
 3454TIP3   OH231996   1.392   5.275   7.248  0.3261  0.7505 -0.3824
 3454TIP3    H131997   1.421   5.325   7.324  3.8568 -0.8999 -0.4140
 3454TIP3    H231998   1.432   5.319   7.174  1.0524 -0.4076 -0.7044
 3455TIP3   OH231999   1.372   2.296   0.113  0.0115  0.0482  0.2840
 3455TIP3    H132000   1.410   2.384   0.120 -0.8359  0.4942 -0.5982
 3455TIP3    H232001   1.309   2.292   0.185 -1.0128  0.7268 -0.5398
 3456TIP3   OH232002   3.198   1.767   8.321 -0.0529 -0.4566 -0.3535
 3456TIP3    H132003   3.161   1.762   8.409 -0.4215 -0.9769 -0.5337
 3456TIP3    H232004   3.123   1.774   8.263  0.2230  1.1692 -0.5627
 3457TIP3   OH232005   6.737   2.221   7.039  0.1860 -0.5445  0.1217
 3457TIP3    H132006   6.794   2.146   7.055 -0.8560 -1.3847  0.0324
 3457TIP3    H232007   6.704   2.245   7.125  0.7432  0.0125  0.1876
 3458TIP3   OH232008   4.809   2.613   8.360 -0.7428 -0.7012  0.0962
 3458TIP3    H132009   4.889   2.560   8.355 -2.0254 -2.7371  0.0137
 3458TIP3    H232010   4.745   2.556   8.403 -2.1883  0.8379  0.0856
 3459TIP3   OH232011   6.116   5.775   1.404  0.8725 -0.8860 -0.2080
 3459TIP3    H132012   6.163   5.846   1.448 -1.0592 -0.4008  1.2366
 3459TIP3    H232013   6.160   5.695   1.433  1.4232 -0.4007  0.3066
 3460TIP3   OH232014   0.567   4.093   0.677  0.2119  0.4614 -0.0988
 3460TIP3    H132015   0.509   4.162   0.643  1.9518  1.6424 -0.8186
 3460TIP3    H232016   0.655   4.125   0.658  1.0962 -1.8682 -0.1900
 3461TIP3   OH232017   0.076   3.878   2.352 -0.2372  0.2212 -0.1127
 3461TIP3    H132018   0.060   3.964   2.390 -1.7414 -0.5377  1.0629
 3461TIP3    H232019   0.098   3.822   2.427 -1.5969 -0.9302 -0.5251
 3462TIP3   OH232020   4.497   1.470   2.096 -0.2405  0.3096 -0.0153
 3462TIP3    H132021   4.503   1.553   2.049  1.7997  1.1414  1.5799
 3462TIP3    H232022   4.451   1.492   2.177  1.3966  0.2156  0.9837
 3463TIP3   OH232023   0.866   5.056   0.030  0.4735  0.3242  0.1735
 3463TIP3    H132024   0.822   5.080  -0.051  0.5771 -0.4527 -0.1222
 3463TIP3    H232025   0.856   4.961   0.036  1.2930  0.2497  0.5824
 3464TIP3   OH232026   2.559   6.687   0.523 -0.3793 -0.2194  0.1897
 3464TIP3    H132027   2.564   6.683   0.427 -0.8434 -0.8671  0.1817
 3464TIP3    H232028   2.481   6.740   0.541 -0.5593 -0.4864  0.2022
 3465TIP3   OH232029   0.546   0.631   6.992  0.3432  0.7083  0.4625
 3465TIP3    H132030   0.461   0.621   6.950  0.2235 -0.9484  1.0354
 3465TIP3    H232031   0.594   0.691   6.936 -0.5860  0.2801 -0.8258
 3466TIP3   OH232032   1.281   4.825   7.985  0.4827  0.0420  0.6645
 3466TIP3    H132033   1.359   4.880   7.982  0.3046  0.4410  2.4644
 3466TIP3    H232034   1.209   4.884   7.961  0.4143  0.3574  1.6223
 3467TIP3   OH232035   4.287   6.592   7.602 -0.5973  0.0185 -0.0414
 3467TIP3    H132036   4.372   6.549   7.614 -0.8741 -0.4766  0.1879
 3467TIP3    H232037   4.286   6.620   7.511 -0.5972 -0.8634 -0.3132
 3468TIP3   OH232038   6.434   4.139   7.336  0.3714 -0.1495  0.2902
 3468TIP3    H132039   6.370   4.142   7.264 -0.7322  1.3937  1.2663
 3468TIP3    H232040   6.454   4.231   7.353  1.2438 -0.5319  1.4193
 3469TIP3   OH232041   1.555   5.142   7.788  0.5467  0.1689 -0.0476
 3469TIP3    H132042   1.479   5.098   7.827 -0.5160  1.5481 -0.4565
 3469TIP3    H232043   1.572   5.093   7.707  0.1794 -0.2436  0.1220
 3470TIP3   OH232044   2.554   2.312   0.326  0.7615  0.1887 -0.4183
 3470TIP3    H132045   2.596   2.226   0.319 -0.8803 -0.5969 -1.0661
 3470TIP3    H232046   2.572   2.354   0.242  3.0610  1.2431  0.5266
 3471TIP3   OH232047   1.239   0.331   7.853  0.4962  0.0791  0.0386
 3471TIP3    H132048   1.268   0.387   7.781  1.8164 -0.7274 -0.0848
 3471TIP3    H232049   1.240   0.242   7.817 -0.7459 -0.1453  0.4862
 3472TIP3   OH232050   4.610   4.618   1.014 -0.2924 -0.1488  0.1435
 3472TIP3    H132051   4.617   4.530   1.051 -3.3154 -0.0479  1.1906
 3472TIP3    H232052   4.670   4.671   1.067  1.8542 -1.5457 -0.7364
 3473TIP3   OH232053   0.001   3.945   7.056  0.4904  0.2301 -0.8652
 3473TIP3    H132054   0.007   3.917   7.147 -0.3662  1.4369 -0.3995
 3473TIP3    H232055   0.006   3.864   7.005 -0.2318 -0.5909  0.3121
 3474TIP3   OH232056   2.230   2.835   7.793 -0.1303  0.5357 -0.6190
 3474TIP3    H132057   2.283   2.755   7.792 -0.6807  0.1573 -0.1263
 3474TIP3    H232058   2.272   2.892   7.728  0.6895  0.1263 -0.4685
 3475TIP3   OH232059   2.919   5.493   6.831  0.1775 -0.1833 -0.2227
 3475TIP3    H132060   2.990   5.431   6.815 -0.7854 -0.9693 -1.7356
 3475TIP3    H232061   2.852   5.469   6.767 -1.3879  0.6424  1.0384
 3476TIP3   OH232062   1.956   4.558   0.187  0.4477  0.2837 -0.0660
 3476TIP3    H132063   1.992   4.520   0.267 -2.4675  0.9139  1.6730
 3476TIP3    H232064   2.024   4.542   0.121  3.5280  0.7432  2.6976
 3477TIP3   OH232065   2.998   3.875   8.052  0.0097  1.0224  0.0198
 3477TIP3    H132066   2.933   3.899   8.118 -1.8428  0.2229 -1.4369
 3477TIP3    H232067   3.055   3.952   8.046  0.4829  0.9892  2.7563
 3478TIP3   OH232068   1.567   0.487   0.790 -0.6775  0.0042  0.2611
 3478TIP3    H132069   1.530   0.400   0.807  1.8377 -0.9628  1.4443
 3478TIP3    H232070   1.631   0.472   0.720 -1.7434  1.3941 -1.0625
 3479TIP3   OH232071   5.834   4.808   2.026  0.0884 -0.0092  0.4243
 3479TIP3    H132072   5.895   4.734   2.027  0.9716  0.6862  1.9293
 3479TIP3    H232073   5.749   4.768   2.043  0.8960 -0.5254  4.1969
 3480TIP3   OH232074   2.266   4.805   7.177 -0.1320  0.4149  0.2784
 3480TIP3    H132075   2.347   4.818   7.127  0.0932  1.6348  0.9380
 3480TIP3    H232076   2.245   4.713   7.163  1.1960  0.1476 -0.1732
 3481TIP3   OH232077   6.482   1.848   7.163  0.3931 -0.2333  0.4329
 3481TIP3    H132078   6.406   1.862   7.107 -1.1602 -1.8264  1.9809
 3481TIP3    H232079   6.557   1.877   7.111 -1.2528  1.3768 -1.1666
 3482TIP3   OH232080   3.254   1.538   1.293  0.2368  0.0178  0.2809
 3482TIP3    H132081   3.347   1.551   1.271  0.0111 -0.5123 -1.0964
 3482TIP3    H232082   3.214   1.510   1.211 -0.9972 -0.5559  1.0559
 3483TIP3   OH232083   1.195   3.325   1.387  0.5910  0.3285  0.0075
 3483TIP3    H132084   1.223   3.412   1.413 -1.2073  1.2449 -0.9594
 3483TIP3    H232085   1.146   3.291   1.462  3.5110 -1.0653  1.4898
 3484TIP3   OH232086   2.244   2.754   8.516 -0.3675  0.5158 -0.0239
 3484TIP3    H132087   2.287   2.690   8.573 -1.4920  0.0981  0.3863
 3484TIP3    H232088   2.311   2.777   8.451  1.8805  2.8981  2.7984
 3485TIP3   OH232089   0.746   4.566   6.585 -0.6647  0.7305 -0.2867
 3485TIP3    H132090   0.690   4.574   6.508  1.5242  1.7860 -1.8693
 3485TIP3    H232091   0.822   4.621   6.566  0.6041 -0.0659  2.0409
 3486TIP3   OH232092   4.938   1.949   7.778 -0.0365 -0.3291  0.3597
 3486TIP3    H132093   4.921   1.966   7.686  0.6464 -1.7895 -0.0743
 3486TIP3    H232094   4.864   1.896   7.807 -0.8942  1.1687  1.0232
 3487TIP3   OH232095   4.450   4.126   8.518  0.7022 -0.4759 -0.1376
 3487TIP3    H132096   4.424   4.182   8.445  1.3202  0.8092  0.5872
 3487TIP3    H232097   4.529   4.168   8.553  1.5144 -2.1250  0.0921
 3488TIP3   OH232098   1.612   1.752   1.404  0.2879  0.0944  0.6867
 3488TIP3    H132099   1.703   1.766   1.429  0.2844  0.6815  0.3864
 3488TIP3    H232100   1.564   1.824   1.447  0.3565  1.5043 -1.4247
 3489TIP3   OH232101   0.293   1.513   0.567 -0.2772  0.7677  0.6702
 3489TIP3    H132102   0.351   1.575   0.523  1.0609 -0.9377 -0.0800
 3489TIP3    H232103   0.209   1.523   0.523  0.4091  0.7922 -0.6859
 3490TIP3   OH232104   5.781   6.671   8.345  0.3609  0.5680 -0.4050
 3490TIP3    H132105   5.823   6.591   8.312  0.9466 -0.0062  1.6158
 3490TIP3    H232106   5.843   6.707   8.408 -0.8177  1.4306  0.3054
 3491TIP3   OH232107   6.537   2.198   0.539  0.1961 -0.2438  0.0615
 3491TIP3    H132108   6.515   2.190   0.446  1.6385 -2.0634 -0.1829
 3491TIP3    H232109   6.478   2.266   0.571 -0.8564 -0.0737 -2.0079
 3492TIP3   OH232110   5.496   3.684   0.569  0.0117 -0.5152  0.7369
 3492TIP3    H132111   5.547   3.693   0.650  1.0465  1.2070 -0.0614
 3492TIP3    H232112   5.467   3.773   0.549  0.2991 -0.8085 -1.1244
 3493TIP3   OH232113   0.131   5.588   1.093 -0.1740 -0.5086 -0.2908
 3493TIP3    H132114   0.079   5.659   1.056  0.3062  0.1782  0.3310
 3493TIP3    H232115   0.144   5.613   1.185 -0.3050 -1.5799  0.0373
 3494TIP3   OH232116   3.724   6.689   8.808 -0.8467  0.2885 -0.4263
 3494TIP3    H132117   3.688   6.706   8.895 -0.1316  1.3794 -0.3335
 3494TIP3    H232118   3.648   6.688   8.751 -1.3888 -0.9800  0.2663
 3495TIP3   OH232119   3.899   1.690   6.784  0.5864 -0.0426 -0.1553
 3495TIP3    H132120   3.812   1.679   6.746  0.2538 -0.4589  0.7288
 3495TIP3    H232121   3.890   1.764   6.844  0.6981 -0.4458  0.3625
 3496TIP3   OH232122   4.179   3.709   8.454  0.3943  0.1928 -0.0447
 3496TIP3    H132123   4.154   3.639   8.514  0.7000  0.0508 -0.0773
 3496TIP3    H232124   4.228   3.771   8.508  0.5155  0.1538 -0.1085
 3497TIP3   OH232125   4.520   1.673   6.335 -1.0483 -0.0199 -0.3502
 3497TIP3    H132126   4.587   1.739   6.316 -0.2264 -0.5422  0.6190
 3497TIP3    H232127   4.438   1.712   6.304 -0.2914  0.5798 -1.6769
 3498TIP3   OH232128   4.182   5.352   8.474  0.2144 -0.1700  0.2490
 3498TIP3    H132129   4.109   5.357   8.412  1.3249 -1.1064 -1.2308
 3498TIP3    H232130   4.145   5.312   8.552 -0.6825 -1.5639 -0.8206
 3499TIP3   OH232131   5.831   1.338   1.501 -0.3489 -0.1613  0.2994
 3499TIP3    H132132   5.802   1.248   1.491  0.1333 -0.3322  0.4512
 3499TIP3    H232133   5.816   1.378   1.415 -1.6597 -0.0613  0.5547
 3500TIP3   OH232134   5.789   4.984   1.836  0.5834 -0.0832  0.5188
 3500TIP3    H132135   5.864   5.013   1.784  0.9831  0.5327  1.4118
 3500TIP3    H232136   5.828   4.941   1.912  0.0270 -0.1480  0.7700
 3501TIP3   OH232137   0.393   3.214   0.719  0.0433 -0.0149  0.2301
 3501TIP3    H132138   0.463   3.149   0.726  2.1499  2.1027  0.2890
 3501TIP3    H232139   0.398   3.263   0.801 -2.6191 -0.7530  0.9176
 3502TIP3   OH232140   3.327   2.578   1.596 -0.3594  0.0656  0.0996
 3502TIP3    H132141   3.232   2.570   1.588 -0.6590  1.4758  1.7341
 3502TIP3    H232142   3.347   2.541   1.682  0.5072  0.1870 -0.0470
 3503TIP3   OH232143   2.033   2.859   7.425  0.5004 -0.2631 -0.5486
 3503TIP3    H132144   2.023   2.841   7.332 -0.4513 -0.3376 -0.4445
 3503TIP3    H232145   2.127   2.872   7.438  0.8175 -1.7226 -1.2537
 3504TIP3   OH232146   6.170   1.413   0.574 -0.0003  0.6073  0.2890
 3504TIP3    H132147   6.200   1.339   0.627 -1.2385 -0.0955  0.0543
 3504TIP3    H232148   6.134   1.372   0.495  0.3547  1.5400 -0.3718
 3505TIP3   OH232149   5.454   0.066   1.506  0.2462  1.1686  0.0203
 3505TIP3    H132150   5.508   0.038   1.579  0.0848 -0.6615 -0.5238
 3505TIP3    H232151   5.513   0.066   1.431 -0.3361 -0.3857 -0.4857
 3506TIP3   OH232152   2.396   5.132   7.911  0.2023 -0.3610 -0.2752
 3506TIP3    H132153   2.468   5.073   7.933  1.0617  0.7174 -0.1143
 3506TIP3    H232154   2.438   5.217   7.894 -0.6994 -0.3772 -3.0975
 3507TIP3   OH232155   1.553   3.055   8.789 -0.3864  0.5741 -0.4111
 3507TIP3    H132156   1.578   3.060   8.881 -0.8804 -0.5081 -0.2060
 3507TIP3    H232157   1.636   3.041   8.743 -0.3490 -1.1485  0.0949
 3508TIP3   OH232158   1.550   3.567   1.967 -0.0901  0.0229 -0.1798
 3508TIP3    H132159   1.586   3.599   2.050  0.1425  1.5965 -0.8480
 3508TIP3    H232160   1.626   3.537   1.918 -0.1639 -0.3705 -0.0588
 3509TIP3   OH232161   1.236   1.814   7.729 -0.1260 -0.2559 -0.8687
 3509TIP3    H132162   1.263   1.905   7.724 -1.0924  0.1539  0.7960
 3509TIP3    H232163   1.180   1.801   7.652  0.3640  0.3957 -1.3498
 3510TIP3   OH232164   2.466   4.103   6.216  0.5522 -0.4657  0.4806
 3510TIP3    H132165   2.507   4.154   6.146  1.8676 -0.8118  0.9794
 3510TIP3    H232166   2.402   4.048   6.171  0.5627  0.1394 -0.2992
 3511TIP3   OH232167   5.636   0.876   0.430  0.0877 -0.1319 -0.1782
 3511TIP3    H132168   5.546   0.864   0.400 -0.5641 -2.7867  2.3703
 3511TIP3    H232169   5.690   0.843   0.359 -1.1059 -1.0784 -0.6810
 3512TIP3   OH232170   3.168   3.326   0.889 -0.2393 -0.0432  0.4072
 3512TIP3    H132171   3.176   3.258   0.823 -0.1306 -0.5102  0.9003
 3512TIP3    H232172   3.142   3.280   0.969 -0.1915  0.4920  0.7389
 3513TIP3   OH232173   4.868   6.010   1.649 -0.5688 -0.0894 -0.0540
 3513TIP3    H132174   4.931   5.951   1.692  0.4371  0.3449 -0.8731
 3513TIP3    H232175   4.855   6.080   1.713 -3.1891 -1.9871  1.7188
 3514TIP3   OH232176   0.006   6.330   7.898 -0.3187 -0.2320 -0.3554
 3514TIP3    H132177   0.074   6.352   7.961  0.7583 -1.3493 -1.1019
 3514TIP3    H232178  -0.046   6.410   7.890 -0.4421 -0.0390  1.8644
 3515TIP3   OH232179   1.216   4.404   6.393  0.1939  0.0589  0.4223
 3515TIP3    H132180   1.142   4.416   6.334  0.5435 -0.7503 -0.1897
 3515TIP3    H232181   1.293   4.402   6.336  0.7456  1.2605  1.0724
 3516TIP3   OH232182   2.806   3.039   7.505  0.3059  0.1185 -0.0890
 3516TIP3    H132183   2.728   3.052   7.560 -0.3136 -1.5445 -0.5164
 3516TIP3    H232184   2.874   3.091   7.548 -0.7974  0.8850  0.8072
 3517TIP3   OH232185   4.671   0.445   1.113  0.1446 -0.0452  0.0390
 3517TIP3    H132186   4.718   0.429   1.195  2.5713 -2.9818 -1.7092
 3517TIP3    H232187   4.701   0.532   1.085  0.3032  0.4185  1.5681
 3518TIP3   OH232188   1.632   2.616   0.765 -0.2486  0.1780 -0.3148
 3518TIP3    H132189   1.631   2.543   0.827 -0.6307 -2.3579 -3.0184
 3518TIP3    H232190   1.543   2.618   0.730  0.2854  0.5859 -1.7186
 3519TIP3   OH232191   4.505   3.370   0.253  0.1341  0.3517 -0.5256
 3519TIP3    H132192   4.493   3.289   0.303  0.8988  0.0014 -0.8916
 3519TIP3    H232193   4.509   3.439   0.319 -0.1634  0.0537 -0.1908
 3520TIP3   OH232194   4.915   6.098   1.001  0.2542  0.2604 -0.0900
 3520TIP3    H132195   4.961   6.138   1.075  1.3947 -0.9556 -0.1175
 3520TIP3    H232196   4.914   6.166   0.934  1.8358  0.3986 -0.0058
 3521TIP3   OH232197   4.812   1.621   7.574  0.1064 -0.1194  0.7595
 3521TIP3    H132198   4.907   1.633   7.573  0.2000 -0.8306  0.7855
 3521TIP3    H232199   4.778   1.704   7.610  0.7996 -0.3882  2.1054
 3522TIP3   OH232200   5.640   0.037   8.324  0.8398  0.4404 -0.4402
 3522TIP3    H132201   5.707  -0.029   8.305  0.4831  0.4675 -1.9962
 3522TIP3    H232202   5.561  -0.013   8.346 -0.0443  0.1493 -3.6871
 3523TIP3   OH232203   4.810   0.661   0.956  0.1895 -0.3765 -0.3090
 3523TIP3    H132204   4.735   0.690   0.905 -0.0073 -0.0598  0.1548
 3523TIP3    H232205   4.854   0.742   0.982 -0.5822 -0.4325  1.3275
 3524TIP3   OH232206   5.160   3.437   8.639  0.4441  0.5259  0.0484
 3524TIP3    H132207   5.120   3.511   8.685  2.4541  1.9592 -0.3718
 3524TIP3    H232208   5.100   3.418   8.567 -0.9042  0.6576  1.1045
 3525TIP3   OH232209   5.516   6.176   6.494  0.5067  0.3200  0.4048
 3525TIP3    H132210   5.506   6.267   6.467  1.1784  1.2027  2.8904
 3525TIP3    H232211   5.427   6.146   6.512  0.2748  0.4294 -0.5046
 3526TIP3   OH232212   1.247   1.190   0.792 -0.0990 -0.7131  0.0713
 3526TIP3    H132213   1.288   1.190   0.879  1.6187 -0.1476 -0.6915
 3526TIP3    H232214   1.214   1.279   0.781 -1.3094 -1.0851  0.5615
 3527TIP3   OH232215   4.477   0.999   6.942  0.1269 -0.0313 -1.0954
 3527TIP3    H132216   4.437   0.935   7.001 -0.0237 -0.1671 -1.3423
 3527TIP3    H232217   4.543   1.044   6.996  1.2350 -1.3642 -1.2959
 3528TIP3   OH232218   5.671   1.259   1.199 -0.5464 -0.7230  0.1223
 3528TIP3    H132219   5.695   1.329   1.139  0.5711 -1.4556 -0.3077
 3528TIP3    H232220   5.719   1.183   1.168 -0.2132 -1.2138  1.7209
 3529TIP3   OH232221   6.551   2.851   6.716  0.1799 -0.1308  0.7411
 3529TIP3    H132222   6.496   2.781   6.752 -1.1495  0.5960  0.1928
 3529TIP3    H232223   6.640   2.821   6.732 -0.2784 -2.8418 -1.0666
 3530TIP3   OH232224   6.727   4.083   0.303  0.1748 -0.0063  0.3634
 3530TIP3    H132225   6.734   4.136   0.383 -1.5782 -0.7484  1.0617
 3530TIP3    H232226   6.734   3.992   0.334 -1.7445 -0.3614 -0.0877
 3531TIP3   OH232227   5.331   4.206   1.155 -0.2816 -0.3055 -0.5639
 3531TIP3    H132228   5.374   4.291   1.147 -0.2013 -0.5086 -2.7045
 3531TIP3    H232229   5.400   4.142   1.135 -0.8038 -0.7920 -0.8166
 3532TIP3   OH232230   6.426   1.975   7.399  0.6912  0.6266 -0.0155
 3532TIP3    H132231   6.436   1.931   7.315  0.4091  0.5249  0.0054
 3532TIP3    H232232   6.458   2.064   7.384 -1.1465  1.1993 -0.7432
 3533TIP3   OH232233   0.766   6.578   0.582 -0.4649 -0.3320  0.1389
 3533TIP3    H132234   0.764   6.484   0.570  0.0326 -0.2470 -0.6533
 3533TIP3    H232235   0.859   6.602   0.572 -0.7322  0.3734 -0.8172
 3534TIP3   OH232236   6.118   0.135   8.534 -0.5269 -0.2116  0.2151
 3534TIP3    H132237   6.198   0.174   8.498 -0.2618  0.7402  1.7689
 3534TIP3    H232238   6.147   0.090   8.613 -1.7993  2.1101  2.1408
 3535TIP3   OH232239   1.406   6.138   7.437 -0.1700 -0.0367  0.6502
 3535TIP3    H132240   1.351   6.142   7.360  1.7009  1.3005 -0.7088
 3535TIP3    H232241   1.410   6.045   7.459 -0.7997 -0.4263 -0.8088
 3536TIP3   OH232242   6.323   0.424   8.652 -0.5728  0.1549  0.4108
 3536TIP3    H132243   6.414   0.404   8.632 -0.5670 -2.7855  2.6739
 3536TIP3    H232244   6.316   0.519   8.641  3.3642  0.8751  2.3063
 3537TIP3   OH232245   5.169   5.333   7.799 -0.1838  0.3304 -0.6312
 3537TIP3    H132246   5.119   5.411   7.774  2.0298  1.4189 -2.0007
 3537TIP3    H232247   5.119   5.260   7.764 -1.9712  1.1431  0.1003
 3538TIP3   OH232248   5.440   0.488   6.939  0.3178 -0.4309  0.5576
 3538TIP3    H132249   5.367   0.524   6.888  0.7777  1.7511  1.3142
 3538TIP3    H232250   5.480   0.423   6.881  0.6207  1.6943 -1.8109
 3539TIP3   OH232251   5.331   4.031   0.331  0.1234  0.2597 -0.0176
 3539TIP3    H132252   5.405   3.995   0.281 -0.3389  0.5414 -0.9226
 3539TIP3    H232253   5.372   4.069   0.409  1.0383  1.0286 -0.8366
 3540TIP3   OH232254   4.850   5.231   7.998  0.4132  0.7995 -0.2433
 3540TIP3    H132255   4.775   5.179   8.028  0.7971 -1.1699 -2.3898
 3540TIP3    H232256   4.923   5.203   8.053 -0.0969  1.6110  0.8617
 3541TIP3   OH232257   6.327   4.408   0.567 -0.5353 -0.2471  0.0470
 3541TIP3    H132258   6.246   4.376   0.527 -0.2410  0.6065 -1.2905
 3541TIP3    H232259   6.301   4.432   0.656 -1.8209  0.2328 -0.4290
 3542TIP3   OH232260   3.809   6.567   0.403  0.9538 -0.3212  0.0562
 3542TIP3    H132261   3.752   6.531   0.335  1.6087 -1.9692  0.3204
 3542TIP3    H232262   3.785   6.660   0.408 -1.0589 -0.7537 -0.4586
 3543TIP3   OH232263   0.777   5.107   1.839  0.2734 -0.1444 -0.8069
 3543TIP3    H132264   0.756   5.143   1.925  0.1946  1.0190 -1.2962
 3543TIP3    H232265   0.696   5.065   1.810  0.6071 -1.5188  0.1247
 3544TIP3   OH232266   3.168   3.508   7.661  0.4006  0.4297  0.7343
 3544TIP3    H132267   3.235   3.550   7.607  0.0176  0.7792  0.5242
 3544TIP3    H232268   3.138   3.577   7.719 -1.5355  0.9939 -0.8342
 3545TIP3   OH232269   5.876   2.513   7.969  0.2833 -0.0211  0.3237
 3545TIP3    H132270   5.919   2.428   7.980  1.3367  0.5476  0.8354
 3545TIP3    H232271   5.867   2.547   8.058  0.5462  0.7185  0.0770
 3546TIP3   OH232272   5.556   4.496   8.723  0.6765 -0.0080  0.7544
 3546TIP3    H132273   5.586   4.447   8.799  3.1396 -1.6759 -1.1484
 3546TIP3    H232274   5.498   4.435   8.677 -0.3041  0.7658  0.9177
 3547TIP3   OH232275   0.091   0.366   0.699 -0.0753 -0.5592  0.5161
 3547TIP3    H132276   0.034   0.348   0.774 -0.3049 -0.8315  0.2805
 3547TIP3    H232277   0.042   0.334   0.623  1.4431 -3.1873  0.5401
 3548TIP3   OH232278   5.990   3.417   1.970  0.2493  0.3317 -0.0910
 3548TIP3    H132279   5.912   3.465   1.998  0.2994 -0.8205  2.2887
 3548TIP3    H232280   6.062   3.460   2.016  0.8223  0.4307 -1.0681
 3549TIP3   OH232281   3.213   3.259   7.538  0.0849  0.0410  0.2849
 3549TIP3    H132282   3.220   3.295   7.450 -0.4615  1.1645  0.6849
 3549TIP3    H232283   3.172   3.329   7.590  1.5302 -0.1149  1.7098
 3550TIP3   OH232284   4.276   4.903   7.951  0.1796  0.2778 -0.4331
 3550TIP3    H132285   4.272   4.877   8.043  1.3717 -1.6322 -0.8803
 3550TIP3    H232286   4.278   4.999   7.953 -0.6775  0.2927  1.4668
 3551TIP3   OH232287   4.666   4.554   8.395 -0.2109 -0.4083 -0.3687
 3551TIP3    H132288   4.613   4.583   8.321 -1.1238  2.1119  1.1236
 3551TIP3    H232289   4.604   4.513   8.455 -0.3346  1.3720  0.8012
 3552TIP3   OH232290   0.690   3.823   6.781 -0.1297 -0.6562 -0.0874
 3552TIP3    H132291   0.661   3.756   6.719 -1.4964 -0.2987  0.1142
 3552TIP3    H232292   0.775   3.852   6.748  0.4487 -2.4095 -0.2162
 3553TIP3   OH232293   6.074   6.366   1.781 -0.0387  0.0084  0.1476
 3553TIP3    H132294   6.033   6.287   1.816  0.7099 -0.8558 -0.8472
 3553TIP3    H232295   6.055   6.434   1.846  0.4795 -1.2922  1.7161
 3554TIP3   OH232296   4.065   0.455   0.095 -0.1175  0.4416 -0.0097
 3554TIP3    H132297   4.143   0.494   0.134  0.7326 -1.0214 -0.1281
 3554TIP3    H232298   4.031   0.522   0.036  0.8364  1.2575  0.3406
 3555TIP3   OH232299   4.263   4.100   7.922  0.5196 -0.1287 -0.4366
 3555TIP3    H132300   4.192   4.073   7.864 -1.0263  2.1073  0.3008
 3555TIP3    H232301   4.227   4.172   7.974  2.8072 -0.0057  1.1648
 3556TIP3   OH232302   2.679   3.752   0.214  0.2369  0.2911  0.1894
 3556TIP3    H132303   2.586   3.752   0.190  0.5927 -1.3278 -1.3545
 3556TIP3    H232304   2.719   3.815   0.153  0.2660  0.4959  0.4177
 3557TIP3   OH232305   1.809   6.780   1.126 -0.0014 -0.0936  0.0406
 3557TIP3    H132306   1.761   6.786   1.209 -2.2773 -2.4339 -0.9513
 3557TIP3    H232307   1.893   6.742   1.149 -0.4396 -0.3130  1.3551
 3558TIP3   OH232308   1.222   5.797   1.517  0.0219  0.0455 -0.3949
 3558TIP3    H132309   1.263   5.876   1.551  0.8212 -0.3512 -0.4089
 3558TIP3    H232310   1.181   5.756   1.593 -3.2603  2.0707 -0.8498
 3559TIP3   OH232311   5.798   5.249   7.165 -0.9488 -0.7758 -0.1378
 3559TIP3    H132312   5.870   5.215   7.219 -0.5096  2.2826  1.4274
 3559TIP3    H232313   5.838   5.261   7.079  0.9373  1.9186  0.9587
 3560TIP3   OH232314   1.234   6.454   0.067 -0.0900  0.1727  0.2064
 3560TIP3    H132315   1.149   6.417   0.092 -0.4759  0.0902 -1.1310
 3560TIP3    H232316   1.253   6.413  -0.018  1.2644  0.2342  0.4626
 3561TIP3   OH232317   3.061   5.947   8.735 -0.0704 -0.4945 -0.0784
 3561TIP3    H132318   2.966   5.952   8.745 -0.0605  0.8802 -0.4680
 3561TIP3    H232319   3.079   5.854   8.721 -1.3621 -0.7621 -0.0954
 3562TIP3   OH232320   2.121   2.076   1.600  1.1008  0.3556 -0.0934
 3562TIP3    H132321   2.070   2.142   1.554  1.4586 -0.0876 -1.1503
 3562TIP3    H232322   2.127   2.003   1.539  0.8541 -0.5968  0.9892
 3563TIP3   OH232323   1.723   1.481   1.572  0.2741 -0.0735 -0.8519
 3563TIP3    H132324   1.708   1.536   1.649  0.9558 -0.5544 -0.3655
 3563TIP3    H232325   1.816   1.489   1.554  0.4671 -1.3566 -0.5307
 3564TIP3   OH232326   4.240   6.461   1.707 -1.0129 -0.0619 -0.0412
 3564TIP3    H132327   4.214   6.512   1.784  2.3188 -0.1301  1.3224
 3564TIP3    H232328   4.235   6.523   1.635  1.8938  2.0790  1.4015
 3565TIP3   OH232329   3.420   3.284   1.807  0.0500 -0.2991 -0.3117
 3565TIP3    H132330   3.339   3.322   1.771  0.4241  0.3256 -0.5204
 3565TIP3    H232331   3.449   3.348   1.872  1.5764  0.6388 -1.8241
 3566TIP3   OH232332   1.600   6.458   8.773 -0.7955  0.3899 -0.4154
 3566TIP3    H132333   1.561   6.403   8.841  0.5562 -0.3008 -0.1499
 3566TIP3    H232334   1.649   6.397   8.718  1.5197  1.3767  0.4320
 3567TIP3   OH232335   0.129   3.800   1.710 -1.2548  0.0340 -0.0014
 3567TIP3    H132336   0.064   3.814   1.780 -0.1659  0.0595  1.0455
 3567TIP3    H232337   0.214   3.812   1.754 -0.4063 -3.1740 -0.5539
 3568TIP3   OH232338   4.002   0.962   6.804  0.5829  0.0977 -0.1853
 3568TIP3    H132339   3.938   0.987   6.871  0.6571 -1.3432  0.4732
 3568TIP3    H232340   4.068   1.032   6.806 -0.2034  0.8435  0.1689
 3569TIP3   OH232341   6.463   2.378   1.513  0.2751  0.1828 -0.1965
 3569TIP3    H132342   6.386   2.395   1.459 -0.2448  0.5623  0.6493
 3569TIP3    H232343   6.535   2.367   1.450 -0.3225  0.5707 -0.9579
 3570TIP3   OH232344   5.076   0.522   1.066  0.2372  0.1951 -0.1693
 3570TIP3    H132345   5.002   0.583   1.063  0.8088  0.9096 -0.1148
 3570TIP3    H232346   5.111   0.532   1.155  1.1757  0.8195 -0.6017
 3571TIP3   OH232347   3.280   4.011   1.769  0.0486  0.1994  0.2441
 3571TIP3    H132348   3.259   4.049   1.683 -1.3363  0.2218  0.5660
 3571TIP3    H232349   3.375   4.006   1.770  0.2972  3.0715 -0.0702
 3572TIP3   OH232350   2.805   3.095   7.970  0.2156 -0.3092  0.1558
 3572TIP3    H132351   2.881   3.037   7.969 -0.4695 -1.4819  3.5853
 3572TIP3    H232352   2.839   3.179   8.000  0.6512  0.2015 -1.6435
 3573TIP3   OH232353   6.280   2.400   1.312  0.0397 -0.6524 -0.5982
 3573TIP3    H132354   6.185   2.405   1.325 -0.0846 -1.0584 -1.3119
 3573TIP3    H232355   6.300   2.473   1.252  0.1764 -0.5967 -0.4864
 3574TIP3   OH232356   4.864   4.707   7.880 -0.0954 -0.3426  0.1612
 3574TIP3    H132357   4.935   4.667   7.829  1.0587  1.2667  0.4353
 3574TIP3    H232358   4.814   4.759   7.816  0.6990  0.7959  0.4345
 3575TIP3   OH232359   1.102   2.127   6.941  0.1776 -0.5099  0.4209
 3575TIP3    H132360   1.173   2.098   6.998  2.3832  5.1018  1.0987
 3575TIP3    H232361   1.140   2.124   6.853 -0.0377 -0.7394  0.3332
 3576TIP3   OH232362   3.719   3.092   6.942 -0.3392 -0.6815  0.2957
 3576TIP3    H132363   3.625   3.105   6.957  0.1502  1.6087  1.9303
 3576TIP3    H232364   3.727   3.082   6.847 -2.0173  1.7086 -0.2040
 3577TIP3   OH232365   1.442   3.952   1.925 -0.1945  0.2834 -0.2626
 3577TIP3    H132366   1.412   4.040   1.945 -1.7245 -0.0695 -0.8305
 3577TIP3    H232367   1.481   3.921   2.007 -1.3787  0.8080  0.5397
 3578TIP3   OH232368   3.408   4.983   7.527  0.3067  0.6750  0.4800
 3578TIP3    H132369   3.388   5.009   7.438 -1.0968 -1.1549  0.1946
 3578TIP3    H232370   3.418   4.888   7.523 -0.3174  0.4792  2.3385
 3579TIP3   OH232371   2.086   6.835   0.163  0.3586 -0.3702  0.1930
 3579TIP3    H132372   2.161   6.876   0.207  0.9328 -1.6841  0.4868
 3579TIP3    H232373   2.026   6.813   0.234 -0.0461  0.1417  0.0142
 3580TIP3   OH232374   6.176   4.777   8.599  0.1056 -0.3082 -0.0971
 3580TIP3    H132375   6.229   4.734   8.531  1.7054  1.2059  0.1097
 3580TIP3    H232376   6.174   4.869   8.573 -1.4839 -0.1326  0.5508
 3581TIP3   OH232377   1.971   2.734   6.452 -0.4933  0.6344 -0.2443
 3581TIP3    H132378   2.010   2.695   6.374 -1.1060  0.3569 -0.4173
 3581TIP3    H232379   1.915   2.665   6.487  0.4196  0.4585  0.9254
 3582TIP3   OH232380   2.981   6.658   0.425 -0.1981 -0.3555  0.8934
 3582TIP3    H132381   2.961   6.748   0.452 -0.4836 -0.4099  0.8575
 3582TIP3    H232382   3.015   6.617   0.505  3.6502  0.8533  0.1073
 3583TIP3   OH232383   0.470   2.232   7.891 -0.1947  0.1019 -0.4663
 3583TIP3    H132384   0.549   2.183   7.914  0.9902  1.5463 -1.3047
 3583TIP3    H232385   0.490   2.271   7.806 -1.6840  0.7901 -0.5288
 3584TIP3   OH232386   4.244   5.122   0.427 -0.9914  0.5277  0.1985
 3584TIP3    H132387   4.169   5.170   0.390 -0.8720  1.1170  0.7027
 3584TIP3    H232388   4.259   5.164   0.512 -0.1979  0.2937  0.1775
 3585TIP3   OH232389   3.451   5.191   0.963 -0.3247 -0.4605  0.3006
 3585TIP3    H132390   3.443   5.096   0.956 -1.6973 -0.3733  0.3783
 3585TIP3    H232391   3.363   5.224   0.945  0.0506  0.7836  0.6183
 3586TIP3   OH232392   3.027   1.842   8.128 -0.4554 -0.1811  0.6378
 3586TIP3    H132393   3.034   1.936   8.142  0.0864 -0.1604  0.2888
 3586TIP3    H232394   2.966   1.833   8.055  0.7128  0.0004 -0.3926
 3587TIP3   OH232395   1.189   1.913   1.453 -0.2339 -0.5177  0.0004
 3587TIP3    H132396   1.210   1.931   1.545 -0.2441 -0.4757 -0.0057
 3587TIP3    H232397   1.123   1.978   1.430 -0.1714 -0.4763 -0.0606
 3588TIP3   OH232398   3.565   1.440   8.661  0.3061  0.2573 -0.1615
 3588TIP3    H132399   3.602   1.527   8.680  0.0704  0.6063 -1.2016
 3588TIP3    H232400   3.481   1.459   8.619  0.1629 -0.4877 -0.2173
 3589TIP3   OH232401   5.324   3.659   8.181  0.2521 -0.3878 -0.5716
 3589TIP3    H132402   5.420   3.664   8.175  0.2851 -1.2430 -0.8008
 3589TIP3    H232403   5.307   3.576   8.224 -0.4097 -0.5112 -1.0665
 3590TIP3   OH232404   2.433   2.617   2.051 -0.1049  0.4707 -0.2008
 3590TIP3    H132405   2.438   2.522   2.065  2.0162  0.4945 -0.3309
 3590TIP3    H232406   2.379   2.649   2.122 -1.2915 -0.8773 -0.4470
 3591TIP3   OH232407   5.474   1.018   7.727  0.0314 -0.2850  0.0696
 3591TIP3    H132408   5.509   1.006   7.816  0.6984  1.6898  0.1113
 3591TIP3    H232409   5.531   1.083   7.687 -0.3217 -1.0664 -1.8104
 3592TIP3   OH232410   0.565   6.341   7.539 -0.2410 -0.4558 -0.6856
 3592TIP3    H132411   0.651   6.306   7.518  0.2693  0.2412  0.1693
 3592TIP3    H232412   0.533   6.379   7.457 -0.2063 -1.6457 -1.2683
 3593TIP3   OH232413   1.430   1.505   0.875 -0.3930  0.8914  0.9266
 3593TIP3    H132414   1.458   1.529   0.963  0.5310 -0.0513  0.9032
 3593TIP3    H232415   1.422   1.409   0.878  0.1115  0.8052 -0.1374
 3594TIP3   OH232416   2.420   0.644   6.480  0.1591  1.0528 -0.4096
 3594TIP3    H132417   2.504   0.611   6.448  0.1449  1.4210 -0.8500
 3594TIP3    H232418   2.435   0.737   6.496  0.2054  0.8483  0.8341
 3595TIP3   OH232419   3.047   0.509   0.690  0.0180 -0.4370  1.0846
 3595TIP3    H132420   3.071   0.579   0.750  0.8690 -0.9666  1.3897
 3595TIP3    H232421   2.962   0.535   0.655  1.5536  2.2129 -1.0456
 3596TIP3   OH232422   3.626   1.941   8.635 -0.2385 -0.1710  0.3457
 3596TIP3    H132423   3.666   2.020   8.599  1.3241  0.3083  2.8882
 3596TIP3    H232424   3.684   1.870   8.608  0.0100 -0.0352  0.5174
 3597TIP3   OH232425   3.311   4.142   0.646  0.5664  0.5836 -0.0830
 3597TIP3    H132426   3.352   4.129   0.560 -0.1232 -0.0952 -0.3193
 3597TIP3    H232427   3.359   4.085   0.705  0.0428 -0.1475 -0.3430
 3598TIP3   OH232428   0.352   6.821   8.288  0.9626  0.8866  0.0779
 3598TIP3    H132429   0.357   6.800   8.195  0.8800  0.7719  0.0990
 3598TIP3    H232430   0.444   6.823   8.316  0.9701  0.4399  0.0985
 3599TIP3   OH232431   4.970   5.315   7.446  0.0404  0.3267  0.1755
 3599TIP3    H132432   4.913   5.261   7.391  1.2175 -0.3582 -0.3959
 3599TIP3    H232433   4.999   5.256   7.516  1.7179  0.0409 -0.7160
 3600TIP3   OH232434   1.258   6.120   7.210  0.6947 -0.0003  0.3928
 3600TIP3    H132435   1.301   6.034   7.211  0.5314 -0.0909 -0.0722
 3600TIP3    H232436   1.165   6.101   7.200  0.6866  0.2367 -0.0080
 3601TIP3   OH232437   4.123   3.764   2.520  0.2526 -0.4316 -0.6298
 3601TIP3    H132438   4.191   3.828   2.541  1.3243 -0.8738 -2.6033
 3601TIP3    H232439   4.157   3.681   2.552 -0.2236 -0.3681  0.0692
 3602TIP3   OH232440   6.275   6.492   1.407 -0.0934 -0.1020  0.0118
 3602TIP3    H132441   6.342   6.473   1.341  0.3210  0.3844  0.2792
 3602TIP3    H232442   6.321   6.545   1.473 -0.8902  0.7673 -0.1061
 3603TIP3   OH232443   3.419   5.541   7.683 -0.3012  0.1690 -0.1704
 3603TIP3    H132444   3.477   5.491   7.741  1.4423  2.1010 -0.1472
 3603TIP3    H232445   3.446   5.516   7.594 -0.8860 -0.4722 -0.1822
 3604TIP3   OH232446   3.025   3.973   1.151  0.4618  0.3990  0.7895
 3604TIP3    H132447   3.107   3.930   1.172  1.0192  0.7812 -0.5030
 3604TIP3    H232448   2.961   3.901   1.145  1.3094 -0.2589 -1.0004
 3605TIP3   OH232449   5.463   2.211   2.114 -0.5475 -0.1336 -0.3097
 3605TIP3    H132450   5.533   2.170   2.165  0.5796  1.8457 -0.1887
 3605TIP3    H232451   5.494   2.207   2.024 -0.6990 -0.0853 -0.3639
 3606TIP3   OH232452   4.289   4.707   7.763 -0.4637 -0.2465 -0.4389
 3606TIP3    H132453   4.276   4.768   7.836 -0.0355  0.0483 -0.6018
 3606TIP3    H232454   4.375   4.730   7.728 -0.2362 -1.0426 -0.4165
 3607TIP3   OH232455   6.399   2.890   1.559 -0.0420 -0.0331 -0.0130
 3607TIP3    H132456   6.453   2.877   1.637  1.5617 -1.3073 -1.2619
 3607TIP3    H232457   6.332   2.821   1.565 -1.3973  1.2985  1.3288
 3608TIP3   OH232458   6.765   5.094   1.153 -0.0386 -0.8251  0.4439
 3608TIP3    H132459   6.671   5.077   1.168  0.3353 -1.5802  2.1822
 3608TIP3    H232460   6.799   5.117   1.239  1.1962  0.5020 -0.3555
 3609TIP3   OH232461   2.469   3.341   2.267  0.1534  0.3189  0.0638
 3609TIP3    H132462   2.503   3.408   2.208  2.8909 -1.2618 -0.3707
 3609TIP3    H232463   2.452   3.387   2.349  1.4816  1.6431 -0.3574
 3610TIP3   OH232464   5.429   1.206   0.891  0.3058 -0.2846  0.0687
 3610TIP3    H132465   5.477   1.289   0.899  1.4928 -0.9810  0.3600
 3610TIP3    H232466   5.392   1.209   0.803  2.0390 -0.3114 -0.7054
 3611TIP3   OH232467   4.186   0.204   8.800 -0.1431  0.0051  0.0658
 3611TIP3    H132468   4.270   0.201   8.755  1.0675 -2.6496  2.2222
 3611TIP3    H232469   4.183   0.292   8.838  2.0819 -0.0852  0.5870
 3612TIP3   OH232470   5.544   2.277   1.595 -0.0490 -0.0108  0.3971
 3612TIP3    H132471   5.519   2.241   1.510  2.0152  1.0027 -0.7246
 3612TIP3    H232472   5.522   2.370   1.590  2.2305  0.5705 -0.0225
 3613TIP3   OH232473   3.775   3.383   6.867 -0.2957  0.6657 -0.0200
 3613TIP3    H132474   3.844   3.425   6.815 -0.5518  1.6952  0.4372
 3613TIP3    H232475   3.726   3.330   6.804  0.5271  0.4221 -0.4683
 3614TIP3   OH232476   1.690   3.887   0.567  0.3631  0.3949  0.2002
 3614TIP3    H132477   1.608   3.934   0.587  0.8435  0.7893  1.3814
 3614TIP3    H232478   1.725   3.863   0.653  0.9039 -0.8168 -0.3341
 3615TIP3   OH232479   1.973   4.008   0.197  0.7215 -0.2035  0.2527
 3615TIP3    H132480   1.889   4.010   0.242 -0.0266 -0.4568 -1.0912
 3615TIP3    H232481   2.031   3.962   0.258  0.0058  0.2951  1.3513
 3616TIP3   OH232482   6.736   1.260   1.941  0.0883  0.0545 -0.5666
 3616TIP3    H132483   6.690   1.287   2.020 -1.8815  2.2673 -2.2956
 3616TIP3    H232484   6.706   1.171   1.923 -1.1715  0.3555 -0.0020
 3617TIP3   OH232485   3.416   6.741   1.070  0.0470 -0.0812  0.7242
 3617TIP3    H132486   3.505   6.704   1.069  0.1622  0.2025 -0.3963
 3617TIP3    H232487   3.386   6.734   0.980 -1.7601 -1.7793  1.3710
 3618TIP3   OH232488   0.027   4.276   1.560  0.7521  0.1603 -0.0596
 3618TIP3    H132489  -0.023   4.240   1.487 -0.8658 -1.6856  1.8504
 3618TIP3    H232490  -0.004   4.367   1.568 -0.2857 -0.1278 -0.6304
 3619TIP3   OH232491   6.018   2.031   1.829 -0.0806 -0.0240  0.4759
 3619TIP3    H132492   6.012   2.010   1.923  1.1489 -1.4748  0.2733
 3619TIP3    H232493   5.930   2.013   1.795  0.2939 -2.9378  0.7597
 3620TIP3   OH232494   5.166   0.465   1.357  0.3407 -0.5244  0.0828
 3620TIP3    H132495   5.134   0.380   1.388 -0.3893 -0.4426 -0.4116
 3620TIP3    H232496   5.260   0.453   1.345 -0.2605 -2.7334 -4.3900
 3621TIP3   OH232497   2.059   1.721   2.461 -0.5838  0.0581 -0.5905
 3621TIP3    H132498   1.992   1.777   2.422  0.5795  2.0185  0.1079
 3621TIP3    H232499   2.010   1.646   2.495 -2.4223  1.4032 -0.1388
 3622TIP3   OH232500   4.306   2.756   7.975  0.1604  0.3856 -0.2543
 3622TIP3    H132501   4.224   2.785   7.935 -0.6421 -1.8921 -0.3919
 3622TIP3    H232502   4.316   2.811   8.053 -1.3341  0.8971 -0.3995
 3623TIP3   OH232503   4.183   4.633   7.094 -0.1643  0.0580 -0.3695
 3623TIP3    H132504   4.098   4.651   7.053 -0.1028  2.4881  0.4142
 3623TIP3    H232505   4.241   4.611   7.021 -1.2969 -1.1202 -0.9662
 3624TIP3   OH232506   0.651   2.138   0.098  0.6309 -0.4380 -0.0811
 3624TIP3    H132507   0.597   2.153   0.176  1.9932 -2.3451  1.3265
 3624TIP3    H232508   0.651   2.222   0.053 -0.2362  0.7457  1.9615
 3625TIP3   OH232509   5.352   3.241   8.576 -0.2726 -0.5129  0.0472
 3625TIP3    H132510   5.298   3.317   8.596 -0.2026 -0.9594  2.1777
 3625TIP3    H232511   5.441   3.267   8.600  0.2212 -0.4084 -1.7117
 3626TIP3   OH232512   0.884   2.454   8.507  0.4296  0.3767 -0.7019
 3626TIP3    H132513   0.874   2.363   8.536  2.2061  1.0195  2.3225
 3626TIP3    H232514   0.795   2.489   8.506 -0.1782 -1.1156 -1.0084
 3627TIP3   OH232515   2.928   6.581   0.183  0.7912 -0.1786 -0.3809
 3627TIP3    H132516   2.955   6.596   0.274  1.8582 -2.2046 -0.3039
 3627TIP3    H232517   2.865   6.509   0.188  0.3017  0.1835 -1.1922
 3628TIP3   OH232518   2.900   2.200   1.541 -0.0420  0.1566  0.3357
 3628TIP3    H132519   2.869   2.114   1.571  0.4559  0.4350  1.7015
 3628TIP3    H232520   2.905   2.191   1.446  2.3018 -2.1158  0.5650
 3629TIP3   OH232521   3.915   5.148   0.659 -0.1394  0.6759 -0.5623
 3629TIP3    H132522   3.955   5.114   0.739 -2.1316  1.3466  0.7963
 3629TIP3    H232523   3.904   5.071   0.603  0.8879  0.1299 -0.0563
 3630TIP3   OH232524   5.594   1.083   1.383  0.3569 -1.0666  0.0673
 3630TIP3    H132525   5.520   1.036   1.342 -0.4546  0.0787  0.1775
 3630TIP3    H232526   5.613   1.154   1.323 -0.0562 -0.0807  1.0653
 3631TIP3   OH232527   1.315   1.151   6.420  0.1548 -0.0125 -0.1258
 3631TIP3    H132528   1.226   1.132   6.391 -0.4214  0.1613  1.4271
 3631TIP3    H232529   1.358   1.065   6.421 -0.6121 -0.4130  1.0052
 3632TIP3   OH232530   1.195   2.638   7.281  0.5164 -0.1824  0.5556
 3632TIP3    H132531   1.261   2.609   7.345  0.4958 -0.2649  0.5392
 3632TIP3    H232532   1.127   2.571   7.285  0.2935  0.0583  0.7883
 3633TIP3   OH232533   2.819   4.612   0.641  0.2314  0.4661 -0.2096
 3633TIP3    H132534   2.753   4.627   0.709  0.3977 -0.2636  0.1244
 3633TIP3    H232535   2.831   4.517   0.640  0.9876  0.5582 -0.5454
 3634TIP3   OH232536   0.974   0.499   8.015 -0.1192 -0.0220  1.0708
 3634TIP3    H132537   0.962   0.481   8.108  0.0127  1.0267  1.2948
 3634TIP3    H232538   1.066   0.526   8.007  0.1317 -1.0014  0.4847
 3635TIP3   OH232539   0.403   4.535   0.099 -0.2018 -0.4475 -1.0536
 3635TIP3    H132540   0.467   4.583   0.047 -0.7812  0.1922 -1.1934
 3635TIP3    H232541   0.318   4.568   0.070 -0.5288  0.5043  0.8351
 3636TIP3   OH232542   5.044   2.381   8.524  0.8423  0.0450  0.2509
 3636TIP3    H132543   5.061   2.453   8.463  0.3066 -0.6026 -0.7051
 3636TIP3    H232544   5.127   2.366   8.569  1.4807  0.0386 -0.8926
 3637TIP3   OH232545   4.514   0.774   7.426  0.1422 -0.4105 -0.0920
 3637TIP3    H132546   4.444   0.737   7.480  0.4302 -0.9135 -0.0557
 3637TIP3    H232547   4.594   0.735   7.461  0.5279  0.7199  0.3477
 3638TIP3   OH232548   2.187   5.888   8.775 -0.7449 -0.8221  0.2802
 3638TIP3    H132549   2.188   5.806   8.824 -1.4089 -1.2059 -0.3380
 3638TIP3    H232550   2.111   5.881   8.717 -1.0182  0.3720  0.4586
 3639TIP3   OH232551   4.745   3.507   0.752 -0.0741  0.4063 -0.0856
 3639TIP3    H132552   4.833   3.471   0.754 -0.2753 -0.0785  0.5370
 3639TIP3    H232553   4.743   3.571   0.824 -0.4887 -0.2462  0.5008
 3640TIP3   OH232554   1.233   3.591   0.478 -0.4729  0.0292 -0.5191
 3640TIP3    H132555   1.194   3.507   0.501  0.1640  0.1259  1.0354
 3640TIP3    H232556   1.212   3.648   0.551  0.1715  0.8785 -0.9784
 3641TIP3   OH232557   6.744   6.496   7.139 -0.4086  0.4533 -0.2082
 3641TIP3    H132558   6.779   6.554   7.207  0.7855 -0.3961 -0.0669
 3641TIP3    H232559   6.779   6.410   7.161 -1.0960 -0.0808 -1.1531
 3642TIP3   OH232560   3.577   1.642   0.767  0.6663  0.4550 -0.3469
 3642TIP3    H132561   3.646   1.680   0.821  0.3932 -0.9921  1.1000
 3642TIP3    H232562   3.514   1.713   0.755  1.0534  1.0036  0.7208
 3643TIP3   OH232563   6.572   5.312   1.555  0.3437  0.2014  0.1825
 3643TIP3    H132564   6.554   5.384   1.615  0.7068  0.4576 -0.0094
 3643TIP3    H232565   6.554   5.233   1.607  0.3319  0.4217  0.5214
 3644TIP3   OH232566   3.882   1.056   7.747  0.5864  0.0314  0.1255
 3644TIP3    H132567   3.910   1.146   7.765  1.7574  0.3427 -2.7097
 3644TIP3    H232568   3.799   1.066   7.700 -0.3478 -0.5433  1.5570
 3645TIP3   OH232569   3.237   6.176   8.836  0.1161 -0.0144 -0.1136
 3645TIP3    H132570   3.186   6.099   8.809 -0.1932  0.2120 -0.1847
 3645TIP3    H232571   3.171   6.242   8.857  0.3804  0.3436 -0.3800
 3646TIP3   OH232572   4.576   4.851   0.382 -0.1305  0.0961  0.4386
 3646TIP3    H132573   4.631   4.927   0.402  1.8149 -1.4632  1.3846
 3646TIP3    H232574   4.548   4.865   0.292  2.1587  0.8317 -0.2402
 3647TIP3   OH232575   2.556   5.506   8.317 -0.4829 -0.2274  0.4138
 3647TIP3    H132576   2.488   5.440   8.331 -0.6726 -1.0071 -3.0790
 3647TIP3    H232577   2.526   5.555   8.240  1.8282  0.9034  0.1452
 3648TIP3   OH232578   6.784   5.783   6.264 -0.0086 -0.9082  0.0375
 3648TIP3    H132579   6.745   5.865   6.295 -1.5497 -1.9833  1.1077
 3648TIP3    H232580   6.878   5.793   6.282 -0.0401  0.9001 -0.5896
 3649TIP3   OH232581   5.121   0.791   2.279  0.1015 -0.3640  0.6169
 3649TIP3    H132582   5.097   0.836   2.360 -2.2318 -2.0672  0.9774
 3649TIP3    H232583   5.137   0.701   2.305  1.6084 -0.4773 -0.5376
 3650TIP3   OH232584   4.803   5.507   7.999  0.4035  0.3305  0.0411
 3650TIP3    H132585   4.812   5.416   7.971 -1.6028  0.2413 -0.4242
 3650TIP3    H232586   4.858   5.514   8.077 -1.2226 -1.9268  1.4923
 3651TIP3   OH232587   3.965   4.497   8.721 -0.3521 -0.4333 -0.9856
 3651TIP3    H132588   3.949   4.544   8.803 -0.5509 -1.8877 -0.1484
 3651TIP3    H232589   4.034   4.434   8.743  1.0592  0.4948 -2.5043
 3652TIP3   OH232590   1.091   1.956   2.037 -0.6715  0.0983 -0.2027
 3652TIP3    H132591   1.059   1.874   2.073  0.6012 -1.0930 -1.6862
 3652TIP3    H232592   1.067   2.022   2.102 -0.6276 -1.6066  1.5976
 3653TIP3   OH232593   0.098   6.128   7.720 -0.5083 -0.3258 -0.3753
 3653TIP3    H132594   0.062   6.212   7.750  0.7713 -0.3401  1.4301
 3653TIP3    H232595   0.149   6.096   7.795  1.6661 -1.1815 -2.0823
 3654TIP3   OH232596   0.089   3.669   7.912  0.4173  0.0341 -0.2512
 3654TIP3    H132597   0.091   3.679   8.008 -1.8265 -0.5765 -0.0953
 3654TIP3    H232598   0.119   3.580   7.896 -0.9576 -0.4991  0.0471
 3655TIP3   OH232599   2.811   2.002   7.837  0.0895 -0.4823  0.0641
 3655TIP3    H132600   2.785   1.969   7.923 -1.5085  0.3598 -0.0551
 3655TIP3    H232601   2.854   2.085   7.856  2.8958 -1.8873  0.2623
 3656TIP3   OH232602   2.552   0.222   6.665  0.0674 -0.1129 -0.0844
 3656TIP3    H132603   2.580   0.208   6.574 -0.5276 -1.3168 -0.1035
 3656TIP3    H232604   2.530   0.315   6.669 -0.1437 -0.0939 -1.2474
 3657TIP3   OH232605   3.487   3.039   8.577  0.1108  0.4693  0.1530
 3657TIP3    H132606   3.451   3.127   8.573 -1.0785 -0.0629 -1.6511
 3657TIP3    H232607   3.573   3.046   8.536  0.0843  0.7995  0.1537
 3658TIP3   OH232608   3.075   5.693   2.399  0.0437 -0.6106 -0.1457
 3658TIP3    H132609   3.062   5.734   2.314 -1.9299 -1.6894 -0.4467
 3658TIP3    H232610   3.032   5.752   2.461 -1.2465 -1.3065 -0.3449
 3659TIP3   OH232611   2.075   4.205   8.819  0.0805  0.5533 -0.0257
 3659TIP3    H132612   2.027   4.287   8.819 -0.6490  0.1375 -0.6884
 3659TIP3    H232613   2.008   4.137   8.815  0.5960 -0.1533  2.1388
 3660TIP3   OH232614   2.288   1.854   7.877 -0.2903 -0.6380 -0.2860
 3660TIP3    H132615   2.260   1.932   7.925 -0.4657 -0.9336  0.1002
 3660TIP3    H232616   2.209   1.799   7.874 -0.2852 -0.6088 -0.9396
 3661TIP3   OH232617   2.705   1.218   1.240 -0.2032 -0.1994 -0.3470
 3661TIP3    H132618   2.795   1.184   1.247  1.0342  2.8076 -0.2901
 3661TIP3    H232619   2.685   1.214   1.147  0.4345  0.0955 -0.5037
 3662TIP3   OH232620   3.028   0.322   6.573 -0.1647 -0.2776  0.5601
 3662TIP3    H132621   3.086   0.255   6.538  2.8133  1.8652  1.0799
 3662TIP3    H232622   2.971   0.345   6.499  2.6833  0.6804 -1.5162
 3663TIP3   OH232623   1.821   0.518   1.436 -0.0627 -0.2557 -0.2317
 3663TIP3    H132624   1.736   0.482   1.463 -0.3139  0.6101  0.1933
 3663TIP3    H232625   1.818   0.519   1.340 -0.3803 -0.5824 -0.2262
 3664TIP3   OH232626   6.815   0.692   6.714  0.6887 -0.1942 -0.2652
 3664TIP3    H132627   6.832   0.784   6.735 -1.5117  0.5062 -1.1820
 3664TIP3    H232628   6.869   0.675   6.637 -0.7061  1.1543 -1.6200
 3665TIP3   OH232629   2.527   0.252   7.199 -0.3812 -0.4422 -0.2450
 3665TIP3    H132630   2.496   0.275   7.111 -1.5434 -0.4818  0.1397
 3665TIP3    H232631   2.465   0.185   7.229  0.0592 -0.4920  0.5711
 3666TIP3   OH232632   2.306   5.796   1.327 -0.1478  0.0012  0.2028
 3666TIP3    H132633   2.353   5.829   1.404  0.0259  0.0925  0.0570
 3666TIP3    H232634   2.343   5.709   1.311 -0.1653 -0.0068  0.2057
 3667TIP3   OH232635   1.526   3.244   0.654 -0.3348  0.0079 -0.1506
 3667TIP3    H132636   1.535   3.336   0.628 -2.1449 -0.2789 -2.1083
 3667TIP3    H232637   1.553   3.195   0.576 -1.1888 -1.0715  0.2077
 3668TIP3   OH232638   4.268   0.841   6.094  0.1115 -0.1265 -0.2900
 3668TIP3    H132639   4.330   0.884   6.152  0.0731 -0.7581  0.2231
 3668TIP3    H232640   4.313   0.761   6.065  0.0432  0.0650 -0.9512
 3669TIP3   OH232641   3.860   0.967   0.273  0.4938  0.8057  0.0225
 3669TIP3    H132642   3.862   1.056   0.237 -2.1160  0.2335 -1.7834
 3669TIP3    H232643   3.896   0.912   0.203  0.3987  0.2412  0.4075
 3670TIP3   OH232644   3.768   5.603   1.540 -0.3441  0.0838  0.0973
 3670TIP3    H132645   3.745   5.638   1.626 -1.3518 -0.3030  0.0046
 3670TIP3    H232646   3.730   5.664   1.478  1.2565  0.9191 -0.1101
 3671TIP3   OH232647   3.938   6.026   6.954  0.0111 -0.1749 -0.5908
 3671TIP3    H132648   3.843   6.019   6.958 -0.0380  0.6618  0.2322
 3671TIP3    H232649   3.957   6.045   6.862 -0.3785 -2.9096 -1.3127
 3672TIP3   OH232650   3.801   0.891   1.816 -0.0111  0.1334  0.0198
 3672TIP3    H132651   3.741   0.966   1.808  0.4948  0.4904 -0.5636
 3672TIP3    H232652   3.886   0.931   1.838  0.0648 -0.3496  0.6394
 3673TIP3   OH232653   4.320   1.832   7.326  0.5623  0.0822 -0.2236
 3673TIP3    H132654   4.245   1.892   7.327  1.9219  1.8604 -0.3312
 3673TIP3    H232655   4.320   1.795   7.238  0.5594  1.0881 -0.6583
 3674TIP3   OH232656   0.229   3.077   2.449  0.5890 -0.6382  0.1809
 3674TIP3    H132657   0.287   3.150   2.429 -1.7172  1.6855  1.3782
 3674TIP3    H232658   0.186   3.057   2.366  2.1665 -1.6212 -0.4534
 3675TIP3   OH232659   5.779   6.506   1.360 -0.0730  0.3491  0.0582
 3675TIP3    H132660   5.790   6.585   1.308 -1.6308  0.2575 -0.4670
 3675TIP3    H232661   5.801   6.533   1.449  2.7116  0.4904 -0.5655
 3676TIP3   OH232662   3.771   0.150   1.440  0.4922 -0.4313  0.1566
 3676TIP3    H132663   3.763   0.202   1.520  1.1309 -0.5486  0.2971
 3676TIP3    H232664   3.769   0.215   1.369  2.1075 -0.1297  0.3654
 3677TIP3   OH232665   3.322   3.389   7.879 -0.3071  0.3717 -0.2821
 3677TIP3    H132666   3.265   3.432   7.814  1.5205  2.2892 -0.7241
 3677TIP3    H232667   3.326   3.451   7.951 -0.5223 -0.7591  0.7236
 3678TIP3   OH232668   3.929   0.163   7.375 -0.6142  0.6140  0.2692
 3678TIP3    H132669   4.006   0.153   7.319 -1.9822  1.3643 -1.8602
 3678TIP3    H232670   3.933   0.088   7.435  0.9859 -0.1816 -0.7657
 3679TIP3   OH232671   1.462   4.948   1.175 -0.2962 -0.0206 -0.0278
 3679TIP3    H132672   1.453   4.898   1.094 -0.0256  2.7753 -1.9332
 3679TIP3    H232673   1.556   4.955   1.188 -0.0158  3.7171 -2.5037
 3680TIP3   OH232674   1.147   3.289   7.909  0.4610 -0.2252  0.0279
 3680TIP3    H132675   1.210   3.219   7.897 -0.5443 -1.3519  0.9875
 3680TIP3    H232676   1.061   3.246   7.905 -0.1592  0.5110  2.7432
 3681TIP3   OH232677   0.403   4.714   7.349 -0.2461 -0.0381  0.3060
 3681TIP3    H132678   0.476   4.758   7.393 -0.5266 -1.2283  2.0932
 3681TIP3    H232679   0.339   4.783   7.333  1.8382  1.3744 -2.7986
 3682TIP3   OH232680   6.135   0.492   2.434 -0.2156 -0.7570 -0.7231
 3682TIP3    H132681   6.163   0.512   2.345 -0.9954  0.1961 -0.7687
 3682TIP3    H232682   6.182   0.555   2.488  0.1870 -1.2756 -0.4550
 3683TIP3   OH232683   5.573   5.844   1.733  0.0818  0.4200  0.2303
 3683TIP3    H132684   5.497   5.820   1.787  0.7005  0.4877  1.1572
 3683TIP3    H232685   5.538   5.853   1.645 -0.7870 -0.6096  0.4572
 3684TIP3   OH232686   4.581   0.222   1.554 -0.4885 -0.8036 -0.0937
 3684TIP3    H132687   4.565   0.237   1.647  0.2781 -1.4825  0.1581
 3684TIP3    H232688   4.676   0.212   1.547 -0.3811  0.7269 -1.1795
 3685TIP3   OH232689   0.498   2.744   7.423  0.2462  0.0661 -0.7336
 3685TIP3    H132690   0.530   2.813   7.365 -1.7719  0.7464 -1.0926
 3685TIP3    H232691   0.468   2.790   7.501  1.0844 -0.6614  0.0404
 3686TIP3   OH232692   6.245   6.811   8.661  0.1314 -0.3267 -0.3424
 3686TIP3    H132693   6.260   6.775   8.573 -0.9117 -0.0320 -0.6451
 3686TIP3    H232694   6.246   6.734   8.718  2.1831 -0.4047 -0.3945
 3687TIP3   OH232695   1.132   0.884   1.462 -0.0146  0.7706  0.1459
 3687TIP3    H132696   1.136   0.804   1.409  0.1671  1.4077 -0.8359
 3687TIP3    H232697   1.161   0.953   1.402 -0.8404  1.6713  0.7574
 3688TIP3   OH232698   5.864   6.413   6.933 -0.0405 -0.0194  0.4860
 3688TIP3    H132699   5.818   6.480   6.882 -1.9611 -1.3843  0.3176
 3688TIP3    H232700   5.956   6.423   6.908 -0.8079 -0.2649 -2.8627
 3689TIP3   OH232701   0.330   0.921   7.549  0.5134 -0.9722 -0.7952
 3689TIP3    H132702   0.267   0.992   7.548 -0.1230 -1.5109 -0.0877
 3689TIP3    H232703   0.319   0.877   7.465 -1.1565 -1.9963 -0.0736
 3690TIP3   OH232704   6.450   5.536   0.884 -0.1995  0.0617  0.1895
 3690TIP3    H132705   6.540   5.537   0.852 -0.7398  0.7782 -1.4246
 3690TIP3    H232706   6.441   5.451   0.928  1.5294  0.3990  1.2776
 3691TIP3   OH232707   6.371   6.569   1.657  0.1531 -0.2718  0.1547
 3691TIP3    H132708   6.302   6.636   1.660 -0.4565 -0.8718 -0.0237
 3691TIP3    H232709   6.354   6.515   1.734 -0.5972 -1.3917 -0.7676
 3692TIP3   OH232710   5.113   4.160   2.488 -0.0499 -0.4217 -0.4672
 3692TIP3    H132711   5.162   4.090   2.444  0.7165 -0.6848  0.7561
 3692TIP3    H232712   5.160   4.240   2.466  0.2799 -0.5422 -0.2153
 3693TIP3   OH232713   6.058   4.323   0.200  0.3197 -0.1371 -0.4625
 3693TIP3    H132714   5.985   4.263   0.212  0.7793 -0.4195  1.2535
 3693TIP3    H232715   6.136   4.268   0.211  0.7468  0.7438  1.3092
 3694TIP3   OH232716   5.049   5.820   8.397  0.0695 -0.1838  0.4833
 3694TIP3    H132717   5.137   5.795   8.425 -0.0854 -1.2856  0.0456
 3694TIP3    H232718   5.025   5.754   8.332 -0.4133  1.0850 -0.6834
 3695TIP3   OH232719   5.796   0.688   0.603 -0.7484  0.0840  0.2833
 3695TIP3    H132720   5.727   0.628   0.629 -0.5661  0.9445  3.1086
 3695TIP3    H232721   5.750   0.768   0.577 -0.8961 -0.3207 -0.7151
 3696TIP3   OH232722   3.211   5.831   6.185 -0.1416 -0.5011  0.2551
 3696TIP3    H132723   3.260   5.881   6.121 -1.3336  1.0259  0.4914
 3696TIP3    H232724   3.165   5.896   6.237 -1.8501 -1.8248  0.5010
 3697TIP3   OH232725   4.354   6.107   1.372  0.2737  0.3198  0.0335
 3697TIP3    H132726   4.284   6.171   1.361  1.1178  1.1030 -0.9599
 3697TIP3    H232727   4.311   6.022   1.356 -0.7259  0.6543  0.8127
 3698TIP3   OH232728   2.768   4.505   0.990 -0.2458 -0.4934 -0.4368
 3698TIP3    H132729   2.702   4.542   0.931 -0.3973 -0.0048  0.0342
 3698TIP3    H232730   2.759   4.555   1.071  0.4986 -0.6255 -0.2620
 3699TIP3   OH232731   2.079   3.034   0.728 -0.4818 -0.3542  0.1442
 3699TIP3    H132732   2.140   2.972   0.688 -1.9995 -2.3106  0.7281
 3699TIP3    H232733   2.029   3.068   0.654  0.1256 -0.0703 -0.1432
 3700TIP3   OH232734   6.282   4.279   8.629  0.0042 -0.0024  0.3754
 3700TIP3    H132735   6.274   4.357   8.685  0.4336  1.6275 -1.7170
 3700TIP3    H232736   6.216   4.292   8.561 -0.1321 -1.6603  0.1492
 3701TIP3   OH232737   3.140   3.703   1.505 -0.2977 -0.1250 -0.3791
 3701TIP3    H132738   3.233   3.714   1.486 -0.2071 -0.9788 -0.4522
 3701TIP3    H232739   3.110   3.638   1.441 -0.4937 -1.3539  0.9215
 3702TIP3   OH232740   5.370   0.204   6.479  0.3260 -0.0454  0.2476
 3702TIP3    H132741   5.350   0.274   6.542  1.0213 -0.8940  1.4683
 3702TIP3    H232742   5.331   0.233   6.397 -0.3890  1.2323  1.0093
 3703TIP3   OH232743   5.038   4.981   7.380  0.0471 -0.6147  0.0618
 3703TIP3    H132744   5.108   4.950   7.439 -0.3843  0.9079  1.4320
 3703TIP3    H232745   5.081   5.045   7.325 -0.4375  1.1987  1.6844
 3704TIP3   OH232746   3.710   4.920   0.341  0.0867 -0.1049 -0.0051
 3704TIP3    H132747   3.756   4.915   0.425 -1.0314  1.7387  0.7678
 3704TIP3    H232748   3.619   4.900   0.362 -0.3733  1.2668 -0.5959
 3705TIP3   OH232749   0.555   4.725   1.770  0.3411  0.5396 -0.8241
 3705TIP3    H132750   0.568   4.728   1.864 -2.3274  1.0067 -0.3743
 3705TIP3    H232751   0.543   4.816   1.744  1.2872  0.4353 -1.6617
 3706TIP3   OH232752   4.361   5.573   0.479  0.3366  0.2456 -0.1010
 3706TIP3    H132753   4.278   5.532   0.455  1.4713 -2.3623  0.0226
 3706TIP3    H232754   4.394   5.610   0.397  1.6140 -3.7974 -1.7110
 3707TIP3   OH232755   3.464   5.036   1.319 -0.0209 -0.7163 -0.3195
 3707TIP3    H132756   3.496   5.113   1.272 -0.5409 -0.6437 -0.5632
 3707TIP3    H232757   3.542   4.983   1.334  0.2380 -0.4617 -0.7456
 3708TIP3   OH232758   6.213   2.466   7.826  0.2197 -0.0781  0.0427
 3708TIP3    H132759   6.226   2.557   7.852 -1.2934  0.3461 -0.6060
 3708TIP3    H232760   6.212   2.468   7.731  0.1437 -0.7849  0.0224
 3709TIP3   OH232761   6.104   4.878   0.799  0.0685 -0.3550  0.5506
 3709TIP3    H132762   6.106   4.957   0.744 -0.3674 -1.1906 -0.7115
 3709TIP3    H232763   6.019   4.882   0.842  1.1167  1.2308  2.6463
 3710TIP3   OH232764   1.477   0.318   7.230  0.1141 -0.2079 -0.4036
 3710TIP3    H132765   1.427   0.387   7.187 -0.1922  0.0683  0.3809
 3710TIP3    H232766   1.558   0.361   7.259 -0.1591 -0.1234  0.2528
 3711TIP3   OH232767   6.573   4.342   1.526  0.3413  0.4318  0.4038
 3711TIP3    H132768   6.616   4.267   1.485 -0.8029  0.0223 -0.0943
 3711TIP3    H232769   6.482   4.335   1.498 -0.3145  0.6132  2.3290
 3712TIP3   OH232770   5.426   6.488   8.154 -0.0339 -0.1459 -0.0969
 3712TIP3    H132771   5.487   6.548   8.111 -1.2554  0.6823 -0.7615
 3712TIP3    H232772   5.415   6.416   8.091 -1.9018  1.1171 -1.3305
 3713TIP3   OH232773   6.438   5.216   0.113  0.3316 -0.4644 -0.6412
 3713TIP3    H132774   6.382   5.272   0.059 -0.0980 -1.8545 -1.6838
 3713TIP3    H232775   6.522   5.263   0.117 -1.2098  2.3948  2.1882
 3714TIP3   OH232776   6.309   6.466   1.904 -0.1444  0.2829  0.2996
 3714TIP3    H132777   6.299   6.543   1.959 -1.6100 -0.3386  0.9774
 3714TIP3    H232778   6.240   6.406   1.935  0.8032 -1.1991 -0.3432
 3715TIP3   OH232779   1.534   1.248   8.079 -0.5269 -0.3062 -0.5261
 3715TIP3    H132780   1.497   1.171   8.036 -1.3314  0.3532 -1.0737
 3715TIP3    H232781   1.617   1.219   8.115 -0.5129 -1.2578 -1.2948
 3716TIP3   OH232782   3.796   5.477   8.494 -0.3481  0.3617  0.0054
 3716TIP3    H132783   3.792   5.394   8.445  1.7119  0.4151 -0.3232
 3716TIP3    H232784   3.780   5.544   8.428  0.4773  0.3374 -0.2259
 3717TIP3   OH232785   2.464   0.096   0.818  1.2508 -0.0122  0.3278
 3717TIP3    H132786   2.405   0.171   0.818  0.7007 -0.4241 -0.8367
 3717TIP3    H232787   2.549   0.132   0.844  1.0646  1.0662 -0.5123
 3718TIP3   OH232788   5.476   0.717   8.428 -0.3073  0.1161  0.0699
 3718TIP3    H132789   5.559   0.676   8.403  0.4941  1.8692 -0.3077
 3718TIP3    H232790   5.419   0.704   8.353  0.2927  0.5871 -0.4852
 3719TIP3   OH232791   5.640   4.479   2.102  0.7735 -0.1026 -0.1605
 3719TIP3    H132792   5.662   4.531   2.180  0.0092  0.6159 -0.4081
 3719TIP3    H232793   5.653   4.539   2.029 -3.4516  1.0052 -0.2574
 3720TIP3   OH232794   6.295   5.114   1.340 -0.2555  0.3818 -0.1731
 3720TIP3    H132795   6.211   5.098   1.297 -0.6693 -0.4967  0.9144
 3720TIP3    H232796   6.272   5.146   1.427  0.5409  0.5082  0.0001
 3721TIP3   OH232797   0.462   4.047   7.069 -0.1927 -0.2473 -0.0312
 3721TIP3    H132798   0.423   4.023   6.985  1.0872 -1.2932 -0.3620
 3721TIP3    H232799   0.495   4.136   7.055 -2.1793  0.5723  0.1938
 3722TIP3   OH232800   1.002   2.078   0.589  0.0750 -0.1350  0.2519
 3722TIP3    H132801   1.055   2.027   0.528  0.4420 -0.0343  0.4844
 3722TIP3    H232802   1.015   2.036   0.674  0.0801  0.1207  0.3780
 3723TIP3   OH232803   3.042   2.713   6.175 -0.6472  0.3083  0.3401
 3723TIP3    H132804   3.016   2.743   6.088 -3.7401 -0.7786  0.7666
 3723TIP3    H232805   3.029   2.619   6.173  3.0612 -0.3379  0.8716
 3724TIP3   OH232806   1.590   5.669   8.546 -0.0155 -0.1481  1.1148
 3724TIP3    H132807   1.640   5.589   8.531  0.1876  0.1353  0.2566
 3724TIP3    H232808   1.547   5.687   8.463 -0.4033  0.4072  1.4269
 3725TIP3   OH232809   2.434   2.512   6.892 -0.0390 -0.1640 -0.1870
 3725TIP3    H132810   2.450   2.547   6.804 -1.8179  0.5738 -0.2671
 3725TIP3    H232811   2.414   2.419   6.877 -0.2814 -0.0550 -0.5788
 3726TIP3   OH232812   6.036   3.338   2.464  0.3246  0.1716  0.0050
 3726TIP3    H132813   6.013   3.429   2.445 -1.6487 -0.1670  0.5254
 3726TIP3    H232814   6.122   3.343   2.505  1.3834  1.5631 -2.1885
 3727TIP3   OH232815   2.101   2.664   1.804  0.4096  0.1975  0.5703
 3727TIP3    H132816   2.065   2.623   1.883  0.6401 -2.5907 -0.6736
 3727TIP3    H232817   2.194   2.645   1.808  0.3739 -0.2459 -0.5221
 3728TIP3   OH232818   6.864   3.716   8.162  0.1267 -0.1403 -0.3065
 3728TIP3    H132819   6.870   3.796   8.215  0.6426  0.4353 -1.1996
 3728TIP3    H232820   6.772   3.713   8.134 -0.1638 -0.4870  0.6665
 3729TIP3   OH232821   6.537   4.909   7.785 -0.9776 -0.1077  0.2820
 3729TIP3    H132822   6.575   4.993   7.810 -0.6224 -0.2215  0.1270
 3729TIP3    H232823   6.463   4.933   7.729  0.9093  0.0842 -2.3224
 3730TIP3   OH232824   4.598   2.016   0.058 -0.4153 -0.3086 -0.5891
 3730TIP3    H132825   4.605   1.920   0.061  0.3500 -0.2681 -0.7609
 3730TIP3    H232826   4.569   2.040   0.146  0.6476 -0.6225 -0.1321
 3731TIP3   OH232827   2.496   0.436   8.661  0.0903 -0.7274  0.7302
 3731TIP3    H132828   2.437   0.465   8.591  0.5966 -0.6145  0.3414
 3731TIP3    H232829   2.581   0.472   8.636  0.9282 -3.1553 -0.1855
 3732TIP3   OH232830   6.251   5.837   0.219 -0.0135  0.5082 -0.4073
 3732TIP3    H132831   6.331   5.874   0.256  0.3089 -0.7794  0.2416
 3732TIP3    H232832   6.206   5.797   0.293 -1.2701  1.2158 -0.7666
 3733TIP3   OH232833   1.999   6.020   7.840 -0.3819  0.5198  0.0942
 3733TIP3    H132834   2.042   6.090   7.791 -0.7953  0.4249 -0.4163
 3733TIP3    H232835   2.065   5.951   7.846  0.2870  1.2268  1.2505
 3734TIP3   OH232836   6.318   2.395   8.084  0.7870  0.1688 -0.6490
 3734TIP3    H132837   6.225   2.381   8.105  1.3387 -1.2493  1.0270
 3734TIP3    H232838   6.317   2.415   7.990 -1.2641  0.8125 -0.5516
 3735TIP3   OH232839   4.127   1.421   6.842 -0.1171 -0.1196  0.2282
 3735TIP3    H132840   4.076   1.473   6.904 -1.2367 -0.1737 -0.6217
 3735TIP3    H232841   4.206   1.473   6.826 -0.7284  0.8138  0.2012
 3736TIP3   OH232842   6.776   4.627   0.200 -0.8022  0.2198  0.0433
 3736TIP3    H132843   6.718   4.556   0.226 -2.1831  1.1847 -0.2929
 3736TIP3    H232844   6.738   4.705   0.240 -0.3717  1.0334 -1.0762
 3737TIP3   OH232845   3.610   4.890   6.775  0.1479  0.2360  0.1946
 3737TIP3    H132846   3.691   4.880   6.725 -0.2214 -1.4077 -0.1414
 3737TIP3    H232847   3.568   4.803   6.771 -0.6431  0.4701  2.0611
 3738TIP3   OH232848   0.813   4.820   8.253 -0.3571 -0.1583 -0.5542
 3738TIP3    H132849   0.904   4.797   8.273 -0.3644  0.2300 -0.0706
 3738TIP3    H232850   0.769   4.735   8.242 -0.4484 -0.4312  1.5168
 3739TIP3   OH232851   6.569   2.704   8.452  0.5099 -0.2735 -0.6287
 3739TIP3    H132852   6.659   2.696   8.420 -0.4588  0.0972 -3.8234
 3739TIP3    H232853   6.522   2.633   8.409 -1.1969  1.0928 -1.1378
 3740TIP3   OH232854   1.004   6.383   0.180 -0.1879 -0.0372  0.1992
 3740TIP3    H132855   1.078   6.392   0.240  1.3208  0.3699 -1.6264
 3740TIP3    H232856   0.927   6.377   0.237  0.9084  2.5334  2.1173
 3741TIP3   OH232857   1.296   1.612   2.451  0.7828  0.3804 -0.4390
 3741TIP3    H132858   1.227   1.621   2.385  2.2362 -1.0328 -2.2633
 3741TIP3    H232859   1.284   1.524   2.486 -0.3634  1.3313  1.7452
 3742TIP3   OH232860   5.275   1.393   6.843 -0.1309 -1.0524 -0.7106
 3742TIP3    H132861   5.222   1.337   6.785 -0.0165 -1.1972 -0.6758
 3742TIP3    H232862   5.365   1.364   6.828  0.0234 -0.3152 -1.3187
 3743TIP3   OH232863   4.081   6.210   7.336  0.4191 -0.4160 -0.3734
 3743TIP3    H132864   4.101   6.200   7.243  2.6335  2.3455 -0.3175
 3743TIP3    H232865   4.139   6.147   7.379  1.7171  0.4525 -0.7734
 3744TIP3   OH232866   5.410   6.447   0.658  0.6014  0.3008  0.4850
 3744TIP3    H132867   5.435   6.386   0.727 -1.4411  0.6335  1.5998
 3744TIP3    H232868   5.367   6.393   0.592 -1.0393  0.4224  1.3866
 3745TIP3   OH232869   3.297   1.987   1.609  0.3289  0.1539  0.3604
 3745TIP3    H132870   3.315   2.025   1.694  0.7935  0.8839 -0.0562
 3745TIP3    H232871   3.266   2.061   1.556  1.6030  0.0517 -0.5702
 3746TIP3   OH232872   4.072   0.608   7.923  0.0350  0.6629 -0.3519
 3746TIP3    H132873   4.074   0.541   7.855  0.3141  0.0537  0.2487
 3746TIP3    H232874   4.035   0.685   7.879  0.9998  0.5499 -1.4214
 3747TIP3   OH232875   6.200   2.383   6.944 -0.0114  0.3786 -0.0102
 3747TIP3    H132876   6.105   2.382   6.941 -0.0657  0.6200  1.0603
 3747TIP3    H232877   6.227   2.390   6.853 -1.0887  3.1780 -0.2124
 3748TIP3   OH232878   0.038   0.821   8.540  0.0704  0.7427  0.6276
 3748TIP3    H132879   0.027   0.909   8.505  1.2077  0.6141 -0.1182
 3748TIP3    H232880   0.115   0.827   8.598  0.2920  0.2009  0.4025
 3749TIP3   OH232881   5.003   1.102   0.579  0.1249  0.1917  0.1055
 3749TIP3    H132882   4.994   1.090   0.484 -2.3380 -2.2362  0.4947
 3749TIP3    H232883   4.919   1.141   0.606  0.3263 -0.2150  1.3952
 3750TIP3   OH232884   1.663   1.187   1.530  0.4910  0.4468  0.1488
 3750TIP3    H132885   1.755   1.172   1.511 -0.1199 -0.4805 -2.5171
 3750TIP3    H232886   1.660   1.277   1.564  2.3474  0.4746  0.3327
 3751TIP3   OH232887   1.735   2.102   8.309 -0.3436 -0.4997 -0.1644
 3751TIP3    H132888   1.781   2.185   8.320 -0.2855 -0.5843  0.2573
 3751TIP3    H232889   1.724   2.092   8.214  0.9168 -0.7092 -0.3017
 3752TIP3   OH232890   2.314   6.096   7.370 -0.6075  0.1199  0.4230
 3752TIP3    H132891   2.294   6.190   7.360  0.6792  0.5329  1.3738
 3752TIP3    H232892   2.323   6.064   7.281 -1.1535  0.8892  0.0775
 3753TIP3   OH232893   6.356   3.878   8.839 -0.0483 -0.0653  0.6968
 3753TIP3    H132894   6.429   3.911   8.891 -1.1158  1.6921  1.1848
 3753TIP3    H232895   6.335   3.793   8.878  2.2696 -1.0700 -0.0570
 3754TIP3   OH232896   2.487   1.139   7.086  0.1643 -0.0741  0.2936
 3754TIP3    H132897   2.566   1.134   7.033  0.1827 -0.6878  0.3657
 3754TIP3    H232898   2.507   1.204   7.153  0.2611  0.4619 -0.2522
 3755TIP3   OH232899   2.234   5.915   1.068  0.3129 -0.3694  0.1420
 3755TIP3    H132900   2.238   5.887   1.159 -0.1257 -2.2891 -0.3926
 3755TIP3    H232901   2.325   5.934   1.045  0.4222  0.1584  0.9669
 3756TIP3   OH232902   1.579   1.790   6.432 -0.0187 -0.6063 -0.1472
 3756TIP3    H132903   1.540   1.803   6.346 -3.3679 -0.1931  1.2499
 3756TIP3    H232904   1.612   1.700   6.431  1.4658 -0.1229 -2.2667
 3757TIP3   OH232905   0.919   4.605   7.937 -0.1463 -0.3537  0.0976
 3757TIP3    H132906   0.957   4.681   7.894 -0.0035 -0.8716 -0.7251
 3757TIP3    H232907   0.972   4.531   7.905  0.3995 -0.6886  1.6929
 3758TIP3   OH232908   5.656   0.122   8.759  0.0116  0.0692 -0.1670
 3758TIP3    H132909   5.652   0.029   8.739  0.2919 -0.2274  1.1092
 3758TIP3    H232910   5.749   0.141   8.769  0.0891  0.8338 -1.8574
 3759TIP3   OH232911   4.156   6.175   8.025 -0.4459 -0.0144  0.1251
 3759TIP3    H132912   4.223   6.136   8.081 -0.7734  0.1741  0.6463
 3759TIP3    H232913   4.073   6.153   8.066 -0.7084 -0.1665 -0.4712
 3760TIP3   OH232914   4.275   3.840   1.833  0.9011  0.4708 -0.4989
 3760TIP3    H132915   4.272   3.847   1.928  0.7789  0.4511 -0.5007
 3760TIP3    H232916   4.225   3.915   1.801  0.8103  0.3921 -0.5437
 3761TIP3   OH232917   5.176   0.164   0.332 -0.6576  0.0322  0.1025
 3761TIP3    H132918   5.131   0.182   0.414 -1.0566 -0.0908 -0.0870
 3761TIP3    H232919   5.163   0.070   0.317  0.8479 -0.3057  0.7493
 3762TIP3   OH232920   4.050   4.079   1.694  0.2135 -0.0490  0.3189
 3762TIP3    H132921   4.076   4.130   1.617 -0.2711  0.4557  0.4766
 3762TIP3    H232922   4.060   4.140   1.767  1.0639 -0.6500  0.7164
 3763TIP3   OH232923   4.757   5.631   0.686  0.8265  0.1602 -0.0772
 3763TIP3    H132924   4.691   5.691   0.650  0.8541 -0.3295 -0.9539
 3763TIP3    H232925   4.720   5.604   0.770  0.3671  0.6539 -0.1127
 3764TIP3   OH232926   0.425   0.822   0.214  0.1263 -0.1402  0.2880
 3764TIP3    H132927   0.451   0.764   0.285 -0.2863 -0.4400  0.1988
 3764TIP3    H232928   0.329   0.828   0.221  0.2702  2.0523  1.4832
 3765TIP3   OH232929   1.763   2.697   8.785  0.7337 -0.0125  0.9234
 3765TIP3    H132930   1.855   2.693   8.759  0.5768 -0.5867  0.4200
 3765TIP3    H232931   1.760   2.653   8.870  0.7221 -1.2888  0.2928
 3766TIP3   OH232932   2.777   4.351   0.509 -0.0131 -0.0859 -0.1549
 3766TIP3    H132933   2.739   4.404   0.439 -0.0616 -1.6982 -1.4202
 3766TIP3    H232934   2.854   4.311   0.469 -0.3732 -1.5103  0.4967
 3767TIP3   OH232935   4.987   6.721   1.239  0.2005 -0.6232  0.8338
 3767TIP3    H132936   5.036   6.780   1.296  0.3021  0.6184 -0.4943
 3767TIP3    H232937   4.904   6.706   1.284 -0.7286  2.2679  0.2584
 3768TIP3   OH232938   3.487   6.455   8.360 -0.4430  0.6548  0.1726
 3768TIP3    H132939   3.419   6.463   8.426 -0.8985 -0.2955 -0.1649
 3768TIP3    H232940   3.449   6.398   8.293  0.5554  0.3742 -0.1774
 3769TIP3   OH232941   5.601   5.497   0.792 -0.0991  0.1787  0.0998
 3769TIP3    H132942   5.519   5.470   0.750  0.6517 -2.8741  0.3649
 3769TIP3    H232943   5.670   5.462   0.735  1.0185  1.0932  0.8424
 3770TIP3   OH232944   3.399   1.185   7.999 -0.0551 -0.1808  0.5471
 3770TIP3    H132945   3.350   1.177   8.081  0.9079 -0.8615  1.0727
 3770TIP3    H232946   3.342   1.146   7.933 -0.0993 -1.2322  1.1961
 3771TIP3   OH232947   1.046   3.968   6.697 -0.0627 -0.1106  0.2322
 3771TIP3    H132948   1.064   3.874   6.699  0.2696 -0.0376  0.6992
 3771TIP3    H232949   1.052   3.997   6.788 -0.2095  0.3543  0.1004
 3772TIP3   OH232950   4.593   2.950   7.148 -0.2613  0.5099 -0.2142
 3772TIP3    H132951   4.550   2.978   7.067 -0.4144 -1.1690 -0.7466
 3772TIP3    H232952   4.522   2.945   7.212 -0.5458 -0.4026 -0.5922
 3773TIP3   OH232953   6.783   5.156   1.704 -0.4566  0.3934  0.7030
 3773TIP3    H132954   6.771   5.062   1.688 -2.7242  0.6401  0.6386
 3773TIP3    H232955   6.738   5.172   1.787  2.0698  1.0296  2.0513
 3774TIP3   OH232956   4.210   0.140   7.144  0.1633 -0.0359  0.2948
 3774TIP3    H132957   4.182   0.231   7.135  1.8584  0.5578  0.7488
 3774TIP3    H232958   4.239   0.116   7.056  0.2506  0.0491  0.3002
 3775TIP3   OH232959   0.848   4.136   1.285 -0.7056 -0.7206 -0.1269
 3775TIP3    H132960   0.854   4.063   1.346 -0.9835  0.8350  1.8463
 3775TIP3    H232961   0.757   4.164   1.290 -0.2521  0.7370  0.3649
 3776TIP3   OH232962   0.153   5.426   7.382 -0.1445 -0.3424 -0.2401
 3776TIP3    H132963   0.075   5.406   7.330 -0.1936  1.3499 -0.9001
 3776TIP3    H232964   0.120   5.439   7.471 -0.3062 -1.5946 -0.1020
 3777TIP3   OH232965   0.160   6.846   7.568  0.0677  0.1166 -0.4979
 3777TIP3    H132966   0.112   6.927   7.585  0.6206  0.5789 -1.0963
 3777TIP3    H232967   0.160   6.837   7.473 -2.4539 -2.1195 -0.4010
 3778TIP3   OH232968   0.514   1.602   7.463  0.1667 -0.5235 -0.4688
 3778TIP3    H132969   0.586   1.588   7.524  0.0769  0.6963 -0.0549
 3778TIP3    H232970   0.555   1.601   7.377  0.1486 -3.3260 -0.5417
 3779TIP3   OH232971   4.540   4.434   8.619 -0.2205 -0.5424  0.3299
 3779TIP3    H132972   4.588   4.352   8.632 -0.0533 -0.2527  1.6451
 3779TIP3    H232973   4.454   4.418   8.656 -0.7597 -0.6443 -0.9048
 3780TIP3   OH232974   6.830   5.203   0.904  0.0516 -0.1499 -0.0222
 3780TIP3    H132975   6.800   5.165   0.987 -0.8842  1.1240  0.2484
 3780TIP3    H232976   6.756   5.254   0.872  1.7874  2.9698  0.5678
 3781TIP3   OH232977   4.969   4.472   7.370  0.1670  0.1125  0.0300
 3781TIP3    H132978   4.952   4.396   7.425 -0.5480  0.0257 -0.3037
 3781TIP3    H232979   5.064   4.472   7.358  0.0742 -1.3686 -0.8627
 3782TIP3   OH232980   4.101   2.220   6.976  0.1485 -0.4233  0.4733
 3782TIP3    H132981   4.125   2.217   6.883  1.9278  0.8238  0.8273
 3782TIP3    H232982   4.139   2.302   7.007 -2.3205  0.2918  1.8343
 3783TIP3   OH232983   5.443   0.466   7.662 -0.0495  0.1145  0.5228
 3783TIP3    H132984   5.511   0.400   7.649  0.4719  0.7816 -0.2677
 3783TIP3    H232985   5.364   0.427   7.624  0.0041 -0.4611  0.9874
 3784TIP3   OH232986   6.087   0.783   0.616 -0.0317  0.3185  0.3228
 3784TIP3    H132987   6.063   0.867   0.654 -0.6701  0.4862 -0.4364
 3784TIP3    H232988   6.004   0.741   0.596  0.2872 -0.2039  0.0671
 3785TIP3   OH232989   0.488   2.108   1.410 -0.4456  0.2960 -0.1951
 3785TIP3    H132990   0.527   2.040   1.355 -0.4801 -0.5270  0.7595
 3785TIP3    H232991   0.482   2.067   1.496  0.2951  1.7997  0.6069
 3786TIP3   OH232992   6.278   2.620   1.527  0.2956  0.5130  0.2840
 3786TIP3    H132993   6.203   2.581   1.481  0.6873  1.3153 -1.0872
 3786TIP3    H232994   6.300   2.556   1.594 -0.7090 -0.4083 -0.2250
 3787TIP3   OH232995   6.283   4.807   0.042  0.1214  0.0727 -0.5149
 3787TIP3    H132996   6.243   4.887   0.078  1.7842  0.1285  1.3218
 3787TIP3    H232997   6.352   4.839  -0.015 -0.3173 -0.0719 -1.1453
 3788TIP3   OH232998   4.524   0.646   7.092  0.6380 -0.2309  0.5539
 3788TIP3    H132999   4.462   0.585   7.053  0.1632  0.9694 -0.6254
 3788TIP3    H233000   4.474   0.692   7.160  0.5725 -0.0997  0.4166
 3789TIP3   OH233001   4.156   2.692   0.350  0.3784 -0.9889  0.4404
 3789TIP3    H133002   4.213   2.735   0.413 -0.7862  1.8841 -0.3087
 3789TIP3    H233003   4.158   2.599   0.375  2.9319 -0.5590  2.2532
 3790TIP3   OH233004   5.678   1.048   1.636  0.4099 -0.0116 -0.0417
 3790TIP3    H133005   5.665   1.070   1.544  0.3470  2.1631  0.4551
 3790TIP3    H233006   5.590   1.033   1.670  0.4409 -0.9414 -0.3254
 3791TIP3   OH233007   2.743   0.522   0.680  0.1631  0.0837 -0.3032
 3791TIP3    H133008   2.719   0.612   0.659  0.7669  0.1669 -0.6741
 3791TIP3    H233009   2.660   0.479   0.703  0.1203  1.3141  2.1689
 3792TIP3   OH233010   5.401   4.410   7.575  0.3652  0.7151  0.4695
 3792TIP3    H133011   5.482   4.383   7.530 -0.6721  0.8799 -1.6542
 3792TIP3    H233012   5.332   4.360   7.531 -0.8423  1.6834  1.2145
 3793TIP3   OH233013   6.624   2.975   0.273  0.0750  0.4248  0.3144
 3793TIP3    H133014   6.592   3.065   0.275  2.1752  1.2614 -0.4569
 3793TIP3    H233015   6.716   2.981   0.301  1.4199 -0.8280 -3.2159
 3794TIP3   OH233016   2.495   1.110   1.373  0.0251 -0.2726  0.7250
 3794TIP3    H133017   2.583   1.139   1.348 -0.3007  0.2172  0.1156
 3794TIP3    H233018   2.499   1.014   1.367  0.0234 -0.2095 -1.1201
 3795TIP3   OH233019   1.496   1.212   1.307 -0.3904 -0.2091 -0.1983
 3795TIP3    H133020   1.558   1.181   1.374 -0.0153  0.5414 -0.1837
 3795TIP3    H233021   1.490   1.306   1.322 -0.6459 -0.0983 -0.9442
 3796TIP3   OH233022   2.783   4.164   6.860 -0.2116 -0.3388  0.0458
 3796TIP3    H133023   2.788   4.184   6.953  0.4676  1.8678 -0.4098
 3796TIP3    H233024   2.788   4.249   6.816 -1.7233 -1.2117 -1.9907
 3797TIP3   OH233025   6.208   2.122   7.554  0.6392  0.1601 -0.5294
 3797TIP3    H133026   6.269   2.051   7.533  1.6598  0.1184  2.1459
 3797TIP3    H233027   6.245   2.162   7.633 -2.9126 -0.0359  1.4316
 3798TIP3   OH233028   6.182   2.941   0.223  0.7231  0.2412  0.1710
 3798TIP3    H133029   6.257   2.886   0.246  1.4054  0.7695 -0.7360
 3798TIP3    H233030   6.108   2.899   0.266  1.6835  0.3249  2.0095
 3799TIP3   OH233031   0.097   2.258   1.178 -0.7221  0.1138 -0.7206
 3799TIP3    H133032   0.002   2.272   1.180 -0.5297  1.5571 -0.1504
 3799TIP3    H233033   0.128   2.295   1.261  0.0616 -2.8878  0.4703
 3800TIP3   OH233034   6.450   1.176   7.692  0.8352 -0.4829  0.3341
 3800TIP3    H133035   6.446   1.238   7.765  0.5390  0.2197 -0.2566
 3800TIP3    H233036   6.477   1.230   7.617  2.2673 -1.4128  0.1534
 3801TIP3   OH233037   0.926   1.053   8.320  0.5633  0.1916  0.1942
 3801TIP3    H133038   0.917   1.087   8.409  2.7502  0.3615  0.4192
 3801TIP3    H233039   0.847   1.081   8.275  0.1891  1.5817  1.6296
 3802TIP3   OH233040   5.734   3.477   2.140  0.7308 -0.5422  0.0055
 3802TIP3    H133041   5.666   3.434   2.192 -0.4806 -2.0120 -2.6218
 3802TIP3    H233042   5.691   3.552   2.100  0.4761 -1.6059 -1.8465
 3803TIP3   OH233043   4.665   0.002   6.583  0.5653  0.7302 -0.5761
 3803TIP3    H133044   4.681  -0.090   6.604  1.2888  1.0890  0.5249
 3803TIP3    H233045   4.585   0.001   6.531  1.4363 -0.6693 -1.9892
 3804TIP3   OH233046   2.109   5.720   0.950 -0.0613 -0.0171 -0.1135
 3804TIP3    H133047   2.164   5.727   0.872  1.8141 -1.5052  0.9825
 3804TIP3    H233048   2.143   5.787   1.009 -2.0655  1.7329 -0.8125
 3805TIP3   OH233049   2.023   3.823   8.688  0.2025  0.3310  0.3204
 3805TIP3    H133050   2.112   3.799   8.715 -0.6057 -3.2082  0.2202
 3805TIP3    H233051   2.011   3.781   8.603 -1.7394  0.3635  0.5451
 3806TIP3   OH233052   4.735   4.554   8.067 -0.1109 -0.0527 -0.3641
 3806TIP3    H133053   4.800   4.579   8.133 -0.6792 -1.5332  0.8372
 3806TIP3    H233054   4.758   4.604   7.990  1.4222  0.7313  0.5556
 3807TIP3   OH233055   5.752   2.732   7.871 -0.1917  0.2973 -0.0443
 3807TIP3    H133056   5.801   2.650   7.871  0.4950  0.6676 -1.6954
 3807TIP3    H233057   5.665   2.708   7.839  0.4058  0.3725 -1.8519
 3808TIP3   OH233058   5.260   2.288   8.673 -0.3568  0.4319 -0.1820
 3808TIP3    H133059   5.306   2.343   8.738 -1.0860 -1.3641  1.9839
 3808TIP3    H233060   5.326   2.224   8.646 -0.1571  0.9665 -0.9941
 3809TIP3   OH233061   2.758   4.490   8.026 -0.3245  0.1978 -0.2636
 3809TIP3    H133062   2.691   4.478   8.094  1.4622 -0.9076  1.3927
 3809TIP3    H233063   2.800   4.404   8.018  1.1058  0.9363 -1.0020
 3810TIP3   OH233064   1.005   5.578   1.083 -0.3568  0.0629 -0.4867
 3810TIP3    H133065   1.026   5.652   1.141  0.1276 -0.4906  0.0587
 3810TIP3    H233066   1.062   5.508   1.113  1.0382  0.2001 -2.6195
 3811TIP3   OH233067   4.294   0.991   8.051  0.0397 -0.3741 -0.0354
 3811TIP3    H133068   4.278   1.052   7.978 -0.1002  1.2209  1.2648
 3811TIP3    H233069   4.345   1.042   8.113 -0.0571 -1.6210  1.1046
 3812TIP3   OH233070   5.677   5.792   8.046 -0.1903 -0.4273 -0.4201
 3812TIP3    H133071   5.652   5.826   7.960 -1.2490  2.0492  0.7732
 3812TIP3    H233072   5.595   5.788   8.095  0.5288 -0.8988  0.7765
 3813TIP3   OH233073   2.180   1.892   1.367  0.0967 -0.2189 -0.3948
 3813TIP3    H133074   2.232   1.811   1.372 -0.1239 -0.3131  0.4315
 3813TIP3    H233075   2.156   1.898   1.275 -0.2412 -1.3296 -0.3993
 3814TIP3   OH233076   0.097   1.283   8.767 -0.3673 -0.2132  0.0841
 3814TIP3    H133077   0.175   1.230   8.786 -1.3197 -2.1153 -1.0019
 3814TIP3    H233078   0.069   1.315   8.853  1.8522  0.9571  0.4505
 3815TIP3   OH233079   6.345   5.082   8.554  0.1558  0.5436  0.8255
 3815TIP3    H133080   6.431   5.040   8.561 -0.4085 -0.4831  2.0641
 3815TIP3    H233081   6.310   5.052   8.471  0.0193 -1.0185  1.4118
 3816TIP3   OH233082   2.953   3.431   6.557  0.2495  0.5344 -0.4598
 3816TIP3    H133083   2.985   3.515   6.521  1.9160  0.0190 -0.2535
 3816TIP3    H233084   2.985   3.365   6.495 -0.7310 -0.0127 -0.4128
 3817TIP3   OH233085   5.424   1.487   7.802 -0.1614  0.2213  0.4906
 3817TIP3    H133086   5.425   1.581   7.824 -0.8367  0.5993 -0.9709
 3817TIP3    H233087   5.408   1.443   7.886 -0.4295  1.4427  1.1072
 3818TIP3   OH233088   4.597   6.688   8.736 -0.1538 -0.5344 -0.2023
 3818TIP3    H133089   4.636   6.722   8.816 -0.6468  2.7786 -1.2395
 3818TIP3    H233090   4.671   6.652   8.687  0.4176 -0.9550  0.9381
 3819TIP3   OH233091   0.600   0.083   7.455 -0.6026 -0.2721 -0.0890
 3819TIP3    H133092   0.549   0.127   7.387 -1.5944  0.0602  0.8537
 3819TIP3    H233093   0.565   0.116   7.537 -0.1672 -1.5008  0.6129
 3820TIP3   OH233094   2.987   5.826   6.989 -0.4206  0.2325 -0.0325
 3820TIP3    H133095   2.901   5.794   6.962 -0.1355 -0.0979 -0.5851
 3820TIP3    H233096   2.969   5.896   7.052 -1.1324  1.0513 -1.0985
 3821TIP3   OH233097   1.604   2.236   7.535  0.5096 -0.0159  0.0111
 3821TIP3    H133098   1.536   2.226   7.468 -1.4856  0.1652  1.9043
 3821TIP3    H233099   1.658   2.157   7.527 -0.5627 -0.6834 -0.8690
 3822TIP3   OH233100   4.218   2.091   8.701 -0.0719  0.3179  0.1399
 3822TIP3    H133101   4.282   2.093   8.630 -1.7824  0.3176 -1.4784
 3822TIP3    H233102   4.208   2.183   8.727 -1.4834  0.7019 -1.6030
 3823TIP3   OH233103   5.621   2.413   8.179  0.1980 -0.0726 -0.7459
 3823TIP3    H133104   5.620   2.318   8.182 -2.4409 -0.0921 -0.1930
 3823TIP3    H233105   5.547   2.440   8.233 -0.7321  2.1883 -2.9182
 3824TIP3   OH233106   2.141   3.666   1.554 -0.3847 -0.4257 -0.1328
 3824TIP3    H133107   2.204   3.729   1.518 -0.2357 -0.5077 -0.0128
 3824TIP3    H233108   2.178   3.640   1.638 -1.0277  0.2156  0.3607
 3825TIP3   OH233109   6.341   4.554   7.752 -0.1009 -0.2256  0.0665
 3825TIP3    H133110   6.287   4.489   7.797 -2.7330  1.0879 -1.0123
 3825TIP3    H233111   6.304   4.558   7.663 -1.4636  4.1309  0.6133
 3826TIP3   OH233112   2.572   1.944   8.454  0.3105 -0.0457 -0.1393
 3826TIP3    H133113   2.537   1.925   8.366  0.5894 -0.8615 -0.0819
 3826TIP3    H233114   2.503   1.996   8.496 -0.6512 -1.2120 -0.2011
 3827TIP3   OH233115   1.942   2.569   7.331  0.4853  0.2791 -0.0816
 3827TIP3    H133116   1.871   2.633   7.343  1.0403  0.6251  1.7958
 3827TIP3    H233117   1.900   2.494   7.290 -0.5785  1.1674 -0.6593
 3828TIP3   OH233118   1.638   4.701   0.920  0.4096  0.2519  0.3756
 3828TIP3    H133119   1.558   4.665   0.958 -0.1864  0.2943 -0.7803
 3828TIP3    H233120   1.656   4.780   0.971 -0.6495  0.5778  0.2719
 3829TIP3   OH233121   4.973   3.081   8.230  0.1646  0.6979  0.4188
 3829TIP3    H133122   4.904   3.019   8.205  0.7252  0.1684  0.1746
 3829TIP3    H233123   4.937   3.127   8.306 -0.0447 -0.2897  0.9365
 3830TIP3   OH233124   3.825   5.851   8.595  0.1614 -0.1081 -0.2915
 3830TIP3    H133125   3.731   5.869   8.599 -0.2677 -1.9494 -1.0482
 3830TIP3    H233126   3.838   5.776   8.653  0.8529 -0.8962 -1.4049
 3831TIP3   OH233127   5.636   0.929   2.505 -0.6225 -0.2381  0.3265
 3831TIP3    H133128   5.709   0.965   2.555 -0.9738 -0.9547  1.3892
 3831TIP3    H233129   5.571   1.000   2.505 -0.3566  0.0062  0.3235
 3832TIP3   OH233130   5.955   5.294   0.402  0.6469 -0.3030  0.2069
 3832TIP3    H133131   5.894   5.331   0.339  0.7651 -1.8371 -0.8619
 3832TIP3    H233132   6.037   5.284   0.353  1.0366 -0.5705  0.8976
 3833TIP3   OH233133   0.983   2.661   8.677  0.0265 -0.0418  0.4239
 3833TIP3    H133134   0.930   2.609   8.616 -1.6129  2.2925 -0.3003
 3833TIP3    H233135   1.017   2.733   8.623  1.0449  0.4312  1.6508
 3834TIP3   OH233136   3.523   2.629   1.104  0.2423 -0.2661  0.5877
 3834TIP3    H133137   3.488   2.664   1.022  0.5680 -1.6897 -0.1919
 3834TIP3    H233138   3.618   2.626   1.090  0.2598 -0.9960  0.8025
 3835TIP3   OH233139   2.413   6.650   1.550 -0.1014 -0.1345  0.2181
 3835TIP3    H133140   2.351   6.626   1.618  0.0968  1.4925  1.0087
 3835TIP3    H233141   2.481   6.582   1.554 -2.0766 -2.3453 -1.1211
 3836TIP3   OH233142   2.092   0.559   7.450  0.1550 -0.1765  0.6481
 3836TIP3    H133143   2.156   0.493   7.479 -0.6033 -0.7625  1.0134
 3836TIP3    H233144   2.037   0.513   7.387  1.8081  1.0959 -1.8840
 3837TIP3   OH233145   6.190   3.054   0.916 -0.5325 -0.1558  0.5284
 3837TIP3    H133146   6.215   2.988   0.851  2.9783 -0.4026  1.9497
 3837TIP3    H233147   6.214   3.137   0.876 -2.0459  0.0570  0.0014
 3838TIP3   OH233148   0.676   1.340   0.119  0.7415  0.1225  0.0549
 3838TIP3    H133149   0.759   1.312   0.157  0.4383 -0.9453 -0.0128
 3838TIP3    H233150   0.629   1.258   0.103  0.1587  0.6415 -0.9944
 3839TIP3   OH233151   3.005   5.452   8.574 -0.3699  0.7002 -0.1928
 3839TIP3    H133152   3.069   5.383   8.557 -1.4721 -0.0667 -1.4744
 3839TIP3    H233153   3.036   5.495   8.654 -0.1622 -1.9375  1.2619
 3840TIP3   OH233154   6.224   6.698   6.412 -0.1231  0.2108 -0.2295
 3840TIP3    H133155   6.259   6.609   6.405  0.6770  0.4314  0.7879
 3840TIP3    H233156   6.203   6.722   6.322 -0.6588 -1.1267 -0.4895
 3841TIP3   OH233157   3.135   4.953   6.943  0.4438  0.2375 -0.5458
 3841TIP3    H133158   3.178   4.909   6.870  2.0515  0.8932 -0.0372
 3841TIP3    H233159   3.193   5.027   6.964 -0.4991  0.6419  0.7416
 3842TIP3   OH233160   5.003   6.723   8.376  0.2499  0.3289 -0.6236
 3842TIP3    H133161   5.019   6.662   8.305 -0.3160 -0.0413 -0.4475
 3842TIP3    H233162   5.061   6.695   8.446 -0.8118 -0.7403 -0.1357
 3843TIP3   OH233163   2.232   1.392   8.268 -0.6369 -0.1959 -0.1884
 3843TIP3    H133164   2.310   1.337   8.271 -0.3799  0.1828  0.1849
 3843TIP3    H233165   2.209   1.406   8.360 -0.3896  0.7511 -0.2637
 3844TIP3   OH233166   5.035   5.507   7.648 -0.4108 -0.4878  0.3387
 3844TIP3    H133167   5.041   5.437   7.583  0.3311  1.2517 -1.5810
 3844TIP3    H233168   4.941   5.527   7.653 -0.5591 -1.1793  0.4616
 3845TIP3   OH233169   1.293   4.468   8.597 -0.0645 -0.0106 -0.2717
 3845TIP3    H133170   1.325   4.478   8.507  1.2869  0.3063  0.2278
 3845TIP3    H233171   1.340   4.393   8.631  0.4283  0.6753  0.5919
 3846TIP3   OH233172   1.936   0.266   7.726  0.2951  0.0757 -0.7522
 3846TIP3    H133173   1.947   0.262   7.821 -1.3114 -0.3636 -0.5409
 3846TIP3    H233174   1.930   0.174   7.699  1.8973  0.1530 -1.4647
 3847TIP3   OH233175   1.320   5.097   8.503 -0.3543  0.4432  0.1628
 3847TIP3    H133176   1.289   5.182   8.533 -0.2795  0.7860 -0.7063
 3847TIP3    H233177   1.327   5.044   8.583 -1.6109  0.8577  0.5630
 3848TIP3   OH233178   6.652   0.752   8.663 -0.4128  0.1937 -0.0704
 3848TIP3    H133179   6.658   0.664   8.699 -1.1969  0.1490 -0.0453
 3848TIP3    H233180   6.734   0.764   8.614  0.7563  0.3102  1.8215
 3849TIP3   OH233181   6.542   5.720   0.574 -0.3281  0.2435  0.3647
 3849TIP3    H133182   6.617   5.730   0.632 -0.6275 -1.3774  1.0785
 3849TIP3    H233183   6.466   5.733   0.630 -0.6289  2.0537 -0.3887
 3850TIP3   OH233184   3.145   3.285   6.305  0.0277 -0.4178 -0.1195
 3850TIP3    H133185   3.129   3.347   6.234  1.7910  0.1374 -0.0729
 3850TIP3    H233186   3.234   3.252   6.290  0.1163 -0.9523  1.3382
 3851TIP3   OH233187   3.334   3.877   8.620  0.1634 -0.1927 -0.0320
 3851TIP3    H133188   3.303   3.786   8.618  0.3946 -0.2841  0.3880
 3851TIP3    H233189   3.428   3.870   8.602  0.8734 -0.3767  3.1553
 3852TIP3   OH233190   2.381   6.666   7.082 -0.0949 -0.3706  0.0957
 3852TIP3    H133191   2.335   6.587   7.053 -1.1669  0.6895 -1.2131
 3852TIP3    H233192   2.470   6.654   7.049 -0.4348 -0.7085 -0.7426
 3853TIP3   OH233193   6.657   4.646   7.727 -0.5354  0.3718 -0.0033
 3853TIP3    H133194   6.614   4.731   7.735  1.3095  1.2249  2.0313
 3853TIP3    H233195   6.597   4.585   7.770 -1.0875  0.9481  0.0671
 3854TIP3   OH233196   4.997   1.884   1.719 -0.2009  0.3336 -0.3135
 3854TIP3    H133197   5.060   1.846   1.780 -0.4188  0.9714  0.3270
 3854TIP3    H233198   4.975   1.969   1.757 -2.6002 -0.4777  0.3052
 3855TIP3   OH233199   4.334   4.278   6.819  0.1458 -0.5763 -0.1746
 3855TIP3    H133200   4.274   4.215   6.859 -1.5039  0.2060 -1.2887
 3855TIP3    H233201   4.370   4.233   6.743  1.2076 -1.1423  0.6486
 3856TIP3   OH233202   0.961   0.457   0.394 -0.1449 -0.4478 -0.4018
 3856TIP3    H133203   0.898   0.486   0.327 -0.8296 -1.1245 -0.0743
 3856TIP3    H233204   1.045   0.492   0.365 -0.2642 -1.4431 -2.1100
 3857TIP3   OH233205   3.347   0.951   6.872  0.2428 -0.0325  0.5258
 3857TIP3    H133206   3.258   0.945   6.906  0.2899  0.3730  0.7288
 3857TIP3    H233207   3.337   0.990   6.785  0.1329 -0.9592  0.1178
 3858TIP3   OH233208   3.172   5.311   1.661  0.0385 -0.2514  0.5259
 3858TIP3    H133209   3.241   5.245   1.669 -1.6775 -2.2732 -0.3821
 3858TIP3    H233210   3.186   5.349   1.574 -1.6323 -2.8282 -1.0257
 3859TIP3   OH233211   4.592   6.491   0.421  0.4063  0.0296 -0.3378
 3859TIP3    H133212   4.620   6.416   0.472  1.2155 -0.6806 -1.7540
 3859TIP3    H233213   4.670   6.545   0.411 -0.0309  0.7840  0.1717
 3860TIP3   OH233214   0.513   2.180   2.136  0.6734 -0.6623  0.3066
 3860TIP3    H133215   0.468   2.108   2.092 -0.6882  1.0772 -1.3272
 3860TIP3    H233216   0.600   2.183   2.095  0.2229 -0.5111 -0.6801
 3861TIP3   OH233217   6.386   4.175   6.760  0.5295 -0.3853 -0.0718
 3861TIP3    H133218   6.326   4.227   6.706 -0.6079 -1.1390  0.4087
 3861TIP3    H233219   6.391   4.223   6.843 -2.3933 -2.0519  1.2676
 3862TIP3   OH233220   3.781   6.617   0.731  0.5334  0.0003 -0.1514
 3862TIP3    H133221   3.860   6.658   0.697  0.7605 -1.1128 -1.0368
 3862TIP3    H233222   3.713   6.638   0.667 -0.2242  1.9323  1.1809
 3863TIP3   OH233223   6.657   1.418   7.654 -0.0625 -0.5755 -0.1030
 3863TIP3    H133224   6.601   1.426   7.576  1.0435 -2.5575 -1.1708
 3863TIP3    H233225   6.696   1.505   7.664 -1.5527  0.2057 -0.6802
 3864TIP3   OH233226   1.788   3.215   0.423 -0.2473 -0.3206  0.5359
 3864TIP3    H133227   1.777   3.209   0.328 -1.2700 -0.4960  0.6604
 3864TIP3    H233228   1.770   3.307   0.443  0.4149 -0.1804  0.5123
 3865TIP3   OH233229   6.638   3.595   1.763 -0.8872 -0.3151 -0.7999
 3865TIP3    H133230   6.586   3.663   1.805  1.6969  1.1115  0.3602
 3865TIP3    H233231   6.716   3.587   1.818  0.5454 -1.6918 -2.8534
 3866TIP3   OH233232   4.107   4.105   6.534  0.3258  0.1796 -0.0068
 3866TIP3    H133233   4.184   4.061   6.570  0.6468  1.3096  0.7293
 3866TIP3    H233234   4.079   4.048   6.462  2.2077  0.0456 -0.6947
 3867TIP3   OH233235   1.347   0.535   7.681  0.1630  0.2758  0.0627
 3867TIP3    H133236   1.275   0.594   7.662 -0.7123 -1.0892 -1.0941
 3867TIP3    H233237   1.398   0.531   7.600 -0.2470 -1.1349 -0.1459
 3868TIP3   OH233238   2.170   4.337   6.473  0.0501  0.4980 -0.1849
 3868TIP3    H133239   2.185   4.413   6.529  1.6404 -0.1201  0.2796
 3868TIP3    H233240   2.210   4.361   6.390  0.4930  0.2064 -0.0585
 3869TIP3   OH233241   0.794   5.347   7.877 -0.2817 -0.0908 -0.2159
 3869TIP3    H133242   0.776   5.253   7.871 -0.8567  0.0933 -2.0364
 3869TIP3    H233243   0.710   5.388   7.857  0.1020  0.8241  0.0163
 3870TIP3   OH233244   6.331   3.160   2.067  0.1840  0.0577 -0.1746
 3870TIP3    H133245   6.330   3.091   2.001  2.0861 -1.6156  1.4343
 3870TIP3    H233246   6.335   3.241   2.016  0.4884 -1.1001 -2.0985
 3871TIP3   OH233247   2.734   2.176   2.040  0.1515 -0.4084 -0.8299
 3871TIP3    H133248   2.705   2.085   2.046 -2.5044  0.3508 -0.9682
 3871TIP3    H233249   2.735   2.206   2.130  0.5008 -0.4030 -0.8334
 3872TIP3   OH233250   1.728   6.645   8.176  0.0179 -0.1133 -0.3118
 3872TIP3    H133251   1.692   6.700   8.246 -1.0006 -0.1520 -0.7973
 3872TIP3    H233252   1.654   6.629   8.117  0.4821 -1.3619 -0.5867
 3873TIP3   OH233253   4.862   2.381   7.552  0.0271  0.3112  0.4483
 3873TIP3    H133254   4.816   2.454   7.510 -0.8689 -0.6326 -0.2576
 3873TIP3    H233255   4.952   2.412   7.563 -0.3157  1.4783  0.0766
 3874TIP3   OH233256   4.423   6.742   0.562 -0.9856 -0.3774  0.1311
 3874TIP3    H133257   4.460   6.787   0.637  0.7922  1.6144 -1.7820
 3874TIP3    H233258   4.456   6.652   0.569  0.6910  0.2470  0.7840
 3875TIP3   OH233259   3.493   6.803   6.660 -0.3308  0.4147 -0.8552
 3875TIP3    H133260   3.508   6.709   6.667 -0.2863  0.5546  1.9359
 3875TIP3    H233261   3.491   6.820   6.566 -1.3942 -2.5186 -1.4626
 3876TIP3   OH233262   4.640   4.972   1.693 -0.0903 -0.2477  0.0412
 3876TIP3    H133263   4.708   5.020   1.741 -1.3935  0.7882  0.9236
 3876TIP3    H233264   4.604   4.910   1.757 -1.9159  1.2186  0.5427
 3877TIP3   OH233265   0.072   5.103   6.961 -0.0783  0.6963  0.1561
 3877TIP3    H133266  -0.014   5.141   6.944  0.3658  0.7882 -2.2174
 3877TIP3    H233267   0.133   5.163   6.919  0.9210 -0.7434 -0.5340
 3878TIP3   OH233268   5.469   0.196   0.909  0.7156  0.0154  0.1406
 3878TIP3    H133269   5.439   0.286   0.911  0.3387 -0.1152  0.4423
 3878TIP3    H233270   5.422   0.153   0.981 -1.4621 -1.1695 -1.8860
 3879TIP3   OH233271   0.747   3.214   2.586 -0.2463 -0.0490 -0.1307
 3879TIP3    H133272   0.778   3.279   2.523  0.0398  1.2808  1.3312
 3879TIP3    H233273   0.663   3.248   2.616 -0.3029 -0.5794  0.3203
 3880TIP3   OH233274   3.990   2.617   6.598 -0.1648 -0.4014  0.1182
 3880TIP3    H133275   3.982   2.569   6.516 -1.3987 -3.3982  1.8339
 3880TIP3    H233276   4.070   2.584   6.638 -0.4155 -0.1608  0.8404
 3881TIP3   OH233277   2.830   6.731   8.178  0.2724  0.5112  0.0031
 3881TIP3    H133278   2.744   6.706   8.142 -0.1224 -0.6833  1.6882
 3881TIP3    H233279   2.886   6.656   8.162  0.5406  0.6149  0.4344
 3882TIP3   OH233280   3.769   5.621   1.082  0.0098 -0.0663 -0.3597
 3882TIP3    H133281   3.826   5.690   1.045  0.1698 -0.6219 -1.1832
 3882TIP3    H233282   3.680   5.651   1.062  0.1101 -0.8884 -2.2499
 3883TIP3   OH233283   1.670   1.661   1.780 -0.2194  0.5536 -0.1476
 3883TIP3    H133284   1.605   1.723   1.745 -1.1905 -0.0446  0.5603
 3883TIP3    H233285   1.714   1.710   1.850 -0.9631  0.4751  0.3898
 3884TIP3   OH233286   2.893   1.917   0.322  0.2192  0.1471  0.3905
 3884TIP3    H133287   2.944   1.952   0.249 -0.8201 -1.2586 -1.0713
 3884TIP3    H233288   2.958   1.881   0.381  1.0291  0.1559 -0.4676
 3885TIP3   OH233289   1.540   0.225   8.832 -0.5188 -0.0607  0.0894
 3885TIP3    H133290   1.482   0.148   8.824 -0.9897  0.3603 -0.6326
 3885TIP3    H233291   1.628   0.188   8.835 -0.7891 -0.6907  0.8066
 3886TIP3   OH233292   5.099   2.592   8.342  0.1452  0.2054 -0.7337
 3886TIP3    H133293   5.121   2.625   8.256  0.6650 -0.6599 -0.9418
 3886TIP3    H233294   5.075   2.670   8.393 -2.0150  0.5556 -2.1685
 3887TIP3   OH233295   2.462   6.324   7.135  0.0133 -0.7636  0.0942
 3887TIP3    H133296   2.414   6.323   7.218 -0.3928  0.1375 -0.1287
 3887TIP3    H233297   2.534   6.386   7.149  0.1591 -0.8830 -0.1119
 3888TIP3   OH233298   3.666   0.908   1.269 -0.5535 -0.1432 -0.2721
 3888TIP3    H133299   3.703   0.959   1.197  0.2582 -1.0033 -0.4735
 3888TIP3    H233300   3.629   0.975   1.328  0.8310  0.7342 -0.3386
 3889TIP3   OH233301   3.309   5.677   8.111 -0.1179  0.2218  0.2406
 3889TIP3    H133302   3.252   5.612   8.071 -0.5472  0.2543  0.7849
 3889TIP3    H233303   3.391   5.631   8.129  0.8338  0.6941 -2.4690
 3890TIP3   OH233304   1.116   6.326   6.876 -0.2841 -0.0912  0.2895
 3890TIP3    H133305   1.025   6.303   6.894 -0.5859 -1.4083 -2.3091
 3890TIP3    H233306   1.154   6.343   6.962 -2.4059 -1.7328  1.6840
 3891TIP3   OH233307   5.198   5.141   7.215 -0.1978 -0.1073  0.0297
 3891TIP3    H133308   5.163   5.192   7.142 -0.2954 -0.4872 -0.1931
 3891TIP3    H233309   5.270   5.193   7.249  1.0258 -0.7560 -1.4844
 3892TIP3   OH233310   5.241   0.217   1.606  0.0345 -0.1821  0.0499
 3892TIP3    H133311   5.320   0.181   1.566 -0.3879 -1.1836  0.1039
 3892TIP3    H233312   5.227   0.300   1.560  2.5125  1.2741  1.7231
 3893TIP3   OH233313   3.254   2.157   2.477 -0.2940 -0.1059  0.1717
 3893TIP3    H133314   3.282   2.065   2.472  0.3874  0.1557 -1.1609
 3893TIP3    H233315   3.171   2.154   2.525 -0.0930 -1.3747  0.4721
 3894TIP3   OH233316   5.513   5.795   8.813 -0.7313 -0.0776 -0.7847
 3894TIP3    H133317   5.602   5.766   8.793 -0.6538  0.6253 -1.5134
 3894TIP3    H233318   5.523   5.885   8.845 -1.1049 -0.2910 -0.0334
 3895TIP3   OH233319   5.801   1.292   0.738  0.4266  0.1521  0.4117
 3895TIP3    H133320   5.845   1.304   0.822  1.5871 -1.3675  0.0740
 3895TIP3    H233321   5.828   1.205   0.709  0.2415  0.7133 -1.6355
 3896TIP3   OH233322   2.613   3.329   0.422 -0.1575 -0.1158  0.5044
 3896TIP3    H133323   2.671   3.399   0.450 -1.3295  0.6369  1.1378
 3896TIP3    H233324   2.631   3.317   0.329 -0.3239  1.4134  0.2585
 3897TIP3   OH233325   3.224   2.898   6.310  0.3445 -0.0534 -0.4040
 3897TIP3    H133326   3.303   2.854   6.280 -0.4955 -3.2025  1.5469
 3897TIP3    H233327   3.154   2.860   6.258 -0.4371 -1.3890  1.4986
 3898TIP3   OH233328   0.412   3.586   6.406  0.1180  0.1352  0.7699
 3898TIP3    H133329   0.474   3.658   6.400  0.1031  0.0427 -2.1154
 3898TIP3    H233330   0.328   3.625   6.381 -0.2191 -0.5536  0.8056
 3899TIP3   OH233331   2.929   5.279   8.812  0.1378 -0.2329 -0.1089
 3899TIP3    H133332   2.917   5.229   8.731 -1.3485 -0.8759  0.4647
 3899TIP3    H233333   2.843   5.319   8.828  0.9551  1.5259  0.1110
 3900TIP3   OH233334   0.759   4.588   7.380  0.1826  0.1366 -0.1243
 3900TIP3    H133335   0.782   4.662   7.436 -3.4075  2.5919 -1.5029
 3900TIP3    H233336   0.841   4.561   7.340  2.2589  0.7746  3.2726
 3901TIP3   OH233337   3.586   5.183   7.765  0.2548 -0.5015  0.0421
 3901TIP3    H133338   3.576   5.271   7.802 -0.8911  0.1956 -1.7976
 3901TIP3    H233339   3.547   5.125   7.830  0.2761  0.4313  0.9070
 3902TIP3   OH233340   2.053   2.835   6.736 -0.1092 -0.1219  0.1815
 3902TIP3    H133341   2.004   2.790   6.666 -0.0319  0.1914 -0.0738
 3902TIP3    H233342   1.996   2.828   6.813  0.0083 -0.8751  0.2127
 3903TIP3   OH233343   2.950   0.367   8.649 -0.2983  0.2956 -0.5422
 3903TIP3    H133344   2.972   0.278   8.677 -2.9091  0.0187  0.9675
 3903TIP3    H233345   3.001   0.424   8.706  0.3587 -0.2392 -0.5874
 3904TIP3   OH233346   6.440   1.183   7.162 -0.3185 -0.7177  0.4659
 3904TIP3    H133347   6.382   1.256   7.140 -0.0122 -0.0943  1.6527
 3904TIP3    H233348   6.475   1.154   7.077 -1.0346  0.0068 -0.0905
 3905TIP3   OH233349   4.874   2.656   7.764  0.2998 -0.2677 -0.4381
 3905TIP3    H133350   4.890   2.749   7.748 -2.2125 -0.0974 -2.5177
 3905TIP3    H233351   4.939   2.611   7.710  1.1843  0.2372  0.1775
 3906TIP3   OH233352   1.908   2.757   6.955  0.2074 -0.2125  0.2065
 3906TIP3    H133353   1.817   2.771   6.982  0.3833 -0.1320  0.7819
 3906TIP3    H233354   1.908   2.671   6.914  0.0498 -0.6447  1.0794
 3907TIP3   OH233355   0.659   3.022   0.173 -0.4619  0.6050  0.1939
 3907TIP3    H133356   0.600   2.994   0.243  0.7539 -0.5758  0.8005
 3907TIP3    H233357   0.633   3.112   0.154 -2.4662  0.1096  0.3965
 3908TIP3   OH233358   5.733   0.461   1.419  0.3449 -0.8955  0.4117
 3908TIP3    H133359   5.672   0.441   1.490 -2.2752 -0.9056 -1.6917
 3908TIP3    H233360   5.693   0.422   1.342  0.5659  3.0707 -1.9548
 3909TIP3   OH233361   0.745   6.616   8.190  0.2121 -0.2079  0.0144
 3909TIP3    H133362   0.690   6.682   8.232  1.8869  0.6670  0.9210
 3909TIP3    H233363   0.786   6.569   8.263  2.8934  1.0932 -0.5350
 3910TIP3   OH233364   4.646   5.773   6.520 -0.1214  0.4415 -0.0498
 3910TIP3    H133365   4.670   5.688   6.483 -0.6063  0.3019 -0.0425
 3910TIP3    H233366   4.729   5.821   6.526 -0.0446  0.5001 -1.3830
 3911TIP3   OH233367   0.258   6.566   7.164  0.0254 -0.1483  0.7869
 3911TIP3    H133368   0.180   6.601   7.206  0.4386  0.0789  1.3939
 3911TIP3    H233369   0.226   6.500   7.103 -0.8522  1.7663 -0.9475
 3912TIP3   OH233370   4.227   0.153   2.455 -0.1995  0.2694 -0.1994
 3912TIP3    H133371   4.309   0.125   2.414 -0.6251  0.6207 -1.3154
 3912TIP3    H233372   4.230   0.249   2.451 -0.1060  0.3272  0.9037
 3913TIP3   OH233373   0.931   6.815   6.386  0.4093  0.2712  0.2657
 3913TIP3    H133374   0.924   6.858   6.300  0.2055  0.7513  0.5150
 3913TIP3    H233375   1.016   6.772   6.384  1.1701  1.6921  0.4366
 3914TIP3   OH233376   3.925   4.123   0.752 -0.1015  0.1886 -0.2934
 3914TIP3    H133377   3.990   4.055   0.764 -0.0685 -0.0354 -1.5309
 3914TIP3    H233378   3.955   4.172   0.675 -1.0157  0.5165 -0.4632
 3915TIP3   OH233379   3.247   2.104   7.111  0.5329 -0.3283 -0.2274
 3915TIP3    H133380   3.214   2.185   7.149  4.2146  1.8533 -1.1327
 3915TIP3    H233381   3.246   2.041   7.183 -0.0110  1.3023  1.2537
 3916TIP3   OH233382   4.740   1.064   0.967 -0.4519 -0.3902 -0.0261
 3916TIP3    H133383   4.796   1.129   1.010  2.1664 -1.8285 -1.0662
 3916TIP3    H233384   4.790   1.036   0.890 -2.0845 -2.6429 -0.3654
 3917TIP3   OH233385   0.018   5.404   1.651 -0.3123 -0.2015 -0.3650
 3917TIP3    H133386  -0.063   5.437   1.611 -0.5004  1.0731  0.9754
 3917TIP3    H233387  -0.004   5.317   1.683 -0.7264 -0.4338 -1.2447
 3918TIP3   OH233388   4.349   0.042   2.025  0.2411 -0.1869 -0.2042
 3918TIP3    H133389   4.424  -0.004   1.987 -0.4788 -0.5330 -1.2469
 3918TIP3    H233390   4.375   0.060   2.115  0.3188 -3.2149  0.4908
 3919TIP3   OH233391   0.191   6.614   8.838 -0.1198  0.2119 -0.0477
 3919TIP3    H133392   0.137   6.689   8.812  0.9085  1.9160  2.3779
 3919TIP3    H233393   0.129   6.549   8.870 -0.9607  0.3799 -1.2607
 3920TIP3   OH233394   3.632   5.155   1.998 -0.4359  0.7506  0.0634
 3920TIP3    H133395   3.550   5.137   1.952 -0.2991  2.8207 -1.0922
 3920TIP3    H233396   3.696   5.167   1.929  0.9735 -1.0460  0.9522
 3921TIP3   OH233397   2.120   0.271   0.361 -0.3608  0.7281 -0.0141
 3921TIP3    H133398   2.159   0.260   0.274 -2.8794 -0.9948 -1.0332
 3921TIP3    H233399   2.077   0.356   0.357 -1.4665  0.1523 -0.9259
 3922TIP3   OH233400   3.921   1.324   7.806  0.4985  0.2524 -0.1420
 3922TIP3    H133401   3.845   1.340   7.862 -0.7495 -0.2835 -1.5985
 3922TIP3    H233402   3.941   1.409   7.767  0.7303  0.4192  0.3357
 3923TIP3   OH233403   1.479   2.227   7.284 -0.0532  0.3640 -0.3857
 3923TIP3    H133404   1.521   2.313   7.275  3.9893 -1.4286 -0.7526
 3923TIP3    H233405   1.511   2.177   7.209 -1.1166 -1.9327  0.6085
 3924TIP3   OH233406   2.389   0.295   6.976 -0.3234  0.1344 -0.5468
 3924TIP3    H133407   2.411   0.279   6.884  0.4933  0.9742 -0.5153
 3924TIP3    H233408   2.315   0.237   6.993  0.3595 -1.0364 -1.3500
 3925TIP3   OH233409   2.780   6.403   6.547 -0.1231 -0.0756 -0.3414
 3925TIP3    H133410   2.841   6.341   6.508  0.8015  0.7684 -0.2790
 3925TIP3    H233411   2.769   6.471   6.481 -2.0912 -0.8830 -0.9074
 3926TIP3   OH233412   4.114   5.585   2.127  0.4510 -0.4039 -0.1260
 3926TIP3    H133413   4.035   5.633   2.104  1.0068  0.3834 -0.4404
 3926TIP3    H233414   4.097   5.552   2.215 -0.1975 -0.1852 -0.1628
 3927TIP3   OH233415   6.194   2.537   1.078 -0.8271 -0.6853 -0.0599
 3927TIP3    H133416   6.215   2.445   1.060  0.9381 -0.0502 -1.6515
 3927TIP3    H233417   6.170   2.573   0.993  0.0289  0.6643  0.2280
 3928TIP3   OH233418   3.131   6.464   1.503  0.2602 -0.3930  0.1509
 3928TIP3    H133419   3.150   6.370   1.496  0.9311 -0.3605  1.3371
 3928TIP3    H233420   3.048   6.474   1.457  0.0656 -1.6048  0.1870
 3929TIP3   OH233421   5.781   5.139   8.614 -0.2541 -0.2941 -0.0644
 3929TIP3    H133422   5.726   5.202   8.567 -0.0169  0.5486  0.7582
 3929TIP3    H233423   5.863   5.138   8.565  0.1764  0.9713  0.6114
 3930TIP3   OH233424   1.368   1.532   8.490  0.4356 -0.6630 -0.1747
 3930TIP3    H133425   1.420   1.504   8.414 -0.8034  3.6875 -3.0200
 3930TIP3    H233426   1.432   1.576   8.547  1.0217 -2.0490  0.2765
 3931TIP3   OH233427   6.777   2.425   7.343  0.5374 -0.1026  0.2942
 3931TIP3    H133428   6.848   2.472   7.386  0.1253  0.6132  0.2080
 3931TIP3    H233429   6.748   2.484   7.274  1.8204 -1.5992 -1.6502
 3932TIP3   OH233430   5.841   4.665   8.409 -0.3667 -0.8587  0.2081
 3932TIP3    H133431   5.870   4.722   8.338  1.3586 -1.5688  0.3028
 3932TIP3    H233432   5.904   4.681   8.480 -1.7298 -0.5641  1.3969
 3933TIP3   OH233433   6.785   1.361   7.251  0.1557  0.9012  0.7168
 3933TIP3    H133434   6.709   1.313   7.285 -0.0360  0.8927  0.2742
 3933TIP3    H233435   6.858   1.331   7.307  0.2459 -0.6839 -0.1763
 3934TIP3   OH233436   0.122   2.563   7.370 -0.3818 -0.6717  0.0356
 3934TIP3    H133437   0.208   2.561   7.411 -0.6174  0.6659  0.6335
 3934TIP3    H233438   0.101   2.656   7.362 -2.3193 -0.9603  1.0787
 3935TIP3   OH233439   5.027   2.035   1.953 -0.2038  0.5393 -0.0555
 3935TIP3    H133440   4.936   2.029   1.983  0.0197  1.8038  0.9993
 3935TIP3    H233441   5.069   2.091   2.018  1.1325  0.6630 -0.9940
 3936TIP3   OH233442   1.909   3.292   7.786 -0.3362  0.0178  0.2819
 3936TIP3    H133443   1.856   3.228   7.834  0.6568 -1.0393  0.0374
 3936TIP3    H233444   1.904   3.263   7.695  1.2599 -0.5804  0.3570
 3937TIP3   OH233445   0.479   5.613   0.496  0.2153 -0.1609 -0.3152
 3937TIP3    H133446   0.540   5.639   0.565 -0.0774  1.8699 -0.7565
 3937TIP3    H233447   0.394   5.646   0.525 -0.3412 -1.2496 -0.6314
 3938TIP3   OH233448   0.719   6.725   0.844  0.0497 -0.1904 -0.2908
 3938TIP3    H133449   0.813   6.742   0.848 -0.1462  1.2972 -1.3922
 3938TIP3    H233450   0.704   6.694   0.755 -0.6192  0.3493 -0.3732
 3939TIP3   OH233451   6.713   1.794   0.157 -0.8310 -1.0952 -0.6274
 3939TIP3    H133452   6.712   1.789   0.253 -0.8515  1.4653 -0.4349
 3939TIP3    H233453   6.651   1.726   0.129 -0.6318 -2.0601  1.1402
 3940TIP3   OH233454   0.918   5.869   0.788  0.3429  0.4195  0.0713
 3940TIP3    H133455   0.993   5.891   0.843 -1.0891  1.2368  1.8517
 3940TIP3    H233456   0.846   5.858   0.851 -0.6604 -2.2065 -1.3646
 3941TIP3   OH233457   3.264   2.249   7.738 -0.4589  0.0424 -0.0496
 3941TIP3    H133458   3.192   2.269   7.678 -1.1536 -1.2220  0.3366
 3941TIP3    H233459   3.237   2.288   7.821 -0.7668 -0.5589  0.1326
 3942TIP3   OH233460   0.019   1.188   8.388  0.1180 -0.3656 -0.5603
 3942TIP3    H133461   0.010   1.149   8.475 -0.0891 -0.0308 -0.4290
 3942TIP3    H233462  -0.043   1.141   8.334  0.4384 -0.7573 -0.5916
 3943TIP3   OH233463   2.494   1.817   8.226 -0.2178  0.4080  0.6377
 3943TIP3    H133464   2.418   1.761   8.241 -0.7406  1.0998  0.6012
 3943TIP3    H233465   2.562   1.782   8.284 -0.0270 -1.2371 -0.5106
 3944TIP3   OH233466   6.841   5.222   1.389 -0.5546  0.2447  0.5163
 3944TIP3    H133467   6.910   5.277   1.427 -0.3746 -0.5746  1.4344
 3944TIP3    H233468   6.790   5.192   1.465 -0.0956 -1.5608  0.1761
 3945TIP3   OH233469   1.313   1.657   1.492  0.5365  0.2822 -0.2317
 3945TIP3    H133470   1.275   1.700   1.568 -0.7442 -0.4615 -0.4325
 3945TIP3    H233471   1.370   1.723   1.453  1.4639  0.5809  1.5308
 3946TIP3   OH233472   2.559   2.986   8.576  0.3752 -0.0788  0.4191
 3946TIP3    H133473   2.568   3.079   8.554  0.2496 -0.5144 -1.7377
 3946TIP3    H233474   2.477   2.980   8.624 -0.3056  0.7599 -0.6049
 3947TIP3   OH233475   4.294   3.160   0.825 -0.3763  0.0528  0.5125
 3947TIP3    H133476   4.201   3.186   0.825  0.0981  1.9632 -0.8191
 3947TIP3    H233477   4.314   3.140   0.734  0.6717  0.2501  0.6873
 3948TIP3   OH233478   4.126   4.326   1.829 -0.1680  0.4532  0.1506
 3948TIP3    H133479   4.210   4.352   1.868 -0.1835 -0.8724  1.1660
 3948TIP3    H233480   4.076   4.291   1.903 -1.4958  0.9146 -0.5081
 3949TIP3   OH233481   2.662   5.413   1.268 -1.1461 -0.0709  0.5263
 3949TIP3    H133482   2.649   5.448   1.357  0.4984  2.6040 -0.1559
 3949TIP3    H233483   2.756   5.419   1.254 -1.3264 -0.9471 -1.2428
 3950TIP3   OH233484   0.039   3.553   0.222  0.3004  0.2883  0.4796
 3950TIP3    H133485   0.005   3.561   0.311  1.0289 -0.0608  0.7961
 3950TIP3    H233486   0.014   3.636   0.179 -0.1755  0.3971  0.9594
 3951TIP3   OH233487   5.134   1.129   2.250 -0.2352 -0.0926 -0.2344
 3951TIP3    H133488   5.137   1.193   2.179  1.1988 -0.5577 -0.6180
 3951TIP3    H233489   5.196   1.061   2.223 -1.7734 -1.6950  0.1272
 3952TIP3   OH233490   4.072   5.069   7.760  0.2492 -0.0439  0.1620
 3952TIP3    H133491   4.003   5.004   7.745 -1.3064  1.5369  0.2100
 3952TIP3    H233492   4.136   5.023   7.814 -0.4593 -1.7511 -0.3844
 3953TIP3   OH233493   3.520   0.400   0.331 -0.8233  0.1160  0.3143
 3953TIP3    H133494   3.580   0.346   0.280 -0.0175  0.1591  1.1962
 3953TIP3    H233495   3.472   0.451   0.266 -0.2278 -0.2510 -0.4209
 3954TIP3   OH233496   4.814   6.519   8.621  0.1468  0.0738  0.7156
 3954TIP3    H133497   4.784   6.458   8.689 -0.9239  1.0372  1.1281
 3954TIP3    H233498   4.833   6.463   8.546 -0.2909 -0.8328  1.2605
 3955TIP3   OH233499   3.280   2.169   0.221  0.0072  0.6863 -0.0927
 3955TIP3    H133500   3.246   2.100   0.278 -0.9613  2.2632  1.3498
 3955TIP3    H233501   3.277   2.131   0.133 -1.9259 -0.5853  0.4549
 3956TIP3   OH233502   0.236   3.126   7.521  0.3305 -0.4302  0.6880
 3956TIP3    H133503   0.141   3.115   7.508  0.2148  0.2813  0.8895
 3956TIP3    H233504   0.249   3.221   7.522  1.0153 -0.5225  0.9182
 3957TIP3   OH233505   0.675   3.580   8.290  0.2309 -0.0160  0.8235
 3957TIP3    H133506   0.685   3.599   8.383 -0.2311  0.9839  0.6806
 3957TIP3    H233507   0.756   3.536   8.265  0.2360 -0.5626  1.7587
 3958TIP3   OH233508   5.054   2.689   8.745 -0.1380  0.2663  0.5360
 3958TIP3    H133509   5.011   2.603   8.745 -0.4368  0.4134  1.0060
 3958TIP3    H233510   5.134   2.675   8.695 -0.5703 -0.0902 -0.0855
 3959TIP3   OH233511   5.250   1.958   6.403  0.5553 -0.2257 -0.0880
 3959TIP3    H133512   5.325   1.983   6.349 -0.3432  0.1211 -1.2288
 3959TIP3    H233513   5.245   1.863   6.395  0.5942 -0.2032 -0.3984
 3960TIP3   OH233514   2.985   2.720   6.496  0.2004 -0.5428  0.2789
 3960TIP3    H133515   3.000   2.700   6.403  0.3615 -1.2133  0.4413
 3960TIP3    H233516   3.066   2.693   6.539  1.0775  1.9070  0.3413
 3961TIP3   OH233517   5.302   0.753   8.215  0.2319  0.5569  0.8782
 3961TIP3    H133518   5.251   0.829   8.244 -0.3848  1.0297 -1.3314
 3961TIP3    H233519   5.238   0.683   8.205  0.4287  0.4131  0.6230
 3962TIP3   OH233520   3.536   5.657   8.477  0.5386  0.5593  0.0183
 3962TIP3    H133521   3.607   5.704   8.434  2.1678  0.4509  2.4031
 3962TIP3    H233522   3.459   5.712   8.464  1.6799  2.1651 -0.1411
 3963TIP3   OH233523   4.422   5.127   1.036  0.2292  0.0196 -0.0295
 3963TIP3    H133524   4.441   5.156   1.125 -0.3955 -0.8950  0.4143
 3963TIP3    H233525   4.332   5.156   1.021  0.9549  1.9062 -1.1116
 3964TIP3   OH233526   3.458   4.644   2.056  0.2034 -0.6785  0.4246
 3964TIP3    H133527   3.549   4.656   2.029  0.0355 -0.6524 -0.1477
 3964TIP3    H233528   3.414   4.723   2.026  0.1030 -0.4312  1.2157
 3965TIP3   OH233529   3.381   1.049   1.905  0.5201  0.3021  0.5601
 3965TIP3    H133530   3.361   1.126   1.853  0.0729 -1.0744 -1.4324
 3965TIP3    H233531   3.328   1.059   1.985  0.2460  1.8707  0.2095
 3966TIP3   OH233532   3.795   5.777   0.592 -0.3306  0.1877  0.0632
 3966TIP3    H133533   3.722   5.728   0.552 -0.8603  0.7352  0.3368
 3966TIP3    H233534   3.863   5.777   0.525 -0.8836  0.3531 -0.5169
 3967TIP3   OH233535   3.608   1.008   7.965 -0.7266 -0.6961  0.1155
 3967TIP3    H133536   3.545   1.073   7.935 -0.2092 -0.4777 -0.5221
 3967TIP3    H233537   3.563   0.962   8.037 -0.4188  1.5629  1.8400
 3968TIP3   OH233538   2.595   6.573   8.333  0.0670  0.0371 -0.8204
 3968TIP3    H133539   2.527   6.521   8.374  0.3176  0.3278 -0.0011
 3968TIP3    H233540   2.656   6.509   8.297 -0.2061 -0.2280 -0.8165
 3969TIP3   OH233541   0.123   5.108   8.627  0.1780  0.5000 -0.2949
 3969TIP3    H133542   0.202   5.056   8.639  0.3966  0.7886 -0.4800
 3969TIP3    H233543   0.109   5.150   8.712  0.6379  1.0201 -0.4679
 3970TIP3   OH233544   1.879   6.861   7.284  0.0599 -0.1160  0.2096
 3970TIP3    H133545   1.948   6.812   7.329  1.2974  1.2867 -0.0934
 3970TIP3    H233546   1.920   6.893   7.204 -1.2494 -0.0902 -0.4714
 3971TIP3   OH233547   4.810   0.680   0.625 -0.1107  0.4713  0.4990
 3971TIP3    H133548   4.856   0.613   0.676 -0.4773  0.7601  1.2234
 3971TIP3    H233549   4.729   0.696   0.674 -0.5331  0.6682 -0.2428
 3972TIP3   OH233550   2.618   5.317   1.866  0.4250  0.6038  0.0247
 3972TIP3    H133551   2.582   5.247   1.920  2.4174  0.4240  1.2196
 3972TIP3    H233552   2.644   5.273   1.785 -0.2855  0.3852 -0.0876
 3973TIP3   OH233553   2.355   4.180   1.812  0.2376 -0.0064 -0.3644
 3973TIP3    H133554   2.285   4.230   1.853 -0.2492 -0.0781 -1.1089
 3973TIP3    H233555   2.432   4.200   1.865 -0.4391 -0.3417  0.7866
 3974TIP3   OH233556   1.565   5.070   0.458 -0.1567  0.3330 -0.0287
 3974TIP3    H133557   1.512   5.043   0.534  0.7080 -2.7769 -0.3736
 3974TIP3    H233558   1.601   5.154   0.482 -1.6597  0.4477  2.0907
 3975TIP3   OH233559   2.505   5.584   8.040 -0.1341 -0.5009 -0.4311
 3975TIP3    H133560   2.543   5.503   8.006  0.0034 -1.1263  1.1145
 3975TIP3    H233561   2.560   5.654   8.006 -0.0713 -1.0734 -1.5374
 3976TIP3   OH233562   3.665   1.115   1.839 -0.3134  0.1311 -0.2915
 3976TIP3    H133563   3.615   1.131   1.919 -1.5096 -0.0775 -0.9713
 3976TIP3    H233564   3.734   1.181   1.840 -0.3607  0.1762  0.8706
 3977TIP3   OH233565   5.507   4.740   7.212  0.0838 -0.2628  0.1729
 3977TIP3    H133566   5.425   4.784   7.231  0.2983 -0.0411  0.6129
 3977TIP3    H233567   5.513   4.671   7.279  0.6031  0.1968  0.6159
 3978TIP3   OH233568   0.290   3.841   1.248 -0.0690 -0.1534  0.4244
 3978TIP3    H133569   0.215   3.892   1.276  0.6403  1.2630 -0.1281
 3978TIP3    H233570   0.257   3.751   1.238 -2.0403  0.6807 -1.2133
 3979TIP3   OH233571   3.804   0.961   2.113  0.2369 -0.1933 -0.1131
 3979TIP3    H133572   3.862   0.887   2.098  1.5686  0.8017 -0.0485
 3979TIP3    H233573   3.855   1.022   2.166 -0.4388  1.2333 -1.0304
 3980TIP3   OH233574   2.139   0.730   1.303  0.8926 -0.0485  0.3242
 3980TIP3    H133575   2.084   0.687   1.368  0.8435 -0.6895 -0.1384
 3980TIP3    H233576   2.229   0.713   1.332  0.8607  0.7356  0.9091
 3981TIP3   OH233577   4.415   4.847   7.435  0.1866 -0.2920 -0.3380
 3981TIP3    H133578   4.453   4.772   7.481  0.9694 -0.6163 -1.4717
 3981TIP3    H233579   4.418   4.918   7.500  0.1027 -1.0467  0.5116
 3982TIP3   OH233580   2.837   2.569   0.894 -0.3931  0.2079  0.1150
 3982TIP3    H133581   2.843   2.597   0.803 -0.5072 -1.4533 -0.4510
 3982TIP3    H233582   2.928   2.563   0.923 -0.3501  0.6094  0.0634
 3983TIP3   OH233583   3.754   5.684   8.304  0.0883  0.0847 -0.4181
 3983TIP3    H133584   3.781   5.700   8.213  3.4732 -2.4932 -0.0642
 3983TIP3    H233585   3.792   5.757   8.353 -1.1892  1.1345 -0.9384
 3984TIP3   OH233586   5.881   5.713   1.573  0.1512  0.3873  0.2357
 3984TIP3    H133587   5.911   5.727   1.483  0.7889 -1.8536  0.0419
 3984TIP3    H233588   5.961   5.695   1.622 -0.2368  1.2440  1.2074
 3985TIP3   OH233589   4.575   3.142   2.218  0.3303  0.0466  0.7996
 3985TIP3    H133590   4.657   3.188   2.238 -0.2502  0.9709  1.1608
 3985TIP3    H233591   4.509   3.212   2.216 -0.1960 -0.4492 -1.1449
 3986TIP3   OH233592   4.717   6.059   1.253 -0.0828  0.3014 -0.3764
 3986TIP3    H133593   4.631   6.038   1.291 -0.3288 -0.0985 -1.1347
 3986TIP3    H233594   4.729   5.994   1.183  0.2937  1.1039 -1.0770
 3987TIP3   OH233595   3.124   4.149   1.585 -0.6741 -0.4784  0.4967
 3987TIP3    H133596   3.084   4.072   1.544 -0.0136  0.4734 -2.1155
 3987TIP3    H233597   3.053   4.212   1.594 -0.5461 -0.1503 -0.6526
 3988TIP3   OH233598   1.588   5.358   1.510 -0.9472  0.4091  0.0620
 3988TIP3    H133599   1.617   5.347   1.420 -0.7108  0.6321  0.1090
 3988TIP3    H233600   1.583   5.453   1.522  1.7282  0.5157  1.1240
 3989TIP3   OH233601   1.980   2.113   0.705 -0.0475 -0.0041 -0.1563
 3989TIP3    H133602   2.053   2.103   0.644  0.8089 -1.4584  1.0481
 3989TIP3    H233603   1.908   2.145   0.650  0.7267 -1.1023 -1.9134
 3990TIP3   OH233604   0.163   4.476   0.929  0.4889  0.3980  0.0081
 3990TIP3    H133605   0.186   4.541   0.862 -0.8574 -0.0601 -0.9352
 3990TIP3    H233606   0.210   4.397   0.902 -0.1440  0.1809 -0.4808
 3991TIP3   OH233607   3.648   6.504   1.868  0.0258  0.0474 -0.0184
 3991TIP3    H133608   3.743   6.508   1.879  0.0389 -0.0700 -0.0832
 3991TIP3    H233609   3.615   6.478   1.954 -0.1830  2.8897  0.8654
 3992TIP3   OH233610   0.883   5.844   8.386 -0.1189 -0.6977 -0.1778
 3992TIP3    H133611   0.895   5.781   8.316  4.1210 -0.2284 -0.1046
 3992TIP3    H233612   0.864   5.927   8.341 -3.0153 -1.3376 -0.3623
 3993TIP3   OH233613   6.006   6.156   7.218  0.1259  0.4538  0.4872
 3993TIP3    H133614   6.078   6.180   7.160  0.0585 -0.9261 -0.2049
 3993TIP3    H233615   6.047   6.103   7.286 -0.2685 -0.6568 -0.1166
 3994TIP3   OH233616   1.311   6.795   8.431  0.4627  0.6995  0.2025
 3994TIP3    H133617   1.260   6.788   8.351 -0.9421  2.1108  0.9292
 3994TIP3    H233618   1.279   6.724   8.487 -0.3975  1.2815  0.4679
 3995TIP3   OH233619   5.218   1.682   8.045 -0.5172  0.2736 -0.0578
 3995TIP3    H133620   5.309   1.706   8.061 -0.9787  0.5639  2.3864
 3995TIP3    H233621   5.179   1.761   8.007 -0.0067  0.4955 -0.1293
 3996TIP3   OH233622   0.411   5.873   8.286  0.2545  1.1490  0.0464
 3996TIP3    H133623   0.367   5.957   8.297 -1.9852  0.6224 -3.2809
 3996TIP3    H233624   0.357   5.810   8.335 -1.2266  0.9468 -1.7303
 3997TIP3   OH233625   3.236   3.601   6.905 -0.6587 -0.7382  0.3250
 3997TIP3    H133626   3.225   3.518   6.859 -1.2824 -0.5569  0.1480
 3997TIP3    H233627   3.319   3.636   6.872 -0.3759 -1.2965  0.4209
 3998TIP3   OH233628   3.802   0.035   0.170  0.3386  0.5595  0.1643
 3998TIP3    H133629   3.854   0.036   0.250 -0.8139  0.6944  0.9303
 3998TIP3    H233630   3.730  -0.026   0.188 -2.3324  3.5886  0.8772
 3999TIP3   OH233631   5.715   1.318   0.300  0.0923  0.6148  0.2237
 3999TIP3    H133632   5.772   1.255   0.343 -2.3022 -0.6530  1.7348
 3999TIP3    H233633   5.713   1.393   0.359 -1.4973 -0.2590  1.3499
 4000TIP3   OH233634   0.068   5.690   7.332 -0.2696 -0.4379 -0.0054
 4000TIP3    H133635   0.161   5.714   7.343 -0.5875  0.1101  1.9051
 4000TIP3    H233636   0.071   5.602   7.295  1.0298 -0.6347  0.4878
 4001TIP3   OH233637   2.687   6.167   0.471  0.1670  0.1549  0.2502
 4001TIP3    H133638   2.608   6.111   0.471  0.5273 -0.5070 -2.9113
 4001TIP3    H233639   2.667   6.236   0.408  2.6058 -0.9200 -1.8582
 4002TIP3   OH233640   6.211   2.805   0.616 -0.1195  0.3538  0.5534
 4002TIP3    H133641   6.176   2.719   0.590 -0.7837  0.6913  0.3121
 4002TIP3    H233642   6.262   2.787   0.695  1.3703 -0.5928 -0.5612
 4003TIP3   OH233643   3.081   4.562   7.153 -0.2313 -0.3418  0.0624
 4003TIP3    H133644   3.029   4.542   7.075  0.0565 -2.0039  0.2604
 4003TIP3    H233645   3.036   4.516   7.224  0.6612 -0.5550  0.5022
 4004TIP3   OH233646   4.546   3.837   6.333 -0.4297 -0.3885  0.3263
 4004TIP3    H133647   4.474   3.781   6.363 -0.5513  0.1279  1.0319
 4004TIP3    H233648   4.511   3.885   6.259 -0.6994 -0.3805  0.4603
 4005TIP3   OH233649   6.199   0.980   8.800 -0.1257 -0.0099  0.1222
 4005TIP3    H133650   6.220   1.063   8.842  1.5798  2.4753 -4.8475
 4005TIP3    H233651   6.283   0.933   8.796 -0.9057 -1.7503  2.1007
 4006TIP3   OH233652   6.462   0.451   8.084  0.3083  0.1435  0.3468
 4006TIP3    H133653   6.373   0.447   8.120 -0.0274  1.4107 -0.2840
 4006TIP3    H233654   6.506   0.519   8.134  0.9809 -0.5549  0.7302
 4007TIP3   OH233655   2.355   5.425   0.258 -0.1283 -0.0112 -0.3728
 4007TIP3    H133656   2.353   5.371   0.179 -0.4388  0.6198 -0.8087
 4007TIP3    H233657   2.404   5.503   0.232  0.9151 -0.3675  0.4456
 4008TIP3   OH233658   5.826   6.538   1.629  0.3655 -0.6617  0.2299
 4008TIP3    H133659   5.893   6.477   1.660  0.9046 -0.0362  0.3302
 4008TIP3    H233660   5.749   6.519   1.682  1.0020 -0.2071  1.3435
 4009TIP3   OH233661   4.797   3.151   7.179  0.2625  0.3095  0.2784
 4009TIP3    H133662   4.747   3.082   7.222  2.2199 -1.1895  0.2761
 4009TIP3    H233663   4.852   3.105   7.116  2.0588  1.7830  0.6717
 4010TIP3   OH233664   0.990   6.138   7.724  0.1297 -0.1631  0.2220
 4010TIP3    H133665   0.974   6.069   7.788  0.8672 -1.2051 -0.6973
 4010TIP3    H233666   1.027   6.093   7.648  0.8210  1.2689 -0.3215
 4011TIP3   OH233667   3.669   0.292   7.575  0.2720  0.1223 -0.0059
 4011TIP3    H133668   3.659   0.217   7.516  4.3690 -0.4985 -0.2127
 4011TIP3    H233669   3.656   0.256   7.662  1.6607 -0.7736 -0.1387
 4012TIP3   OH233670   0.901   5.614   7.918  0.2095  0.6618 -0.2564
 4012TIP3    H133671   0.863   5.526   7.917  0.2566  0.6449 -0.5890
 4012TIP3    H233672   0.897   5.643   7.827  2.2240  0.1372 -0.5667
 4013TIP3   OH233673   3.834   3.045   1.426  0.3092  0.8880 -0.0133
 4013TIP3    H133674   3.794   2.961   1.403  0.0914  1.3431 -1.4398
 4013TIP3    H233675   3.802   3.065   1.514 -0.8894  0.2133 -0.2796
 4014TIP3   OH233676   3.881   5.066   0.191  0.3254  0.1173 -0.1834
 4014TIP3    H133677   3.875   5.020   0.107  1.0560 -0.6475  0.1614
 4014TIP3    H233678   3.830   5.013   0.252  1.2997 -0.3456  0.2528
 4015TIP3   OH233679   2.928   4.186   1.275  0.0938  0.1882  0.3525
 4015TIP3    H133680   2.958   4.096   1.259  0.0993  0.1913  0.3449
 4015TIP3    H233681   2.985   4.240   1.220 -0.5889  0.1114 -0.4483
 4016TIP3   OH233682   2.441   2.798   8.057  0.4970  0.5276  0.8350
 4016TIP3    H133683   2.460   2.823   8.147 -0.0985  0.8025  0.8876
 4016TIP3    H233684   2.453   2.878   8.006  3.9544 -0.2812  0.1511
 4017TIP3   OH233685   4.177   2.198   1.372 -0.5099 -0.0858 -0.6013
 4017TIP3    H133686   4.235   2.248   1.314  0.5340  0.1131  0.5547
 4017TIP3    H233687   4.133   2.135   1.315  0.1117  0.4249 -1.6720
 4018TIP3   OH233688   5.777   4.834   7.214  0.2146  0.5207  0.3326
 4018TIP3    H133689   5.687   4.815   7.186  0.0308 -0.3924  1.4386
 4018TIP3    H233690   5.767   4.899   7.283  0.0899 -1.6952  2.5323
 4019TIP3   OH233691   4.494   2.509   1.012 -0.0732  0.1065  0.7886
 4019TIP3    H133692   4.403   2.489   0.987 -0.6640  1.0893  2.0332
 4019TIP3    H233693   4.507   2.462   1.094  0.4518  0.2084  0.7665
 4020TIP3   OH233694   3.474   4.462   8.243  0.2837  0.2878 -0.3135
 4020TIP3    H133695   3.435   4.545   8.215 -0.8062 -0.3064 -0.5804
 4020TIP3    H233696   3.481   4.410   8.163  1.0910  0.1624 -0.1705
 4021TIP3   OH233697   0.434   1.580   1.073  0.3311  0.0660  0.4522
 4021TIP3    H133698   0.501   1.538   1.126  1.8800  3.0456  1.0693
 4021TIP3    H233699   0.366   1.513   1.063  2.3455 -2.3437  1.6916
 4022TIP3   OH233700   1.338   6.283   8.679 -0.2990 -0.2012 -0.6050
 4022TIP3    H133701   1.275   6.211   8.678  0.6226 -1.0216 -0.5794
 4022TIP3    H233702   1.424   6.241   8.674  0.4233  0.7110  2.2470
 4023TIP3   OH233703   5.021   4.593   7.694  0.5193  0.4567  0.0080
 4023TIP3    H133704   5.014   4.500   7.672  0.2711  0.7616 -1.2570
 4023TIP3    H233705   5.096   4.624   7.644 -0.2499  1.2428 -0.6816
 4024TIP3   OH233706   1.417   4.130   1.101 -0.0072  0.2906  0.0299
 4024TIP3    H133707   1.333   4.084   1.113  0.0925 -0.3200 -1.4482
 4024TIP3    H233708   1.481   4.072   1.142 -0.1400  0.1488  0.0402
 4025TIP3   OH233709   4.514   3.658   8.409  0.0817  0.4532 -0.6272
 4025TIP3    H133710   4.453   3.612   8.351  0.0843  2.0324 -1.9674
 4025TIP3    H233711   4.601   3.638   8.373  0.2618 -0.5714  0.3583
 4026TIP3   OH233712   2.310   5.637   8.608 -0.1248  0.0972  0.1851
 4026TIP3    H133713   2.257   5.561   8.584  0.0142 -0.6444  2.0720
 4026TIP3    H233714   2.320   5.686   8.526  1.2723 -2.7760 -1.5228
 4027TIP3   OH233715   1.699   5.552   7.045  0.0755  0.1763  0.1073
 4027TIP3    H133716   1.620   5.599   7.070  0.2288  0.1223  0.6917
 4027TIP3    H233717   1.729   5.596   6.965 -1.3474 -0.7184 -0.9685
 4028TIP3   OH233718   4.962   0.623   1.522 -0.5148 -0.6322 -0.0657
 4028TIP3    H133719   4.968   0.578   1.437 -1.4948 -4.0487  1.5097
 4028TIP3    H233720   4.880   0.592   1.560 -0.2615  1.0418  2.0364
 4029TIP3   OH233721   1.961   1.112   7.701 -0.4932 -0.5695  0.4567
 4029TIP3    H133722   2.046   1.156   7.697 -0.2129 -0.9575  1.6183
 4029TIP3    H233723   1.908   1.155   7.633  0.7053 -0.5069 -0.4629
 4030TIP3   OH233724   0.823   0.073   0.480 -0.0220 -0.4469  0.3627
 4030TIP3    H133725   0.903   0.093   0.430 -0.1968  0.7283  0.5285
 4030TIP3    H233726   0.781   0.002   0.431 -0.6289  1.2159 -1.6732
 4031TIP3   OH233727   5.462   0.634   1.225  0.3967 -0.2850  0.0640
 4031TIP3    H133728   5.463   0.583   1.306  1.1269  0.8173  0.7819
 4031TIP3    H233729   5.543   0.685   1.228 -0.3149  0.9413 -0.5987
 4032TIP3   OH233730   0.425   6.092   7.002  0.2170  0.4897 -0.1571
 4032TIP3    H133731   0.482   6.167   6.987  1.1959  0.1812  1.6789
 4032TIP3    H233732   0.376   6.115   7.082  0.6257 -0.8407  0.5088
 4033TIP3   OH233733   0.442   0.486   8.246  0.0273 -0.1937 -0.1642
 4033TIP3    H133734   0.377   0.551   8.218 -0.2089 -0.3463  0.0243
 4033TIP3    H233735   0.392   0.425   8.299  0.2085 -0.6488 -0.5149
 4034TIP3   OH233736   5.957   4.738   1.183  0.0103 -1.0469 -0.0249
 4034TIP3    H133737   6.005   4.820   1.168 -1.4465  0.1589  1.4838
 4034TIP3    H233738   6.013   4.687   1.241 -0.2633  0.1323  1.3270
 4035TIP3   OH233739   0.401   2.506   7.388  0.1085 -0.4894 -0.0739
 4035TIP3    H133740   0.408   2.491   7.294 -1.7037  1.8921 -0.7003
 4035TIP3    H233741   0.436   2.594   7.401 -0.4017 -0.4573  1.3439
 4036TIP3   OH233742   0.029   1.200   7.029  0.1387  0.0051 -0.5873
 4036TIP3    H133743  -0.019   1.118   7.039 -2.1489  1.0241 -2.2294
 4036TIP3    H233744  -0.021   1.263   7.081 -0.9065  1.2744 -3.0008
 4037TIP3   OH233745   5.385   6.017   2.053  0.0527  0.9243 -0.4060
 4037TIP3    H133746   5.335   5.945   2.093 -0.8388  0.5845 -2.0339
 4037TIP3    H233747   5.380   6.088   2.117 -0.2751  0.0174  0.6100
 4038TIP3   OH233748   2.517   6.059   1.162  0.5264 -0.5316  0.3541
 4038TIP3    H133749   2.598   6.109   1.149 -0.3103  0.3385 -2.1688
 4038TIP3    H233750   2.519   6.035   1.255  2.0031  2.4141  1.2337
 4039TIP3   OH233751   6.197   4.162   7.716  0.2541  0.1764  0.0029
 4039TIP3    H133752   6.144   4.095   7.673  0.9911 -0.7261  0.4634
 4039TIP3    H233753   6.254   4.113   7.774  0.7935  1.2207  0.3719
 4040TIP3   OH233754   1.401   0.062   6.606  1.1240  0.6335  0.4140
 4040TIP3    H133755   1.354   0.032   6.527  0.1521  0.2345  1.1250
 4040TIP3    H233756   1.343   0.129   6.643  0.6843 -0.4780  1.7819
 4041TIP3   OH233757   2.954   5.863   7.869  0.0373 -0.0437 -0.5224
 4041TIP3    H133758   3.022   5.817   7.918 -0.0238  0.8656  0.4404
 4041TIP3    H233759   2.990   5.872   7.781  1.2781  0.5975  0.0217
 4042TIP3   OH233760   0.315   1.711   7.727 -0.0997  0.2572  0.2677
 4042TIP3    H133761   0.377   1.649   7.766 -0.3268 -0.2763 -0.2137
 4042TIP3    H233762   0.273   1.663   7.656 -0.5101  0.8625  0.0868
 4043TIP3   OH233763   1.588   3.101   8.417 -0.0200  0.1819  0.5712
 4043TIP3    H133764   1.548   3.147   8.491  1.0586  0.1176  1.2306
 4043TIP3    H233765   1.667   3.061   8.454  0.8706  0.6423 -0.7469
 4044TIP3   OH233766   3.367   0.208   7.051 -0.3294 -0.0495 -0.1700
 4044TIP3    H133767   3.406   0.286   7.013 -0.0448 -0.0053  0.2144
 4044TIP3    H233768   3.389   0.212   7.144  0.1554 -0.8679 -0.2392
 4045TIP3   OH233769   6.596   5.753   7.553 -0.1704 -0.0065 -0.7929
 4045TIP3    H133770   6.681   5.775   7.593 -0.4018 -2.5233  1.3553
 4045TIP3    H233771   6.556   5.691   7.615 -2.2616 -1.2368 -3.2090
 4046TIP3   OH233772   0.903   3.220   1.272 -0.4189 -0.1451 -0.4042
 4046TIP3    H133773   0.891   3.315   1.274  0.7812  0.0124  1.2187
 4046TIP3    H233774   0.844   3.186   1.339 -0.6127 -0.5210 -0.7571
 4047TIP3   OH233775   1.628   0.156   6.195  0.2261  0.1823 -0.3974
 4047TIP3    H133776   1.553   0.096   6.204 -0.4791  1.2731  1.6914
 4047TIP3    H233777   1.597   0.224   6.135 -0.8071  1.0510  1.0603
 4048TIP3   OH233778   5.834   0.792   0.266 -0.3002 -0.1781  0.3316
 4048TIP3    H133779   5.927   0.813   0.256 -0.4332  0.6595  0.7178
 4048TIP3    H233780   5.812   0.739   0.190 -0.2969  2.4363 -1.6481
 4049TIP3   OH233781   1.481   0.722   2.340 -0.6532 -0.3035 -0.1958
 4049TIP3    H133782   1.386   0.737   2.337 -0.7150 -0.8146 -2.3787
 4049TIP3    H233783   1.493   0.639   2.293  0.9814  0.3977 -1.0780
 4050TIP3   OH233784   4.881   1.909   8.358  0.1133  0.0014 -0.2718
 4050TIP3    H133785   4.798   1.919   8.406  1.2539  0.8799  1.6579
 4050TIP3    H233786   4.900   1.998   8.326  0.1159 -0.2809 -1.0664
 4051TIP3   OH233787   5.064   4.128   1.859 -0.2072  0.2712  0.1918
 4051TIP3    H133788   5.133   4.183   1.823 -0.0411 -0.7575 -1.1362
 4051TIP3    H233789   4.983   4.173   1.837 -0.1281 -0.4710 -1.8079
 4052TIP3   OH233790   3.468   2.158   1.229 -0.4456  0.3709 -0.6413
 4052TIP3    H133791   3.474   2.203   1.313  0.4700  0.2371 -0.6232
 4052TIP3    H233792   3.384   2.186   1.192  0.4869  2.8866 -1.0727
 4053TIP3   OH233793   0.659   3.375   6.288 -0.7500  0.7261 -0.2208
 4053TIP3    H133794   0.570   3.342   6.290 -0.6033  0.3200  1.1761
 4053TIP3    H233795   0.650   3.467   6.263 -1.6761  0.9640  0.9117
 4054TIP3   OH233796   6.580   1.963   1.457 -0.2392  0.2547 -0.3937
 4054TIP3    H133797   6.534   1.932   1.379 -0.0378 -2.4411  0.4621
 4054TIP3    H233798   6.523   1.937   1.530 -0.9515  3.6596  0.4322
 4055TIP3   OH233799   2.618   1.516   6.425  0.3600 -0.3338 -0.1823
 4055TIP3    H133800   2.568   1.596   6.441 -0.1982 -0.5446 -0.8268
 4055TIP3    H233801   2.673   1.506   6.502 -1.3825 -0.6942  1.0709
 4056TIP3   OH233802   6.409   5.502   0.494  0.2611 -0.0104 -0.0461
 4056TIP3    H133803   6.442   5.591   0.506  0.2360  0.1069 -0.7603
 4056TIP3    H233804   6.325   5.500   0.540 -0.1744  0.6240 -0.7790
 4057TIP3   OH233805   2.371   2.909   0.364 -0.6584  0.5191  0.8357
 4057TIP3    H133806   2.319   2.981   0.327  1.6392  0.9341 -1.8998
 4057TIP3    H233807   2.388   2.936   0.454 -0.3233  3.1836  0.0719
 4058TIP3   OH233808   2.394   2.494   8.587  0.2800 -0.0781 -0.0760
 4058TIP3    H133809   2.428   2.435   8.520 -0.8880  0.9570 -1.6677
 4058TIP3    H233810   2.322   2.445   8.628 -0.2810 -0.0244 -0.9595
 4059TIP3   OH233811   4.882   4.914   0.104 -0.3545  0.7160  0.2933
 4059TIP3    H133812   4.888   5.007   0.124  1.6727  0.3076  1.8691
 4059TIP3    H233813   4.918   4.906   0.016 -0.2774  1.3965  0.2557
 4060TIP3   OH233814   3.794   3.318   7.571  0.1698 -0.3387  0.1229
 4060TIP3    H133815   3.842   3.243   7.535  1.0716 -0.2677  1.1393
 4060TIP3    H233816   3.722   3.279   7.621 -0.3404 -0.4661 -0.6855
 4061TIP3   OH233817   0.252   1.723   1.315 -0.2586 -0.3167  0.1318
 4061TIP3    H133818   0.315   1.728   1.387  0.5672  1.5686 -0.6757
 4061TIP3    H233819   0.172   1.761   1.351 -0.9933 -2.5373  1.0943
 4062TIP3   OH233820   2.494   6.432   1.335 -0.3715 -0.0068 -0.1898
 4062TIP3    H133821   2.426   6.388   1.387  0.8993 -1.5069  0.2922
 4062TIP3    H233822   2.464   6.424   1.245 -0.2964 -1.7367 -0.0995
 4063TIP3   OH233823   2.775   0.091   6.136 -0.3432  0.5643 -0.2934
 4063TIP3    H133824   2.860   0.051   6.151 -0.5271  0.5207  0.7165
 4063TIP3    H233825   2.723   0.022   6.094  0.5050  1.0211 -2.1820
 4064TIP3   OH233826   3.938   2.178   0.570 -0.1958  0.5266 -0.2104
 4064TIP3    H133827   3.874   2.156   0.638  0.1750 -0.3083 -0.1180
 4064TIP3    H233828   3.979   2.095   0.548  1.3748  1.1534  0.2557
 4065TIP3   OH233829   4.559   1.751   0.739 -0.6244  0.5272  0.3217
 4065TIP3    H133830   4.507   1.771   0.661  0.2313 -0.1197 -0.4237
 4065TIP3    H233831   4.630   1.815   0.737 -0.7643  0.7005  0.7446
 4066TIP3   OH233832   1.970   3.153   7.103  0.6220  0.1548  0.4275
 4066TIP3    H133833   2.052   3.118   7.067  0.2173 -0.8106  0.4137
 4066TIP3    H233834   1.996   3.196   7.184  1.2274  0.3958  0.1148
 4067TIP3   OH233835   3.776   4.955   7.739 -0.0323  0.5153  0.0056
 4067TIP3    H133836   3.706   4.889   7.742 -0.5635  1.0895  0.9987
 4067TIP3    H233837   3.730   5.037   7.716  0.5642  0.6151 -0.8719
 4068TIP3   OH233838   6.512   3.544   7.118  0.4409 -0.3730  0.0709
 4068TIP3    H133839   6.497   3.453   7.091 -0.7259 -0.2777  0.3200
 4068TIP3    H233840   6.538   3.589   7.038 -1.7884 -0.3452 -0.7287
 4069TIP3   OH233841   2.501   0.388   0.641  0.6202 -0.2262 -0.3548
 4069TIP3    H133842   2.450   0.435   0.576  0.9564  0.9062  0.1818
 4069TIP3    H233843   2.435   0.349   0.699  0.3426 -0.5040 -0.8463
 4070TIP3   OH233844   1.299   5.556   8.293 -0.0471 -0.2003  1.0112
 4070TIP3    H133845   1.348   5.638   8.303 -1.3149  0.5656  1.0779
 4070TIP3    H233846   1.316   5.529   8.203  0.3842  0.1108  0.9928
 4071TIP3   OH233847   6.064   1.639   7.044 -0.2110 -0.0813 -0.7610
 4071TIP3    H133848   6.070   1.679   6.957 -0.8210  0.5787 -0.5077
 4071TIP3    H233849   6.061   1.545   7.027 -1.7392  0.0820 -1.5510
 4072TIP3   OH233850   5.497   6.420   7.176 -0.0237 -0.2200 -0.3808
 4072TIP3    H133851   5.563   6.351   7.167 -0.5074 -0.6512 -0.6693
 4072TIP3    H233852   5.454   6.402   7.260  0.2326  0.0731 -0.1827
 4073TIP3   OH233853   3.641   3.060   7.480  0.0318 -0.0432  0.0141
 4073TIP3    H133854   3.552   3.067   7.515 -0.9456 -0.1257 -2.2427
 4073TIP3    H233855   3.647   3.131   7.416  1.7289  0.1459  0.3385
 4074TIP3   OH233856   3.859   5.366   7.529  0.0972  0.3894 -0.0776
 4074TIP3    H133857   3.833   5.435   7.468  0.3757 -0.0004 -0.6448
 4074TIP3    H233858   3.917   5.409   7.591  2.3695  0.1858 -1.9086
 4075TIP3   OH233859   3.442   5.459   6.544  0.2431 -0.1514 -0.5555
 4075TIP3    H133860   3.347   5.454   6.547  0.1282  1.8174  0.5546
 4075TIP3    H233861   3.472   5.397   6.611 -0.2468 -0.5768 -0.7242
 4076TIP3   OH233862   1.765   6.380   8.121 -0.3680 -0.4203 -0.1448
 4076TIP3    H133863   1.767   6.470   8.151 -1.0513 -0.1800 -0.7952
 4076TIP3    H233864   1.737   6.329   8.197 -2.0838  0.1749 -0.3507
 4077TIP3   OH233865   4.023   5.258   0.313 -0.2300 -0.1962 -0.1399
 4077TIP3    H133866   4.034   5.318   0.239  0.5986 -1.0003 -0.6836
 4077TIP3    H233867   3.958   5.194   0.283 -0.5392 -0.0233  0.1548
 4078TIP3   OH233868   0.649   1.013   5.987 -0.4120 -0.3002  0.5563
 4078TIP3    H133869   0.634   1.089   6.043 -0.4791 -0.5326  0.8595
 4078TIP3    H233870   0.620   1.040   5.900  1.7731  0.8545  0.1049
 4079TIP3   OH233871   0.794   6.780   0.244 -0.4921  0.1917 -0.4700
 4079TIP3    H133872   0.813   6.855   0.188 -0.4879  0.3115 -0.3089
 4079TIP3    H233873   0.879   6.746   0.270 -0.4945  0.6065  0.0902
 4080TIP3   OH233874   3.887   4.926   1.100 -0.0956  0.0099  0.4438
 4080TIP3    H133875   3.945   4.921   1.177  0.6485  0.3836 -0.0758
 4080TIP3    H233876   3.938   4.974   1.036  0.1001 -1.9946 -0.9950
 4081TIP3   OH233877   1.044   3.246   0.715 -0.2965  0.0196  0.5306
 4081TIP3    H133878   0.967   3.205   0.754 -1.4019  0.4790 -1.0551
 4081TIP3    H233879   1.119   3.205   0.759 -1.4305 -0.2834  2.2650
 4082TIP3   OH233880   1.640   1.571   8.633  0.3123 -0.5743 -0.9237
 4082TIP3    H133881   1.731   1.576   8.605  0.6935  0.1543  0.3717
 4082TIP3    H233882   1.640   1.505   8.702  0.1485  0.4184  0.0606
 4083TIP3   OH233883   3.481   2.688   7.788  0.3532 -0.1053 -0.0727
 4083TIP3    H133884   3.523   2.602   7.777 -0.9475 -0.5572 -1.9974
 4083TIP3    H233885   3.545   2.750   7.752  0.6036 -0.4377 -0.2085
 4084TIP3   OH233886   5.633   4.955   1.137 -0.2252  0.1096 -0.0673
 4084TIP3    H133887   5.619   4.915   1.223  2.1411 -1.1994 -0.2022
 4084TIP3    H233888   5.620   4.884   1.075 -0.2192  0.6216 -0.6647
 4085TIP3   OH233889   6.196   1.996   1.616 -0.7099 -0.3223 -0.0480
 4085TIP3    H133890   6.137   2.025   1.686 -1.0919 -0.4296 -0.3225
 4085TIP3    H233891   6.191   1.901   1.617 -0.8603 -0.3208 -0.3387
 4086TIP3   OH233892   2.610   1.335   1.856 -0.0584  0.2186 -0.4609
 4086TIP3    H133893   2.601   1.251   1.900  2.1488  0.0920 -0.1164
 4086TIP3    H233894   2.591   1.400   1.923  0.7239 -0.0040 -0.0110
 4087TIP3   OH233895   4.728   1.575   1.350  0.7077 -0.3074 -0.1167
 4087TIP3    H133896   4.656   1.636   1.330  1.0290 -0.5421 -2.1914
 4087TIP3    H233897   4.772   1.614   1.425 -2.0205 -0.5406  1.7335
 4088TIP3   OH233898   6.324   4.553   8.677 -0.0338 -0.2976 -0.0321
 4088TIP3    H133899   6.348   4.551   8.584 -0.2998 -1.8779 -0.0832
 4088TIP3    H233900   6.396   4.601   8.719  0.4012 -0.1239 -0.9543
 4089TIP3   OH233901   5.123   0.531   2.332  0.3116  0.1803  0.2787
 4089TIP3    H133902   5.060   0.559   2.399 -0.2365 -0.7137  0.1604
 4089TIP3    H233903   5.071   0.475   2.273  1.2265 -0.6033  0.2007
 4090TIP3   OH233904   4.195   3.846   0.412  0.4518  0.4618  0.0346
 4090TIP3    H133905   4.207   3.940   0.411  0.2260  0.4988  0.3795
 4090TIP3    H233906   4.256   3.814   0.478  1.1692  0.2642 -0.7130
 4091TIP3   OH233907   6.830   5.484   8.226 -0.3474  0.4417 -1.1428
 4091TIP3    H133908   6.824   5.419   8.295 -1.9584 -0.2471 -1.8750
 4091TIP3    H233909   6.782   5.560   8.260 -0.1671  0.5253 -1.0719
 4092TIP3   OH233910   1.154   6.835   7.746 -0.3141  0.2396  0.0222
 4092TIP3    H133911   1.247   6.847   7.730  0.1914 -0.8148  1.8691
 4092TIP3    H233912   1.138   6.743   7.726 -0.2039 -0.4456  2.6428
 4093TIP3   OH233913   4.895   0.251   0.120 -0.2876 -0.0115  0.0604
 4093TIP3    H133914   4.988   0.235   0.105 -0.2784 -1.6174  1.4581
 4093TIP3    H233915   4.850   0.189   0.063 -0.4650 -0.0745  0.2662
 4094TIP3   OH233916   1.722   1.534   7.979 -0.0432  0.1887  0.3907
 4094TIP3    H133917   1.786   1.476   8.019  1.0369 -0.0423 -1.5557
 4094TIP3    H233918   1.765   1.566   7.900 -1.2487  2.3478  0.5486
 4095TIP3   OH233919   4.435   3.898   7.560  0.1194  0.4114  0.0213
 4095TIP3    H133920   4.439   3.970   7.622  0.4257  2.0426 -1.7904
 4095TIP3    H233921   4.496   3.832   7.595 -2.8897 -0.7944  3.7190
 4096TIP3   OH233922   2.788   2.392   8.592  0.3935 -0.2261 -0.4757
 4096TIP3    H133923   2.736   2.406   8.513 -0.4126  0.1900  0.1132
 4096TIP3    H233924   2.743   2.323   8.639  1.8616 -1.7383 -1.1994
 4097TIP3   OH233925   2.277   0.296   0.119  0.2515  0.1002 -0.3423
 4097TIP3    H133926   2.286   0.253   0.034 -0.0201 -0.5363 -0.0628
 4097TIP3    H233927   2.272   0.389   0.099  0.9021  0.0113 -0.9656
 4098TIP3   OH233928   1.358   6.121   7.772 -0.6913  0.3919  0.1891
 4098TIP3    H133929   1.326   6.035   7.746 -0.9856  0.9696 -1.4193
 4098TIP3    H233930   1.453   6.115   7.761 -0.7016  0.2530  0.1682
 4099TIP3   OH233931   5.932   3.727   1.176 -0.6061  0.4750 -0.6670
 4099TIP3    H133932   5.997   3.711   1.108 -1.9380 -2.2464 -1.4118
 4099TIP3    H233933   5.963   3.677   1.251 -1.5435 -0.4036 -0.8549
 4100TIP3   OH233934   0.381   4.751   1.345 -0.4305 -0.0302  1.2279
 4100TIP3    H133935   0.397   4.664   1.381  0.5105  0.1853  1.3549
 4100TIP3    H233936   0.327   4.736   1.267 -2.1978 -0.5378  2.4877
 4101TIP3   OH233937   5.969   2.286   1.004 -0.1843 -0.2918  0.6233
 4101TIP3    H133938   5.967   2.276   1.099 -0.1949  0.8725  0.7572
 4101TIP3    H233939   5.886   2.329   0.982 -0.5522 -1.2914 -0.0133
 4102TIP3   OH233940   5.459   3.257   7.400 -0.5957  0.4336 -0.1483
 4102TIP3    H133941   5.502   3.173   7.389  0.1581  0.3360  2.7052
 4102TIP3    H233942   5.370   3.236   7.429 -0.5245  0.5995  0.2032
 4103TIP3   OH233943   0.985   0.122   1.042 -0.7414 -0.4441  0.1722
 4103TIP3    H133944   0.929   0.085   1.110 -1.0637  0.2335  0.2788
 4103TIP3    H233945   1.050   0.175   1.089  0.7796 -2.1862  0.1493
 4104TIP3   OH233946   3.028   3.378   0.623 -0.0798 -0.0268  0.0092
 4104TIP3    H133947   3.109   3.349   0.664  0.1676 -0.2433 -0.6238
 4104TIP3    H233948   3.048   3.383   0.530 -0.8652 -0.3246 -0.1863
 4105TIP3   OH233949   3.607   4.264   1.240 -0.0579 -0.3808 -0.1961
 4105TIP3    H133950   3.698   4.294   1.243  0.5121 -1.9779  3.2270
 4105TIP3    H233951   3.557   4.334   1.282 -0.3809  0.1627 -1.4165
 4106TIP3   OH233952   6.119   3.395   0.866  0.5471  0.1987 -0.1300
 4106TIP3    H133953   6.093   3.487   0.871  1.7650  0.5235  0.6932
 4106TIP3    H233954   6.114   3.364   0.956  0.2946 -0.5042 -0.3812
 4107TIP3   OH233955   5.802   1.389   0.061  0.6975 -0.6813  0.1948
 4107TIP3    H133956   5.750   1.345   0.128 -0.0201  0.8656  0.7041
 4107TIP3    H233957   5.808   1.325  -0.010 -3.2563 -0.5080 -0.5609
 4108TIP3   OH233958   6.452   1.371   8.144 -0.2080  0.4029  0.0602
 4108TIP3    H133959   6.490   1.414   8.220 -1.1264 -1.6609  1.7852
 4108TIP3    H233960   6.525   1.319   8.108  0.1773  1.2339 -0.3742
 4109TIP3   OH233961   2.626   0.910   1.695  0.0325  0.1847  0.4585
 4109TIP3    H133962   2.561   0.873   1.755 -0.6550  0.8898  0.1602
 4109TIP3    H233963   2.583   0.907   1.609  1.2134 -1.3561 -0.1385
 4110TIP3   OH233964   3.877   2.804   0.970 -0.8022 -0.2550  0.3102
 4110TIP3    H133965   3.961   2.810   0.924  0.3119  0.3335  2.2880
 4110TIP3    H233966   3.811   2.803   0.900  0.8525 -1.4397 -1.3295
 4111TIP3   OH233967   5.791   1.564   7.846 -0.0490 -0.4345 -0.5789
 4111TIP3    H133968   5.742   1.595   7.922  0.2487 -2.0754  0.3197
 4111TIP3    H233969   5.865   1.517   7.882  0.9649  0.0615 -1.9190
 4112TIP3   OH233970   3.078   2.938   0.129  0.8273  0.6233  0.2663
 4112TIP3    H133971   3.124   2.861   0.094 -0.3986 -1.6561  3.2804
 4112TIP3    H233972   3.137   3.011   0.110  2.7406 -1.2328 -1.4742
 4113TIP3   OH233973   6.676   0.264   6.442 -0.4185  0.0460 -0.4135
 4113TIP3    H133974   6.747   0.216   6.484  0.0091  0.7061 -0.3694
 4113TIP3    H233975   6.605   0.263   6.506 -0.7907 -1.4058 -0.8194
 4114TIP3   OH233976   4.486   3.158   8.553 -0.1128  0.5521  0.2269
 4114TIP3    H133977   4.480   3.187   8.645 -1.3576  0.3168  0.2408
 4114TIP3    H233978   4.554   3.091   8.554 -1.4955 -0.9372  1.4155
 4115TIP3   OH233979   1.264   1.562   8.731  0.0536  0.4407 -0.1393
 4115TIP3    H133980   1.294   1.496   8.669  1.2996 -0.4760  1.3674
 4115TIP3    H233981   1.186   1.525   8.772  0.8374 -0.2220  0.8133
 4116TIP3   OH233982   2.661   5.682   8.506 -0.2461 -0.5709 -0.1308
 4116TIP3    H133983   2.590   5.632   8.465  0.7879 -3.0565  0.9236
 4116TIP3    H233984   2.723   5.698   8.436 -1.3192  0.7109 -0.8320
 4117TIP3   OH233985   1.665   0.307   0.602  0.3596  0.2970  0.4577
 4117TIP3    H133986   1.685   0.300   0.509  2.7674  0.0398  0.9429
 4117TIP3    H233987   1.729   0.250   0.646  0.3176  1.6032  2.3674
 4118TIP3   OH233988   0.847   2.447   6.891  0.2532 -0.0629  0.2422
 4118TIP3    H133989   0.755   2.445   6.865  0.0527 -0.7841  0.9660
 4118TIP3    H233990   0.890   2.498   6.822 -0.8033  0.9300  0.2826
 4119TIP3   OH233991   6.062   1.425   8.743  0.1165 -0.0156 -0.1676
 4119TIP3    H133992   6.006   1.397   8.671  1.2652 -0.5179 -0.8919
 4119TIP3    H233993   6.036   1.516   8.759 -1.6011 -0.5346  0.2236
 4120TIP3   OH233994   0.481   4.121   6.613  0.2228 -0.2900  0.4188
 4120TIP3    H133995   0.473   4.214   6.634 -0.5140  0.0257 -1.1323
 4120TIP3    H233996   0.525   4.120   6.528 -0.4204 -1.3296  0.0934
 4121TIP3   OH233997   3.805   6.668   7.643 -0.1683  0.1834  0.4083
 4121TIP3    H133998   3.793   6.711   7.727  0.7765 -0.6343  0.9859
 4121TIP3    H233999   3.777   6.578   7.658 -1.1166  0.3022 -0.4957
 4122TIP3   OH234000   2.282   5.556   7.915  0.3608  0.0933 -0.1779
 4122TIP3    H134001   2.288   5.484   7.852  0.0461 -0.2036  0.1221
 4122TIP3    H234002   2.368   5.559   7.957  0.3550 -0.1582 -0.1433
 4123TIP3   OH234003   1.961   4.171   6.525 -0.3629  0.9870 -0.4068
 4123TIP3    H134004   1.903   4.132   6.460  0.3334  1.0356 -1.0767
 4123TIP3    H234005   2.020   4.227   6.474  0.6261  0.5091  0.1810
 4124TIP3   OH234006   5.231   2.313   1.806 -0.3495 -1.0038 -0.0309
 4124TIP3    H134007   5.199   2.263   1.882  1.4153 -0.9268  0.8013
 4124TIP3    H234008   5.238   2.247   1.736  0.9513 -1.7306  0.7586
 4125TIP3   OH234009   0.954   0.732   0.916  0.3272  0.5258  0.0085
 4125TIP3    H134010   1.026   0.673   0.938  1.3581  2.0557  0.9065
 4125TIP3    H234011   0.909   0.745   1.000  0.9760  2.1094  0.1312
 4126TIP3   OH234012   3.032   3.169   1.060  0.2996 -0.1875 -0.1215
 4126TIP3    H134013   3.038   3.074   1.051  0.2796 -0.0962 -1.1156
 4126TIP3    H234014   2.939   3.187   1.066  0.2910 -0.2012 -0.2187
 4127TIP3   OH234015   4.511   3.104   7.812  0.0789  0.3284  0.3341
 4127TIP3    H134016   4.535   3.195   7.829 -2.7894  1.1622  0.4646
 4127TIP3    H234017   4.470   3.106   7.726 -3.5392  0.0559  1.8598
 4128TIP3   OH234018   3.741   6.382   1.453 -0.2943  0.2130 -0.0257
 4128TIP3    H134019   3.738   6.447   1.383 -1.5967  0.5319  0.2905
 4128TIP3    H234020   3.728   6.298   1.409  0.0600  0.2964 -0.2899
 4129TIP3   OH234021   3.917   2.156   7.871 -0.3476 -0.2990 -0.4633
 4129TIP3    H134022   3.951   2.243   7.890 -1.6883 -0.2662  2.3244
 4129TIP3    H234023   3.991   2.097   7.887  0.1812  0.1881 -1.0371
 4130TIP3   OH234024   3.176   5.528   2.039 -0.3438 -0.1626  0.0182
 4130TIP3    H134025   3.271   5.534   2.043 -0.1566  1.7045 -3.2039
 4130TIP3    H234026   3.144   5.604   2.088 -0.0456  0.3942 -0.6334
 4131TIP3   OH234027   0.201   1.376   6.874 -0.2142  0.0967  0.3381
 4131TIP3    H134028   0.144   1.315   6.922 -1.0507  0.9896  0.5111
 4131TIP3    H234029   0.144   1.450   6.854  0.2678 -0.0102 -1.5618
 4132TIP3   OH234030   0.070   3.140   7.123 -0.1810  0.1890  0.7492
 4132TIP3    H134031   0.001   3.194   7.161  2.9495  3.5069  2.4147
 4132TIP3    H234032   0.125   3.116   7.198  1.4997 -0.6378 -0.6734
 4133TIP3   OH234033   3.317   4.369   0.870  0.1720 -0.7098  0.0872
 4133TIP3    H134034   3.410   4.375   0.847  0.2193  0.6208  0.5820
 4133TIP3    H234035   3.316   4.350   0.964 -0.0704 -2.4944 -0.2294
 4134TIP3   OH234036   3.050   1.791   0.507 -0.0642 -0.0473  0.6375
 4134TIP3    H134037   3.033   1.770   0.599  0.0351 -2.1753  0.2147
 4134TIP3    H234038   3.089   1.712   0.470  2.6861  1.7139 -0.5733
 4135TIP3   OH234039   0.178   2.527   1.560 -0.4224 -0.1828  0.4960
 4135TIP3    H134040   0.187   2.548   1.653  3.2259  2.0865 -0.1711
 4135TIP3    H234041   0.147   2.608   1.520  0.6071 -0.2863 -0.5539
 4136TIP3   OH234042   0.128   2.305   7.532 -0.0434  0.0646  0.3138
 4136TIP3    H134043   0.138   2.331   7.441  1.1826 -0.2024  0.3520
 4136TIP3    H234044   0.217   2.311   7.569 -0.6224  0.8298  1.6704
 4137TIP3   OH234045   5.288   5.157   6.880  0.6379  0.5944  0.0796
 4137TIP3    H134046   5.204   5.112   6.888  1.2178 -0.3623  1.0974
 4137TIP3    H234047   5.265   5.249   6.865 -0.5704  0.0375 -1.7912
 4138TIP3   OH234048   4.150   2.097   8.142 -0.8797 -0.4085 -0.4179
 4138TIP3    H134049   4.208   2.042   8.195 -1.7052  2.0034  3.3484
 4138TIP3    H234050   4.202   2.176   8.125 -1.4240 -0.2438 -1.3745
 4139TIP3   OH234051   3.349   5.853   0.726 -0.3508 -0.1852 -0.2501
 4139TIP3    H134052   3.432   5.892   0.698 -1.3213  2.9404  0.7731
 4139TIP3    H234053   3.373   5.797   0.800  0.8635  0.6319  0.0117
 4140TIP3   OH234054   4.926   0.205   8.615 -0.1831 -0.2650 -0.0716
 4140TIP3    H134055   4.984   0.160   8.677 -0.0352 -0.5550 -0.4155
 4140TIP3    H234056   4.980   0.219   8.537  0.7668  3.2558  1.0249
 4141TIP3   OH234057   0.170   1.977   0.996  0.1000  0.4513 -0.1578
 4141TIP3    H134058   0.207   2.034   1.063 -0.1452  2.0843 -1.3567
 4141TIP3    H234059   0.079   2.006   0.986 -0.3657 -0.8800 -0.0476
 4142TIP3   OH234060   1.430   4.277   0.430 -0.3362  0.0933 -0.4645
 4142TIP3    H134061   1.475   4.205   0.386 -1.9925 -1.7238  0.6259
 4142TIP3    H234062   1.498   4.320   0.481  0.5851 -1.1696 -0.5677
 4143TIP3   OH234063   0.323   3.392   1.428 -0.2875 -0.4142 -0.2642
 4143TIP3    H134064   0.323   3.458   1.359 -1.4981 -0.2962 -0.1828
 4143TIP3    H234065   0.344   3.441   1.507 -2.0867  0.1061 -0.0500
 4144TIP3   OH234066   1.147   2.576   0.033  0.3498  0.4356  0.6275
 4144TIP3    H134067   1.191   2.502  -0.008  3.5722  1.5155  1.8941
 4144TIP3    H234068   1.109   2.625  -0.041  1.1837 -0.5809 -0.5180
 4145TIP3   OH234069   0.892   4.785   8.603  0.0148 -0.0895 -0.0928
 4145TIP3    H134070   0.967   4.736   8.569  0.9024 -0.4715  2.2237
 4145TIP3    H234071   0.816   4.731   8.580  0.7297 -1.2158  0.0806
 4146TIP3   OH234072   0.241   6.384   8.067  0.5356 -0.2841 -0.0999
 4146TIP3    H134073   0.257   6.471   8.103  0.2891 -0.3494  0.1646
 4146TIP3    H234074   0.200   6.336   8.138 -1.3802  0.0426 -0.9434
 4147TIP3   OH234075   2.536   0.466   1.748 -0.3773 -0.5474  0.5317
 4147TIP3    H134076   2.535   0.560   1.768 -0.6627 -0.4988  0.2993
 4147TIP3    H234077   2.449   0.436   1.775 -0.7413 -0.4990 -0.5643
 4148TIP3   OH234078   4.658   0.150   7.881  0.3512 -0.1404  0.3028
 4148TIP3    H134079   4.605   0.101   7.817  0.1222 -0.3048  0.6141
 4148TIP3    H234080   4.631   0.241   7.870  0.6464 -0.1044 -0.1530
 4149TIP3   OH234081   2.929   4.749   0.065  0.1814  0.7989  0.0063
 4149TIP3    H134082   2.888   4.684   0.122  1.9325 -0.6917 -0.3191
 4149TIP3    H234083   2.857   4.802   0.033 -1.2691 -0.6297  0.7520
 4150TIP3   OH234084   0.206   3.704   7.126  0.2472  0.2128 -0.1161
 4150TIP3    H134085   0.205   3.611   7.151  2.4377  0.3560  0.7370
 4150TIP3    H234086   0.208   3.702   7.030  1.9384 -0.7176 -0.1031
 4151TIP3   OH234087   2.323   3.959   1.184  0.0619  0.0062  0.4107
 4151TIP3    H134088   2.307   3.911   1.266  0.0237  3.2136  2.4588
 4151TIP3    H234089   2.418   3.966   1.178  0.0603  2.1452  1.8182
 4152TIP3   OH234090   6.506   4.773   1.046 -0.6798  0.1381  0.0562
 4152TIP3    H134091   6.472   4.687   1.020  2.8459 -0.4530 -3.4669
 4152TIP3    H234092   6.548   4.757   1.131  0.9367 -2.0360 -1.0614
 4153TIP3   OH234093   5.116   0.544   7.835  0.2907  0.0247 -0.0760
 4153TIP3    H134094   5.211   0.557   7.839  0.7987 -3.2041  2.2509
 4153TIP3    H234095   5.081   0.608   7.897  0.6981  2.0893 -1.8352
 4154TIP3   OH234096   6.545   2.702   8.104 -0.6207 -0.1923  0.1522
 4154TIP3    H134097   6.467   2.730   8.151 -1.5313  1.2146 -1.9995
 4154TIP3    H234098   6.533   2.738   8.016  1.7505 -1.2477 -0.6765
 4155TIP3   OH234099   2.335   1.755   6.381 -0.1411  0.2593 -0.3230
 4155TIP3    H134100   2.364   1.715   6.300  0.6549  1.1100 -0.4706
 4155TIP3    H234101   2.242   1.773   6.367 -0.1075  0.0115 -0.8783
 4156TIP3   OH234102   6.052   5.055   1.227 -0.1303  0.1663 -0.0346
 4156TIP3    H134103   6.005   5.026   1.305  0.2088 -2.4626 -0.7209
 4156TIP3    H234104   5.983   5.084   1.167 -0.8105 -2.0559 -0.3993
 4157TIP3   OH234105   4.848   6.583   0.363 -0.6342  0.0580  0.5848
 4157TIP3    H134106   4.922   6.545   0.411  0.7829  0.2953 -1.2648
 4157TIP3    H234107   4.882   6.597   0.275 -2.2293  2.2618  0.2331
 4158TIP3   OH234108   4.735   6.705   1.383 -0.4509 -0.0974 -0.1770
 4158TIP3    H134109   4.734   6.732   1.475 -0.6029  2.0536 -0.7514
 4158TIP3    H234110   4.667   6.639   1.377  1.1420 -2.0575  1.6984
 4159TIP3   OH234111   2.192   4.629   7.787 -0.5905  0.1316 -0.1538
 4159TIP3    H134112   2.282   4.641   7.754  0.0107 -0.5048  1.1694
 4159TIP3    H234113   2.166   4.543   7.754  0.3164 -0.8724  1.5752
 4160TIP3   OH234114   5.125   3.337   6.987 -0.2460  0.2970 -0.0794
 4160TIP3    H134115   5.040   3.366   7.021 -1.6382 -0.4880 -2.6083
 4160TIP3    H234116   5.189   3.380   7.043 -2.2890  0.2472  2.4659
 4161TIP3   OH234117   0.115   6.858   6.560 -0.3666 -0.4292  1.1365
 4161TIP3    H134118   0.189   6.908   6.526 -0.0717 -1.1748  0.6341
 4161TIP3    H234119   0.087   6.905   6.638 -0.2790  0.6618  0.5324
 4162TIP3   OH234120   1.683   3.958   1.129 -0.2946  0.3535  0.0263
 4162TIP3    H134121   1.697   3.863   1.123 -1.2958  0.2600 -1.2075
 4162TIP3    H234122   1.718   3.981   1.215 -1.1133 -1.3303  0.8672
 4163TIP3   OH234123   0.379   2.382   8.833  0.3834 -0.1849 -0.1110
 4163TIP3    H134124   0.351   2.309   8.777 -1.0110 -0.5249  0.9677
 4163TIP3    H234125   0.310   2.389   8.899  1.3800  0.9874  0.8501
 4164TIP3   OH234126   2.837   5.939   0.441 -0.5498 -0.0471 -0.5693
 4164TIP3    H134127   2.847   5.904   0.529 -1.3801 -0.4447 -0.6244
 4164TIP3    H234128   2.804   6.028   0.453 -0.6314 -0.0893 -0.4822
 4165TIP3   OH234129   6.660   6.330   7.553 -0.1422  0.6608 -0.3801
 4165TIP3    H134130   6.656   6.261   7.618  2.9620  1.1020  0.4239
 4165TIP3    H234131   6.568   6.355   7.539 -1.1749 -2.0356  0.9341
 4166TIP3   OH234132   0.759   5.615   1.327 -0.2993 -0.2846  0.1271
 4166TIP3    H134133   0.796   5.629   1.239  0.8244 -0.6033  0.5321
 4166TIP3    H234134   0.804   5.678   1.382 -0.2286 -0.8042  0.6725
 4167TIP3   OH234135   6.348   0.200   7.981 -0.5935  0.8908  0.8941
 4167TIP3    H134136   6.264   0.240   7.955 -0.9459  0.7252  1.7542
 4167TIP3    H234137   6.395   0.270   8.026 -0.7485  0.6654  1.4154
 4168TIP3   OH234138   0.645   3.416   0.637  0.5506  0.6850 -0.3387
 4168TIP3    H134139   0.554   3.396   0.615  0.3808  0.2257  0.7223
 4168TIP3    H234140   0.640   3.495   0.691  1.0112  2.1859 -2.3772
 4169TIP3   OH234141   4.011   6.744   6.674 -0.2948 -0.4501 -0.4415
 4169TIP3    H134142   4.071   6.691   6.621 -1.8197 -4.2762  1.2973
 4169TIP3    H234143   3.924   6.719   6.643 -1.1454 -1.3255  2.4034
 4170TIP3   OH234144   5.253   3.533   0.619 -0.1468 -0.4124 -0.0593
 4170TIP3    H134145   5.317   3.475   0.661  0.0728  0.5135  0.8981
 4170TIP3    H234146   5.301   3.614   0.601 -0.6345 -0.2699 -0.7858
 4171TIP3   OH234147   5.943   3.064   1.614 -0.9565 -0.1457  0.6819
 4171TIP3    H134148   6.002   3.099   1.681 -0.8953 -0.3305  0.7257
 4171TIP3    H234149   5.936   3.134   1.550  0.9040 -0.8234 -0.3343
 4172TIP3   OH234150   5.199   3.393   1.052 -0.1957 -0.1278 -0.0067
 4172TIP3    H134151   5.223   3.440   0.972  1.2413 -0.0890  0.4168
 4172TIP3    H234152   5.265   3.420   1.116 -0.7565 -0.9047  0.9149
 4173TIP3   OH234153   2.345   1.129   0.687  0.1715 -0.2867 -0.3596
 4173TIP3    H134154   2.325   1.152   0.597  0.9431  0.4091 -0.3684
 4173TIP3    H234155   2.375   1.038   0.683  1.1389  0.0398 -0.9683
 4174TIP3   OH234156   1.923   5.767   0.180 -0.2111 -0.3718 -0.1626
 4174TIP3    H134157   1.916   5.815   0.262  0.6341  2.1392 -1.4500
 4174TIP3    H234158   1.884   5.824   0.114  2.8006 -0.3182 -2.1483
 4175TIP3   OH234159   1.451   0.110   8.096  0.0030 -0.2475  0.3798
 4175TIP3    H134160   1.467   0.055   8.173 -2.0077  0.1265  1.1212
 4175TIP3    H234161   1.526   0.170   8.093 -0.4216  0.4988  2.7495
 4176TIP3   OH234162   5.974   6.069   8.061 -0.9341  0.1645  0.3238
 4176TIP3    H134163   5.913   6.129   8.105  0.7771  1.9190  0.4499
 4176TIP3    H234164   5.964   6.088   7.968 -1.4463 -0.4399  0.2490
 4177TIP3   OH234165   0.667   3.857   2.110  0.6544 -0.0784  0.0877
 4177TIP3    H134166   0.629   3.945   2.114  1.1274  0.1504 -0.2811
 4177TIP3    H234167   0.679   3.832   2.201  0.1109  0.0620  0.2003
 4178TIP3   OH234168   5.878   5.675   7.446  0.2570 -0.3325  0.6540
 4178TIP3    H134169   5.812   5.744   7.456  1.1263  0.7381 -0.4966
 4178TIP3    H234170   5.921   5.669   7.531 -1.7124 -1.5306  1.6356
 4179TIP3   OH234171   1.491   1.882   8.388 -0.6304  0.1147 -0.2243
 4179TIP3    H134172   1.561   1.868   8.324 -1.9092 -3.5065 -1.0430
 4179TIP3    H234173   1.411   1.887   8.336 -1.3941  0.1238  0.9169
 4180TIP3   OH234174   4.984   1.737   0.961  0.1155  0.1314 -0.3109
 4180TIP3    H134175   5.040   1.794   0.909  0.7789 -0.0126  0.2364
 4180TIP3    H234176   4.925   1.798   1.007  0.3234  0.3298 -0.3056
 4181TIP3   OH234177   2.441   0.468   6.736  0.0351  0.0213  0.2684
 4181TIP3    H134178   2.426   0.535   6.670  2.0637  1.6757  1.3809
 4181TIP3    H234179   2.378   0.487   6.805  0.4976  0.7227  0.5088
 4182TIP3   OH234180   5.671   3.867   1.153 -0.3236  0.0626  0.9064
 4182TIP3    H134181   5.586   3.822   1.149 -0.8617  0.9221 -3.5722
 4182TIP3    H234182   5.735   3.796   1.151 -0.9318 -0.5732  2.6043
 4183TIP3   OH234183   4.827   1.643   1.623  0.3068  0.4677 -0.5954
 4183TIP3    H134184   4.857   1.734   1.631  0.1623  0.3412  3.8337
 4183TIP3    H234185   4.902   1.591   1.651 -0.4403 -0.6320 -0.6086
 4184TIP3   OH234186   3.058   0.667   8.704  0.3366  0.3973 -0.0995
 4184TIP3    H134187   3.025   0.736   8.647  0.6768  1.0178  0.4341
 4184TIP3    H234188   3.109   0.714   8.770  1.2389 -0.4390 -0.1923
 4185TIP3   OH234189   2.136   4.850   1.199  0.4159  0.3273 -0.2218
 4185TIP3    H134190   2.073   4.829   1.268 -0.0059 -1.9302 -1.2030
 4185TIP3    H234191   2.100   4.809   1.120  2.6143 -0.1997 -1.0281
 4186TIP3   OH234192   6.234   2.316   7.350 -0.5044 -0.0006 -0.5543
 4186TIP3    H134193   6.232   2.242   7.411  0.1216  0.4593  0.0267
 4186TIP3    H234194   6.326   2.342   7.346 -0.7355  0.8017 -0.6974
 4187TIP3   OH234195   6.063   6.552   1.242 -0.0072 -0.2719 -0.4887
 4187TIP3    H134196   6.065   6.478   1.181 -0.9111 -0.5055 -0.2592
 4187TIP3    H234197   6.107   6.520   1.320 -1.4352 -1.0091  0.0540
 4188TIP3   OH234198   2.412   5.676   2.178  0.1711  0.1189  0.0555
 4188TIP3    H134199   2.484   5.633   2.131 -0.6243  0.8243 -1.8962
 4188TIP3    H234200   2.436   5.667   2.270  2.7999  0.3886 -0.5090
 4189TIP3   OH234201   1.697   5.276   0.600 -0.2843  0.3877 -0.5065
 4189TIP3    H134202   1.649   5.340   0.652 -0.5777  0.5219 -0.9390
 4189TIP3    H234203   1.736   5.327   0.529  0.6911  0.3203 -0.0408
 4190TIP3   OH234204   4.041   1.805   7.792 -0.4760  0.1392 -0.5226
 4190TIP3    H134205   4.083   1.860   7.726 -0.7523  1.2359  0.1987
 4190TIP3    H234206   3.950   1.797   7.762  0.1202 -2.1426 -2.0235
 4191TIP3   OH234207   4.272   5.643   8.350 -0.4572  0.6748 -0.3554
 4191TIP3    H134208   4.310   5.689   8.425  0.4820  0.1456 -0.4838
 4191TIP3    H234209   4.240   5.561   8.387 -0.3221  0.5716 -0.4680
 4192TIP3   OH234210   5.699   6.189   0.547 -0.4954 -0.6280 -0.2349
 4192TIP3    H134211   5.713   6.169   0.640  0.4076 -0.0370 -0.2343
 4192TIP3    H234212   5.661   6.277   0.547  0.5787 -0.1480 -0.4605
 4193TIP3   OH234213   3.570   2.462   0.694 -0.0912 -0.0680  0.4681
 4193TIP3    H134214   3.625   2.510   0.756  0.1994  0.0826  0.1004
 4193TIP3    H234215   3.502   2.524   0.670 -0.2027 -0.1255  0.6353
 4194TIP3   OH234216   6.240   0.899   0.902 -0.2289  0.1834  0.1568
 4194TIP3    H134217   6.234   0.816   0.950 -1.4133 -0.1637 -0.5533
 4194TIP3    H234218   6.154   0.940   0.913  0.7316  1.9468  1.5508
 4195TIP3   OH234219   2.128   0.514   6.727  0.1873 -0.9893 -0.1572
 4195TIP3    H134220   2.140   0.539   6.818  0.5926 -0.3993 -0.3694
 4195TIP3    H234221   2.130   0.418   6.728  2.7586 -0.9815  0.1177
 4196TIP3   OH234222   2.517   0.847   1.440  0.2695  0.1485 -0.2401
 4196TIP3    H134223   2.451   0.780   1.456 -1.2355  1.6164 -0.1120
 4196TIP3    H234224   2.597   0.797   1.421 -0.5201 -1.6592  0.9156
 4197TIP3   OH234225   3.300   1.037   6.624  0.2671  0.1397 -0.1976
 4197TIP3    H134226   3.280   1.126   6.594  0.9140 -0.2598 -1.9629
 4197TIP3    H234227   3.310   0.987   6.543  0.5198 -1.4101  0.7585
 4198TIP3   OH234228   6.075   3.625   0.397 -0.2070 -0.0357  0.0141
 4198TIP3    H134229   6.121   3.582   0.470  0.4022  0.6920  0.0716
 4198TIP3    H234230   6.088   3.566   0.323  0.0616 -0.2752  0.2481
 4199TIP3   OH234231   3.906   5.875   1.462 -0.0414 -0.6044 -0.2837
 4199TIP3    H134232   3.925   5.875   1.556 -0.6420  0.1457 -0.1512
 4199TIP3    H234233   3.992   5.878   1.420  0.2582 -1.6051  0.2175
 4200TIP3   OH234234   5.334   6.454   7.783  0.6804 -0.1923 -0.0008
 4200TIP3    H134235   5.250   6.455   7.737  1.0204 -1.4341 -0.6877
 4200TIP3    H234236   5.370   6.542   7.768 -1.2294  0.9692  1.7720
 4201TIP3   OH234237   3.809   1.808   0.318 -0.0096 -0.2354  1.0298
 4201TIP3    H134238   3.821   1.876   0.251 -3.5228 -0.5512 -0.1520
 4201TIP3    H234239   3.860   1.839   0.393  0.6626  2.3397 -0.3591
 4202TIP3   OH234240   4.895   3.066   1.221 -0.1962 -0.2252  0.0960
 4202TIP3    H134241   4.872   3.040   1.310  0.6437  1.2501  0.7846
 4202TIP3    H234242   4.811   3.063   1.173 -0.7607 -0.4940  1.0713
 4203TIP3   OH234243   1.811   5.647   6.504 -0.0536 -0.0093  0.4193
 4203TIP3    H134244   1.717   5.659   6.513 -0.1078 -0.5177  0.5678
 4203TIP3    H234245   1.829   5.666   6.412 -0.0600  1.5765  0.7179
 4204TIP3   OH234246   0.552   5.404   7.128  0.0312 -0.7965  0.1966
 4204TIP3    H134247   0.484   5.340   7.105  1.6620 -3.3578  1.8775
 4204TIP3    H234248   0.513   5.455   7.199 -0.4627 -1.6515  0.5589
 4205TIP3   OH234249   3.148   5.224   8.344 -0.6492 -0.2576 -0.2983
 4205TIP3    H134250   3.184   5.313   8.338 -2.9369  0.9788  2.1138
 4205TIP3    H234251   3.089   5.216   8.270 -1.2772  0.7183  0.0793
 4206TIP3   OH234252   4.494   1.770   1.329  0.5711  0.3555 -0.1062
 4206TIP3    H134253   4.450   1.826   1.392  0.5455 -0.5772  0.7370
 4206TIP3    H234254   4.531   1.830   1.264 -0.5367  1.2466  0.0638
 4207TIP3   OH234255   1.068   2.312   8.748  0.1295 -0.3106 -0.2921
 4207TIP3    H134256   1.119   2.248   8.699 -0.1388 -0.4148 -0.4348
 4207TIP3    H234257   0.980   2.307   8.710  0.1342  0.2177 -0.3730
 4208TIP3   OH234258   2.751   6.028   7.934 -0.5663  0.2834 -0.2314
 4208TIP3    H134259   2.835   5.988   7.914  0.0761  1.1174  0.6733
 4208TIP3    H234260   2.739   6.095   7.867 -0.3765  0.3472 -0.2016
 4209TIP3   OH234261   2.728   0.371   7.831 -0.6028 -0.1600 -0.2805
 4209TIP3    H134262   2.688   0.452   7.798 -1.1073  1.2985  3.3272
 4209TIP3    H234263   2.673   0.346   7.905  0.4125 -3.0278 -0.3657
 4210TIP3   OH234264   3.892   5.487   1.304 -0.0422  0.2429  0.0403
 4210TIP3    H134265   3.863   5.537   1.380  1.7984  1.4578 -0.0130
 4210TIP3    H234266   3.826   5.505   1.236 -1.3274 -0.3135  1.0880
 4211TIP3   OH234267   2.745   6.017   8.317 -0.1066 -0.1835  0.1470
 4211TIP3    H134268   2.746   6.012   8.413 -0.2912 -1.1031  0.1086
 4211TIP3    H234269   2.758   5.927   8.288  2.6087  0.3987 -0.7455
 4212TIP3   OH234270   0.791   1.791   0.688 -0.0568  0.2971  0.1047
 4212TIP3    H134271   0.783   1.753   0.600  0.5995  0.3263  0.0269
 4212TIP3    H234272   0.748   1.728   0.745  1.4231 -0.8176  0.0407
 4213TIP3   OH234273   4.256   0.295   0.545  0.5595  0.6751  0.2637
 4213TIP3    H134274   4.218   0.211   0.570  1.2081  0.2755 -0.0746
 4213TIP3    H234275   4.181   0.353   0.535 -0.0020 -0.2082 -0.8200
 4214TIP3   OH234276   3.627   4.463   7.363 -0.5298  0.1215 -0.0432
 4214TIP3    H134277   3.572   4.434   7.436 -0.2236 -0.7230 -0.1311
 4214TIP3    H234278   3.701   4.402   7.363  0.0193  0.7706 -0.4011
 4215TIP3   OH234279   1.514   4.236   8.279 -0.3249 -0.0965 -0.2117
 4215TIP3    H134280   1.459   4.174   8.231  0.4109 -0.0075 -1.2103
 4215TIP3    H234281   1.453   4.302   8.311 -1.0718 -1.1110  0.5533
 4216TIP3   OH234282   0.342   2.067   1.897 -0.6034  0.2826 -0.7081
 4216TIP3    H134283   0.330   2.161   1.914 -1.1302  0.1052 -0.0049
 4216TIP3    H234284   0.431   2.060   1.863 -0.6369  1.0646 -0.9942
 4217TIP3   OH234285   5.875   4.889   8.216  0.4079 -0.5928 -0.4051
 4217TIP3    H134286   5.926   4.970   8.217  0.9520 -0.9190  1.6852
 4217TIP3    H234287   5.822   4.896   8.136  1.2092  1.3212 -0.8318
 4218TIP3   OH234288   3.841   1.041   1.511  0.4017  1.0827 -0.0511
 4218TIP3    H134289   3.901   1.013   1.580 -0.3910  1.8249  0.9554
 4218TIP3    H234290   3.764   1.074   1.557 -0.9468 -0.1333 -1.3107
 4219TIP3   OH234291   5.758   4.634   6.073  0.6604  0.0960 -0.5005
 4219TIP3    H134292   5.671   4.604   6.101  0.6267  0.1595 -0.5357
 4219TIP3    H234293   5.772   4.714   6.125  0.9819 -0.2787 -0.0078
 4220TIP3   OH234294   0.191   3.747   2.573 -0.1738  0.3533 -0.4257
 4220TIP3    H134295   0.267   3.702   2.609  0.3267  0.7998 -0.8965
 4220TIP3    H234296   0.118   3.718   2.627  0.1505 -0.9093 -0.6348
 4221TIP3   OH234297   2.114   6.361   0.795 -0.3977 -0.2762  0.1571
 4221TIP3    H134298   2.209   6.359   0.809 -0.2911 -0.1860 -0.4961
 4221TIP3    H234299   2.099   6.293   0.728 -0.5481  0.9242 -1.0724
 4222TIP3   OH234300   2.867   3.552   8.064 -0.8180 -0.7674 -0.2471
 4222TIP3    H134301   2.892   3.600   7.985  0.4278  0.5457  0.8934
 4222TIP3    H234302   2.816   3.478   8.031 -1.3459  0.3776 -2.1919
 4223TIP3   OH234303   6.615   4.053   6.527 -0.6717 -0.0605  0.3020
 4223TIP3    H134304   6.707   4.046   6.505 -0.3942  0.6516  1.1617
 4223TIP3    H234305   6.598   4.147   6.530 -0.9934 -0.1344  1.7757
 4224TIP3   OH234306   2.136   0.602   0.935  0.4771  0.3214 -0.4343
 4224TIP3    H134307   2.092   0.685   0.956 -0.9254 -0.4117 -0.3222
 4224TIP3    H234308   2.229   0.622   0.939  0.1847  2.2134 -1.6630
 4225TIP3   OH234309   1.379   0.712   6.671  0.2344 -0.6498 -0.6004
 4225TIP3    H134310   1.457   0.666   6.639 -0.0496 -1.8231  0.3249
 4225TIP3    H234311   1.357   0.668   6.753 -1.2308 -0.1305 -0.6838
 4226TIP3   OH234312   5.214   0.320   7.563 -0.0788 -0.1116  0.3041
 4226TIP3    H134313   5.133   0.336   7.514 -0.7403  2.4439  2.0266
 4226TIP3    H234314   5.186   0.316   7.655  1.7502  1.3679  0.9936
 4227TIP3   OH234315   1.537   6.526   0.885 -0.2204  0.4859 -0.3544
 4227TIP3    H134316   1.526   6.439   0.846 -1.0211 -0.0303  0.9501
 4227TIP3    H234317   1.632   6.540   0.886 -0.1486  0.3995 -2.1448
 4228TIP3   OH234318   2.960   3.561   7.250 -0.0524 -0.0434 -0.1144
 4228TIP3    H134319   2.914   3.566   7.167  0.6523  0.4864 -0.4830
 4228TIP3    H234320   2.894   3.530   7.312 -0.4531 -0.9584 -0.9612
 4229TIP3   OH234321   3.217   4.715   0.310 -0.1615 -0.0292  0.1210
 4229TIP3    H134322   3.124   4.695   0.320  0.4348 -3.1822  0.3554
 4229TIP3    H234323   3.262   4.631   0.323  2.8179  1.5379  1.0613
 4230TIP3   OH234324   1.753   2.930   7.167  0.1298  0.3326  0.2229
 4230TIP3    H134325   1.815   3.003   7.175  1.0175 -0.3628 -0.0720
 4230TIP3    H234326   1.679   2.955   7.222  0.6722  1.1959  0.5850
 4231TIP3   OH234327   5.825   2.448   0.733 -0.0009 -0.1201 -0.3494
 4231TIP3    H134328   5.836   2.445   0.638  4.7649  2.0571 -0.1404
 4231TIP3    H234329   5.803   2.540   0.751  1.1014 -0.0413  0.7015
 4232TIP3   OH234330   5.195   3.661   6.307 -0.4884 -0.1322  0.6648
 4232TIP3    H134331   5.241   3.727   6.256  0.0350 -0.6262  0.4845
 4232TIP3    H234332   5.253   3.585   6.305 -0.7955 -0.3950  1.3867
 4233TIP3   OH234333   2.411   4.553   0.976  0.3295 -0.4500  0.2470
 4233TIP3    H134334   2.327   4.564   0.933  0.4964 -0.8695 -0.1956
 4233TIP3    H234335   2.406   4.610   1.053  0.4823  1.2606 -0.9473
 4234TIP3   OH234336   3.455   5.604   1.573 -0.0000 -0.0275  0.4687
 4234TIP3    H134337   3.426   5.689   1.608  0.5698  0.2966  0.1750
 4234TIP3    H234338   3.499   5.562   1.646  0.3334  0.2331  0.4205
 4235TIP3   OH234339   3.250   1.174   8.248  0.3843 -0.2377 -0.2326
 4235TIP3    H134340   3.226   1.265   8.266  2.4213  0.2601  0.1531
 4235TIP3    H234341   3.166   1.130   8.232 -0.9009  1.0929  2.2866
 4236TIP3   OH234342   1.487   1.818   8.659  0.2214  0.1096  0.2105
 4236TIP3    H134343   1.492   1.833   8.564 -0.3753  0.1064  0.1756
 4236TIP3    H234344   1.550   1.748   8.675  1.3581  1.0638  0.0307
 4237TIP3   OH234345   2.300   2.736   0.992  0.3347  0.0155 -0.3527
 4237TIP3    H134346   2.307   2.645   0.965 -4.5194 -0.6639 -0.1152
 4237TIP3    H234347   2.309   2.735   1.087  1.4099  0.0265 -0.4397
 4238TIP3   OH234348   3.747   6.587   1.275 -0.1393 -0.3934 -0.5745
 4238TIP3    H134349   3.792   6.625   1.199 -0.7035  1.3937 -0.0721
 4238TIP3    H234350   3.778   6.639   1.349  0.0143 -1.7861  0.3731
 4239TIP3   OH234351   5.976   5.791   7.221  0.6163 -0.0292 -0.1213
 4239TIP3    H134352   5.944   5.726   7.284  0.5396  0.3389  0.2278
 4239TIP3    H234353   5.897   5.819   7.174  0.7755 -0.8520 -0.9201
 4240TIP3   OH234354   5.305   2.987   8.532 -0.3343 -0.0678  0.6452
 4240TIP3    H134355   5.361   2.926   8.579 -1.3553 -0.7932  0.9673
 4240TIP3    H234356   5.342   3.073   8.550  0.5717 -0.5097  0.9700
 4241TIP3   OH234357   2.492   1.309   1.103  0.2412  0.2346  0.3125
 4241TIP3    H134358   2.524   1.395   1.130  0.2929  0.2916  0.0685
 4241TIP3    H234359   2.500   1.255   1.182 -0.7724  0.7228  0.7611
 4242TIP3   OH234360   6.685   6.329   2.097 -0.2454 -0.4515  0.0572
 4242TIP3    H134361   6.747   6.355   2.029 -2.4914  1.7834 -1.3423
 4242TIP3    H234362   6.677   6.406   2.153 -1.2517 -0.9035  0.5679
 4243TIP3   OH234363   0.015   3.475   2.405 -0.0091 -0.9784  0.0713
 4243TIP3    H134364   0.034   3.551   2.461 -0.8436  0.4372 -1.5053
 4243TIP3    H234365  -0.053   3.427   2.453 -2.5704  1.5496 -0.7466
 4244TIP3   OH234366   4.002   5.235   7.061  0.2106 -0.2345  0.4827
 4244TIP3    H134367   4.071   5.270   7.117 -0.4801  0.5561  0.8658
 4244TIP3    H234368   4.021   5.271   6.974 -0.4183  1.0491  0.8437
 4245TIP3   OH234369   0.465   5.396   7.820  0.1286 -0.3302 -0.9778
 4245TIP3    H134370   0.484   5.304   7.805  0.3022 -0.3227 -0.8101
 4245TIP3    H234371   0.383   5.396   7.870  0.8784 -0.4518  0.2725
 4246TIP3   OH234372   3.680   1.872   8.005 -0.3633  0.5604 -0.2664
 4246TIP3    H134373   3.670   1.807   8.075 -1.0867 -0.5824 -1.3824
 4246TIP3    H234374   3.717   1.949   8.049 -1.1204  0.0078  1.4274
 4247TIP3   OH234375   0.200   1.898   0.067  0.2990  0.1721 -0.1750
 4247TIP3    H134376   0.267   1.927   0.130  0.0109 -0.3787  0.3918
 4247TIP3    H234377   0.134   1.968   0.069 -0.1920 -0.2973  0.8820
 4248TIP3   OH234378   5.604   4.384   0.121  0.4866 -0.3105 -0.4503
 4248TIP3    H134379   5.631   4.461   0.172 -1.4746  0.4587 -0.4738
 4248TIP3    H234380   5.599   4.313   0.186  0.5553  0.0178 -0.0788
 4249TIP3   OH234381   4.183   0.744   7.121  0.7701 -0.0658  0.3817
 4249TIP3    H134382   4.192   0.691   7.200  1.4016 -0.1983  0.2259
 4249TIP3    H234383   4.105   0.797   7.137  0.4244 -0.6676  0.7544
 4250TIP3   OH234384   6.528   4.887   8.400 -0.3178  0.1058  0.4559
 4250TIP3    H134385   6.582   4.906   8.324 -0.0825 -2.3884 -0.0891
 4250TIP3    H234386   6.590   4.859   8.467 -0.7841 -1.4928  0.2562
 4251TIP3   OH234387   0.448   0.204   7.658 -0.1538 -0.3945 -0.0410
 4251TIP3    H134388   0.505   0.261   7.711 -0.1729 -0.7636  0.3871
 4251TIP3    H234389   0.379   0.177   7.719  0.3422 -1.5931  0.0221
 4252TIP3   OH234390   4.748   5.657   0.199  0.0772 -0.2125 -0.1218
 4252TIP3    H134391   4.823   5.613   0.159  0.4919 -0.8373  1.2573
 4252TIP3    H234392   4.723   5.599   0.272 -0.2070  1.1676  0.9172
 4253TIP3   OH234393   6.638   5.540   0.074 -0.7445 -0.6137 -0.0088
 4253TIP3    H134394   6.718   5.562   0.026  0.3482 -0.3645  1.8251
 4253TIP3    H234395   6.567   5.578   0.021  0.4088 -0.0547 -1.2199
 4254TIP3   OH234396   2.810   5.148   6.816 -0.1637 -0.5621 -0.0330
 4254TIP3    H134397   2.893   5.195   6.808 -0.2123 -0.6123 -0.9687
 4254TIP3    H234398   2.794   5.142   6.910 -1.3298  3.3764  0.2031
 4255TIP3   OH234399   0.953   2.681   7.015  0.1745 -0.3480 -0.1077
 4255TIP3    H134400   1.034   2.720   6.981  0.0678  0.9314  1.0313
 4255TIP3    H234401   0.889   2.752   7.012 -0.3727 -0.7824  0.8563
 4256TIP3   OH234402   0.187   4.118   0.152 -0.0763  0.2713 -0.2127
 4256TIP3    H134403   0.198   4.155   0.240  0.2446  0.9047 -0.5081
 4256TIP3    H234404   0.109   4.162   0.118  2.0863  3.2391 -1.7912
 4257TIP3   OH234405   2.723   1.584   0.133 -0.0348 -0.2588  0.3464
 4257TIP3    H134406   2.747   1.578   0.226  0.2854  0.9182  0.3633
 4257TIP3    H234407   2.628   1.573   0.133  0.0251 -0.8412  0.7451
 4258TIP3   OH234408   6.576   3.734   6.926  0.1326 -0.0647  0.2582
 4258TIP3    H134409   6.672   3.730   6.917  0.1998 -0.6949  1.1341
 4258TIP3    H234410   6.552   3.818   6.887  1.1383  0.4674  0.7471
 4259TIP3   OH234411   1.947   0.086   8.278  0.5324  0.1703 -0.3620
 4259TIP3    H134412   1.927   0.027   8.351 -1.0359  1.0535 -0.0364
 4259TIP3    H234413   1.901   0.047   8.203  0.1316  0.5445 -0.3163
 4260TIP3   OH234414   5.208   5.892   1.120 -0.0328 -0.1869 -0.1390
 4260TIP3    H134415   5.300   5.907   1.144 -0.0933 -0.0625  0.0136
 4260TIP3    H234416   5.200   5.797   1.113 -0.2960 -0.2981  1.4451
 4261TIP3   OH234417   4.821   6.260   7.513 -0.1487  0.3030  0.0271
 4261TIP3    H134418   4.908   6.298   7.504 -0.7698  1.4967 -1.3307
 4261TIP3    H234419   4.782   6.270   7.426 -0.5559 -2.9935 -0.3077
 4262TIP3   OH234420   5.682   6.612   8.065 -0.1264 -0.2692 -0.1233
 4262TIP3    H134421   5.748   6.634   7.999  0.7980 -0.1505  0.8096
 4262TIP3    H234422   5.728   6.556   8.128 -0.4129  1.1243  1.4194
 4263TIP3   OH234423   1.890   2.966   1.892  0.0127  0.1941  0.3052
 4263TIP3    H134424   1.905   2.986   1.984  0.2606 -0.1033  0.3309
 4263TIP3    H234425   1.825   2.895   1.893  0.5656 -0.3256  0.2819
 4264TIP3   OH234426   3.969   0.645   1.569 -0.3576 -0.4380 -0.2786
 4264TIP3    H134427   4.010   0.580   1.627  0.2376 -0.8767 -1.1674
 4264TIP3    H234428   4.004   0.729   1.600  0.7041 -0.7465 -0.5754
 4265TIP3   OH234429   4.949   6.660   6.641  1.0522  0.4665  0.5841
 4265TIP3    H134430   4.920   6.629   6.555  0.3966  1.3727  0.4651
 4265TIP3    H234431   4.946   6.755   6.634 -1.0640  0.6007  2.2653
 4266TIP3   OH234432   0.313   1.119   8.321 -0.4338  0.1527 -0.0321
 4266TIP3    H134433   0.375   1.185   8.290 -1.1445 -0.6614 -3.6440
 4266TIP3    H234434   0.228   1.163   8.320 -0.4662  0.1825  1.2706
 4267TIP3   OH234435   1.859   4.818   0.065 -0.3544 -0.1303 -0.1355
 4267TIP3    H134436   1.861   4.730   0.103 -2.1607 -0.0309  0.2417
 4267TIP3    H234437   1.777   4.857   0.096  0.0838  1.4528 -0.8396
 4268TIP3   OH234438   0.506   4.619   0.985  0.2002  0.5249  0.5175
 4268TIP3    H134439   0.498   4.709   1.018 -0.0290  0.9704 -0.7285
 4268TIP3    H234440   0.449   4.616   0.909 -0.1120 -0.8141  0.7824
 4269TIP3   OH234441   2.525   0.288   8.046 -0.7594 -0.7667  0.2570
 4269TIP3    H134442   2.596   0.317   8.104 -1.4446  0.4726  0.5208
 4269TIP3    H234443   2.448   0.333   8.080 -0.9036  1.3964 -2.5975
 4270TIP3   OH234444   4.684   4.149   1.198 -0.3914 -0.2039  0.1498
 4270TIP3    H134445   4.696   4.104   1.281  1.1578  0.8562  0.5385
 4270TIP3    H234446   4.650   4.236   1.222 -0.0377  0.0726 -0.3262
 4271TIP3   OH234447   4.818   4.157   6.834 -0.6149 -0.2814 -0.3056
 4271TIP3    H134448   4.791   4.136   6.923 -0.1335  0.1207 -0.0529
 4271TIP3    H234449   4.901   4.111   6.822  0.7113  1.7438  0.4345
 4272TIP3   OH234450   6.133   6.295   2.055 -0.3650 -0.3464 -0.5467
 4272TIP3    H134451   6.081   6.246   1.991 -0.0112 -0.2692 -0.8939
 4272TIP3    H234452   6.068   6.327   2.118 -0.8110  0.2057 -1.2655
 4273TIP3   OH234453   5.095   0.085   0.010  0.5718  0.0869 -0.0137
 4273TIP3    H134454   5.180   0.079  -0.034  0.7299  1.7875  0.0180
 4273TIP3    H234455   5.055  -0.000  -0.007  2.0383 -0.5490 -0.5148
 4274TIP3   OH234456   0.341   3.664   7.372 -0.0027  0.1676  0.3253
 4274TIP3    H134457   0.306   3.694   7.288  0.7183 -1.3243 -0.5476
 4274TIP3    H234458   0.415   3.723   7.389  1.3054 -0.9284 -1.2862
 4275TIP3   OH234459   6.291   6.598   6.965  0.7277 -0.4045 -0.3456
 4275TIP3    H134460   6.385   6.615   6.971  0.5528  0.6848 -0.5788
 4275TIP3    H234461   6.260   6.654   6.895 -0.7064  2.0095  2.0138
 4276TIP3   OH234462   3.581   0.567   1.863  0.0521  0.0347 -0.4120
 4276TIP3    H134463   3.546   0.656   1.876 -0.2172 -0.3770  2.2647
 4276TIP3    H234464   3.668   0.581   1.826 -0.7513  1.3102 -1.9225
 4277TIP3   OH234465   1.169   5.017   7.795 -0.4810  0.0481  0.1636
 4277TIP3    H134466   1.182   5.112   7.803 -0.8142  0.1468 -0.4364
 4277TIP3    H234467   1.198   4.996   7.707  1.0699 -0.6808  0.8158
 4278TIP3   OH234468   2.464   0.618   8.217  0.3185 -0.3399 -0.2992
 4278TIP3    H134469   2.418   0.556   8.160  0.0333 -1.2296  0.8571
 4278TIP3    H234470   2.550   0.579   8.232  0.9239  0.5877 -1.2395
 4279TIP3   OH234471   1.665   3.592   8.811 -0.0530 -0.0859  0.2384
 4279TIP3    H134472   1.735   3.649   8.842  0.5567 -0.4469 -0.4457
 4279TIP3    H234473   1.680   3.585   8.717 -2.4692  1.8373 -0.4023
 4280TIP3   OH234474   0.415   2.193   8.600 -0.1730  0.5384  0.2502
 4280TIP3    H134475   0.487   2.145   8.561  0.0845  1.1979 -0.1179
 4280TIP3    H234476   0.349   2.127   8.621  0.9176 -0.1907  1.4968
 4281TIP3   OH234477   3.084   2.347   8.693 -0.0994 -0.1581 -0.2926
 4281TIP3    H134478   3.148   2.359   8.762 -1.1304  0.6059  0.5653
 4281TIP3    H234479   3.009   2.400   8.720 -0.1607  0.9802 -2.4916
 4282TIP3   OH234480   5.870   2.460   8.284 -0.2359  0.2424 -0.1838
 4282TIP3    H134481   5.862   2.460   8.379 -1.6276 -0.2612 -0.2814
 4282TIP3    H234482   5.780   2.460   8.252  0.2020 -0.4760 -1.4937
 4283TIP3   OH234483   4.600   3.898   8.051  0.2991 -0.6340 -0.0675
 4283TIP3    H134484   4.593   3.935   8.139  0.0592  1.0031 -0.7300
 4283TIP3    H234485   4.516   3.856   8.035 -0.2576  0.4603 -0.0908
 4284TIP3   OH234486   1.780   4.458   6.896 -0.1931  0.3370  0.2600
 4284TIP3    H134487   1.724   4.394   6.852  0.8928 -1.5053  1.4170
 4284TIP3    H234488   1.868   4.437   6.866  0.2377  0.9757  1.0321
 4285TIP3   OH234489   2.082   4.706   1.623 -0.3007  0.6962 -0.1929
 4285TIP3    H134490   2.141   4.746   1.559  1.0615 -0.8007  0.0754
 4285TIP3    H234491   2.092   4.759   1.702  0.1926  0.8247 -0.3407
 4286TIP3   OH234492   1.675   4.115   7.100 -0.0277  0.4339 -0.1618
 4286TIP3    H134493   1.659   4.082   7.012  1.1808  0.3032 -0.3577
 4286TIP3    H234494   1.589   4.120   7.141 -0.5550  0.0967 -1.2095
 4287TIP3   OH234495   6.823   4.263   0.077 -0.4328  0.3456 -0.3283
 4287TIP3    H134496   6.754   4.329   0.070 -2.5793 -1.6531  0.3980
 4287TIP3    H234497   6.788   4.199   0.139  2.3916 -0.4894  0.5684
 4288TIP3   OH234498   3.452   3.519   6.293  0.0981 -0.1350  0.2996
 4288TIP3    H134499   3.418   3.431   6.277 -1.1813 -0.4463  3.8394
 4288TIP3    H234500   3.374   3.575   6.290  0.7103  0.6928 -0.6330
 4289TIP3   OH234501   1.107   5.299   7.467 -0.0390 -0.7586  0.1315
 4289TIP3    H134502   1.029   5.349   7.492  0.4400  0.0411  0.0662
 4289TIP3    H234503   1.166   5.365   7.430  0.1986 -1.5419 -0.9107
 4290TIP3   OH234504   5.574   0.168   6.268  0.1070 -0.0917 -0.1904
 4290TIP3    H134505   5.498   0.164   6.326 -0.3798 -0.5214 -0.8454
 4290TIP3    H234506   5.644   0.126   6.318 -0.7629 -2.1478 -0.5781
 4291TIP3   OH234507   2.725   0.183   0.805 -0.1941 -0.3642  0.5189
 4291TIP3    H134508   2.733   0.087   0.805  0.7400 -0.3247  2.0391
 4291TIP3    H234509   2.712   0.206   0.713 -1.3525 -2.0062  0.2251
 4292TIP3   OH234510   0.709   2.147   1.007  0.1311  0.2336  0.2552
 4292TIP3    H134511   0.676   2.115   0.923 -0.5022  2.0204 -0.2248
 4292TIP3    H234512   0.753   2.071   1.046 -0.6806 -0.9894 -1.0985
 4293TIP3   OH234513   5.901   1.479   1.263  0.6100 -0.2554  0.1060
 4293TIP3    H134514   5.995   1.482   1.244  0.4447  0.3294 -0.6804
 4293TIP3    H234515   5.862   1.541   1.201 -0.4242 -1.2776 -0.3193
 4294TIP3   OH234516   3.217   1.723   7.732  0.2764  0.6176  0.5254
 4294TIP3    H134517   3.269   1.757   7.659  0.9728  2.5433  1.8463
 4294TIP3    H234518   3.130   1.762   7.720  0.7090  1.8770  1.3113
 4295TIP3   OH234519   3.941   4.078   7.696  0.0762 -0.3495 -1.0995
 4295TIP3    H134520   4.006   4.145   7.677 -0.5542  0.0320 -1.9607
 4295TIP3    H234521   3.861   4.107   7.651 -0.4902 -1.1688 -0.6663
 4296TIP3   OH234522   3.549   6.016   0.395  0.6342 -0.4652  0.2321
 4296TIP3    H134523   3.554   5.923   0.414  0.5619 -0.3819  0.6719
 4296TIP3    H234524   3.492   6.022   0.318  0.6302 -0.7800  0.2094
 4297TIP3   OH234525   4.787   6.048   0.078  0.0947  0.0404 -0.0634
 4297TIP3    H134526   4.729   6.124   0.077 -0.3520 -0.2892  0.2677
 4297TIP3    H234527   4.806   6.034   0.171  0.1558 -0.2644 -0.1210
 4298TIP3   OH234528   1.660   2.822   7.537  0.1373  0.1374  0.0397
 4298TIP3    H134529   1.743   2.810   7.583 -0.0937 -0.8933  0.2268
 4298TIP3    H234530   1.593   2.809   7.605 -0.2508 -2.6007 -0.7428
 4299TIP3   OH234531   5.871   5.860   6.682 -0.4830  0.6795 -0.1708
 4299TIP3    H134532   5.806   5.857   6.612 -1.4696  1.9300  0.6400
 4299TIP3    H234533   5.955   5.852   6.638 -1.0561  2.0021 -1.5806
 4300TIP3   OH234534   2.996   4.773   0.990  0.4187  0.2654  0.4484
 4300TIP3    H134535   2.944   4.717   1.049 -0.7860  1.3400  0.4546
 4300TIP3    H234536   3.033   4.712   0.927  0.4762 -0.7350  1.4024
 4301TIP3   OH234537   5.155   3.867   7.434  0.4135 -0.2012  0.2985
 4301TIP3    H134538   5.246   3.894   7.419  0.6126 -0.7102  0.5707
 4301TIP3    H234539   5.148   3.782   7.390 -0.0060 -0.0410  0.0543
 4302TIP3   OH234540   2.135   6.047   6.418  0.3245 -0.2077  0.1757
 4302TIP3    H134541   2.087   5.973   6.455  2.1146 -1.0485  0.9779
 4302TIP3    H234542   2.092   6.124   6.455 -1.1505 -0.8533 -0.1272
 4303TIP3   OH234543   3.392   5.195   6.356  0.1311  0.0864 -0.2357
 4303TIP3    H134544   3.449   5.156   6.423 -0.6582 -2.8389 -1.1182
 4303TIP3    H234545   3.307   5.156   6.372 -0.5229  0.7812 -1.8095
 4304TIP3   OH234546   3.662   4.103   8.443  0.3748  0.1589 -0.2523
 4304TIP3    H134547   3.661   4.063   8.355  1.2486  1.1538 -0.7265
 4304TIP3    H234548   3.714   4.182   8.433 -1.0246  1.2477  0.7593
 4305TIP3   OH234549   2.415   1.947   0.085  0.5749  0.4219  0.1389
 4305TIP3    H134550   2.380   2.035   0.101  0.7435  0.1620  2.2115
 4305TIP3    H234551   2.507   1.961   0.066  0.2090  0.8132 -1.4778
 4306TIP3   OH234552   5.287   2.500   0.054 -0.2483  0.1945 -0.1019
 4306TIP3    H134553   5.306   2.531  -0.034 -0.2218  1.2814  0.2728
 4306TIP3    H234554   5.300   2.577   0.110  1.8266 -0.9585  1.1399
 4307TIP3   OH234555   6.635   3.941   7.773 -0.2207  0.5963  0.0055
 4307TIP3    H134556   6.690   4.000   7.720  1.6964  0.1990  1.4256
 4307TIP3    H234557   6.632   3.984   7.858 -1.4023  0.1310  0.2026
 4308TIP3   OH234558   3.227   3.154   0.659 -0.4762  0.0241 -1.0254
 4308TIP3    H134559   3.213   3.128   0.568 -1.5124  0.5869 -1.0463
 4308TIP3    H234560   3.289   3.090   0.693 -2.3746 -2.0962 -1.2694
 4309TIP3   OH234561   4.809   4.403   0.645  0.8183 -0.0276 -0.0383
 4309TIP3    H134562   4.835   4.485   0.603  0.0763  1.6615  2.6116
 4309TIP3    H234563   4.884   4.380   0.701  0.1983 -0.0083  0.8111
 4310TIP3   OH234564   4.029   5.740   0.445  0.2250 -0.0541  0.4183
 4310TIP3    H134565   4.062   5.818   0.401  0.8083  0.3634  1.5462
 4310TIP3    H234566   4.068   5.667   0.396  1.7805  0.4111  0.9014
 4311TIP3   OH234567   4.675   1.403   7.593 -0.3370 -0.1899 -1.0277
 4311TIP3    H134568   4.751   1.368   7.640 -1.3520 -2.4699 -0.9273
 4311TIP3    H234569   4.710   1.474   7.540  1.3769  0.5054  0.9112
 4312TIP3   OH234570   2.299   4.281   2.176 -0.1411  0.1871  0.1675
 4312TIP3    H134571   2.207   4.262   2.155 -0.3315  0.8542  0.3692
 4312TIP3    H234572   2.294   4.345   2.247  0.4822 -0.8740  1.2224
 4313TIP3   OH234573   3.076   3.884   7.616  0.1526 -0.6079 -0.1433
 4313TIP3    H134574   3.090   3.835   7.697 -0.2630  0.0056  0.3161
 4313TIP3    H234575   3.002   3.839   7.574 -0.4299 -0.2096  0.4257
 4314TIP3   OH234576   2.217   4.485   6.693 -0.0125  0.4530  0.4614
 4314TIP3    H134577   2.280   4.492   6.765  0.2310  0.9245  0.2051
 4314TIP3    H234578   2.146   4.432   6.729 -0.1050  1.0714  1.1973
 4315TIP3   OH234579   4.479   0.735   8.548 -0.3495  0.1244 -0.5003
 4315TIP3    H134580   4.551   0.715   8.488  0.7470  0.9866  0.4925
 4315TIP3    H234581   4.444   0.818   8.516  2.4928  2.4834  1.9351
 4316TIP3   OH234582   1.504   4.718   2.329 -0.2429  0.2031 -0.1439
 4316TIP3    H134583   1.435   4.779   2.353 -0.7542 -0.6288  0.5749
 4316TIP3    H234584   1.463   4.632   2.336  0.2026 -0.2135 -1.9221
 4317TIP3   OH234585   1.780   1.164   8.146 -0.0960  0.9481 -0.5016
 4317TIP3    H134586   1.808   1.161   8.238 -0.5005 -0.1197 -0.3973
 4317TIP3    H234587   1.850   1.210   8.101 -0.0974  1.9073  0.4065
 4318TIP3   OH234588   0.599   4.124   0.951 -0.3192 -0.3765  0.0331
 4318TIP3    H134589   0.588   4.039   0.993  0.2150 -0.2989  0.3416
 4318TIP3    H234590   0.551   4.117   0.868  1.3610 -1.6615 -0.8822
 4319TIP3   OH234591   0.026   1.411   0.152 -0.3359  0.1447 -0.6223
 4319TIP3    H134592   0.074   1.485   0.115 -1.2930  0.0028 -2.2439
 4319TIP3    H234593   0.084   1.376   0.220 -0.0421  2.6241  0.5087
 4320TIP3   OH234594   1.543   5.663   6.584 -0.3882 -0.4299 -0.0111
 4320TIP3    H134595   1.501   5.743   6.552 -0.8372 -0.5790  0.1879
 4320TIP3    H234596   1.469   5.607   6.610 -0.1898 -1.6494 -1.8713
 4321TIP3   OH234597   6.249   1.674   0.547  0.0158  0.2783  0.2921
 4321TIP3    H134598   6.221   1.583   0.558  1.1805 -0.4380 -2.0774
 4321TIP3    H234599   6.175   1.717   0.504  0.1900 -0.0431 -0.3325
 4322TIP3   OH234600   2.383   3.815   0.137  0.2364  0.9802 -0.5626
 4322TIP3    H134601   2.334   3.744   0.178  0.0925  0.9774 -0.7378
 4322TIP3    H234602   2.391   3.882   0.206 -0.2644  1.1035 -0.6176
 4323TIP3   OH234603   5.248   0.947   0.085  0.0425  0.4124  0.0643
 4323TIP3    H134604   5.321   0.988   0.038 -0.5677  1.8805  0.3511
 4323TIP3    H234605   5.281   0.935   0.174  0.5764 -0.7084 -0.2657
 4324TIP3   OH234606   1.193   0.195   8.116  0.2026  0.2495  0.2054
 4324TIP3    H134607   1.205   0.290   8.116  0.3788  0.2712  2.2397
 4324TIP3    H234608   1.280   0.160   8.096  0.0939  0.4944 -0.7509
 4325TIP3   OH234609   1.711   4.934   1.047 -0.1088  0.0580 -0.2018
 4325TIP3    H134610   1.684   5.010   0.995 -1.2834 -0.6299 -0.6341
 4325TIP3    H234611   1.805   4.926   1.029 -0.0630  1.1133 -0.5279
 4326TIP3   OH234612   3.240   4.441   1.792  0.0548 -0.1203 -0.6413
 4326TIP3    H134613   3.149   4.459   1.765  0.6441  2.2013 -1.3367
 4326TIP3    H234614   3.293   4.473   1.719  1.5122  0.9496  0.8104
 4327TIP3   OH234615   5.738   2.634   1.632  0.3030  0.0604 -0.5111
 4327TIP3    H134616   5.742   2.713   1.578 -0.3144 -0.4189 -1.2719
 4327TIP3    H234617   5.645   2.616   1.643  0.4221 -1.5283 -1.7891
 4328TIP3   OH234618   2.361   4.945   0.205 -0.2572  0.1563 -0.2114
 4328TIP3    H134619   2.436   4.929   0.148 -0.2436 -0.5524 -0.0110
 4328TIP3    H234620   2.288   4.904   0.160 -0.3341  0.0014  0.0500
 4329TIP3   OH234621   5.646   6.627   0.561 -0.1640 -0.5629  0.0378
 4329TIP3    H134622   5.569   6.677   0.590  0.9635  1.8667 -0.8929
 4329TIP3    H234623   5.610   6.553   0.513 -1.9383 -0.0721  0.5492
 4330TIP3   OH234624   0.840   2.794   7.917 -0.3889  0.0020 -0.0619
 4330TIP3    H134625   0.801   2.835   7.995  0.1593 -1.9542  1.3099
 4330TIP3    H234626   0.800   2.707   7.913 -0.3357  0.0253 -1.9445
 4331TIP3   OH234627   3.598   2.501   7.309 -0.2194 -0.2960  0.6981
 4331TIP3    H134628   3.595   2.424   7.252  1.6221  0.1245 -0.0673
 4331TIP3    H234629   3.653   2.474   7.382 -1.5407 -0.4327  1.6638
 4332TIP3   OH234630   2.426   6.352   6.509 -0.3792 -0.5768 -0.3563
 4332TIP3    H134631   2.485   6.425   6.528 -0.2950 -0.9387  0.9063
 4332TIP3    H234632   2.358   6.390   6.454 -0.0597  0.3387 -0.1436
 4333TIP3   OH234633   4.959   2.245   0.981 -0.3762 -0.1206 -0.2850
 4333TIP3    H134634   4.929   2.175   0.923  1.7636 -1.1098 -0.2834
 4333TIP3    H234635   4.923   2.223   1.067  0.0061 -1.0437 -0.3527
 4334TIP3   OH234636   5.845   5.786   1.251  0.6185  0.0393 -0.3636
 4334TIP3    H134637   5.806   5.835   1.179  1.7066  0.6799 -0.5356
 4334TIP3    H234638   5.897   5.851   1.298 -0.5945 -0.1949  1.4244
 4335TIP3   OH234639   5.940   6.382   8.826 -0.5259 -0.5144  0.2848
 4335TIP3    H134640   6.008   6.449   8.828 -0.5065 -0.5424  1.1462
 4335TIP3    H234641   5.886   6.405   8.751 -0.5255  0.4876  0.5707
 4336TIP3   OH234642   5.713   6.509   6.051  0.4494 -0.2251  0.3142
 4336TIP3    H134643   5.662   6.443   6.098 -0.1087 -0.3533 -0.4528
 4336TIP3    H234644   5.681   6.593   6.085  0.4433 -0.3257  0.5571
 4337TIP3   OH234645   4.632   0.436   0.337 -0.1946  0.4092  0.3550
 4337TIP3    H134646   4.631   0.513   0.280  2.0344  1.2478  1.3578
 4337TIP3    H234647   4.586   0.463   0.416 -1.1135  0.0412 -0.0348
 4338TIP3   OH234648   3.618   6.711   1.657  0.1977 -0.4462 -0.1661
 4338TIP3    H134649   3.608   6.631   1.709  1.4411 -0.2402  0.4271
 4338TIP3    H234650   3.543   6.766   1.681 -0.0045 -0.9311  0.3334
 4339TIP3   OH234651   1.663   5.434   8.332  0.2524 -0.7790  0.3313
 4339TIP3    H134652   1.665   5.355   8.387  0.6909 -1.1848 -0.2455
 4339TIP3    H234653   1.630   5.403   8.248  0.2743 -0.3095  0.1521
 4340TIP3   OH234654   2.652   4.070   7.288  0.0955 -0.1040 -0.2976
 4340TIP3    H134655   2.689   3.982   7.284 -0.0755 -0.2698  1.2653
 4340TIP3    H234656   2.725   4.128   7.270  0.4977 -0.5257 -0.0390
 4341TIP3   OH234657   4.287   6.835   0.080  0.0838 -0.1450 -0.1273
 4341TIP3    H134658   4.360   6.833   0.142  0.6496  0.4309 -0.7560
 4341TIP3    H234659   4.292   6.922   0.040  0.1977 -0.7584 -1.5081
 4342TIP3   OH234660   3.334   5.047   8.785  0.3727 -0.2072 -0.0354
 4342TIP3    H134661   3.384   4.967   8.768 -0.7319 -1.4759  2.2056
 4342TIP3    H234662   3.261   5.043   8.724  0.3315 -0.9240  0.0498
 4343TIP3   OH234663   2.089   2.815   7.160 -0.1736 -0.3591 -0.3752
 4343TIP3    H134664   2.139   2.893   7.138 -1.7512  1.2979  1.4152
 4343TIP3    H234665   2.023   2.808   7.091  1.5591 -1.7408 -1.9805
 4344TIP3   OH234666   3.761   1.540   2.121  0.3805 -0.1436  0.2052
 4344TIP3    H134667   3.789   1.503   2.037  1.7277  1.9453 -0.3673
 4344TIP3    H234668   3.728   1.627   2.099 -2.4695 -0.7918  1.4943
 4345TIP3   OH234669   0.829   1.338   2.249 -0.2061  0.2424 -0.0935
 4345TIP3    H134670   0.846   1.281   2.174  1.2374 -0.2298  0.5437
 4345TIP3    H234671   0.844   1.281   2.325 -0.3953  1.0389  0.5491
 4346TIP3   OH234672   0.401   3.572   7.776  0.1889  0.4566 -0.1895
 4346TIP3    H134673   0.464   3.511   7.815 -0.4834 -0.3427 -0.3195
 4346TIP3    H234674   0.421   3.656   7.817  1.7438  0.3731 -0.6878
 4347TIP3   OH234675   4.241   1.716   8.396 -0.4425 -0.4401 -0.4672
 4347TIP3    H134676   4.271   1.743   8.309 -1.1979 -1.0277 -0.9201
 4347TIP3    H234677   4.317   1.731   8.453  0.7918 -2.0598 -1.5999
 4348TIP3   OH234678   6.147   1.628   8.186  0.8913  0.0817 -0.6499
 4348TIP3    H134679   6.222   1.627   8.246 -1.0493 -0.7257  1.9586
 4348TIP3    H234680   6.145   1.540   8.149  0.6105 -0.2861  0.1958
 4349TIP3   OH234681   0.605   6.242   0.767 -0.0743 -0.3991 -0.1529
 4349TIP3    H134682   0.530   6.273   0.820 -0.4110 -0.4018 -0.6215
 4349TIP3    H234683   0.676   6.234   0.830 -0.5513 -0.6944  0.3633
 4350TIP3   OH234684   4.777   3.530   1.724  0.1073 -0.0891  0.5521
 4350TIP3    H134685   4.747   3.552   1.812 -0.9489 -1.0981  0.4754
 4350TIP3    H234686   4.707   3.475   1.688  1.5791 -1.6940 -0.0274
 4351TIP3   OH234687   5.681   3.198   0.582 -0.2704  0.2407  0.3645
 4351TIP3    H134688   5.615   3.151   0.530 -0.2930  0.9324 -0.2366
 4351TIP3    H234689   5.764   3.175   0.540 -0.3124  1.0316 -0.1838
 4352TIP3   OH234690   3.694   4.981   0.837 -0.1797 -0.2146  0.1805
 4352TIP3    H134691   3.617   4.961   0.890 -1.2589  0.1554 -1.1894
 4352TIP3    H234692   3.706   5.076   0.846  0.8618 -0.4187  1.3116
 4353TIP3   OH234693   3.558   4.836   1.688 -0.2058  0.2717  0.2579
 4353TIP3    H134694   3.463   4.849   1.688 -0.0594  1.5982  1.1483
 4353TIP3    H234695   3.588   4.882   1.767  1.0594 -1.0835  0.5981
 4354TIP3   OH234696   0.682   2.675   8.823 -0.5009  0.6463  0.1064
 4354TIP3    H134697   0.775   2.654   8.813 -0.4381  1.0926 -0.2816
 4354TIP3    H234698   0.673   2.762   8.783 -1.0937  0.5763  0.0869
 4355TIP3   OH234699   4.755   4.503   0.147 -0.5334 -0.0535 -0.2897
 4355TIP3    H134700   4.815   4.447   0.099  0.3158 -0.6428  1.3842
 4355TIP3    H234701   4.713   4.557   0.080  0.9021 -0.5347 -1.6188
 4356TIP3   OH234702   6.792   1.565   8.127  0.0103 -0.4466 -0.2892
 4356TIP3    H134703   6.838   1.602   8.202 -0.3644 -1.2578  0.3550
 4356TIP3    H234704   6.857   1.565   8.056  0.5468 -0.2313  0.1972
 4357TIP3   OH234705   1.631   5.578   1.871  0.0253 -0.3160  0.6153
 4357TIP3    H134706   1.541   5.575   1.840 -0.5329  0.0912  2.1028
 4357TIP3    H234707   1.673   5.645   1.816 -0.1285 -1.5528 -1.0901
 4358TIP3   OH234708   1.128   1.091   7.974  0.4221 -0.7541 -0.0723
 4358TIP3    H134709   1.035   1.068   7.967  0.4743 -0.6282 -1.7153
 4358TIP3    H234710   1.141   1.157   7.905  1.9916 -1.6876 -0.7139
 4359TIP3   OH234711   0.022   3.253   8.624 -0.5616  0.3447 -0.6378
 4359TIP3    H134712   0.023   3.157   8.622  1.0387  0.2669  1.0188
 4359TIP3    H234713  -0.049   3.278   8.565 -0.5268 -1.8373 -1.6908
 4360TIP3   OH234714   1.827   3.851   7.938  0.1958  0.0886 -0.0072
 4360TIP3    H134715   1.760   3.856   8.005  0.2238 -1.3219  0.1617
 4360TIP3    H234716   1.903   3.895   7.976 -0.3884  1.0442  0.0861
 4361TIP3   OH234717   6.622   0.836   7.318  0.2875  0.2157 -0.4432
 4361TIP3    H134718   6.542   0.786   7.310  1.0205 -0.9731 -0.5696
 4361TIP3    H234719   6.692   0.771   7.316  1.2477  1.1958 -0.0597
 4362TIP3   OH234720   6.861   2.915   0.477 -0.4349  0.4794  0.0648
 4362TIP3    H134721   6.922   2.980   0.442 -1.9038  1.6461 -0.4224
 4362TIP3    H234722   6.820   2.959   0.552 -1.7201  0.2796 -0.5030
 4363TIP3   OH234723   0.316   1.165   1.448  0.6315  0.0584 -0.5128
 4363TIP3    H134724   0.346   1.156   1.539  0.9138  0.3101 -0.5800
 4363TIP3    H234725   0.368   1.238   1.413  1.5900 -0.9958 -1.3252
 4364TIP3   OH234726   5.262   2.536   6.518 -0.1879 -0.2831  0.1488
 4364TIP3    H134727   5.242   2.629   6.530 -0.3949 -0.1584 -1.0086
 4364TIP3    H234728   5.356   2.535   6.498 -0.4951 -0.1374 -1.4275
 4365TIP3   OH234729   3.454   3.042   1.036  0.4592 -0.7661  0.7965
 4365TIP3    H134730   3.463   3.089   1.119 -1.9013 -0.6529  1.0755
 4365TIP3    H234731   3.402   2.965   1.059 -1.0454 -0.2585 -0.6943
 4366TIP3   OH234732   4.338   5.405   8.204  0.3972 -0.0837 -0.0277
 4366TIP3    H134733   4.338   5.496   8.233 -0.2810 -0.0044 -0.2677
 4366TIP3    H234734   4.417   5.397   8.151 -0.2061  0.7182 -1.0718
 4367TIP3   OH234735   6.177   3.031   8.148 -0.4523 -0.0655 -0.3560
 4367TIP3    H134736   6.244   2.965   8.165  0.7628  0.8551 -1.3440
 4367TIP3    H234737   6.100   2.980   8.122  0.4197 -1.1183 -0.9900
 4368TIP3   OH234738   1.505   3.814   1.707  0.0428 -0.5647  0.4794
 4368TIP3    H134739   1.438   3.746   1.707 -0.7378  0.1757 -1.1111
 4368TIP3    H234740   1.494   3.858   1.791  0.5760 -2.3597  1.5589
 4369TIP3   OH234741   5.549   0.448   2.210  0.3722 -0.2959  0.0303
 4369TIP3    H134742   5.605   0.386   2.257 -0.1364 -0.7331  0.0661
 4369TIP3    H234743   5.486   0.479   2.275 -1.7794 -2.5841 -0.7940
 4370TIP3   OH234744   5.033   6.330   8.820 -0.0073 -0.0151 -0.1464
 4370TIP3    H134745   5.120   6.294   8.838 -0.4406 -2.1185 -1.8474
 4370TIP3    H234746   5.026   6.328   8.725 -1.1224  2.2046 -0.1637
 4371TIP3   OH234747   1.052   1.062   6.309 -0.9724  0.7362  0.2524
 4371TIP3    H134748   1.059   0.976   6.349  2.6345 -0.0998 -1.7930
 4371TIP3    H234749   0.984   1.052   6.242 -0.6177 -0.5296  0.0632
 4372TIP3   OH234750   2.993   4.291   7.968  0.1679  0.4098  0.1001
 4372TIP3    H134751   3.023   4.200   7.970 -1.7609 -0.2692 -0.0665
 4372TIP3    H234752   3.041   4.331   7.895  1.0092 -0.4637  0.1555
 4373TIP3   OH234753   0.136   5.931   0.678 -0.0432  0.5373  0.1422
 4373TIP3    H134754   0.071   5.999   0.665  0.3865  0.5906 -2.3199
 4373TIP3    H234755   0.119   5.868   0.607  3.3368  1.2469 -1.4893
 4374TIP3   OH234756   4.147   2.067   1.603  0.2786  0.3272  0.2139
 4374TIP3    H134757   4.123   2.108   1.520 -0.1077 -0.4584 -0.0801
 4374TIP3    H234758   4.154   2.139   1.665  0.3622  0.9020 -0.4569
 4375TIP3   OH234759   0.210   6.347   8.611 -0.5785 -0.0047 -0.1358
 4375TIP3    H134760   0.132   6.392   8.579 -0.1299 -1.4230 -3.7155
 4375TIP3    H234761   0.283   6.400   8.580 -0.1094 -0.5617 -0.0071
 4376TIP3   OH234762   1.335   2.196   0.627  0.3579  0.6798 -0.2725
 4376TIP3    H134763   1.376   2.212   0.712  0.5171 -1.4221  0.0982
 4376TIP3    H234764   1.357   2.106   0.606 -2.2582  0.1374 -1.0974
 4377TIP3   OH234765   3.261   4.810   1.332  0.2523 -0.2320 -0.5881
 4377TIP3    H134766   3.343   4.860   1.328  0.1407  0.2355  1.7047
 4377TIP3    H234767   3.195   4.870   1.299  0.4177  0.4991  0.3437
 4378TIP3   OH234768   1.185   0.306   7.536  0.0715  0.3916  0.1042
 4378TIP3    H134769   1.280   0.313   7.543  0.2688 -1.9584  0.3865
 4378TIP3    H234770   1.170   0.264   7.451 -0.5391 -1.4291  1.0631
 4379TIP3   OH234771   1.121   5.775   1.264  0.0115 -0.0307 -0.3708
 4379TIP3    H134772   1.204   5.757   1.219  0.2905  2.1227 -0.8672
 4379TIP3    H234773   1.146   5.794   1.354  0.5971  3.5769 -1.1208
 4380TIP3   OH234774   3.421   3.604   0.943  0.7444 -0.1706  0.2220
 4380TIP3    H134775   3.446   3.695   0.924 -1.0856  0.1313 -0.9288
 4380TIP3    H234776   3.360   3.580   0.874  0.5038 -1.9991  1.0046
 4381TIP3   OH234777   2.163   0.647   6.974  0.3912 -0.4787  0.0880
 4381TIP3    H134778   2.232   0.679   7.033  1.4827 -1.2636 -0.7366
 4381TIP3    H234779   2.118   0.727   6.945  1.2668  0.0917  0.2536
 4382TIP3   OH234780   4.510   4.133   7.280  0.2329 -0.1058  0.0051
 4382TIP3    H134781   4.525   4.140   7.374 -0.3445 -0.2098  0.1083
 4382TIP3    H234782   4.468   4.048   7.268  1.1312 -0.5004 -0.4596
 4383TIP3   OH234783   2.042   6.397   7.651  0.2169  0.1249  0.6879
 4383TIP3    H134784   2.105   6.325   7.655 -0.0301 -0.1043  0.5317
 4383TIP3    H234785   1.976   6.375   7.717 -0.0179  0.0548  0.4305
 4384TIP3   OH234786   3.126   4.828   7.190  0.4640  0.0206 -0.7401
 4384TIP3    H134787   3.117   4.734   7.176 -0.0366  0.1816 -1.6215
 4384TIP3    H234788   3.104   4.867   7.105 -0.3115  0.9807 -0.1206
 4385TIP3   OH234789   2.883   3.740   1.170  0.4625 -0.8315  0.2180
 4385TIP3    H134790   2.933   3.676   1.221  1.2302 -0.9386 -0.6260
 4385TIP3    H234791   2.800   3.749   1.216  2.0689  1.1236  3.0895
 4386TIP3   OH234792   1.710   6.844   0.620 -0.2138 -0.3777  0.1667
 4386TIP3    H134793   1.787   6.892   0.649 -1.0652  0.2584  1.4640
 4386TIP3    H234794   1.739   6.753   0.615  0.4822 -0.2233  1.1382
 4387TIP3   OH234795   4.637   4.656   6.850  0.0088  0.1271  0.8444
 4387TIP3    H134796   4.542   4.646   6.863 -0.3364 -1.1246 -1.8173
 4387TIP3    H234797   4.669   4.566   6.845  1.2615  0.5436  1.2684
 4388TIP3   OH234798   3.211   1.023   7.886 -0.5192  0.1020 -0.4522
 4388TIP3    H134799   3.232   0.938   7.847 -1.3531 -1.2278  1.8064
 4388TIP3    H234800   3.117   1.019   7.902 -0.0830 -0.0069  2.7485
 4389TIP3   OH234801   0.022   0.183   8.012 -0.1048  0.1400  0.2094
 4389TIP3    H134802  -0.065   0.183   7.972  0.7727  0.0489 -1.8692
 4389TIP3    H234803   0.026   0.265   8.062 -1.1515  0.4826 -0.2415
 4390TIP3   OH234804   4.028   5.189   1.761 -0.0811  0.1476  0.1266
 4390TIP3    H134805   4.019   5.238   1.843 -1.0088  0.9110 -0.4066
 4390TIP3    H234806   4.008   5.098   1.786  0.0757  0.2971  0.8241
 4391TIP3   OH234807   4.680   2.989   0.772  0.3197 -0.0375  0.2267
 4391TIP3    H134808   4.774   3.011   0.775 -0.0266  1.6377 -0.3337
 4391TIP3    H234809   4.637   3.072   0.754 -1.5745 -0.0884  3.7064
 4392TIP3   OH234810   1.787   3.393   7.340  0.3303 -0.6860  0.5314
 4392TIP3    H134811   1.807   3.433   7.255  1.5224 -2.3552 -0.0353
 4392TIP3    H234812   1.691   3.385   7.341  0.2163  0.3976 -0.1336
 4393TIP3   OH234813   6.118   2.833   7.683 -0.0194 -0.1884 -0.3127
 4393TIP3    H134814   6.073   2.916   7.699  0.2683 -0.2313  0.8012
 4393TIP3    H234815   6.174   2.850   7.606  0.9716  1.0366  0.6393
 4394TIP3   OH234816   3.419   3.229   6.998  0.6468 -0.2024 -0.0010
 4394TIP3    H134817   3.459   3.310   7.031 -1.3497  0.7088  0.3124
 4394TIP3    H234818   3.443   3.227   6.906 -0.1982  1.3528 -0.2793
 4395TIP3   OH234819   1.523   6.235   1.346  0.3021  0.2625 -0.0912
 4395TIP3    H134820   1.489   6.311   1.393  0.5948  0.5464 -0.3412
 4395TIP3    H234821   1.543   6.171   1.415  0.1832  0.4615  0.1264
 4396TIP3   OH234822   6.530   4.597   0.698 -0.5482 -0.1453  0.1148
 4396TIP3    H134823   6.435   4.588   0.694 -0.5622 -0.3522  0.7573
 4396TIP3    H234824   6.545   4.682   0.738 -0.4753 -0.3223  0.4756
 4397TIP3   OH234825   4.678   5.987   7.371  0.0169 -0.0781  0.1364
 4397TIP3    H134826   4.625   6.019   7.297 -0.7459 -0.4831  0.4969
 4397TIP3    H234827   4.768   5.986   7.338 -0.0107  1.8340 -0.0959
 4398TIP3   OH234828   5.023   4.163   1.149 -0.2111  0.0846 -0.0534
 4398TIP3    H134829   5.117   4.177   1.158 -0.6982  3.2768  1.8596
 4398TIP3    H234830   4.998   4.117   1.230 -0.2542 -1.4063 -0.8853
 4399TIP3   OH234831   1.051   5.832   2.096 -0.1117  0.2421 -0.3823
 4399TIP3    H134832   1.046   5.736   2.098  0.2501  0.2216 -0.4883
 4399TIP3    H234833   1.116   5.852   2.029 -0.4578  0.5751 -0.6249
 4400TIP3   OH234834   5.051   3.945   7.022  0.9171 -0.4870 -0.1675
 4400TIP3    H134835   5.014   3.861   6.995 -0.6185  0.2363 -0.4350
 4400TIP3    H234836   5.070   3.990   6.940 -0.3744  0.2879 -0.0713
 4401TIP3   OH234837   1.225   1.517   7.198 -0.1619  0.2060  0.0671
 4401TIP3    H134838   1.270   1.493   7.279  2.8638  0.3234 -1.4509
 4401TIP3    H234839   1.221   1.613   7.201 -0.2877  0.1984  0.1721
 4402TIP3   OH234840   2.167   0.367   1.149 -0.1988  0.3703  0.7583
 4402TIP3    H134841   2.118   0.443   1.116  0.5585  0.1060 -1.1095
 4402TIP3    H234842   2.246   0.365   1.095  0.9800 -0.3282  2.4359
 4403TIP3   OH234843   4.907   4.185   7.420 -0.1829  0.0409  0.1670
 4403TIP3    H134844   4.929   4.093   7.430  1.6288  0.2470 -1.2224
 4403TIP3    H234845   4.915   4.202   7.325 -2.9905  1.0710  0.0368
 4404TIP3   OH234846   3.002   1.907   1.034  0.3444 -0.1680 -0.0195
 4404TIP3    H134847   2.950   1.897   1.114 -1.3223  3.0667 -0.5189
 4404TIP3    H234848   2.940   1.888   0.963  0.5736  1.0326 -0.5744
 4405TIP3   OH234849   4.079   0.873   0.465  0.3304  0.4041  0.0461
 4405TIP3    H134850   4.035   0.910   0.388  0.8199  0.9118  0.0106
 4405TIP3    H234851   4.060   0.935   0.535  0.9211  0.5785  0.0504
 4406TIP3   OH234852   3.992   4.681   1.802 -0.2219 -0.2157  0.1239
 4406TIP3    H134853   3.927   4.612   1.813  0.0973 -0.7387 -1.0963
 4406TIP3    H234854   4.053   4.669   1.875 -0.4332 -0.9328  0.1869
 4407TIP3   OH234855   2.455   3.166   6.610  0.2092  0.2317  0.1426
 4407TIP3    H134856   2.539   3.186   6.652  0.8357 -0.9592 -0.4986
 4407TIP3    H234857   2.473   3.174   6.517 -1.1860  2.9199  0.0116
 4408TIP3   OH234858   3.715   1.265   0.226 -0.1170 -0.2407  0.1001
 4408TIP3    H134859   3.707   1.359   0.244  0.8214 -0.1644  0.1760
 4408TIP3    H234860   3.662   1.251   0.147  2.1217  0.9387 -1.7317
 4409TIP3   OH234861   0.756   0.303   7.535  0.0647 -0.1272 -0.0557
 4409TIP3    H134862   0.820   0.243   7.572 -1.4565 -2.4175 -0.9160
 4409TIP3    H234863   0.699   0.248   7.481 -2.0526  1.9348 -0.1131
 4410TIP3   OH234864   2.459   6.704   0.232 -0.1166 -0.7034  0.1591
 4410TIP3    H134865   2.366   6.726   0.241 -0.1877 -1.2616  0.8829
 4410TIP3    H234866   2.465   6.662   0.146 -1.1255 -3.4937  1.3526
 4411TIP3   OH234867   0.426   4.163   0.023 -0.4815 -0.0042 -0.1205
 4411TIP3    H134868   0.348   4.138   0.072 -0.5020 -1.8916 -1.0056
 4411TIP3    H234869   0.458   4.242   0.067 -2.0182 -0.0589  1.1928
 4412TIP3   OH234870   2.264   6.073   7.977 -0.3025 -0.4140  0.3597
 4412TIP3    H134871   2.347   6.064   8.022 -0.6843 -1.7390  0.8572
 4412TIP3    H234872   2.260   5.998   7.918 -1.2926 -0.5890  0.6156
 4413TIP3   OH234873   6.709   2.536   0.905  0.2817  0.5249 -0.3942
 4413TIP3    H134874   6.651   2.512   0.977  1.0688  2.2762  0.8679
 4413TIP3    H234875   6.686   2.627   0.884 -0.4520 -0.1498 -2.9108
 4414TIP3   OH234876   6.516   3.932   7.488 -0.7848 -0.4855 -0.4182
 4414TIP3    H134877   6.454   3.997   7.456 -0.4460 -0.1519 -0.3985
 4414TIP3    H234878   6.585   3.982   7.531 -0.8768 -0.8947  0.2251
 4415TIP3   OH234879   0.471   5.638   6.312  0.5096  0.3720 -0.2516
 4415TIP3    H134880   0.449   5.545   6.305 -1.4069  0.6871  0.9158
 4415TIP3    H234881   0.517   5.658   6.230  0.0015 -1.3529 -0.9994
 4416TIP3   OH234882   0.002   6.299   1.346 -0.3398  0.2097  0.2527
 4416TIP3    H134883  -0.061   6.263   1.283  0.3003  0.7439 -0.7374
 4416TIP3    H234884  -0.040   6.290   1.431 -0.4988 -2.1642 -0.0245
 4417TIP3   OH234885   0.046   6.452   0.940 -0.5569  0.1900  0.4595
 4417TIP3    H134886  -0.006   6.502   0.877  1.4066  0.8969 -0.7000
 4417TIP3    H234887   0.121   6.509   0.959  1.1449 -1.8014  0.0330
 4418TIP3   OH234888   1.199   1.715   0.197  0.1831  0.2237  0.2596
 4418TIP3    H134889   1.104   1.715   0.184 -0.1205  1.1008  2.0990
 4418TIP3    H234890   1.218   1.631   0.240  0.4353 -0.4551 -1.1344
 4419TIP3   OH234891   3.501   6.268   6.932 -0.1552  0.1439 -0.0582
 4419TIP3    H134892   3.568   6.211   6.895 -0.5678  0.3260 -1.1299
 4419TIP3    H234893   3.418   6.228   6.904 -0.6632 -1.4865  3.2627
 4420TIP3   OH234894   1.973   0.592   2.281 -0.3829  0.2527 -0.3380
 4420TIP3    H134895   1.999   0.513   2.330 -2.3355 -1.1204 -1.3819
 4420TIP3    H234896   1.887   0.615   2.317  0.5628  2.5733  0.6358
 4421TIP3   OH234897   5.235   4.933   8.157 -0.0041  0.1166 -0.1677
 4421TIP3    H134898   5.150   4.908   8.121  0.0183 -0.0855 -0.0802
 4421TIP3    H234899   5.248   5.023   8.128 -0.7458  0.5341  0.7294
 4422TIP3   OH234900   6.527   6.674   1.394  0.0896  0.3363  0.2229
 4422TIP3    H134901   6.608   6.632   1.424  0.3541  1.9592  1.9132
 4422TIP3    H234902   6.537   6.766   1.419 -0.9908  1.2157 -2.2815
 4423TIP3   OH234903   2.959   1.557   6.415  0.0206 -0.2746 -0.5277
 4423TIP3    H134904   2.950   1.476   6.466  0.7682  0.5796  1.0194
 4423TIP3    H234905   3.036   1.542   6.360  0.6764 -0.3177  0.3789
 4424TIP3   OH234906   0.174   5.469   6.960 -0.8372 -0.4523  0.2615
 4424TIP3    H134907   0.214   5.547   6.921 -0.7832  0.0052  1.2084
 4424TIP3    H234908   0.193   5.399   6.897 -0.9541  0.3013 -0.6418
 4425TIP3   OH234909   4.952   0.888   1.572 -0.0954  0.4803 -0.4400
 4425TIP3    H134910   4.985   0.799   1.563  2.2904  1.0950  1.2688
 4425TIP3    H234911   4.908   0.889   1.657 -0.7981  0.7598 -0.7987
 4426TIP3   OH234912   0.302   3.362   6.829  0.6298 -0.0476  0.2193
 4426TIP3    H134913   0.378   3.309   6.804  0.1412 -1.0975  0.8810
 4426TIP3    H234914   0.327   3.451   6.807  0.8184 -0.6864 -2.5710
 4427TIP3   OH234915   2.922   6.283   1.742  0.0654 -0.0311 -0.2736
 4427TIP3    H134916   2.957   6.370   1.762  1.5485 -0.6762  0.0750
 4427TIP3    H234917   2.878   6.256   1.822  0.9290 -0.2150  0.1464
 4428TIP3   OH234918   1.986   1.473   1.456  0.1943 -0.2434  0.5496
 4428TIP3    H134919   2.028   1.402   1.505  2.0476  0.4558  0.0724
 4428TIP3    H234920   1.992   1.445   1.364 -0.1275  0.0052  0.4522
 4429TIP3   OH234921   0.938   0.308   1.509  0.3618 -0.3879 -0.0630
 4429TIP3    H134922   0.859   0.362   1.510  0.7426  0.1676  0.3109
 4429TIP3    H234923   0.969   0.309   1.599  1.3970  0.3012 -0.4092
 4430TIP3   OH234924   3.936   4.291   6.772 -0.4317 -0.1857  0.7866
 4430TIP3    H134925   3.908   4.325   6.856 -1.1559  2.0622 -0.2892
 4430TIP3    H234926   3.901   4.352   6.708  1.7047 -0.7202 -1.0404
 4431TIP3   OH234927   4.278   3.227   6.826 -0.7481 -0.3980 -0.2033
 4431TIP3    H134928   4.315   3.242   6.913 -0.4377 -0.1134 -0.3857
 4431TIP3    H234929   4.190   3.263   6.831 -0.4839  0.2588 -0.2219
 4432TIP3   OH234930   3.308   0.779   7.192  0.5647 -0.1946 -0.3332
 4432TIP3    H134931   3.254   0.855   7.171 -1.2750 -1.1368  0.6922
 4432TIP3    H234932   3.397   0.813   7.199 -0.4047  2.1825  1.6686
 4433TIP3   OH234933   5.520   0.193   1.836 -0.0361  0.2140 -0.5406
 4433TIP3    H134934   5.602   0.146   1.826  1.0971  2.2860 -1.5797
 4433TIP3    H234935   5.465   0.134   1.888  2.2796 -0.9850  0.7041
 4434TIP3   OH234936   2.275   3.178   0.891  0.6674 -0.6919  0.2657
 4434TIP3    H134937   2.310   3.106   0.943 -0.2136 -0.8388  0.6780
 4434TIP3    H234938   2.198   3.141   0.848  0.0770  0.0545  0.6556
 4435TIP3   OH234939   4.548   1.163   7.305  0.0458  0.7300  0.5727
 4435TIP3    H134940   4.574   1.123   7.388  4.0149 -0.1178 -0.8644
 4435TIP3    H234941   4.509   1.091   7.255 -0.1799  0.6775  0.8176
 4436TIP3   OH234942   1.137   0.460   0.904 -0.2227  0.1532  0.2477
 4436TIP3    H134943   1.118   0.444   0.812  0.2158 -1.2519  0.3767
 4436TIP3    H234944   1.209   0.522   0.904 -0.8699  0.9184 -0.3332
 4437TIP3   OH234945   0.144   4.959   1.456 -0.6331  0.0351 -0.1437
 4437TIP3    H134946   0.099   4.991   1.377  1.2119 -0.4615 -1.4642
 4437TIP3    H234947   0.184   5.037   1.494  0.3281 -0.0307 -0.9813
 4438TIP3   OH234948   1.349   2.547   8.640  0.4564 -0.1057 -0.0908
 4438TIP3    H134949   1.411   2.619   8.625 -0.3135  0.6335  0.1662
 4438TIP3    H234950   1.397   2.485   8.693  0.5154  1.1837  1.4484
 4439TIP3   OH234951   5.147   3.684   7.963 -0.1432  0.6228  0.4717
 4439TIP3    H134952   5.211   3.655   8.028 -0.1394 -0.4598  0.0012
 4439TIP3    H234953   5.172   3.640   7.883 -1.5751  0.0402  0.3108
 4440TIP3   OH234954   4.186   0.219   1.136 -1.3015  0.1560 -0.1363
 4440TIP3    H134955   4.202   0.272   1.057  1.0787  0.7817  0.6976
 4440TIP3    H234956   4.258   0.240   1.195 -2.1464 -1.5008  1.6103
 4441TIP3   OH234957   2.496   4.737   7.506  0.5598 -0.0536 -0.1211
 4441TIP3    H134958   2.465   4.732   7.415 -0.0704 -2.9294  0.1408
 4441TIP3    H234959   2.567   4.673   7.511  0.8001  0.2818  1.3626
 4442TIP3   OH234960   4.755   4.848   2.062 -0.2748  0.5300  0.5428
 4442TIP3    H134961   4.845   4.876   2.078 -0.2039  0.0737  0.9643
 4442TIP3    H234962   4.711   4.927   2.031  0.7179  0.3517 -1.5249
 4443TIP3   OH234963   1.844   1.801   1.938 -0.2555 -0.1280  0.0664
 4443TIP3    H134964   1.840   1.894   1.958 -2.2275 -0.5352  1.8718
 4443TIP3    H234965   1.912   1.794   1.870 -0.9915  2.7678 -1.1265
 4444TIP3   OH234966   1.414   0.901   7.114  0.6468  0.9166  0.4774
 4444TIP3    H134967   1.458   0.959   7.052  0.0385 -0.2279 -1.0612
 4444TIP3    H234968   1.331   0.945   7.133 -0.4372  0.0111 -1.7511
 4445TIP3   OH234969   3.331   6.482   0.758  0.2627  0.0357 -0.4245
 4445TIP3    H134970   3.346   6.404   0.705  1.2596  1.2927 -2.1111
 4445TIP3    H234971   3.405   6.539   0.738 -1.2062  2.0548 -0.5045
 4446TIP3   OH234972   6.051   3.874   7.775  0.0372 -0.1647 -0.5281
 4446TIP3    H134973   5.993   3.902   7.704 -1.0856 -2.0099 -0.4033
 4446TIP3    H234974   6.091   3.793   7.744 -0.5638 -1.0710  0.9391
 4447TIP3   OH234975   1.581   5.254   8.531  0.4570 -0.2641  0.5387
 4447TIP3    H134976   1.502   5.291   8.491  2.0542  2.0080 -0.7694
 4447TIP3    H234977   1.559   5.163   8.549 -1.9935 -0.0699 -1.0266
 4448TIP3   OH234978   0.709   0.783   7.679  0.0048  0.0793  0.6172
 4448TIP3    H134979   0.639   0.849   7.674  1.4144  1.5383 -1.8074
 4448TIP3    H234980   0.665   0.701   7.656 -1.2126  0.7165  0.5559
 4449TIP3   OH234981   2.229   1.924   7.251 -0.2146 -0.7294 -0.7673
 4449TIP3    H134982   2.316   1.925   7.211  0.0632 -0.6665 -0.1801
 4449TIP3    H234983   2.171   1.959   7.184  0.4670  0.7970 -0.6045
 4450TIP3   OH234984   5.150   2.931   1.248 -0.5716  0.3384 -0.4659
 4450TIP3    H134985   5.100   2.899   1.322  0.0551  1.0888  0.3018
 4450TIP3    H234986   5.095   2.998   1.208 -0.1844  1.1715  0.3834
 4451TIP3   OH234987   5.763   0.211   0.975 -0.0810  0.0285 -0.2993
 4451TIP3    H134988   5.796   0.143   0.916 -0.3616 -1.1404  0.8384
 4451TIP3    H234989   5.669   0.212   0.960 -0.3124 -1.1084  0.9307
 4452TIP3   OH234990   0.667   3.244   1.425 -0.4234  0.7667 -0.2172
 4452TIP3    H134991   0.727   3.278   1.492 -0.9057 -1.2684  1.3256
 4452TIP3    H234992   0.648   3.320   1.370  3.7021  1.5398 -0.9712
 4453TIP3   OH234993   1.451   3.231   0.362  0.3205  0.4391  0.0579
 4453TIP3    H134994   1.359   3.212   0.382  0.2731  0.7675  0.1477
 4453TIP3    H234995   1.450   3.318   0.323  0.5081  0.1475 -0.6150
 4454TIP3   OH234996   2.036   0.877   6.927 -0.1793 -0.2575 -0.1741
 4454TIP3    H134997   1.955   0.908   6.887 -0.7867 -1.0584  0.4414
 4454TIP3    H234998   2.038   0.919   7.013  0.2303  0.0117 -0.3078
 4455TIP3   OH234999   3.045   6.385   8.444  0.0489  0.1147  0.0209
 4455TIP3    H135000   3.124   6.422   8.482 -1.1105  1.4653  1.2526
 4455TIP3    H235001   2.983   6.379   8.518 -0.2781 -3.1718 -0.3534
 4456TIP3   OH235002   4.596   6.334   2.469  0.1658  0.9444 -0.2706
 4456TIP3    H135003   4.672   6.351   2.525  0.9669  2.0571 -1.6395
 4456TIP3    H235004   4.625   6.265   2.410 -0.4638  0.2126  0.2623
 4457TIP3   OH235005   4.437   0.127   2.269 -0.0410  0.0054  0.3194
 4457TIP3    H135006   4.516   0.075   2.252 -0.4846 -0.7650  0.5797
 4457TIP3    H235007   4.449   0.206   2.216  0.0420 -0.9390 -1.1125
 4458TIP3   OH235008   2.019   0.396   0.794 -0.2953  0.4999  0.4261
 4458TIP3    H135009   1.956   0.356   0.855 -1.0288  0.3882 -0.3808
 4458TIP3    H235010   2.055   0.470   0.843  0.6583 -0.7604  1.7387
 4459TIP3   OH235011   5.929   3.145   0.456  0.2564  0.1386  0.2427
 4459TIP3    H135012   5.918   3.075   0.392 -0.5000  1.0658 -0.6904
 4459TIP3    H235013   5.925   3.225   0.403 -0.1726  0.9236  1.4334
 4460TIP3   OH235014   3.560   5.787   7.857 -0.3598 -0.1070  0.6491
 4460TIP3    H135015   3.519   5.722   7.800  0.0917  0.7340 -0.6577
 4460TIP3    H235016   3.645   5.748   7.880  0.0776  0.1809 -0.4514
 4461TIP3   OH235017   5.699   3.454   0.708 -0.1494 -0.1766  0.7136
 4461TIP3    H135018   5.728   3.375   0.662 -0.2828  1.0735 -1.6731
 4461TIP3    H235019   5.776   3.510   0.713 -0.2593 -0.0874  1.6312
 4462TIP3   OH235020   1.730   2.188   8.581 -0.3238 -0.2505  0.0796
 4462TIP3    H135021   1.645   2.175   8.624 -0.5765 -0.1252 -0.3758
 4462TIP3    H235022   1.728   2.127   8.507  0.5482 -1.2544  0.8654
 4463TIP3   OH235023   5.576   6.643   0.980  0.3752  0.2956  0.3397
 4463TIP3    H135024   5.657   6.610   0.943 -0.1427 -0.6959  0.0448
 4463TIP3    H235025   5.559   6.725   0.933  0.4283 -0.2568 -0.6811
 4464TIP3   OH235026   3.647   3.296   6.656 -0.3988 -0.0793  0.2423
 4464TIP3    H135027   3.566   3.248   6.677  0.8651 -2.1652  0.6815
 4464TIP3    H235028   3.681   3.251   6.579  1.6783 -1.0293  1.6345
 4465TIP3   OH235029   5.792   2.334   1.848 -0.1534 -0.2097 -0.3041
 4465TIP3    H135030   5.713   2.320   1.796 -0.4857  1.6753 -0.3842
 4465TIP3    H235031   5.783   2.275   1.923 -2.6507  1.3837  0.7662
 4466TIP3   OH235032   3.473   2.195   0.762  0.2582  0.2141 -0.6931
 4466TIP3    H135033   3.514   2.276   0.733 -0.3638  0.1425 -1.8701
 4466TIP3    H235034   3.464   2.143   0.681 -1.1020 -0.2181 -0.2948
 4467TIP3   OH235035   2.556   6.722   7.414 -0.0610  0.5602 -0.3311
 4467TIP3    H135036   2.517   6.670   7.484 -0.3774  0.4997 -0.5458
 4467TIP3    H235037   2.650   6.707   7.421 -0.1935 -0.7246 -0.9137
 4468TIP3   OH235038   5.324   3.423   7.157 -0.1948  0.4042  0.1627
 4468TIP3    H135039   5.352   3.381   7.238  0.7955  0.7091 -0.0109
 4468TIP3    H235040   5.394   3.484   7.135  0.1982 -0.5818 -1.5931
 4469TIP3   OH235041   5.316   5.070   8.544 -0.2743 -0.4452 -0.5657
 4469TIP3    H135042   5.366   5.118   8.477 -0.4913  0.0204 -0.4026
 4469TIP3    H235043   5.252   5.019   8.494  2.0651 -3.2082 -0.9830
 4470TIP3   OH235044   3.005   0.266   6.215 -0.0101 -0.3647  0.0347
 4470TIP3    H135045   2.971   0.337   6.269 -0.6945  0.6266 -1.6203
 4470TIP3    H235046   2.927   0.224   6.179  0.4253 -1.1530 -0.0187
 4471TIP3   OH235047   1.596   5.932   1.383 -0.2433  0.1945 -0.9715
 4471TIP3    H135048   1.596   5.838   1.398 -0.2901  0.3819  0.3750
 4471TIP3    H235049   1.543   5.944   1.304  0.4474 -0.9585 -1.6403
 4472TIP3   OH235050   3.180   2.843   8.689 -0.6053 -0.2648 -0.1795
 4472TIP3    H135051   3.122   2.780   8.645  1.5979 -1.7032 -1.2423
 4472TIP3    H235052   3.155   2.928   8.653 -2.8667 -0.6113  0.3855
 4473TIP3   OH235053   0.207   2.384   8.351 -0.0627  0.3460  0.1021
 4473TIP3    H135054   0.257   2.456   8.391  2.3159 -0.8573 -0.5509
 4473TIP3    H235055   0.273   2.329   8.310 -2.0656 -0.7692 -1.8019
 4474TIP3   OH235056   5.735   3.816   0.793 -0.8362 -0.4985 -0.5065
 4474TIP3    H135057   5.793   3.750   0.755 -2.0596 -1.6083 -0.5199
 4474TIP3    H235058   5.769   3.899   0.759  2.0638 -0.8378  1.2021
 4475TIP3   OH235059   0.242   1.485   7.444  0.4615  0.4402 -0.2666
 4475TIP3    H135060   0.318   1.465   7.390 -0.1483 -1.1045 -0.6067
 4475TIP3    H235061   0.193   1.402   7.449 -0.2834  0.9375  1.4051
 4476TIP3   OH235062   2.512   4.388   8.111  0.1740 -0.4522 -0.0308
 4476TIP3    H135063   2.454   4.347   8.047  0.1926 -0.0244 -0.3237
 4476TIP3    H235064   2.481   4.355   8.195 -1.3844  0.8098 -0.0685
 4477TIP3   OH235065   1.655   5.750   6.828 -0.4859  1.2666  0.1314
 4477TIP3    H135066   1.614   5.748   6.742 -3.4815 -0.5511  1.4468
 4477TIP3    H235067   1.632   5.835   6.865 -0.1082  1.6175 -0.4334
 4478TIP3   OH235068   2.765   6.126   0.116 -0.1007  0.3711  0.4332
 4478TIP3    H135069   2.692   6.087   0.165 -0.7424 -0.4914 -1.1591
 4478TIP3    H235070   2.841   6.072   0.140 -0.7375 -1.1262 -0.7576
 4479TIP3   OH235071   3.705   0.558   2.214  0.2206 -1.2067 -0.0841
 4479TIP3    H135072   3.797   0.583   2.225 -0.4071  1.0980  0.4162
 4479TIP3    H235073   3.658   0.611   2.278 -1.3965 -3.0412  0.3319
 4480TIP3   OH235074   2.338   0.201   8.721 -0.0528 -0.0071 -0.2551
 4480TIP3    H135075   2.307   0.195   8.630  0.0892  1.6875 -0.4562
 4480TIP3    H235076   2.414   0.258   8.716 -0.3310  0.5026  1.0038
 4481TIP3   OH235077   5.365   5.143   1.806  0.2691 -0.0593 -0.1768
 4481TIP3    H135078   5.275   5.112   1.797  0.1280 -0.0408  0.9741
 4481TIP3    H235079   5.369   5.178   1.896  0.7173  2.1981 -0.9939
 4482TIP3   OH235080   5.909   3.665   8.759 -0.4041 -0.2808 -0.1831
 4482TIP3    H135081   5.982   3.709   8.802 -0.0727 -0.8475 -0.1596
 4482TIP3    H235082   5.857   3.736   8.721 -0.8048  0.2475  1.2963
 4483TIP3   OH235083   0.910   1.652   0.076 -0.0951 -0.2324 -0.6504
 4483TIP3    H135084   0.884   1.744   0.074  0.7422  0.0026 -1.6805
 4483TIP3    H235085   0.842   1.609   0.128 -0.2836  1.0238  0.1968
 4484TIP3   OH235086   2.580   2.388   1.359  0.5288 -0.0127 -0.6801
 4484TIP3    H135087   2.630   2.330   1.302  1.7200 -1.4486  1.6443
 4484TIP3    H235088   2.638   2.462   1.376 -1.2846  2.5105 -4.2850
 4485TIP3   OH235089   1.774   4.576   8.300  0.2125 -0.0323  0.2043
 4485TIP3    H135090   1.708   4.576   8.230 -0.0301 -0.2332  0.4308
 4485TIP3    H235091   1.741   4.638   8.365 -0.5122 -1.2286  1.0157
 4486TIP3   OH235092   1.287   3.086   0.751  0.2002  0.7332 -0.4462
 4486TIP3    H135093   1.316   3.047   0.833  0.6518 -0.5800 -1.1898
 4486TIP3    H235094   1.362   3.136   0.720 -0.0720  1.4755  0.0712
 4487TIP3   OH235095   4.342   6.251   0.658 -0.3201  0.3236 -0.3524
 4487TIP3    H135096   4.368   6.245   0.566 -2.1808 -0.3670 -0.8669
 4487TIP3    H235097   4.364   6.166   0.695 -0.5590  0.2326 -0.4227
 4488TIP3   OH235098   4.371   4.428   1.628  0.4651 -0.2753  0.6584
 4488TIP3    H135099   4.430   4.501   1.649  0.1825 -0.0227  0.5804
 4488TIP3    H235100   4.371   4.374   1.707 -0.5445  0.6407  1.3122
 4489TIP3   OH235101   3.161   3.060   6.844  0.1831 -0.2655 -0.1916
 4489TIP3    H135102   3.160   3.009   6.925 -0.8394  0.2098  0.1045
 4489TIP3    H235103   3.205   3.142   6.868 -0.2667 -0.0567 -0.0632
 4490TIP3   OH235104   3.368   1.131   7.474 -0.7635 -0.0614  0.8259
 4490TIP3    H135105   3.404   1.044   7.491  3.4681  1.0111 -1.2000
 4490TIP3    H235106   3.385   1.180   7.554 -0.0198 -0.2947  0.8230
 4491TIP3   OH235107   0.472   1.734   1.509  0.0048  0.4540  0.2889
 4491TIP3    H135108   0.470   1.816   1.559  0.9526  1.3271 -1.0192
 4491TIP3    H235109   0.488   1.666   1.574 -1.3569  1.2253  1.4813
 4492TIP3   OH235110   3.771   1.706   0.038  0.4551 -0.1699 -0.0218
 4492TIP3    H135111   3.848   1.712   0.094  0.5925 -1.2674 -0.0754
 4492TIP3    H235112   3.703   1.668   0.094 -0.8736  3.0752  0.8136
 4493TIP3   OH235113   0.523   0.820   1.356  0.2162  0.2582 -0.5844
 4493TIP3    H135114   0.492   0.730   1.371  1.9782 -0.1449  0.8738
 4493TIP3    H235115   0.501   0.867   1.436 -1.0808  1.3082 -1.4975
 4494TIP3   OH235116   2.010   4.298   6.836  0.1825  0.2137 -0.1215
 4494TIP3    H135117   2.083   4.275   6.894  1.1212  0.4737 -1.1726
 4494TIP3    H235118   2.020   4.240   6.761 -0.2598  0.7704 -0.6196
 4495TIP3   OH235119   4.846   5.608   8.513  0.0427  0.2278  0.1133
 4495TIP3    H135120   4.912   5.542   8.536  0.5664  0.2835 -1.1450
 4495TIP3    H235121   4.897   5.688   8.500 -0.6973  1.2711  2.8371
 4496TIP3   OH235122   2.476   2.264   6.374  0.5358 -0.9926 -0.1556
 4496TIP3    H135123   2.397   2.265   6.428  1.2991 -0.8970  1.0006
 4496TIP3    H235124   2.491   2.171   6.356  1.5583 -1.2677  1.8078
 4497TIP3   OH235125   2.121   6.849   1.743 -0.1451 -0.2583  0.1492
 4497TIP3    H135126   2.095   6.941   1.730 -1.4512 -0.5930  0.2739
 4497TIP3    H235127   2.116   6.810   1.656  0.5840 -0.1819  0.0658
 4498TIP3   OH235128   3.701   0.659   8.304  0.0468 -0.0399  0.3079
 4498TIP3    H135129   3.612   0.684   8.282  0.2621  0.7467  0.3048
 4498TIP3    H235130   3.693   0.571   8.340 -0.6843 -0.1085 -0.0124
 4499TIP3   OH235131   4.721   5.557   2.397  0.0533  0.4179  0.0088
 4499TIP3    H135132   4.736   5.495   2.326  1.2642 -0.3599  0.9093
 4499TIP3    H235133   4.800   5.610   2.401  0.0808  0.3220  0.9041
 4500TIP3   OH235134   5.486   2.699   0.785 -0.2923 -0.3354  0.3495
 4500TIP3    H135135   5.418   2.755   0.747 -0.9753 -0.8090  0.8649
 4500TIP3    H235136   5.466   2.611   0.754  2.1086 -0.1127 -2.4098
 4501TIP3   OH235137   5.488   3.140   1.259  0.1251 -0.2960  0.2688
 4501TIP3    H135138   5.430   3.068   1.281  0.3652  0.3165  3.2905
 4501TIP3    H235139   5.562   3.132   1.320  1.8678  0.5696 -1.5867
 4502TIP3   OH235140   0.138   2.137   7.808 -0.5588 -0.4075 -0.4120
 4502TIP3    H135141   0.139   2.217   7.755  0.3696 -0.5909 -0.7029
 4502TIP3    H235142   0.151   2.067   7.744  0.1652 -0.6625  0.0038
 4503TIP3   OH235143   1.710   2.534   6.969  0.0119  0.5268  0.1918
 4503TIP3    H135144   1.780   2.486   7.013  0.0345  0.1280 -0.2702
 4503TIP3    H235145   1.717   2.507   6.877 -1.5923 -0.5500  0.3531
 4504TIP3   OH235146   2.980   4.794   8.535 -0.9089 -0.1777 -0.2249
 4504TIP3    H135147   2.886   4.812   8.546 -0.7156  0.9206 -0.2524
 4504TIP3    H235148   3.011   4.865   8.480 -0.3648 -1.4566 -1.6125
 4505TIP3   OH235149   4.153   4.420   7.268  0.5015 -0.1791 -0.3961
 4505TIP3    H135150   4.159   4.484   7.197  0.4393 -0.1067 -0.3370
 4505TIP3    H235151   4.239   4.424   7.311  1.1231 -1.4050 -1.4709
 4506TIP3   OH235152   2.508   5.636   6.720  0.0894 -0.4707  0.2904
 4506TIP3    H135153   2.466   5.722   6.728 -1.5780 -0.8280 -2.9910
 4506TIP3    H235154   2.438   5.577   6.695  1.7266 -2.1566 -0.5971
 4507TIP3   OH235155   6.045   4.221   1.174 -0.1266  0.1846 -0.6553
 4507TIP3    H135156   5.976   4.159   1.195  0.0259 -0.0027 -0.7007
 4507TIP3    H235157   6.001   4.305   1.165 -0.0912  0.4736  1.4106
 4508TIP3   OH235158   2.813   3.088   1.998  0.0840 -0.2284  0.0240
 4508TIP3    H135159   2.746   3.106   2.064 -1.0469  1.5190 -1.4908
 4508TIP3    H235160   2.888   3.057   2.048 -0.9721  0.2954  2.0529
 4509TIP3   OH235161   4.183   5.828   7.936 -0.5625  0.1557 -0.1763
 4509TIP3    H135162   4.119   5.769   7.976 -1.5426  1.0121 -0.4324
 4509TIP3    H235163   4.145   5.851   7.851 -1.3920  2.9228  0.8060
 4510TIP3   OH235164   5.586   5.818   0.442  0.1437 -0.1392 -0.0526
 4510TIP3    H135165   5.674   5.854   0.452  0.3462 -0.5563 -0.3058
 4510TIP3    H235166   5.528   5.893   0.454  0.5690  0.3146 -0.7424
 4511TIP3   OH235167   2.046   3.949   8.080 -0.2229  0.3315  0.2134
 4511TIP3    H135168   2.045   4.012   8.152 -0.5304 -0.0024  0.5004
 4511TIP3    H235169   2.101   3.990   8.013  0.4694  0.4234  0.8332
 4512TIP3   OH235170   2.836   6.749   7.346 -0.6182  0.0727  0.3467
 4512TIP3    H135171   2.877   6.810   7.407  0.3637 -0.6258  0.4080
 4512TIP3    H235172   2.795   6.805   7.280  0.0906  0.8103  0.5121
 4513TIP3   OH235173   6.246   2.068   8.140  0.0779 -0.9792 -0.2508
 4513TIP3    H135174   6.201   2.152   8.140  1.4607 -0.2120 -0.4219
 4513TIP3    H235175   6.270   2.053   8.232 -0.1801 -1.2017 -0.2182
 4514TIP3   OH235176   1.366   3.234   1.699  0.4681 -0.2678 -0.1975
 4514TIP3    H135177   1.406   3.299   1.642  0.0886  1.2356  1.1832
 4514TIP3    H235178   1.303   3.283   1.752 -1.4588 -2.1257 -0.5882
 4515TIP3   OH235179   1.432   6.320   7.969  0.1179 -0.1990 -0.6740
 4515TIP3    H135180   1.404   6.229   7.960 -0.8487  0.1278 -1.2457
 4515TIP3    H235181   1.420   6.357   7.881  1.9991  0.0911 -0.8416
 4516TIP3   OH235182   5.105   4.496   8.103  0.0189  0.5187  0.4455
 4516TIP3    H135183   5.088   4.572   8.159  1.3000  1.1309  0.0299
 4516TIP3    H235184   5.075   4.522   8.016  0.5851  0.6111  0.2726
 4517TIP3   OH235185   3.123   2.667   0.863 -0.3394  0.3012  0.5336
 4517TIP3    H135186   3.182   2.597   0.834 -0.7027  0.4528 -0.6398
 4517TIP3    H235187   3.075   2.691   0.784  0.4010  2.4850  0.6900
 4518TIP3   OH235188   2.357   2.623   0.559  0.6334 -0.0611  0.1056
 4518TIP3    H135189   2.425   2.674   0.605  0.3834  1.7714 -1.4304
 4518TIP3    H235190   2.275   2.657   0.593  0.4561 -0.4854  0.1069
 4519TIP3   OH235191   0.263   2.666   8.167 -0.3615  0.1134 -0.2222
 4519TIP3    H135192   0.190   2.651   8.107 -0.8759  2.1732 -0.2073
 4519TIP3    H235193   0.228   2.728   8.231  0.9266 -0.1195  0.7387
 4520TIP3   OH235194   5.769   6.605   6.740  0.2218 -0.3642  0.1487
 4520TIP3    H135195   5.710   6.613   6.665 -0.2146  0.6075  0.5828
 4520TIP3    H235196   5.786   6.695   6.768  0.7331 -0.6904  0.9424
 4521TIP3   OH235197   3.008   0.304   7.826  0.0692  0.0114 -0.2609
 4521TIP3    H135198   2.915   0.323   7.839 -0.2946 -0.0858 -2.3356
 4521TIP3    H235199   3.039   0.274   7.911 -0.8458  3.6759  1.5832
 4522TIP3   OH235200   4.457   6.250   1.629  0.0528  0.3323  0.0041
 4522TIP3    H135201   4.392   6.318   1.648  0.4471  1.0993 -1.3060
 4522TIP3    H235202   4.442   6.228   1.537  2.5068  1.4967 -0.7458
 4523TIP3   OH235203   3.102   1.040   6.941  0.2239 -0.2112 -0.2791
 4523TIP3    H135204   3.068   1.102   6.876  0.5447 -0.8413 -1.0707
 4523TIP3    H235205   3.140   1.095   7.009  1.9219  0.5071 -1.7101
 4524TIP3   OH235206   0.328   3.505   0.283  0.7885 -0.5640  0.2842
 4524TIP3    H135207   0.243   3.490   0.242 -0.1400  0.4217  1.7499
 4524TIP3    H235208   0.389   3.453   0.231 -0.8054 -1.8518 -0.4096
 4525TIP3   OH235209   6.687   6.015   8.038 -0.5946 -0.0567 -0.0759
 4525TIP3    H135210   6.722   6.065   8.111  0.0334 -2.4017  1.3459
 4525TIP3    H235211   6.668   6.080   7.970  0.6082  1.9832  1.4508
 4526TIP3   OH235212   2.485   4.976   7.331  0.4041 -0.0458 -0.1584
 4526TIP3    H135213   2.522   5.041   7.272 -0.6572 -0.0851 -0.8923
 4526TIP3    H235214   2.396   4.962   7.299 -0.0437 -0.4238  1.1603
 4527TIP3   OH235215   3.186   2.088   8.024 -0.5485  0.4597 -0.4532
 4527TIP3    H135216   3.281   2.081   8.022 -0.4001  2.0699 -2.0519
 4527TIP3    H235217   3.158   2.042   7.944 -1.0278  0.8292 -0.4999
 4528TIP3   OH235218   5.318   2.146   7.224 -0.3578 -0.5723 -0.2826
 4528TIP3    H135219   5.397   2.167   7.174 -0.6901 -1.0315 -1.0154
 4528TIP3    H235220   5.345   2.155   7.315  0.4430 -0.3719 -0.5277
 4529TIP3   OH235221   5.509   0.054   6.656  0.2743 -0.1418 -0.2957
 4529TIP3    H135222   5.466   0.104   6.587  0.9295 -0.0369 -0.6413
 4529TIP3    H235223   5.553  -0.017   6.609 -0.2783 -0.7865  0.1432
 4530TIP3   OH235224   0.363   6.509   1.156  0.2082 -0.2134  0.6144
 4530TIP3    H135225   0.382   6.578   1.093 -2.1520  0.8155  0.9106
 4530TIP3    H235226   0.391   6.545   1.240 -1.6374  0.7293  0.8641
 4531TIP3   OH235227   1.902   0.797   0.238  0.0355  0.1063  0.1574
 4531TIP3    H135228   1.977   0.748   0.206 -0.5261 -0.8818  0.3044
 4531TIP3    H235229   1.939   0.864   0.295  0.9059  0.6238 -0.9654
 4532TIP3   OH235230   3.424   4.300   7.963 -0.1329 -0.5317 -0.4118
 4532TIP3    H135231   3.419   4.220   8.015 -0.1917  0.2177  0.7997
 4532TIP3    H235232   3.343   4.302   7.913 -1.1590 -0.1720  1.2034
 4533TIP3   OH235233   6.251   2.397   1.719 -0.4814  0.0947  0.4220
 4533TIP3    H135234   6.180   2.347   1.678  0.1041 -0.0674 -0.4191
 4533TIP3    H235235   6.211   2.436   1.797 -1.3914 -0.3008  0.1665
 4534TIP3   OH235236   3.820   2.216   7.586  0.0059 -0.9631  0.7349
 4534TIP3    H135237   3.827   2.209   7.681  0.7085  1.0788  0.8798
 4534TIP3    H235238   3.803   2.309   7.570  0.2941 -1.1943 -1.1599
 4535TIP3   OH235239   5.204   1.588   0.572  0.9212  0.4940 -0.1779
 4535TIP3    H135240   5.192   1.535   0.651 -1.1198  0.1617 -0.6520
 4535TIP3    H235241   5.283   1.552   0.530  0.9233 -0.5892  0.7280
 4536TIP3   OH235242   1.205   4.953   0.365 -0.5889 -0.8466  0.2173
 4536TIP3    H135243   1.113   4.974   0.379 -0.1426  0.2914  1.6851
 4536TIP3    H235244   1.242   4.944   0.453  0.8623 -0.5355 -0.3188
 4537TIP3   OH235245   4.795   1.833   8.629 -0.1662 -0.1025  0.0285
 4537TIP3    H135246   4.744   1.814   8.708  0.1279  0.9002  0.4888
 4537TIP3    H235247   4.819   1.747   8.594 -3.0045 -0.6400 -0.8005
 4538TIP3   OH235248   3.665   2.623   8.380 -0.8217  0.3505  0.2236
 4538TIP3    H135249   3.610   2.688   8.424 -1.5264  0.1786 -0.3900
 4538TIP3    H235250   3.748   2.625   8.428 -1.7143 -0.1602  1.8623
 4539TIP3   OH235251   0.333   5.070   8.013 -0.0071 -0.0404 -0.5617
 4539TIP3    H135252   0.361   5.143   8.069  0.3550  0.5042 -1.4386
 4539TIP3    H235253   0.238   5.069   8.021  0.0380  0.0712  0.0199
 4540TIP3   OH235254   5.294   0.305   8.051  0.2941  0.3556  0.4813
 4540TIP3    H135255   5.329   0.301   8.140 -1.5351 -1.2278  1.1961
 4540TIP3    H235256   5.239   0.227   8.044  0.9524  0.0564 -2.2997
 4541TIP3   OH235257   5.880   3.650   7.874 -0.0707 -0.1064 -0.5177
 4541TIP3    H135258   5.966   3.632   7.913 -0.9930 -0.6094  1.3930
 4541TIP3    H235259   5.896   3.721   7.813  1.7322 -0.2622 -0.2755
 4542TIP3   OH235260   1.073   3.933   6.169 -0.8249  0.4081  0.0902
 4542TIP3    H135261   1.003   3.964   6.112 -0.5051  0.4480 -0.2873
 4542TIP3    H235262   1.059   3.838   6.174 -0.1198  0.2189 -1.0882
 4543TIP3   OH235263   3.871   4.347   7.017  0.2340  0.2656 -0.0755
 4543TIP3    H135264   3.833   4.426   6.977 -1.2128  0.0989  0.8890
 4543TIP3    H235265   3.884   4.371   7.109 -0.3232 -0.6516  0.2480
 4544TIP3   OH235266   2.860   5.565   2.135  0.0605  0.7013 -0.7363
 4544TIP3    H135267   2.925   5.635   2.137 -0.0713  0.8624 -1.7084
 4544TIP3    H235268   2.896   5.497   2.191  0.5543  1.2312 -0.4061
 4545TIP3   OH235269   2.003   0.017   0.445 -0.0872 -0.3681  0.3094
 4545TIP3    H135270   2.038   0.097   0.406 -0.4700 -0.8153 -0.9833
 4545TIP3    H235271   1.958   0.047   0.524 -0.6589  0.7670 -0.4211
 4546TIP3   OH235272   2.478   3.394   8.841 -0.5311 -0.3165  0.1963
 4546TIP3    H135273   2.509   3.478   8.808 -2.5678  0.5263  0.3112
 4546TIP3    H235274   2.558   3.343   8.854  0.8716  1.9249  1.0529
 4547TIP3   OH235275   2.095   2.754   1.253 -0.3383  0.0270 -0.4115
 4547TIP3    H135276   2.175   2.796   1.285 -0.4442 -0.3540  0.3610
 4547TIP3    H235277   2.126   2.682   1.199 -0.1599  0.4018 -0.8151
 4548TIP3   OH235278   2.485   0.716   1.927 -0.2644 -0.2673  0.0264
 4548TIP3    H135279   2.561   0.725   1.985  0.1147 -0.8276 -0.3738
 4548TIP3    H235280   2.420   0.774   1.964  0.6130  0.7850 -0.0417
 4549TIP3   OH235281   1.901   0.149   0.712  0.2214  0.1099 -0.3043
 4549TIP3    H135282   1.957   0.224   0.696  0.3829  0.1870  0.5743
 4549TIP3    H235283   1.938   0.107   0.790  1.2258 -1.9175 -1.7677
 4550TIP3   OH235284   1.124   2.714   1.833  0.0457 -0.1236 -0.3547
 4550TIP3    H135285   1.106   2.808   1.839  1.0632  0.1734 -1.4943
 4550TIP3    H235286   1.042   2.672   1.857 -0.5853  1.0717 -0.3611
 4551TIP3   OH235287   1.456   5.788   8.328  0.9500  0.2699 -0.0607
 4551TIP3    H135288   1.449   5.880   8.355  1.1210  0.2247  0.1393
 4551TIP3    H235289   1.455   5.792   8.232 -0.6251  0.3533 -0.0648
 4552TIP3   OH235290   4.403   0.219   0.848 -0.0594  0.3088 -0.3488
 4552TIP3    H135291   4.387   0.141   0.794  0.1048  0.8185 -1.1515
 4552TIP3    H235292   4.450   0.186   0.925  1.3910 -0.1816 -1.3960
 4553TIP3   OH235293   2.248   6.834   1.049  0.1036  0.2480  0.4673
 4553TIP3    H135294   2.321   6.825   1.111  0.6144  2.8674  0.3527
 4553TIP3    H235295   2.282   6.891   0.980 -1.8667  1.0517  0.0888
 4554TIP3   OH235296   0.415   6.311   0.981 -0.2962  0.2751  0.4179
 4554TIP3    H135297   0.370   6.350   0.906 -1.7063 -0.4998  0.8130
 4554TIP3    H235298   0.386   6.362   1.056  2.6026  2.2777  0.2962
 4555TIP3   OH235299   6.697   2.289   1.372 -0.3856 -0.3653 -0.1957
 4555TIP3    H135300   6.774   2.309   1.425 -0.1080 -0.1193 -0.6857
 4555TIP3    H235301   6.669   2.202   1.402  1.4236 -1.4909 -1.5465
 4556TIP3   OH235302   0.685   5.650   1.937 -0.0329 -0.1478 -0.0771
 4556TIP3    H135303   0.694   5.744   1.955 -1.5068  0.4195 -1.9703
 4556TIP3    H235304   0.764   5.627   1.888  0.2534  0.1215  0.2497
 4557TIP3   OH235305   6.137   3.530   0.626 -0.4514 -0.1861  0.5885
 4557TIP3    H135306   6.218   3.544   0.674 -0.3682  0.3614  0.2997
 4557TIP3    H235307   6.096   3.454   0.668 -0.6619  0.6315  1.9145
 4558TIP3   OH235308   2.772   6.302   1.377  0.0225  0.2029  0.1373
 4558TIP3    H135309   2.746   6.286   1.286 -1.0993  0.8052  0.3382
 4558TIP3    H235310   2.841   6.238   1.394 -0.0947 -0.2373 -0.9864
 4559TIP3   OH235311   2.650   6.747   6.739 -0.1954  0.5468 -0.0637
 4559TIP3    H135312   2.729   6.776   6.693 -1.6705  1.3143 -2.2839
 4559TIP3    H235313   2.639   6.812   6.810  0.4083  1.2524 -0.5954
 4560TIP3   OH235314   2.246   2.251   6.542 -0.6751 -0.3498  0.2129
 4560TIP3    H135315   2.195   2.332   6.554  0.0465  0.0919  0.3807
 4560TIP3    H235316   2.188   2.194   6.492 -1.3270  0.1486  0.3760
 4561TIP3   OH235317   5.922   1.222   7.644 -0.0190  0.6911  0.6726
 4561TIP3    H135318   6.004   1.268   7.664 -0.4044  0.6503  2.5642
 4561TIP3    H235319   5.865   1.242   7.718 -1.5992  0.4030 -0.4219
 4562TIP3   OH235320   2.252   3.184   0.316  0.0522 -0.0332 -0.1393
 4562TIP3    H135321   2.283   3.272   0.340  1.0368 -0.7950  1.5487
 4562TIP3    H235322   2.175   3.170   0.371 -0.9269  0.2716 -1.3936
 4563TIP3   OH235323   0.070   3.814   0.141 -0.1205 -0.3333  0.2925
 4563TIP3    H135324   0.158   3.796   0.108 -0.3380  1.5921 -1.5378
 4563TIP3    H235325   0.077   3.899   0.184 -1.4061  0.6882 -1.4202
 4564TIP3   OH235326   0.501   4.469   1.969 -0.5399 -0.0690  0.2236
 4564TIP3    H135327   0.567   4.489   1.903 -1.5290  0.5019 -0.6301
 4564TIP3    H235328   0.454   4.551   1.982 -1.5258 -0.6194  0.2870
 4565TIP3   OH235329   5.316   1.445   8.346 -0.1909  0.4542 -0.0345
 4565TIP3    H135330   5.225   1.413   8.343  0.0152 -0.2245  0.7555
 4565TIP3    H235331   5.368   1.372   8.312  0.0613  0.8738 -0.5662
 4566TIP3   OH235332   5.035   0.894   7.221 -0.3331 -0.3634 -0.0790
 4566TIP3    H135333   5.011   0.871   7.310 -2.0033 -0.1425 -0.4282
 4566TIP3    H235334   4.954   0.930   7.183  0.6803  0.7950 -1.2647
 4567TIP3   OH235335   3.511   5.747   0.940 -0.1982 -0.5607  0.7175
 4567TIP3    H135336   3.573   5.794   0.884  0.5650 -3.5641 -1.1971
 4567TIP3    H235337   3.485   5.811   1.006  2.2621  1.8613 -0.4630
 4568TIP3   OH235338   3.909   0.741   8.457  0.4741  0.1456  1.0265
 4568TIP3    H135339   3.887   0.834   8.459  1.9242  0.6423 -1.5772
 4568TIP3    H235340   3.838   0.701   8.406  0.7481  0.1309  0.6560
 4569TIP3   OH235341   0.162   4.184   1.114  0.5197 -0.0546 -0.1306
 4569TIP3    H135342   0.193   4.199   1.025  1.3450 -1.8359 -0.1950
 4569TIP3    H235343   0.122   4.097   1.111 -1.9233  0.9738  0.6475
 4570TIP3   OH235344   0.848   2.387   0.929 -0.1714 -0.2557  0.3709
 4570TIP3    H135345   0.915   2.347   0.874  0.4970  1.5664 -0.2229
 4570TIP3    H235346   0.802   2.314   0.968  2.2682 -1.5971  0.9230
 4571TIP3   OH235347   5.911   3.946   8.008 -0.1208 -0.4859 -0.2891
 4571TIP3    H135348   5.979   3.881   8.027  1.6031  0.3042 -3.1268
 4571TIP3    H235349   5.901   3.943   7.913 -0.0914  3.2038 -0.5550
 4572TIP3   OH235350   2.332   1.019   1.182  0.0661 -0.5323  0.0568
 4572TIP3    H135351   2.372   1.036   1.267  1.2926  2.0830 -0.9364
 4572TIP3    H235352   2.249   1.066   1.185  0.2376 -0.2086 -0.2870
 4573TIP3   OH235353   3.788   3.000   8.789  0.6430 -0.6994 -0.5403
 4573TIP3    H135354   3.700   3.035   8.802  0.6822 -1.0009  0.7383
 4573TIP3    H235355   3.783   2.951   8.707 -1.1962 -3.0571  0.8525
 4574TIP3   OH235356   1.544   2.374   8.736 -0.0685 -0.6469  0.3684
 4574TIP3    H135357   1.534   2.279   8.744  2.3739 -1.1398 -1.3365
 4574TIP3    H235358   1.548   2.390   8.642  0.5867  1.0157  0.6447
 4575TIP3   OH235359   0.873   0.483   8.278  0.1063  0.4716  0.2540
 4575TIP3    H135360   0.859   0.457   8.369 -1.3814  1.5254  0.3667
 4575TIP3    H235361   0.837   0.571   8.273  2.3474  1.4053 -0.7963
 4576TIP3   OH235362   6.028   2.168   8.497  0.0149 -0.0781  0.6831
 4576TIP3    H135363   6.015   2.262   8.510  1.2492  0.0158  1.4451
 4576TIP3    H235364   6.016   2.130   8.584  1.6400 -0.3381  0.8206
 4577TIP3   OH235365   4.854   1.350   1.780 -0.0092 -0.1336 -0.0320
 4577TIP3    H135366   4.805   1.431   1.794 -1.2064 -0.8635  0.1934
 4577TIP3    H235367   4.858   1.309   1.866 -0.4415 -0.8578 -0.3452
 4578TIP3   OH235368   0.681   3.019   7.765 -0.2535 -0.1810  0.3639
 4578TIP3    H135369   0.617   2.981   7.704 -1.1856 -0.4579  1.4657
 4578TIP3    H235370   0.707   2.945   7.821  0.6255  0.0543  0.2761
 4579TIP3   OH235371   3.646   1.654   1.541 -0.1444 -0.7878  0.2821
 4579TIP3    H135372   3.590   1.721   1.501  0.4873 -1.1080 -1.1928
 4579TIP3    H235373   3.709   1.704   1.593 -0.1223 -0.2630 -0.2264
 4580TIP3   OH235374   2.114   2.934   1.725 -0.2787 -0.2015  0.5490
 4580TIP3    H135375   2.027   2.962   1.753  0.2234  0.3687  1.5845
 4580TIP3    H235376   2.121   2.843   1.752 -0.3574 -0.0862  0.9687
 4581TIP3   OH235377   6.450   2.646   1.296 -0.9800 -0.7445  0.0859
 4581TIP3    H135378   6.543   2.671   1.298 -0.9181 -0.8967 -0.6335
 4581TIP3    H235379   6.427   2.635   1.388 -0.8449  1.3276  0.4137
 4582TIP3   OH235380   6.639   0.355   7.596  0.4891 -0.2700  0.5593
 4582TIP3    H135381   6.663   0.415   7.667 -1.2480  1.6390 -0.3297
 4582TIP3    H235382   6.640   0.410   7.518 -1.9447 -1.1620 -0.1834
 4583TIP3   OH235383   3.662   5.516   0.255  1.0382 -0.4630 -0.2053
 4583TIP3    H135384   3.573   5.531   0.285  1.5689  1.7283  0.4234
 4583TIP3    H235385   3.690   5.437   0.302  0.6358  0.8649  2.4194
 4584TIP3   OH235386   4.799   1.885   7.280 -0.3817  0.9119 -0.1593
 4584TIP3    H135387   4.738   1.946   7.239  2.4053  1.8947 -3.3035
 4584TIP3    H235388   4.779   1.800   7.241 -1.2831  0.7103  0.7125
 4585TIP3   OH235389   6.661   4.444   8.100  0.4783  0.3495 -0.1115
 4585TIP3    H135390   6.705   4.520   8.139  0.7876  0.1740 -0.1139
 4585TIP3    H235391   6.724   4.410   8.036 -0.2282  0.9349 -1.1451
 4586TIP3   OH235392   2.679   3.037   7.151 -0.2365  0.2658  0.5874
 4586TIP3    H135393   2.620   2.986   7.095  0.6856 -0.1645 -0.0065
 4586TIP3    H235394   2.742   3.076   7.090  1.7378 -1.4590  1.4229
 4587TIP3   OH235395   0.875   1.536   2.020 -0.2877  0.0370 -0.0923
 4587TIP3    H135396   0.869   1.476   1.946  0.5680 -1.3707  0.9366
 4587TIP3    H235397   0.795   1.521   2.069 -0.6008  0.5762 -0.4288
 4588TIP3   OH235398   4.608   2.239   1.087  0.6641  0.6062 -0.3689
 4588TIP3    H135399   4.605   2.224   0.993  1.2719 -0.4393 -0.2323
 4588TIP3    H235400   4.700   2.234   1.110  0.5760  1.3903  0.2138
 4589TIP3   OH235401   2.330   3.647   6.094 -0.3532 -0.7791 -0.3766
 4589TIP3    H135402   2.279   3.719   6.130  0.6408 -0.9119  1.3772
 4589TIP3    H235403   2.283   3.623   6.013 -1.0705  1.3635 -0.6600
 4590TIP3   OH235404   3.119   5.651   8.758  0.6036  0.0337  0.4706
 4590TIP3    H135405   3.199   5.647   8.811  0.1985 -0.9727  1.0252
 4590TIP3    H235406   3.049   5.625   8.818 -0.0869  0.4729 -0.1331
 4591TIP3   OH235407   6.317   3.497   8.260 -0.3656 -0.5009 -0.4897
 4591TIP3    H135408   6.235   3.539   8.286  0.3182  1.1868 -0.9315
 4591TIP3    H235409   6.381   3.568   8.261  0.9752 -1.6753 -0.7114
 4592TIP3   OH235410   3.846   1.849   6.475 -0.4655  0.2022  0.3405
 4592TIP3    H135411   3.767   1.859   6.421  0.1150 -0.5659 -0.6701
 4592TIP3    H235412   3.918   1.870   6.416  0.2224 -1.2735  0.6269
 4593TIP3   OH235413   3.857   4.288   8.272  0.3002  0.3212 -0.5677
 4593TIP3    H135414   3.932   4.310   8.327  0.2953  0.6564 -0.6916
 4593TIP3    H235415   3.811   4.371   8.259  0.1722  0.2056 -0.8861
 4594TIP3   OH235416   2.013   3.914   0.596 -0.6720  0.0559  0.7082
 4594TIP3    H135417   2.072   3.896   0.523 -0.7362 -0.8776  0.8825
 4594TIP3    H235418   1.927   3.887   0.565 -0.8478  0.4707  0.8203
 4595TIP3   OH235419   3.447   4.900   0.392  0.2468 -0.2531  0.0503
 4595TIP3    H135420   3.416   4.958   0.462  1.4556 -0.1449  0.5233
 4595TIP3    H235421   3.367   4.866   0.352 -0.4744  0.5615  0.7519
 4596TIP3   OH235422   6.311   0.712   8.366  0.0026  0.3042 -0.6590
 4596TIP3    H135423   6.241   0.741   8.307 -0.7048  0.4416  0.2080
 4596TIP3    H235424   6.269   0.711   8.452  0.6934 -0.9831 -0.3239
 4597TIP3   OH235425   6.356   2.705   7.223  0.1011 -0.0462 -0.5217
 4597TIP3    H135426   6.353   2.671   7.134  1.2762 -2.8726  0.4226
 4597TIP3    H235427   6.386   2.632   7.277 -2.1492  1.0111  2.4893
 4598TIP3   OH235428   6.759   6.714   8.274 -0.6293 -0.2923 -0.7560
 4598TIP3    H135429   6.708   6.769   8.214 -0.8136  2.2862  1.5486
 4598TIP3    H235430   6.695   6.687   8.341  0.0589 -1.0684 -0.3991
 4599TIP3   OH235431   0.361   4.168   6.068 -0.3064  0.3950  0.8224
 4599TIP3    H135432   0.382   4.118   5.988 -4.0574 -0.4313  0.2012
 4599TIP3    H235433   0.372   4.105   6.139 -1.8375 -0.4242  0.3734
 4600TIP3   OH235434   4.960   0.657   2.504 -0.2779  0.1037  0.4975
 4600TIP3    H135435   4.977   0.750   2.517 -0.1377  0.2300 -0.5022
 4600TIP3    H235436   4.871   0.654   2.468 -0.0018 -0.0748 -0.1992
 4601TIP3   OH235437   1.451   2.897   1.334  0.2209 -0.3582  0.0823
 4601TIP3    H135438   1.503   2.961   1.286 -0.3865  1.5643  1.8590
 4601TIP3    H235439   1.390   2.949   1.386  0.5970 -2.2783  2.6569
 4602TIP3   OH235440   6.336   5.121   8.070  0.0982 -0.2945  0.2237
 4602TIP3    H135441   6.323   5.215   8.077  1.4209  0.0717 -1.4096
 4602TIP3    H235442   6.427   5.107   8.094  0.5337 -0.8206 -1.5433
 4603TIP3   OH235443   0.116   0.741   1.430  0.1340 -0.4244 -0.1132
 4603TIP3    H135444   0.141   0.698   1.348 -1.1554 -2.7587  0.6149
 4603TIP3    H235445   0.049   0.804   1.405  1.0778  0.2401 -1.0558
 4604TIP3   OH235446   0.032   6.057   6.492  0.3598 -0.1459 -0.2767
 4604TIP3    H135447   0.047   6.050   6.398 -1.1364 -2.0789 -0.4224
 4604TIP3    H235448  -0.029   6.129   6.502  0.4823  0.0279 -0.7885
 4605TIP3   OH235449   1.724   3.752   6.194 -0.5882 -0.1359  0.0708
 4605TIP3    H135450   1.683   3.731   6.278 -0.0149  0.6282  0.5615
 4605TIP3    H235451   1.817   3.730   6.207 -0.3922  0.5466 -0.1572
 4606TIP3   OH235452   2.801   2.577   7.430  0.1600 -0.2470 -1.1167
 4606TIP3    H135453   2.774   2.549   7.342 -0.1112  0.5237 -1.2887
 4606TIP3    H235454   2.896   2.572   7.429  0.1280 -0.9692 -1.2021
 4607TIP3   OH235455   3.422   2.703   0.858  0.0243  0.1656 -0.1437
 4607TIP3    H135456   3.378   2.662   0.784  1.8745 -1.5457 -0.3808
 4607TIP3    H235457   3.471   2.776   0.819 -0.4344  0.3927 -0.3015
 4608TIP3   OH235458   3.369   0.012   1.671  0.1100 -0.2910 -0.4077
 4608TIP3    H135459   3.332   0.100   1.670  1.1544  0.1761 -0.1943
 4608TIP3    H235460   3.314  -0.038   1.611 -1.0567  0.2626  0.1706
 4609TIP3   OH235461   5.995   6.620   6.522 -0.0752 -0.1203 -0.0223
 4609TIP3    H135462   5.936   6.696   6.514  0.3879  0.4278  1.4355
 4609TIP3    H235463   6.082   6.655   6.503  0.1987 -0.1756  1.0819
 4610TIP3   OH235464   1.690   4.384   0.145  0.2638 -0.1776 -0.4800
 4610TIP3    H135465   1.625   4.397   0.214  1.8130  0.0254  1.0062
 4610TIP3    H235466   1.709   4.472   0.113  0.6507 -0.1035 -0.0689
 4611TIP3   OH235467   2.396   3.125   1.353  0.0014  0.3169 -0.1224
 4611TIP3    H135468   2.342   3.203   1.371  1.8331  1.2766  1.6131
 4611TIP3    H235469   2.486   3.156   1.360  0.8023 -2.0562  1.2618
 4612TIP3   OH235470   0.948   0.707   7.213  0.0201 -0.1018  0.0125
 4612TIP3    H135471   0.986   0.733   7.129  1.3883 -0.6999  0.4096
 4612TIP3    H235472   0.958   0.612   7.214  0.8633 -0.0161  1.2241
 4613TIP3   OH235473   3.919   1.259   6.331 -0.1130  0.0990  0.7209
 4613TIP3    H135474   3.839   1.309   6.311  0.0766  0.9557  2.0294
 4613TIP3    H235475   3.987   1.303   6.280 -0.2757  0.0232  0.4323
 4614TIP3   OH235476   2.822   6.293   8.303 -0.0031 -0.2851 -0.0953
 4614TIP3    H135477   2.786   6.205   8.319 -0.1261  0.1799  2.5379
 4614TIP3    H235478   2.868   6.316   8.384  0.7235  1.7722 -1.0214
 4615TIP3   OH235479   2.821   5.302   0.906  0.0585 -0.3058 -0.1510
 4615TIP3    H135480   2.787   5.375   0.854 -1.0859 -0.1786  0.7241
 4615TIP3    H235481   2.868   5.343   0.978  2.0407 -0.4842 -1.2774
 4616TIP3   OH235482   2.653   3.944   6.682  0.1107 -0.1617  0.0790
 4616TIP3    H135483   2.670   4.034   6.710 -0.9547 -0.2331  1.0317
 4616TIP3    H235484   2.658   3.948   6.586 -1.9137  1.3836 -0.0391
 4617TIP3   OH235485   3.418   2.453   1.841  0.2802 -0.2401  0.2142
 4617TIP3    H135486   3.497   2.494   1.877  0.4543  1.1055 -1.5331
 4617TIP3    H235487   3.430   2.359   1.855  2.2781 -0.0821 -0.1305
 4618TIP3   OH235488   1.505   2.517   7.306  0.0679  0.0427 -0.2656
 4618TIP3    H135489   1.478   2.573   7.379  0.8937  2.4949 -1.7349
 4618TIP3    H235490   1.598   2.536   7.295  0.0900 -0.7451 -1.5775
 4619TIP3   OH235491   6.507   1.477   1.867 -0.2079  0.2027 -0.0289
 4619TIP3    H135492   6.520   1.432   1.951 -1.1625 -1.8562 -0.8988
 4619TIP3    H235493   6.485   1.567   1.891  1.1434  0.0924  1.8405
 4620TIP3   OH235494   4.919   5.214   8.439  0.4067  0.0183 -0.2938
 4620TIP3    H135495   4.933   5.270   8.516  1.1425 -0.9856  0.3255
 4620TIP3    H235496   4.889   5.131   8.476 -0.5768 -0.0492 -1.1975
 4621TIP3   OH235497   1.883   2.374   1.686  0.1049  0.2921 -0.2864
 4621TIP3    H135498   1.923   2.451   1.645 -3.5041  1.7519 -1.4567
 4621TIP3    H235499   1.867   2.314   1.613 -1.6990  0.6782 -0.2353
 4622TIP3   OH235500   4.469   4.345   7.093  0.0372  0.2452  0.2137
 4622TIP3    H135501   4.515   4.288   7.154  2.0706 -0.1035 -1.5308
 4622TIP3    H235502   4.392   4.294   7.066  1.1444 -1.2139 -0.3470
 4623TIP3   OH235503   1.210   0.269   6.735 -0.3001 -0.2709  0.1220
 4623TIP3    H135504   1.202   0.329   6.809 -1.3342  1.1612 -1.0975
 4623TIP3    H235505   1.157   0.309   6.666 -2.6472 -3.4793 -0.1706
 4624TIP3   OH235506   5.381   5.130   1.363 -0.2896  0.1887 -0.3102
 4624TIP3    H135507   5.295   5.119   1.403 -0.5406  0.5603 -0.7448
 4624TIP3    H235508   5.422   5.044   1.372 -0.0548  0.4388  1.3891
 4625TIP3   OH235509   4.720   2.813   1.549 -0.1353 -0.3893  0.4909
 4625TIP3    H135510   4.722   2.905   1.574 -3.0383 -0.3643  1.0262
 4625TIP3    H235511   4.736   2.765   1.630 -0.2111 -0.3282  0.5425
 4626TIP3   OH235512   2.780   3.797   7.881  0.6578 -0.5871  0.0603
 4626TIP3    H135513   2.724   3.874   7.878 -0.0818 -1.0526  1.1271
 4626TIP3    H235514   2.852   3.821   7.939  0.4350 -0.6975  0.3816
 4627TIP3   OH235515   5.267   6.012   0.824 -0.1071 -0.3654 -0.6280
 4627TIP3    H135516   5.227   5.980   0.905 -0.0733 -0.9178 -0.8245
 4627TIP3    H235517   5.198   6.004   0.759 -0.0300 -0.2419 -0.7246
 4628TIP3   OH235518   5.846   5.138   1.068  0.0474  0.1272  0.0560
 4628TIP3    H135519   5.778   5.195   1.033  0.5369  0.3781 -0.5026
 4628TIP3    H235520   5.802   5.054   1.083 -0.5522  0.4980  0.3940
 4629TIP3   OH235521   3.283   1.658   6.554 -0.0613  0.1831 -0.1097
 4629TIP3    H135522   3.341   1.586   6.531 -0.2602  0.4734 -1.6972
 4629TIP3    H235523   3.337   1.716   6.607  0.5744 -0.3925 -0.1133
 4630TIP3   OH235524   1.749   2.795   1.236 -0.0268 -0.3978 -0.0547
 4630TIP3    H135525   1.813   2.791   1.164 -0.3971 -1.0888 -0.3627
 4630TIP3    H235526   1.774   2.872   1.286  2.3026 -1.7369  0.9996
 4631TIP3   OH235527   2.544   0.135   8.407  0.1975 -0.3716 -0.1888
 4631TIP3    H135528   2.625   0.131   8.356  0.2970 -1.1210  0.0158
 4631TIP3    H235529   2.567   0.094   8.491  0.0819  0.9648  0.5203
 4632TIP3   OH235530   2.730   5.264   7.641 -0.1446 -0.3615 -0.4886
 4632TIP3    H135531   2.687   5.292   7.721  0.7466 -2.3866  0.7700
 4632TIP3    H235532   2.659   5.253   7.577 -1.4374 -2.5077  1.1854
 4633TIP3   OH235533   1.147   4.840   6.798 -0.2466 -0.4761 -0.0411
 4633TIP3    H135534   1.066   4.875   6.835 -0.8574 -2.1423  0.3014
 4633TIP3    H235535   1.216   4.879   6.850 -0.8648  0.4640  0.0935
 4634TIP3   OH235536   0.385   5.193   6.996 -0.3560 -0.3413 -0.4577
 4634TIP3    H135537   0.455   5.127   6.989  2.2678  1.9706  1.6636
 4634TIP3    H235538   0.327   5.158   7.063 -0.0618 -1.3398 -0.7030
 4635TIP3   OH235539   3.703   1.538   0.268 -0.3248  0.1121  0.2120
 4635TIP3    H135540   3.753   1.619   0.279 -0.2777 -0.1548  2.1899
 4635TIP3    H235541   3.624   1.550   0.319 -0.4691 -0.9739  0.2750
 4636TIP3   OH235542   4.693   2.450   0.807  0.6067 -0.0096 -0.5612
 4636TIP3    H135543   4.616   2.465   0.862  1.3305  1.9729 -0.0271
 4636TIP3    H235544   4.677   2.503   0.729  1.2884  0.1590 -0.5870
 4637TIP3   OH235545   3.569   4.885   8.125 -0.6949 -0.0194 -0.0578
 4637TIP3    H135546   3.538   4.836   8.200  1.5842 -0.6784  0.5068
 4637TIP3    H235547   3.663   4.892   8.137 -0.5804  2.1114 -1.5465
 4638TIP3   OH235548   2.288   6.470   8.768  0.0723 -0.1790 -0.0782
 4638TIP3    H135549   2.222   6.451   8.701 -0.9350  0.4744  0.6883
 4638TIP3    H235550   2.298   6.566   8.765  0.2900 -0.1803  0.4483
 4639TIP3   OH235551   4.326   6.297   2.370  0.7535  0.6703  0.0522
 4639TIP3    H135552   4.415   6.289   2.405  1.8977 -2.0877 -2.9555
 4639TIP3    H235553   4.303   6.389   2.385  3.5320  1.1923  2.1031
 4640TIP3   OH235554   0.804   3.578   1.021 -0.9805  0.0375  0.4054
 4640TIP3    H135555   0.758   3.494   1.028 -0.5498 -0.2171  0.2379
 4640TIP3    H235556   0.886   3.564   1.068 -0.6943  0.2061 -0.0332
 4641TIP3   OH235557   3.406   1.077   1.384  0.3890  0.3401 -0.3061
 4641TIP3    H135558   3.461   1.124   1.447  1.4199  1.2956 -1.8535
 4641TIP3    H235559   3.319   1.076   1.424  1.0039  0.8865  1.1304
 4642TIP3   OH235560   6.565   0.467   1.049  0.3570 -0.5581 -0.3093
 4642TIP3    H135561   6.557   0.521   0.970 -0.7701 -0.9737 -0.5067
 4642TIP3    H235562   6.475   0.455   1.078  0.6365 -1.7545  0.1189
 4643TIP3   OH235563   2.528   1.585   1.184 -0.0347 -0.4569 -0.2704
 4643TIP3    H135564   2.470   1.626   1.121 -0.6363  2.0318  1.7461
 4643TIP3    H235565   2.482   1.593   1.268  1.8776 -1.2105  0.9138
 4644TIP3   OH235566   1.187   6.433   0.678  0.1605  0.3260  0.4414
 4644TIP3    H135567   1.104   6.398   0.646 -0.1825  2.0923 -0.7577
 4644TIP3    H235568   1.200   6.514   0.628  1.9047  0.8355  1.6137
 4645TIP3   OH235569   6.051   3.146   7.667 -0.3893  0.3720  0.7145
 4645TIP3    H135570   5.990   3.218   7.649  0.0747  1.0385  1.7264
 4645TIP3    H235571   6.113   3.149   7.594 -3.3115 -2.3987 -2.2218
 4646TIP3   OH235572   2.904   5.738   0.653  0.0814 -0.1488 -0.0430
 4646TIP3    H135573   2.895   5.653   0.609 -1.4188 -1.9128  3.3142
 4646TIP3    H235574   2.988   5.732   0.698 -0.7495 -0.6444  1.5328
 4647TIP3   OH235575   5.210   1.988   8.245  0.4678 -0.3238  0.2253
 4647TIP3    H135576   5.128   2.036   8.253  0.4637 -0.1762 -0.5785
 4647TIP3    H235577   5.208   1.925   8.317 -0.1071  0.0270  0.5270
 4648TIP3   OH235578   5.924   2.522   2.199 -0.1831 -0.5066  0.0730
 4648TIP3    H135579   6.009   2.498   2.236 -0.0884  0.1416  0.2865
 4648TIP3    H235580   5.862   2.465   2.244  0.0605 -0.5135  0.4056
 4649TIP3   OH235581   3.481   6.852   6.343 -0.8585 -0.0042  0.3882
 4649TIP3    H135582   3.485   6.761   6.371 -0.5464 -0.2647 -0.4461
 4649TIP3    H235583   3.390   6.866   6.317 -0.4044 -0.8896 -1.9474
 4650TIP3   OH235584   6.022   0.957   2.448  0.4392 -0.7366  0.4554
 4650TIP3    H135585   6.042   1.039   2.404  1.3374 -1.5384 -0.6962
 4650TIP3    H235586   5.977   0.983   2.528  0.6487  0.8658  0.0852
 4651TIP3   OH235587   1.350   6.702   1.472  0.5043 -0.6707 -0.0282
 4651TIP3    H135588   1.366   6.796   1.479  0.2464 -0.3186 -2.8622
 4651TIP3    H235589   1.277   6.695   1.410  0.5417 -2.7631  0.0867
 4652TIP3   OH235590   5.452   2.451   0.655  0.3197 -0.3919  0.6151
 4652TIP3    H135591   5.373   2.402   0.677  0.6155 -0.8803  0.6086
 4652TIP3    H235592   5.466   2.433   0.563 -0.6222  1.2302  0.1136
 4653TIP3   OH235593   1.201   0.817   7.729  0.1347 -0.0405 -0.1102
 4653TIP3    H135594   1.110   0.827   7.757 -0.5846 -1.0785 -1.9251
 4653TIP3    H235595   1.248   0.796   7.810 -1.4254 -0.5691  0.7076
 4654TIP3   OH235596   4.677   1.559   1.843  0.3331  0.0925  0.0882
 4654TIP3    H135597   4.721   1.614   1.778  0.8086 -0.1883  0.1661
 4654TIP3    H235598   4.630   1.621   1.899 -0.2850  0.3186 -0.6693
 4655TIP3   OH235599   1.991   6.475   1.456 -0.1129 -0.4398  0.2401
 4655TIP3    H135600   2.014   6.563   1.485  0.1475 -0.9186  1.5698
 4655TIP3    H235601   2.049   6.458   1.382  1.8030 -0.5048  1.6736
 4656TIP3   OH235602   0.908   3.044   8.651  0.1620 -0.5222  0.5715
 4656TIP3    H135603   0.983   2.986   8.639  0.8398  0.4527 -0.1005
 4656TIP3    H235604   0.838   2.987   8.684  1.2254 -1.4287  1.3438
 4657TIP3   OH235605   1.394   5.522   7.758 -0.8177  0.3804  0.0743
 4657TIP3    H135606   1.369   5.479   7.840  0.1104 -2.2173 -0.8985
 4657TIP3    H235607   1.482   5.556   7.775 -0.8492  0.3281  0.3406
 4658TIP3   OH235608   1.391   2.754   6.466  0.0157 -0.4628 -0.7680
 4658TIP3    H135609   1.411   2.677   6.520  0.6223  0.3611  0.2140
 4658TIP3    H235610   1.301   2.740   6.437 -0.5224 -0.6843  0.9106
 4659TIP3   OH235611   3.667   6.027   6.851 -0.3933 -0.0122 -0.1235
 4659TIP3    H135612   3.634   6.040   6.940  0.9598 -0.6920  0.5128
 4659TIP3    H235613   3.669   5.931   6.841  3.8964 -0.2818  0.9839
 4660TIP3   OH235614   6.671   5.872   8.672  0.0229  0.8407 -0.6597
 4660TIP3    H135615   6.683   5.959   8.633 -0.4356  1.0043 -0.4376
 4660TIP3    H235616   6.593   5.880   8.726  0.8361  0.7155  0.5787
 4661TIP3   OH235617   2.689   0.184   1.900  0.5007 -0.4526 -0.0169
 4661TIP3    H135618   2.687   0.260   1.957  0.6475 -0.1703 -0.3836
 4661TIP3    H235619   2.597   0.159   1.891  0.4323 -0.1964 -0.0506
 4662TIP3   OH235620   6.857   2.593   0.124  0.5233  0.2550 -0.0424
 4662TIP3    H135621   6.860   2.538   0.046  1.3116 -0.3459  0.3998
 4662TIP3    H235622   6.842   2.682   0.090 -1.0219 -0.2320 -0.7452
 4663TIP3   OH235623   5.763   5.842   0.154 -0.2630  0.3779  0.4913
 4663TIP3    H135624   5.714   5.771   0.196 -1.5394  0.5830 -0.6032
 4663TIP3    H235625   5.785   5.807   0.067  2.4701 -0.1014  1.2797
 4664TIP3   OH235626   6.222   4.962   8.342  0.2247 -0.3501  0.1544
 4664TIP3    H135627   6.254   5.021   8.274  1.7056 -1.0860  0.1737
 4664TIP3    H235628   6.210   4.878   8.298  1.3431 -0.8753  0.7781
 4665TIP3   OH235629   0.069   5.034   8.018  0.5537  0.1912 -0.4204
 4665TIP3    H135630   0.019   4.952   8.013  0.0614  0.1364  3.1038
 4665TIP3    H235631   0.002   5.103   8.018  0.5455  0.2438  1.8800
 4666TIP3   OH235632   4.632   3.985   7.762  0.4736 -0.2697  0.3351
 4666TIP3    H135633   4.715   3.940   7.774  0.5410 -0.3583 -0.4112
 4666TIP3    H235634   4.582   3.965   7.841  0.2865 -2.1379 -0.2143
 4667TIP3   OH235635   5.615   5.636   0.251  0.0198 -0.0300 -0.2836
 4667TIP3    H135636   5.546   5.701   0.260  0.1137  0.3259 -1.7766
 4667TIP3    H235637   5.609   5.582   0.330 -1.3134  0.5975  0.0670
 4668TIP3   OH235638   6.099   6.766   6.775 -0.3324 -0.7792 -0.7872
 4668TIP3    H135639   6.077   6.677   6.747  1.0308 -1.2154 -0.5814
 4668TIP3    H235640   6.060   6.823   6.709  0.3868 -1.6443 -2.0025
 4669TIP3   OH235641   6.512   6.329   8.041 -0.4039 -0.2669  0.2725
 4669TIP3    H135642   6.523   6.302   8.132 -0.6664  0.0354  0.3954
 4669TIP3    H235643   6.499   6.424   8.045  1.5763  0.0761 -0.2313
 4670TIP3   OH235644   5.182   2.340   0.708  0.1042 -0.4892 -0.4317
 4670TIP3    H135645   5.132   2.418   0.733  0.2512 -0.4390 -0.2970
 4670TIP3    H235646   5.175   2.281   0.783 -1.2085 -1.2003 -1.0725
 4671TIP3   OH235647   2.311   0.451   2.083  0.1702  0.4615  0.7853
 4671TIP3    H135648   2.251   0.506   2.033  1.2471  2.1768  1.2954
 4671TIP3    H235649   2.263   0.431   2.164 -0.5168 -0.0183  0.2754
 4672TIP3   OH235650   6.048   3.124   2.281 -0.1975 -0.1663 -0.1733
 4672TIP3    H135651   6.126   3.178   2.264  1.5349 -2.4582  0.0483
 4672TIP3    H235652   6.000   3.173   2.348  1.1290  1.2254 -0.1767
 4673TIP3   OH235653   5.585   5.956   8.490  0.1406 -0.5678  0.4688
 4673TIP3    H135654   5.648   6.013   8.534  1.5998 -0.6638 -1.3322
 4673TIP3    H235655   5.502   5.974   8.533  0.7551  2.0674  0.7563
 4674TIP3   OH235656   3.362   3.683   7.169  0.0610 -0.1777 -0.1481
 4674TIP3    H135657   3.394   3.767   7.136 -0.4588 -0.0999 -0.4715
 4674TIP3    H235658   3.375   3.622   7.096 -0.4291 -0.1658 -0.2491
 4675TIP3   OH235659   2.688   0.386   8.232  0.4222  0.5228  0.2433
 4675TIP3    H135660   2.723   0.297   8.239 -0.2744  0.2814  0.9191
 4675TIP3    H235661   2.742   0.438   8.292  1.0922  0.6504 -0.4596
 4676TIP3   OH235662   4.179   6.659   7.814 -0.2324  0.2311 -0.4274
 4676TIP3    H135663   4.229   6.654   7.733  3.8343  1.8522  1.7174
 4676TIP3    H235664   4.203   6.580   7.862 -0.2635  0.7184  0.3997
 4677TIP3   OH235665   4.060   2.560   1.514 -0.1634  0.0264 -0.0881
 4677TIP3    H135666   4.100   2.601   1.590 -0.7721  0.5087 -0.0190
 4677TIP3    H235667   4.129   2.559   1.447  0.2654 -0.0852  0.3541
 4678TIP3   OH235668   3.732   1.091   1.050 -0.1898 -0.1868 -0.5675
 4678TIP3    H135669   3.680   1.154   1.000 -0.3127 -1.4241 -2.0950
 4678TIP3    H235670   3.770   1.034   0.983 -0.5158 -2.0528  0.7624
 4679TIP3   OH235671   2.462   0.960   0.372 -0.4937 -0.4974 -0.2851
 4679TIP3    H135672   2.533   0.907   0.337  0.9043  0.3634  1.1423
 4679TIP3    H235673   2.486   1.050   0.351 -1.0320 -0.1721  0.4409
 4680TIP3   OH235674   0.477   1.280   8.201 -0.6481  0.6655 -0.0367
 4680TIP3    H135675   0.543   1.344   8.229  1.4996 -1.4502  0.0564
 4680TIP3    H235676   0.407   1.333   8.163  0.5003  3.1070  1.0495
 4681TIP3   OH235677   0.673   5.367   8.694  0.8750  0.2180  0.3231
 4681TIP3    H135678   0.686   5.429   8.622  0.2751 -2.4974 -2.3904
 4681TIP3    H235679   0.697   5.282   8.656 -2.9532 -1.9203  2.0748
 4682TIP3   OH235680   5.584   2.155   1.279  0.7378  0.3425 -0.2565
 4682TIP3    H135681   5.647   2.206   1.329  1.2091 -0.0309 -0.4597
 4682TIP3    H235682   5.554   2.215   1.210 -0.7571  1.2274  1.1075
 4683TIP3   OH235683   2.489   1.980   7.172  0.3738 -0.8078  0.0566
 4683TIP3    H135684   2.542   2.059   7.186 -0.9775  0.9203 -3.3699
 4683TIP3    H235685   2.548   1.919   7.127  0.3109 -0.0055 -1.1687
 4684TIP3   OH235686   0.842   1.829   6.926 -0.6223  0.3397  0.8102
 4684TIP3    H135687   0.913   1.789   6.876  0.7791 -0.1985  3.0762
 4684TIP3    H235688   0.778   1.759   6.938  0.5559 -0.5126  2.4494
 4685TIP3   OH235689   6.839   0.798   0.651 -1.0490  0.9375 -0.0938
 4685TIP3    H135690   6.762   0.745   0.632 -0.6959 -0.7964  2.7555
 4685TIP3    H235691   6.813   0.850   0.728  0.6332  0.2330  0.9833
 4686TIP3   OH235692   4.525   0.345   2.077 -0.3119  0.4105 -0.7181
 4686TIP3    H135693   4.601   0.379   2.125 -0.5225 -0.1270  0.0111
 4686TIP3    H235694   4.536   0.380   1.988 -0.2805  1.9966 -0.1249
 4687TIP3   OH235695   3.238   3.484   6.525 -0.2517 -0.0403 -0.4948
 4687TIP3    H135696   3.264   3.556   6.469 -1.9868  0.3914 -0.8027
 4687TIP3    H235697   3.192   3.423   6.467  0.9967 -1.3185 -0.1983
 4688TIP3   OH235698   3.059   1.178   0.806  0.2813  0.0566 -0.2143
 4688TIP3    H135699   3.059   1.086   0.834  0.3176 -0.2839 -1.3013
 4688TIP3    H235700   3.141   1.213   0.842  0.8245 -0.6414 -0.7202
 4689TIP3   OH235701   2.095   5.384   0.308 -0.0619 -0.2004  0.1845
 4689TIP3    H135702   2.185   5.407   0.282 -0.5826  0.2342 -1.3558
 4689TIP3    H235703   2.070   5.454   0.368  0.5444 -0.2109  0.4671
 4690TIP3   OH235704   1.983   2.194   7.674 -0.1368  0.1446  0.4362
 4690TIP3    H135705   2.030   2.163   7.596  1.4542  1.1534  0.9441
 4690TIP3    H235706   1.934   2.117   7.705  0.1348 -0.5844 -0.8783
 4691TIP3   OH235707   5.762   2.860   7.176 -0.9704 -0.2062 -0.2108
 4691TIP3    H135708   5.795   2.817   7.255 -0.5976  0.0420 -0.2323
 4691TIP3    H235709   5.767   2.793   7.108 -0.8565 -0.2801 -0.1300
 4692TIP3   OH235710   5.436   1.381   8.613  0.1023  0.3461 -0.1745
 4692TIP3    H135711   5.434   1.392   8.518 -2.3870  0.5990 -0.1534
 4692TIP3    H235712   5.346   1.397   8.642  0.1734 -2.2484  1.9436
 4693TIP3   OH235713   4.494   1.564   7.355  0.5643 -0.2597  0.1032
 4693TIP3    H135714   4.561   1.500   7.332 -0.0856 -1.2999  0.9913
 4693TIP3    H235715   4.459   1.593   7.271  1.9618  0.1633 -0.3728
 4694TIP3   OH235716   4.529   4.650   7.589  0.6894  0.8762  0.0582
 4694TIP3    H135717   4.599   4.695   7.636  1.2199 -1.5304  1.7328
 4694TIP3    H235718   4.573   4.578   7.543 -0.7035 -1.5507  2.2489
 4695TIP3   OH235719   5.240   4.615   7.538  0.6447 -0.1876  0.0816
 4695TIP3    H135720   5.230   4.580   7.449 -2.6012 -1.6482  0.8509
 4695TIP3    H235721   5.307   4.560   7.579 -1.9201 -3.5391  0.1870
 4696TIP3   OH235722   6.103   0.478   7.365 -0.1515 -0.3613  0.0678
 4696TIP3    H135723   6.039   0.412   7.391 -0.0722 -0.0226  1.2164
 4696TIP3    H235724   6.093   0.547   7.431 -0.0665  0.6669 -0.9672
 4697TIP3   OH235725   4.086   5.190   7.508 -0.0675 -0.3066 -0.0484
 4697TIP3    H135726   4.000   5.231   7.499 -0.3806 -0.7400  0.8363
 4697TIP3    H235727   4.091   5.165   7.601 -0.5153 -3.6748 -0.8311
 4698TIP3   OH235728   4.065   0.733   6.623 -0.1916  0.0174  0.3447
 4698TIP3    H135729   4.066   0.768   6.534 -1.9742  1.0103  0.6609
 4698TIP3    H235730   4.048   0.810   6.678  1.3371 -0.5052  1.6008
 4699TIP3   OH235731   3.638   6.862   1.235  0.6952 -0.1720 -0.1058
 4699TIP3    H135732   3.602   6.777   1.257 -0.3939  0.3807  0.2988
 4699TIP3    H235733   3.720   6.868   1.285  0.0401 -0.3829  1.0107
 4700TIP3   OH235734   2.834   2.416   1.900  0.2588  0.1483  0.1790
 4700TIP3    H135735   2.807   2.418   1.808  1.3875  0.4309 -0.1551
 4700TIP3    H235736   2.791   2.337   1.935 -0.6481  0.3563 -0.4277
 4701TIP3   OH235737   3.121   5.450   8.043 -0.1848 -0.5716 -0.1169
 4701TIP3    H135738   3.031   5.462   8.074 -0.0486  1.8214 -0.4857
 4701TIP3    H235739   3.112   5.436   7.949 -0.1498 -0.2658 -0.1633
 4702TIP3   OH235740   1.475   5.462   0.645  0.4417  0.2755 -0.4672
 4702TIP3    H135741   1.474   5.427   0.556  1.0578  1.5569 -0.9997
 4702TIP3    H235742   1.450   5.554   0.635 -1.7248 -0.0739  0.9627
 4703TIP3   OH235743   0.722   6.082   6.772 -0.3053  0.0744 -0.3271
 4703TIP3    H135744   0.720   6.063   6.679 -0.8128 -0.9677 -0.1137
 4703TIP3    H235745   0.643   6.134   6.788 -0.0058  0.6057 -0.5378
 4704TIP3   OH235746   6.034   3.708   0.904  0.1557  0.6426 -0.0583
 4704TIP3    H135747   5.997   3.731   0.819  0.7422 -0.2826 -0.5797
 4704TIP3    H235748   6.121   3.747   0.904  0.1701  0.6134  0.1056
 4705TIP3   OH235749   6.250   1.030   8.144 -0.5926 -0.5880  0.0156
 4705TIP3    H135750   6.329   0.994   8.183 -0.2943 -0.4921 -0.5001
 4705TIP3    H235751   6.183   1.020   8.212 -0.4565 -1.8853 -0.0186
 4706TIP3   OH235752   5.941   0.185   8.794 -0.3299  0.0059  0.3732
 4706TIP3    H135753   5.986   0.238   8.860 -0.9472  1.0650 -0.0287
 4706TIP3    H235754   5.985   0.207   8.712 -1.2659  0.7218  0.0435
 4707TIP3   OH235755   6.123   6.364   7.873  0.3723  0.1538  0.0407
 4707TIP3    H135756   6.189   6.326   7.931  0.6209 -1.0033 -0.9705
 4707TIP3    H235757   6.172   6.425   7.818 -0.0832  2.3621  1.9084
 4708TIP3   OH235758   2.899   3.765   7.462  0.1868 -0.7070 -0.4329
 4708TIP3    H135759   2.913   3.744   7.370 -1.6681  0.4145 -1.0293
 4708TIP3    H235760   2.811   3.730   7.481 -0.9243  2.0405 -0.1103
 4709TIP3   OH235761   5.305   0.836   1.400 -0.3356  0.0951 -0.1357
 4709TIP3    H135762   5.229   0.892   1.387  0.1441  1.3583  2.0543
 4709TIP3    H235763   5.344   0.828   1.313 -1.8692  1.0010 -0.9526
 4710TIP3   OH235764   0.362   4.862   0.492 -0.3007  0.3116  0.2825
 4710TIP3    H135765   0.361   4.914   0.572 -0.2123 -0.0753  0.5359
 4710TIP3    H235766   0.272   4.831   0.483  0.0562 -1.0520  1.1618
 4711TIP3   OH235767   6.684   2.576   6.923 -0.0341  0.1543  1.1921
 4711TIP3    H135768   6.599   2.576   6.879  0.4116 -2.6923  0.1635
 4711TIP3    H235769   6.717   2.665   6.909 -1.8336  0.6620 -0.3641
 4712TIP3   OH235770   5.898   3.307   1.443  0.0810  0.4706 -0.1726
 4712TIP3    H135771   5.862   3.370   1.504 -0.1175  1.4194 -1.2452
 4712TIP3    H235772   5.918   3.358   1.365  1.3213 -0.5142 -0.5315
 4713TIP3   OH235773   5.477   2.235   1.031 -0.5261 -0.3705  0.0130
 4713TIP3    H135774   5.435   2.212   0.948 -1.0694  3.2985 -0.9145
 4713TIP3    H235775   5.422   2.303   1.068  1.5966  0.5996  1.6299
 4714TIP3   OH235776   1.959   1.410   6.300 -0.1546 -0.0680 -0.1969
 4714TIP3    H135777   2.019   1.408   6.226 -1.1229  0.6905 -1.0350
 4714TIP3    H235778   1.970   1.325   6.342  0.5726 -0.4282 -1.0783
 4715TIP3   OH235779   5.077   1.868   0.522 -0.4663  0.4179 -0.2155
 4715TIP3    H135780   5.063   1.863   0.427  0.3553  1.0463 -0.3788
 4715TIP3    H235781   5.133   1.793   0.542  0.6344  1.1509 -0.4839
 4716TIP3   OH235782   5.450   3.339   0.696 -0.3262 -0.0988 -0.4268
 4716TIP3    H135783   5.537   3.373   0.672 -0.8495  0.9865 -0.8691
 4716TIP3    H235784   5.463   3.245   0.708  0.7609 -0.0649 -1.2224
 4717TIP3   OH235785   3.731   3.854   8.572 -0.0089  0.5660 -0.2734
 4717TIP3    H135786   3.657   3.794   8.564 -0.5584  0.9745  1.2635
 4717TIP3    H235787   3.789   3.830   8.501 -1.4851  0.0437 -1.3670
 4718TIP3   OH235788   1.763   1.135   6.445 -0.1790  0.0826 -0.1241
 4718TIP3    H135789   1.831   1.135   6.377 -1.6645  1.4172 -1.6963
 4718TIP3    H235790   1.734   1.044   6.450 -0.0949 -0.0260 -1.3584
 4719TIP3   OH235791   0.050   3.214   8.100 -0.2481 -0.6164  0.0460
 4719TIP3    H135792   0.012   3.268   8.031 -0.2615  1.4416  1.5877
 4719TIP3    H235793  -0.005   3.231   8.177  0.4424 -1.9791  0.8813
 4720TIP3   OH235794   5.956   6.098   1.439 -0.0869 -0.1381  0.2802
 4720TIP3    H135795   6.028   6.157   1.462 -0.5149 -0.1922  1.8480
 4720TIP3    H235796   5.929   6.126   1.351  0.8455  0.8652  0.2959
 4721TIP3   OH235797   3.083   4.635   0.732  0.1974 -0.5232  0.4358
 4721TIP3    H135798   2.990   4.637   0.712  0.6512  1.0695 -1.9549
 4721TIP3    H235799   3.115   4.555   0.691  0.0882 -0.3994  0.1078
 4722TIP3   OH235800   1.398   3.542   1.248 -0.2979 -0.3011 -0.2256
 4722TIP3    H135801   1.470   3.480   1.238 -0.9294 -1.2974  1.0890
 4722TIP3    H235802   1.380   3.572   1.159  0.9043 -0.9756 -0.7217
 4723TIP3   OH235803   4.693   2.134   0.841 -0.1197 -0.1398 -0.1743
 4723TIP3    H135804   4.739   2.207   0.800 -0.9574 -0.5008 -1.8566
 4723TIP3    H235805   4.721   2.057   0.791 -1.1660 -0.6016 -0.0789
 4724TIP3   OH235806   6.460   5.329   8.543 -0.4862  0.3375 -0.5319
 4724TIP3    H135807   6.391   5.266   8.563 -1.7741  1.5913 -0.8833
 4724TIP3    H235808   6.497   5.351   8.628 -1.7797  1.0281 -0.1223
 4725TIP3   OH235809   3.376   3.041   1.966 -0.2160  0.0006 -0.4319
 4725TIP3    H135810   3.398   3.098   1.892 -0.9159  2.7468  1.2849
 4725TIP3    H235811   3.397   3.094   2.043 -0.4808 -2.3257  1.3442
 4726TIP3   OH235812   3.813   3.450   8.477 -0.9371 -0.6431  0.2678
 4726TIP3    H135813   3.860   3.438   8.559 -0.0507  1.2163  0.0876
 4726TIP3    H235814   3.827   3.369   8.428  2.8569  0.0600 -0.1031
 4727TIP3   OH235815   3.901   0.770   7.791 -0.1278 -0.6469 -0.2673
 4727TIP3    H135816   3.890   0.862   7.766  0.4140 -0.8506 -1.3264
 4727TIP3    H235817   3.881   0.722   7.711 -3.6975 -1.6837  1.0420
 4728TIP3   OH235818   3.985   1.942   8.601  0.7965 -0.0182  0.2967
 4728TIP3    H135819   4.075   1.972   8.604  1.0606 -0.7384 -0.1528
 4728TIP3    H235820   3.945   1.990   8.529  1.0078 -0.1759  0.0714
 4729TIP3   OH235821   1.922   2.027   1.202  0.4139 -0.2517 -0.1497
 4729TIP3    H135822   1.921   2.087   1.128  0.6764  0.7006  0.5921
 4729TIP3    H235823   1.984   1.959   1.177  0.4508  0.0266 -0.8265
 4730TIP3   OH235824   3.815   0.182   8.664 -1.0154  0.2431 -0.5470
 4730TIP3    H135825   3.888   0.243   8.653 -1.2836  0.4042 -1.5183
 4730TIP3    H235826   3.849   0.098   8.635 -0.6285 -0.1009  0.8448
 4731TIP3   OH235827   0.049   1.584   7.657  0.1720  0.1160  0.8958
 4731TIP3    H135828   0.025   1.604   7.567  1.0149 -0.0216  0.6344
 4731TIP3    H235829   0.072   1.492   7.657 -0.5151 -0.0711  1.4154
 4732TIP3   OH235830   5.896   3.755   2.059  0.3295  0.5881 -0.0669
 4732TIP3    H135831   5.835   3.713   2.000  1.3058 -1.4333  0.2715
 4732TIP3    H235832   5.881   3.849   2.047 -0.4174  0.2163 -2.4915
 4733TIP3   OH235833   4.344   1.060   0.857  0.3900  0.1104 -0.7505
 4733TIP3    H135834   4.253   1.083   0.876  0.1714 -0.4436 -1.1011
 4733TIP3    H235835   4.350   1.063   0.762 -0.1539 -2.9927 -0.9885
 4734TIP3   OH235836   6.258   4.903   0.529  0.2707  0.4579  0.1570
 4734TIP3    H135837   6.242   4.997   0.530  3.5151  1.1378 -1.3009
 4734TIP3    H235838   6.313   4.887   0.606 -0.9634 -0.4661  0.8929
 4735TIP3   OH235839   1.582   5.742   7.257  0.1845 -0.1907 -0.5720
 4735TIP3    H135840   1.625   5.749   7.343 -0.2882 -1.7335 -0.1680
 4735TIP3    H235841   1.489   5.752   7.276  0.1378  0.3054 -1.0413
 4736TIP3   OH235842   6.715   6.842   7.193  0.4880  0.3472 -0.3249
 4736TIP3    H135843   6.711   6.928   7.236  0.7715  1.6995 -2.7904
 4736TIP3    H235844   6.722   6.863   7.100  1.1468 -2.3811 -0.9645
 4737TIP3   OH235845   1.432   0.393   0.179  0.0048  0.0601 -0.1122
 4737TIP3    H135846   1.415   0.336   0.255  1.4164 -0.2098  0.0231
 4737TIP3    H235847   1.468   0.335   0.113 -1.0781  0.3280 -0.9561
 4738TIP3   OH235848   3.961   1.944   0.842 -0.2528 -0.3941  0.1104
 4738TIP3    H135849   3.900   2.004   0.799  1.0172  2.0433  1.4689
 4738TIP3    H235850   4.040   1.946   0.787 -0.0449 -0.4815  0.4019
 4739TIP3   OH235851   1.028   5.777   0.218 -0.1598 -0.0402  0.1535
 4739TIP3    H135852   0.977   5.853   0.191  0.6301  0.0006 -1.3115
 4739TIP3    H235853   1.108   5.814   0.255 -0.6392 -0.1328  1.3193
 4740TIP3   OH235854   4.907   6.041   7.229  0.9979 -0.2860  0.0408
 4740TIP3    H135855   4.977   6.089   7.275  0.9465 -1.4825  1.4475
 4740TIP3    H235856   4.953   5.978   7.174  1.0644  1.3039 -1.7922
 4741TIP3   OH235857   1.602   0.211   8.507  0.5966 -0.1511  0.5659
 4741TIP3    H135858   1.541   0.275   8.545 -0.6990 -0.8809 -0.1934
 4741TIP3    H235859   1.657   0.183   8.580  1.2988  1.9222  0.8849
 4742TIP3   OH235860   6.415   3.566   1.487  0.1457  0.1905  0.2948
 4742TIP3    H135861   6.499   3.529   1.517 -0.3765 -1.4051 -0.1191
 4742TIP3    H235862   6.351   3.534   1.550 -0.3465  0.2747 -0.1567
 4743TIP3   OH235863   2.187   6.052   1.316 -0.2143  0.7412 -0.2917
 4743TIP3    H135864   2.094   6.040   1.336  0.0323  0.0977  0.5029
 4743TIP3    H235865   2.227   5.967   1.334  0.1664  0.2996 -2.8825
 4744TIP3   OH235866   0.466   5.912   7.994  0.5973  0.2024 -0.3614
 4744TIP3    H135867   0.501   5.839   7.943  0.6693 -0.0714  0.0759
 4744TIP3    H235868   0.485   5.890   8.085  0.4499  0.6760 -0.2087
 4745TIP3   OH235869   4.358   3.383   6.621 -0.5335  0.3368 -0.2538
 4745TIP3    H135870   4.326   3.354   6.706 -0.2031 -0.5513 -0.4170
 4745TIP3    H235871   4.288   3.360   6.560 -0.1227 -0.4564 -0.4343
 4746TIP3   OH235872   0.350   4.280   8.439  0.4386 -0.1124 -0.2214
 4746TIP3    H135873   0.406   4.270   8.362  1.6941  3.1435  0.1145
 4746TIP3    H235874   0.368   4.201   8.491  0.6267 -1.7082 -2.5366
 4747TIP3   OH235875   1.889   3.657   6.715 -0.1646  0.3293 -0.0166
 4747TIP3    H135876   1.904   3.712   6.638  0.6253 -0.3498 -0.3736
 4747TIP3    H235877   1.845   3.579   6.681  0.7625 -0.2632  0.0915
 4748TIP3   OH235878   0.443   4.085   8.611 -0.2322  0.2861  0.0213
 4748TIP3    H135879   0.524   4.049   8.574 -0.7387 -1.9066  0.8816
 4748TIP3    H235880   0.464   4.103   8.702 -0.8380 -0.8104  0.3902
 4749TIP3   OH235881   0.543   5.658   0.981 -0.0220  0.4517  0.2364
 4749TIP3    H135882   0.497   5.676   1.063  0.8753  1.0219  0.6350
 4749TIP3    H235883   0.599   5.735   0.968 -0.8634  0.8267 -1.4362
 4750TIP3   OH235884   2.350   2.554   0.131 -0.1228  0.1411 -0.2003
 4750TIP3    H135885   2.296   2.608   0.073 -0.0887 -2.0822 -2.4717
 4750TIP3    H235886   2.288   2.503   0.182 -0.1679  0.3805 -0.0172
 4751TIP3   OH235887   2.837   2.481   1.435 -0.3226 -0.1157 -0.0935
 4751TIP3    H135888   2.902   2.414   1.413  0.3427  0.7319 -0.7635
 4751TIP3    H235889   2.885   2.564   1.430 -0.9367  0.3805  1.4577
 4752TIP3   OH235890   4.621   1.819   7.469  0.3172  0.0073 -0.5817
 4752TIP3    H135891   4.708   1.825   7.430 -0.0854  1.9642 -1.3118
 4752TIP3    H235892   4.580   1.745   7.425  1.1794 -0.1303 -1.1721
 4753TIP3   OH235893   1.376   3.649   8.225 -0.1788  0.7789 -0.1750
 4753TIP3    H135894   1.401   3.572   8.175 -0.3041  0.9298 -0.4722
 4753TIP3    H235895   1.282   3.639   8.240  0.2375 -0.4762  2.1197
 4754TIP3   OH235896   2.160   3.357   7.836 -0.1094 -0.7049 -0.3351
 4754TIP3    H135897   2.167   3.450   7.856 -1.6690 -0.7956  0.8853
 4754TIP3    H235898   2.080   3.349   7.784  1.5998 -1.0474 -3.1268
 4755TIP3   OH235899   2.729   5.367   6.639  0.3951  0.2587  0.1455
 4755TIP3    H135900   2.638   5.344   6.619 -0.1556  1.1712  1.4985
 4755TIP3    H235901   2.772   5.371   6.553 -0.6374 -0.9437 -0.4601
 4756TIP3   OH235902   6.567   1.006   0.401  0.0112  0.4050 -0.6024
 4756TIP3    H135903   6.524   1.073   0.347  1.7721  1.4047 -0.8409
 4756TIP3    H235904   6.499   0.977   0.462 -1.4453  0.7472 -1.9795
 4757TIP3   OH235905   6.356   4.691   8.432 -0.4253 -0.1486  0.2141
 4757TIP3    H135906   6.418   4.764   8.443  0.4113 -1.0076  1.4744
 4757TIP3    H235907   6.330   4.695   8.340 -0.5238  1.8277  0.2981
 4758TIP3   OH235908   2.466   6.802   8.204 -0.5627  0.2169  0.7877
 4758TIP3    H135909   2.481   6.729   8.265  1.3263  1.0065  1.3545
 4758TIP3    H235910   2.497   6.879   8.252 -0.0185  1.0134 -0.7749
 4759TIP3   OH235911   6.020   4.202   6.952  0.0492  0.2997  0.4575
 4759TIP3    H135912   5.952   4.136   6.960  0.2536  0.0630  0.2751
 4759TIP3    H235913   6.030   4.215   6.857 -0.2739  0.8896  0.4965
 4760TIP3   OH235914   3.882   0.606   8.732 -0.2798 -0.2370  0.3787
 4760TIP3    H135915   3.885   0.517   8.698  0.7652 -0.2396  0.4436
 4760TIP3    H235916   3.942   0.655   8.676 -0.3318  0.2705  0.7573
 4761TIP3   OH235917   0.595   4.897   7.492  0.2936 -0.6674 -0.1230
 4761TIP3    H135918   0.535   4.908   7.565 -1.7794 -0.6052 -1.7292
 4761TIP3    H235919   0.674   4.860   7.531 -0.2555  0.5023  2.2867
 4762TIP3   OH235920   3.109   6.249   7.697  0.2559 -0.2079 -0.0740
 4762TIP3    H135921   3.129   6.326   7.645  1.5594 -1.6129 -1.7512
 4762TIP3    H235922   3.049   6.281   7.764  2.2130  2.6493  0.4940
 4763TIP3   OH235923   2.986   3.176   7.667 -0.0429 -0.5187  0.3163
 4763TIP3    H135924   3.076   3.165   7.638 -0.3340  0.1148 -0.8560
 4763TIP3    H235925   2.988   3.253   7.724 -0.1180  0.5037 -1.0298
 4764TIP3   OH235926   1.194   4.115   0.486 -0.2732 -0.6844  0.1881
 4764TIP3    H135927   1.153   4.117   0.572 -0.5139 -0.1961  0.0636
 4764TIP3    H235928   1.261   4.183   0.489  0.4825 -1.4142  0.3597
 4765TIP3   OH235929   4.010   3.854   6.673  0.2146  0.1128  0.0106
 4765TIP3    H135930   3.949   3.827   6.604  0.4476  0.4827 -0.3444
 4765TIP3    H235931   4.096   3.836   6.635  0.3288 -0.9320  0.7205
 4766TIP3   OH235932   5.979   0.784   6.518  0.6790 -0.1927 -0.0767
 4766TIP3    H135933   5.960   0.692   6.537 -0.8350 -0.6070 -3.0564
 4766TIP3    H235934   6.074   0.790   6.520  0.7889 -1.6580  0.7574
 4767TIP3   OH235935   0.620   2.815   0.918  0.3312  0.5364  0.1139
 4767TIP3    H135936   0.624   2.763   0.837  0.3945 -0.3209  0.6575
 4767TIP3    H235937   0.588   2.754   0.984  2.4956  0.5662  1.2584
 4768TIP3   OH235938   5.239   3.608   6.651 -0.3296 -0.2611  0.6432
 4768TIP3    H135939   5.180   3.677   6.683 -1.0473 -0.7112  0.3122
 4768TIP3    H235940   5.299   3.655   6.593  0.3419  0.3849  1.8114
 4769TIP3   OH235941   2.704   5.857   6.338  0.0776 -0.3672  0.0709
 4769TIP3    H135942   2.769   5.926   6.325  1.1101 -1.5120 -1.1467
 4769TIP3    H235943   2.622   5.897   6.310  0.2837  0.9748  1.2513
 4770TIP3   OH235944   1.783   5.349   1.768 -0.3030 -0.2854  0.5927
 4770TIP3    H135945   1.837   5.308   1.835 -0.0366  0.7759  1.0485
 4770TIP3    H235946   1.731   5.413   1.816  0.2639  0.8512 -0.2740
 4771TIP3   OH235947   1.184   3.151   7.380 -0.2173 -0.4017 -0.2844
 4771TIP3    H135948   1.252   3.148   7.448  0.7263  1.6927 -1.0529
 4771TIP3    H235949   1.231   3.133   7.298 -0.6492  0.6698 -0.7805
 4772TIP3   OH235950   6.795   0.408   2.051 -0.2407 -0.0494 -0.1666
 4772TIP3    H135951   6.774   0.408   2.144 -1.1472  0.4503 -0.3588
 4772TIP3    H235952   6.891   0.402   2.048 -0.2357 -0.6424  0.7752
 4773TIP3   OH235953   3.356   1.481   0.162  0.0526 -0.3211 -0.3099
 4773TIP3    H135954   3.417   1.468   0.235  1.6188  1.0568 -1.3118
 4773TIP3    H235955   3.287   1.416   0.177  1.8697 -2.1283  0.7453
 4774TIP3   OH235956   6.249   0.093   0.134  0.0637 -0.3903 -0.1087
 4774TIP3    H135957   6.213   0.170   0.091  0.1473 -0.3614 -0.1257
 4774TIP3    H235958   6.325   0.069   0.082  0.6405  0.1210  0.4770
 4775TIP3   OH235959   3.896   4.489   7.251 -0.2380 -0.6448  0.6056
 4775TIP3    H135960   3.982   4.450   7.265 -0.1894 -1.2369 -1.1861
 4775TIP3    H235961   3.903   4.577   7.290  1.1099 -0.7338  0.6193
 4776TIP3   OH235962   1.404   6.266   8.253  0.6397 -0.3222 -0.0144
 4776TIP3    H135963   1.375   6.346   8.296  1.9750  0.1131  0.1365
 4776TIP3    H235964   1.427   6.294   8.164  2.0911 -0.2824  0.3364
 4777TIP3   OH235965   3.494   1.855   6.602 -0.2110 -0.3488 -0.0534
 4777TIP3    H135966   3.534   1.882   6.519 -1.0055 -1.2807 -0.7572
 4777TIP3    H235967   3.446   1.932   6.632 -0.0917 -0.0714 -0.5675
 4778TIP3   OH235968   6.519   1.189   8.718  0.4331 -0.2020  0.6161
 4778TIP3    H135969   6.570   1.244   8.778 -1.2491  1.6977  0.4216
 4778TIP3    H235970   6.556   1.208   8.631  0.5694 -0.1963  0.6761
 4779TIP3   OH235971   2.119   1.516   6.847 -0.1277  0.5406  0.0312
 4779TIP3    H135972   2.198   1.569   6.853 -0.1212  0.4867  0.4812
 4779TIP3    H235973   2.111   1.476   6.934  0.4366 -1.0029 -0.5930
 4780TIP3   OH235974   0.031   6.656   7.320  0.4472 -0.0136  0.5443
 4780TIP3    H135975   0.042   6.645   7.414  0.2057 -0.9840  0.4697
 4780TIP3    H235976   0.002   6.747   7.310 -2.8107 -0.7845  1.7087
 4781TIP3   OH235977   6.433   0.780   0.009  0.0938 -0.3956  0.0153
 4781TIP3    H135978   6.502   0.768  -0.057 -0.3208  0.8859 -0.6864
 4781TIP3    H235979   6.464   0.851   0.064 -0.4935 -0.0504 -0.0866
 4782TIP3   OH235980   0.958   6.146   1.629 -0.3970 -0.0009 -0.1267
 4782TIP3    H135981   0.896   6.219   1.629 -2.5338 -1.7282 -0.0092
 4782TIP3    H235982   0.936   6.096   1.708  2.8061  0.5682  1.2939
 4783TIP3   OH235983   1.642   0.658   8.033 -0.0988  0.8448 -0.2031
 4783TIP3    H135984   1.559   0.646   8.079  0.2118 -1.3989 -0.1016
 4783TIP3    H235985   1.707   0.662   8.104  0.4162 -2.9191 -0.2483
 4784TIP3   OH235986   0.357   4.086   1.319 -0.3824 -0.5725  0.0958
 4784TIP3    H135987   0.356   3.999   1.279 -0.6862 -0.4662 -0.1316
 4784TIP3    H235988   0.268   4.119   1.307  0.4828  1.0607 -2.6957
 4785TIP3   OH235989   1.139   0.158   5.983 -0.2715 -0.0557 -0.5664
 4785TIP3    H135990   1.134   0.179   5.890 -1.0521 -0.7572 -0.7042
 4785TIP3    H235991   1.054   0.119   6.003  0.3376 -1.0721  0.1451
 4786TIP3   OH235992   5.476   4.145   7.450 -0.4948  0.4421 -0.3352
 4786TIP3    H135993   5.384   4.122   7.436 -0.0904 -0.9972 -0.8384
 4786TIP3    H235994   5.511   4.072   7.502 -0.2800  2.3321  2.3511
 4787TIP3   OH235995   0.727   5.882   1.026  0.5538  0.0130  0.7119
 4787TIP3    H135996   0.660   5.937   1.067  2.2824  1.3580  1.8855
 4787TIP3    H235997   0.809   5.910   1.067  1.7753 -2.0117 -0.2038
 4788TIP3   OH235998   5.039   1.326   0.194 -0.4884 -0.0619  0.4316
 4788TIP3    H135999   5.060   1.391   0.261  0.7695 -1.3635  1.3665
 4788TIP3    H236000   4.982   1.263   0.240  1.1729 -1.4938  0.6419
 4789TIP3   OH236001   0.685   6.300   7.137  0.7404  0.1051  0.4125
 4789TIP3    H136002   0.749   6.316   7.067 -0.2800  0.0261 -0.5751
 4789TIP3    H236003   0.605   6.342   7.105 -0.1683 -1.2649  0.8268
 4790TIP3   OH236004   1.764   6.027   1.716 -0.1421 -0.1586  0.6282
 4790TIP3    H136005   1.705   6.101   1.701 -1.2338 -1.2321 -0.6478
 4790TIP3    H236006   1.837   6.064   1.765 -0.7705  1.7031  0.2352
 4791TIP3   OH236007   4.797   6.652   7.647 -0.3330 -0.0022  0.1887
 4791TIP3    H136008   4.722   6.711   7.635 -1.3710 -1.4739 -0.9134
 4791TIP3    H236009   4.862   6.682   7.583 -0.3402  0.7107  0.5109
 4792TIP3   OH236010   2.753   0.294   0.001 -0.2968 -0.0498  0.0368
 4792TIP3    H136011   2.825   0.235   0.022  0.7332  0.2811 -2.2475
 4792TIP3    H236012   2.778   0.333  -0.082 -2.4272  1.2520 -0.0646
 4793TIP3   OH236013   0.693   5.906   2.083  0.2255  0.6458  0.0421
 4793TIP3    H136014   0.774   5.948   2.114  1.2711 -0.2846 -1.2899
 4793TIP3    H236015   0.635   5.907   2.159  1.2031  2.0340  0.8216
 4794TIP3   OH236016   6.233   0.685   8.624 -0.3386  0.0113 -0.4202
 4794TIP3    H136017   6.249   0.729   8.708 -0.0143 -0.6106 -0.1469
 4794TIP3    H236018   6.139   0.673   8.621 -0.7169  2.6305 -1.4858
 4795TIP3   OH236019   2.725   3.407   7.142  0.2015 -0.4730 -0.6418
 4795TIP3    H136020   2.756   3.361   7.220 -1.0206  0.2386  0.2967
 4795TIP3    H236021   2.660   3.349   7.105  0.3079 -0.5158 -0.7623
 4796TIP3   OH236022   3.346   3.536   0.574  0.1022 -0.0107 -0.2285
 4796TIP3    H136023   3.432   3.568   0.549  0.6171 -1.0051  0.2064
 4796TIP3    H236024   3.333   3.459   0.519  0.3219 -0.9641  1.0129
 4797TIP3   OH236025   4.936   4.994   8.593 -0.6201 -0.4768 -0.2498
 4797TIP3    H136026   4.934   4.909   8.550 -0.6004 -0.6996  0.1814
 4797TIP3    H236027   5.029   5.016   8.599 -0.5413 -1.0278  0.7922
 4798TIP3   OH236028   3.882   3.057   7.923 -0.2013  0.1132  0.1278
 4798TIP3    H136029   3.808   3.078   7.866  0.0630  1.0370  0.1225
 4798TIP3    H236030   3.915   3.142   7.953 -0.9240 -0.3297  2.4274
 4799TIP3   OH236031   6.732   2.653   1.324 -0.4899 -0.0754  0.5154
 4799TIP3    H136032   6.760   2.687   1.408  0.2170 -1.3186  0.8177
 4799TIP3    H236033   6.809   2.607   1.290 -0.4097  1.3138 -1.3213
 4800TIP3   OH236034   2.631   1.891   1.161 -0.1825 -0.2910 -0.3981
 4800TIP3    H136035   2.702   1.841   1.202 -1.5357 -1.7048  0.3358
 4800TIP3    H236036   2.674   1.942   1.093  1.3952 -1.9333 -0.7085
 4801TIP3   OH236037   5.256   4.690   1.060  0.4419  0.9830 -0.3618
 4801TIP3    H136038   5.312   4.762   1.033 -0.1495  0.8438 -2.0443
 4801TIP3    H236039   5.169   4.729   1.070  0.7366  1.1602  2.0507
 4802TIP3   OH236040   5.910   1.894   1.435 -0.5851  0.1376 -0.0993
 4802TIP3    H136041   5.865   1.978   1.447 -1.7700 -0.0753 -2.4693
 4802TIP3    H236042   5.979   1.913   1.372 -1.3345 -0.7822 -1.2326
 4803TIP3   OH236043   0.798   3.725   7.549 -0.5689 -0.4914  0.5697
 4803TIP3    H136044   0.730   3.659   7.532 -1.1391  0.2746 -0.2259
 4803TIP3    H236045   0.759   3.782   7.616 -2.0751  1.7650 -2.0108
 4804TIP3   OH236046   0.843   1.163   1.110  0.2845  0.2745  0.9006
 4804TIP3    H136047   0.836   1.156   1.015  2.0479 -0.8582  0.8053
 4804TIP3    H236048   0.798   1.084   1.143  1.1178 -0.2040  0.9103
 4805TIP3   OH236049   2.664   6.400   7.385  0.6887  0.2994  0.1695
 4805TIP3    H136050   2.720   6.457   7.332 -1.0211 -0.1340 -2.3000
 4805TIP3    H236051   2.672   6.434   7.474  1.9786  2.5431 -0.7226
 4806TIP3   OH236052   2.753   0.740   8.314 -0.2913 -0.3031 -0.0197
 4806TIP3    H136053   2.842   0.709   8.299  0.1654  0.7872  0.3286
 4806TIP3    H236054   2.725   0.774   8.228  1.0233  2.6989  0.5879
 4807TIP3   OH236055   5.884   4.236   0.910  0.1226  0.5116  0.4901
 4807TIP3    H136056   5.886   4.315   0.963 -0.8709  0.4364  0.6689
 4807TIP3    H236057   5.892   4.164   0.973 -0.9722  0.4244  0.5541
 4808TIP3   OH236058   6.395   3.813   8.240  0.2396 -0.5267  0.6268
 4808TIP3    H136059   6.475   3.859   8.265 -0.7605  1.3319  0.5635
 4808TIP3    H236060   6.330   3.841   8.305 -0.5421 -1.4474  0.2599
 4809TIP3   OH236061   5.304   6.809   7.518  0.3836 -0.3411 -0.5082
 4809TIP3    H136062   5.213   6.834   7.537  0.7054  1.5825 -1.2796
 4809TIP3    H236063   5.346   6.804   7.604  0.0478  0.8973 -0.2630
 4810TIP3   OH236064   1.589   0.898   6.430 -0.5986  0.3461  1.2200
 4810TIP3    H136065   1.561   0.817   6.472 -0.9981 -0.4713 -0.5731
 4810TIP3    H236066   1.517   0.923   6.373  0.6920  0.3349 -0.4956
 4811TIP3   OH236067   4.449   4.374   0.053 -0.6581 -0.3760  0.4837
 4811TIP3    H136068   4.412   4.296   0.095  2.4920 -0.9478  2.6672
 4811TIP3    H236069   4.521   4.340  -0.000 -2.8000  0.6558 -3.4405
 4812TIP3   OH236070   5.494   4.869   8.242  0.4352  0.1868  0.5373
 4812TIP3    H136071   5.512   4.792   8.296  0.3932  0.0576  0.3664
 4812TIP3    H236072   5.410   4.849   8.200 -0.8395  1.3411  2.3792
 4813TIP3   OH236073   4.086   1.514   1.200  0.4991  0.2072 -0.1009
 4813TIP3    H136074   4.174   1.482   1.177 -1.4136 -3.5624 -3.3833
 4813TIP3    H236075   4.072   1.481   1.289  2.0940  0.2810  0.2208
 4814TIP3   OH236076   3.977   4.028   7.954 -0.3701 -0.6783 -0.5856
 4814TIP3    H136077   3.953   4.031   7.862  0.7270 -0.6920 -0.8866
 4814TIP3    H236078   4.008   4.116   7.974 -0.3395 -0.7523 -0.3013
 4815TIP3   OH236079   4.168   6.406   1.105  0.4326  0.1008  0.0536
 4815TIP3    H136080   4.094   6.446   1.059  1.0718  1.9046  0.5158
 4815TIP3    H236081   4.245   6.449   1.068  1.2097 -1.1545  0.1636
 4816TIP3   OH236082   4.972   3.505   7.707 -0.4906 -0.0236  0.0515
 4816TIP3    H136083   4.963   3.486   7.801  0.2380 -1.6627 -0.1842
 4816TIP3    H236084   5.059   3.541   7.698 -0.0971 -0.9865 -0.1365
 4817TIP3   OH236085   0.397   5.319   8.745  0.6316 -0.6845 -0.2053
 4817TIP3    H136086   0.379   5.302   8.838  1.4373  1.8592  0.4984
 4817TIP3    H236087   0.488   5.348   8.743 -0.1957  2.2900 -1.2319
 4818TIP3   OH236088   0.123   6.195   0.151  0.0862  0.2799 -0.2737
 4818TIP3    H136089   0.217   6.199   0.167  0.2639  0.3003 -1.2938
 4818TIP3    H236090   0.095   6.287   0.154 -0.0949  0.2024  1.0605
 4819TIP3   OH236091   1.401   4.945   1.811 -0.2633 -0.5160  0.4263
 4819TIP3    H136092   1.480   4.971   1.764 -0.2935  0.1614  0.7415
 4819TIP3    H236093   1.407   4.991   1.894 -0.0886 -1.8831  1.2064
 4820TIP3   OH236094   3.960   5.441   0.606 -0.3183 -0.3824 -0.7002
 4820TIP3    H136095   3.975   5.351   0.577 -0.5121 -0.3862 -0.7893
 4820TIP3    H236096   3.931   5.488   0.528 -4.0583 -1.1320  0.0431
 4821TIP3   OH236097   2.093   0.576   1.991 -0.0843 -0.0974  0.1741
 4821TIP3    H136098   2.100   0.662   2.032 -0.5865  0.3646 -0.6912
 4821TIP3    H236099   2.017   0.535   2.034 -0.5830  0.3657 -0.2581
 4822TIP3   OH236100   6.264   6.840   0.410  0.2143  0.3711 -0.3551
 4822TIP3    H136101   6.256   6.897   0.334 -0.8567  1.3761  0.4728
 4822TIP3    H236102   6.315   6.765   0.379 -1.5900 -0.0663 -2.5092
 4823TIP3   OH236103   2.396   2.607   1.776 -0.0515 -0.2130  0.1712
 4823TIP3    H136104   2.411   2.516   1.750  2.7576 -0.1404  1.2272
 4823TIP3    H236105   2.418   2.609   1.869 -2.0926  1.1815  0.6894
 4824TIP3   OH236106   5.749   2.236   7.788 -0.0108  0.1359 -0.5045
 4824TIP3    H136107   5.742   2.145   7.762  0.9805 -0.3929  0.9385
 4824TIP3    H236108   5.843   2.255   7.787 -0.0477  0.5358  1.0481
 4825TIP3   OH236109   1.834   3.323   6.675 -0.1329 -0.4630 -0.8059
 4825TIP3    H136110   1.778   3.381   6.623  2.8725  1.5001 -2.1483
 4825TIP3    H236111   1.831   3.361   6.763  0.5353  0.8155 -1.3113
 4826TIP3   OH236112   0.911   1.829   7.679  0.1851  0.2804 -0.3682
 4826TIP3    H136113   0.906   1.761   7.613 -1.6815 -0.5208  0.5140
 4826TIP3    H236114   0.845   1.804   7.744  0.3381  2.2510  0.6230
 4827TIP3   OH236115   3.002   2.375   0.155 -0.6707  0.2779  0.2688
 4827TIP3    H136116   2.952   2.367   0.236 -0.6610  1.2539  0.3834
 4827TIP3    H236117   3.044   2.460   0.161  1.9280 -0.9184  0.7028
 4828TIP3   OH236118   2.116   6.471   7.169 -0.3333  0.0814  0.3165
 4828TIP3    H136119   2.167   6.460   7.088  2.3085 -1.0066  2.0074
 4828TIP3    H236120   2.062   6.392   7.174 -0.2084 -0.0357 -0.1549
 4829TIP3   OH236121   5.218   1.707   8.328 -0.2242  0.5248  0.6908
 4829TIP3    H136122   5.181   1.710   8.239  0.7724  0.6120  0.2701
 4829TIP3    H236123   5.259   1.621   8.334  1.1161  1.1262  0.4748
 4830TIP3   OH236124   5.304   2.615   8.639 -0.0030 -0.2459  0.4856
 4830TIP3    H136125   5.374   2.679   8.649  0.2762 -0.3970 -0.4493
 4830TIP3    H236126   5.341   2.547   8.582 -0.5549 -0.8513  0.8316
 4831TIP3   OH236127   6.312   6.029   8.235 -0.2481 -0.1348  0.2342
 4831TIP3    H136128   6.241   5.965   8.235 -0.9552  0.6151 -0.7006
 4831TIP3    H236129   6.301   6.077   8.153  1.1616  0.2065  0.2174
 4832TIP3   OH236130   4.570   3.647   7.179  0.3395  0.3196 -0.1045
 4832TIP3    H136131   4.493   3.702   7.194 -0.4911 -0.5336 -1.0694
 4832TIP3    H236132   4.543   3.586   7.110  1.9324  0.0902 -0.5782
 4833TIP3   OH236133   4.081   6.549   1.478 -0.1183 -0.1477  0.0017
 4833TIP3    H136134   4.136   6.613   1.433  0.7357  1.4997  3.0736
 4833TIP3    H236135   3.997   6.593   1.489 -0.0267 -0.1477  0.7627
 4834TIP3   OH236136   5.660   5.375   1.047 -0.1648  0.1079  0.2375
 4834TIP3    H136137   5.613   5.409   0.970  0.7972 -0.7829 -0.7770
 4834TIP3    H236138   5.737   5.431   1.053 -1.2960  1.5826  1.9142
 4835TIP3   OH236139   5.201   1.668   6.924  0.2153  0.3570  0.2166
 4835TIP3    H136140   5.225   1.610   6.851 -0.4648 -0.7976  0.8745
 4835TIP3    H236141   5.161   1.609   6.988 -2.7455  1.8563 -0.0829
 4836TIP3   OH236142   0.349   4.588   8.180  0.3600  0.2222  0.1991
 4836TIP3    H136143   0.290   4.594   8.105  1.1296 -0.6356 -0.5035
 4836TIP3    H236144   0.292   4.567   8.254 -0.5342  2.0186  0.0686
 4837TIP3   OH236145   2.252   0.708   7.846  0.1279  0.2319  0.1243
 4837TIP3    H136146   2.206   0.626   7.861  0.1164 -0.4160 -2.8801
 4837TIP3    H236147   2.184   0.770   7.821  0.1793  1.1521  2.0615
 4838TIP3   OH236148   0.163   3.768   2.124 -0.5109 -0.4968  0.1561
 4838TIP3    H136149   0.255   3.747   2.143 -0.6758 -0.8005  0.6467
 4838TIP3    H236150   0.133   3.817   2.201 -1.2130 -1.8148  0.7691
 4839TIP3   OH236151   4.748   6.368   6.707  0.2750  0.4290  0.1903
 4839TIP3    H136152   4.725   6.291   6.760 -2.1427  1.8547  1.4118
 4839TIP3    H236153   4.843   6.369   6.705  0.3733 -1.7688  1.3903
 4840TIP3   OH236154   6.529   5.818   7.218  0.3920  0.0361  0.4091
 4840TIP3    H136155   6.459   5.852   7.273  1.2244  1.1845  0.7971
 4840TIP3    H236156   6.563   5.742   7.266 -0.7206 -0.6753  0.0985
 4841TIP3   OH236157   6.820   5.787   7.889  0.0666 -0.0608 -0.1271
 4841TIP3    H136158   6.841   5.839   7.812 -1.9374 -0.7109 -1.1846
 4841TIP3    H236159   6.799   5.852   7.957 -1.4099  0.5597 -1.1281
 4842TIP3   OH236160   2.368   4.535   1.379  0.1089 -0.7374 -0.4931
 4842TIP3    H136161   2.283   4.498   1.356 -0.6961  1.1938 -0.8628
 4842TIP3    H236162   2.369   4.535   1.475 -0.5548 -0.3128 -0.4767
 4843TIP3   OH236163   4.248   1.116   7.438 -0.0384  0.3302  0.4933
 4843TIP3    H136164   4.283   1.127   7.349 -1.8801 -0.7694 -0.4473
 4843TIP3    H236165   4.271   1.197   7.483  0.9195  0.9399 -1.0019
 4844TIP3   OH236166   0.065   1.979   8.438  0.1062 -0.5710  0.3381
 4844TIP3    H136167   0.127   1.937   8.379 -0.7143 -1.7919  0.3195
 4844TIP3    H236168  -0.021   1.946   8.412 -0.1569 -2.7590  3.4079
 4845TIP3   OH236169   6.795   1.803   7.886  0.3961 -0.0940 -0.0644
 4845TIP3    H136170   6.864   1.737   7.881  0.1173 -0.3895  0.0586
 4845TIP3    H236171   6.719   1.763   7.844 -0.1686 -0.3395  1.1526
 4846TIP3   OH236172   0.505   3.014   1.331 -0.2274 -0.1864 -0.0349
 4846TIP3    H136173   0.597   2.995   1.310  0.1261  0.9191  0.4390
 4846TIP3    H236174   0.492   2.977   1.418  0.2901  1.1142  0.6334
 4847TIP3   OH236175   1.377   4.548   1.450  0.4414 -0.8739 -0.2173
 4847TIP3    H136176   1.315   4.492   1.496 -0.6746  0.7278  0.2993
 4847TIP3    H236177   1.327   4.584   1.377  0.4899  1.0561  0.6533
 4848TIP3   OH236178   1.686   5.288   7.027  0.5718 -0.1659  0.0096
 4848TIP3    H136179   1.673   5.383   7.031  2.5175  0.1769 -0.5516
 4848TIP3    H236180   1.619   5.256   6.967  0.8844  1.0833 -1.0329
 4849TIP3   OH236181   2.986   2.681   8.621  0.1594  0.5359  0.1012
 4849TIP3    H136182   2.922   2.746   8.593 -1.8652 -0.4518  2.0213
 4849TIP3    H236183   2.985   2.615   8.552 -1.5065  0.1841  0.4150
 4850TIP3   OH236184   1.097   4.929   0.850  0.0078 -0.0256  0.3929
 4850TIP3    H136185   1.050   4.928   0.767 -1.0291  0.8452  0.9315
 4850TIP3    H236186   1.033   4.897   0.914  0.2821  0.7094  1.0701
 4851TIP3   OH236187   3.580   4.149   6.851 -0.7885 -0.0032 -0.0232
 4851TIP3    H136188   3.614   4.230   6.813  0.2788 -1.0703 -1.5007
 4851TIP3    H236189   3.488   4.146   6.823 -0.6732  0.4235 -0.4602
 4852TIP3   OH236190   1.943   6.283   1.015  0.4121 -0.6545 -0.2455
 4852TIP3    H136191   2.015   6.310   0.959 -1.4864 -1.1923 -3.1502
 4852TIP3    H236192   1.955   6.189   1.027  0.4329 -0.6641 -0.3420
 4853TIP3   OH236193   5.693   2.194   6.717 -0.9025  0.0078 -0.8236
 4853TIP3    H136194   5.639   2.229   6.646 -0.4165  0.0075 -1.1900
 4853TIP3    H236195   5.729   2.112   6.682 -1.1588 -0.3139 -0.3544
 4854TIP3   OH236196   5.196   4.261   7.452  0.0598  0.3407 -0.2035
 4854TIP3    H136197   5.108   4.242   7.486  0.2004 -0.8971 -0.4745
 4854TIP3    H236198   5.194   4.230   7.361  0.3840  1.5335 -0.6479
 4855TIP3   OH236199   1.197   5.366   1.480 -0.1281  0.4400 -0.2885
 4855TIP3    H136200   1.160   5.434   1.536  0.3426  0.6160 -0.1911
 4855TIP3    H236201   1.290   5.365   1.501 -0.1284 -0.2102 -0.3187
 4856TIP3   OH236202   3.910   4.118   0.402  0.2501 -0.2417 -0.0413
 4856TIP3    H136203   3.945   4.066   0.330  1.6317 -1.7777  1.6376
 4856TIP3    H236204   3.984   4.127   0.463 -0.1251  3.1652  0.0806
 4857TIP3   OH236205   1.338   1.765   6.887  0.5293 -0.1550 -0.0853
 4857TIP3    H136206   1.253   1.759   6.843 -0.0728 -1.4708  1.1467
 4857TIP3    H236207   1.360   1.674   6.908  2.1674  0.1866 -0.2060
 4858TIP3   OH236208   4.846   3.243   7.850  0.1862  0.8127 -0.1005
 4858TIP3    H136209   4.822   3.303   7.921  1.9250  1.3104  0.1020
 4858TIP3    H236210   4.935   3.216   7.870  0.7129  0.9215 -2.0735
 4859TIP3   OH236211   2.979   6.079   8.093 -0.4288 -0.2868 -0.3652
 4859TIP3    H136212   3.036   6.014   8.133 -0.9633  0.2159  1.3166
 4859TIP3    H236213   2.890   6.051   8.116 -0.6280  1.8657  1.9225
 4860TIP3   OH236214   2.890   1.132   7.537  0.6939  0.0680  0.2112
 4860TIP3    H136215   2.868   1.041   7.515  2.8345 -0.6715  0.8149
 4860TIP3    H236216   2.828   1.155   7.606  1.0436 -1.4929  1.1089
 4861TIP3   OH236217   3.508   1.021   0.216 -0.7518  0.1938  0.5286
 4861TIP3    H136218   3.599   1.048   0.202 -0.5286  0.1075  1.7163
 4861TIP3    H236219   3.514   0.948   0.277 -1.5802 -0.2949  0.0392
 4862TIP3   OH236220   4.871   4.714   0.534  0.1780  0.0076  0.8876
 4862TIP3    H136221   4.904   4.780   0.473 -0.3401 -0.1257  0.4547
 4862TIP3    H236222   4.807   4.761   0.588 -1.6139 -0.5208 -0.6557
 4863TIP3   OH236223   2.968   4.509   8.250  0.6106  0.6222  0.0341
 4863TIP3    H136224   2.960   4.505   8.154 -0.8954  0.8402  0.1291
 4863TIP3    H236225   3.052   4.468   8.268  1.3798  1.4651 -1.4558
 4864TIP3   OH236226   5.614   0.208   7.856 -0.8759 -0.8018  0.2261
 4864TIP3    H136227   5.538   0.154   7.838 -1.4984  0.6619 -1.9682
 4864TIP3    H236228   5.642   0.240   7.771  1.8216 -0.7408  1.0347
 4865TIP3   OH236229   3.312   0.857   6.385 -0.0262  0.2402 -0.8348
 4865TIP3    H136230   3.284   0.906   6.308  0.7460 -1.0745 -1.9944
 4865TIP3    H236231   3.311   0.765   6.358  0.8827 -0.2096  0.5125
 4866TIP3   OH236232   0.335   4.641   0.770  0.3302  0.1917  0.3489
 4866TIP3    H136233   0.284   4.722   0.782  1.2742  0.5961  1.9162
 4866TIP3    H236234   0.408   4.667   0.714 -0.5335 -0.1116 -0.9417
 4867TIP3   OH236235   3.273   4.815   6.737  0.1271 -0.0542  0.2143
 4867TIP3    H136236   3.345   4.849   6.684  0.7100  0.1656  1.1417
 4867TIP3    H236237   3.280   4.720   6.728 -0.8153 -0.0147 -1.4541
 4868TIP3   OH236238   5.684   4.191   0.741  0.8727  0.3580 -0.3850
 4868TIP3    H136239   5.762   4.229   0.782  1.8740 -0.2041 -1.6975
 4868TIP3    H236240   5.648   4.131   0.807  1.9100  0.1755  0.0230
 4869TIP3   OH236241   3.768   4.996   8.702  0.0961 -0.0982  0.7422
 4869TIP3    H136242   3.710   5.029   8.771 -0.0710 -1.5152  1.2977
 4869TIP3    H236243   3.720   5.015   8.621  1.1155  3.3318  0.7497
 4870TIP3   OH236244   2.787   5.115   0.251  0.2662  0.6317 -0.5128
 4870TIP3    H136245   2.750   5.126   0.338 -0.6861 -0.7401 -0.7226
 4870TIP3    H236246   2.755   5.191   0.201 -1.2351  0.1410 -0.3337
 4871TIP3   OH236247   6.257   5.112   7.092 -0.1078  0.1336  0.2202
 4871TIP3    H136248   6.205   5.123   7.171 -1.3572 -0.5023 -0.4920
 4871TIP3    H236249   6.203   5.148   7.022 -0.5546 -2.4019 -0.8516
 4872TIP3   OH236250   3.231   0.309   6.742 -0.0091 -0.5057 -0.2102
 4872TIP3    H136251   3.164   0.315   6.673  0.1180  2.4688 -0.1940
 4872TIP3    H236252   3.275   0.393   6.740 -0.2496 -0.0949  3.7596
 4873TIP3   OH236253   1.128   3.577   7.158  0.0398 -0.4057  0.4748
 4873TIP3    H136254   1.214   3.542   7.134 -0.5285 -1.8775  0.5223
 4873TIP3    H236255   1.099   3.522   7.231 -1.3863 -0.5947 -0.2090
 4874TIP3   OH236256   4.453   6.851   1.674 -0.4559 -0.3338  0.0874
 4874TIP3    H136257   4.379   6.834   1.732  0.3759  1.3562  1.7537
 4874TIP3    H236258   4.474   6.944   1.689  0.7897 -0.2689 -1.7758
 4875TIP3   OH236259   1.854   4.242   8.126  0.1577  0.2780 -0.6540
 4875TIP3    H136260   1.912   4.197   8.187 -1.0876 -1.1005 -0.4243
 4875TIP3    H236261   1.773   4.253   8.176  0.2668  2.4218 -0.8602
 4876TIP3   OH236262   2.461   1.388   2.357  0.5537  0.3787 -0.2501
 4876TIP3    H136263   2.541   1.403   2.405  0.0119  1.7654  0.2789
 4876TIP3    H236264   2.399   1.452   2.393 -0.7878 -0.6620 -0.6301
 4877TIP3   OH236265   4.908   2.902   0.498 -0.0699  0.0426 -0.4911
 4877TIP3    H136266   4.950   2.895   0.412 -0.7143 -1.7214 -0.6854
 4877TIP3    H236267   4.916   2.995   0.520 -0.2291  0.6193 -2.6235
 4878TIP3   OH236268   6.814   0.239   8.534 -0.0474  0.5957 -0.6279
 4878TIP3    H136269   6.864   0.230   8.615 -1.3297 -0.2143  0.1028
 4878TIP3    H236270   6.870   0.199   8.467  0.3982 -0.0619  0.1127
 4879TIP3   OH236271   4.467   3.490   6.972  0.0026  0.6347  0.1228
 4879TIP3    H136272   4.448   3.411   7.021  0.5819  0.6344  0.3625
 4879TIP3    H236273   4.532   3.462   6.907 -0.1441  0.8124 -0.1020
 4880TIP3   OH236274   3.331   2.031   0.949  0.5974  0.2377 -0.5409
 4880TIP3    H136275   3.357   2.103   0.892 -1.0646  0.0289 -1.6136
 4880TIP3    H236276   3.241   2.052   0.974  0.7932 -0.4365  0.8363
 4881TIP3   OH236277   0.959   2.749   8.344  0.4619  0.2503 -0.5359
 4881TIP3    H136278   1.011   2.797   8.280  0.1115 -1.3311 -2.0767
 4881TIP3    H236279   0.936   2.667   8.300  0.0905 -0.8443  1.5734
 4882TIP3   OH236280   4.976   6.249   0.405 -0.0939 -0.0652  0.0157
 4882TIP3    H136281   4.935   6.267   0.489 -0.2874  1.8973 -0.4434
 4882TIP3    H236282   4.918   6.288   0.340 -0.5081 -2.4805 -1.1719
 4883TIP3   OH236283   6.477   5.026   0.960  0.4655 -0.1696  0.2084
 4883TIP3    H136284   6.507   4.992   0.876 -1.6616 -0.3326 -0.5440
 4883TIP3    H236285   6.448   4.949   1.008  0.6177  0.0481  0.6572
 4884TIP3   OH236286   5.183   5.513   1.419  0.0086  0.8067  0.4662
 4884TIP3    H136287   5.243   5.442   1.396 -0.3267  0.1944  1.4182
 4884TIP3    H236288   5.159   5.495   1.510 -0.9783  1.4960  0.3513
 4885TIP3   OH236289   6.022   0.046   6.549 -0.0016  0.9654 -0.1994
 4885TIP3    H136290   5.958   0.057   6.478  0.2128  2.4211 -0.2061
 4885TIP3    H236291   6.055   0.134   6.564  1.7930  0.2915  0.0154
 4886TIP3   OH236292   5.367   0.060   7.787 -0.1490 -0.0844 -0.0291
 4886TIP3    H136293   5.321   0.142   7.770  1.7264  0.9415 -0.4745
 4886TIP3    H236294   5.299   0.001   7.819 -1.5564  1.6456  0.3784
 4887TIP3   OH236295   4.822   3.749   8.635  0.5973  0.3822 -0.6024
 4887TIP3    H136296   4.775   3.721   8.714  0.5301 -1.3666 -1.2296
 4887TIP3    H236297   4.901   3.792   8.668  1.8679 -2.5327  0.5037
 4888TIP3   OH236298   3.588   5.668   7.347 -0.2944  0.3319  0.5682
 4888TIP3    H136299   3.525   5.603   7.317  0.6466 -0.8717  1.1441
 4888TIP3    H236300   3.535   5.744   7.370 -1.4109 -0.2214 -0.1104
 4889TIP3   OH236301   1.960   5.005   7.463  0.3513  0.8974 -0.0661
 4889TIP3    H136302   1.957   4.920   7.420  0.4774  0.2547  1.1686
 4889TIP3    H236303   1.893   5.001   7.531  0.3602  1.7783  0.0114
 4890TIP3   OH236304   5.908   6.332   0.772  0.4209 -0.0139  0.3852
 4890TIP3    H136305   5.866   6.246   0.768 -0.8049  0.5856 -0.1608
 4890TIP3    H236306   6.000   6.315   0.752  0.1328 -1.1515 -0.0410
 4891TIP3   OH236307   2.691   0.852   7.432  0.8804  0.9205  0.4021
 4891TIP3    H136308   2.701   0.758   7.440  1.5863  1.0344  0.9192
 4891TIP3    H236309   2.614   0.863   7.375 -0.3811  0.0555  1.8516
 4892TIP3   OH236310   3.420   5.103   1.734 -0.0963 -0.6195 -0.4375
 4892TIP3    H136311   3.395   5.123   1.824  0.1206 -1.4530 -0.1825
 4892TIP3    H236312   3.353   5.041   1.704 -0.3167 -0.1407 -0.9404
 4893TIP3   OH236313   0.724   1.892   0.075 -0.7012  0.2863  0.2467
 4893TIP3    H136314   0.641   1.861   0.037 -0.2155 -0.9367  0.1611
 4893TIP3    H236315   0.719   1.988   0.067 -1.2171  0.1379 -1.6243
 4894TIP3   OH236316   5.202   3.169   7.385  0.1755 -0.1726 -1.2477
 4894TIP3    H136317   5.122   3.221   7.383  0.7002  0.6358 -1.2738
 4894TIP3    H236318   5.192   3.106   7.313 -0.1133  0.3935 -1.7066
 4895TIP3   OH236319   2.082   5.486   8.467  0.1436 -0.4079  0.1408
 4895TIP3    H136320   2.056   5.524   8.383  2.2043 -1.1715 -0.9116
 4895TIP3    H236321   2.003   5.441   8.498 -0.9250  0.6527 -0.9245
 4896TIP3   OH236322   6.344   1.427   8.810 -0.1496  0.2709 -0.0136
 4896TIP3    H136323   6.376   1.373   8.738 -0.5838 -0.9317  0.6627
 4896TIP3    H236324   6.259   1.459   8.780  0.3807  1.1143 -0.6632
 4897TIP3   OH236325   6.623   1.263   7.946  0.5511 -0.6677  0.0695
 4897TIP3    H136326   6.630   1.351   7.909 -0.5587 -1.7574 -3.1549
 4897TIP3    H236327   6.709   1.224   7.931  0.8628 -0.3587  0.9741
 4898TIP3   OH236328   5.018   6.576   6.905 -0.7707 -0.2369  0.0943
 4898TIP3    H136329   5.065   6.654   6.878  0.8870 -0.6435  1.6128
 4898TIP3    H236330   4.973   6.546   6.826  1.3985  0.2790 -1.4208
 4899TIP3   OH236331   0.758   2.093   6.921  0.7340  0.1667 -0.0482
 4899TIP3    H136332   0.841   2.139   6.935  1.2260 -0.9798  1.0738
 4899TIP3    H236333   0.778   2.002   6.942 -1.0290  0.0104  1.1894
 4900TIP3   OH236334   2.865   5.700   0.962 -0.1012  0.2669 -0.0943
 4900TIP3    H136335   2.938   5.705   0.899 -0.5750 -0.8604 -0.7789
 4900TIP3    H236336   2.795   5.750   0.921  0.7138  2.7349  1.2940
 4901TIP3   OH236337   2.570   1.499   2.085  0.0145 -0.3556 -0.1764
 4901TIP3    H136338   2.554   1.592   2.101 -0.1788 -0.3190 -0.5721
 4901TIP3    H236339   2.532   1.455   2.160  0.2683 -0.1032  0.1046
 4902TIP3   OH236340   6.732   3.564   8.465 -0.2092 -0.3053 -0.3484
 4902TIP3    H136341   6.668   3.550   8.535 -1.0072 -0.0684 -1.0204
 4902TIP3    H236342   6.702   3.508   8.393  1.3328 -1.5511 -0.0653
 4903TIP3   OH236343   6.307   6.359   1.072 -0.8267  0.4792  0.4205
 4903TIP3    H136344   6.316   6.453   1.054  0.5373  0.9200  2.9327
 4903TIP3    H236345   6.366   6.343   1.146 -2.8352 -1.8462  1.6692
 4904TIP3   OH236346   6.065   1.114   8.608 -0.2787 -0.0890 -0.2405
 4904TIP3    H136347   6.122   1.083   8.679  0.8361  3.0620  0.3959
 4904TIP3    H236348   5.999   1.167   8.652 -0.4565  0.7130 -1.4498
 4905TIP3   OH236349   1.642   0.354   1.187 -0.3168  0.6022 -0.7931
 4905TIP3    H136350   1.562   0.400   1.164 -0.9835 -0.3865 -0.5395
 4905TIP3    H236351   1.619   0.305   1.267  0.4329  0.0478 -0.9058
 4906TIP3   OH236352   6.058   4.590   0.136 -0.6531  0.3993  0.6078
 4906TIP3    H136353   6.027   4.500   0.126 -1.1420  0.7569 -1.6438
 4906TIP3    H236354   6.072   4.600   0.230  0.0650 -2.2283  0.8589
 4907TIP3   OH236355   1.301   4.977   2.172  1.1774  0.4683  0.0854
 4907TIP3    H136356   1.268   4.944   2.255  1.3569  2.2833  0.9386
 4907TIP3    H236357   1.269   5.068   2.169  2.2656  0.8350 -1.2088
 4908TIP3   OH236358   5.874   0.010   0.860 -0.4243  0.0501  0.3068
 4908TIP3    H136359   5.798  -0.014   0.806  0.0322  0.3423 -0.4874
 4908TIP3    H236360   5.902  -0.073   0.899  0.6455 -0.6483 -1.7669
 4909TIP3   OH236361   1.081   2.020   8.543  0.5189 -0.4578 -0.5070
 4909TIP3    H136362   1.144   2.085   8.513 -1.5474  0.7883 -2.4778
 4909TIP3    H236363   1.098   1.944   8.487 -0.2880  0.2236 -1.7317
 4910TIP3   OH236364   2.246   6.861   7.998  0.2486  0.0378 -0.2782
 4910TIP3    H136365   2.318   6.808   8.033  1.2578 -0.6085 -3.0607
 4910TIP3    H236366   2.181   6.796   7.969 -0.8326  0.5747  0.8425
 4911TIP3   OH236367   0.937   4.837   7.796 -0.7333 -0.5235  0.6727
 4911TIP3    H136368   0.871   4.874   7.854 -0.7373 -0.0561  0.3749
 4911TIP3    H236369   0.992   4.911   7.772 -0.8235 -0.6807 -0.0392
 4912TIP3   OH236370   6.259   2.162   0.653 -0.9318 -0.4453 -0.1410
 4912TIP3    H136371   6.316   2.085   0.643  1.8192  1.2243  1.2768
 4912TIP3    H236372   6.312   2.224   0.703 -3.6533  1.7662  0.2366
 4913TIP3   OH236373   2.731   3.636   6.998 -0.0260 -0.1907 -0.9337
 4913TIP3    H136374   2.712   3.557   7.048 -0.0496  1.0827  1.1635
 4913TIP3    H236375   2.780   3.604   6.922  0.4896 -2.1602  0.1524
 4914TIP3   OH236376   5.786   1.198   7.896 -0.6645 -0.1389 -0.1436
 4914TIP3    H136377   5.780   1.116   7.945 -1.0090  0.4135  0.7500
 4914TIP3    H236378   5.704   1.202   7.847 -1.9134  0.9790  1.9236
 4915TIP3   OH236379   2.791   0.856   7.690  0.3929 -0.2100 -0.4865
 4915TIP3    H136380   2.739   0.847   7.610  1.3471 -0.6032 -1.0856
 4915TIP3    H236381   2.731   0.893   7.754 -0.9686 -1.7505 -0.8033
 4916TIP3   OH236382   0.189   6.357   6.723 -0.3042  0.1745  0.2913
 4916TIP3    H136383   0.218   6.321   6.807 -2.5762  0.7475  1.4281
 4916TIP3    H236384   0.116   6.301   6.698  0.0131  0.3438 -1.0478
 4917TIP3   OH236385   3.985   1.616   8.393  0.3511  0.1628 -0.2082
 4917TIP3    H136386   3.944   1.624   8.479 -0.0025 -2.0118 -0.1040
 4917TIP3    H236387   4.077   1.634   8.409  0.1664  0.5522  0.4665
 4918TIP3   OH236388   5.643   3.510   1.263  0.0047  0.6988  0.0286
 4918TIP3    H136389   5.629   3.549   1.178  0.2913  0.8772  0.0614
 4918TIP3    H236390   5.727   3.463   1.254 -0.5825 -0.3445 -0.1699
 4919TIP3   OH236391   5.763   3.927   7.417 -0.5825  0.5425 -0.0410
 4919TIP3    H136392   5.778   3.895   7.329  0.6896  1.5333 -0.2002
 4919TIP3    H236393   5.786   3.853   7.474 -2.4499 -0.4761 -0.5258
 4920TIP3   OH236394   2.090   6.530   2.178 -0.6270 -0.5841  0.3435
 4920TIP3    H136395   2.014   6.483   2.143 -0.3288 -0.5870 -0.3160
 4920TIP3    H236396   2.160   6.511   2.116 -0.2066 -0.1996  0.6961
 4921TIP3   OH236397   1.426   6.835   2.079  0.2242 -0.0019 -0.2314
 4921TIP3    H136398   1.458   6.904   2.021 -0.0720  0.2222 -0.1285
 4921TIP3    H236399   1.332   6.831   2.062  0.5738 -2.1439 -2.1331
 4922TIP3   OH236400   6.078   4.043   1.599 -0.3663  0.0236  0.2502
 4922TIP3    H136401   6.157   4.017   1.645  0.3793  0.3280 -0.8020
 4922TIP3    H236402   6.011   3.982   1.629  0.5575 -1.0134  0.2723
 4923TIP3   OH236403   4.977   5.145   1.808  0.3311  0.6133  0.0955
 4923TIP3    H136404   5.028   5.200   1.749  1.2289 -0.1196  0.1526
 4923TIP3    H236405   5.038   5.075   1.833 -0.5326  0.0348  0.6278
 4924TIP3   OH236406   3.617   2.204   8.142  0.1520 -0.4975 -0.7569
 4924TIP3    H136407   3.561   2.282   8.144 -0.9319 -1.2186 -1.5002
 4924TIP3    H236408   3.628   2.185   8.049  0.3975 -1.2323 -0.5798
 4925TIP3   OH236409   6.582   5.197   7.678  0.6518 -0.0488 -0.6395
 4925TIP3    H136410   6.576   5.153   7.594 -0.8935  1.6785 -1.4847
 4925TIP3    H236411   6.492   5.214   7.704  1.0759 -0.6998  1.4856
 4926TIP3   OH236412   0.640   2.217   7.353 -0.3964 -0.0673  0.5181
 4926TIP3    H136413   0.641   2.151   7.422  0.7040  0.9587  1.5510
 4926TIP3    H236414   0.650   2.300   7.400  0.0421  0.6891 -0.8623
 4927TIP3   OH236415   3.652   5.972   1.923  0.4390  0.1727 -0.3448
 4927TIP3    H136416   3.570   5.987   1.969  0.0918  0.6484 -1.1168
 4927TIP3    H236417   3.716   5.957   1.993 -0.6620 -2.2120  0.2322
 4928TIP3   OH236418   5.669   5.893   6.486 -0.2005  0.5034 -0.2747
 4928TIP3    H136419   5.631   5.980   6.478 -1.9048  0.0308  1.7327
 4928TIP3    H236420   5.595   5.833   6.475  0.4648 -0.5776  0.8687
 4929TIP3   OH236421   0.739   5.143   8.543 -0.2388 -0.2364 -0.3191
 4929TIP3    H136422   0.680   5.167   8.472  1.6180 -1.4072 -2.3602
 4929TIP3    H236423   0.826   5.170   8.512  0.5136  0.2487  2.0204
 4930TIP3   OH236424   5.121   5.350   1.688 -0.6986  0.5199  0.2612
 4930TIP3    H136425   5.168   5.380   1.766  1.1303  4.3228 -2.0101
 4930TIP3    H236426   5.068   5.425   1.661 -0.1978 -0.0950 -2.8785
 4931TIP3   OH236427   5.068   4.130   8.035 -0.0929 -0.0302 -0.1288
 4931TIP3    H136428   5.065   4.044   8.077  1.0970  0.4661  1.0598
 4931TIP3    H236429   4.994   4.130   7.975 -0.2886 -1.7715  0.0535
 4932TIP3   OH236430   4.762   2.051   1.986  0.2570  0.0162  0.0129
 4932TIP3    H136431   4.736   2.085   2.071  0.5986  1.9434 -0.6070
 4932TIP3    H236432   4.691   2.076   1.927  0.1188 -1.1183 -0.3343
 4933TIP3   OH236433   2.752   0.814   8.776  0.0096 -0.7088  0.7351
 4933TIP3    H136434   2.741   0.740   8.836  2.0238 -0.3904  1.5603
 4933TIP3    H236435   2.683   0.801   8.710 -3.5149 -0.1353  3.9436
 4934TIP3   OH236436   5.170   0.572   0.643  0.1283  0.2693 -0.1947
 4934TIP3    H136437   5.157   0.666   0.631 -0.8069  0.2062  0.2713
 4934TIP3    H236438   5.189   0.539   0.555  0.5998  0.9113 -0.3379
 4935TIP3   OH236439   2.734   1.480   0.912  0.5753 -1.0403  0.4436
 4935TIP3    H136440   2.811   1.530   0.888  0.4314 -0.2099  1.6500
 4935TIP3    H236441   2.736   1.476   1.007 -0.7138 -1.2587  0.4805
 4936TIP3   OH236442   2.125   4.484   0.447  0.2099  0.0057  0.2208
 4936TIP3    H136443   2.119   4.420   0.377 -2.9869  0.7343 -0.3173
 4936TIP3    H236444   2.058   4.457   0.510 -0.9507  2.4693  0.1763
 4937TIP3   OH236445   5.425   1.825   8.167  0.4657 -0.1902  0.1845
 4937TIP3    H136446   5.375   1.907   8.160  1.1775  0.2129 -0.2622
 4937TIP3    H236447   5.427   1.807   8.261 -1.3430 -0.7385  0.1445
 4938TIP3   OH236448   6.528   4.169   8.715  0.3877 -0.3140 -0.3194
 4938TIP3    H136449   6.544   4.229   8.787 -0.9789 -1.6585  1.1844
 4938TIP3    H236450   6.447   4.200   8.675 -0.8990 -1.6815  1.1213
 4939TIP3   OH236451   1.213   0.486   0.038  0.2347 -0.1729  0.1824
 4939TIP3    H136452   1.220   0.522   0.127  0.1493 -0.6075  0.3672
 4939TIP3    H236453   1.303   0.482   0.007  0.1245  2.3886 -0.7439
 4940TIP3   OH236454   6.863   2.718   8.536 -0.2638 -0.4794  0.0739
 4940TIP3    H136455   6.844   2.638   8.585  1.0121 -0.6383  0.3463
 4940TIP3    H236456   6.861   2.690   8.444  0.5643 -0.9219  0.1836
 4941TIP3   OH236457   2.782   4.542   0.213  0.1220  0.0071 -0.7357
 4941TIP3    H136458   2.692   4.522   0.239  0.1656  0.0920 -0.5171
 4941TIP3    H236459   2.802   4.478   0.145  0.4482 -1.0631  0.3346
 4942TIP3   OH236460   1.319   6.104   6.868 -0.0790  0.1174  0.7834
 4942TIP3    H136461   1.246   6.046   6.888  0.0890  0.4500  2.5622
 4942TIP3    H236462   1.295   6.188   6.908  1.0426  0.3776  0.9548
 4943TIP3   OH236463   1.997   5.424   0.944 -0.6155 -0.2799  0.1497
 4943TIP3    H136464   1.942   5.454   1.017 -1.9573  0.8655 -1.2645
 4943TIP3    H236465   2.057   5.497   0.929  1.4398 -1.5328  1.6999
 4944TIP3   OH236466   1.068   4.268   7.126  0.1198 -0.0710 -0.1130
 4944TIP3    H136467   0.976   4.257   7.102  0.0626  0.0423  0.0515
 4944TIP3    H236468   1.085   4.361   7.110  0.0893 -0.0016  0.2581
 4945TIP3   OH236469   6.259   2.580   0.270  0.4671  0.3118 -0.1923
 4945TIP3    H136470   6.185   2.608   0.216  0.6768 -0.2527 -0.7756
 4945TIP3    H236471   6.316   2.657   0.274 -0.3229  0.8881  0.5935
 4946TIP3   OH236472   5.440   5.079   0.760 -0.6023  0.3688  0.1522
 4946TIP3    H136473   5.376   5.144   0.732 -1.6181 -0.2421  1.0205
 4946TIP3    H236474   5.514   5.093   0.701 -1.2551  1.5244 -0.4402
 4947TIP3   OH236475   0.476   3.911   0.318 -0.5125  0.6490 -0.4317
 4947TIP3    H136476   0.531   3.947   0.388 -0.1511 -1.1008  0.2188
 4947TIP3    H236477   0.391   3.896   0.360 -0.8647  1.3267 -0.8768
 4948TIP3   OH236478   2.120   3.805   7.418 -0.3451  0.2604 -0.1295
 4948TIP3    H136479   2.204   3.766   7.393 -0.6996 -0.5466 -0.0677
 4948TIP3    H236480   2.074   3.820   7.336  0.0955  1.2851 -0.2125
 4949TIP3   OH236481   1.485   0.627   7.407 -0.8142  0.0617 -0.4801
 4949TIP3    H136482   1.553   0.597   7.346 -0.5923 -0.3627 -0.0294
 4949TIP3    H236483   1.497   0.721   7.412  0.2550 -0.0933  0.1977
 4950TIP3   OH236484   1.858   4.984   1.901 -0.1127 -0.4808 -0.0158
 4950TIP3    H136485   1.892   5.073   1.915  0.1705 -0.3609 -1.3417
 4950TIP3    H236486   1.937   4.930   1.888 -0.2756 -0.9690  0.9458
 4951TIP3   OH236487   6.251   3.211   0.190 -0.4110  0.2817  0.1602
 4951TIP3    H136488   6.217   3.130   0.229  0.9552  0.5493  2.0723
 4951TIP3    H236489   6.289   3.183   0.107  0.6898 -1.2365  1.1084
 4952TIP3   OH236490   1.058   0.260   1.283 -0.7555 -0.2058  0.6809
 4952TIP3    H136491   1.033   0.331   1.224 -1.1088 -0.3505  0.6510
 4952TIP3    H236492   1.018   0.283   1.366  0.4356  0.4251  1.1090
 4953TIP3   OH236493   1.656   2.595   8.091  0.2218 -0.2098  0.2053
 4953TIP3    H136494   1.572   2.640   8.105  0.0722 -0.3698 -0.1608
 4953TIP3    H236495   1.711   2.623   8.164  0.1299  0.5685 -0.0089
 4954TIP3   OH236496   4.067   2.368   8.539  0.0294  0.0095  0.0278
 4954TIP3    H136497   4.141   2.382   8.481  1.0425 -1.4350  0.9001
 4954TIP3    H236498   4.106   2.337   8.621 -1.4050  1.1417  1.2036
 4955TIP3   OH236499   4.497   6.503   0.707  0.1083 -0.1407  0.5536
 4955TIP3    H136500   4.433   6.434   0.688 -0.3808  0.7400 -1.2227
 4955TIP3    H236501   4.560   6.462   0.766 -0.9116 -1.6859  0.6266
 4956TIP3   OH236502   4.952   2.623   7.368 -0.2408 -0.1937 -0.3962
 4956TIP3    H136503   5.028   2.565   7.375  0.2409  0.3098 -1.2784
 4956TIP3    H236504   4.990   2.711   7.364 -0.7301 -0.0312 -2.6366
 4957TIP3   OH236505   6.329   0.067   6.504 -0.0103  0.0686  0.4483
 4957TIP3    H136506   6.331   0.076   6.599  0.0399  0.3472  0.4218
 4957TIP3    H236507   6.260   0.003   6.487  0.6191 -0.6993  0.7286
 4958TIP3   OH236508   0.903   4.299   1.993 -0.1464 -0.1449  0.0428
 4958TIP3    H136509   0.819   4.282   1.951  0.3020  0.2991 -1.0846
 4958TIP3    H236510   0.893   4.387   2.030  0.6458  1.0786 -2.4140
 4959TIP3   OH236511   3.446   1.474   1.618 -0.7285  0.6108 -0.4908
 4959TIP3    H136512   3.392   1.545   1.652  1.4397  2.4721 -0.7014
 4959TIP3    H236513   3.509   1.517   1.561  1.3527 -1.3307  0.2027
 4960TIP3   OH236514   4.423   6.412   6.284 -0.5093  0.4505  0.8392
 4960TIP3    H136515   4.517   6.398   6.281 -0.5581  0.2711 -1.5830
 4960TIP3    H236516   4.391   6.347   6.347  0.8759 -0.1029  0.9954
 4961TIP3   OH236517   6.363   3.073   0.565  0.2075  0.1432 -0.0212
 4961TIP3    H136518   6.275   3.045   0.541  0.6784 -0.4306 -1.1568
 4961TIP3    H236519   6.354   3.108   0.653 -1.1645  0.1383 -0.1417
 4962TIP3   OH236520   5.523   6.346   6.203 -0.1886  0.1845 -0.3888
 4962TIP3    H136521   5.487   6.257   6.201 -1.7331  0.8027 -1.7668
 4962TIP3    H236522   5.527   6.368   6.296 -2.1380 -0.4437 -0.1129
 4963TIP3   OH236523   2.911   0.991   1.320  0.0364  0.5153 -0.0915
 4963TIP3    H136524   2.868   0.905   1.319  0.1831  0.4347  0.2849
 4963TIP3    H236525   2.963   0.993   1.240  1.3588 -0.4321  0.7118
 4964TIP3   OH236526   1.563   2.739   1.040  0.2339 -0.6438  0.1656
 4964TIP3    H136527   1.604   2.768   1.121  3.6366 -1.7170 -0.9913
 4964TIP3    H236528   1.505   2.667   1.066  3.1653 -2.6956  1.5197
 4965TIP3   OH236529   4.495   2.373   7.111  0.0588 -0.5732 -0.5964
 4965TIP3    H136530   4.408   2.374   7.151  0.2353  0.2889 -0.2042
 4965TIP3    H236531   4.482   2.333   7.025 -0.9682  0.6749 -1.0515
 4966TIP3   OH236532   1.588   1.735   7.697 -0.0367  0.6352 -0.1279
 4966TIP3    H136533   1.661   1.675   7.683 -0.4597  0.1336 -0.2151
 4966TIP3    H236534   1.624   1.822   7.678  0.9325  0.5697  1.2431
 4967TIP3   OH236535   5.094   0.703   0.214 -0.0731 -0.2579 -0.2382
 4967TIP3    H136536   5.138   0.647   0.278  0.2263 -0.4754 -0.6314
 4967TIP3    H236537   5.165   0.735   0.158 -0.5409 -1.5849 -1.6286
 4968TIP3   OH236538   1.213   5.365   8.507 -0.5046  0.0810  0.1035
 4968TIP3    H136539   1.177   5.409   8.585 -0.1342 -0.8870  0.8458
 4968TIP3    H236540   1.252   5.435   8.456 -2.9519  1.1249 -0.4920
 4969TIP3   OH236541   4.875   1.172   7.426  0.4566 -0.2574  0.0674
 4969TIP3    H136542   4.864   1.116   7.349 -0.2966 -0.2638  0.1766
 4969TIP3    H236543   4.807   1.143   7.486 -0.8067  1.6369 -0.3771
 4970TIP3   OH236544   1.109   4.155   1.409 -0.0650  0.2606  0.3009
 4970TIP3    H136545   1.015   4.146   1.423 -0.5344  1.7037 -1.5490
 4970TIP3    H236546   1.128   4.096   1.336  0.7760 -1.0896  1.5600
 4971TIP3   OH236547   1.590   0.361   1.552  0.3783  0.5060 -0.0506
 4971TIP3    H136548   1.628   0.279   1.584  0.1766  0.7451  0.8561
 4971TIP3    H236549   1.522   0.382   1.616  1.5944  2.2754  0.7415
 4972TIP3   OH236550   6.817   1.993   8.068  0.1258 -0.5404 -0.2536
 4972TIP3    H136551   6.805   1.925   8.001 -0.1692 -0.2994 -0.4481
 4972TIP3    H236552   6.889   1.961   8.122  0.5844 -0.5809 -0.8819
 4973TIP3   OH236553   0.280   4.636   8.679  0.2296  0.2827  0.6206
 4973TIP3    H136554   0.215   4.664   8.743 -2.4043 -2.6220 -0.5585
 4973TIP3    H236555   0.308   4.718   8.637 -3.8422  1.6673  0.1689
 4974TIP3   OH236556   2.538   5.734   1.006 -0.2549 -0.5129 -0.7706
 4974TIP3    H136557   2.572   5.659   0.957  0.8103 -0.2083 -0.5232
 4974TIP3    H236558   2.488   5.696   1.078  0.1629 -0.9787 -0.7288
 4975TIP3   OH236559   1.542   5.072   8.288  0.2207 -0.2853  0.7593
 4975TIP3    H136560   1.625   5.029   8.309  0.5104  0.0435  0.3097
 4975TIP3    H236561   1.484   5.049   8.361  0.7181 -0.4796  1.1017
 4976TIP3   OH236562   4.049   4.960   1.342  0.7480  0.5355 -0.6474
 4976TIP3    H136563   4.027   5.046   1.379  0.5188  0.1251  0.1821
 4976TIP3    H236564   4.026   4.898   1.410 -0.6420 -0.3251 -1.8420
 4977TIP3   OH236565   3.087   2.194   6.833 -0.0422  0.1842 -0.0797
 4977TIP3    H136566   3.111   2.273   6.784  1.5150  0.2480  0.7074
 4977TIP3    H236567   3.054   2.226   6.916 -0.4603  0.0218 -0.1807
 4978TIP3   OH236568   4.078   0.697   1.327  0.2199 -0.1917  1.1163
 4978TIP3    H136569   4.099   0.790   1.336 -1.5433  0.2163  1.3518
 4978TIP3    H236570   4.029   0.676   1.407 -1.2348 -0.7668  0.1058
 4979TIP3   OH236571   3.210   1.046   7.219  0.1737  0.0517 -0.2007
 4979TIP3    H136572   3.274   1.092   7.164 -0.1506  1.6286  0.6758
 4979TIP3    H236573   3.232   1.072   7.308  0.1237 -1.7548  0.3580
 4980TIP3   OH236574   2.152   2.880   8.049 -0.3371  0.1559  0.7005
 4980TIP3    H136575   2.240   2.900   8.082 -0.2989  0.2344  0.5525
 4980TIP3    H236576   2.164   2.870   7.954 -0.5339  0.4347  0.6449
 4981TIP3   OH236577   2.278   2.330   1.671  0.1177  0.2341 -0.5233
 4981TIP3    H136578   2.338   2.325   1.597  0.1728 -0.6649 -0.4317
 4981TIP3    H236579   2.220   2.254   1.660  0.7745 -0.5164  0.9030
 4982TIP3   OH236580   0.460   1.246   7.773 -0.1980  0.3718  0.3546
 4982TIP3    H136581   0.537   1.298   7.796 -0.7246  1.9319 -1.1744
 4982TIP3    H236582   0.409   1.303   7.715 -0.3637 -2.2056 -2.2338
 4983TIP3   OH236583   3.051   0.593   8.035  0.0429  0.4710  0.3000
 4983TIP3    H136584   3.041   0.502   8.064 -0.5811  0.2327 -0.6228
 4983TIP3    H236585   2.993   0.600   7.959  1.5658  1.0974 -0.8346
 4984TIP3   OH236586   5.625   5.313   8.459 -0.0515  0.2135 -0.1256
 4984TIP3    H136587   5.603   5.250   8.390  0.1043  1.2672 -1.1725
 4984TIP3    H236588   5.696   5.365   8.422  2.8617 -1.6870  2.3354
 4985TIP3   OH236589   5.820   2.134   1.566 -0.6167  0.2473  0.5636
 4985TIP3    H136590   5.830   2.087   1.649 -0.2841 -2.0044 -0.7003
 4985TIP3    H236591   5.726   2.147   1.557 -0.7459 -0.5533  0.7283
 4986TIP3   OH236592   1.105   5.953   6.949  0.1128 -0.8531  0.2794
 4986TIP3    H136593   1.027   5.918   6.907 -0.2133 -0.7452  0.7933
 4986TIP3    H236594   1.072   6.009   7.019  0.6595 -1.4579  1.0307
 4987TIP3   OH236595   2.239   5.833   6.994 -0.7677 -0.1267  0.3657
 4987TIP3    H136596   2.303   5.889   7.037 -1.7011  0.2871  1.2746
 4987TIP3    H236597   2.209   5.884   6.919 -0.4205 -0.1013  0.2435
 4988TIP3   OH236598   5.746   4.805   6.304  0.3512  0.0963  0.2738
 4988TIP3    H136599   5.810   4.843   6.364 -0.2513  0.8138  0.4758
 4988TIP3    H236600   5.701   4.738   6.356  0.6682 -0.1488  0.2411
 4989TIP3   OH236601   0.376   5.055   0.683 -0.1151 -0.1051 -0.0979
 4989TIP3    H136602   0.414   5.108   0.613 -0.7817  0.5421  0.0218
 4989TIP3    H236603   0.284   5.082   0.686 -0.1272 -0.2495  0.9192
 4990TIP3   OH236604   1.719   5.841   0.873 -0.2548 -0.0347 -0.2973
 4990TIP3    H136605   1.787   5.838   0.940 -1.4331 -3.2716  0.9679
 4990TIP3    H236606   1.760   5.803   0.795 -0.3318 -1.2672  0.2385
 4991TIP3   OH236607   0.796   3.363   8.124  0.0550  0.3510  0.0653
 4991TIP3    H136608   0.831   3.319   8.046  1.3681  1.2988  0.0667
 4991TIP3    H236609   0.815   3.303   8.196 -0.0256  0.0235 -0.1827
 4992TIP3   OH236610   5.044   1.851   0.239 -0.3092 -0.5362  0.0300
 4992TIP3    H136611   5.040   1.813   0.151  0.4324 -0.1488 -0.1784
 4992TIP3    H236612   5.039   1.946   0.225  1.0515 -0.4039  0.2978
 4993TIP3   OH236613   6.725   3.354   8.820  0.4284 -0.4936 -0.5555
 4993TIP3    H136614   6.774   3.294   8.876  0.6037  0.1516 -0.0203
 4993TIP3    H236615   6.788   3.382   8.754  0.2585 -1.1435 -1.0099
 4994TIP3   OH236616   5.639   0.421   8.762 -0.6495 -0.9193  0.8591
 4994TIP3    H136617   5.566   0.426   8.701  0.5400 -0.4123 -0.5819
 4994TIP3    H236618   5.640   0.330   8.791 -0.2248 -1.6363 -1.2255
 4995TIP3   OH236619   5.091   1.621   1.870 -0.1264  0.8460  0.8945
 4995TIP3    H136620   5.050   1.558   1.930  1.3558 -2.7596 -1.5551
 4995TIP3    H236621   5.162   1.659   1.921 -0.6070  0.0160  2.2407
 4996TIP3   OH236622   5.029   5.011   6.944  0.4932  0.4005  0.0997
 4996TIP3    H136623   5.031   4.943   7.011 -0.7977  0.7679  0.5383
 4996TIP3    H236624   4.973   4.976   6.875  1.5180  0.1761 -0.6276
 4997TIP3   OH236625   1.828   5.861   8.407  0.3206 -0.3826  0.6209
 4997TIP3    H136626   1.751   5.908   8.374  0.8596 -1.9904 -3.4287
 4997TIP3    H236627   1.896   5.928   8.413 -0.8008  0.6786  2.3785
 4998TIP3   OH236628   2.910   0.044   2.213  0.4646 -0.0565  0.4223
 4998TIP3    H136629   2.942   0.081   2.296 -0.6330  3.1743 -0.4349
 4998TIP3    H236630   2.981  -0.012   2.183  1.5007 -0.1586  2.8309
 4999TIP3   OH236631   5.142   6.511   8.244  0.1783  0.7552  0.2684
 4999TIP3    H136632   5.088   6.502   8.166 -0.5804  0.5617  0.7966
 4999TIP3    H236633   5.232   6.503   8.213 -0.1472 -2.1906 -0.2550
 5000TIP3   OH236634   3.228   3.020   8.441  0.2419  0.1337  0.2831
 5000TIP3    H136635   3.296   2.978   8.493  0.3770 -1.9741 -1.4235
 5000TIP3    H236636   3.269   3.033   8.355 -1.1718 -0.2530 -0.4821
 5001TIP3   OH236637   1.801   4.058   6.292 -0.3031  0.8442  0.0484
 5001TIP3    H136638   1.872   3.994   6.295  0.8390  2.0678  0.1877
 5001TIP3    H236639   1.758   4.042   6.208  0.4383  0.3769 -0.2590
 5002TIP3   OH236640   2.479   5.022   7.634  0.7222  0.2568 -0.2812
 5002TIP3    H136641   2.460   5.000   7.725  0.3095  1.4016 -0.0862
 5002TIP3    H236642   2.394   5.032   7.593  0.8632 -1.9850 -1.2635
 5003TIP3   OH236643   0.217   3.980   0.516 -0.0820 -0.5859 -0.4076
 5003TIP3    H136644   0.126   3.992   0.544  0.1374 -0.9585  0.4872
 5003TIP3    H236645   0.224   3.887   0.495 -0.2445 -0.3174 -1.7672
 5004TIP3   OH236646   6.841   1.406   0.753 -0.5606 -0.4968 -0.4940
 5004TIP3    H136647   6.825   1.443   0.840 -1.7394 -3.1380  0.5082
 5004TIP3    H236648   6.936   1.395   0.749 -0.6089 -1.8884  1.1907
 5005TIP3   OH236649   4.693   4.053   1.445 -0.5608  0.6242 -0.2216
 5005TIP3    H136650   4.736   4.006   1.517 -2.0045  0.3140  0.4801
 5005TIP3    H236651   4.689   4.144   1.475 -0.2019  0.6991 -0.3920
 5006TIP3   OH236652   1.108   5.457   8.743 -0.4321  0.2567  0.2581
 5006TIP3    H136653   1.095   5.369   8.780  0.6865  0.0288  0.1240
 5006TIP3    H236654   1.170   5.498   8.802  0.2551  0.4029 -0.5571
 5007TIP3   OH236655   6.414   2.303   7.656 -0.3715  0.2011 -0.4888
 5007TIP3    H136656   6.447   2.391   7.637  0.3966 -0.0475 -0.3308
 5007TIP3    H236657   6.375   2.311   7.744 -0.8436  0.5216 -0.7233
 5008TIP3   OH236658   1.684   3.305   1.488 -0.1762  0.0573 -0.5833
 5008TIP3    H136659   1.705   3.273   1.576 -1.2289 -1.1973 -0.7499
 5008TIP3    H236660   1.600   3.349   1.498  0.8408  2.0694 -0.5376
 5009TIP3   OH236661   4.351   0.717   8.104  0.2091 -0.3495 -0.1191
 5009TIP3    H136662   4.445   0.726   8.090  0.0398 -0.4828 -1.4662
 5009TIP3    H236663   4.317   0.807   8.098  0.5144  0.0591  2.8620
 5010TIP3   OH236664   4.682   0.062   8.480  0.9562 -0.0137  0.2288
 5010TIP3    H136665   4.736   0.080   8.557  0.6711  0.4654  0.3210
 5010TIP3    H236666   4.637  -0.020   8.500  0.9109  0.0918  0.5577
 5011TIP3   OH236667   6.055   6.647   0.905  0.3835  0.2034  0.1793
 5011TIP3    H136668   5.971   6.601   0.897 -0.0068  0.8858  0.2307
 5011TIP3    H236669   6.063   6.695   0.822  0.1353  1.0870  0.6535
 5012TIP3   OH236670   3.698   1.063   8.348 -0.7548  0.6111  0.1599
 5012TIP3    H136671   3.609   1.027   8.347 -0.7738  0.6419  0.7769
 5012TIP3    H236672   3.742   1.019   8.275 -0.8661 -0.4679  0.7217
 5013TIP3   OH236673   3.018   2.631   7.799 -0.3371 -1.3355  0.0222
 5013TIP3    H136674   2.953   2.592   7.858 -0.0210 -1.9708 -0.0389
 5013TIP3    H236675   2.973   2.707   7.761 -0.4103 -0.6995  1.3475
 5014TIP3   OH236676   2.133   6.624   0.786  0.2194  0.1932 -0.4779
 5014TIP3    H136677   2.218   6.626   0.830 -0.3724 -0.3551  0.7231
 5014TIP3    H236678   2.099   6.537   0.803 -0.0616 -0.0413 -2.0297
 5015TIP3   OH236679   2.567   2.253   8.724  0.2578  0.4488 -0.7990
 5015TIP3    H136680   2.518   2.207   8.656  0.5033 -0.4666 -0.3692
 5015TIP3    H236681   2.506   2.258   8.798 -0.2263  1.9824 -1.2602
 5016TIP3   OH236682   2.112   2.298   1.408 -0.2601  0.4247 -0.3940
 5016TIP3    H136683   2.067   2.302   1.324  0.1023 -0.7257 -0.6659
 5016TIP3    H236684   2.093   2.382   1.450 -1.9856  0.2861 -0.8252
 5017TIP3   OH236685   0.249   4.099   1.668 -0.0648  0.2705  0.2379
 5017TIP3    H136686   0.196   4.027   1.634  1.0061 -0.4355 -0.0120
 5017TIP3    H236687   0.186   4.167   1.691 -0.9860 -0.0298 -1.2436
 5018TIP3   OH236688   6.232   1.305   7.327 -0.5064 -0.1210 -0.1788
 5018TIP3    H136689   6.231   1.400   7.328  0.6379 -0.0973 -0.0275
 5018TIP3    H236690   6.182   1.279   7.405  0.4100  0.3798  0.5904
 5019TIP3   OH236691   6.295   5.986   7.031  0.2835  0.0803 -0.5367
 5019TIP3    H136692   6.208   5.978   6.993  0.3695  1.1324 -1.0144
 5019TIP3    H236693   6.299   6.077   7.063  0.9642 -0.1533  0.0801
 5020TIP3   OH236694   2.581   5.122   8.472  0.4988  0.0042 -0.1485
 5020TIP3    H136695   2.551   5.032   8.467 -0.7424  0.4195 -0.6508
 5020TIP3    H236696   2.566   5.158   8.385  1.8052  0.4637 -0.2088
 5021TIP3   OH236697   4.037   0.748   6.261 -0.8768  0.1903 -0.1694
 5021TIP3    H136698   4.105   0.773   6.199 -0.8640 -1.1826 -0.7415
 5021TIP3    H236699   4.003   0.832   6.294 -1.0499  0.9823 -2.2022
 5022TIP3   OH236700   0.892   2.133   7.686  0.3118 -0.0963  0.5455
 5022TIP3    H136701   0.817   2.164   7.635  0.2874  0.9234  1.1766
 5022TIP3    H236702   0.876   2.039   7.696 -0.0060 -0.2008 -0.7507
 5023TIP3   OH236703   4.842   3.472   8.064  0.1863 -0.0755  0.6142
 5023TIP3    H136704   4.747   3.488   8.066  0.1865 -0.0693  0.5676
 5023TIP3    H236705   4.879   3.541   8.118  0.1741 -0.0119  0.5416
 5024TIP3   OH236706   4.849   2.701   1.255  0.3346 -0.1692 -0.1500
 5024TIP3    H136707   4.759   2.690   1.226  0.8500  0.6558 -2.2943
 5024TIP3    H236708   4.853   2.790   1.290  0.3903 -0.0784 -0.3856
 5025TIP3   OH236709   1.232   1.601   1.876 -0.0790  0.0518 -0.3865
 5025TIP3    H136710   1.169   1.637   1.937  1.2047  0.4503  0.7511
 5025TIP3    H236711   1.303   1.666   1.872  0.5502 -0.6452 -1.1588
 5026TIP3   OH236712   4.734   4.291   0.923 -0.2146  0.0251  0.7040
 5026TIP3    H136713   4.666   4.266   0.861  0.8242  0.1568 -0.5383
 5026TIP3    H236714   4.715   4.240   1.002 -0.0051 -2.3230 -0.6670
 5027TIP3   OH236715   5.809   6.170   6.770  0.3618 -0.2019  0.1529
 5027TIP3    H136716   5.743   6.101   6.776  0.8251 -0.6703  0.0412
 5027TIP3    H236717   5.779   6.238   6.829 -1.3813  0.5984 -1.5518
 5028TIP3   OH236718   4.312   1.733   7.871  0.1670  0.4749  0.3739
 5028TIP3    H136719   4.310   1.744   7.776  1.1023  0.1244  0.3037
 5028TIP3    H236720   4.222   1.709   7.894 -0.3893  1.8458 -0.2481
 5029TIP3   OH236721   0.894   6.024   0.217  0.4447 -1.0296 -0.2050
 5029TIP3    H136722   0.855   6.106   0.246 -1.5956 -1.5930 -1.1554
 5029TIP3    H236723   0.905   5.974   0.298 -0.3832 -0.6393  0.1651
 5030TIP3   OH236724   5.836   3.734   7.606  0.2753 -0.0412 -0.1233
 5030TIP3    H136725   5.740   3.727   7.604  0.3411 -1.4668 -2.5511
 5030TIP3    H236726   5.867   3.647   7.582  2.2413  0.1368  1.5868
 5031TIP3   OH236727   5.820   1.466   2.282  0.3948 -0.2642  0.2731
 5031TIP3    H136728   5.840   1.475   2.189 -1.8893 -3.3148 -0.6674
 5031TIP3    H236729   5.748   1.527   2.298 -0.6602 -1.2613 -0.5565
 5032TIP3   OH236730   6.140   1.009   7.574  0.5493 -0.1989 -0.0091
 5032TIP3    H136731   6.217   1.058   7.543 -0.2366  1.1592  0.0873
 5032TIP3    H236732   6.084   1.076   7.614 -1.3372 -0.9118 -1.3213
 5033TIP3   OH236733   0.561   6.100   1.058 -0.6333  0.7279 -0.0839
 5033TIP3    H136734   0.503   6.174   1.041 -0.8553  0.4764 -0.4144
 5033TIP3    H236735   0.518   6.050   1.127  0.1118  1.5717  1.0440
 5034TIP3   OH236736   2.704   6.012   8.605 -0.0501  0.0697 -0.6591
 5034TIP3    H136737   2.722   5.949   8.674  0.1030  0.7415 -0.0763
 5034TIP3    H236738   2.627   6.060   8.635 -0.3012  0.0068 -1.1991
 5035TIP3   OH236739   1.759   5.187   7.370 -0.3299 -0.0302  0.6315
 5035TIP3    H136740   1.844   5.144   7.383  0.9307  1.6180 -1.3339
 5035TIP3    H236741   1.725   5.149   7.289 -1.3003 -0.3881  1.1913
 5036TIP3   OH236742   2.803   5.761   1.262  0.1780 -0.0129  0.3000
 5036TIP3    H136743   2.808   5.733   1.171 -0.4394 -2.0947  0.8551
 5036TIP3    H236744   2.878   5.819   1.274 -0.5246  1.4619 -1.8843
 5037TIP3   OH236745   6.290   3.148   1.501  0.1749 -0.6058 -0.5051
 5037TIP3    H136746   6.283   3.060   1.536 -1.1833 -0.1252  0.5236
 5037TIP3    H236747   6.383   3.170   1.509  0.4941 -1.8758 -0.6218
 5038TIP3   OH236748   6.505   3.155   8.409 -0.1928 -0.9516 -0.1660
 5038TIP3    H136749   6.484   3.214   8.482  0.4241 -0.2597 -0.5310
 5038TIP3    H236750   6.420   3.131   8.372 -0.4862 -0.9515  0.5075
 5039TIP3   OH236751   6.254   3.138   7.189  0.7268  0.5430 -0.4700
 5039TIP3    H136752   6.321   3.091   7.140 -0.6448 -2.0075 -0.0474
 5039TIP3    H236753   6.171   3.112   7.149 -0.1972  1.4655  0.7547
 5040TIP3   OH236754   6.864   3.147   2.613  0.3327  0.3715 -0.0071
 5040TIP3    H136755   6.807   3.077   2.579  0.4294  0.4027 -0.2317
 5040TIP3    H236756   6.951   3.125   2.581  0.9893 -1.2313  2.6552
 5041TIP3   OH236757   2.794   3.374   1.174  0.3749 -0.4172  0.4858
 5041TIP3    H136758   2.750   3.356   1.091  0.5012  1.7665 -0.1163
 5041TIP3    H236759   2.867   3.431   1.150  1.2174 -0.8380  1.9597
 5042TIP3   OH236760   1.619   0.891   8.196  0.4059  0.5636  0.2501
 5042TIP3    H136761   1.682   0.922   8.130 -0.4866  0.0126 -0.8830
 5042TIP3    H236762   1.662   0.814   8.236  0.2398 -0.1439 -0.9015
 5043TIP3   OH236763   6.332   5.841   7.436  0.3955  0.4048 -0.1768
 5043TIP3    H136764   6.416   5.856   7.479  1.0840 -1.1649 -0.8962
 5043TIP3    H236765   6.318   5.747   7.444 -2.2052  0.8361  1.5175
 5044TIP3   OH236766   6.655   5.015   6.384  0.2524 -0.7278  0.1976
 5044TIP3    H136767   6.673   5.108   6.366 -1.8430 -0.3364 -0.1356
 5044TIP3    H236768   6.564   5.002   6.356 -0.6868 -2.0128  3.3670
 5045TIP3   OH236769   2.810   2.804   1.236  0.2208  0.1613  0.6581
 5045TIP3    H136770   2.768   2.812   1.322  1.9760  0.5894  1.5398
 5045TIP3    H236771   2.743   2.765   1.180 -0.2955 -2.3336  2.8048
 5046TIP3   OH236772   6.272   4.108   0.230  0.4664 -0.1395  0.2668
 5046TIP3    H136773   6.360   4.076   0.211  0.3918  0.3737 -1.0793
 5046TIP3    H236774   6.230   4.037   0.278  1.3805 -0.6853  0.2721
 5047TIP3   OH236775   1.814   4.044   2.238 -0.4201 -0.1035 -0.5598
 5047TIP3    H136776   1.744   3.989   2.275  0.1785 -0.0678  0.6611
 5047TIP3    H236777   1.895   4.008   2.274 -0.0239  1.7643  0.5451
 5048TIP3   OH236778   2.116   0.460   7.863 -0.1130 -0.0519 -0.1675
 5048TIP3    H136779   2.075   0.432   7.782 -0.0229  0.6194 -0.4547
 5048TIP3    H236780   2.044   0.467   7.926 -0.7592  2.6861 -1.0870
 5049TIP3   OH236781   3.644   6.605   0.984 -0.2190  0.4228  0.2688
 5049TIP3    H136782   3.639   6.576   0.893 -0.6174  1.7593 -0.1469
 5049TIP3    H236783   3.734   6.638   0.994  1.0653 -2.9377  1.4115
 5050TIP3   OH236784   4.780   2.167   0.338 -0.0380  0.0429 -0.4212
 5050TIP3    H136785   4.866   2.155   0.298 -0.1795  0.2865 -0.7988
 5050TIP3    H236786   4.771   2.261   0.348  0.1832 -0.0329  0.6013
 5051TIP3   OH236787   4.339   5.248   0.636  0.6622  0.2842  0.4381
 5051TIP3    H136788   4.420   5.265   0.684  1.3779 -0.6866 -0.4030
 5051TIP3    H236789   4.282   5.322   0.659  1.8897  1.1505  0.7976
 5052TIP3   OH236790   0.752   5.105   0.759  0.4564 -0.2296  0.0574
 5052TIP3    H136791   0.680   5.142   0.708  1.3651  0.5060 -0.7298
 5052TIP3    H236792   0.740   5.010   0.751 -0.8646 -0.1254  0.5971
 5053TIP3   OH236793   0.631   0.626   7.272 -0.6872 -0.8170 -0.6184
 5053TIP3    H136794   0.720   0.659   7.282 -0.8670 -0.7257  0.9242
 5053TIP3    H236795   0.607   0.649   7.183 -0.0042  1.2562 -0.3188
 5054TIP3   OH236796   3.255   3.935   8.313 -0.0521 -0.3017  0.1243
 5054TIP3    H136797   3.270   3.845   8.343 -1.7474 -0.3564  0.8903
 5054TIP3    H236798   3.164   3.937   8.285 -0.0942  1.2268  0.2814
 5055TIP3   OH236799   1.398   3.402   7.109 -0.4434  0.2790 -0.0377
 5055TIP3    H136800   1.410   3.475   7.170 -1.0813  0.6791 -0.3830
 5055TIP3    H236801   1.478   3.350   7.119  0.5518  1.6337 -0.6100
 5056TIP3   OH236802   4.064   1.864   6.306 -0.1627  0.3147  0.3525
 5056TIP3    H136803   4.156   1.881   6.326 -0.4463  0.5709  1.5193
 5056TIP3    H236804   4.055   1.887   6.213  1.0493 -0.1884  0.0897
 5057TIP3   OH236805   1.668   5.306   1.236 -0.3969 -0.2385  0.3883
 5057TIP3    H136806   1.737   5.372   1.245 -0.2835 -0.3367  0.2395
 5057TIP3    H236807   1.713   5.222   1.250 -0.1858 -0.4188 -1.1741
 5058TIP3   OH236808   1.416   2.701   8.078  1.2202  0.5630  0.0193
 5058TIP3    H136809   1.433   2.772   8.139  0.1629  1.4891 -0.7165
 5058TIP3    H236810   1.331   2.722   8.039 -0.4433 -2.4641  1.6684
 5059TIP3   OH236811   0.454   6.254   1.346  0.1409 -0.6649  0.0114
 5059TIP3    H136812   0.549   6.242   1.341  0.3134  0.0018  1.3184
 5059TIP3    H236813   0.441   6.346   1.322  0.0280 -0.2308  1.6584
 5060TIP3   OH236814   0.817   1.409   8.727 -0.6093 -0.0556 -0.3942
 5060TIP3    H136815   0.757   1.412   8.801 -0.9789 -2.1761 -0.5631
 5060TIP3    H236816   0.826   1.500   8.700  1.5501  1.2575  3.8162
 5061TIP3   OH236817   3.999   3.522   6.725 -0.0702 -0.2042 -0.3334
 5061TIP3    H136818   4.062   3.576   6.771 -1.6378  0.1925  1.4677
 5061TIP3    H236819   3.970   3.575   6.651 -0.2606  0.7171  0.3894
 5062TIP3   OH236820   3.369   6.456   1.337  0.3309 -0.4382  0.1797
 5062TIP3    H136821   3.363   6.372   1.381  0.1516 -1.9448 -2.4791
 5062TIP3    H236822   3.279   6.478   1.315  0.3934  0.3763  0.7148
 5063TIP3   OH236823   0.730   3.293   1.979 -0.1384  0.5586  0.3290
 5063TIP3    H136824   0.809   3.258   1.939 -0.9562 -2.1209  0.8289
 5063TIP3    H236825   0.754   3.382   2.007  2.4631  0.0631 -0.0963
 5064TIP3   OH236826   5.244   5.806   6.848  0.0549  0.3967  0.6582
 5064TIP3    H136827   5.262   5.781   6.758  0.1212  0.2346  0.7161
 5064TIP3    H236828   5.151   5.830   6.848 -0.1031 -0.1934  0.6760
 5065TIP3   OH236829   5.558   4.004   0.915 -0.8826 -0.1189  0.3917
 5065TIP3    H136830   5.607   3.932   0.874 -0.6735  0.8134 -1.0380
 5065TIP3    H236831   5.563   3.985   1.009  2.7256  0.1918  0.4128
 5066TIP3   OH236832   2.470   1.808   0.378  0.1600  0.4311  0.5192
 5066TIP3    H136833   2.383   1.840   0.403  0.1944  1.2566 -0.3599
 5066TIP3    H236834   2.452   1.745   0.308  0.3510  2.1655 -1.1692
 5067TIP3   OH236835   1.656   6.259   7.189  0.3898  0.2943 -0.0264
 5067TIP3    H136836   1.588   6.241   7.124  0.7097 -0.0820 -0.2636
 5067TIP3    H236837   1.611   6.305   7.260 -0.0886  0.1271 -0.2215
 5068TIP3   OH236838   4.146   1.198   1.570  0.2257  0.2550  0.2583
 5068TIP3    H136839   4.132   1.155   1.654  0.5198 -0.1231  0.1182
 5068TIP3    H236840   4.108   1.137   1.506 -1.9723  1.4897  0.2555
 5069TIP3   OH236841   1.662   4.232   8.763  0.4773  0.2792  0.5775
 5069TIP3    H136842   1.741   4.177   8.762 -0.2049 -0.7261  1.3332
 5069TIP3    H236843   1.642   4.245   8.855  0.5545  1.7344  0.4181
 5070TIP3   OH236844   5.488   5.173   6.536 -0.3899 -0.3219  0.6683
 5070TIP3    H136845   5.581   5.151   6.536 -0.3746 -0.3639 -0.6065
 5070TIP3    H236846   5.480   5.239   6.467 -1.4738 -1.1688 -0.0518
 5071TIP3   OH236847   0.694   2.103   7.978  0.4193  0.0624 -0.2241
 5071TIP3    H136848   0.778   2.063   8.003 -0.5912 -1.0782  1.5704
 5071TIP3    H236849   0.673   2.162   8.050 -0.6063 -0.1276 -0.3515
 5072TIP3   OH236850   0.369   4.944   7.700 -0.2965  0.1964  0.2588
 5072TIP3    H136851   0.378   4.955   7.795 -0.4599 -2.5463  0.6749
 5072TIP3    H236852   0.281   4.977   7.681 -0.3729  0.5337  1.1163
 5073TIP3   OH236853   1.030   6.855   8.664  0.3537 -0.0650 -0.2965
 5073TIP3    H136854   1.026   6.932   8.607  0.8269 -0.0650 -0.3327
 5073TIP3    H236855   0.988   6.786   8.613 -0.9573  0.3926  0.1164
 5074TIP3   OH236856   6.727   6.291   6.521 -0.3232  0.0478 -0.0724
 5074TIP3    H136857   6.633   6.281   6.508 -0.2351 -0.0599 -0.6165
 5074TIP3    H236858   6.754   6.354   6.454 -0.0719  0.3723  0.3300
 5075TIP3   OH236859   2.220   6.206   1.095 -0.5799 -0.0511  0.3955
 5075TIP3    H136860   2.263   6.163   1.022 -2.3140  1.3584 -1.5751
 5075TIP3    H236861   2.195   6.134   1.153 -1.2664 -1.5256 -1.5980
 5076TIP3   OH236862   3.701   6.602   8.430  0.2689  0.0671 -1.1041
 5076TIP3    H136863   3.660   6.687   8.446  0.7985  0.3929 -1.4724
 5076TIP3    H236864   3.627   6.543   8.412 -0.0229  0.7041 -2.0276
 5077TIP3   OH236865   0.907   1.444   0.933 -0.4329 -0.4257  0.0676
 5077TIP3    H136866   0.895   1.375   0.999 -0.9101  0.2820  0.7415
 5077TIP3    H236867   0.864   1.411   0.855  1.9085 -2.2007 -0.5830
 5078TIP3   OH236868   0.874   1.147   2.427 -0.3586  0.0138  0.2685
 5078TIP3    H136869   0.789   1.181   2.455  0.0958  1.5919 -0.1962
 5078TIP3    H236870   0.853   1.067   2.378 -1.5049 -0.0269  0.8039
 5079TIP3   OH236871   3.741   3.057   8.505 -0.0519  0.0428  0.2998
 5079TIP3    H136872   3.745   3.092   8.417  0.2643 -2.1724 -0.6315
 5079TIP3    H236873   3.832   3.038   8.528 -0.0064  1.5360  1.5565
 5080TIP3   OH236874   0.863   4.803   7.526  0.1878  0.2211 -0.5282
 5080TIP3    H136875   0.878   4.774   7.615 -0.2841 -0.4720 -0.6698
 5080TIP3    H236876   0.940   4.856   7.504  1.0491 -0.8883 -0.2582
 5081TIP3   OH236877   5.170   4.608   0.523 -0.6357 -0.6610  0.1596
 5081TIP3    H136878   5.225   4.628   0.448  0.4612 -0.1135  1.0750
 5081TIP3    H236879   5.091   4.660   0.510 -0.7324 -1.0744 -0.9338
 5082TIP3   OH236880   1.951   0.459   8.119  0.1311 -0.0170  0.1845
 5082TIP3    H136881   1.899   0.539   8.129  2.6052  1.7818 -0.2835
 5082TIP3    H236882   1.942   0.414   8.203 -2.2240  0.1213  0.0551
 5083TIP3   OH236883   4.575   3.035   6.637  0.3673 -0.3799  0.1295
 5083TIP3    H136884   4.625   3.096   6.583 -1.9606  2.2473  0.7001
 5083TIP3    H236885   4.528   2.980   6.574  1.3337 -0.6319 -0.4038
 5084TIP3   OH236886   6.133   3.387   1.129 -0.0437  0.1612  0.2936
 5084TIP3    H136887   6.154   3.303   1.171 -0.5268 -0.6128 -0.9650
 5084TIP3    H236888   6.180   3.452   1.181 -0.5797 -0.7540  2.0090
 5085TIP3   OH236889   1.719   4.722   1.918  0.0503 -0.6701 -0.3325
 5085TIP3    H136890   1.767   4.668   1.855 -0.5725  1.3277 -2.6813
 5085TIP3    H236891   1.757   4.810   1.909 -1.9154  0.2845 -0.0080
 5086TIP3   OH236892   1.740   0.651   0.380 -0.0858 -0.5939 -0.2256
 5086TIP3    H136893   1.802   0.634   0.451  0.6308 -0.0809 -0.7061
 5086TIP3    H236894   1.788   0.708   0.320 -0.4516 -1.5013 -1.4272
 5087TIP3   OH236895   1.898   3.214   7.513  0.0204 -0.4704  0.3737
 5087TIP3    H136896   1.848   3.246   7.438  1.0694 -1.6622 -0.8793
 5087TIP3    H236897   1.848   3.139   7.545 -1.0958  0.7847  1.7184
 5088TIP3   OH236898   3.413   3.055   6.500 -0.3609 -0.3431  0.5132
 5088TIP3    H136899   3.340   2.998   6.477  0.3922 -1.4209  0.7264
 5088TIP3    H236900   3.490   2.997   6.502  0.4302  0.6773  0.7161
 5089TIP3   OH236901   0.483   3.660   0.746 -0.1746  0.0360  0.4717
 5089TIP3    H136902   0.417   3.718   0.782 -1.5028 -1.0577 -0.0719
 5089TIP3    H236903   0.538   3.716   0.692 -0.7791  0.9621  0.7992
 5090TIP3   OH236904   5.337   0.645   0.004  0.0791  0.3163 -0.0041
 5090TIP3    H136905   5.330   0.736  -0.024 -1.0550 -0.3367 -2.0767
 5090TIP3    H236906   5.430   0.626   0.004  0.2182  0.8159 -2.0259
 5091TIP3   OH236907   0.576   1.097   0.359  0.1246 -0.1418  0.0515
 5091TIP3    H136908   0.563   1.191   0.370  0.0389 -0.0561 -0.6950
 5091TIP3    H236909   0.593   1.086   0.265 -0.3736 -0.9252  0.0414
 5092TIP3   OH236910   3.063   2.868   7.365 -0.3024  0.5892 -0.3216
 5092TIP3    H136911   3.143   2.899   7.408 -0.2688  2.0890 -1.3863
 5092TIP3    H236912   2.992   2.897   7.421 -0.1742  0.6613 -0.1979
 5093TIP3   OH236913   2.287   6.778   0.598  0.1346 -0.4506  0.7907
 5093TIP3    H136914   2.252   6.698   0.638 -1.1161  0.1577  0.9845
 5093TIP3    H236915   2.308   6.834   0.673 -0.1044 -0.1554  0.6378
 5094TIP3   OH236916   6.338   0.355   6.755 -0.5901  0.1630 -0.1566
 5094TIP3    H136917   6.412   0.295   6.750  0.4713  1.4536 -0.3792
 5094TIP3    H236918   6.283   0.320   6.825  0.3128 -0.7239  0.1248
 5095TIP3   OH236919   1.749   6.361   6.698  0.7646  0.0839 -0.0217
 5095TIP3    H136920   1.658   6.363   6.728  0.1639 -1.6507 -1.5670
 5095TIP3    H236921   1.757   6.438   6.642  0.0127 -0.1145 -0.4258
 5096TIP3   OH236922   5.575   5.448   0.456 -0.5209 -0.6427  0.1115
 5096TIP3    H136923   5.651   5.461   0.513 -1.2348 -0.7196  1.1210
 5096TIP3    H236924   5.500   5.447   0.517 -1.4662  0.7287 -0.9598
 5097TIP3   OH236925   1.054   4.561   8.444 -0.6100 -0.5057  0.6801
 5097TIP3    H136926   1.133   4.545   8.495 -1.1523 -2.5418  0.9707
 5097TIP3    H236927   1.086   4.593   8.360  0.4754 -0.5829  1.0469
 5098TIP3   OH236928   6.807   4.634   8.548 -0.0468  0.0421 -0.1218
 5098TIP3    H136929   6.889   4.590   8.528  0.5281  0.3944  1.3085
 5098TIP3    H236930   6.740   4.584   8.501  0.9326 -0.4618 -1.0202
 5099TIP3   OH236931   6.157   2.509   7.529 -0.5708  0.1447  0.3313
 5099TIP3    H136932   6.070   2.549   7.521 -0.1137  0.9278 -1.2026
 5099TIP3    H236933   6.154   2.434   7.470 -0.7379 -0.8480  1.5791
 5100TIP3   OH236934   0.762   1.254   7.260  0.2916 -0.0674 -0.5665
 5100TIP3    H136935   0.843   1.288   7.297 -0.5989  1.4505  0.1090
 5100TIP3    H236936   0.744   1.311   7.185 -0.7906  0.4998  0.0785
 5101TIP3   OH236937   0.909   1.594   7.254 -0.0709  0.1377 -0.2171
 5101TIP3    H136938   0.815   1.585   7.241 -0.3435  2.0721  0.0924
 5101TIP3    H236939   0.947   1.583   7.167 -0.4119 -1.8980 -0.1659
 5102TIP3   OH236940   0.906   3.775   0.259  0.7778 -0.4351 -1.0423
 5102TIP3    H136941   0.948   3.690   0.243  0.2550 -0.8383 -0.3480
 5102TIP3    H236942   0.862   3.764   0.343 -2.2110 -0.6481 -2.5155
 5103TIP3   OH236943   1.486   6.348   0.175 -0.1730  0.2365 -0.1002
 5103TIP3    H136944   1.418   6.386   0.120 -0.1363  1.7547  0.8322
 5103TIP3    H236945   1.450   6.351   0.264  0.2739 -0.9519  0.1404
 5104TIP3   OH236946   1.641   4.979   7.582 -0.8119  0.3610  0.3173
 5104TIP3    H136947   1.612   4.888   7.594  0.3798 -0.0567  0.2205
 5104TIP3    H236948   1.650   4.988   7.487  0.0272  0.2613  0.3848
 5105TIP3   OH236949   3.582   5.832   6.088 -0.1973 -0.1049 -0.1455
 5105TIP3    H136950   3.494   5.860   6.116 -0.2167  0.7228 -0.9872
 5105TIP3    H236951   3.569   5.746   6.050 -0.9849  0.7685 -1.9504
 5106TIP3   OH236952   6.314   2.986   1.864  1.0041  0.2584  0.3339
 5106TIP3    H136953   6.246   2.930   1.826  1.3644 -2.3787  3.1297
 5106TIP3    H236954   6.396   2.941   1.843  1.5087  0.9680  0.7554
 5107TIP3   OH236955   6.713   5.565   6.803 -0.2577 -0.4127 -0.6054
 5107TIP3    H136956   6.773   5.521   6.743 -0.1897 -2.6416  0.9783
 5107TIP3    H236957   6.667   5.629   6.748  2.1612  0.0490 -2.2544
 5108TIP3   OH236958   3.344   3.162   2.237 -0.0135 -0.1321 -0.1284
 5108TIP3    H136959   3.271   3.138   2.294 -1.2830  0.1335 -1.5467
 5108TIP3    H236960   3.356   3.255   2.251 -1.0922  0.1806 -1.0470
 5109TIP3   OH236961   0.617   6.849   8.590 -0.3940 -0.1080 -0.1642
 5109TIP3    H136962   0.524   6.870   8.591 -0.1472  1.0715 -0.3892
 5109TIP3    H236963   0.622   6.761   8.552 -1.2817  0.6769 -2.2130
 5110TIP3   OH236964   1.946   4.639   6.304  0.3271  0.1506  0.0383
 5110TIP3    H136965   1.909   4.700   6.240 -0.0930  0.7103  0.8010
 5110TIP3    H236966   1.880   4.633   6.372  1.0599  0.0976  0.7548
 5111TIP3   OH236967   6.085   1.932   7.854  0.6076 -0.2408 -0.2454
 5111TIP3    H136968   6.164   1.878   7.847  1.9766  1.7458 -1.2040
 5111TIP3    H236969   6.039   1.898   7.931  2.4265 -1.4421  0.3810
 5112TIP3   OH236970   3.250   5.332   8.713 -0.1818  0.6369  0.3297
 5112TIP3    H136971   3.218   5.269   8.648  1.2950  0.3410 -0.1513
 5112TIP3    H236972   3.261   5.281   8.793 -4.0984  1.4295  1.5865
 5113TIP3   OH236973   6.808   1.121   0.197 -0.0553 -0.1386 -0.1183
 5113TIP3    H136974   6.804   1.104   0.291  0.3792  0.5423  0.0343
 5113TIP3    H236975   6.808   1.216   0.190  0.6028 -0.1766 -0.7693
 5114TIP3   OH236976   1.981   6.229   0.088  0.4912 -0.2292 -0.2064
 5114TIP3    H136977   2.024   6.307   0.124 -0.3137  0.1527 -0.0557
 5114TIP3    H236978   1.977   6.244  -0.006 -0.8856  0.5558 -0.0489
 5115TIP3   OH236979   6.197   6.834   1.408  0.0714  0.8756 -0.4312
 5115TIP3    H136980   6.102   6.825   1.409  0.0879  0.6711  0.8952
 5115TIP3    H236981   6.228   6.777   1.478  1.0781  1.9071 -0.0061
 5116TIP3   OH236982   2.165   5.687   0.314  0.1013 -0.0211  0.1438
 5116TIP3    H136983   2.142   5.608   0.264  0.7517 -0.2356  0.1625
 5116TIP3    H236984   2.105   5.754   0.283 -1.3582 -0.8367  1.0666
 5117TIP3   OH236985   5.890   3.641   0.659  0.2463 -0.3867  0.1290
 5117TIP3    H136986   5.834   3.659   0.584  0.3726  1.3653  0.4251
 5117TIP3    H236987   5.977   3.628   0.621  0.5756  1.8262  0.0339
 5118TIP3   OH236988   1.361   5.051   0.166  0.1183  0.0238 -0.0943
 5118TIP3    H136989   1.296   5.081   0.102 -1.4541  0.4455  1.6329
 5118TIP3    H236990   1.310   5.018   0.240  1.8225  1.6168  1.9345
 5119TIP3   OH236991   1.011   3.561   6.666  0.3449 -0.0867  0.1860
 5119TIP3    H136992   0.972   3.532   6.749  0.9076  0.2319  0.5681
 5119TIP3    H236993   1.033   3.479   6.621 -1.1661 -0.2942 -0.2588
 5120TIP3   OH236994   0.228   0.200   0.145  0.1621 -0.0910  0.4521
 5120TIP3    H136995   0.251   0.292   0.157  0.7175 -0.0507 -0.8322
 5120TIP3    H236996   0.263   0.157   0.224 -2.9609  1.2087  2.7445
 5121TIP3   OH236997   4.541   0.355   8.279 -0.3392 -0.5530  0.1875
 5121TIP3    H136998   4.513   0.336   8.369 -0.2066  0.5224  0.4684
 5121TIP3    H236999   4.545   0.270   8.237 -2.4472 -0.9073  0.6090
 5122TIP3   OH237000   0.146   0.352   1.009 -0.1896 -0.1785  0.3011
 5122TIP3    H137001   0.091   0.394   1.076 -0.4950 -0.2041  0.0694
 5122TIP3    H237002   0.084   0.303   0.955  0.1415 -0.8134  0.4795
 5123TIP3   OH237003   0.920   5.928   7.899  0.4289  0.7271 -0.0886
 5123TIP3    H137004   0.949   5.909   7.988 -1.9125  1.4992  0.9194
 5123TIP3    H237005   0.925   5.844   7.853 -0.8632 -0.3120  1.5643
 5124TIP3   OH237006   1.222   6.645   1.230 -0.2629  0.7743  0.3301
 5124TIP3    H137007   1.315   6.621   1.234 -0.5266 -0.1648  1.8326
 5124TIP3    H237008   1.218   6.720   1.170  1.5564  1.2662  0.7761
 5125TIP3   OH237009   0.046   2.556   1.127  0.1865  0.5115  0.2788
 5125TIP3    H137010  -0.022   2.567   1.061  0.2253 -0.7670  0.0066
 5125TIP3    H237011   0.116   2.615   1.100 -0.3183  0.9373 -0.1111
 5126TIP3   OH237012   2.216   4.631   6.347 -0.0841  0.0496  0.3708
 5126TIP3    H137013   2.244   4.713   6.306 -0.1857 -0.5724 -0.9914
 5126TIP3    H237014   2.121   4.633   6.344 -0.0828 -0.2592  0.0343
 5127TIP3   OH237015   0.921   2.972   1.468  0.2771  0.3050 -0.2976
 5127TIP3    H137016   0.839   2.955   1.514  0.6715  0.3855  0.4651
 5127TIP3    H237017   0.979   2.902   1.496  0.4146  0.1479 -0.9728
 5128TIP3   OH237018   4.388   3.770   0.604  0.1931  0.1395 -0.4706
 5128TIP3    H137019   4.318   3.742   0.664  0.6942 -0.5035 -0.1756
 5128TIP3    H237020   4.464   3.784   0.660  1.0037 -1.6142 -1.0706
 5129TIP3   OH237021   0.401   3.651   2.043  0.3672  0.1685  0.7764
 5129TIP3    H137022   0.491   3.674   2.065  0.9627 -1.0433 -0.2548
 5129TIP3    H237023   0.391   3.561   2.074  0.1412 -0.3666 -0.7946
 5130TIP3   OH237024   2.849   3.358   7.842  0.0575  0.3310 -0.6771
 5130TIP3    H137025   2.803   3.433   7.804 -0.6584 -0.0948 -0.6708
 5130TIP3    H237026   2.783   3.313   7.894  0.7325  0.2483  0.1408
 5131TIP3   OH237027   6.331   4.827   1.358  0.0510  0.4985  0.0727
 5131TIP3    H137028   6.422   4.796   1.354 -0.0788  0.1853 -0.8379
 5131TIP3    H237029   6.336   4.920   1.335  0.3300  0.9392  1.8173
 5132TIP3   OH237030   2.406   6.402   1.071  0.6491  0.5379 -0.3019
 5132TIP3    H137031   2.386   6.448   0.989 -0.8828 -0.8259 -0.7335
 5132TIP3    H237032   2.333   6.342   1.084  2.4213 -1.6221  0.3686
 5133TIP3   OH237033   2.243   0.930   7.386 -0.2703  0.7128 -0.2620
 5133TIP3    H137034   2.279   0.879   7.460  0.4809  1.5337 -0.0415
 5133TIP3    H237035   2.168   0.879   7.356 -0.5157  0.2954  0.9937
 5134TIP3   OH237036   2.009   3.426   1.280  0.3350 -0.0304  0.2511
 5134TIP3    H137037   2.027   3.334   1.297  2.0020  0.1532 -0.3135
 5134TIP3    H237038   1.959   3.426   1.198  0.6438 -0.4241  0.0603
 5135TIP3   OH237039   6.066   4.982   7.736  0.3801 -0.4694 -0.5280
 5135TIP3    H137040   6.012   5.061   7.725 -0.2695 -0.9553 -0.8726
 5135TIP3    H237041   6.008   4.919   7.779  1.4151 -0.2080  1.3828
 5136TIP3   OH237042   0.206   5.709   8.405 -0.0761  0.2733 -0.0443
 5136TIP3    H137043   0.240   5.635   8.455  0.1939  0.4489  0.0347
 5136TIP3    H237044   0.116   5.683   8.382  0.0243 -0.0850 -0.0359
 5137TIP3   OH237045   3.643   3.986   1.129  0.1100 -0.0990  0.3396
 5137TIP3    H137046   3.629   4.071   1.170  0.7933  0.4239 -0.4642
 5137TIP3    H237047   3.729   3.959   1.159 -0.4119 -0.8652  1.1769
 5138TIP3   OH237048   5.697   2.384   7.000 -0.0355  0.0043 -0.5615
 5138TIP3    H137049   5.767   2.328   6.966  0.5552 -0.2388  0.9714
 5138TIP3    H237050   5.648   2.328   7.060  0.2407  0.9396  0.5898
 5139TIP3   OH237051   5.487   6.184   1.551  0.1730 -0.5874 -0.1453
 5139TIP3    H137052   5.450   6.165   1.637 -0.4535 -3.7006 -0.9955
 5139TIP3    H237053   5.579   6.160   1.559 -0.3129 -2.9195 -0.8177
 5140TIP3   OH237054   5.583   5.585   7.320  0.1830 -0.2205  0.5892
 5140TIP3    H137055   5.562   5.566   7.411 -0.5409 -2.1131  0.0698
 5140TIP3    H237056   5.514   5.646   7.292  1.1399  1.3978  1.6159
 5141TIP3   OH237057   2.944   6.676   0.837 -0.0281 -0.4343 -0.2599
 5141TIP3    H137058   3.001   6.635   0.772  0.2555  0.5648 -0.6673
 5141TIP3    H237059   2.865   6.700   0.788 -0.3591 -0.8477  0.0649
 5142TIP3   OH237060   0.538   3.976   7.696  0.3129 -0.0161 -0.0018
 5142TIP3    H137061   0.530   3.918   7.771 -0.3008 -1.3492 -1.0580
 5142TIP3    H237062   0.466   4.038   7.707 -0.2482 -0.6738  0.1270
 5143TIP3   OH237063   4.059   2.037   6.082 -0.3230  0.2124  0.3478
 5143TIP3    H137064   4.132   2.093   6.055 -0.0833 -0.1283  0.2780
 5143TIP3    H237065   4.011   2.090   6.145  0.1516  0.3372  0.6154
 5144TIP3   OH237066   0.042   4.303   8.178  0.3778 -0.2124  0.2096
 5144TIP3    H137067   0.061   4.211   8.197 -1.3823 -0.7234 -0.3457
 5144TIP3    H237068   0.041   4.308   8.082  1.3838  0.6128  0.2219
 5145TIP3   OH237069   6.469   0.526   6.994  0.9785 -0.5170  0.2151
 5145TIP3    H137070   6.496   0.583   7.065 -1.1600 -0.0443  0.7167
 5145TIP3    H237071   6.428   0.451   7.037 -1.4767  0.3563 -0.4499
 5146TIP3   OH237072   3.530   6.521   6.789  0.7448 -0.2175 -0.1784
 5146TIP3    H137073   3.562   6.455   6.727  1.6381 -0.2607  0.3089
 5146TIP3    H237074   3.477   6.471   6.851  0.7546 -0.3502 -0.2761
 5147TIP3   OH237075   2.888   5.645   7.591  0.2185  0.3030 -0.2784
 5147TIP3    H137076   2.977   5.623   7.620  0.2916  2.9539  1.9339
 5147TIP3    H237077   2.836   5.645   7.671 -1.9272 -1.4776 -1.5692
 5148TIP3   OH237078   6.606   5.447   2.072  0.7948  0.1849  0.0684
 5148TIP3    H137079   6.680   5.489   2.117  1.4074  0.6585 -1.3449
 5148TIP3    H237080   6.537   5.513   2.072  1.2915  0.7180 -0.9448
 5149TIP3   OH237081   1.836   2.781   0.980  0.2026 -0.2976  0.3877
 5149TIP3    H137082   1.751   2.737   0.970  0.5807 -1.1890  1.0165
 5149TIP3    H237083   1.890   2.742   0.911  0.3080 -0.2288  0.4328
 5150TIP3   OH237084   5.032   1.553   0.370 -0.2206  0.8162 -0.2405
 5150TIP3    H137085   5.012   1.637   0.328 -2.6196  1.5272  2.0346
 5150TIP3    H237086   5.088   1.575   0.444  2.9277 -0.2704 -2.1196
 5151TIP3   OH237087   4.425   0.928   7.220  0.5725 -0.1404 -0.1438
 5151TIP3    H137088   4.331   0.910   7.218  0.9186 -2.0995 -0.4746
 5151TIP3    H237089   4.455   0.886   7.300  1.1323  0.8440  0.1863
 5152TIP3   OH237090   2.938   3.925   8.356  0.0748 -0.0997  0.5720
 5152TIP3    H137091   2.932   3.955   8.446 -0.3277  0.1798  0.4528
 5152TIP3    H237092   2.958   4.004   8.306  1.9913 -0.5054  0.6028
 5153TIP3   OH237093   1.062   1.541   1.677  0.2122 -0.5346  0.1681
 5153TIP3    H137094   1.105   1.579   1.753  0.5019  0.5157 -0.5048
 5153TIP3    H237095   0.987   1.493   1.713 -0.6129  1.2877  1.0023
 5154TIP3   OH237096   6.669   1.918   8.397  0.4556 -0.1511  0.1940
 5154TIP3    H137097   6.599   1.858   8.373 -0.1610  0.3917  0.5901
 5154TIP3    H237098   6.637   2.004   8.368 -0.4567  0.5901  3.0595
 5155TIP3   OH237099   0.884   1.008   8.801 -0.1013 -0.4192  0.2292
 5155TIP3    H137100   0.829   0.977   8.728 -1.7458 -1.4710  1.8311
 5155TIP3    H237101   0.972   0.977   8.779 -0.7177 -1.4691 -0.8989
 5156TIP3   OH237102   5.070   0.983   1.356  0.2942 -0.8357 -0.2041
 5156TIP3    H137103   5.034   1.063   1.318  1.4652  0.7924  1.9102
 5156TIP3    H237104   5.010   0.961   1.427  1.0263 -0.6735  0.4798
 5157TIP3   OH237105   2.683   3.014   6.817  0.1682 -0.5514  0.6781
 5157TIP3    H137106   2.670   2.923   6.790 -0.3713  0.0617 -1.3560
 5157TIP3    H237107   2.749   3.047   6.755 -1.6983  1.1768 -0.5031
 5158TIP3   OH237108   5.438   0.866   8.680 -0.1854  0.0153 -0.7664
 5158TIP3    H137109   5.415   0.816   8.602  0.8814  1.1903 -1.8855
 5158TIP3    H237110   5.529   0.842   8.698  0.0612  0.8732 -0.8026
 5159TIP3   OH237111   3.296   6.151   6.790 -0.0130  0.3617 -0.2246
 5159TIP3    H137112   3.298   6.113   6.702 -0.4028  1.0454 -0.5395
 5159TIP3    H237113   3.260   6.239   6.777 -3.9693 -0.8817  1.1410
 5160TIP3   OH237114   4.733   1.155   0.026 -0.4283 -0.0285  0.2459
 5160TIP3    H137115   4.702   1.123  -0.058 -0.7993  1.6805 -0.3088
 5160TIP3    H237116   4.815   1.108   0.041 -0.0562  0.0620 -1.3539
 5161TIP3   OH237117   2.507   5.417   7.438 -0.9459  0.4795 -0.0378
 5161TIP3    H137118   2.469   5.504   7.423 -1.2938  0.4867  0.8322
 5161TIP3    H237119   2.432   5.363   7.463 -0.6494  0.0514 -0.0819
 5162TIP3   OH237120   1.566   3.465   1.047  0.1524 -0.1171  0.0171
 5162TIP3    H137121   1.587   3.490   0.956 -1.4493  0.4132 -0.2402
 5162TIP3    H237122   1.563   3.369   1.045  3.2895 -0.3395  0.3014
 5163TIP3   OH237123   6.171   6.672   2.068 -0.1444 -0.0420  0.0778
 5163TIP3    H137124   6.097   6.639   2.017  0.4652  0.4292 -1.1358
 5163TIP3    H237125   6.131   6.728   2.135 -0.9867 -1.0574  0.4463
 5164TIP3   OH237126   6.779   3.262   2.134 -0.0018 -0.0352 -0.3086
 5164TIP3    H137127   6.863   3.304   2.147  0.9676 -1.9863  0.0845
 5164TIP3    H237128   6.719   3.309   2.191  0.8263  1.3327 -0.5377
 5165TIP3   OH237129   4.342   4.484   2.528  0.2028  0.3405  0.6107
 5165TIP3    H137130   4.416   4.525   2.574 -0.5981  0.8393  1.5061
 5165TIP3    H237131   4.339   4.527   2.443  2.6026 -1.5914 -0.5806
 5166TIP3   OH237132   5.845   4.475   1.809  1.0037  0.1678  0.2700
 5166TIP3    H137133   5.859   4.486   1.903  0.0173  0.5605  0.3884
 5166TIP3    H237134   5.766   4.526   1.791  0.3956 -1.0139 -0.5157
 5167TIP3   OH237135   4.409   3.004   0.286  0.1944 -0.4313  0.0265
 5167TIP3    H137136   4.357   2.952   0.224  1.1377 -0.3095 -0.9044
 5167TIP3    H237137   4.497   3.007   0.247  0.1936  1.8160  0.0613
 5168TIP3   OH237138   2.361   6.349   0.154 -0.2863 -0.3521  0.1663
 5168TIP3    H137139   2.333   6.262   0.126  2.1311 -1.2933  0.4610
 5168TIP3    H237140   2.345   6.405   0.079 -1.5893 -1.1038 -0.1390
 5169TIP3   OH237141   5.839   2.195   8.050 -0.5153  0.3620 -0.4685
 5169TIP3    H137142   5.920   2.191   7.999 -0.3794 -1.4477 -0.1479
 5169TIP3    H237143   5.784   2.256   8.001  1.1764  2.0636 -0.4261
 5170TIP3   OH237144   4.412   0.746   7.832  0.3676  0.3290  0.2129
 5170TIP3    H137145   4.389   0.839   7.832 -1.3890 -0.0633 -0.1069
 5170TIP3    H237146   4.354   0.708   7.898 -1.3198 -1.0127 -1.8890
 5171TIP3   OH237147   4.613   5.467   1.237  0.2289 -0.7745 -0.4042
 5171TIP3    H137148   4.643   5.494   1.324 -1.4688 -1.1792  0.3503
 5171TIP3    H237149   4.563   5.387   1.253  0.9787 -1.5913 -1.9496
 5172TIP3   OH237150   4.286   6.288   7.615  0.7307 -0.7044 -0.0494
 5172TIP3    H137151   4.317   6.378   7.613  2.0264 -1.1028 -2.9943
 5172TIP3    H237152   4.349   6.240   7.562 -2.0629 -2.5807 -1.9195
 5173TIP3   OH237153   6.423   1.461   6.617  0.1388 -0.0856 -0.4457
 5173TIP3    H137154   6.441   1.447   6.524  0.2841 -0.5310 -0.3519
 5173TIP3    H237155   6.354   1.527   6.619  0.9277  0.7742 -0.8480
 5174TIP3   OH237156   3.894   1.633   7.309  0.5211  0.5205 -0.9086
 5174TIP3    H137157   3.813   1.674   7.278  0.3093  0.7378 -0.0953
 5174TIP3    H237158   3.867   1.548   7.343  0.2206  1.5500  1.5734
 5175TIP3   OH237159   0.601   5.339   7.470 -0.1134 -0.6173 -0.7641
 5175TIP3    H137160   0.539   5.388   7.417 -1.9615 -0.8688  1.0218
 5175TIP3    H237161   0.548   5.303   7.542  2.0620 -1.0063  0.7607
 5176TIP3   OH237162   0.593   0.371   8.526  0.1802 -0.4248  0.5264
 5176TIP3    H137163   0.600   0.467   8.529 -1.1858 -0.3240  0.7454
 5176TIP3    H237164   0.681   0.341   8.548  0.4296  0.7757  1.2940
 5177TIP3   OH237165   4.401   5.471   8.836 -0.3756 -0.2625 -0.5981
 5177TIP3    H137166   4.435   5.388   8.803  0.5304  0.1668 -0.7473
 5177TIP3    H237167   4.469   5.535   8.817 -1.8008  0.8912 -2.1460
 5178TIP3   OH237168   2.278   3.594   0.248 -0.4889  0.5789  0.7850
 5178TIP3    H137169   2.308   3.531   0.313  2.5502  1.1050  0.0298
 5178TIP3    H237170   2.189   3.565   0.225 -1.0836 -0.4846  3.9859
 5179TIP3   OH237171   3.421   5.727   6.573 -0.4566  0.4148  0.6903
 5179TIP3    H137172   3.457   5.739   6.661 -1.3246 -0.0818  1.1336
 5179TIP3    H237173   3.427   5.633   6.558  1.3455  0.6779 -0.5459
 5180TIP3   OH237174   1.430   4.219   8.615 -0.3716 -0.0184  0.1431
 5180TIP3    H137175   1.396   4.130   8.604  0.4241 -0.3115 -0.0726
 5180TIP3    H237176   1.515   4.206   8.659 -1.3520  0.8011  2.4180
 5181TIP3   OH237177   3.301   3.029   8.173 -0.4292  0.4251 -0.6959
 5181TIP3    H137178   3.291   2.934   8.176 -2.4114  0.5992  2.0580
 5181TIP3    H237179   3.242   3.057   8.104 -0.8012 -0.2629 -0.6676
 5182TIP3   OH237180   5.981   2.198   0.730  0.1028 -0.0855 -0.2748
 5182TIP3    H137181   6.076   2.206   0.726  0.0361  1.1032  0.1512
 5182TIP3    H237182   5.957   2.238   0.814 -0.6131 -2.2073  0.6077
 5183TIP3   OH237183   5.908   4.524   7.628 -0.0467  0.0139 -0.1456
 5183TIP3    H137184   5.937   4.444   7.584 -0.3400  0.4586 -1.1776
 5183TIP3    H237185   5.948   4.594   7.578 -0.3854  0.5355  0.3083
 5184TIP3   OH237186   1.101   2.954   8.192 -0.1431  1.0238  0.1071
 5184TIP3    H137187   1.145   2.901   8.125 -0.9369  1.0853 -0.4736
 5184TIP3    H237188   1.170   3.011   8.226  0.3095  0.8763 -0.5378
 5185TIP3   OH237189   5.215   3.077   6.886 -0.2041 -0.0269  0.0872
 5185TIP3    H137190   5.170   3.150   6.927  1.5007  0.4376  1.2343
 5185TIP3    H237191   5.274   3.117   6.823  0.7759 -0.3898  0.7534
 5186TIP3   OH237192   2.006   3.413   8.820  0.2040  0.5097 -0.4881
 5186TIP3    H137193   1.992   3.448   8.908  1.6263  1.8147 -0.7585
 5186TIP3    H237194   2.076   3.349   8.830 -0.2154  0.0338 -0.5434
 5187TIP3   OH237195   2.807   3.846   7.161  0.6596 -0.5661  0.2571
 5187TIP3    H137196   2.776   3.795   7.086 -0.4867  0.8132 -0.2719
 5187TIP3    H237197   2.897   3.870   7.139  0.3778 -0.2917 -0.6335
 5188TIP3   OH237198   2.791   1.619   7.809  0.3066 -0.0654  0.2757
 5188TIP3    H137199   2.818   1.534   7.844 -0.4842 -0.7506 -0.7182
 5188TIP3    H237200   2.751   1.664   7.883  2.0741  0.0768  1.2083
 5189TIP3   OH237201   3.116   2.643   0.341 -0.1178 -0.3113 -0.8539
 5189TIP3    H137202   3.052   2.641   0.413  1.8758 -1.0856  1.0012
 5189TIP3    H237203   3.063   2.661   0.263 -2.5223 -0.4031  0.6404
 5190TIP3   OH237204   1.089   2.282   7.764 -0.2615  0.2158 -0.0640
 5190TIP3    H137205   1.167   2.230   7.782 -0.6538  0.2195  1.8378
 5190TIP3    H237206   1.021   2.218   7.743  0.0657  0.1852 -1.1226
 5191TIP3   OH237207   3.231   1.757   6.949  0.2713 -0.6907 -0.2428
 5191TIP3    H137208   3.327   1.760   6.944  0.2540  0.2715 -0.0893
 5191TIP3    H237209   3.211   1.784   7.038 -0.1818  0.0018 -0.5501
 5192TIP3   OH237210   4.531   3.700   1.535 -0.0921  0.1501  0.1046
 5192TIP3    H137211   4.541   3.792   1.513  0.0850 -0.1493 -1.1272
 5192TIP3    H237212   4.525   3.655   1.451 -0.7976 -0.9012  0.6854
 5193TIP3   OH237213   2.848   6.562   1.431 -0.6130  0.1821  0.1367
 5193TIP3    H137214   2.829   6.604   1.348 -0.0867 -0.1270 -0.1492
 5193TIP3    H237215   2.823   6.471   1.418  1.0897 -0.2661 -0.2949
 5194TIP3   OH237216   5.819   5.861   7.805  0.4898  0.7916 -0.3176
 5194TIP3    H137217   5.753   5.863   7.736  0.4662  0.9647 -0.2920
 5194TIP3    H237218   5.880   5.932   7.781  0.2418  1.1420  0.0714
 5195TIP3   OH237219   5.904   1.260   2.468 -0.5278  0.2748  0.2311
 5195TIP3    H137220   5.863   1.330   2.418  0.6098  0.8933  0.1343
 5195TIP3    H237221   5.984   1.240   2.420  0.6360  0.9396  1.8368
 5196TIP3   OH237222   0.211   5.329   0.997 -0.4745 -0.6559 -0.8303
 5196TIP3    H137223   0.136   5.272   0.978 -1.9142  0.2146  1.7160
 5196TIP3    H237224   0.172   5.415   1.011  0.9163 -0.2811  1.0481
 5197TIP3   OH237225   6.326   1.818   7.938  0.3548  0.2316 -0.4791
 5197TIP3    H137226   6.381   1.831   7.861  1.0859  2.1474  0.3345
 5197TIP3    H237227   6.381   1.841   8.012 -0.6512 -0.6400  0.5850
 5198TIP3   OH237228   1.668   4.961   6.187  0.2796 -0.0696 -0.1548
 5198TIP3    H137229   1.695   4.951   6.279 -1.0385  0.3073  0.2912
 5198TIP3    H237230   1.748   4.944   6.137  1.0845 -0.0387  1.0714
 5199TIP3   OH237231   0.999   2.566   0.305  0.2575  0.3389 -0.2658
 5199TIP3    H137232   0.909   2.546   0.329  0.8127 -0.9294  0.8521
 5199TIP3    H237233   1.028   2.492   0.252  1.2561 -0.2551  1.0508
 5200TIP3   OH237234   2.882   2.151   1.285  0.1290 -0.3706  0.7407
 5200TIP3    H137235   2.935   2.201   1.223  0.1590 -2.3598 -0.9667
 5200TIP3    H237236   2.792   2.170   1.259  0.1147 -0.4799  0.7126
 5201TIP3   OH237237   5.882   4.377   8.834 -0.0835 -0.0459  0.5527
 5201TIP3    H137238   5.928   4.321   8.897 -0.3465  0.8383  1.5641
 5201TIP3    H237239   5.792   4.378   8.864  0.2398  2.3171  1.6407
 5202TIP3   OH237240   0.593   1.287   6.832  0.0693 -0.6425 -0.3140
 5202TIP3    H137241   0.537   1.346   6.781 -0.9572 -0.9097  0.4796
 5202TIP3    H237242   0.624   1.223   6.768 -0.4771 -0.4480 -0.7847
 5203TIP3   OH237243   3.531   4.050   1.406  0.3287 -0.4167 -0.8663
 5203TIP3    H137244   3.606   4.027   1.461  0.2163 -0.1108 -0.5832
 5203TIP3    H237245   3.560   4.128   1.359  0.2933 -0.4681 -0.9724
 5204TIP3   OH237246   3.953   0.953   1.286 -0.5819 -0.4411  0.8518
 5204TIP3    H137247   3.937   0.861   1.266  1.3632 -1.2571  2.6905
 5204TIP3    H237248   3.891   0.973   1.356  0.0123 -0.8071  1.4872
 5205TIP3   OH237249   5.574   3.004   7.331  0.3970 -0.4055  0.4584
 5205TIP3    H137250   5.653   2.971   7.288  0.8523 -1.3735  1.9154
 5205TIP3    H237251   5.535   2.925   7.370 -2.6467 -0.3791 -2.2068
 5206TIP3   OH237252   2.725   2.069   0.004 -0.4137 -0.0547  0.5337
 5206TIP3    H137253   2.716   2.149  -0.049  0.1227  0.4211  1.1372
 5206TIP3    H237254   2.819   2.061   0.019 -0.4114 -1.1172  0.0253
 5207TIP3   OH237255   4.325   4.564   0.206 -0.4523  0.2240 -0.1416
 5207TIP3    H137256   4.373   4.492   0.165 -0.7217 -1.3055  2.0779
 5207TIP3    H237257   4.359   4.569   0.295 -0.8642  2.5024 -0.0382
 5208TIP3   OH237258   1.067   0.464   5.973  0.2360 -0.2847 -0.1732
 5208TIP3    H137259   1.132   0.413   6.022  1.3079  1.4786  0.3326
 5208TIP3    H237260   1.067   0.425   5.886  0.8939 -1.2469  0.2378
 5209TIP3   OH237261   0.845   4.819   0.777 -0.1319 -0.3196  0.2707
 5209TIP3    H137262   0.866   4.801   0.685  1.1340  2.6090 -0.1178
 5209TIP3    H237263   0.750   4.814   0.782 -0.3898  1.4160 -1.7152
 5210TIP3   OH237264   4.928   5.160   0.227 -0.2745 -0.1102 -0.0427
 5210TIP3    H137265   5.010   5.191   0.188  0.7897 -0.3560  1.8831
 5210TIP3    H237266   4.921   5.208   0.310 -1.7185 -0.6184  0.1631
 5211TIP3   OH237267   3.769   2.967   6.670 -0.3447  0.1340  0.1698
 5211TIP3    H137268   3.834   2.897   6.676 -0.9111 -0.2727  2.1827
 5211TIP3    H237269   3.696   2.928   6.621  0.1984  0.0389 -0.5841
 5212TIP3   OH237270   5.012   5.249   6.688  0.1596  0.4173  0.5889
 5212TIP3    H137271   4.924   5.272   6.719 -0.8453 -2.4418  0.1239
 5212TIP3    H237272   5.001   5.167   6.641  3.3410 -1.0221  2.0230
 5213TIP3   OH237273   4.601   2.786   7.967 -0.4710 -0.0770 -0.2078
 5213TIP3    H137274   4.528   2.835   8.004 -0.0439  0.8316 -0.5392
 5213TIP3    H237275   4.640   2.845   7.903 -0.9643 -1.4965 -1.8650
 5214TIP3   OH237276   0.492   6.531   1.422 -0.3204 -0.6749 -0.4619
 5214TIP3    H137277   0.529   6.478   1.493  1.2304 -0.1262 -0.8268
 5214TIP3    H237278   0.510   6.621   1.447  0.5940 -0.4848 -1.7132
 5215TIP3   OH237279   2.361   3.753   7.264  0.4977  0.1202 -0.9000
 5215TIP3    H137280   2.451   3.772   7.290  0.7916 -1.2359 -0.8364
 5215TIP3    H237281   2.366   3.739   7.169  0.4201 -0.2566 -0.8508
 5216TIP3   OH237282   5.061   4.394   8.486  0.6517 -0.1491  0.1458
 5216TIP3    H137283   5.011   4.386   8.405  1.9381 -0.8391 -0.6182
 5216TIP3    H237284   5.046   4.311   8.531  2.7176 -1.2725 -1.0875
 5217TIP3   OH237285   4.087   6.241   0.740  0.0453  0.1228  0.3773
 5217TIP3    H137286   4.040   6.306   0.688 -2.1909 -1.6920 -0.0541
 5217TIP3    H237287   4.177   6.245   0.707 -0.7888  0.6168 -2.1075
 5218TIP3   OH237288   3.241   5.404   7.068  0.1828  0.5189  0.4091
 5218TIP3    H137289   3.157   5.446   7.082  0.3098  1.4358 -1.2677
 5218TIP3    H237290   3.226   5.311   7.086 -0.6418  0.9532  2.1008
 5219TIP3   OH237291   0.677   1.419   7.853 -0.2938  1.1458 -0.7285
 5219TIP3    H137292   0.604   1.476   7.878  1.1039  2.8967 -0.4187
 5219TIP3    H237293   0.722   1.399   7.936 -1.3161 -1.3292 -0.6786
 5220TIP3   OH237294   5.728   2.359   2.267 -0.1007  0.5842  0.1918
 5220TIP3    H137295   5.653   2.374   2.210  1.4992 -0.2219 -2.2696
 5220TIP3    H237296   5.718   2.269   2.298 -0.6866  0.8400  0.7616
 5221TIP3   OH237297   1.110   5.195   0.044  0.2927  0.5715 -0.3267
 5221TIP3    H137298   1.097   5.230   0.132  1.0224 -0.0623  0.0421
 5221TIP3    H237299   1.043   5.127   0.036  1.4011 -0.6723  0.4720
 5222TIP3   OH237300   1.904   1.936   0.365 -0.2903 -0.3550 -0.1864
 5222TIP3    H137301   1.872   1.885   0.441 -0.4721  1.4042  0.9663
 5222TIP3    H237302   1.828   1.986   0.336  0.8217  2.4611  1.4089
 5223TIP3   OH237303   0.887   3.191   7.889  0.1377  0.0270  0.0522
 5223TIP3    H137304   0.832   3.113   7.878 -1.2253  0.6908  1.7917
 5223TIP3    H237305   0.856   3.252   7.822 -1.1018  0.2842  0.8316
 5224TIP3   OH237306   0.050   6.786   8.006 -0.2428 -0.1756  0.5779
 5224TIP3    H137307   0.043   6.879   8.024 -2.1452 -0.6898  2.9800
 5224TIP3    H237308  -0.016   6.745   8.062  1.0679 -3.0401  0.2282
 5225TIP3   OH237309   4.650   0.641   0.158 -0.0300  0.0870  0.0533
 5225TIP3    H137310   4.627   0.721   0.111 -0.7228 -0.5706 -0.7662
 5225TIP3    H237311   4.734   0.615   0.122 -1.8164 -2.0138 -3.1331
 5226TIP3   OH237312   6.577   3.521   0.121 -0.1182  0.2890  0.3988
 5226TIP3    H137313   6.625   3.470   0.056  0.0926  1.8267 -0.7094
 5226TIP3    H237314   6.589   3.473   0.203  0.0902 -1.3983 -0.5626
 5227TIP3   OH237315   3.292   1.033   8.630 -0.2064 -0.7047 -0.1728
 5227TIP3    H137316   3.317   1.092   8.559 -0.8062  0.1020  0.2602
 5227TIP3    H237317   3.370   0.980   8.647  1.4110  1.9338  1.3626
 5228TIP3   OH237318   4.702   4.043   1.735  0.1337 -0.2356  0.7059
 5228TIP3    H137319   4.616   4.075   1.763  0.1413  0.8447 -0.3868
 5228TIP3    H237320   4.755   4.123   1.729  0.8639 -0.7526  0.2150
 5229TIP3   OH237321   1.414   4.445   1.128  0.7011 -0.2800  0.8844
 5229TIP3    H137322   1.405   4.350   1.131  0.2957 -0.3114 -0.7438
 5229TIP3    H237323   1.329   4.478   1.158 -0.4445 -0.5059 -1.8110
 5230TIP3   OH237324   4.016   2.938   0.428  0.2583 -0.5006 -0.1766
 5230TIP3    H137325   4.090   2.904   0.378  1.1050  0.1595  0.6010
 5230TIP3    H237326   3.960   2.979   0.363  1.4885  0.6110 -0.5815
 5231TIP3   OH237327   1.893   4.517   8.055 -0.0353 -0.3319 -0.2945
 5231TIP3    H137328   1.842   4.447   8.095  2.9502 -2.4973  0.0742
 5231TIP3    H237329   1.902   4.491   7.963  0.4860 -0.0438 -0.3295
 5232TIP3   OH237330   3.626   3.568   6.514 -0.9190 -0.2850  0.2338
 5232TIP3    H137331   3.571   3.542   6.439 -1.0134 -0.3554  0.3279
 5232TIP3    H237332   3.611   3.500   6.580 -2.3262  0.7844  1.0639
 5233TIP3   OH237333   3.597   0.172   0.549  0.5812  0.0969 -0.4789
 5233TIP3    H137334   3.598   0.168   0.645 -0.0682  1.9515 -0.3478
 5233TIP3    H237335   3.552   0.254   0.529 -1.6320 -1.4411 -2.4363
 5234TIP3   OH237336   5.986   0.031   0.236 -0.1285  0.1622 -0.6628
 5234TIP3    H137337   6.071   0.054   0.199 -0.3706 -0.3661 -1.5896
 5234TIP3    H237338   5.989   0.061   0.326  1.0856  0.0467 -0.6573
 5235TIP3   OH237339   6.172   6.025   0.033 -0.0352  0.2109 -0.2596
 5235TIP3    H137340   6.181   5.959   0.102 -0.0907 -0.8148 -1.2008
 5235TIP3    H237341   6.084   6.059   0.043 -0.2645 -0.3838 -0.1992
 5236TIP3   OH237342   3.062   4.525   8.553  0.3591  0.4058 -0.4527
 5236TIP3    H137343   3.143   4.557   8.514  1.5766 -1.0023  0.7887
 5236TIP3    H237344   2.993   4.575   8.510  1.8360  1.1953 -2.0074
 5237TIP3   OH237345   4.178   4.036   6.920  0.1125  0.1991 -0.1600
 5237TIP3    H137346   4.190   4.083   7.003 -1.7131 -0.7805  0.7392
 5237TIP3    H237347   4.213   3.949   6.937 -1.1441 -0.3090 -0.0529
 5238TIP3   OH237348   5.181   3.787   1.404  0.1114  0.1607  0.1838
 5238TIP3    H137349   5.126   3.728   1.352 -0.0130 -0.3628  0.8968
 5238TIP3    H237350   5.135   3.871   1.403  0.7870  0.5709 -1.6883
 5239TIP3   OH237351   6.580   4.506   8.443 -0.2649  0.3552  0.0567
 5239TIP3    H137352   6.532   4.450   8.381  1.0314 -0.8814  0.1040
 5239TIP3    H237353   6.530   4.587   8.446 -1.7563 -0.4969 -0.6722
 5240TIP3   OH237354   6.310   3.361   2.521 -0.4625 -0.0881  0.0538
 5240TIP3    H137355   6.328   3.442   2.475  2.0836  0.4022  1.7365
 5240TIP3    H237356   6.339   3.292   2.461  2.3429  0.5240  0.5660
 5241TIP3   OH237357   4.514   1.503   6.555  0.5563 -0.4221 -0.0869
 5241TIP3    H137358   4.600   1.462   6.560  1.3430  1.2983  2.4579
 5241TIP3    H237359   4.520   1.565   6.483  0.8800 -1.4337 -0.9525
 5242TIP3   OH237360   2.683   0.328   7.423  0.2237 -0.6557  0.0660
 5242TIP3    H137361   2.626   0.278   7.364  0.7893 -0.0621 -1.0202
 5242TIP3    H237362   2.765   0.337   7.375  0.1801  1.2121  0.2740
 5243TIP3   OH237363   3.377   4.025   8.077  0.2549 -0.0034 -0.1955
 5243TIP3    H137364   3.461   4.071   8.085  0.0165  0.2845  0.7438
 5243TIP3    H237365   3.357   3.996   8.165 -1.2094  0.9659 -0.1729
 5244TIP3   OH237366   0.642   0.072   7.932 -0.2946  0.2223  0.2953
 5244TIP3    H137367   0.709   0.139   7.925  0.8085 -0.6601  1.7983
 5244TIP3    H237368   0.687  -0.010   7.910 -0.6756 -0.4627  1.8716
 5245TIP3   OH237369   0.228   0.348   7.177 -0.1101  0.3785  0.0758
 5245TIP3    H137370   0.245   0.267   7.128 -0.3111  0.6141 -0.3895
 5245TIP3    H237371   0.272   0.334   7.261  0.6198  0.1443 -0.3353
 5246TIP3   OH237372   0.165   6.446   7.670  0.6069  0.2547  0.1244
 5246TIP3    H137373   0.218   6.436   7.749 -0.3621  1.2041  0.9245
 5246TIP3    H237374   0.127   6.533   7.677 -0.5544 -0.1483 -0.7276
 5247TIP3   OH237375   4.621   1.952   1.123  0.2410 -0.3541 -0.8328
 5247TIP3    H137376   4.597   2.043   1.105 -1.5267 -0.9700 -1.7828
 5247TIP3    H237377   4.711   1.958   1.156 -0.3801  1.8802  0.7340
 5248TIP3   OH237378   5.944   1.087   0.141  0.0104  0.8211 -0.0116
 5248TIP3    H137379   6.022   1.129   0.106  2.1288 -3.2824 -0.7974
 5248TIP3    H237380   5.955   1.093   0.236  3.0606 -2.2277 -0.0063
 5249TIP3   OH237381   4.020   6.844   8.323 -0.0885 -0.1656 -0.0834
 5249TIP3    H137382   3.979   6.759   8.306 -2.0396  0.2615  2.0051
 5249TIP3    H237383   3.955   6.908   8.294 -0.2557  0.5600  1.7729
 5250TIP3   OH237384   5.060   2.047   0.746  0.0430 -0.0605 -0.0082
 5250TIP3    H137385   5.135   2.039   0.805  1.1659 -0.3397 -1.3900
 5250TIP3    H237386   5.091   2.007   0.664 -2.1341 -1.5422 -0.1779
 5251TIP3   OH237387   0.937   1.640   8.624 -0.0303 -0.0454  0.1454
 5251TIP3    H137388   0.994   1.699   8.673  0.0022  0.2791 -0.2786
 5251TIP3    H237389   0.996   1.590   8.569 -0.1757  0.5087 -0.5235
 5252TIP3   OH237390   2.288   1.359   1.875  0.0809  0.0088  0.1565
 5252TIP3    H137391   2.312   1.335   1.965 -1.5375  0.9008  0.8760
 5252TIP3    H237392   2.356   1.420   1.847  0.5150 -0.1473  0.8353
 5253TIP3   OH237393   3.565   6.345   1.663 -0.2034  0.0665  0.4395
 5253TIP3    H137394   3.587   6.395   1.741 -0.8937 -1.9393  2.0297
 5253TIP3    H237395   3.628   6.373   1.597 -0.0812  2.3737  1.4594
 5254TIP3   OH237396   3.105   5.851   8.167 -0.2350  0.0785 -0.4967
 5254TIP3    H137397   3.052   5.812   8.237 -1.2932 -1.7783 -2.2341
 5254TIP3    H237398   3.177   5.789   8.155  0.8176  1.1728 -0.0649
 5255TIP3   OH237399   4.020   3.641   1.696 -0.5179 -0.5916 -0.1827
 5255TIP3    H137400   4.069   3.572   1.741  0.4732 -0.9751 -1.7647
 5255TIP3    H237401   3.983   3.693   1.767 -1.1604 -2.6225  1.0742
 5256TIP3   OH237402   0.251   6.483   1.965  0.1252  0.4357 -0.3518
 5256TIP3    H137403   0.242   6.530   2.048 -0.0298  1.8548 -1.1498
 5256TIP3    H237404   0.172   6.428   1.960  0.2388  0.1711  0.5186
 5257TIP3   OH237405   4.478   4.597   6.444  0.1443  0.0002  0.1197
 5257TIP3    H137406   4.535   4.664   6.481  2.7947 -1.2774 -1.3510
 5257TIP3    H237407   4.512   4.515   6.479 -0.7886 -0.8027 -0.8152
 5258TIP3   OH237408   3.691   1.315   0.892 -0.3029  0.3719 -0.2054
 5258TIP3    H137409   3.750   1.365   0.950 -0.5630  0.9562 -0.4350
 5258TIP3    H237410   3.696   1.361   0.808 -1.1673  0.4977 -0.1975
 5259TIP3   OH237411   5.599   0.884   7.405 -0.3925  0.6030 -0.1384
 5259TIP3    H137412   5.529   0.940   7.439  1.3377  2.0241  1.2931
 5259TIP3    H237413   5.674   0.901   7.462  0.3491 -3.0130  0.2056
 5260TIP3   OH237414   0.296   5.669   6.812 -0.0413 -0.2860 -0.3539
 5260TIP3    H137415   0.359   5.740   6.804  1.2771 -1.5442 -2.0908
 5260TIP3    H237416   0.227   5.691   6.750 -1.3481  1.0306  1.4609
 5261TIP3   OH237417   5.578   2.881   7.700  0.3633  0.2131  0.4364
 5261TIP3    H137418   5.671   2.900   7.709  0.5267 -0.4032  0.1183
 5261TIP3    H237419   5.571   2.830   7.619 -0.1658 -0.2524  0.7616
 5262TIP3   OH237420   6.461   2.482   7.350 -0.0487  0.4929  0.1566
 5262TIP3    H137421   6.506   2.402   7.376 -0.8323 -0.5577 -1.5131
 5262TIP3    H237422   6.454   2.476   7.254 -0.4139  2.4053  0.0166
 5263TIP3   OH237423   3.405   1.557   0.968 -0.0098  0.1903  0.2271
 5263TIP3    H137424   3.474   1.604   0.920  0.4691 -0.5018  0.2221
 5263TIP3    H237425   3.433   1.560   1.059  0.6515 -1.0817  0.0981
 5264TIP3   OH237426   2.577   1.100   2.001 -0.0812 -0.9118 -0.1249
 5264TIP3    H137427   2.642   1.111   2.071 -0.9595 -0.5612  0.6617
 5264TIP3    H237428   2.542   1.012   2.016  1.9528 -2.1485 -2.0946
 5265TIP3   OH237429   3.615   2.334   0.448 -0.2497 -0.0164  0.0732
 5265TIP3    H137430   3.618   2.342   0.543  0.1465  1.0998 -0.0147
 5265TIP3    H237431   3.522   2.337   0.426 -0.2857  2.1747  0.2748
 5266TIP3   OH237432   0.575   4.884   0.787  0.0180  0.0172  0.0950
 5266TIP3    H137433   0.540   4.872   0.875 -1.1677 -2.9328 -0.6744
 5266TIP3    H237434   0.517   4.949   0.747 -0.7051 -0.1525  0.8340
 5267TIP3   OH237435   4.234   2.541   6.680 -0.1679  0.0189 -0.6838
 5267TIP3    H137436   4.283   2.464   6.710  1.0163  0.2223 -1.9922
 5267TIP3    H237437   4.301   2.608   6.666 -1.0413  0.8892 -0.7649
 5268TIP3   OH237438   5.826   2.619   7.005 -0.3649  0.5119 -0.4586
 5268TIP3    H137439   5.757   2.553   7.004 -0.8869  1.0498 -0.4318
 5268TIP3    H237440   5.870   2.610   6.920 -0.5707  0.2794 -0.5401
 5269TIP3   OH237441   1.958   5.937   0.413 -0.3671 -0.8714 -0.7418
 5269TIP3    H137442   1.946   6.011   0.354 -0.0627  0.1640  0.4412
 5269TIP3    H237443   1.999   5.975   0.491 -0.9925 -2.1418  0.2403
 5270TIP3   OH237444   4.565   5.688   8.800 -0.4239 -0.3102  0.2519
 5270TIP3    H137445   4.647   5.673   8.847 -0.5235 -0.8968  0.2443
 5270TIP3    H237446   4.566   5.781   8.779  0.5630 -0.4412 -0.3458
 5271TIP3   OH237447   2.270   2.702   6.347 -0.0612 -0.3438  0.4239
 5271TIP3    H137448   2.264   2.788   6.389 -0.8836 -0.8952  1.5013
 5271TIP3    H237449   2.361   2.675   6.360  0.0434  0.1007  0.6307
 5272TIP3   OH237450   0.840   0.344   6.688 -0.0155  0.1229  0.5408
 5272TIP3    H137451   0.887   0.414   6.642 -3.4717  1.6283 -1.0699
 5272TIP3    H237452   0.872   0.264   6.647  0.5410  1.1370 -1.1447
 5273TIP3   OH237453   2.767   5.092   6.538  0.3812  0.3933  0.9071
 5273TIP3    H137454   2.762   5.058   6.627  1.3616 -1.1066  0.4254
 5273TIP3    H237455   2.817   5.173   6.546  1.0588 -0.0849  1.6398
 5274TIP3   OH237456   3.419   2.872   7.093  0.4136  0.0942  0.0164
 5274TIP3    H137457   3.415   2.866   6.998 -0.8359  1.3994 -0.0481
 5274TIP3    H237458   3.349   2.933   7.116  1.8231  1.1849  1.6265
 5275TIP3   OH237459   2.833   3.493   1.456  0.2202  0.2407  0.4049
 5275TIP3    H137460   2.775   3.543   1.399  1.1741  0.8898 -0.0308
 5275TIP3    H237461   2.850   3.551   1.531  0.2980  0.0560  0.5316
 5276TIP3   OH237462   3.130   1.452   1.080  0.5476 -0.1238  0.1227
 5276TIP3    H137463   3.106   1.512   1.010 -0.2689 -0.0535  0.4564
 5276TIP3    H237464   3.150   1.370   1.035 -0.5381 -0.2525 -0.1659
 5277TIP3   OH237465   6.264   1.193   0.728 -0.2391 -0.0859 -0.0701
 5277TIP3    H137466   6.292   1.237   0.808  2.7549  0.2211 -1.1536
 5277TIP3    H237467   6.309   1.108   0.731 -0.8771 -0.4746 -0.9964
 5278TIP3   OH237468   6.221   5.468   0.703 -0.4210 -0.4538  0.2048
 5278TIP3    H137469   6.130   5.468   0.733  0.1681 -0.8166  2.0657
 5278TIP3    H237470   6.273   5.481   0.782  1.1863 -1.0344 -0.7143
 5279TIP3   OH237471   1.740   4.031   0.340 -0.2515 -0.3321 -0.6114
 5279TIP3    H137472   1.651   4.046   0.309 -0.2983 -0.5259 -0.5717
 5279TIP3    H237473   1.730   3.971   0.413 -0.0287 -0.9220 -1.0551
 5280TIP3   OH237474   2.775   1.927   1.505  0.3480  0.1333 -0.7643
 5280TIP3    H137475   2.763   1.833   1.520  2.4255 -0.2370 -1.1012
 5280TIP3    H237476   2.739   1.968   1.584  1.1475 -1.0835  0.2833
 5281TIP3   OH237477   4.989   4.202   2.124 -0.1324 -0.1528  0.0847
 5281TIP3    H137478   5.048   4.186   2.050  0.0891  0.0451  0.2163
 5281TIP3    H237479   5.010   4.134   2.187  0.7919  0.6163  0.6338
 5282TIP3   OH237480   2.710   2.496   6.889 -0.3707 -0.2847  0.5401
 5282TIP3    H137481   2.632   2.541   6.920  0.1505  0.5325  0.7013
 5282TIP3    H237482   2.765   2.565   6.852  0.0981 -0.9039  0.0418
 5283TIP3   OH237483   4.291   5.492   1.431 -0.2751  0.3391 -0.6422
 5283TIP3    H137484   4.272   5.557   1.499 -0.0819  0.5615 -0.8005
 5283TIP3    H237485   4.206   5.452   1.412 -0.0375 -1.3592  1.3681
 5284TIP3   OH237486   2.107   0.651   0.128  0.3905 -0.7250 -0.5855
 5284TIP3    H137487   2.184   0.626   0.078  1.7299 -1.2862  1.5991
 5284TIP3    H237488   2.129   0.629   0.219 -2.1817 -0.4918  0.1830
 5285TIP3   OH237489   5.755   1.958   7.328 -0.2931  0.3042 -0.0178
 5285TIP3    H137490   5.804   2.019   7.383 -1.0501  0.4460  0.5224
 5285TIP3    H237491   5.822   1.905   7.286  0.3154 -0.1225  1.4171
 5286TIP3   OH237492   3.509   4.423   0.663  0.4518  0.0842  0.5629
 5286TIP3    H137493   3.528   4.516   0.654  2.0574 -0.2152  0.5569
 5286TIP3    H237494   3.568   4.380   0.600 -0.0531 -0.9568  0.7695
 5287TIP3   OH237495   6.020   1.691   2.336  0.4771 -0.2256  0.5108
 5287TIP3    H137496   6.025   1.692   2.431  1.3365  1.5745  0.4858
 5287TIP3    H237497   5.993   1.602   2.314  2.1015 -1.2401  2.3425
 5288TIP3   OH237498   2.026   3.917   1.456  0.0588 -0.0256  0.2527
 5288TIP3    H137499   2.032   3.822   1.470 -1.5992  0.0176  1.5828
 5288TIP3    H237500   2.075   3.955   1.529  0.8715  0.1717 -0.3768
 5289TIP3   OH237501   4.259   4.829   1.242  0.2141  0.4157 -0.0919
 5289TIP3    H137502   4.307   4.799   1.320 -0.9037 -1.8040 -0.1645
 5289TIP3    H237503   4.196   4.893   1.275  1.3906  1.3488  0.4121
 5290TIP3   OH237504   6.499   1.068   7.405 -0.6348 -0.1085  0.7495
 5290TIP3    H137505   6.555   0.996   7.376  1.5713  1.6832  0.1736
 5290TIP3    H237506   6.468   1.108   7.324 -0.9484  0.2126  1.0244
 5291TIP3   OH237507   2.183   1.575   7.673 -0.4013 -0.7533 -0.1925
 5291TIP3    H137508   2.159   1.623   7.752  0.0504 -0.7990 -0.0232
 5291TIP3    H237509   2.270   1.608   7.650 -0.7750 -0.3141 -1.0066
 5292TIP3   OH237510   0.370   6.532   8.340  0.1322 -0.0946 -0.0367
 5292TIP3    H137511   0.375   6.622   8.309  0.2025 -0.4212 -1.0063
 5292TIP3    H237512   0.360   6.540   8.435 -1.4864  0.9722 -0.2627
 5293TIP3   OH237513   4.543   1.258   0.741  0.4169 -0.1895 -0.4640
 5293TIP3    H137514   4.466   1.276   0.796  0.1744 -0.4797 -0.7025
 5293TIP3    H237515   4.553   1.337   0.688  0.0179 -0.3198 -0.7377
 5294TIP3   OH237516   6.422   0.852   6.980  0.1014  0.1533  0.1660
 5294TIP3    H137517   6.483   0.925   6.967  2.1280 -1.4890  0.0035
 5294TIP3    H237518   6.383   0.869   7.066  0.2821  1.5617  0.0009
 5295TIP3   OH237519   5.001   0.673   7.065  0.5285  0.3151 -0.1408
 5295TIP3    H137520   5.012   0.743   7.130  0.4726  0.1502  0.0471
 5295TIP3    H237521   5.069   0.690   7.000  1.5784 -0.3801  0.7329
 5296TIP3   OH237522   5.053   4.801   0.793  0.2752  0.9244  0.3212
 5296TIP3    H137523   5.018   4.762   0.873  1.0179 -0.0417  0.1896
 5296TIP3    H237524   4.977   4.807   0.735 -0.2614  1.6062  1.0651
 5297TIP3   OH237525   4.118   6.846   6.917 -0.3110 -0.2260 -0.2530
 5297TIP3    H137526   4.073   6.801   6.845  1.4045 -4.2173  0.9326
 5297TIP3    H237527   4.210   6.845   6.892 -0.0197  1.0491  0.7021
 5298TIP3   OH237528   5.969   0.106   7.123  0.0314  0.1502  0.2504
 5298TIP3    H137529   5.886   0.138   7.087  0.8471  0.7901 -1.1345
 5298TIP3    H237530   5.945   0.026   7.170 -1.1656 -0.5059 -1.3930
 5299TIP3   OH237531   5.848   4.753   6.942 -0.7172 -0.7002  0.2146
 5299TIP3    H137532   5.753   4.745   6.948 -0.7890 -0.0586  0.1114
 5299TIP3    H237533   5.872   4.809   7.016 -0.5230 -0.2252 -0.1939
 5300TIP3   OH237534   3.156   5.638   1.219 -0.0823  0.4563 -0.2533
 5300TIP3    H137535   3.206   5.564   1.255  1.5282  2.1400  1.1805
 5300TIP3    H237536   3.154   5.702   1.290 -3.3318  1.0015 -0.6903
 5301TIP3   OH237537   4.591   3.362   6.211  0.2739  0.4830 -0.7484
 5301TIP3    H137538   4.560   3.276   6.183  1.6485 -0.3990  0.2922
 5301TIP3    H237539   4.674   3.344   6.256  0.3633  2.3087 -0.1023
 5302TIP3   OH237540   3.817   4.477   1.861 -0.3807  0.3646 -0.2012
 5302TIP3    H137541   3.822   4.501   1.954 -2.8064  0.1976  0.0441
 5302TIP3    H237542   3.847   4.386   1.859  0.3273  0.5753  0.3040
 5303TIP3   OH237543   6.816   6.166   6.740 -0.0283  0.0718  0.4433
 5303TIP3    H137544   6.775   6.207   6.664 -0.5534 -0.5125  0.4007
 5303TIP3    H237545   6.747   6.167   6.807  0.6867  1.3323  1.1967
 5304TIP3   OH237546   4.694   4.616   8.745 -0.3909 -0.2295  0.3715
 5304TIP3    H137547   4.630   4.555   8.706 -0.5904  0.7363 -0.8952
 5304TIP3    H237548   4.777   4.591   8.705 -0.3502 -0.1281  0.3952
 5305TIP3   OH237549   0.324   4.096   2.337  0.2131  0.1309 -0.5630
 5305TIP3    H137550   0.374   4.014   2.340  0.5253  0.3044 -0.9301
 5305TIP3    H237551   0.320   4.118   2.244  2.4301  1.9097 -0.3370
 5306TIP3   OH237552   2.184   1.871   0.439  0.2864 -0.3010  0.1839
 5306TIP3    H137553   2.146   1.866   0.527 -0.9996  0.9459 -0.2724
 5306TIP3    H237554   2.110   1.889   0.381  1.3838  1.0841 -0.8715
 5307TIP3   OH237555   6.815   1.777   1.388 -0.2135 -0.1864  0.3329
 5307TIP3    H137556   6.730   1.822   1.388  1.2865  2.9470  1.8197
 5307TIP3    H237557   6.825   1.746   1.478 -0.7479 -2.8017 -0.4223
 5308TIP3   OH237558   1.210   3.899   1.559 -0.4407 -0.4113  0.2071
 5308TIP3    H137559   1.266   3.854   1.497  0.7335 -0.0958  0.9917
 5308TIP3    H237560   1.207   3.989   1.528 -0.8137 -0.5045 -0.0317
 5309TIP3   OH237561   5.298   6.011   7.192  0.2494  0.5274  0.7266
 5309TIP3    H137562   5.380   6.051   7.219  0.1361  0.8197  0.6448
 5309TIP3    H237563   5.230   6.070   7.224  0.0430 -0.0363  1.3468
 5310TIP3   OH237564   3.486   1.473   7.989 -0.4229  0.2566 -0.3666
 5310TIP3    H137565   3.441   1.388   7.990  0.8986 -0.5078  1.6414
 5310TIP3    H237566   3.431   1.530   8.042  0.2804 -0.3389  1.0745
 5311TIP3   OH237567   3.579   1.240   8.838 -0.1668 -0.3518 -0.0773
 5311TIP3    H137568   3.569   1.152   8.803  0.7056 -0.2887 -0.5132
 5311TIP3    H237569   3.574   1.297   8.761 -1.4890  0.0509  0.2837
 5312TIP3   OH237570   0.447   0.903   8.741  0.5395  0.1941 -0.5096
 5312TIP3    H137571   0.482   0.899   8.652  1.9368  0.9865 -0.0221
 5312TIP3    H237572   0.487   0.828   8.786  1.2232  0.7961 -0.0941
 5313TIP3   OH237573   0.892   1.468   1.251 -0.3853  0.2547  0.2143
 5313TIP3    H137574   0.953   1.424   1.310  0.1262 -1.4878 -1.5187
 5313TIP3    H237575   0.934   1.551   1.230  0.7829 -0.3556  0.0726
 5314TIP3   OH237576   5.299   1.826   7.702  0.3872 -0.2432  0.2238
 5314TIP3    H137577   5.273   1.868   7.784 -0.9798 -1.4127  0.4314
 5314TIP3    H237578   5.394   1.816   7.709  0.2346 -0.8679  1.9531
 5315TIP3   OH237579   0.582   6.640   0.381  0.4942  0.3235  0.3073
 5315TIP3    H137580   0.636   6.599   0.448 -0.1380 -1.7172 -0.3716
 5315TIP3    H237581   0.645   6.666   0.313  1.0198  1.5166  1.2083
 5316TIP3   OH237582   3.973   2.582   7.690 -0.1868 -0.1419  0.0763
 5316TIP3    H137583   3.983   2.487   7.695 -0.9509 -0.2059  0.4977
 5316TIP3    H237584   3.888   2.600   7.730  1.1160  0.9761  2.5601
 5317TIP3   OH237585   6.615   6.008   7.472  0.3043  0.1321  0.5486
 5317TIP3    H137586   6.689   5.994   7.413  0.3512  0.0933  0.6170
 5317TIP3    H237587   6.593   5.921   7.505 -0.5708 -0.0495 -0.4227
 5318TIP3   OH237588   4.331   1.884   1.551  0.5707  0.0180  0.6526
 5318TIP3    H137589   4.369   1.884   1.639  0.3045  0.2833  0.7680
 5318TIP3    H237590   4.267   1.955   1.552 -1.8289 -2.0029  1.2983
 5319TIP3   OH237591   1.109   2.301   1.259 -0.3823  0.2733 -0.5318
 5319TIP3    H137592   1.073   2.224   1.304  3.9239 -2.1654 -0.6787
 5319TIP3    H237593   1.098   2.282   1.166  0.3380 -0.0617 -0.5608
 5320TIP3   OH237594   4.949   6.606   0.107  0.3476  0.2554 -0.8765
 5320TIP3    H137595   4.951   6.535   0.043 -1.5828 -0.3398 -0.3276
 5320TIP3    H237596   4.888   6.670   0.070  0.4284  0.6375 -0.3620
 5321TIP3   OH237597   3.641   0.247   2.006 -0.0903 -0.3174 -0.5298
 5321TIP3    H137598   3.590   0.176   1.967 -0.7511 -0.2839  0.2470
 5321TIP3    H237599   3.656   0.220   2.097  0.7765 -0.0544 -0.5791
 5322TIP3   OH237600   1.112   3.949   0.273  0.3145  0.0069  0.3403
 5322TIP3    H137601   1.129   3.965   0.366  1.0690 -0.9798  0.3858
 5322TIP3    H237602   1.109   3.853   0.266  0.6257  0.0721 -0.7131
 5323TIP3   OH237603   1.564   0.048   0.390  0.4983 -0.7915  0.5677
 5323TIP3    H137604   1.616   0.022   0.314 -0.2249 -3.3032  0.8426
 5323TIP3    H237605   1.623   0.037   0.464  0.6034 -0.2588  0.5672
 5324TIP3   OH237606   0.469   6.179   6.520  0.4764  0.0609 -0.3041
 5324TIP3    H137607   0.559   6.212   6.528  0.3595  0.2049  0.5261
 5324TIP3    H237608   0.424   6.244   6.467  1.1166 -0.5386 -1.6327
 5325TIP3   OH237609   4.650   6.811   7.347 -0.7934  0.1653 -0.0958
 5325TIP3    H137610   4.685   6.886   7.300 -2.5960 -0.3825 -2.4863
 5325TIP3    H237611   4.699   6.736   7.313 -1.0190 -0.0825  0.1177
 5326TIP3   OH237612   5.758   2.049   0.771 -0.7623  0.3221  0.2998
 5326TIP3    H137613   5.822   2.119   0.779 -0.6511  0.1641  0.8649
 5326TIP3    H237614   5.809   1.971   0.748 -0.5978 -0.0162  1.6693
 5327TIP3   OH237615   0.901   5.660   8.185 -0.1333  0.0943  0.2976
 5327TIP3    H137616   0.914   5.681   8.093 -0.8764  1.0130  0.3849
 5327TIP3    H237617   0.843   5.584   8.184  0.5174 -0.4062  0.0061
 5328TIP3   OH237618   6.114   5.864   8.158  0.1487 -0.0003 -0.1097
 5328TIP3    H137619   6.068   5.781   8.163  1.1367 -0.5038  1.0721
 5328TIP3    H237620   6.050   5.925   8.120  0.0857 -1.7200 -3.0051
 5329TIP3   OH237621   0.596   0.355   1.273  0.3046  0.0237 -0.0887
 5329TIP3    H137622   0.677   0.356   1.325 -0.2156 -0.5537  0.7690
 5329TIP3    H237623   0.622   0.386   1.187  1.4548 -0.2161  0.1561
 5330TIP3   OH237624   5.337   4.711   0.769  0.0249 -0.1616  0.0162
 5330TIP3    H137625   5.302   4.655   0.700  0.1890 -1.1977  0.7450
 5330TIP3    H237626   5.271   4.779   0.781  0.1654  0.2552 -1.4047
 5331TIP3   OH237627   3.248   5.477   8.308 -0.2474 -0.0532 -0.0609
 5331TIP3    H137628   3.214   5.492   8.220  1.1180  0.0200 -0.5829
 5331TIP3    H237629   3.339   5.507   8.305  0.4008 -1.8083  0.8518
 5332TIP3   OH237630   2.269   2.295   7.745 -0.2322 -0.0823 -0.4177
 5332TIP3    H137631   2.181   2.282   7.708 -0.7601 -1.2299  1.1467
 5332TIP3    H237632   2.291   2.385   7.721 -1.5115 -0.0106 -1.4816
 5333TIP3   OH237633   0.342   0.688   2.216 -0.2853  0.3986  0.4450
 5333TIP3    H137634   0.433   0.718   2.216 -0.0584 -0.2282  1.7946
 5333TIP3    H237635   0.293   0.758   2.173  0.7143  1.0952  0.4192
 5334TIP3   OH237636   1.966   5.371   7.093  0.4287 -0.1046 -0.0116
 5334TIP3    H137637   1.969   5.447   7.152  0.7428  1.8097 -2.3534
 5334TIP3    H237638   1.873   5.362   7.071  0.1934 -1.3469  1.3271
 5335TIP3   OH237639   3.640   4.051   0.730  0.0354  0.2368 -0.3176
 5335TIP3    H137640   3.736   4.059   0.730  0.0116  0.7947  1.1135
 5335TIP3    H237641   3.611   4.116   0.666  0.5685  1.0055  0.1977
 5336TIP3   OH237642   3.685   3.812   0.485  0.5351 -0.3021 -0.2792
 5336TIP3    H137643   3.661   3.721   0.500  1.5257 -0.6941 -0.9544
 5336TIP3    H237644   3.667   3.857   0.568 -0.2804 -1.0278 -0.0504
 5337TIP3   OH237645   1.455   1.922   0.682 -0.2314  0.3659  0.2620
 5337TIP3    H137646   1.483   1.831   0.694  1.0315  0.4919 -1.3984
 5337TIP3    H237647   1.468   1.962   0.768 -2.0999 -1.2981  1.4132
 5338TIP3   OH237648   4.435   6.134   7.902  0.3049  0.4001  0.4625
 5338TIP3    H137649   4.453   6.076   7.976 -3.3175 -1.5401  0.0987
 5338TIP3    H237650   4.434   6.076   7.826 -0.5646  1.4602 -0.3727
 5339TIP3   OH237651   2.194   4.150   8.572  0.4266  0.2034 -0.0904
 5339TIP3    H137652   2.202   4.058   8.597  1.7364  0.4859  0.6307
 5339TIP3    H237653   2.154   4.192   8.648 -0.1772  0.2276 -0.4216
 5340TIP3   OH237654   6.783   0.232   0.876  0.2730  0.4098  1.1363
 5340TIP3    H137655   6.696   0.198   0.899 -0.5877 -0.0475 -2.3205
 5340TIP3    H237656   6.826   0.160   0.831  2.2851  0.8382  2.2672
 5341TIP3   OH237657   5.413   0.993   1.126 -0.2272 -0.5848 -0.6804
 5341TIP3    H137658   5.471   1.056   1.083 -1.1368 -0.4433 -1.7431
 5341TIP3    H237659   5.331   0.997   1.075 -1.1257 -0.8761  0.6956
 5342TIP3   OH237660   6.765   0.946   1.242 -0.3415 -0.2417 -0.5866
 5342TIP3    H137661   6.745   0.975   1.331  0.6294  0.3301 -0.5400
 5342TIP3    H237662   6.858   0.963   1.232 -0.3911 -0.5362 -1.6323
 5343TIP3   OH237663   1.861   2.704   1.675 -0.1076  0.1337 -0.2433
 5343TIP3    H137664   1.931   2.692   1.740 -0.0273  0.6271 -0.2341
 5343TIP3    H237665   1.786   2.735   1.725 -1.2086 -2.8806  0.1770
 5344TIP3   OH237666   5.753   4.141   7.157 -0.0463  0.3399 -0.5378
 5344TIP3    H137667   5.727   4.065   7.209 -1.1995  0.8378 -0.3520
 5344TIP3    H237668   5.771   4.106   7.070 -0.2283 -0.1910 -0.3646
 5345TIP3   OH237669   6.525   1.832   8.138  0.4011 -0.7110 -0.4980
 5345TIP3    H137670   6.618   1.813   8.151  0.1463 -1.1726  0.8243
 5345TIP3    H237671   6.522   1.926   8.122  1.0205 -0.4824  0.5650
 5346TIP3   OH237672   1.469   4.715   8.191 -0.2206 -0.1772  0.0171
 5346TIP3    H137673   1.402   4.771   8.152 -0.8493  0.3470  1.7997
 5346TIP3    H237674   1.495   4.656   8.119 -1.8712  0.2507 -0.9744
 5347TIP3   OH237675   4.020   5.492   7.697  0.0850 -0.3939  0.2584
 5347TIP3    H137676   4.066   5.573   7.677 -1.7510  0.2968 -1.4401
 5347TIP3    H237677   4.089   5.426   7.702  1.4017  0.8419 -0.7033
 5348TIP3   OH237678   2.827   6.186   1.980  0.3979  0.0226  0.6866
 5348TIP3    H137679   2.798   6.231   2.059 -1.0610 -1.0769  0.8180
 5348TIP3    H237680   2.839   6.095   2.007 -0.3543 -0.4213 -0.3880
 5349TIP3   OH237681   6.825   0.404   7.180 -0.2310 -0.2786  0.3178
 5349TIP3    H137682   6.802   0.442   7.264 -0.4478 -1.3996  0.7782
 5349TIP3    H237683   6.918   0.383   7.188 -0.0557  0.3312 -0.0176
 5350TIP3   OH237684   6.752   2.127   0.233  0.3096 -0.0160  0.2088
 5350TIP3    H137685   6.801   2.194   0.281  0.1683  0.1042  0.1881
 5350TIP3    H237686   6.797   2.045   0.253  1.2868  0.2447 -0.8277
 5351TIP3   OH237687   3.653   0.740   1.593 -0.3263  0.7267  0.2868
 5351TIP3    H137688   3.715   0.795   1.639 -1.5267  1.7971  0.6801
 5351TIP3    H237689   3.696   0.655   1.586  1.5056  1.6641 -0.2156
 5352TIP3   OH237690   4.230   0.445   8.580 -0.0252 -0.6687  0.4668
 5352TIP3    H137691   4.268   0.491   8.655  1.3763 -1.4170  0.2557
 5352TIP3    H237692   4.305   0.408   8.534 -0.6846  0.8483 -2.0677
 5353TIP3   OH237693   4.129   1.346   2.152 -0.0697  0.4996  0.1557
 5353TIP3    H137694   4.150   1.367   2.244  0.6287  0.0616  0.1023
 5353TIP3    H237695   4.117   1.251   2.152 -0.3657  0.5398 -0.1471
 5354TIP3   OH237696   5.796   4.811   0.223 -0.2814  0.3646  0.6510
 5354TIP3    H137697   5.772   4.887   0.169 -0.8245 -1.5264 -1.9710
 5354TIP3    H237698   5.880   4.782   0.188 -1.1706 -1.5639 -0.0086
 5355TIP3   OH237699   4.951   3.273   0.813  0.3869  0.2321  0.6689
 5355TIP3    H137700   4.977   3.213   0.883 -0.0795  0.1604  0.7883
 5355TIP3    H237701   4.979   3.359   0.843  0.5814  0.1451  0.7409
 5356TIP3   OH237702   6.473   2.137   0.188 -0.3941  0.3310 -0.4311
 5356TIP3    H137703   6.566   2.140   0.207 -0.2183  0.1850 -1.2368
 5356TIP3    H237704   6.441   2.224   0.212 -0.1161  0.2881  0.1211
 5357TIP3   OH237705   6.192   1.462   1.246 -0.1691  0.4826 -0.3590
 5357TIP3    H137706   6.230   1.549   1.260 -0.3633  0.5667 -0.3453
 5357TIP3    H237707   6.264   1.409   1.212  0.3288  0.2742  0.9593
 5358TIP3   OH237708   6.322   1.670   6.878 -0.6450 -0.5495 -0.2953
 5358TIP3    H137709   6.294   1.758   6.901 -1.6113 -0.9789  0.2402
 5358TIP3    H237710   6.339   1.674   6.784 -1.4402  0.0119 -0.4258
 5359TIP3   OH237711   0.111   5.115   0.662  0.4851 -0.5522 -0.1877
 5359TIP3    H137712   0.082   5.163   0.585  1.8498 -1.2110 -1.1587
 5359TIP3    H237713   0.047   5.137   0.730 -0.5851  0.2651 -1.4144
 5360TIP3   OH237714   5.977   1.899   6.252  0.1743  0.0205 -0.7698
 5360TIP3    H137715   6.043   1.861   6.309 -0.4507 -1.2272 -0.8391
 5360TIP3    H237716   5.922   1.951   6.311 -2.6045 -4.0256  0.6176
 5361TIP3   OH237717   5.744   1.967   1.052  0.2879  0.0717 -0.8579
 5361TIP3    H137718   5.700   2.044   1.089 -1.7264 -0.5521 -1.8374
 5361TIP3    H237719   5.769   1.994   0.964  2.0646  0.4576 -0.2735
 5362TIP3   OH237720   3.503   1.450   7.595  0.0117 -0.4496  0.0899
 5362TIP3    H137721   3.427   1.407   7.633 -0.6897  0.3179 -0.4021
 5362TIP3    H237722   3.522   1.523   7.654  2.1361 -2.2167  1.7652
 5363TIP3   OH237723   1.327   0.776   5.999  0.1191  0.7289 -1.0299
 5363TIP3    H137724   1.265   0.791   5.927  0.1497  2.0093 -0.8161
 5363TIP3    H237725   1.372   0.695   5.975  2.1437  2.4837 -3.9704
 5364TIP3   OH237726   5.563   5.301   2.504 -0.0375 -0.0492 -0.0131
 5364TIP3    H137727   5.510   5.235   2.459  0.1410 -0.7263  0.7576
 5364TIP3    H237728   5.545   5.288   2.597  1.7239 -0.5169  0.2907
 5365TIP3   OH237729   3.505   2.421   7.725  0.4871 -0.1360 -0.5211
 5365TIP3    H137730   3.548   2.390   7.806 -1.5083  0.5083  0.8604
 5365TIP3    H237731   3.451   2.347   7.697  0.7734 -0.1754 -0.9696
 5366TIP3   OH237732   0.133   5.557   0.710 -0.7778 -0.2144 -0.2548
 5366TIP3    H137733   0.213   5.598   0.744 -1.1365 -0.2177  0.6207
 5366TIP3    H237734   0.164   5.482   0.659 -0.2345 -0.4323  0.3783
 5367TIP3   OH237735   4.842   5.993   8.374 -0.0789 -0.3418  0.2733
 5367TIP3    H137736   4.915   5.934   8.390 -0.3891 -0.9955 -0.6271
 5367TIP3    H237737   4.883   6.076   8.349  0.3556 -0.3977  0.7939
 5368TIP3   OH237738   4.650   4.765   6.605  0.1444  0.1306 -0.8707
 5368TIP3    H137739   4.736   4.761   6.564  0.5818  2.3547 -0.3570
 5368TIP3    H237740   4.661   4.719   6.688  0.4728 -0.6841 -1.3603
 5369TIP3   OH237741   4.512   5.756   0.632 -0.5815  0.7842 -0.8836
 5369TIP3    H137742   4.487   5.695   0.563 -0.3449 -0.0483 -0.2458
 5369TIP3    H237743   4.436   5.759   0.690  0.0411 -0.2540  0.0143
 5370TIP3   OH237744   3.261   5.465   1.455 -0.4008 -0.1362  0.0640
 5370TIP3    H137745   3.301   5.421   1.380  0.4088 -0.5347  0.7150
 5370TIP3    H237746   3.335   5.495   1.508 -0.9128  2.3179 -0.4928
 5371TIP3   OH237747   5.142   0.787   6.840 -0.6780 -0.3465 -0.0923
 5371TIP3    H137748   5.186   0.851   6.784 -1.1666 -0.2663 -0.3951
 5371TIP3    H237749   5.191   0.705   6.826  0.6121  0.1891  1.1175
 5372TIP3   OH237750   2.370   4.234   0.730  0.1805  0.0695  0.6765
 5372TIP3    H137751   2.288   4.191   0.755  1.5720 -3.6592 -0.5242
 5372TIP3    H237752   2.429   4.218   0.804  0.8117 -0.4495  0.0761
 5373TIP3   OH237753   5.414   2.084   8.029  0.2590 -0.0559 -0.4348
 5373TIP3    H137754   5.363   2.124   8.100  0.1650 -0.2379 -0.4000
 5373TIP3    H237755   5.504   2.086   8.061  0.1023 -1.0441  0.1220
 5374TIP3   OH237756   5.384   2.062   8.570 -0.3368  0.3736  0.5826
 5374TIP3    H137757   5.457   2.084   8.513 -2.2460 -1.1401 -2.6814
 5374TIP3    H237758   5.414   1.987   8.621  1.2518  1.4775  1.3488
 5375TIP3   OH237759   4.274   5.754   1.997  0.8289 -0.1083 -0.6609
 5375TIP3    H137760   4.340   5.691   1.968 -0.9723 -1.2326 -2.5256
 5375TIP3    H237761   4.205   5.701   2.037  0.8472  1.0153  0.9756
 5376TIP3   OH237762   1.957   2.658   0.395  0.0597 -0.1780 -0.2682
 5376TIP3    H137763   1.998   2.575   0.374  2.8872  0.3769  2.3981
 5376TIP3    H237764   1.920   2.646   0.483 -0.5206  1.0531 -0.3162
 5377TIP3   OH237765   0.221   4.681   1.137 -0.4001  0.1734 -0.2129
 5377TIP3    H137766   0.198   4.756   1.082 -2.9337  0.9410  1.7070
 5377TIP3    H237767   0.215   4.606   1.078  1.9238  1.3189 -2.1163
 5378TIP3   OH237768   2.802   3.351   0.785 -0.1499  0.1242  0.4717
 5378TIP3    H137769   2.822   3.287   0.854 -1.5561  0.6794  1.4397
 5378TIP3    H237770   2.877   3.347   0.727  0.6680 -1.0342  1.5443
 5379TIP3   OH237771   3.089   1.822   8.588  0.6667  0.2231 -0.5657
 5379TIP3    H137772   3.165   1.813   8.645  0.0486 -1.0069  0.0924
 5379TIP3    H237773   3.075   1.917   8.583  1.5584  0.4161  0.2179
 5380TIP3   OH237774   2.678   2.735   7.612 -1.0234 -0.0443 -0.0790
 5380TIP3    H137775   2.634   2.803   7.561 -2.8264 -0.4902  0.7842
 5380TIP3    H237776   2.712   2.674   7.547 -1.2470  0.5891 -0.7989
 5381TIP3   OH237777   5.211   3.793   0.274  0.3076  0.0734 -0.9190
 5381TIP3    H137778   5.297   3.779   0.234  0.8730  1.1443 -0.1174
 5381TIP3    H237779   5.225   3.862   0.339 -0.6184 -1.4994  1.0600
 5382TIP3   OH237780   5.826   1.699   1.083 -0.2487 -0.1876  0.0437
 5382TIP3    H137781   5.766   1.679   1.011  0.9007 -0.0409 -0.9727
 5382TIP3    H237782   5.803   1.788   1.110 -1.6426 -0.7533  0.8581
 5383TIP3   OH237783   1.530   6.693   0.230 -0.0887  0.1234 -0.7229
 5383TIP3    H137784   1.482   6.722   0.152 -0.9634  0.5481 -0.0397
 5383TIP3    H237785   1.495   6.747   0.301 -0.0485 -0.9836  0.1590
 5384TIP3   OH237786   1.550   2.045   8.089 -0.6635 -0.3597 -0.0597
 5384TIP3    H137787   1.459   2.073   8.096 -1.6028 -2.7768 -1.5043
 5384TIP3    H237788   1.569   2.047   7.995  0.4127 -0.9066  0.1230
 5385TIP3   OH237789   5.112   1.991   8.701 -0.1571  0.0548 -0.6505
 5385TIP3    H137790   5.116   1.903   8.663  0.6834  0.7792 -2.3085
 5385TIP3    H237791   5.185   2.038   8.662  0.7682  0.8976  1.8776
 5386TIP3   OH237792   6.065   3.064   8.824  0.7027  0.2700  0.4360
 5386TIP3    H137793   6.088   3.050   8.916  0.7075  1.0945  0.5654
 5386TIP3    H237794   6.150   3.068   8.779  0.7036 -0.0165  0.4100
 5387TIP3   OH237795   0.724   3.673   1.909  0.5183 -0.2389 -0.3954
 5387TIP3    H137796   0.765   3.608   1.967  0.7736  0.6641  0.4669
 5387TIP3    H237797   0.675   3.730   1.968  0.0339  0.1714 -1.1738
 5388TIP3   OH237798   0.985   2.407   7.279  0.0188 -0.2715 -0.6335
 5388TIP3    H137799   1.002   2.322   7.238 -1.2511 -0.0796 -1.6255
 5388TIP3    H237800   0.969   2.386   7.371 -2.2560 -1.4034 -1.2094
 5389TIP3   OH237801   3.374   1.806   0.763 -0.4108  0.0742 -0.4928
 5389TIP3    H137802   3.419   1.869   0.706  1.0863  1.9082  2.4385
 5389TIP3    H237803   3.328   1.860   0.827  0.1879 -1.7437  1.6214
 5390TIP3   OH237804   3.137   0.589   7.068  0.4289  0.2558  0.1081
 5390TIP3    H137805   3.211   0.608   7.126  0.9361 -3.5658  0.9669
 5390TIP3    H237806   3.070   0.653   7.093  1.8938  1.0126  2.4279
 5391TIP3   OH237807   4.062   0.831   8.112  0.5503  0.4487  0.7562
 5391TIP3    H137808   3.973   0.864   8.100  0.9891  1.1748 -0.7126
 5391TIP3    H237809   4.113   0.907   8.140  1.5671  1.2382 -2.6665
 5392TIP3   OH237810   6.390   2.526   8.839  0.0919 -0.3018 -0.1939
 5392TIP3    H137811   6.385   2.514   8.934 -3.1519  0.7923 -0.1160
 5392TIP3    H237812   6.372   2.619   8.825  2.1898 -0.0502 -1.8889
 5393TIP3   OH237813   3.742   4.236   7.617 -0.6446 -0.2588  0.4388
 5393TIP3    H137814   3.735   4.225   7.522  0.1997 -1.3443  0.4900
 5393TIP3    H237815   3.750   4.331   7.629  1.9339 -0.2481 -0.7780
 5394TIP3   OH237816   4.469   0.470   0.586  0.4075 -0.0815  0.4213
 5394TIP3    H137817   4.383   0.511   0.574  0.7874  0.2529 -1.4286
 5394TIP3    H237818   4.450   0.377   0.593 -0.2000  0.1015  1.4094
 5395TIP3   OH237819   3.383   1.214   7.101  0.0999 -0.6721 -0.0669
 5395TIP3    H137820   3.419   1.302   7.097  0.5335 -0.8507 -0.1879
 5395TIP3    H237821   3.421   1.169   7.025 -0.9693 -0.6537 -0.6312
 5396TIP3   OH237822   1.451   4.602   0.545  0.5864  0.5813 -0.1354
 5396TIP3    H137823   1.485   4.671   0.603  0.1780  0.1043  0.7024
 5396TIP3    H237824   1.417   4.536   0.605  1.9958 -0.9022 -0.9106
 5397TIP3   OH237825   0.548   6.648   6.833 -0.4433  0.0992 -0.2437
 5397TIP3    H137826   0.515   6.709   6.766  1.2692  0.7476 -0.5418
 5397TIP3    H237827   0.606   6.589   6.786  0.6152  0.4249  0.6137
 5398TIP3   OH237828   4.767   3.111   1.931 -1.0958  0.2657  0.1386
 5398TIP3    H137829   4.846   3.165   1.931 -0.5829 -0.3919 -2.2523
 5398TIP3    H237830   4.799   3.022   1.942 -1.6799  0.1361  0.8728
 5399TIP3   OH237831   6.319   3.636   0.116 -0.1160 -0.3782 -0.1357
 5399TIP3    H137832   6.265   3.561   0.140 -1.2088 -0.0591 -1.4713
 5399TIP3    H237833   6.409   3.608   0.137 -0.3234 -2.6097 -1.8562
 5400TIP3   OH237834   4.960   5.749   0.503  0.1802  0.4369 -0.4728
 5400TIP3    H137835   5.003   5.685   0.445 -0.7373  0.1904 -0.8947
 5400TIP3    H237836   4.922   5.696   0.572  1.7041  0.7707  0.6814
 5401TIP3   OH237837   6.655   0.420   0.710 -0.0160 -0.6112 -0.7157
 5401TIP3    H137838   6.683   0.371   0.787  0.9525  0.4967 -0.3173
 5401TIP3    H237839   6.563   0.399   0.700 -0.2148 -0.6280  0.8796
 5402TIP3   OH237840   3.309   3.466   1.134  0.1323  0.5829 -0.1631
 5402TIP3    H137841   3.379   3.496   1.193  0.8231 -0.1930 -0.5813
 5402TIP3    H237842   3.334   3.499   1.048  1.1679 -1.5579 -0.7312
 5403TIP3   OH237843   1.769   3.117   1.672 -0.1625 -0.6264 -0.2130
 5403TIP3    H137844   1.771   3.140   1.765 -1.4751  0.9127 -0.5161
 5403TIP3    H237845   1.736   3.027   1.671  1.9128 -1.4648  0.8754
 5404TIP3   OH237846   6.226   5.578   8.336 -0.7021 -0.0966  0.5364
 5404TIP3    H137847   6.189   5.520   8.402 -1.6609 -1.6891 -1.3072
 5404TIP3    H237848   6.190   5.547   8.254  3.0395 -0.3678 -1.2023
 5405TIP3   OH237849   3.273   2.632   7.638  0.1507  0.2191  0.5723
 5405TIP3    H137850   3.346   2.629   7.699 -0.1036  1.0011  0.9251
 5405TIP3    H237851   3.195   2.628   7.693 -0.0817  0.2035  0.2486
 5406TIP3   OH237852   3.157   5.589   1.779 -0.2043  0.1693  0.3537
 5406TIP3    H137853   3.150   5.558   1.870 -0.2044 -0.4346  0.1536
 5406TIP3    H237854   3.158   5.509   1.727 -1.2969  0.5400 -0.2617
 5407TIP3   OH237855   4.124   4.395   0.084  0.1327  0.2939 -0.2915
 5407TIP3    H137856   4.146   4.311   0.125  0.6287  0.3139 -0.5051
 5407TIP3    H237857   4.137   4.459   0.154  1.4005  0.3771 -0.5724
 5408TIP3   OH237858   1.036   3.919   7.074  0.3807 -0.0232 -0.0795
 5408TIP3    H137859   1.016   3.909   7.167 -1.2327  1.2752 -0.2544
 5408TIP3    H237860   1.130   3.899   7.068  0.8895  1.3373  2.0782
 5409TIP3   OH237861   4.132   2.818   6.136  0.2098 -0.4284 -0.0122
 5409TIP3    H137862   4.096   2.736   6.171  0.4397 -1.2959 -1.6967
 5409TIP3    H237863   4.076   2.839   6.061  0.0175  1.1059  0.5345
 5410TIP3   OH237864   2.611   3.707   7.320  0.0477 -0.0625  0.0185
 5410TIP3    H137865   2.667   3.723   7.244  0.1427 -1.6909 -0.2834
 5410TIP3    H237866   2.635   3.620   7.350 -3.0453 -1.3506 -0.8174
 5411TIP3   OH237867   0.762   5.474   0.341  0.2849 -0.5466  0.0145
 5411TIP3    H137868   0.725   5.561   0.331  0.1831 -0.5858  0.0526
 5411TIP3    H237869   0.741   5.430   0.259 -0.6552 -0.9067  0.4341
 5412TIP3   OH237870   1.036   0.288   0.118 -0.2841  0.4482 -0.0589
 5412TIP3    H137871   1.104   0.345   0.081 -0.0551 -0.6452 -1.3909
 5412TIP3    H237872   0.954   0.322   0.082 -0.1774  0.1212 -0.6126
 5413TIP3   OH237873   0.805   1.966   0.318  0.1802  0.3176 -0.1187
 5413TIP3    H137874   0.737   1.969   0.251 -0.6809  0.1876  0.7241
 5413TIP3    H237875   0.780   2.033   0.381  0.7924  0.2101  0.2502
 5414TIP3   OH237876   1.154   1.219   6.623  0.3871  0.0221  0.2053
 5414TIP3    H137877   1.065   1.202   6.592 -0.2326 -0.5741  2.2070
 5414TIP3    H237878   1.210   1.184   6.553 -0.9328  0.3146 -1.0310
 5415TIP3   OH237879   3.066   0.041   7.121 -0.1657  0.2919  0.0536
 5415TIP3    H137880   3.109   0.086   7.193  0.3959 -0.7042  0.3685
 5415TIP3    H237881   2.975   0.032   7.149 -0.5018  1.9848 -0.4036
 5416TIP3   OH237882   4.041   4.942   8.609 -0.6432 -0.2737  0.0931
 5416TIP3    H137883   3.950   4.956   8.634 -1.4708 -1.4181 -2.0092
 5416TIP3    H237884   4.080   4.894   8.683 -2.0835 -0.8416  0.5039
 5417TIP3   OH237885   5.113   3.664   0.040  0.3344 -0.0999 -0.2586
 5417TIP3    H137886   5.096   3.751   0.077  1.4100 -0.1739  0.4605
 5417TIP3    H237887   5.196   3.637   0.080 -0.2099 -1.6569 -0.1194
 5418TIP3   OH237888   6.588   0.643   7.655 -0.1819  0.3459  0.8201
 5418TIP3    H137889   6.516   0.702   7.676 -0.1280  0.2233  1.3518
 5418TIP3    H237890   6.610   0.600   7.737 -0.9341 -1.2222  0.2463
 5419TIP3   OH237891   3.859   0.581   6.430 -0.0360  0.6366  0.3061
 5419TIP3    H137892   3.937   0.608   6.382 -0.8274  1.3633 -0.6103
 5419TIP3    H237893   3.787   0.626   6.386 -0.8797  0.7092  1.6917
 5420TIP3   OH237894   4.108   2.171   0.297  0.3709 -0.6999 -0.1162
 5420TIP3    H137895   4.023   2.184   0.339 -0.4398 -0.4787 -1.7498
 5420TIP3    H237896   4.127   2.256   0.257  0.7673 -1.1138 -0.8073
 5421TIP3   OH237897   6.615   0.184   0.357 -0.0780 -0.1116  0.7490
 5421TIP3    H137898   6.543   0.209   0.299 -0.8599 -0.7564  1.4225
 5421TIP3    H237899   6.685   0.156   0.297 -0.2963  0.7110  0.0848
 5422TIP3   OH237900   5.923   6.122   0.069 -0.1782 -0.0796  0.0916
 5422TIP3    H137901   5.920   6.135   0.164 -1.0815 -0.0083  0.0616
 5422TIP3    H237902   5.917   6.211   0.033 -1.6472 -0.2109 -0.0468
 5423TIP3   OH237903   3.674   5.349   0.651 -0.1357  0.1662  0.7438
 5423TIP3    H137904   3.765   5.331   0.674  0.1042  1.3418  0.7439
 5423TIP3    H237905   3.650   5.276   0.594  0.9837  0.1379  0.2773
 5424TIP3   OH237906   4.011   3.231   6.863 -0.3885  0.2730  0.5661
 5424TIP3    H137907   3.918   3.247   6.879 -1.4817 -0.2751 -3.9232
 5424TIP3    H237908   4.021   3.137   6.876 -0.4299  0.3278  1.0319
 5425TIP3   OH237909   0.946   5.022   0.373 -0.6471 -0.1597 -0.0298
 5425TIP3    H137910   0.963   5.111   0.344 -0.0765 -0.4240 -0.5352
 5425TIP3    H237911   0.852   5.011   0.365 -1.0064  1.0113  1.8419
 5426TIP3   OH237912   4.499   2.387   0.552 -0.0650 -0.1805 -0.5045
 5426TIP3    H137913   4.560   2.402   0.479  1.5211 -0.0661  0.7870
 5426TIP3    H237914   4.550   2.338   0.616 -0.6411  1.7132  1.5311
 5427TIP3   OH237915   5.842   0.693   7.440 -0.2596  0.0937 -0.6700
 5427TIP3    H137916   5.859   0.783   7.411 -2.8248  0.3526 -1.6130
 5427TIP3    H237917   5.767   0.665   7.387 -0.9719 -1.7904  1.2289
 5428TIP3   OH237918   5.534   1.874   7.866 -0.0263  0.2702 -0.4096
 5428TIP3    H137919   5.502   1.953   7.908  0.3989 -0.1221  0.6942
 5428TIP3    H237920   5.548   1.812   7.939 -0.2148 -0.7599 -1.2261
 5429TIP3   OH237921   5.507   3.733   7.550 -0.2910 -0.0996  0.6943
 5429TIP3    H137922   5.466   3.768   7.471  1.4377 -2.7466 -1.5680
 5429TIP3    H237923   5.468   3.646   7.561  1.3696 -0.8258  1.1695
 5430TIP3   OH237924   3.705   3.926   0.216 -0.0927 -0.3975  0.1541
 5430TIP3    H137925   3.797   3.920   0.191  0.0320 -0.2719  0.5830
 5430TIP3    H237926   3.702   3.895   0.306 -0.0077  2.2523  1.1494
 5431TIP3   OH237927   2.203   4.402   7.660  0.5881 -0.0358 -0.1062
 5431TIP3    H137928   2.151   4.324   7.644  3.7792 -2.3539 -0.1411
 5431TIP3    H237929   2.225   4.435   7.573  0.0422  0.3635 -0.0998
 5432TIP3   OH237930   1.014   5.762   7.341  0.3272 -0.1303 -0.0269
 5432TIP3    H137931   1.109   5.747   7.335  0.0801 -1.4870 -0.8150
 5432TIP3    H237932   1.006   5.858   7.341  1.5461  0.0700 -2.9357
 5433TIP3   OH237933   3.676   6.427   0.201  0.3205 -0.1207  0.4781
 5433TIP3    H137934   3.746   6.450   0.141  0.6615  0.0015  0.9241
 5433TIP3    H237935   3.598   6.420   0.145  0.3625  1.2972  0.2157
 5434TIP3   OH237936   6.264   3.986   7.889  0.0601  0.3574  0.1278
 5434TIP3    H137937   6.184   3.953   7.849  0.1168  0.3534  0.0152
 5434TIP3    H237938   6.324   3.911   7.887  0.2555  0.5237 -0.3124
 5435TIP3   OH237939   1.889   0.545   1.164 -0.5543  0.0335 -0.3534
 5435TIP3    H137940   1.838   0.500   1.096  1.0402 -2.0627 -0.2417
 5435TIP3    H237941   1.945   0.606   1.115  2.1033 -2.9054 -1.3131
 5436TIP3   OH237942   1.870   2.227   6.714  0.4603 -0.0159  0.5406
 5436TIP3    H137943   1.812   2.302   6.726 -0.0478  0.1289 -2.1442
 5436TIP3    H237944   1.812   2.151   6.718  0.4583 -0.0347  0.1890
 5437TIP3   OH237945   2.231   3.270   8.837  0.1115 -0.1304 -0.3896
 5437TIP3    H137946   2.228   3.192   8.892  0.9676  0.2406  0.2049
 5437TIP3    H237947   2.319   3.305   8.851  0.0804  0.3866 -1.4234
 5438TIP3   OH237948   6.661   1.695   7.501 -0.3126 -0.5792  0.2164
 5438TIP3    H137949   6.682   1.783   7.532 -0.1468 -1.0773  1.5974
 5438TIP3    H237950   6.741   1.665   7.456 -1.1304  0.7959 -2.3444
 5439TIP3   OH237951   5.189   0.395   8.596  0.1056 -0.2205  0.3197
 5439TIP3    H137952   5.144   0.476   8.572 -1.1432 -0.3603  2.0292
 5439TIP3    H237953   5.176   0.337   8.521  0.7596  1.0232 -0.8035
 5440TIP3   OH237954   2.897   2.338   1.080 -0.5444  0.5846  0.1705
 5440TIP3    H137955   2.929   2.416   1.126 -1.8864  0.7013  0.9815
 5440TIP3    H237956   2.830   2.372   1.021 -0.4686  0.1487 -0.1687
 5441TIP3   OH237957   4.251   3.802   6.520 -0.1758  0.1472  0.2758
 5441TIP3    H137958   4.301   3.731   6.479  0.3247  0.9962 -0.6500
 5441TIP3    H237959   4.178   3.817   6.460  0.4199  1.2336 -0.2144
 5442TIP3   OH237960   3.100   3.315   7.140  0.4619  0.0460  0.4291
 5442TIP3    H137961   3.168   3.327   7.207 -0.1928 -0.0280  1.1160
 5442TIP3    H237962   3.065   3.403   7.125 -0.3396 -0.1278  1.2065
 5443TIP3   OH237963   4.718   2.784   6.754 -0.2102  0.0233  0.4704
 5443TIP3    H137964   4.789   2.777   6.690  0.2396  0.4965  0.9052
 5443TIP3    H237965   4.748   2.851   6.815 -1.9849  1.8745 -0.5625
 5444TIP3   OH237966   3.823   0.319   7.062  0.2262 -0.2867  0.8353
 5444TIP3    H137967   3.779   0.236   7.047 -2.1479  1.0216  0.0853
 5444TIP3    H237968   3.812   0.336   7.156 -0.5076 -0.2016  0.7422
 5445TIP3   OH237969   0.348   6.028   8.707 -0.2951  0.4019  0.7913
 5445TIP3    H137970   0.416   6.088   8.737 -0.2615 -0.1022  1.7446
 5445TIP3    H237971   0.367   6.016   8.614 -1.5834  3.5527 -0.0002
 5446TIP3   OH237972   4.325   3.323   2.431 -0.2019 -0.0537  0.4891
 5446TIP3    H137973   4.319   3.314   2.335  0.2205  0.2517  0.4322
 5446TIP3    H237974   4.277   3.247   2.464  0.0709 -0.4427  0.0261
 5447TIP3   OH237975   0.757   3.614   1.645  0.1370  0.2004 -0.0676
 5447TIP3    H137976   0.696   3.662   1.589 -1.7501 -1.5809  0.3399
 5447TIP3    H237977   0.727   3.631   1.734  1.8391  1.3144  0.3445
 5448TIP3   OH237978   1.280   6.200   0.743 -0.7419 -0.6366 -0.6218
 5448TIP3    H137979   1.256   6.290   0.723  2.8768  0.1837 -1.9819
 5448TIP3    H237980   1.345   6.207   0.813 -1.7254 -2.3815  0.5516
 5449TIP3   OH237981   3.560   0.253   7.845  0.2712  0.6930  0.1864
 5449TIP3    H137982   3.564   0.348   7.841  1.0902  0.6419 -0.4041
 5449TIP3    H237983   3.466   0.233   7.843  0.1255  1.4119 -1.7742
 5450TIP3   OH237984   0.792   0.727   8.249  0.4136 -0.3192  0.7132
 5450TIP3    H137985   0.746   0.691   8.173  0.2577 -1.2875  1.2561
 5450TIP3    H237986   0.774   0.821   8.246  0.6103 -0.3019 -0.5849
 5451TIP3   OH237987   5.235   4.382   1.681  0.1903 -0.5107 -0.7744
 5451TIP3    H137988   5.263   4.324   1.609  3.8525  0.7626 -0.5749
 5451TIP3    H237989   5.281   4.349   1.758 -1.1404  0.0926  0.3279
 5452TIP3   OH237990   5.548   3.369   1.681  0.1055 -0.0167  0.0061
 5452TIP3    H137991   5.517   3.441   1.735 -1.0078  0.9430 -1.8120
 5452TIP3    H237992   5.516   3.389   1.593  1.5700 -1.6613 -0.9762
 5453TIP3   OH237993   0.720   3.088   8.463 -0.4163  0.1360  0.3874
 5453TIP3    H137994   0.798   3.061   8.512  0.8401  1.1482 -0.9412
 5453TIP3    H237995   0.753   3.109   8.376 -2.0682  1.3339  0.0017
 5454TIP3   OH237996   4.377   4.547   6.921 -0.1377  0.1221 -0.4169
 5454TIP3    H137997   4.331   4.484   6.865 -1.6096 -0.7723  1.6613
 5454TIP3    H237998   4.424   4.493   6.985 -0.4179  1.1052  0.6584
 5455TIP3   OH237999   4.603   5.674   7.934  0.7478  0.2457 -0.2236
 5455TIP3    H138000   4.677   5.629   7.975  0.6981  0.2009 -0.1804
 5455TIP3    H238001   4.567   5.729   8.004  1.0982  0.7165 -0.4127
 5456TIP3   OH238002   2.956   6.061   7.084 -0.4726  0.0501 -0.1968
 5456TIP3    H138003   2.969   6.093   7.173  0.8921  0.6173 -0.5743
 5456TIP3    H238004   2.990   6.131   7.028  0.0719 -0.9295 -1.1235
 5457TIP3   OH238005   5.477   6.135   1.087 -0.0200  0.5658  0.2121
 5457TIP3    H138006   5.400   6.113   1.140  1.3111  0.8032  2.3604
 5457TIP3    H238007   5.548   6.146   1.150  1.8121  0.3893 -1.6764
 5458TIP3   OH238008   3.424   0.685   2.101  0.5645  0.2225  0.6000
 5458TIP3    H138009   3.368   0.754   2.138  0.8542  1.2244 -0.7324
 5458TIP3    H238010   3.484   0.732   2.043  0.7170 -1.1707 -0.4169
 5459TIP3   OH238011   0.511   4.273   8.194 -0.3683  0.2951 -0.3771
 5459TIP3    H138012   0.502   4.360   8.154  0.6009 -0.2962 -1.9882
 5459TIP3    H238013   0.489   4.212   8.124  1.1570 -0.7905  0.0324
 5460TIP3   OH238014   6.740   4.458   0.999  0.3664  0.1808  0.4903
 5460TIP3    H138015   6.821   4.509   0.995 -0.1905  1.2258  1.7226
 5460TIP3    H238016   6.742   4.417   1.085 -0.2796 -0.0060  0.4210
 5461TIP3   OH238017   0.979   1.207   0.521 -0.4838 -0.1795  0.3215
 5461TIP3    H138018   0.937   1.272   0.465  0.0712 -1.0933 -1.2098
 5461TIP3    H238019   0.942   1.123   0.493 -0.1214 -0.6725  1.2652
 5462TIP3   OH238020   5.928   2.122   7.499 -0.1345 -0.1794  0.3902
 5462TIP3    H138021   5.907   2.075   7.579  1.2095  0.0041  0.8751
 5462TIP3    H238022   6.023   2.132   7.501 -0.0974  0.0681 -1.0957
 5463TIP3   OH238023   1.311   2.238   8.065  0.1740  0.3655 -0.2534
 5463TIP3    H138024   1.335   2.316   8.014  3.7578  0.1155  0.8056
 5463TIP3    H238025   1.306   2.268   8.155  0.5499 -0.4445  0.0446
 5464TIP3   OH238026   5.900   0.506   7.918 -0.0304 -0.5679 -0.5981
 5464TIP3    H138027   5.962   0.526   7.848 -0.5614 -1.3622 -1.3246
 5464TIP3    H238028   5.820   0.482   7.872 -0.3661 -1.1986  0.2936
 5465TIP3   OH238029   0.064   6.526   0.556  0.6843 -0.3638  0.3702
 5465TIP3    H138030  -0.001   6.583   0.596  0.8351  1.5386 -1.8744
 5465TIP3    H238031   0.014   6.451   0.523  0.6404 -2.3625  4.4185
 5466TIP3   OH238032   1.166   6.147   6.451  0.4273  0.0482  0.2661
 5466TIP3    H138033   1.112   6.129   6.527 -0.6436  0.2657 -0.4189
 5466TIP3    H238034   1.154   6.240   6.434 -1.1749 -0.4216 -1.5016
 5467TIP3   OH238035   0.424   3.836   2.360 -0.3554 -0.2123 -0.1617
 5467TIP3    H138036   0.371   3.799   2.431  0.1484 -0.2993  0.1759
 5467TIP3    H238037   0.486   3.766   2.338 -0.2266 -0.0263 -0.3878
 5468TIP3   OH238038   3.732   3.633   8.820  0.0558 -0.4509  0.0361
 5468TIP3    H138039   3.645   3.665   8.844  0.9338 -0.7809  4.5612
 5468TIP3    H238040   3.779   3.711   8.790 -0.9703  0.3636  0.5020
 5469TIP3   OH238041   2.228   4.991   8.171  0.4767  0.1773 -0.0296
 5469TIP3    H138042   2.321   4.986   8.148  1.3953  1.2038  2.9522
 5469TIP3    H238043   2.204   5.082   8.152 -0.2849 -0.3280 -1.7286
 5470TIP3   OH238044   1.842   2.365   8.311 -0.3016 -0.1224  0.2361
 5470TIP3    H138045   1.921   2.323   8.277  0.6062  0.7704  1.1785
 5470TIP3    H238046   1.830   2.442   8.255 -0.6200 -0.3544 -0.0201
 5471TIP3   OH238047   4.766   0.458   1.651 -0.5532 -0.0415  0.2686
 5471TIP3    H138048   4.680   0.452   1.693 -1.2362  2.2395 -0.7004
 5471TIP3    H238049   4.825   0.417   1.714 -2.1209 -0.2640  1.6678
 5472TIP3   OH238050   3.637   5.337   1.117 -0.0340  0.0210 -0.1623
 5472TIP3    H138051   3.580   5.286   1.059  0.3989 -0.4980 -0.1420
 5472TIP3    H238052   3.715   5.354   1.064 -0.1504  0.6122 -0.1458
 5473TIP3   OH238053   5.492   2.773   0.473  0.0104  0.0087 -0.1955
 5473TIP3    H138054   5.418   2.781   0.533  0.2086 -0.9633  0.1903
 5473TIP3    H238055   5.513   2.863   0.449 -1.2787  0.3039 -0.2917
 5474TIP3   OH238056   2.647   3.249   1.402  0.3352 -0.4857  0.1176
 5474TIP3    H138057   2.664   3.268   1.310  1.2481  1.4201  0.6264
 5474TIP3    H238058   2.711   3.301   1.450 -1.1559 -0.1519  1.8877
 5475TIP3   OH238059   0.002   0.507   8.547  0.1290  0.2289  0.5360
 5475TIP3    H138060   0.004   0.412   8.538 -2.2131  0.0260  1.4007
 5475TIP3    H238061   0.038   0.525   8.634 -1.7115 -0.1630  1.4460
 5476TIP3   OH238062   0.769   1.718   0.422  0.0646 -0.3324 -0.1809
 5476TIP3    H138063   0.739   1.683   0.338 -0.6059  0.8004 -0.4314
 5476TIP3    H238064   0.789   1.810   0.404 -0.7354  0.1003  1.0425
 5477TIP3   OH238065   3.237   4.285   2.623 -0.0940  0.4483 -0.4407
 5477TIP3    H138066   3.281   4.370   2.631 -0.5779  0.6070  0.8554
 5477TIP3    H238067   3.294   4.234   2.566  0.0583  1.7247 -1.4725
 5478TIP3   OH238068   0.880   3.532   5.768  0.3846 -0.2715 -0.0884
 5478TIP3    H138069   0.896   3.584   5.847  2.3616 -0.4026 -0.3406
 5478TIP3    H238070   0.898   3.442   5.794  0.1985 -0.4164 -0.4611
 5479TIP3   OH238071   2.862   5.125   8.550 -0.0959  0.1464 -0.2938
 5479TIP3    H138072   2.892   5.182   8.479 -0.0147 -0.9487 -1.1557
 5479TIP3    H238073   2.767   5.135   8.551 -0.2355 -0.8692 -1.4831
 5480TIP3   OH238074   5.974   1.307   0.963 -0.0825 -0.1787 -0.2061
 5480TIP3    H138075   6.017   1.273   1.041  1.3685 -0.7300 -1.1954
 5480TIP3    H238076   5.971   1.401   0.976  1.2854 -0.1426 -0.0038
 5481TIP3   OH238077   1.070   0.288   5.758  0.5513 -0.1435  0.0196
 5481TIP3    H138078   1.101   0.236   5.684  1.1168  1.3750 -0.8755
 5481TIP3    H238079   0.977   0.271   5.762  0.4523 -0.0409 -1.2720
 5482TIP3   OH238080   0.137   3.917   0.839  0.1409  0.1719 -0.0400
 5482TIP3    H138081   0.159   3.824   0.828 -0.3068  0.2255 -1.7003
 5482TIP3    H238082   0.073   3.934   0.770 -0.1198  1.6206  0.5273
 5483TIP3   OH238083   5.601   1.647   8.055  0.2688  0.1883 -0.2113
 5483TIP3    H138084   5.528   1.694   8.096 -0.6910 -1.3839 -0.0369
 5483TIP3    H238085   5.671   1.651   8.120 -0.3215  0.0397  0.4422
 5484TIP3   OH238086   3.242   4.923   1.692  0.3680  0.1674 -0.1723
 5484TIP3    H138087   3.189   4.979   1.636 -0.5739 -0.7205 -0.2017
 5484TIP3    H238088   3.179   4.863   1.732  1.1933 -0.0868  0.7926
 5485TIP3   OH238089   2.870   1.810   1.267  0.3463  0.0590 -0.0771
 5485TIP3    H138090   2.937   1.757   1.309 -0.0934 -0.8887 -0.5257
 5485TIP3    H238091   2.838   1.868   1.336  1.2653  0.1711  0.2678
 5486TIP3   OH238092   4.711   3.773   7.376  0.7464  0.8562  0.1811
 5486TIP3    H138093   4.659   3.755   7.298  2.0909  1.5020 -0.9172
 5486TIP3    H238094   4.782   3.830   7.345  1.9292  0.2749  1.6595
 5487TIP3   OH238095   0.772   3.880   7.982 -0.6009 -0.0934 -0.1122
 5487TIP3    H138096   0.831   3.821   8.028 -0.3267  0.5112  0.3279
 5487TIP3    H238097   0.735   3.935   8.052 -0.2545  0.7733 -0.6069
 5488TIP3   OH238098   2.229   6.370   2.016  0.4827 -0.2088  0.0787
 5488TIP3    H138099   2.176   6.331   1.946  0.1386  0.0511  0.1941
 5488TIP3    H238100   2.308   6.315   2.019  0.8822  0.2720 -1.0739
 5489TIP3   OH238101   2.286   2.367   0.352  0.1321 -0.1140 -0.0773
 5489TIP3    H138102   2.371   2.328   0.374  0.5281  0.5749 -0.3417
 5489TIP3    H238103   2.264   2.421   0.428 -0.8302 -1.4999  0.6577
 5490TIP3   OH238104   3.082   6.293   6.961  0.4897  0.1205 -0.6816
 5490TIP3    H138105   3.160   6.254   7.001 -0.0710  0.8542  1.2161
 5490TIP3    H238106   3.116   6.342   6.886  1.5628 -1.3757 -1.2340
 5491TIP3   OH238107   2.351   2.928   7.574  0.0536  0.7848  0.2216
 5491TIP3    H138108   2.310   2.981   7.505 -1.0765 -0.9282 -0.5161
 5491TIP3    H238109   2.442   2.956   7.576  0.0348  1.1353 -1.7533
 5492TIP3   OH238110   3.523   3.894   7.128 -0.4399 -0.0111  0.1358
 5492TIP3    H138111   3.563   3.973   7.090 -1.5325 -0.1166 -1.3281
 5492TIP3    H238112   3.593   3.854   7.179  1.8090 -0.8349 -3.2355
 5493TIP3   OH238113   3.697   4.150   7.080  0.3146  0.2724 -0.1116
 5493TIP3    H138114   3.641   4.147   7.002 -0.4651 -0.9649  0.4687
 5493TIP3    H238115   3.761   4.219   7.060  0.2846 -0.1622 -1.9523
 5494TIP3   OH238116   0.913   4.251   0.034  0.0952 -0.5228  0.1619
 5494TIP3    H138117   0.836   4.288  -0.009 -1.4493 -1.3750  2.0567
 5494TIP3    H238118   0.897   4.156   0.034  1.4198 -0.7719  0.1162
 5495TIP3   OH238119   1.002   6.437   7.472  0.0035  0.7145 -0.0346
 5495TIP3    H138120   1.052   6.469   7.397  1.5722 -0.6826  0.3420
 5495TIP3    H238121   1.067   6.430   7.542 -1.1837  0.8680  1.1065
 5496TIP3   OH238122   6.550   1.078   2.090 -0.5053  0.4472 -0.0759
 5496TIP3    H138123   6.583   0.988   2.078 -1.1550  0.3430 -1.1367
 5496TIP3    H238124   6.467   1.067   2.136 -0.5399  0.5195 -0.1216
 5497TIP3   OH238125   4.354   1.003   1.981 -0.2707 -0.3110  0.6782
 5497TIP3    H138126   4.440   0.975   1.948 -0.2251 -2.4964  2.4449
 5497TIP3    H238127   4.292   0.942   1.941 -0.6867 -0.3086  1.3042
 5498TIP3   OH238128   0.261   1.518   1.668 -0.1641  0.0439 -0.2815
 5498TIP3    H138129   0.228   1.604   1.691  0.5835  0.3003 -0.1203
 5498TIP3    H238130   0.216   1.458   1.727  0.0174  0.4384  0.2744
 5499TIP3   OH238131   4.868   3.395   7.056 -0.4028 -0.0830 -0.1677
 5499TIP3    H138132   4.839   3.320   7.107  1.1225 -1.3093 -1.0265
 5499TIP3    H238133   4.797   3.411   6.993 -1.4907  0.3205  1.1221
 5500TIP3   OH238134   4.333   5.601   1.134 -0.4152  0.4071 -0.0345
 5500TIP3    H138135   4.260   5.606   1.195 -0.3419  0.7117  0.0277
 5500TIP3    H238136   4.392   5.537   1.174 -1.1064 -0.6058 -0.5812
 5501TIP3   OH238137   3.581   5.429   7.867 -0.7610 -0.4968 -0.0418
 5501TIP3    H138138   3.591   5.413   7.961  2.5990 -4.0143 -0.7470
 5501TIP3    H238139   3.659   5.478   7.842  0.0067 -2.2480 -1.3401
 5502TIP3   OH238140   0.071   1.659   0.062  0.2075  0.0187  0.1985
 5502TIP3    H138141  -0.014   1.701   0.076  0.8772  0.4708  3.7942
 5502TIP3    H238142   0.135   1.730   0.069  1.0037 -0.5079 -1.2749
 5503TIP3   OH238143   3.189   4.992   0.955  0.3777  0.0732 -0.1486
 5503TIP3    H138144   3.268   4.942   0.975 -0.1534 -0.1878  1.4929
 5503TIP3    H238145   3.117   4.935   0.983 -0.2735  1.3639  0.9471
 5504TIP3   OH238146   0.190   0.846   2.030 -0.0978  0.2260 -0.3206
 5504TIP3    H138147   0.201   0.919   1.969  1.5596  1.1062  0.9351
 5504TIP3    H238148   0.192   0.768   1.975 -0.2485  1.0411 -1.5273
 5505TIP3   OH238149   3.871   5.941   8.341  0.1458  0.0905 -0.2124
 5505TIP3    H138150   3.863   5.931   8.436  3.3897 -1.4162  0.0206
 5505TIP3    H238151   3.965   5.939   8.325 -0.3262  0.0930 -3.5010
 5506TIP3   OH238152   2.089   2.633   7.632  0.2655 -0.1598 -0.0793
 5506TIP3    H138153   2.136   2.690   7.692 -0.2244 -0.9511  1.0761
 5506TIP3    H238154   2.081   2.685   7.551  0.0602  1.2995  0.8431
 5507TIP3   OH238155   5.572   1.271   7.683  0.2461 -0.3083  0.5663
 5507TIP3    H138156   5.520   1.342   7.721  0.0432 -0.2370  0.1673
 5507TIP3    H238157   5.583   1.297   7.591 -1.0945 -1.4938  0.0280
 5508TIP3   OH238158   2.495   4.612   8.441 -0.0329 -0.2517  0.3186
 5508TIP3    H138159   2.566   4.579   8.386 -0.0589 -0.0461  0.1632
 5508TIP3    H238160   2.520   4.585   8.530  1.0387  1.1506  0.4901
 5509TIP3   OH238161   6.782   1.932   6.768  0.6769  0.2841 -0.4081
 5509TIP3    H138162   6.846   1.886   6.822 -0.0354 -0.0728  0.1444
 5509TIP3    H238163   6.732   1.863   6.725 -1.6824  0.3826  1.9062
 5510TIP3   OH238164   4.631   2.391   8.712 -0.5520  0.3981 -0.1995
 5510TIP3    H138165   4.652   2.316   8.767  0.4722  1.5207  1.0275
 5510TIP3    H238166   4.568   2.442   8.764 -2.1858 -0.1965 -1.5406
 5511TIP3   OH238167   2.392   1.952   7.646 -0.0807 -0.1042  0.2786
 5511TIP3    H138168   2.471   1.999   7.672  0.4063 -0.4485 -0.5307
 5511TIP3    H238169   2.358   1.916   7.728 -0.0041  0.9442  0.7881
 5512TIP3   OH238170   3.317   5.805   1.723 -0.4602 -0.1134 -0.1539
 5512TIP3    H138171   3.272   5.726   1.751 -1.6776  0.1003 -1.4017
 5512TIP3    H238172   3.316   5.862   1.800 -1.7742 -0.3722  0.0438
 5513TIP3   OH238173   6.283   5.342   7.365  0.2625  0.2451 -0.1410
 5513TIP3    H138174   6.370   5.323   7.332 -0.4058  1.7371 -3.1416
 5513TIP3    H238175   6.231   5.264   7.345  0.0624  0.8226 -2.1516
 5514TIP3   OH238176   5.814   5.417   0.629  0.3879  0.1274  0.7615
 5514TIP3    H138177   5.867   5.400   0.551  0.1514  2.6826 -0.0482
 5514TIP3    H238178   5.878   5.432   0.698  0.6631  0.7414  0.3753
 5515TIP3   OH238179   1.107   0.295   0.633 -0.4369  0.6884 -0.1943
 5515TIP3    H138180   1.098   0.230   0.702  0.5978 -0.0868 -0.7746
 5515TIP3    H238181   1.201   0.312   0.627 -0.5872  1.3528 -0.8583
 5516TIP3   OH238182   0.025   0.544   6.509  0.4141 -0.1958 -0.4584
 5516TIP3    H138183  -0.066   0.544   6.480  0.4499  2.9016 -0.8737
 5516TIP3    H238184   0.071   0.597   6.445  2.1056 -0.0045  0.8393
 5517TIP3   OH238185   0.922   1.178   0.167 -0.3607  0.7033 -0.4724
 5517TIP3    H138186   0.986   1.125   0.214 -1.0469 -0.9445 -1.3159
 5517TIP3    H238187   0.897   1.125   0.091 -2.0912  1.6600 -0.6422
 5518TIP3   OH238188   5.427   5.366   1.250  0.4408 -0.4045  0.0711
 5518TIP3    H138189   5.417   5.292   1.310 -0.4718 -0.8511 -0.6179
 5518TIP3    H238190   5.488   5.335   1.183  4.8665  1.4090  2.7957
 5519TIP3   OH238191   4.811   0.935   7.928  0.7960  0.2406  0.3382
 5519TIP3    H138192   4.750   0.918   7.856  0.7155  0.5644  0.3256
 5519TIP3    H238193   4.862   0.855   7.936 -0.8062 -0.7210  1.5092
 5520TIP3   OH238194   5.682   0.426   6.239 -0.2887 -0.1131 -0.0356
 5520TIP3    H138195   5.648   0.339   6.217 -0.6656 -0.3335  1.3027
 5520TIP3    H238196   5.775   0.421   6.215 -0.4255 -0.6948 -0.4810
 5521TIP3   OH238197   3.068   1.738   6.716  0.0316  0.0735 -0.1984
 5521TIP3    H138198   3.086   1.715   6.807 -0.8984  0.2515  0.0488
 5521TIP3    H238199   3.150   1.721   6.669  0.6731  0.4574  0.7585
 5522TIP3   OH238200   5.671   6.856   1.652  0.3844 -0.0344 -0.5527
 5522TIP3    H138201   5.725   6.897   1.720 -0.0221  1.1054 -0.8919
 5522TIP3    H238202   5.641   6.774   1.691  0.8991  0.1670  0.3010
 5523TIP3   OH238203   5.449   3.482   7.628 -0.2000  0.0406 -0.1395
 5523TIP3    H138204   5.530   3.437   7.652  0.2921  1.0622  0.1795
 5523TIP3    H238205   5.392   3.412   7.596  0.5009 -0.8184  0.4123
 5524TIP3   OH238206   0.200   5.784   7.081 -0.7330 -0.0611  0.7717
 5524TIP3    H138207   0.199   5.868   7.037 -0.7177 -0.6817 -0.4459
 5524TIP3    H238208   0.117   5.743   7.058 -1.7009  0.4361  3.0626
 5525TIP3   OH238209   2.818   1.121   2.137  0.1270  0.0066  0.0615
 5525TIP3    H138210   2.836   1.031   2.110 -0.2783 -0.7691  2.1515
 5525TIP3    H238211   2.902   1.166   2.130  1.0220 -1.2951  1.5431
 5526TIP3   OH238212   3.980   0.400   1.314 -0.0145 -0.3859  0.3353
 5526TIP3    H138213   3.954   0.341   1.243  0.4691 -0.1466 -0.0518
 5526TIP3    H238214   4.019   0.475   1.269  1.2565 -0.6950  0.8832
 5527TIP3   OH238215   3.483   2.467   8.505  0.4636  0.9845  0.0918
 5527TIP3    H138216   3.546   2.516   8.451  0.7136  0.1875 -0.3586
 5527TIP3    H238217   3.417   2.436   8.443  0.8175 -0.0405  0.1962
 5528TIP3   OH238218   6.590   4.340   1.797 -0.1701  0.1773 -0.4394
 5528TIP3    H138219   6.632   4.425   1.806  1.8230 -0.6570 -1.1615
 5528TIP3    H238220   6.581   4.327   1.702 -1.5940  0.0995 -0.3046
 5529TIP3   OH238221   6.324   6.391   2.243  0.0957 -0.5375 -0.7753
 5529TIP3    H138222   6.334   6.483   2.266  1.8794 -0.7140 -0.6790
 5529TIP3    H238223   6.277   6.392   2.160 -0.4560  0.4132 -0.4704
 5530TIP3   OH238224   1.630   0.574   0.138 -0.2429  0.0826 -0.7797
 5530TIP3    H138225   1.675   0.590   0.221  0.9174 -0.3279 -1.2978
 5530TIP3    H238226   1.545   0.538   0.163 -0.1667  0.5783  0.2376
 5531TIP3   OH238227   5.863   1.356   8.555 -0.3843 -0.6904  0.2572
 5531TIP3    H138228   5.780   1.313   8.577 -0.8444 -0.4429 -0.9207
 5531TIP3    H238229   5.837   1.439   8.514  0.4665 -0.2534  0.5668
 5532TIP3   OH238230   2.682   0.559   0.035  0.4908  0.1419 -0.3759
 5532TIP3    H138231   2.635   0.478   0.054  0.9951 -0.5738 -2.0319
 5532TIP3    H238232   2.775   0.535   0.042  0.6738  1.0883  1.0346
 5533TIP3   OH238233   4.205   3.586   6.866  0.1177 -0.0351 -0.2892
 5533TIP3    H138234   4.290   3.554   6.896 -0.4498 -1.8030 -0.4454
 5533TIP3    H238235   4.172   3.639   6.939  0.9064 -0.1749  0.1790
 5534TIP3   OH238236   0.267   4.576   7.022 -0.5445  0.2151  0.2710
 5534TIP3    H138237   0.258   4.533   6.937 -2.3071 -2.2693  1.6103
 5534TIP3    H238238   0.278   4.669   7.001  1.4801 -0.5683 -2.6996
 5535TIP3   OH238239   0.011   5.495   0.361  0.2148  0.3118 -0.2241
 5535TIP3    H138240   0.059   5.535   0.288  0.7754 -1.7250 -1.0380
 5535TIP3    H238241  -0.077   5.481   0.326  0.8681 -2.0127 -1.1124
 5536TIP3   OH238242   3.908   0.401   7.711  0.6059 -0.0438  0.4832
 5536TIP3    H138243   3.893   0.478   7.656 -0.1201  0.1767  0.9677
 5536TIP3    H238244   3.862   0.330   7.666 -0.7964  0.3338  1.2472
 5537TIP3   OH238245   1.359   3.960   8.217  0.0541  0.2767 -0.4680
 5537TIP3    H138246   1.295   3.957   8.288 -0.4902 -0.2510 -0.9632
 5537TIP3    H238247   1.415   3.884   8.232  0.9262  1.0524  0.2818
 5538TIP3   OH238248   3.209   6.424   0.293  0.2040 -0.4895 -0.5321
 5538TIP3    H138249   3.150   6.378   0.233 -0.5402 -0.3953  0.1094
 5538TIP3    H238250   3.207   6.515   0.263  1.1665 -0.7298 -1.3969
 5539TIP3   OH238251   0.345   3.134   0.174 -0.8243  0.1959 -0.1994
 5539TIP3    H138252   0.395   3.208   0.137 -1.0806  0.7995  0.6340
 5539TIP3    H238253   0.284   3.110   0.104 -0.9269  0.9666 -0.3919
 5540TIP3   OH238254   4.555   0.961   8.396  0.2123 -0.2168  0.1339
 5540TIP3    H138255   4.598   0.989   8.316  0.7622 -1.1512  0.0821
 5540TIP3    H238256   4.463   0.950   8.372  0.2816  0.0137 -0.2369
 5541TIP3   OH238257   2.545   5.633   7.627 -0.5047 -0.5312  0.1106
 5541TIP3    H138258   2.501   5.571   7.684 -2.0093 -0.5590 -1.0409
 5541TIP3    H238259   2.605   5.579   7.575 -0.3462 -0.7238  0.4842
 5542TIP3   OH238260   6.435   1.923   6.580 -0.8828  0.3946 -0.0552
 5542TIP3    H138261   6.439   1.832   6.608 -1.0189 -0.3078 -2.1426
 5542TIP3    H238262   6.518   1.939   6.535 -1.7543  0.5504 -1.6986
 5543TIP3   OH238263   5.839   2.284   0.085 -0.8382 -0.3866  0.0225
 5543TIP3    H138264   5.932   2.287   0.065 -0.3671 -1.6968  1.7967
 5543TIP3    H238265   5.806   2.369   0.057  0.9892  0.3202 -0.1233
 5544TIP3   OH238266   2.829   2.761   2.079  0.2310  0.2381 -0.2451
 5544TIP3    H138267   2.759   2.724   2.134  2.7857 -1.7502  1.9275
 5544TIP3    H238268   2.878   2.818   2.138  0.6261  1.3915 -1.6483
 5545TIP3   OH238269   2.816   4.673   1.218 -0.0080  0.5333 -0.5792
 5545TIP3    H138270   2.762   4.610   1.265  1.0638 -1.4318 -1.8332
 5545TIP3    H238271   2.756   4.744   1.195 -0.6850  1.3262  3.1237
 5546TIP3   OH238272   5.641   2.450   1.371  0.3780  0.1044  0.3444
 5546TIP3    H138273   5.662   2.451   1.465  0.6389 -0.9422  0.3037
 5546TIP3    H238274   5.550   2.479   1.367  0.5413  0.7180  0.8687
 5547TIP3   OH238275   0.564   3.753   1.491  0.5511  0.4402  0.6149
 5547TIP3    H138276   0.503   3.747   1.417 -0.3376 -0.0451  1.3531
 5547TIP3    H238277   0.522   3.815   1.551 -1.1815 -2.5568  2.8121
 5548TIP3   OH238278   5.849   5.890   0.598 -0.2048 -0.2837 -0.3376
 5548TIP3    H138279   5.875   5.973   0.638 -0.7333  0.1809 -0.9503
 5548TIP3    H238280   5.782   5.855   0.658  0.2370 -0.4169  0.0801
 5549TIP3   OH238281   0.312   2.651   1.087  0.2883 -0.4341  0.0095
 5549TIP3    H138282   0.312   2.746   1.096 -0.5128 -0.6021  2.6937
 5549TIP3    H238283   0.315   2.635   0.993 -0.3147  2.2554 -0.5245
 5550TIP3   OH238284   2.946   3.835   0.365  0.3744 -0.1490  0.0217
 5550TIP3    H138285   2.875   3.899   0.363 -0.3454 -0.9466 -1.0318
 5550TIP3    H238286   2.933   3.787   0.446 -1.0305 -1.0734 -0.7115
 5551TIP3   OH238287   0.363   1.562   8.297  0.1568 -0.3909 -0.0466
 5551TIP3    H138288   0.307   1.519   8.232  0.4198 -1.7520  0.5874
 5551TIP3    H238289   0.444   1.581   8.250 -0.2928  0.2402 -0.5763
 5552TIP3   OH238290   2.654   1.065   8.372  0.0453  0.2542 -0.4330
 5552TIP3    H138291   2.679   1.083   8.463 -2.0094  1.8035 -0.1093
 5552TIP3    H238292   2.600   0.986   8.378  1.2340 -0.5976 -0.5676
 5553TIP3   OH238293   0.962   5.751   6.109  1.1549 -0.6730 -0.2973
 5553TIP3    H138294   1.018   5.828   6.096  0.1746  0.2246  0.6289
 5553TIP3    H238295   1.024   5.679   6.125  2.0564  0.2976  0.7419
 5554TIP3   OH238296   0.377   2.693   0.082  0.1445  0.3973  0.3498
 5554TIP3    H138297   0.390   2.714  -0.011 -0.0087 -0.2346  0.1788
 5554TIP3    H238298   0.371   2.598   0.084  1.1538  0.3383  1.1479
 5555TIP3   OH238299   5.564   2.173   1.852  0.2111  0.0768  0.1273
 5555TIP3    H138300   5.612   2.096   1.822  0.8575  0.7338 -0.5534
 5555TIP3    H238301   5.515   2.202   1.775 -2.3194 -1.2914  1.1016
 5556TIP3   OH238302   4.626   4.148   7.515  0.0242  0.3747  0.1979
 5556TIP3    H138303   4.611   4.086   7.586 -2.1202 -2.8771 -2.7840
 5556TIP3    H238304   4.714   4.127   7.483  0.4235  0.8810  0.9211
 5557TIP3   OH238305   4.204   3.142   8.095  0.0871 -0.1272  0.2927
 5557TIP3    H138306   4.232   3.108   8.180  0.3982  0.8878  0.6175
 5557TIP3    H238307   4.278   3.125   8.036 -0.4627 -1.5917  0.0054
 5558TIP3   OH238308   4.161   4.405   1.122  0.9107  0.1307 -0.4703
 5558TIP3    H138309   4.107   4.484   1.123  0.1746 -0.3585  0.0643
 5558TIP3    H238310   4.207   4.406   1.206  1.4737  0.3669 -0.7776
 5559TIP3   OH238311   2.910   0.921   7.289  0.2464 -0.5239  0.1277
 5559TIP3    H138312   2.947   1.006   7.312  0.5605 -0.6213 -0.0035
 5559TIP3    H238313   2.831   0.913   7.342  0.2148 -0.1493  0.1343
 5560TIP3   OH238314   1.076   1.426   8.435  0.2440  0.5352  0.0173
 5560TIP3    H138315   1.074   1.394   8.345  2.0450  0.1889  0.0516
 5560TIP3    H238316   1.168   1.416   8.461  0.0513  2.0385  1.3893
 5561TIP3   OH238317   5.615   3.376   8.176 -0.3567 -0.3521  0.2541
 5561TIP3    H138318   5.541   3.323   8.206 -0.1593 -0.9504 -0.2947
 5561TIP3    H238319   5.677   3.313   8.140 -0.1271  0.2456 -0.4415
 5562TIP3   OH238320   2.509   2.305   8.414  0.4195 -0.5397  0.5821
 5562TIP3    H138321   2.563   2.363   8.361 -0.2811  0.5700  1.0515
 5562TIP3    H238322   2.497   2.227   8.359  1.7619 -0.4498  0.1411
 5563TIP3   OH238323   0.305   3.446   7.523 -0.3626  0.1746 -0.1292
 5563TIP3    H138324   0.323   3.531   7.483  1.9297 -1.6691 -3.5862
 5563TIP3    H238325   0.228   3.414   7.477  0.9819 -1.0334 -1.7054
 5564TIP3   OH238326   3.639   1.662   8.237 -0.8576 -0.8977  0.2346
 5564TIP3    H138327   3.631   1.569   8.256 -1.4461 -0.6488  1.2510
 5564TIP3    H238328   3.713   1.691   8.290 -1.7335 -0.4550  1.2520
 5565TIP3   OH238329   4.849   1.087   7.139  0.0145  0.7096  0.3234
 5565TIP3    H138330   4.936   1.113   7.107 -0.7219  1.1918 -1.4552
 5565TIP3    H238331   4.789   1.118   7.071 -1.6384  1.0384  1.8530
 5566TIP3   OH238332   2.445   4.296   7.466  0.0536 -0.0771  0.1833
 5566TIP3    H138333   2.519   4.235   7.476 -0.1861 -0.6541 -1.2979
 5566TIP3    H238334   2.371   4.240   7.442 -0.1164  0.7938 -1.4581
 5567TIP3   OH238335   1.456   6.082   0.551  0.4737  0.4434  0.0927
 5567TIP3    H138336   1.436   5.992   0.526  0.7631  0.3748  0.1013
 5567TIP3    H238337   1.378   6.113   0.598  0.2475  0.3047 -0.1888
 5568TIP3   OH238338   1.064   3.182   1.572  0.1663 -0.4028 -0.3176
 5568TIP3    H138339   1.040   3.169   1.664 -0.7006  3.3156  0.1729
 5568TIP3    H238340   1.014   3.116   1.525 -0.2484 -1.6827  1.7903
 5569TIP3   OH238341   3.816   3.796   0.758 -0.3157 -0.2151 -0.0039
 5569TIP3    H138342   3.895   3.762   0.715 -0.0483 -0.4968  0.6904
 5569TIP3    H238343   3.801   3.882   0.717 -0.1662 -0.5454 -0.7635
 5570TIP3   OH238344   6.430   5.431   6.482 -0.0558 -0.1858 -0.3655
 5570TIP3    H138345   6.435   5.482   6.563  0.1546 -2.0438  0.8564
 5570TIP3    H238346   6.439   5.496   6.412  0.8644  1.3553  1.1023
 5571TIP3   OH238347   2.222   6.354   7.949  0.2469  0.7209 -0.3961
 5571TIP3    H138348   2.220   6.258   7.951 -1.3488  0.7348  0.8759
 5571TIP3    H238349   2.270   6.378   8.028  0.5248  0.9864 -0.6424
 5572TIP3   OH238350   3.624   2.873   0.468 -0.3720 -1.0852  0.3065
 5572TIP3    H138351   3.592   2.794   0.424  0.2994 -1.0649 -0.2409
 5572TIP3    H238352   3.718   2.858   0.479 -0.3900 -0.7238  0.9754
 5573TIP3   OH238353   3.148   5.443   2.433 -0.1872 -0.8599 -0.0743
 5573TIP3    H138354   3.108   5.529   2.417 -0.6785 -0.6701  1.9793
 5573TIP3    H238355   3.224   5.462   2.487  1.0582 -1.5299 -1.5253
 5574TIP3   OH238356   6.747   1.971   7.527 -0.4048  0.3020  0.8726
 5574TIP3    H138357   6.662   2.012   7.543  0.1563  2.2139 -0.6558
 5574TIP3    H238358   6.803   2.004   7.597 -0.1633  1.6410  0.0988
 5575TIP3   OH238359   5.380   4.393   7.867 -0.4656 -0.0683 -0.2914
 5575TIP3    H138360   5.394   4.421   7.777 -0.1776  0.4956 -0.0757
 5575TIP3    H238361   5.315   4.323   7.860 -0.4044 -0.0710 -0.9391
 5576TIP3   OH238362   2.418   0.890   7.948  0.2622 -0.9350 -0.3861
 5576TIP3    H138363   2.438   0.950   7.876  0.0951 -2.1787 -1.5040
 5576TIP3    H238364   2.349   0.832   7.913 -2.3722  0.5468  1.9143
 5577TIP3   OH238365   2.700   0.503   6.823  0.1973 -0.1476  0.5078
 5577TIP3    H138366   2.626   0.489   6.764  0.6813  1.8736 -0.6855
 5577TIP3    H238367   2.662   0.550   6.898  0.2388  0.9506 -0.1341
 5578TIP3   OH238368   3.541   0.053   8.770  0.5672 -0.0309  0.1649
 5578TIP3    H138369   3.483   0.107   8.824 -2.6793 -1.0416 -2.0503
 5578TIP3    H238370   3.627   0.094   8.781 -0.7060  2.3804  2.6456
 5579TIP3   OH238371   4.198   2.058   0.692 -0.1138 -0.1758 -0.0959
 5579TIP3    H138372   4.155   2.142   0.675  2.5073  1.0742 -1.0336
 5579TIP3    H238373   4.203   2.015   0.607 -1.3453 -1.2995  0.3620
 5580TIP3   OH238374   5.282   0.482   0.370 -0.4777 -0.3763  0.0725
 5580TIP3    H138375   5.367   0.484   0.327 -0.1790  0.6760  0.6937
 5580TIP3    H238376   5.245   0.397   0.344  0.6427 -0.7450 -0.4040
 5581TIP3   OH238377   0.983   0.177   7.683 -0.0901 -0.2957  0.9229
 5581TIP3    H138378   1.047   0.238   7.647 -0.3185  0.2645  1.4642
 5581TIP3    H238379   1.035   0.100   7.708  0.5580  0.5754  2.3629
 5582TIP3   OH238380   6.141   3.546   7.962  0.6108  0.2553 -0.2069
 5582TIP3    H138381   6.194   3.495   7.901  0.0170  0.0604 -0.5641
 5582TIP3    H238382   6.129   3.489   8.037  2.3892  0.9382  0.6643
 5583TIP3   OH238383   1.382   0.813   0.397  0.7769  0.2137 -0.3975
 5583TIP3    H138384   1.390   0.752   0.470  1.0457  0.9889  0.2281
 5583TIP3    H238385   1.454   0.875   0.409 -0.4391  1.6232 -0.1022
 5584TIP3   OH238386   0.238   3.433   7.114  0.3316  0.1002 -0.1508
 5584TIP3    H138387   0.324   3.396   7.135 -0.7908 -1.8428  1.3768
 5584TIP3    H238388   0.211   3.387   7.034  0.6345  0.6516 -0.5841
 5585TIP3   OH238389   2.864   4.749   7.994 -0.5117  0.0264  0.2139
 5585TIP3    H138390   2.912   4.777   7.916 -1.0968  0.0027 -0.1676
 5585TIP3    H238391   2.813   4.674   7.965 -2.6506  1.4851 -0.0948
 5586TIP3   OH238392   1.994   0.596   8.416 -0.3961  0.3943 -0.3163
 5586TIP3    H138393   2.072   0.621   8.366 -1.3280 -0.5418 -2.3492
 5586TIP3    H238394   2.029   0.565   8.500  1.3259  0.9981 -0.7583
 5587TIP3   OH238395   5.105   4.048   0.132  0.0442  0.0942  0.3030
 5587TIP3    H138396   5.170   4.077   0.196 -0.1759  3.1374 -0.7143
 5587TIP3    H238397   5.024   4.040   0.183  0.3996  0.0180  0.8652
 5588TIP3   OH238398   6.341   1.691   1.260 -0.4943  0.4941  0.1609
 5588TIP3    H138399   6.377   1.768   1.216  1.3876  0.1542  1.0284
 5588TIP3    H238400   6.394   1.680   1.339 -0.8686 -1.5281  0.2016
 5589TIP3   OH238401   4.055   4.307   0.564  0.4028  0.1252 -0.1016
 5589TIP3    H138402   4.068   4.350   0.649 -1.0658  2.1362 -0.8241
 5589TIP3    H238403   4.088   4.370   0.500  0.0111 -0.6735 -1.1182
 5590TIP3   OH238404   1.188   3.164   0.393  0.4530  0.0403 -0.0796
 5590TIP3    H138405   1.104   3.211   0.396  0.1023 -0.5348 -0.6718
 5590TIP3    H238406   1.164   3.073   0.381  1.1406 -0.2831  0.9085
 5591TIP3   OH238407   2.542   5.147   1.651 -0.4738  0.7092 -0.3522
 5591TIP3    H138408   2.536   5.129   1.558 -1.5322 -0.2409 -0.1186
 5591TIP3    H238409   2.454   5.173   1.677 -0.5678 -0.5190  0.6576
 5592TIP3   OH238410   0.157   3.739   6.666 -0.0178  0.6611 -0.2382
 5592TIP3    H138411   0.115   3.684   6.600 -1.2671  0.0882  0.9827
 5592TIP3    H238412   0.190   3.815   6.618 -0.5680  0.0788 -1.5622
 5593TIP3   OH238413   4.265   2.841   6.971 -0.2851  0.4588  0.1910
 5593TIP3    H138414   4.279   2.746   6.973 -1.9693  0.1449 -0.8571
 5593TIP3    H238415   4.342   2.876   6.927 -0.3080 -0.5815 -0.6960
 5594TIP3   OH238416   2.670   0.768   0.288 -0.2700 -0.5674 -0.1285
 5594TIP3    H138417   2.690   0.685   0.245  0.6603 -0.6719  0.4821
 5594TIP3    H238418   2.755   0.800   0.320 -0.5502  0.7905 -0.6452
 5595TIP3   OH238419   5.422   4.419   0.778  0.0910 -0.4487 -0.2706
 5595TIP3    H138420   5.358   4.393   0.844  0.1468 -1.9554 -0.7625
 5595TIP3    H238421   5.399   4.509   0.756 -0.1596 -0.0538  1.5111
 5596TIP3   OH238422   0.628   2.308   1.255  0.5679  0.4397  0.3900
 5596TIP3    H138423   0.572   2.247   1.302 -1.6490  2.3568  0.3957
 5596TIP3    H238424   0.646   2.265   1.171 -1.1752 -0.1322  0.2884
 5597TIP3   OH238425   4.452   1.260   7.639  0.1910  0.3459 -0.2803
 5597TIP3    H138426   4.525   1.317   7.614  1.1702 -0.1874  1.1998
 5597TIP3    H238427   4.378   1.319   7.651  0.6237  1.0201 -0.8310
 5598TIP3   OH238428   4.333   0.578   1.710  0.1646 -0.1721  0.1610
 5598TIP3    H138429   4.326   0.584   1.615  0.0863  2.3393  0.2599
 5598TIP3    H238430   4.294   0.660   1.742 -2.4145 -2.1259  2.5386
 5599TIP3   OH238431   1.414   0.428   8.553  0.0431  0.1896 -0.2751
 5599TIP3    H138432   1.365   0.504   8.582  0.0195  0.3757 -0.7941
 5599TIP3    H238433   1.348   0.365   8.523  0.1094  0.5095 -1.1420
 5600TIP3   OH238434   4.793   4.244   7.824  0.1940 -0.1677 -0.2138
 5600TIP3    H138435   4.749   4.169   7.783 -1.1583  0.7593 -0.5143
 5600TIP3    H238436   4.882   4.242   7.788 -0.3698 -0.5509 -1.6401
 5601TIP3   OH238437   4.362   1.851   0.237  0.4445  0.3797 -0.2004
 5601TIP3    H138438   4.283   1.848   0.182  0.5811  1.0868 -0.4515
 5601TIP3    H238439   4.429   1.808   0.185  0.1156 -0.6387  0.2074
 5602TIP3   OH238440   3.684   2.708   8.733  0.0548  0.3477 -0.0023
 5602TIP3    H138441   3.745   2.646   8.695  0.0827  0.1156  0.4079
 5602TIP3    H238442   3.728   2.741   8.811 -0.5672 -0.2590  0.6224
 5603TIP3   OH238443   3.956   2.642   6.273 -0.1718 -0.3070 -0.2517
 5603TIP3    H138444   3.873   2.688   6.275  0.9643  1.9151  3.1511
 5603TIP3    H238445   3.938   2.558   6.316 -0.9025 -0.4333 -0.7835
 5604TIP3   OH238446   2.125   3.818   0.367 -0.3882  0.3522  0.1435
 5604TIP3    H138447   2.097   3.727   0.360 -0.0855  0.3424 -1.3037
 5604TIP3    H238448   2.213   3.819   0.330 -0.9920  1.4790 -1.4137
 5605TIP3   OH238449   5.189   2.032   1.121 -0.0706 -0.2476 -0.0794
 5605TIP3    H138450   5.254   2.100   1.100  0.2028 -0.1533  0.9929
 5605TIP3    H238451   5.238   1.950   1.118  0.1139 -0.1768  0.7254
 5606TIP3   OH238452   0.893   0.042   7.161  0.1661  0.8156  0.1246
 5606TIP3    H138453   0.884   0.070   7.070  1.6259  0.6786 -0.0970
 5606TIP3    H238454   0.806   0.013   7.187 -0.2279  0.6727 -1.2954
 5607TIP3   OH238455   1.484   1.401   7.853  0.2519  0.7410 -0.7091
 5607TIP3    H138456   1.555   1.462   7.869 -0.2522  1.0804  0.2951
 5607TIP3    H238457   1.492   1.335   7.921  0.6511 -0.2003 -1.6461
 5608TIP3   OH238458   0.780   0.935   0.846 -0.0440 -0.4701 -0.4835
 5608TIP3    H138459   0.836   1.010   0.825  0.0546 -0.7072 -1.0617
 5608TIP3    H238460   0.840   0.863   0.863 -0.1315 -0.3753  0.2843
 5609TIP3   OH238461   4.584   6.366   1.231  0.5866  0.1817 -0.0057
 5609TIP3    H138462   4.572   6.273   1.251  1.0817  0.0838 -0.1577
 5609TIP3    H238463   4.678   6.381   1.241  1.1749 -0.2105 -3.5353
 5610TIP3   OH238464   1.522   1.691   0.092  0.2508  0.0143 -0.7418
 5610TIP3    H138465   1.565   1.719   0.173  1.4104  0.5741 -1.5281
 5610TIP3    H238466   1.558   1.604   0.074 -0.5908 -0.4517 -0.2678
 5611TIP3   OH238467   4.704   6.029   7.640 -0.0337  0.2095 -0.0769
 5611TIP3    H138468   4.679   6.001   7.552  0.9147 -0.2961 -0.1987
 5611TIP3    H238469   4.762   6.104   7.626  0.2794  0.0055  0.1035
 5612TIP3   OH238470   3.175   2.161   8.278  0.6659  0.3479  0.4361
 5612TIP3    H138471   3.081   2.156   8.293  0.1462  2.5672 -1.5526
 5612TIP3    H238472   3.186   2.146   8.185  2.3173  0.0954  0.6398
 5613TIP3   OH238473   5.634   2.180   7.187  0.1427 -0.2404  0.7540
 5613TIP3    H138474   5.670   2.095   7.214  1.3113  0.1790  0.5882
 5613TIP3    H238475   5.647   2.236   7.264 -0.1849 -0.0879  0.6985
 5614TIP3   OH238476   2.942   5.457   1.111 -0.7023 -0.0551  0.0829
 5614TIP3    H138477   2.908   5.534   1.065  0.2760  0.4185  0.1330
 5614TIP3    H238478   3.026   5.485   1.146 -1.0066 -0.6893  1.3985
 5615TIP3   OH238479   1.494   3.523   0.622 -0.3643  0.0839  0.0853
 5615TIP3    H138480   1.470   3.468   0.696  1.2127 -2.2578 -1.0250
 5615TIP3    H238481   1.413   3.567   0.597 -1.8399 -2.0951  0.7697
 5616TIP3   OH238482   2.021   3.946   6.670  0.2101  0.7893 -0.0820
 5616TIP3    H138483   1.996   3.874   6.612 -0.5235  0.4361  0.6344
 5616TIP3    H238484   2.007   4.025   6.618 -0.2764  0.4705 -0.4486
 5617TIP3   OH238485   1.445   0.408   6.886  0.1834 -0.4245 -0.7785
 5617TIP3    H138486   1.406   0.496   6.884 -2.5253 -1.5502 -1.1823
 5617TIP3    H238487   1.431   0.374   6.797  0.2852 -1.6448 -0.3428
 5618TIP3   OH238488   1.904   1.080   1.614  0.3197 -0.0692  0.6053
 5618TIP3    H138489   1.864   1.019   1.676  0.5938  1.5169  2.4088
 5618TIP3    H238490   1.984   1.036   1.586 -1.1221 -1.9978 -0.8201
 5619TIP3   OH238491   5.046   2.894   8.524 -0.4764 -0.3591 -0.0072
 5619TIP3    H138492   4.982   2.965   8.530  0.0926  0.2408 -0.7375
 5619TIP3    H238493   5.129   2.939   8.507 -0.4976 -1.2592 -3.2448
 5620TIP3   OH238494   0.610   4.271   2.137  0.2469 -0.1689  0.5900
 5620TIP3    H138495   0.675   4.321   2.187  0.1890  0.0186  0.4790
 5620TIP3    H238496   0.584   4.329   2.066  0.3988 -0.4719  0.2813
 5621TIP3   OH238497   3.028   0.239   0.746 -0.2717 -0.1482 -0.2571
 5621TIP3    H138498   2.953   0.257   0.803  1.0674  1.1768  1.2084
 5621TIP3    H238499   3.037   0.317   0.692  0.2616 -0.1224 -0.1402
 5622TIP3   OH238500   6.688   6.480   1.826  0.1269 -0.8165 -0.1333
 5622TIP3    H138501   6.644   6.530   1.895 -0.7548  0.4629 -1.5607
 5622TIP3    H238502   6.766   6.445   1.868  0.1166  0.7236  1.2713
 5623TIP3   OH238503   4.648   4.229   8.733  0.0935 -0.3372  0.2705
 5623TIP3    H138504   4.656   4.140   8.767 -0.6244 -0.2631  0.6618
 5623TIP3    H238505   4.733   4.269   8.752  0.4903 -0.9967 -0.0948
 5624TIP3   OH238506   6.413   0.331   0.615 -0.3917  0.1806 -0.1835
 5624TIP3    H138507   6.350   0.290   0.674 -0.2281 -0.0106 -0.1395
 5624TIP3    H238508   6.369   0.331   0.530  0.5346 -2.3592 -0.7453
 5625TIP3   OH238509   4.414   3.504   8.695  0.3587  0.3928 -0.1117
 5625TIP3    H138510   4.416   3.485   8.601 -0.8647  1.3450 -0.3579
 5625TIP3    H238511   4.472   3.439   8.734 -0.3874 -1.0665 -1.3389
 5626TIP3   OH238512   5.048   5.072   0.788 -0.0223  0.2139 -0.0899
 5626TIP3    H138513   5.024   5.085   0.880  0.2560  1.0567 -0.1274
 5626TIP3    H238514   5.060   4.978   0.779  2.5260  0.3123  1.4128
 5627TIP3   OH238515   2.318   4.871   6.282 -0.1417 -0.5616 -0.1538
 5627TIP3    H138516   2.410   4.865   6.308  0.3854 -0.3925 -1.8656
 5627TIP3    H238517   2.319   4.920   6.200 -1.3831 -3.3066 -1.9575
 5628TIP3   OH238518   4.629   1.508   0.638  0.0598 -0.1317  0.4071
 5628TIP3    H138519   4.646   1.556   0.557  0.0395  0.4592  0.7470
 5628TIP3    H238520   4.593   1.573   0.698  0.2628 -0.5162  0.9589
 5629TIP3   OH238521   3.123   1.285   6.808 -0.0521  0.1975  0.5073
 5629TIP3    H138522   3.202   1.288   6.753  0.0977  1.3399  0.7611
 5629TIP3    H238523   3.051   1.287   6.746  0.1180  0.1488  0.3064
 5630TIP3   OH238524   2.879   2.742   6.775  0.0436  0.3757  0.1543
 5630TIP3    H138525   2.787   2.755   6.752 -0.5681 -2.5304  0.5850
 5630TIP3    H238526   2.927   2.756   6.693 -1.0299 -0.2343 -0.5961
 5631TIP3   OH238527   3.815   1.337   8.648  0.0700  0.2236  0.1947
 5631TIP3    H138528   3.728   1.371   8.668 -0.1812 -0.6951  0.7117
 5631TIP3    H238529   3.821   1.340   8.552 -1.1083 -1.0583  0.0571
 5632TIP3   OH238530   1.528   4.130   0.770  0.1158 -0.2791 -0.3236
 5632TIP3    H138531   1.562   4.218   0.752 -1.4056  0.4199 -0.0433
 5632TIP3    H238532   1.557   4.111   0.859 -0.5605  0.5084  0.0930
 5633TIP3   OH238533   5.479   3.940   8.047  0.4951  0.6405 -0.7933
 5633TIP3    H138534   5.416   3.916   7.979  2.4675  0.9304 -2.8191
 5633TIP3    H238535   5.560   3.896   8.022  1.3733  0.9742  1.2585
 5634TIP3   OH238536   3.393   0.656   1.078 -0.1464  0.0610 -0.7213
 5634TIP3    H138537   3.419   0.682   1.166 -2.3027  1.7220 -0.4934
 5634TIP3    H238538   3.459   0.592   1.051  1.1955  0.3510  1.6399
 5635TIP3   OH238539   5.398   1.891   8.800 -0.1852 -0.4418 -0.6081
 5635TIP3    H138540   5.414   1.824   8.734  1.0433 -0.9029  0.1250
 5635TIP3    H238541   5.359   1.843   8.873  2.8486 -0.8803  0.8581
 5636TIP3   OH238542   4.710   6.775   1.647 -0.0496  0.0812 -0.2023
 5636TIP3    H138543   4.631   6.829   1.656  1.2304  1.9527  0.3377
 5636TIP3    H238544   4.751   6.779   1.733  0.6873 -0.8315 -0.4979
 5637TIP3   OH238545   4.246   1.513   6.542  0.1493 -0.0243 -0.2889
 5637TIP3    H138546   4.337   1.513   6.515  0.1709  0.5327 -0.2273
 5637TIP3    H238547   4.240   1.444   6.608  0.1774 -1.1481 -1.4234
 5638TIP3   OH238548   6.333   5.270   7.789 -0.0700  0.7358  0.0538
 5638TIP3    H138549   6.312   5.221   7.868  2.1433 -1.4852 -0.6105
 5638TIP3    H238550   6.262   5.250   7.728 -0.1084 -0.2243  0.4059
 5639TIP3   OH238551   1.655   6.239   8.318  0.5098  0.2524  0.3046
 5639TIP3    H138552   1.560   6.231   8.327  0.4555  0.3743 -0.1752
 5639TIP3    H238553   1.682   6.159   8.275  0.6900 -0.0002  0.8709
 5640TIP3   OH238554   5.618   5.204   0.073 -0.6741 -0.1003 -0.0531
 5640TIP3    H138555   5.704   5.173   0.102 -0.5172 -0.9177 -1.3060
 5640TIP3    H238556   5.567   5.124   0.062 -1.3772  0.3352 -0.0238
 5641TIP3   OH238557   6.448   4.880   6.905 -0.6059  0.0690 -0.0196
 5641TIP3    H138558   6.363   4.912   6.875 -0.3282  2.9607  1.9595
 5641TIP3    H238559   6.431   4.848   6.994  0.3700  0.6996  0.4000
 5642TIP3   OH238560   6.743   1.751   0.431  0.3130  0.2923  0.0618
 5642TIP3    H138561   6.804   1.819   0.462 -1.2258  1.2243  1.1619
 5642TIP3    H238562   6.667   1.760   0.487 -1.3742 -0.0008 -2.0631
 5643TIP3   OH238563   3.419   6.317   7.449  0.6657  0.2130  0.4098
 5643TIP3    H138564   3.384   6.386   7.505  0.4947  0.4539  0.0074
 5643TIP3    H238565   3.438   6.244   7.509  0.2504  0.3768  0.7405
 5644TIP3   OH238566   4.938   6.202   6.921  0.6024 -0.4132  0.3011
 5644TIP3    H138567   4.916   6.176   6.831 -0.3600 -0.4936  0.5479
 5644TIP3    H238568   5.032   6.185   6.928  0.8382  0.2171 -0.9034
 5645TIP3   OH238569   0.860   3.022   6.334 -0.1363 -0.0734 -0.4309
 5645TIP3    H138570   0.954   3.031   6.352 -0.1942 -2.1275  1.2332
 5645TIP3    H238571   0.842   3.088   6.268  2.1505  1.4928  0.3946
 5646TIP3   OH238572   5.704   5.425   8.761 -0.2525 -0.9104  0.2859
 5646TIP3    H138573   5.665   5.375   8.832 -0.8474  1.2580  1.5832
 5646TIP3    H238574   5.643   5.414   8.688 -2.5785  1.1307  1.8003
 5647TIP3   OH238575   2.351   3.948   6.799 -0.1796  0.5101 -0.5052
 5647TIP3    H138576   2.316   3.983   6.717  2.8188  1.7957 -1.3879
 5647TIP3    H238577   2.427   3.897   6.773 -0.8878 -1.6550  1.3112
 5648TIP3   OH238578   5.707   6.222   8.102  0.1236 -0.5388 -0.5152
 5648TIP3    H138579   5.681   6.147   8.156 -0.2111  0.0609  0.1722
 5648TIP3    H238580   5.628   6.242   8.051 -0.9514  1.4214  1.7325
 5649TIP3   OH238581   4.991   4.027   1.513  0.4628  0.3261 -0.3758
 5649TIP3    H138582   4.926   3.964   1.543 -1.1894  1.7950 -0.6500
 5649TIP3    H238583   5.058   4.028   1.581  0.3992 -1.4894 -0.2452
 5650TIP3   OH238584   1.734   1.407   6.930  0.6645  0.2822 -0.0171
 5650TIP3    H138585   1.829   1.407   6.918  0.6956  0.1999  0.2275
 5650TIP3    H238586   1.699   1.372   6.848  0.7846  1.5435 -0.6362
 5651TIP3   OH238587   2.436   0.786   0.059 -0.7253 -0.3076 -0.4918
 5651TIP3    H138588   2.460   0.856  -0.000  0.7712 -0.8638 -0.5981
 5651TIP3    H238589   2.509   0.781   0.121 -1.3919 -0.9487  0.2691
 5652TIP3   OH238590   6.831   4.480   7.894  0.2644 -0.1861  0.0802
 5652TIP3    H138591   6.849   4.568   7.925  0.9858 -0.1539 -0.4069
 5652TIP3    H238592   6.852   4.482   7.800  1.3606 -1.1515  0.2780
 5653TIP3   OH238593   6.256   4.167   7.113 -0.4551  0.0338 -0.0892
 5653TIP3    H138594   6.249   4.245   7.059 -1.7260 -0.4323 -0.6616
 5653TIP3    H238595   6.193   4.106   7.074  1.9365 -2.0418 -0.9417
 5654TIP3   OH238596   3.249   4.579   1.537 -0.0546  0.5623 -0.5108
 5654TIP3    H138597   3.168   4.535   1.511 -1.4160  1.4224  1.9788
 5654TIP3    H238598   3.257   4.652   1.476 -0.7432  0.0371 -1.2442
 5655TIP3   OH238599   2.428   6.860   2.110  0.1695 -0.3375 -0.1263
 5655TIP3    H138600   2.383   6.827   2.187 -1.8689  2.1450 -0.1323
 5655TIP3    H238601   2.521   6.856   2.133 -0.3069 -0.8903  1.9014
 5656TIP3   OH238602   4.344   3.300   2.145  0.6363 -0.0161  0.1824
 5656TIP3    H138603   4.359   3.393   2.127 -0.0845 -0.2294 -1.6853
 5656TIP3    H238604   4.253   3.285   2.120 -0.8497 -0.2878  4.7361
 5657TIP3   OH238605   6.137   0.483   0.474  0.0266 -0.3398 -0.3389
 5657TIP3    H138606   6.063   0.509   0.420 -0.5714  0.0406  0.6350
 5657TIP3    H238607   6.206   0.459   0.412  1.0520  4.4477 -1.5022
 5658TIP3   OH238608   6.077   2.065   0.182 -0.2538  0.1210  0.6725
 5658TIP3    H138609   6.161   2.028   0.209 -0.6785 -0.6496  0.9867
 5658TIP3    H238610   6.067   2.143   0.236 -0.0645 -0.1830  1.1566
 5659TIP3   OH238611   3.194   0.190   6.407  0.2976  0.6417  0.4244
 5659TIP3    H138612   3.135   0.228   6.341 -0.6318  0.6813  1.2545
 5659TIP3    H238613   3.215   0.103   6.373  1.0878  1.2313 -0.6721
 5660TIP3   OH238614   5.497   2.518   6.874 -0.3483 -0.3676 -0.0962
 5660TIP3    H138615   5.466   2.431   6.849  0.4354 -0.2675 -1.5308
 5660TIP3    H238616   5.569   2.501   6.934 -1.0539 -0.6657  0.6853
 5661TIP3   OH238617   3.008   2.881   1.063 -0.2754  0.1097 -0.2044
 5661TIP3    H138618   3.028   2.807   1.005 -2.3920 -0.5969 -0.1340
 5661TIP3    H238619   2.930   2.853   1.111 -1.7107  2.7470 -0.8363
 5662TIP3   OH238620   2.174   3.650   7.934 -0.0394 -0.1308 -0.3667
 5662TIP3    H138621   2.083   3.636   7.961  0.5101 -0.3525  1.4732
 5662TIP3    H238622   2.191   3.743   7.953 -0.3722  0.4173 -2.4052
 5663TIP3   OH238623   1.578   1.494   8.266 -0.3327 -0.2111 -0.0229
 5663TIP3    H138624   1.586   1.589   8.265 -1.3340 -0.1164 -1.3874
 5663TIP3    H238625   1.563   1.470   8.175  0.2069 -1.7194  0.2485
 5664TIP3   OH238626   4.967   5.322   1.398 -0.1374 -0.1276  0.0248
 5664TIP3    H138627   4.882   5.339   1.438 -0.0637 -1.1800  0.6498
 5664TIP3    H238628   5.012   5.407   1.401 -1.3930  0.6000 -0.9113
 5665TIP3   OH238629   6.617   1.313   6.762 -0.0298  0.5562  0.1098
 5665TIP3    H138630   6.637   1.377   6.831 -1.7634  0.5228  0.7088
 5665TIP3    H238631   6.551   1.357   6.708  0.6195  0.2175 -0.9782
 5666TIP3   OH238632   3.076   0.449   1.415  0.0977 -0.5030 -0.2012
 5666TIP3    H138633   2.990   0.475   1.448 -0.1555 -0.9308 -0.5109
 5666TIP3    H238634   3.129   0.528   1.420 -0.5132 -0.0540 -0.6641
 5667TIP3   OH238635   0.636   2.654   7.025 -0.1697  0.3234 -0.5829
 5667TIP3    H138636   0.613   2.638   6.933 -1.1357  0.4050 -0.3650
 5667TIP3    H238637   0.642   2.749   7.032 -0.3579  0.3306 -0.5058
 5668TIP3   OH238638   1.447   5.850   0.858 -0.2474  0.0503  0.4387
 5668TIP3    H138639   1.430   5.810   0.944  1.1266 -0.5658  0.4513
 5668TIP3    H238640   1.541   5.868   0.858 -0.3099  0.4810 -0.7674
 5669TIP3   OH238641   6.427   4.560   0.210 -0.6878  0.0414  0.1758
 5669TIP3    H138642   6.334   4.541   0.225 -0.8107 -0.6348 -1.2161
 5669TIP3    H238643   6.427   4.621   0.136 -0.0348  0.2049  0.3061
 5670TIP3   OH238644   3.110   0.437   7.460  0.3474  0.2614 -0.4199
 5670TIP3    H138645   3.177   0.481   7.408  1.2657  1.0035  1.2764
 5670TIP3    H238646   3.132   0.460   7.551 -1.7992 -0.0869  0.2378
 5671TIP3   OH238647   4.274   2.778   1.153  0.3417 -0.1434 -0.2125
 5671TIP3    H138648   4.186   2.779   1.115 -0.4709  0.7059  1.5761
 5671TIP3    H238649   4.312   2.862   1.127  0.0330  0.1575  0.3026
 5672TIP3   OH238650   4.995   1.824   1.439  0.0710  0.1506  0.1900
 5672TIP3    H138651   4.978   1.829   1.534  0.3705  0.9369  0.2065
 5672TIP3    H238652   5.090   1.831   1.431 -0.0987  3.1795 -0.3215
 5673TIP3   OH238653   1.873   3.777   0.060 -0.4978 -0.2184 -0.1394
 5673TIP3    H138654   1.923   3.770  -0.021  0.9460 -1.3419  0.7982
 5673TIP3    H238655   1.893   3.864   0.094 -0.8865  0.1493 -0.8332
 5674TIP3   OH238656   5.851   3.408   1.121 -0.3157 -0.4121  0.3852
 5674TIP3    H138657   5.944   3.429   1.134 -0.7371  1.0435  1.1697
 5674TIP3    H238658   5.853   3.332   1.063  1.3404  0.7442 -1.2041
 5675TIP3   OH238659   4.291   6.185   2.121  0.4781  0.0548 -0.6018
 5675TIP3    H138660   4.284   6.195   2.216 -0.6947 -0.9666 -0.5587
 5675TIP3    H238661   4.344   6.107   2.109  0.0743 -0.1959 -0.7751
 5676TIP3   OH238662   5.486   3.148   7.731  0.5026  0.1441  0.4946
 5676TIP3    H138663   5.475   3.119   7.822  0.6400 -1.1297  0.1263
 5676TIP3    H238664   5.540   3.079   7.691  0.3031  0.6091 -0.5891
 5677TIP3   OH238665   1.375   1.248   1.050 -0.3196  0.2120 -0.2282
 5677TIP3    H138666   1.287   1.260   1.085 -1.3539 -0.8491 -2.2475
 5677TIP3    H238667   1.428   1.221   1.125 -1.5536  1.4394  1.1414
 5678TIP3   OH238668   5.791   4.170   1.579 -0.3361  1.0077  0.3526
 5678TIP3    H138669   5.700   4.161   1.550 -0.6693 -0.2540  1.6873
 5678TIP3    H238670   5.796   4.117   1.659  2.4811 -2.1569 -1.6454
 5679TIP3   OH238671   3.903   1.682   8.633  0.5693  0.1476  0.0729
 5679TIP3    H138672   3.844   1.688   8.708 -2.8000 -0.0781 -2.3448
 5679TIP3    H238673   3.936   1.771   8.620  0.6296  0.3258  1.3156
 5680TIP3   OH238674   6.678   2.640   7.201  0.6340  0.5310 -0.6929
 5680TIP3    H138675   6.685   2.596   7.117  1.9611  0.6785 -0.6884
 5680TIP3    H238676   6.702   2.731   7.183  3.6913  0.0506  0.2233
 5681TIP3   OH238677   5.965   5.576   0.803 -0.1388  0.1884 -0.2210
 5681TIP3    H138678   5.886   5.617   0.837 -0.3710  0.2412 -0.8052
 5681TIP3    H238679   6.036   5.636   0.824 -0.1842 -0.0549  0.6804
 5682TIP3   OH238680   1.352   3.794   1.370  0.5991 -0.4012 -0.2407
 5682TIP3    H138681   1.386   3.712   1.334  1.0599 -0.5751  0.5524
 5682TIP3    H238682   1.302   3.833   1.298  0.8448 -1.1009 -0.8087
 5683TIP3   OH238683   2.125   0.154   7.388  0.3496 -0.0390 -0.1695
 5683TIP3    H138684   2.140   0.063   7.361  0.1001 -0.2051  0.2399
 5683TIP3    H238685   2.067   0.189   7.320 -1.1850 -0.7869  0.6902
 5684TIP3   OH238686   4.262   3.549   2.613 -0.2171  0.2894 -0.5773
 5684TIP3    H138687   4.287   3.470   2.567  1.3995 -0.6242  1.6739
 5684TIP3    H238688   4.343   3.599   2.622 -0.4161  0.3487  1.3133
 5685TIP3   OH238689   3.953   6.385   0.558  0.0124 -0.1275  0.5295
 5685TIP3    H138690   3.893   6.455   0.532  0.4208 -0.4761 -1.4998
 5685TIP3    H238691   4.038   6.413   0.526  0.4812 -0.8251  1.1324
 5686TIP3   OH238692   1.754   1.814   0.911  0.2233 -0.0493 -0.1675
 5686TIP3    H138693   1.760   1.776   0.999 -0.2619 -0.4907 -0.3217
 5686TIP3    H238694   1.753   1.738   0.852 -0.7729  0.1951 -0.4823
 5687TIP3   OH238695   2.524   2.457   8.170  0.2188  0.0678 -0.3027
 5687TIP3    H138696   2.430   2.477   8.169 -0.0064 -0.9358 -0.4469
 5687TIP3    H238697   2.538   2.408   8.089  1.0388  0.9101 -0.6874
 5688TIP3   OH238698   5.195   3.775   0.885 -0.7111 -0.0544 -0.4623
 5688TIP3    H138699   5.276   3.726   0.877 -0.8581 -0.1704 -1.2775
 5688TIP3    H238700   5.222   3.867   0.884 -0.4529 -0.0932  0.8967
 5689TIP3   OH238701   3.862   3.995   6.915  0.0741  0.0270 -0.4709
 5689TIP3    H138702   3.792   4.016   6.977  1.5205 -0.4077  1.3800
 5689TIP3    H238703   3.929   3.952   6.968  0.4867 -2.3533 -2.7119
 5690TIP3   OH238704   4.759   1.142   0.667 -0.1672  0.3896 -0.6312
 5690TIP3    H138705   4.717   1.060   0.642 -0.2695  0.7033 -1.5203
 5690TIP3    H238706   4.690   1.194   0.708  0.4374 -0.8825  2.1991
 5691TIP3   OH238707   6.704   0.397   6.869 -0.2754  0.3097  0.2900
 5691TIP3    H138708   6.698   0.322   6.810  0.0483 -0.5429  1.3088
 5691TIP3    H238709   6.653   0.372   6.945  0.7493  0.6531  1.1167
 5692TIP3   OH238710   2.624   1.353   1.578 -0.6589  0.4177  0.7582
 5692TIP3    H138711   2.703   1.300   1.576 -0.6081  0.4959  0.6799
 5692TIP3    H238712   2.591   1.344   1.668 -0.5059  0.4656  0.8188
 5693TIP3   OH238713   2.722   2.754   0.098 -0.3945  0.9178 -0.8605
 5693TIP3    H138714   2.661   2.711   0.039  0.9992 -0.2470 -1.5086
 5693TIP3    H238715   2.677   2.755   0.183 -0.9293 -0.7975 -1.0880
 5694TIP3   OH238716   3.081   3.563   1.263  0.8464 -0.3382  0.1732
 5694TIP3    H138717   3.151   3.551   1.200  1.8388 -0.8336  1.3231
 5694TIP3    H238718   3.071   3.477   1.305 -0.5972 -0.3325 -0.1057
 5695TIP3   OH238719   1.821   2.499   0.141 -0.1440 -0.1160  0.1655
 5695TIP3    H138720   1.734   2.459   0.141 -1.0406  1.6875 -1.1075
 5695TIP3    H238721   1.853   2.486   0.230 -3.0261  1.8026  1.6382
 5696TIP3   OH238722   6.432   1.796   7.629 -0.7409  0.6002 -0.3050
 5696TIP3    H138723   6.434   1.879   7.581  0.5323  1.2783  0.8334
 5696TIP3    H238724   6.492   1.739   7.581  0.2055  1.1418  0.1818
 5697TIP3   OH238725   0.817   2.677   7.301  0.6246 -0.0413 -0.2683
 5697TIP3    H138726   0.815   2.771   7.282  2.6166  0.0051 -0.5387
 5697TIP3    H238727   0.865   2.672   7.384 -1.1623 -0.7383  0.7772
 5698TIP3   OH238728   2.566   4.033   1.434 -0.1938  0.2693 -0.0135
 5698TIP3    H138729   2.484   4.083   1.439  0.3857  1.2412  0.2306
 5698TIP3    H238730   2.611   4.070   1.358  0.2241  0.0691  0.1359
 5699TIP3   OH238731   3.058   0.105   8.394  0.0731 -0.2444  0.0561
 5699TIP3    H138732   3.152   0.125   8.393  0.3335 -1.2922  0.7967
 5699TIP3    H238733   3.052   0.028   8.451 -0.9240 -1.7401 -1.9545
 5700TIP3   OH238734   3.037   2.426   6.151  0.0018  0.2308 -0.5929
 5700TIP3    H138735   3.126   2.391   6.149  0.1207  0.5799 -1.5531
 5700TIP3    H238736   2.987   2.359   6.199  0.2299 -1.2976 -2.3799
 5701TIP3   OH238737   0.361   4.212   0.566 -0.2727  0.4771 -0.5796
 5701TIP3    H138738   0.305   4.134   0.561  0.7953 -0.3326 -0.2935
 5701TIP3    H238739   0.354   4.252   0.480 -0.7022 -0.0293 -0.7870
 5702TIP3   OH238740   4.629   2.747   1.029  0.1792  0.2872 -0.2501
 5702TIP3    H138741   4.671   2.727   0.945 -1.3724 -1.3067 -0.7113
 5702TIP3    H238742   4.584   2.666   1.053  0.1888  0.8565  1.9055
 5703TIP3   OH238743   1.670   5.302   8.089  0.6194 -0.3209 -0.4187
 5703TIP3    H138744   1.682   5.208   8.073  1.2710 -0.4152  0.5244
 5703TIP3    H238745   1.684   5.343   8.004  0.0174 -1.1029 -0.9038
 5704TIP3   OH238746   3.893   4.886   8.016 -0.9970 -0.4395 -0.2316
 5704TIP3    H138747   3.951   4.812   8.001  0.9195  0.6803  1.0795
 5704TIP3    H238748   3.846   4.897   7.934 -0.3906 -2.2865 -0.8764
 5705TIP3   OH238749   4.555   1.364   8.386 -0.1368  0.2870  0.0557
 5705TIP3    H138750   4.647   1.342   8.396 -0.4122 -1.2490 -0.4509
 5705TIP3    H238751   4.554   1.458   8.367  1.1412  0.8155  2.3116
 5706TIP3   OH238752   2.478   4.584   7.170  0.5476  0.0057 -0.1431
 5706TIP3    H138753   2.468   4.489   7.173  0.8780 -0.0357 -0.3269
 5706TIP3    H238754   2.553   4.598   7.113  0.1857  0.3983 -0.5253
 5707TIP3   OH238755   5.755   6.100   0.807  0.0119  0.8532 -0.1415
 5707TIP3    H138756   5.668   6.068   0.830  0.1523 -0.4635 -1.3147
 5707TIP3    H238757   5.815   6.047   0.860  0.2239 -0.6193 -1.7680
 5708TIP3   OH238758   6.653   2.964   6.466  0.5453 -0.2200 -0.3071
 5708TIP3    H138759   6.692   3.050   6.477  0.1017  0.2543 -2.0093
 5708TIP3    H238760   6.594   2.953   6.540 -1.3002  2.0640 -1.3123
 5709TIP3   OH238761   0.593   3.621   0.279 -0.2635  0.3993  0.3760
 5709TIP3    H138762   0.628   3.629   0.367 -2.8481  3.3406  1.3273
 5709TIP3    H238763   0.498   3.622   0.291 -0.7886 -1.9640 -2.3339
 5710TIP3   OH238764   6.619   0.490   7.870  0.3789 -0.2499 -0.3980
 5710TIP3    H138765   6.697   0.512   7.921  0.0003  0.1238  0.0274
 5710TIP3    H238766   6.548   0.487   7.934  0.3504 -2.5346 -0.4382
 5711TIP3   OH238767   4.316   0.566   0.180  0.4116 -0.7796  0.0891
 5711TIP3    H138768   4.371   0.563   0.101 -0.9300  2.9374 -1.2512
 5711TIP3    H238769   4.309   0.660   0.200  0.2686 -1.5103  4.4535
 5712TIP3   OH238770   5.523   2.562   6.596 -0.6236 -0.3643  0.4309
 5712TIP3    H138771   5.535   2.657   6.598 -0.9828 -0.3203  1.1183
 5712TIP3    H238772   5.527   2.536   6.688 -2.1969 -0.7887  0.4124
 5713TIP3   OH238773   4.506   3.625   0.386  0.1073  0.0997  0.7839
 5713TIP3    H138774   4.429   3.643   0.440 -0.1712 -1.9700  1.1334
 5713TIP3    H238775   4.580   3.652   0.440 -0.2906  0.7606  1.0136
 5714TIP3   OH238776   4.014   6.584   8.257 -0.0937 -0.2424 -0.2758
 5714TIP3    H138777   4.007   6.523   8.331  0.1860  1.2048  0.9871
 5714TIP3    H238778   3.956   6.547   8.190 -1.4676 -0.8468  1.1888
 5715TIP3   OH238779   3.661   0.617   7.133 -0.0787 -0.2225  0.1919
 5715TIP3    H138780   3.584   0.601   7.080 -0.3738  0.6979  0.3215
 5715TIP3    H238781   3.658   0.550   7.201 -0.0699 -0.9764 -0.5311
 5716TIP3   OH238782   6.123   4.330   0.788 -0.3835 -0.1888 -0.2901
 5716TIP3    H138783   6.098   4.246   0.827  1.3176  0.2339  1.9518
 5716TIP3    H238784   6.124   4.391   0.862 -0.6923  1.6089 -1.7076
 5717TIP3   OH238785   0.243   5.619   8.011  0.4819 -0.8860  0.4679
 5717TIP3    H138786   0.233   5.626   7.916  0.5056 -0.2316  0.5081
 5717TIP3    H238787   0.174   5.675   8.046  1.6856  0.4520  0.8056
 5718TIP3   OH238788   5.564   3.379   2.338 -0.0567  0.1534 -0.2382
 5718TIP3    H138789   5.490   3.387   2.398  0.4826  0.4848  0.3952
 5718TIP3    H238790   5.635   3.344   2.392  0.5992  0.9847 -0.5433
 5719TIP3   OH238791   2.979   3.934   1.496  0.4097 -0.0357 -0.7586
 5719TIP3    H138792   3.024   3.850   1.499  0.1603 -0.1615 -0.5561
 5719TIP3    H238793   2.910   3.927   1.562  0.5912  0.4399 -0.5114
 5720TIP3   OH238794   2.841   6.461   8.087 -0.1897 -0.6672 -0.0963
 5720TIP3    H138795   2.887   6.419   8.015  0.1304 -2.0298  0.8588
 5720TIP3    H238796   2.852   6.401   8.161 -2.0336 -0.1942  0.6188
 5721TIP3   OH238797   1.693   3.696   1.142  0.7132 -0.2491 -0.0612
 5721TIP3    H138798   1.647   3.623   1.102 -0.0626 -0.1740  0.6743
 5721TIP3    H238799   1.711   3.667   1.231  2.2506 -0.3401 -0.3747
 5722TIP3   OH238800   5.254   3.472   0.238  0.2518 -0.2439  0.3406
 5722TIP3    H138801   5.333   3.519   0.265  0.6628 -0.8589  0.2288
 5722TIP3    H238802   5.200   3.469   0.317  0.4538 -0.0372  0.4874
 5723TIP3   OH238803   1.789   0.853   0.918 -0.2020 -0.6807  0.2002
 5723TIP3    H138804   1.766   0.830   1.008  0.3563  1.2929  0.9020
 5723TIP3    H238805   1.854   0.923   0.926  2.4431 -2.6957 -1.7448
 5724TIP3   OH238806   4.188   6.810   1.808  0.6779  0.0081  0.1991
 5724TIP3    H138807   4.128   6.736   1.814  0.2517  0.3400 -0.0019
 5724TIP3    H238808   4.220   6.821   1.898  1.6342 -1.1467  0.0381
 5725TIP3   OH238809   2.543   4.112   2.185  0.1322  0.3602  0.4946
 5725TIP3    H138810   2.460   4.156   2.167 -0.2490 -0.2252  0.8028
 5725TIP3    H238811   2.537   4.085   2.276  0.8971  0.8084  0.6846
 5726TIP3   OH238812   3.562   3.105   0.329  0.5171 -0.1129  0.0383
 5726TIP3    H138813   3.535   3.075   0.242 -0.7356 -0.3098  0.4753
 5726TIP3    H238814   3.602   3.028   0.369  0.3348 -0.2541 -0.0517
 5727TIP3   OH238815   3.985   1.052   0.655 -0.3487  0.0077 -0.0649
 5727TIP3    H138816   3.945   0.998   0.723  0.5119 -1.5943 -0.7771
 5727TIP3    H238817   4.034   1.119   0.702 -1.7193  0.4105  0.8339
 5728TIP3   OH238818   6.418   2.623   7.590 -0.0160  0.3266 -0.4057
 5728TIP3    H138819   6.482   2.610   7.519  1.4624  0.1824  0.9006
 5728TIP3    H238820   6.334   2.596   7.551  0.6865  0.5381 -2.1808
 5729TIP3   OH238821   2.244   2.106   0.562 -0.0718 -0.4709 -0.4216
 5729TIP3    H138822   2.248   2.035   0.498 -0.9094 -1.2824  0.3976
 5729TIP3    H238823   2.333   2.141   0.565 -0.1487  0.0156 -2.4687
 5730TIP3   OH238824   1.390   0.415   1.740 -0.3778  0.1182  1.2554
 5730TIP3    H138825   1.320   0.351   1.747  1.4203 -2.3430 -0.8727
 5730TIP3    H238826   1.348   0.494   1.708 -2.2721 -1.0154  0.7987
 5731TIP3   OH238827   6.783   5.022   0.049 -0.0507  0.4590 -0.4423
 5731TIP3    H138828   6.852   5.084   0.073  0.2574  0.0863 -0.3553
 5731TIP3    H238829   6.768   4.972   0.129 -0.0944  0.2265 -0.5967
 5732TIP3   OH238830   6.534   5.222   1.285  0.4285 -0.2334  0.2453
 5732TIP3    H138831   6.568   5.280   1.354 -1.2974 -0.0767  1.0127
 5732TIP3    H238832   6.440   5.217   1.302  0.2963 -1.9800 -0.7951
 5733TIP3   OH238833   6.439   6.587   0.418 -0.6592  0.0852  0.0885
 5733TIP3    H138834   6.361   6.584   0.473 -0.5209 -0.2112  0.2717
 5733TIP3    H238835   6.483   6.503   0.434 -0.9165 -0.2544 -0.9154
 5734TIP3   OH238836   6.171   5.509   1.522 -0.0200 -0.0439 -0.4228
 5734TIP3    H138837   6.102   5.446   1.543 -0.4516  0.7939  0.7250
 5734TIP3    H238838   6.212   5.530   1.606  1.9414 -0.8247 -1.1105
 5735TIP3   OH238839   1.848   5.117   7.937 -0.2082  0.0194  0.5855
 5735TIP3    H138840   1.854   5.047   8.002 -1.0968 -2.5584 -1.8984
 5735TIP3    H238841   1.926   5.106   7.883 -1.2131 -0.2644 -0.8721
 5736TIP3   OH238842   3.649   5.389   0.003 -0.3096 -0.5631 -0.2209
 5736TIP3    H138843   3.657   5.402   0.097 -1.3128 -0.2116 -0.1778
 5736TIP3    H238844   3.597   5.309  -0.006  1.4099 -1.7070 -0.4942
 5737TIP3   OH238845   0.657   3.591   0.013  0.3385  0.2299  0.1410
 5737TIP3    H138846   0.714   3.515   0.025 -2.6822 -2.2161 -0.0551
 5737TIP3    H238847   0.625   3.612   0.100 -1.6227 -1.1010 -0.2112
 5738TIP3   OH238848   3.603   3.282   1.198  0.4355 -0.2077 -0.7860
 5738TIP3    H138849   3.611   3.377   1.192  2.3701 -0.3619 -1.1179
 5738TIP3    H238850   3.530   3.268   1.259  0.8790  1.4861  0.1797
 5739TIP3   OH238851   1.269   0.834   2.034 -0.2691 -0.1858 -0.0030
 5739TIP3    H138852   1.209   0.896   2.075  0.2168 -1.3768  2.7172
 5739TIP3    H238853   1.217   0.755   2.021 -0.2493 -0.0200 -1.2202
 5740TIP3   OH238854   1.893   4.498   7.402  0.8230 -0.4006  0.6065
 5740TIP3    H138855   1.878   4.459   7.316  2.1618  1.6549 -0.6426
 5740TIP3    H238856   1.978   4.463   7.429  0.5362 -0.8181  0.9901
 5741TIP3   OH238857   4.754   2.374   8.492  0.1293 -0.4401 -0.1973
 5741TIP3    H138858   4.708   2.388   8.575  1.7273 -0.3183  0.6916
 5741TIP3    H238859   4.809   2.297   8.507 -1.2648 -1.8839 -1.9232
 5742TIP3   OH238860   6.419   5.240   6.833  0.1801 -0.1418 -0.0457
 5742TIP3    H138861   6.424   5.233   6.738  0.7271 -1.5678  0.0604
 5742TIP3    H238862   6.326   5.223   6.853  0.4013 -1.6821 -0.2263
 5743TIP3   OH238863   4.218   0.703   7.634  0.0881 -0.1792 -0.2243
 5743TIP3    H138864   4.198   0.614   7.665  0.1342  0.0384  0.4534
 5743TIP3    H238865   4.300   0.724   7.678 -0.1773  0.3874  0.0012
 5744TIP3   OH238866   4.748   2.874   6.365  0.2258  0.2163 -0.0142
 5744TIP3    H138867   4.838   2.843   6.375 -0.6352 -1.7976  2.6871
 5744TIP3    H238868   4.744   2.954   6.416  0.1672 -0.5171  1.1666
 5745TIP3   OH238869   2.858   4.931   7.000  0.7161 -0.1795 -0.3470
 5745TIP3    H138870   2.945   4.944   6.962  0.2572 -1.4563 -1.9669
 5745TIP3    H238871   2.802   4.913   6.925 -1.0401  0.9351  0.6374
 5746TIP3   OH238872   4.044   1.426   8.798 -0.1816  0.0132  0.3872
 5746TIP3    H138873   4.039   1.331   8.807 -0.5295 -0.0526 -0.3608
 5746TIP3    H238874   3.984   1.446   8.726  1.3129  0.5917 -0.7559
 5747TIP3   OH238875   6.739   6.612   7.578  0.2592  0.2438 -0.4604
 5747TIP3    H138876   6.807   6.619   7.646 -1.4090 -0.2966  1.3514
 5747TIP3    H238877   6.736   6.519   7.556 -0.1252  0.2170 -0.2926
 5748TIP3   OH238878   4.865   1.328   1.503 -0.2662 -0.1624  0.0924
 5748TIP3    H138879   4.787   1.378   1.523 -0.0554  0.2835 -0.1800
 5748TIP3    H238880   4.898   1.298   1.587  0.3369  1.2616  0.3926
 5749TIP3   OH238881   1.493   6.584   8.040 -0.0945 -0.3043 -0.1641
 5749TIP3    H138882   1.481   6.610   7.949  0.6601 -2.9953 -1.0990
 5749TIP3    H238883   1.466   6.492   8.043  0.6052 -0.4936  2.1745
 5750TIP3   OH238884   0.250   1.948   0.631  0.2803  0.7989  0.1728
 5750TIP3    H138885   0.340   1.932   0.661 -0.0819  2.0853  2.0805
 5750TIP3    H238886   0.198   1.883   0.679 -0.2553  2.6178  2.1820
 5751TIP3   OH238887   0.834   4.978   7.036  0.4041  0.0650 -0.5298
 5751TIP3    H138888   0.920   4.984   7.078  0.2715  1.4983 -0.4099
 5751TIP3    H238889   0.775   5.023   7.097 -0.4108 -0.7601 -0.6892
 5752TIP3   OH238890   3.823   6.241   7.387  0.5682  0.0134 -0.2892
 5752TIP3    H138891   3.916   6.250   7.370  0.7115  0.3736  0.6042
 5752TIP3    H238892   3.785   6.212   7.304  1.3071  1.0270 -1.0081
 5753TIP3   OH238893   1.784   2.947   8.302 -0.0284 -0.6621  0.1618
 5753TIP3    H138894   1.789   2.936   8.207 -0.9978  0.1665  0.0005
 5753TIP3    H238895   1.864   2.994   8.325  0.2392 -0.9189 -0.2262
 5754TIP3   OH238896   3.348   4.485   8.695  0.2999  0.2096  0.3990
 5754TIP3    H138897   3.378   4.557   8.751 -1.0032  0.0682  1.3227
 5754TIP3    H238898   3.253   4.495   8.692  0.1826 -0.9443 -0.1945
 5755TIP3   OH238899   2.099   3.146   1.204 -0.3266  0.3257 -0.0751
 5755TIP3    H138900   2.169   3.151   1.139  0.6582 -2.4924  0.6433
 5755TIP3    H238901   2.041   3.077   1.171 -1.0008  0.3693  0.9616
 5756TIP3   OH238902   6.126   5.871   1.138 -0.1576 -0.6375 -0.0335
 5756TIP3    H138903   6.199   5.931   1.151  1.1021 -2.1214  0.1158
 5756TIP3    H238904   6.111   5.832   1.225 -2.1839  0.7328  0.3025
 5757TIP3   OH238905   3.413   5.953   2.022  0.0256 -0.2644  0.1538
 5757TIP3    H138906   3.323   5.937   1.991  0.2850 -0.2161 -0.6578
 5757TIP3    H238907   3.441   5.871   2.061 -0.3406 -0.3046  0.3361
 5758TIP3   OH238908   6.191   4.955   6.552 -0.4305 -0.4533 -0.4656
 5758TIP3    H138909   6.255   5.024   6.538 -2.5096  1.6333 -0.1947
 5758TIP3    H238910   6.179   4.951   6.647 -2.1676  0.6879 -0.5859
 5759TIP3   OH238911   5.710   3.416   7.839  0.4926  0.6223 -0.4392
 5759TIP3    H138912   5.763   3.476   7.892 -1.1117  1.8409 -0.1289
 5759TIP3    H238913   5.692   3.342   7.898  1.6784  0.2453 -0.5082
 5760TIP3   OH238914   5.940   2.854   0.338  0.2817  0.0087  0.3153
 5760TIP3    H138915   5.859   2.829   0.293 -0.7445  0.6900  1.7060
 5760TIP3    H238916   5.936   2.807   0.422  0.9273  0.6641  0.7220
 5761TIP3   OH238917   2.612   0.046   7.991 -0.0488  0.0054 -0.2598
 5761TIP3    H138918   2.552  -0.004   8.045  0.8294  0.3321  1.0630
 5761TIP3    H238919   2.594   0.138   8.013  2.3335  0.0938  1.8659
 5762TIP3   OH238920   1.115   2.891   0.418 -0.4473  0.1002  0.3041
 5762TIP3    H138921   1.149   2.858   0.502  0.7344  0.5923  0.0346
 5762TIP3    H238922   1.035   2.937   0.441 -1.4603 -1.8337  0.8577
 5763TIP3   OH238923   4.181   4.524   6.671  0.6063  0.3093  0.7639
 5763TIP3    H138924   4.247   4.543   6.604 -1.0057 -2.7089 -1.9681
 5763TIP3    H238925   4.213   4.444   6.713 -0.8782 -0.7714 -0.0943
 5764TIP3   OH238926   2.687   2.424   0.116  0.1086  0.3340 -0.4988
 5764TIP3    H138927   2.652   2.396   0.031 -2.5540  0.3241  0.4927
 5764TIP3    H238928   2.777   2.392   0.117 -1.0102 -3.3590 -1.6768
 5765TIP3   OH238929   1.878   4.273   0.325 -0.0751  0.1586 -0.1473
 5765TIP3    H138930   1.827   4.290   0.246  0.1049  0.1245 -0.2727
 5765TIP3    H238931   1.861   4.181   0.346  1.6744 -0.5296 -1.4816
 5766TIP3   OH238932   3.245   3.573   8.095 -0.0080 -0.5642  0.5522
 5766TIP3    H138933   3.167   3.529   8.129 -1.3505  0.3880 -1.0979
 5766TIP3    H238934   3.267   3.639   8.161 -2.5133  1.2178 -0.2367
 5767TIP3   OH238935   4.606   0.872   0.005 -0.1838 -0.3780 -0.3531
 5767TIP3    H138936   4.601   0.887  -0.089  2.7799  0.3724 -0.4781
 5767TIP3    H238937   4.559   0.946   0.044 -2.8117 -1.5067 -1.1687
 5768TIP3   OH238938   1.051   6.854   8.014  0.1279 -0.2008 -0.2980
 5768TIP3    H138939   1.098   6.860   7.930  1.2302 -0.3223  0.3012
 5768TIP3    H238940   1.058   6.942   8.051  1.0146 -0.5513  0.3877
 5769TIP3   OH238941   0.531   6.280   8.319  0.1050  0.4141  0.2808
 5769TIP3    H138942   0.573   6.265   8.234 -0.6696  1.0969 -0.2287
 5769TIP3    H238943   0.471   6.353   8.305  1.2528  1.7502  1.8610
 5770TIP3   OH238944   1.091   1.602   7.883  0.6168  0.1087 -0.5927
 5770TIP3    H138945   1.121   1.676   7.830 -0.0706  0.6867 -0.1857
 5770TIP3    H238946   1.115   1.525   7.831 -0.9871  0.6781 -2.3069
 5771TIP3   OH238947   5.587   4.750   6.964  0.3936 -0.1782  0.1391
 5771TIP3    H138948   5.543   4.745   7.049 -2.4963 -0.6494 -1.2709
 5771TIP3    H238949   5.561   4.834   6.928  1.3046 -0.1350 -0.4496
 5772TIP3   OH238950   4.951   1.620   7.953  0.5327  0.4283  0.5782
 5772TIP3    H138951   4.893   1.674   8.006  1.5861  1.2921  0.8709
 5772TIP3    H238952   5.037   1.631   7.992  0.8005 -1.3910  0.5835
 5773TIP3   OH238953   6.215   2.022   6.720 -0.6298  0.0373  0.1370
 5773TIP3    H138954   6.202   2.115   6.704  0.9444  0.2417 -0.1016
 5773TIP3    H238955   6.284   1.996   6.659 -0.3037 -1.0413  0.9262
 5774TIP3   OH238956   2.916   3.694   0.881 -0.4562 -0.1070 -0.0849
 5774TIP3    H138957   2.892   3.709   0.972 -0.4449 -1.4218  0.1552
 5774TIP3    H238958   3.005   3.658   0.884 -0.6406 -0.6274 -0.5702
 5775TIP3   OH238959   6.840   4.006   0.626 -0.1922  0.1839 -0.0104
 5775TIP3    H138960   6.773   3.972   0.568 -0.0369 -0.0463 -0.0592
 5775TIP3    H238961   6.796   4.074   0.678 -0.0465  1.1935 -1.1729
 5776TIP3   OH238962   1.424   3.539   8.592  0.5434 -0.9804  0.0964
 5776TIP3    H138963   1.385   3.464   8.546  0.0923 -1.2119  0.8335
 5776TIP3    H238964   1.517   3.520   8.595  0.4949 -1.2703 -0.1657
 5777TIP3   OH238965   2.467   4.659   7.772 -0.4617 -0.1828 -0.3906
 5777TIP3    H138966   2.466   4.693   7.683 -0.4395  1.2553  0.1238
 5777TIP3    H238967   2.549   4.610   7.779 -0.1335  0.2698 -0.9648
 5778TIP3   OH238968   4.165   0.361   0.888  0.0869  0.0608 -0.1177
 5778TIP3    H138969   4.227   0.319   0.829 -0.8630  0.4755 -1.4589
 5778TIP3    H238970   4.153   0.449   0.853 -0.4358  0.3520  0.7477
 5779TIP3   OH238971   4.811   5.334   1.938  0.3911  0.6012 -0.1659
 5779TIP3    H138972   4.862   5.276   1.881 -1.7005  0.3087 -1.8682
 5779TIP3    H238973   4.825   5.422   1.902  1.2527  0.7973  0.6166
 5780TIP3   OH238974   0.335   2.595   7.766 -0.2888  0.1557 -0.6692
 5780TIP3    H138975   0.373   2.656   7.829  0.1883 -0.4373 -0.3666
 5780TIP3    H238976   0.248   2.630   7.748 -0.1930  0.6740 -0.1608
 5781TIP3   OH238977   5.272   6.057   6.595  0.6116 -0.0842 -0.1356
 5781TIP3    H138978   5.293   5.964   6.601 -1.3065 -0.5385 -0.0138
 5781TIP3    H238979   5.177   6.060   6.585  0.7191  1.8367 -1.0020
 5782TIP3   OH238980   1.889   4.666   0.807  0.1833  0.6711  0.3055
 5782TIP3    H138981   1.833   4.686   0.882 -0.0415  0.1679  0.2807
 5782TIP3    H238982   1.894   4.747   0.757  1.7714  1.5501  1.7771
 5783TIP3   OH238983   5.497   5.214   7.662  0.3411  0.0343  0.2874
 5783TIP3    H138984   5.414   5.262   7.663  0.1837 -0.2396  0.3056
 5783TIP3    H238985   5.547   5.253   7.590 -0.2988 -0.6465 -0.5342
 5784TIP3   OH238986   5.979   1.864   7.187  0.3274  0.2347 -0.7067
 5784TIP3    H138987   6.018   1.789   7.142 -0.6132 -0.4454 -0.4143
 5784TIP3    H238988   6.037   1.937   7.167  1.0653 -0.4997 -1.2892
 5785TIP3   OH238989   0.774   4.022   0.454 -0.0922 -0.1028 -0.3090
 5785TIP3    H138990   0.802   3.955   0.391 -2.3547 -0.9304 -0.5329
 5785TIP3    H238991   0.829   4.007   0.531  0.8610 -0.8445 -1.1004
 5786TIP3   OH238992   2.092   1.882   1.811 -0.3252 -0.1474 -0.0220
 5786TIP3    H138993   2.144   1.809   1.779 -0.4032  0.8059 -2.5307
 5786TIP3    H238994   2.128   1.959   1.767 -3.2964  0.6779 -1.2764
 5787TIP3   OH238995   1.271   2.158   6.663  0.0851 -0.0843  0.0462
 5787TIP3    H138996   1.209   2.219   6.624  1.7876  1.3787 -0.5149
 5787TIP3    H238997   1.224   2.074   6.665 -1.5897  0.7590 -1.1027
 5788TIP3   OH238998   4.394   3.607   6.430  0.2636 -0.4032 -0.8202
 5788TIP3    H138999   4.427   3.546   6.497 -3.2267 -0.7559  0.8016
 5788TIP3    H239000   4.339   3.553   6.374  0.6741  0.4962 -2.1247
 5789TIP3   OH239001   3.443   1.165   1.103  0.2834  0.1459  0.0943
 5789TIP3    H139002   3.535   1.187   1.091  0.1420  0.5420 -0.2703
 5789TIP3    H239003   3.440   1.118   1.186  0.7799  0.3266  0.2132
 5790TIP3   OH239004   2.464   0.894   8.215 -0.3522  0.0872  0.5306
 5790TIP3    H139005   2.455   0.801   8.237  1.6722 -0.4847 -0.7559
 5790TIP3    H239006   2.432   0.900   8.125 -1.3511  0.8600  0.9173
 5791TIP3   OH239007   3.148   1.055   1.483  0.1060  0.0590  0.2306
 5791TIP3    H139008   3.141   1.150   1.490 -1.1396  0.1136 -1.1880
 5791TIP3    H239009   3.079   1.031   1.421  1.5169 -1.5753 -0.7968
 5792TIP3   OH239010   5.351   5.400   8.533 -0.0906  0.4500  0.2983
 5792TIP3    H139011   5.380   5.442   8.614 -1.9375 -0.6726  1.6357
 5792TIP3    H239012   5.422   5.341   8.509  1.1671  1.9630  0.1544
 5793TIP3   OH239013   1.369   0.346   0.574  0.2778  0.2435 -0.4588
 5793TIP3    H139014   1.462   0.324   0.577  0.0870 -0.5602 -0.3438
 5793TIP3    H239015   1.366   0.440   0.594  0.8956 -0.1672  1.8689
 5794TIP3   OH239016   5.259   0.851   7.931 -0.0263 -0.2663 -0.1044
 5794TIP3    H139017   5.182   0.815   7.887  0.1139 -1.1613  0.3554
 5794TIP3    H239018   5.330   0.789   7.911  0.3537  0.0477  0.2458
 5795TIP3   OH239019   4.204   3.990   2.327 -0.1453 -0.5129  0.1269
 5795TIP3    H139020   4.292   3.958   2.345  0.7862  0.4669 -2.2946
 5795TIP3    H239021   4.191   4.063   2.389  0.7041 -0.6939  0.5279
 5796TIP3   OH239022   3.096   3.271   8.657  0.5034 -0.2662 -0.5131
 5796TIP3    H139023   3.147   3.347   8.628  1.7556 -1.2093 -0.8841
 5796TIP3    H239024   3.099   3.211   8.582 -0.2578 -0.7899 -0.1316
 5797TIP3   OH239025   4.838   3.452   0.437  0.0401  0.0485 -0.4057
 5797TIP3    H139026   4.872   3.535   0.403 -1.1286  0.3005 -1.0122
 5797TIP3    H239027   4.775   3.477   0.504 -2.2287 -0.1784 -2.3098
 5798TIP3   OH239028   1.949   1.434   0.217 -0.1081  0.5116  0.1908
 5798TIP3    H139029   2.019   1.499   0.221  1.3306 -0.7972 -1.5480
 5798TIP3    H239030   1.995   1.351   0.206 -1.9170 -0.3248 -1.8452
 5799TIP3   OH239031   5.160   5.372   8.816  0.4557  0.0021 -0.1697
 5799TIP3    H139032   5.237   5.426   8.795 -0.0597  0.4389 -0.9564
 5799TIP3    H239033   5.198   5.290   8.849  1.2546  0.8156  1.0783
 5800TIP3   OH239034   5.000   0.895   0.901 -0.2381 -0.9479 -0.3132
 5800TIP3    H139035   5.026   0.847   0.822  1.1594  1.4935 -1.4873
 5800TIP3    H239036   5.049   0.978   0.895 -1.2792 -0.0359  2.3576
 5801TIP3   OH239037   1.244   0.050   2.404  0.0719 -0.1265 -0.4159
 5801TIP3    H139038   1.212   0.020   2.319 -1.4034 -1.1349  0.4373
 5801TIP3    H239039   1.329   0.007   2.415 -0.0531 -0.5453 -1.0783
 5802TIP3   OH239040   5.883   1.355   7.033  0.4259  0.2267 -0.5357
 5802TIP3    H139041   5.977   1.338   7.026  0.8046  2.3344 -1.4030
 5802TIP3    H239042   5.846   1.319   6.953  0.2649 -1.7046  0.3611
 5803TIP3   OH239043   3.749   0.298   0.199 -0.4570  0.0777  0.6140
 5803TIP3    H139044   3.840   0.327   0.191 -0.6535  1.1847  1.9716
 5803TIP3    H239045   3.755   0.203   0.197  1.1117 -0.0062  3.5288
 5804TIP3   OH239046   5.112   2.975   7.674  0.2447  0.3893 -0.8304
 5804TIP3    H139047   5.094   2.996   7.582 -2.9415 -0.9030 -0.6398
 5804TIP3    H239048   5.028   2.985   7.718  1.3454 -0.4873  1.6658
 5805TIP3   OH239049   6.529   5.794   8.002 -0.5375 -0.1494 -0.1976
 5805TIP3    H139050   6.562   5.883   8.002  0.0671 -0.3073 -2.8660
 5805TIP3    H239051   6.607   5.738   8.007 -0.6882 -0.5149 -1.6693
 5806TIP3   OH239052   0.483   4.414   8.643  0.5539  0.2685 -0.3227
 5806TIP3    H139053   0.428   4.485   8.677  0.8426  1.0790 -1.4632
 5806TIP3    H239054   0.427   4.368   8.581  0.3989 -0.4398  0.3460
 5807TIP3   OH239055   0.361   3.883   1.850 -0.3672  0.4438 -0.0412
 5807TIP3    H139056   0.368   3.830   1.929 -0.1946  0.2663 -0.1698
 5807TIP3    H239057   0.402   3.966   1.873 -0.5070  0.4673  0.1198
 5808TIP3   OH239058   6.534   0.584   8.322 -0.0197  1.1715 -0.6911
 5808TIP3    H139059   6.594   0.658   8.336  0.7861  0.1815  1.6017
 5808TIP3    H239060   6.448   0.619   8.343  0.4673  1.2922  1.2855
 5809TIP3   OH239061   1.854   0.413   8.631  0.5118 -0.3842 -0.0901
 5809TIP3    H139062   1.871   0.483   8.694 -1.2849 -0.8425  0.9727
 5809TIP3    H239063   1.759   0.405   8.629  0.4673 -0.1473 -3.1779
 5810TIP3   OH239064   6.125   2.259   2.110  0.3227  0.0483  0.4148
 5810TIP3    H139065   6.192   2.217   2.057  0.5768  0.7921  0.1381
 5810TIP3    H239066   6.050   2.199   2.107 -0.6567  1.2217 -2.9727
 5811TIP3   OH239067   6.808   2.437   6.405 -0.8370 -0.4253  0.2828
 5811TIP3    H139068   6.903   2.427   6.403 -0.8507 -0.5510 -1.4272
 5811TIP3    H239069   6.792   2.494   6.480  0.7502  1.0048 -0.3750
 5812TIP3   OH239070   5.535   0.616   7.416 -0.2851 -0.5314  0.0201
 5812TIP3    H139071   5.545   0.711   7.419 -1.3509 -0.3963 -0.2049
 5812TIP3    H239072   5.495   0.594   7.500 -0.2312 -0.7519 -0.0131
 5813TIP3   OH239073   0.169   5.289   0.353  0.2596  0.4994  0.3076
 5813TIP3    H139074   0.137   5.379   0.356 -0.2500  0.2875  1.5691
 5813TIP3    H239075   0.240   5.287   0.417 -0.0889 -0.1293  0.6753
 5814TIP3   OH239076   0.176   0.912   7.990 -0.1808 -0.3653  0.0704
 5814TIP3    H139077   0.243   0.979   7.975 -0.3206 -0.0646  0.7331
 5814TIP3    H239078   0.161   0.872   7.904 -0.0040  0.3685 -0.3066
 5815TIP3   OH239079   5.023   6.503   0.542  0.3145 -0.0097  0.0677
 5815TIP3    H139080   5.014   6.558   0.619 -1.7923 -0.8928  0.5233
 5815TIP3    H239081   5.072   6.426   0.573  0.9604  0.3989  0.0778
 5816TIP3   OH239082   4.028   6.084   2.184 -0.1700 -0.4008 -0.2822
 5816TIP3    H139083   4.051   6.043   2.267  0.1105 -1.2915 -0.7870
 5816TIP3    H239084   4.112   6.104   2.143 -0.2426  2.2673  0.6652
 5817TIP3   OH239085   1.795   1.392   8.404 -0.0453 -0.0156  0.2995
 5817TIP3    H139086   1.844   1.472   8.423  0.7163 -0.0203 -1.4464
 5817TIP3    H239087   1.712   1.424   8.368 -0.5840 -0.0227  1.4939
 5818TIP3   OH239088   4.053   2.215   7.429  0.2451 -1.2055 -1.0255
 5818TIP3    H139089   4.015   2.228   7.342 -1.7780  0.1562 -0.0284
 5818TIP3    H239090   3.981   2.235   7.489  1.1504 -3.4837  0.9793
 5819TIP3   OH239091   2.659   0.100   6.887 -0.0381  0.1194 -0.0767
 5819TIP3    H139092   2.617   0.141   6.812  1.3197  0.3325 -0.7643
 5819TIP3    H239093   2.681   0.173   6.945 -0.9481 -0.0301  0.4736
 5820TIP3   OH239094   3.449   1.863   8.391  0.1091 -1.1281  0.2215
 5820TIP3    H139095   3.366   1.816   8.398 -0.2289 -0.3657  1.8055
 5820TIP3    H239096   3.489   1.830   8.311 -2.2180 -0.6997 -1.1903
 5821TIP3   OH239097   5.144   6.561   7.299 -0.0476  0.2282  0.1053
 5821TIP3    H139098   5.053   6.556   7.270 -0.1928 -1.1201  0.7281
 5821TIP3    H239099   5.144   6.522   7.386  1.1087  0.3624  0.1837
 5822TIP3   OH239100   4.908   2.188   7.000  0.1536 -0.0742 -0.6092
 5822TIP3    H139101   4.868   2.263   7.043  0.1156 -0.6390  0.3762
 5822TIP3    H239102   4.835   2.142   6.958 -0.1790 -0.7838  0.6941
 5823TIP3   OH239103   1.574   4.461   8.077 -0.3913  0.3346  0.6029
 5823TIP3    H139104   1.514   4.389   8.100 -2.7360  1.9245 -0.1850
 5823TIP3    H239105   1.586   4.452   7.983 -0.1980  0.6245  0.6016
 5824TIP3   OH239106   2.296   3.435   7.158 -1.1010  0.4539  0.4140
 5824TIP3    H139107   2.322   3.515   7.111 -1.3526  0.2839 -0.0223
 5824TIP3    H239108   2.211   3.413   7.121 -2.7896  2.0084  3.0158
 5825TIP3   OH239109   2.472   2.101   8.172 -0.1798  0.1095 -0.2820
 5825TIP3    H139110   2.494   2.030   8.112 -3.1933 -0.9983 -0.2459
 5825TIP3    H239111   2.469   2.179   8.116  1.1631 -0.1239 -0.7144
 5826TIP3   OH239112   1.621   5.519   0.126  0.4140  0.3415  0.1247
 5826TIP3    H139113   1.612   5.426   0.106 -0.5037  0.4933 -0.2143
 5826TIP3    H239114   1.714   5.538   0.113  0.7039 -0.6404  0.7010
 5827TIP3   OH239115   2.890   2.160   8.264  0.5466 -0.4602 -0.4545
 5827TIP3    H139116   2.840   2.175   8.183 -0.8949 -0.5917  0.3780
 5827TIP3    H239117   2.862   2.230   8.323 -0.9860 -2.2674  1.0789
 5828TIP3   OH239118   4.897   5.840   0.919 -0.0284 -0.1177 -0.4413
 5828TIP3    H139119   4.877   5.854   0.826 -0.2676  1.2263 -0.2013
 5828TIP3    H239120   4.923   5.926   0.952  3.2668 -1.1575  0.0014
 5829TIP3   OH239121   6.294   0.336   0.940 -0.3867 -0.3634  0.4300
 5829TIP3    H139122   6.271   0.294   1.023  0.8518 -0.2080  0.8744
 5829TIP3    H239123   6.224   0.310   0.880 -1.1659 -0.6964  1.4414
 5830TIP3   OH239124   1.970   0.090   7.060  0.0247  0.6283  0.1685
 5830TIP3    H139125   2.050   0.059   7.018 -0.7922 -0.4985 -0.5956
 5830TIP3    H239126   1.937   0.158   7.002 -0.2658  0.1661 -0.2167
 5831TIP3   OH239127   0.714   3.934   8.674 -0.4247  0.2607 -0.2847
 5831TIP3    H139128   0.688   3.842   8.663 -3.2858  0.9990 -0.5708
 5831TIP3    H239129   0.687   3.956   8.763  2.1097  0.3454  0.5294
 5832TIP3   OH239130   1.191   5.905   1.796 -0.2379  0.0883 -0.2698
 5832TIP3    H139131   1.264   5.945   1.749 -0.1025  0.0199 -0.1181
 5832TIP3    H239132   1.203   5.811   1.784 -0.9303  0.1041 -1.1921
 5833TIP3   OH239133   1.439   3.952   7.214  0.0099 -0.3048  0.3647
 5833TIP3    H139134   1.472   3.915   7.132 -0.5535  1.8106 -0.8789
 5833TIP3    H239135   1.346   3.929   7.215  0.2103 -1.1632  0.9383
 5834TIP3   OH239136   2.473   2.326   2.099  0.2402 -0.4270 -0.3872
 5834TIP3    H139137   2.520   2.280   2.030  0.5934 -0.7910  0.0862
 5834TIP3    H239138   2.534   2.326   2.173  0.5751  1.4841 -0.5999
 5835TIP3   OH239139   2.752   4.740   6.516 -0.3747  0.1290 -0.6837
 5835TIP3    H139140   2.685   4.673   6.514  1.7506 -2.2130  0.5696
 5835TIP3    H239141   2.761   4.763   6.609 -1.0847  2.2427 -1.0905
 5836TIP3   OH239142   3.660   1.064   7.566 -0.3275 -0.4213 -0.1614
 5836TIP3    H139143   3.661   1.091   7.474  0.5398  1.1039  0.2605
 5836TIP3    H239144   3.585   1.006   7.573 -3.0807  2.7332 -0.9790
 5837TIP3   OH239145   0.141   0.895   8.255 -0.5363 -0.3923  0.0133
 5837TIP3    H139146   0.145   0.888   8.160 -1.0155  1.0041 -0.1264
 5837TIP3    H239147   0.197   0.969   8.276 -2.7700  1.2776  0.5089
 5838TIP3   OH239148   4.657   5.526   0.447 -0.0090  0.3247  0.6002
 5838TIP3    H139149   4.592   5.465   0.482  0.9980 -0.0177  1.9492
 5838TIP3    H239150   4.719   5.539   0.519 -0.8886  4.0078  0.8843
 5839TIP3   OH239151   1.621   6.632   8.510 -0.3229  0.2346  0.6617
 5839TIP3    H139152   1.578   6.706   8.552  0.8654  1.4219 -0.1498
 5839TIP3    H239153   1.703   6.667   8.476 -0.2974 -1.1511 -0.8510
 5840TIP3   OH239154   2.997   2.061   0.105 -0.2802  0.2456  0.0339
 5840TIP3    H139155   3.085   2.034   0.079  0.3204  0.6019  1.5975
 5840TIP3    H239156   3.004   2.156   0.119 -0.8245  0.2185  0.5321
 5841TIP3   OH239157   3.703   1.309   7.955  0.3225  0.1927 -0.0006
 5841TIP3    H139158   3.654   1.389   7.975  0.2468 -0.4141  2.6290
 5841TIP3    H239159   3.639   1.239   7.965  0.9815 -0.3744  0.3519
 5842TIP3   OH239160   3.287   6.477   8.539 -0.1445  0.5560 -0.1839
 5842TIP3    H139161   3.329   6.522   8.612  0.9784 -2.0756  0.9147
 5842TIP3    H239162   3.285   6.385   8.566 -1.1454 -0.2731 -2.8235
 5843TIP3   OH239163   1.417   1.447   7.371  0.1378 -0.2874  0.5199
 5843TIP3    H139164   1.457   1.397   7.442  0.8142 -0.7417 -0.1696
 5843TIP3    H239165   1.479   1.440   7.299 -0.8901 -0.4522 -0.3633
 5844TIP3   OH239166   2.313   3.506   8.625 -0.2497  0.2406  0.7570
 5844TIP3    H139167   2.371   3.483   8.552 -3.2337 -0.8203 -1.4434
 5844TIP3    H239168   2.354   3.466   8.702  1.3291 -1.4648 -0.8709
 5845TIP3   OH239169   1.365   0.974   8.613 -0.1798 -0.4399  0.3880
 5845TIP3    H139170   1.406   1.004   8.532 -0.1538 -0.9647  0.2015
 5845TIP3    H239171   1.404   1.027   8.681 -1.1691  0.9415 -0.0761
 5846TIP3   OH239172   5.381   5.966   0.532 -0.0782 -0.2412  0.4890
 5846TIP3    H139173   5.288   5.954   0.555  0.4435 -1.3690  2.3233
 5846TIP3    H239174   5.426   5.961   0.617  1.9395 -3.1746 -0.5888
 5847TIP3   OH239175   0.222   3.711   0.463 -0.0248 -0.0860  0.2910
 5847TIP3    H139176   0.146   3.694   0.519 -0.1693 -0.0732  0.1001
 5847TIP3    H239177   0.218   3.643   0.396  1.4649 -1.5518  1.6256
 5848TIP3   OH239178   3.538   0.024   1.877 -0.6290  0.2304  0.0915
 5848TIP3    H139179   3.467  -0.021   1.923 -0.9187 -1.0569 -1.5345
 5848TIP3    H239180   3.496   0.059   1.798 -0.2046  2.6168  0.8289
 5849TIP3   OH239181   1.424   0.936   2.564 -0.2614 -0.0938 -0.1576
 5849TIP3    H139182   1.368   0.878   2.513 -1.3546 -0.2961  1.1735
 5849TIP3    H239183   1.511   0.929   2.525 -0.6412 -1.6930 -0.7564
 5850TIP3   OH239184   0.534   1.157   7.391 -0.3125 -0.0667 -0.4044
 5850TIP3    H139185   0.542   1.197   7.478  0.1501  0.4086 -0.6614
 5850TIP3    H239186   0.618   1.176   7.349  1.2943 -3.9593  0.5708
 5851TIP3   OH239187   3.128   0.832   0.687 -1.0044 -0.0272  0.9450
 5851TIP3    H139188   3.195   0.774   0.722  0.1538 -0.0224 -1.0652
 5851TIP3    H239189   3.174   0.915   0.672 -1.6102  0.1772  0.1422
 5852TIP3   OH239190   3.711   2.444   6.113 -0.1554 -0.2067 -0.4514
 5852TIP3    H139191   3.751   2.520   6.156  0.0475 -0.2364 -0.5883
 5852TIP3    H239192   3.684   2.477   6.027 -1.2178  0.0466 -0.0399
 5853TIP3   OH239193   2.648   0.175   7.662  0.3914 -0.0042  0.1050
 5853TIP3    H139194   2.674   0.247   7.719  1.4378  0.5670 -1.0568
 5853TIP3    H239195   2.603   0.217   7.588 -0.0058 -0.6435 -0.0304
 5854TIP3   OH239196   5.348   1.551   1.329  0.0293 -0.3250 -0.4646
 5854TIP3    H139197   5.327   1.463   1.297 -1.3134 -0.1269 -0.1638
 5854TIP3    H239198   5.304   1.557   1.413  0.2100  0.5919 -0.4295
 5855TIP3   OH239199   0.711   6.468   8.467 -0.9140 -0.3967 -0.1841
 5855TIP3    H139200   0.665   6.453   8.549 -2.2015 -0.2451 -0.8512
 5855TIP3    H239201   0.650   6.438   8.399  0.1620 -0.6312 -1.0871
 5856TIP3   OH239202   3.139   6.206   1.365 -0.1254  0.4898  0.1223
 5856TIP3    H139203   3.231   6.179   1.369 -0.0295  0.1711 -2.3973
 5856TIP3    H239204   3.109   6.174   1.280 -2.0937  2.0621  0.1532
 5857TIP3   OH239205   2.343   6.753   8.785  0.3532 -0.2994 -0.3272
 5857TIP3    H139206   2.363   6.753   8.691 -0.3865 -1.8919 -0.5212
 5857TIP3    H239207   2.304   6.839   8.801  1.5187  0.4403 -1.2222
 5858TIP3   OH239208   1.966   5.155   8.743  0.1004 -0.0145 -0.0098
 5858TIP3    H139209   1.954   5.063   8.765 -0.6618  0.1061  0.0921
 5858TIP3    H239210   1.946   5.202   8.824 -1.9300  0.3805 -0.6814
 5859TIP3   OH239211   2.611   3.278   6.817  0.3685 -0.0835 -0.1761
 5859TIP3    H139212   2.567   3.288   6.901  1.4529 -0.9627  0.5320
 5859TIP3    H239213   2.631   3.184   6.811  0.4434 -0.0119 -1.3452
 5860TIP3   OH239214   3.985   6.826   7.537 -0.1150 -0.0232  0.1653
 5860TIP3    H139215   3.932   6.754   7.573 -0.5002  0.7595  1.2326
 5860TIP3    H239216   4.020   6.870   7.615  1.7310 -0.2344 -0.5101
 5861TIP3   OH239217   5.742   0.023   7.517  0.0700 -0.4302 -0.1619
 5861TIP3    H139218   5.674  -0.027   7.473 -0.0968 -1.5995  1.3416
 5861TIP3    H239219   5.824  -0.010   7.481  0.0223 -2.6494  1.5370
 5862TIP3   OH239220   0.481   1.929   8.090  0.2141  0.1363  0.2762
 5862TIP3    H139221   0.452   1.868   8.022  0.9356  0.1989 -0.1028
 5862TIP3    H239222   0.503   2.009   8.043  0.4649  0.2683  0.6136
 5863TIP3   OH239223   4.170   6.751   1.045  0.1088  0.1783  0.1377
 5863TIP3    H139224   4.240   6.724   1.105 -1.2034 -0.4779  1.4315
 5863TIP3    H239225   4.161   6.845   1.060  0.1187  0.1061  0.6179
 5864TIP3   OH239226   2.515   6.028   8.811 -0.0732 -0.2188 -0.5222
 5864TIP3    H139227   2.431   5.984   8.809 -0.2119 -0.0311  0.4447
 5864TIP3    H239228   2.544   6.020   8.902  0.5845  0.3935 -0.6635
 5865TIP3   OH239229   6.470   0.145   7.378 -0.6788 -0.1418  0.2700
 5865TIP3    H139230   6.518   0.073   7.420  0.0380  0.1559 -0.0250
 5865TIP3    H239231   6.464   0.212   7.446 -0.7953 -0.2345  0.3510
 5866TIP3   OH239232   6.527   3.388   1.168 -0.0897 -0.0524 -0.5044
 5866TIP3    H139233   6.495   3.460   1.115 -0.6758 -0.7722 -1.1613
 5866TIP3    H239234   6.596   3.426   1.223 -2.8490  1.9125  1.9316
 5867TIP3   OH239235   4.380   1.244   8.583 -0.5335 -0.0935  0.2126
 5867TIP3    H139236   4.366   1.332   8.618  1.8983  0.4458 -0.0048
 5867TIP3    H239237   4.428   1.257   8.502  1.2902 -1.6370  0.9615
 5868TIP3   OH239238   6.369   3.563   1.055 -0.0225  0.2263 -0.2745
 5868TIP3    H139239   6.298   3.577   0.992 -1.0546 -0.3182  0.7372
 5868TIP3    H239240   6.326   3.564   1.141  1.2907  0.5186  0.4088
 5869TIP3   OH239241   2.681   0.791   0.694 -0.5955  0.3634 -0.0839
 5869TIP3    H139242   2.698   0.866   0.750  2.8007  0.4591 -0.9828
 5869TIP3    H239243   2.586   0.778   0.697 -1.2822  4.3785  0.4356
 5870TIP3   OH239244   0.169   0.414   7.651 -0.2879  0.1622 -0.0482
 5870TIP3    H139245   0.129   0.328   7.661  1.3484 -0.4977  1.2630
 5870TIP3    H239246   0.164   0.453   7.738  1.8492  0.0394  0.1722
 5871TIP3   OH239247   6.535   2.933   7.392  0.8655  0.3834 -0.3116
 5871TIP3    H139248   6.533   3.017   7.345  0.6208 -0.1433 -1.2652
 5871TIP3    H239249   6.525   2.867   7.324 -1.0255 -0.3676  0.6206
 5872TIP3   OH239250   2.388   0.768   7.576  0.8255  0.5514 -0.2980
 5872TIP3    H139251   2.378   0.733   7.664 -2.4318 -0.4113 -0.9058
 5872TIP3    H239252   2.407   0.691   7.522 -0.5725  0.5280 -0.8205
 5873TIP3   OH239253   0.678   4.246   1.791  0.4679 -0.6701 -1.1577
 5873TIP3    H139254   0.687   4.169   1.735 -3.1599 -1.7886 -0.4160
 5873TIP3    H239255   0.641   4.313   1.734  0.3559 -0.5756 -0.9748
 5874TIP3   OH239256   1.096   4.502   0.373 -0.1600 -0.4255  0.1767
 5874TIP3    H139257   1.174   4.551   0.398 -0.6742  0.0910  0.7818
 5874TIP3    H239258   1.067   4.460   0.454 -0.8297 -0.1710  0.0698
 5875TIP3   OH239259   3.366   3.880   6.421 -0.0280 -0.5219  0.0707
 5875TIP3    H139260   3.281   3.885   6.377 -0.4684  0.9229  0.9943
 5875TIP3    H239261   3.430   3.895   6.351 -0.7029  1.5501 -0.1730
 5876TIP3   OH239262   6.136   1.373   6.962 -0.2159 -0.4262  0.1190
 5876TIP3    H139263   6.155   1.298   6.905 -1.1132 -1.8203  1.5795
 5876TIP3    H239264   6.222   1.398   6.996  0.3114  0.2985 -1.6219
 5877TIP3   OH239265   3.639   1.200   0.505 -0.0290  0.8114  0.7432
 5877TIP3    H139266   3.662   1.203   0.412  0.8618 -1.3324  0.8499
 5877TIP3    H239267   3.696   1.266   0.545  2.1816 -0.6569  0.2074
 5878TIP3   OH239268   0.238   1.447   1.246 -0.3226  0.3105 -0.3784
 5878TIP3    H139269   0.151   1.411   1.263 -0.1169 -0.0173 -0.0164
 5878TIP3    H239270   0.230   1.540   1.264 -0.6040  0.2821 -0.3640
 5879TIP3   OH239271   5.586   2.439   0.200  0.0439  0.3451  0.0740
 5879TIP3    H139272   5.500   2.398   0.186 -1.1262  2.3775  0.9411
 5879TIP3    H239273   5.610   2.474   0.115 -0.1506  0.0889 -0.0896
 5880TIP3   OH239274   0.543   5.323   8.366  0.4657  0.7356 -0.2734
 5880TIP3    H139275   0.497   5.365   8.293  0.6977  1.1606 -0.1777
 5880TIP3    H239276   0.610   5.386   8.392  0.7878  0.3235 -0.0952
 5881TIP3   OH239277   1.752   5.049   7.137  0.5730  0.6479  0.1299
 5881TIP3    H139278   1.838   5.029   7.100 -0.3060  0.6755 -2.0628
 5881TIP3    H239279   1.721   5.124   7.087 -1.6877 -0.7812 -0.8088
 5882TIP3   OH239280   1.737   4.703   0.450  0.2137 -0.2012 -0.6347
 5882TIP3    H139281   1.761   4.640   0.382  1.2946 -0.1594 -0.3079
 5882TIP3    H239282   1.688   4.651   0.514  0.5215 -0.5714 -0.6950
 5883TIP3   OH239283   6.461   1.932   1.215 -0.3021 -0.2835  0.1499
 5883TIP3    H139284   6.386   1.967   1.262  0.1736 -0.1846  0.8593
 5883TIP3    H239285   6.467   1.985   1.135 -0.9133 -0.2271  0.1355
 5884TIP3   OH239286   0.604   1.391   0.665  0.6808  0.8306  0.5279
 5884TIP3    H139287   0.583   1.306   0.702 -0.5022  1.1705  0.7036
 5884TIP3    H239288   0.631   1.445   0.740 -1.1683  1.3562  0.8672
 5885TIP3   OH239289   3.762   3.224   0.517 -0.4357 -0.1561 -0.4633
 5885TIP3    H139290   3.702   3.173   0.462 -0.0949 -2.5013  1.1845
 5885TIP3    H239291   3.717   3.231   0.601  0.9164 -0.5558  0.3128
 5886TIP3   OH239292   0.627   4.784   0.444  0.4439 -0.2949 -0.0332
 5886TIP3    H139293   0.539   4.822   0.453 -0.7103 -2.8647  0.3316
 5886TIP3    H239294   0.615   4.691   0.463  2.7521 -1.2567 -2.6990
 5887TIP3   OH239295   3.040   4.953   8.303 -0.7747  0.0897  0.6030
 5887TIP3    H139296   2.978   5.025   8.290 -0.8327 -0.1747 -0.7192
 5887TIP3    H239297   3.107   4.967   8.237 -0.4137 -0.6892  0.7988
 5888TIP3   OH239298   4.557   2.006   7.175 -0.2181  0.4338  0.4512
 5888TIP3    H139299   4.480   2.042   7.130  0.4601  0.5116 -0.7025
 5888TIP3    H239300   4.606   1.963   7.105  0.5852  0.0454  1.2464
 5889TIP3   OH239301   0.193   5.765   1.898  0.4524  0.5127  0.2060
 5889TIP3    H139302   0.114   5.782   1.949  0.9066 -0.6661  1.3502
 5889TIP3    H239303   0.262   5.754   1.963  1.7047  2.0172 -0.7765
 5890TIP3   OH239304   2.902   0.740   7.072  0.5779  0.3523 -0.1690
 5890TIP3    H139305   2.864   0.793   7.001  3.0091  1.5146 -0.7186
 5890TIP3    H239306   2.928   0.804   7.138  1.2017 -0.4269  0.3523
 5891TIP3   OH239307   3.068   3.454   8.315 -0.6465 -0.5439  0.1547
 5891TIP3    H139308   3.164   3.444   8.316 -0.5054 -0.2388 -2.5311
 5891TIP3    H239309   3.048   3.497   8.398  1.6288  0.0415  0.4826
 5892TIP3   OH239310   0.191   1.151   0.597 -0.3526 -0.9482 -0.0898
 5892TIP3    H139311   0.231   1.224   0.643 -1.9812  0.0317 -0.1167
 5892TIP3    H239312   0.263   1.093   0.575  1.2266  1.3394 -1.3106
 5893TIP3   OH239313   1.592   2.230   0.809  0.5135  0.2005 -0.3911
 5893TIP3    H139314   1.579   2.146   0.855  2.1210 -0.2069 -0.6282
 5893TIP3    H239315   1.622   2.290   0.877 -0.2282  0.4799 -0.3043
 5894TIP3   OH239316   5.666   4.211   7.929 -0.6452  0.0753  0.0632
 5894TIP3    H139317   5.684   4.296   7.889 -1.2011  0.6250  0.9366
 5894TIP3    H239318   5.596   4.228   7.992  0.5705 -0.6059  1.7142
 5895TIP3   OH239319   1.062   2.524   0.569  0.5211 -0.0552  0.4512
 5895TIP3    H139320   1.058   2.606   0.619  1.3486  0.1823  0.1436
 5895TIP3    H239321   1.070   2.553   0.478  0.0131 -0.4899  0.2615
 5896TIP3   OH239322   3.783   1.715   0.935  0.3495 -0.1748 -0.1645
 5896TIP3    H139323   3.728   1.779   0.980  0.3794  0.0636 -0.4627
 5896TIP3    H239324   3.860   1.766   0.908 -0.5462  0.1557 -2.2073
 5897TIP3   OH239325   4.876   6.788   8.634 -0.2832  0.4349  0.1612
 5897TIP3    H139326   4.855   6.695   8.636  1.8665 -0.1100  2.4447
 5897TIP3    H239327   4.931   6.800   8.557  1.9806 -0.9263  1.4444
 5898TIP3   OH239328   5.892   5.386   7.435 -0.3892  0.5619  0.5669
 5898TIP3    H139329   5.906   5.476   7.407 -0.7548  0.0307 -1.5468
 5898TIP3    H239330   5.953   5.334   7.382 -2.2385 -0.6815 -0.4844
 5899TIP3   OH239331   0.845   0.648   6.633 -0.0301 -0.3458 -0.0729
 5899TIP3    H139332   0.750   0.640   6.635 -0.0633  0.0069 -0.1124
 5899TIP3    H239333   0.868   0.675   6.722 -0.0121  0.0352 -0.1931
 5900TIP3   OH239334   6.033   3.160   6.856  0.1052 -0.0627 -0.1670
 5900TIP3    H139335   6.073   3.120   6.779  2.1461  1.4236  0.0458
 5900TIP3    H239336   6.042   3.094   6.925  2.5688  0.3147 -0.0471
 5901TIP3   OH239337   5.548   2.058   0.311  0.2559  0.3800 -0.8521
 5901TIP3    H139338   5.504   2.077   0.228  1.5979 -0.9276 -1.9146
 5901TIP3    H239339   5.582   1.969   0.301 -0.1887 -0.1118  1.4172
 5902TIP3   OH239340   3.370   1.565   8.488 -0.3348 -0.0155 -0.7818
 5902TIP3    H139341   3.415   1.594   8.409  1.0863 -2.0055 -0.7720
 5902TIP3    H239342   3.288   1.527   8.457 -0.5190  0.6360 -1.1170
 5903TIP3   OH239343   0.619   0.888   7.944  0.2944  0.0536  0.4580
 5903TIP3    H139344   0.594   0.926   7.860  1.8689 -2.5340 -1.3340
 5903TIP3    H239345   0.598   0.795   7.936  2.4100 -0.6612  2.0852
 5904TIP3   OH239346   5.401   3.776   1.222 -0.1768 -0.0574 -0.7066
 5904TIP3    H139347   5.335   3.797   1.288  0.1557 -1.1203 -0.0115
 5904TIP3    H239348   5.393   3.682   1.208 -0.5527  0.2253 -2.5587
 5905TIP3   OH239349   1.399   2.524   1.098  0.5022 -0.7148  0.7132
 5905TIP3    H139350   1.416   2.434   1.070  1.1787 -0.4979  0.4138
 5905TIP3    H239351   1.323   2.516   1.156 -1.3071 -1.0928 -1.5919
 5906TIP3   OH239352   4.388   4.149   1.775  0.2428  0.0070 -0.0305
 5906TIP3    H139353   4.430   4.213   1.831 -0.4012  0.7194 -0.3393
 5906TIP3    H239354   4.305   4.129   1.819  0.9599 -1.5509  0.6926
 5907TIP3   OH239355   1.252   3.642   7.896  0.1089 -0.0422 -0.0688
 5907TIP3    H139356   1.193   3.613   7.966  1.2842 -0.8279  0.6315
 5907TIP3    H239357   1.227   3.589   7.821 -0.8584  0.4830 -0.1408
 5908TIP3   OH239358   6.611   0.656   0.522 -0.2716 -0.1406  0.2038
 5908TIP3    H139359   6.645   0.591   0.584 -1.2405  0.5094  1.4624
 5908TIP3    H239360   6.532   0.690   0.563  0.8403  2.7369  0.2244
 5909TIP3   OH239361   1.703   3.501   8.570 -0.1170  0.3066  0.2057
 5909TIP3    H139362   1.737   3.556   8.500 -0.0685  1.1323  0.8566
 5909TIP3    H239363   1.770   3.433   8.582  1.3680  1.8909  1.4557
 5910TIP3   OH239364   6.278   2.104   8.428 -0.2573 -0.7332  0.3184
 5910TIP3    H139365   6.198   2.119   8.479  0.4518  0.3416  1.1474
 5910TIP3    H239366   6.332   2.049   8.484  0.1021 -0.4268  0.2685
 5911TIP3   OH239367   4.430   5.390   7.548 -0.1866 -0.9756  0.0550
 5911TIP3    H139368   4.411   5.461   7.487  2.4622 -0.3833 -0.1583
 5911TIP3    H239369   4.513   5.354   7.519 -1.3511 -4.1778  0.2172
 5912TIP3   OH239370   3.382   4.250   1.535  0.1744 -0.0049  0.6025
 5912TIP3    H139371   3.288   4.233   1.533  0.4455 -1.8033  1.4475
 5912TIP3    H239372   3.421   4.172   1.496  1.3190  0.7900  0.1178
 5913TIP3   OH239373   1.855   5.755   0.624  0.2732 -0.0699 -0.5619
 5913TIP3    H139374   1.774   5.741   0.577  0.7484 -1.1128 -1.0864
 5913TIP3    H239375   1.919   5.779   0.557  0.7278 -0.6065 -0.3287
 5914TIP3   OH239376   6.545   5.515   1.782 -0.0239  0.1656 -0.1310
 5914TIP3    H139377   6.538   5.482   1.871  1.1448  1.2061  0.3803
 5914TIP3    H239378   6.463   5.563   1.767  0.5283  1.5669  1.0907
 5915TIP3   OH239379   1.527   2.537   0.146  0.0391 -0.1939 -0.2112
 5915TIP3    H139380   1.501   2.598   0.078 -2.1575 -0.1919  0.5518
 5915TIP3    H239381   1.561   2.461   0.098 -2.9951 -0.8999 -1.4902
 5916TIP3   OH239382   2.803   0.722   1.341  0.4033 -0.6976  0.5731
 5916TIP3    H139383   2.793   0.648   1.281  0.3790 -0.2046 -0.0430
 5916TIP3    H239384   2.872   0.695   1.401  0.3100 -1.2729  0.4293
 5917TIP3   OH239385   4.879   3.154   8.464  0.4510 -0.0719  0.1911
 5917TIP3    H139386   4.868   3.122   8.554 -0.3931 -1.5722 -0.4120
 5917TIP3    H239387   4.789   3.162   8.431  0.7841 -0.5901 -0.8698
 5918TIP3   OH239388   0.112   1.579   7.938 -0.5171  0.3878 -0.1851
 5918TIP3    H139389   0.075   1.558   7.852  0.1463  2.0921 -0.9435
 5918TIP3    H239390   0.195   1.622   7.918  0.7811 -1.2419  1.4213
 5919TIP3   OH239391   4.566   6.306   0.932 -0.4518 -0.0342  0.1494
 5919TIP3    H139392   4.511   6.365   0.983  0.6595  0.2854  1.0243
 5919TIP3    H239393   4.553   6.220   0.972 -1.1292 -0.1618 -0.3362
 5920TIP3   OH239394   3.965   5.754   7.577  0.0476 -0.1949  0.5436
 5920TIP3    H139395   3.918   5.823   7.530  0.7904  0.2412  0.4347
 5920TIP3    H239396   4.055   5.785   7.582  0.0681 -0.4157  1.9206
 5921TIP3   OH239397   1.388   1.037   7.998 -0.2644  0.2389  0.3375
 5921TIP3    H139398   1.294   1.052   7.986  0.0525  0.7075 -2.0284
 5921TIP3    H239399   1.408   0.959   7.947  0.1399 -1.8434  3.4485
 5922TIP3   OH239400   3.150   5.047   6.623  0.0738  0.2036 -0.2076
 5922TIP3    H139401   3.146   5.034   6.529 -0.1064 -0.2058 -0.1426
 5922TIP3    H239402   3.172   4.961   6.659 -1.5486 -0.0474  0.2484
 5923TIP3   OH239403   0.332   4.893   6.694 -0.3171 -0.2161  0.9499
 5923TIP3    H139404   0.344   4.805   6.659 -0.7731 -0.1067  0.5107
 5923TIP3    H239405   0.291   4.942   6.623  1.4805  0.8190  0.5747
 5924TIP3   OH239406   0.505   0.057   1.247  0.5742  0.6391 -0.0273
 5924TIP3    H139407   0.525   0.032   1.337 -2.0917 -1.0708  0.2069
 5924TIP3    H239408   0.508   0.153   1.247 -0.5558  0.7345  2.2475
 5925TIP3   OH239409   1.346   3.884   0.107  0.3432 -0.0655 -0.2595
 5925TIP3    H139410   1.274   3.923   0.156  0.6219  1.3214 -0.9146
 5925TIP3    H239411   1.315   3.796   0.086  0.7962 -1.3256  3.6236
 5926TIP3   OH239412   6.865   4.606   8.227 -0.0870 -0.5807 -0.3062
 5926TIP3    H139413   6.920   4.659   8.285 -0.5123  1.7516 -1.9329
 5926TIP3    H239414   6.907   4.520   8.227  1.2364 -0.0060  1.5924
 5927TIP3   OH239415   0.507   6.440   7.011 -0.6295  0.7253  0.0768
 5927TIP3    H139416   0.518   6.527   6.974 -0.3906  0.8474  0.4261
 5927TIP3    H239417   0.465   6.389   6.942  0.7374  0.6579 -0.7443
 5928TIP3   OH239418   5.960   2.208   7.169 -0.3957 -0.6280 -0.6049
 5928TIP3    H139419   5.949   2.194   7.263 -1.5876 -0.9678 -0.7763
 5928TIP3    H239420   5.871   2.215   7.135  0.0285  1.3729 -1.4620
 5929TIP3   OH239421   4.375   3.007   1.042  0.4721  0.5068 -0.0948
 5929TIP3    H139422   4.461   3.037   1.011  0.5446  0.1105 -0.2914
 5929TIP3    H239423   4.312   3.049   0.983  0.4143  2.0376  0.9969
 5930TIP3   OH239424   6.526   6.820   1.167  0.3396  0.5899 -0.4899
 5930TIP3    H139425   6.599   6.760   1.150 -0.3945 -0.8582  1.2043
 5930TIP3    H239426   6.491   6.792   1.251 -0.9502  2.5228 -0.3289
 5931TIP3   OH239427   5.656   0.628   0.115 -0.2699 -0.4405  0.2931
 5931TIP3    H139428   5.630   0.587   0.197  1.6332 -0.2648  1.0269
 5931TIP3    H239429   5.651   0.558   0.050  0.8714 -1.3210  1.1183
 5932TIP3   OH239430   0.154   4.871   0.776 -0.2822 -0.2936  0.1539
 5932TIP3    H139431   0.139   4.944   0.715  0.1231 -1.1170 -0.9548
 5932TIP3    H239432   0.110   4.898   0.856 -0.7878  0.8454 -0.4837
 5933TIP3   OH239433   2.180   2.545   6.628 -0.3396  0.1388  0.3469
 5933TIP3    H139434   2.171   2.547   6.533 -0.2748 -2.8508  0.1697
 5933TIP3    H239435   2.274   2.550   6.643 -0.4101  1.8195  0.3675
 5934TIP3   OH239436   4.141   0.101   1.592 -0.1549 -0.1981  0.6929
 5934TIP3    H139437   4.170   0.066   1.676  1.9647  1.3279  0.6757
 5934TIP3    H239438   4.069   0.160   1.615  0.1020 -0.1401  1.3788
 5935TIP3   OH239439   2.024   6.619   8.289 -0.1757  0.1519  0.5671
 5935TIP3    H139440   1.977   6.667   8.221  0.6018 -1.3008 -1.0952
 5935TIP3    H239441   1.995   6.658   8.371 -1.0596  2.0753 -0.5914
 5936TIP3   OH239442   1.545   3.749   0.261 -0.6715  0.5728  0.0350
 5936TIP3    H139443   1.523   3.809   0.189  1.0299  0.4718 -0.6152
 5936TIP3    H239444   1.495   3.782   0.335 -2.3823  0.7628 -1.1317
 5937TIP3   OH239445   2.224   5.290   8.643 -0.3469 -0.3334  0.5520
 5937TIP3    H139446   2.193   5.203   8.619 -2.0928 -0.8655  4.0949
 5937TIP3    H239447   2.146   5.346   8.635  0.6784  0.9538 -1.3851
 5938TIP3   OH239448   6.079   6.789   0.666  0.0293  0.3625  0.4171
 5938TIP3    H139449   5.995   6.754   0.637 -0.2630  0.7339  0.8035
 5938TIP3    H239450   6.128   6.802   0.585  0.1347 -0.8793  0.2628
 5939TIP3   OH239451   4.359   3.597   1.736  0.7966  0.5186  1.1507
 5939TIP3    H139452   4.328   3.681   1.769  1.5589  1.5812 -0.6536
 5939TIP3    H239453   4.418   3.620   1.664  1.0374 -1.5721  0.6067
 5940TIP3   OH239454   0.690   1.420   7.037 -0.5339  0.6955 -0.3252
 5940TIP3    H139455   0.678   1.360   6.963 -1.6650 -0.2778  0.6009
 5940TIP3    H239456   0.601   1.445   7.063 -0.5726 -2.0595  3.0773
 5941TIP3   OH239457   0.603   4.914   8.674 -0.5535  0.2583 -0.0388
 5941TIP3    H139458   0.668   4.963   8.623 -0.2068  2.3014  2.1864
 5941TIP3    H239459   0.519   4.941   8.639 -0.3670  2.5617  1.1304
 5942TIP3   OH239460   4.164   3.741   7.569 -0.0948 -0.0867  0.1751
 5942TIP3    H139461   4.172   3.700   7.656  1.4677  1.6699  0.9329
 5942TIP3    H239462   4.240   3.798   7.563 -1.1274  1.1798 -1.6374
 5943TIP3   OH239463   1.332   2.621   0.820  0.1236 -0.1043 -0.4622
 5943TIP3    H139464   1.298   2.538   0.788 -2.5481  0.5350  0.4901
 5943TIP3    H239465   1.360   2.603   0.909 -1.9875  0.2794  0.3404
 5944TIP3   OH239466   6.255   0.090   7.207 -0.6186  0.1327  0.1450
 5944TIP3    H139467   6.321   0.090   7.275  0.0695  0.7270 -0.5048
 5944TIP3    H239468   6.182   0.039   7.243 -0.1141  0.1202  1.1577
 5945TIP3   OH239469   1.413   5.461   0.917 -1.0693 -0.2305  0.8501
 5945TIP3    H139470   1.319   5.473   0.906 -0.8396  1.0462 -0.0306
 5945TIP3    H239471   1.446   5.453   0.827 -0.4399 -1.6026  1.1857
 5946TIP3   OH239472   3.406   5.885   1.163  0.2915  0.1646  0.1701
 5946TIP3    H139473   3.359   5.963   1.195  0.4526 -0.1798  1.2803
 5946TIP3    H239474   3.428   5.836   1.242  1.4674 -0.2955 -0.4191
 5947TIP3   OH239475   4.262   5.694   8.672 -0.0399 -0.2108 -0.1155
 5947TIP3    H139476   4.320   5.762   8.705  0.0781 -0.5277  0.3348
 5947TIP3    H239477   4.292   5.614   8.714 -0.9617 -0.3360  0.3269
 5948TIP3   OH239478   4.801   2.069   1.442 -0.0395 -0.2526 -0.5948
 5948TIP3    H139479   4.854   1.992   1.424 -0.4261 -0.8400  0.6798
 5948TIP3    H239480   4.727   2.037   1.493  0.6243  1.1248  1.4028
 5949TIP3   OH239481   0.664   1.062   8.244  0.1849  0.4641  0.1161
 5949TIP3    H139482   0.587   1.013   8.216 -0.7827  0.1309  3.0675
 5949TIP3    H239483   0.629   1.140   8.286  1.4392  0.4897  1.1825
 5950TIP3   OH239484   2.873   1.951   0.685 -1.1212 -0.1970 -0.3636
 5950TIP3    H139485   2.966   1.931   0.671 -1.1318 -0.3798 -0.1753
 5950TIP3    H239486   2.827   1.875   0.651 -1.2143  0.0191 -0.7152
 5951TIP3   OH239487   4.106   3.721   0.099 -0.0735  0.3607 -0.0389
 5951TIP3    H139488   4.101   3.651   0.165  0.4833  0.9656  0.6618
 5951TIP3    H239489   4.133   3.676   0.019  0.1457 -0.2588  0.3703
 5952TIP3   OH239490   3.039   2.680   1.668  0.6750 -0.0540 -0.3300
 5952TIP3    H139491   3.087   2.686   1.750  0.7338 -2.0914 -0.1539
 5952TIP3    H239492   2.947   2.693   1.692  0.8623  1.4064 -0.2999
 5953TIP3   OH239493   0.796   2.550   1.174  0.0789  0.3895  0.4168
 5953TIP3    H139494   0.847   2.534   1.094 -0.0104 -0.6204  0.5502
 5953TIP3    H239495   0.720   2.492   1.166  0.8611 -0.9166  1.9472
 5954TIP3   OH239496   1.381   3.096   7.592  0.0820 -0.7705  0.5272
 5954TIP3    H139497   1.348   3.006   7.602  1.0228 -1.1865  0.0195
 5954TIP3    H239498   1.392   3.127   7.681 -0.4304 -1.0934  0.7083
 5955TIP3   OH239499   0.843   2.905   0.786  0.8071  0.2318  0.3121
 5955TIP3    H139500   0.904   2.832   0.773 -0.1966 -0.6993  0.7639
 5955TIP3    H239501   0.810   2.893   0.875 -0.0719  0.7106  0.0534
 5956TIP3   OH239502   1.060   6.030   6.084 -0.1830  0.2488 -0.3632
 5956TIP3    H139503   1.052   6.125   6.072 -0.8481  0.1830 -0.5050
 5956TIP3    H239504   1.123   6.019   6.155 -0.9615  0.8313  0.4357
 5957TIP3   OH239505   6.076   6.076   0.503 -0.3489  0.0989  0.0542
 5957TIP3    H139506   5.994   6.072   0.454 -1.0461 -1.1846  1.2454
 5957TIP3    H239507   6.102   5.984   0.512  2.2287  0.5169 -1.8495
 5958TIP3   OH239508   4.052   0.372   1.593  0.4379  0.4829 -0.5328
 5958TIP3    H139509   4.147   0.377   1.605  0.3699  0.8465 -0.0973
 5958TIP3    H239510   4.039   0.391   1.500  0.7356  1.3815 -0.4036
 5959TIP3   OH239511   1.983   3.310   1.643 -0.1824 -0.1658  0.4351
 5959TIP3    H139512   1.902   3.260   1.649 -0.2574 -0.3357 -1.4051
 5959TIP3    H239513   2.038   3.260   1.582 -0.5676  2.2888 -2.1372
 5960TIP3   OH239514   0.053   0.567   0.344  0.6010  0.0256 -0.3514
 5960TIP3    H139515  -0.014   0.632   0.323 -1.5073 -1.8626  0.1435
 5960TIP3    H239516   0.010   0.508   0.406  3.4821 -0.0170  1.8486
 5961TIP3   OH239517   5.139   3.545   2.361  0.1661 -0.3128  0.1532
 5961TIP3    H139518   5.211   3.512   2.414 -0.4213  0.0750  1.2198
 5961TIP3    H239519   5.060   3.530   2.413 -0.2891  1.2922  0.0123
 5962TIP3   OH239520   5.383   6.407   7.433  0.1829  0.1734  0.4467
 5962TIP3    H139521   5.449   6.377   7.496 -0.5181 -0.6959  0.7892
 5962TIP3    H239522   5.300   6.383   7.473 -0.3165  0.6378 -0.3003
 5963TIP3   OH239523   1.029   4.197   8.587  0.0516  0.2030 -0.4827
 5963TIP3    H139524   1.035   4.139   8.663  1.2946 -0.1820 -0.8429
 5963TIP3    H239525   0.966   4.264   8.612 -1.4696 -1.3129 -0.0558
 5964TIP3   OH239526   5.028   0.137   0.897  0.5493  0.5045 -0.3832
 5964TIP3    H139527   4.937   0.165   0.909 -0.6675 -0.8984 -4.6711
 5964TIP3    H239528   5.068   0.208   0.846  1.8519  0.9521  1.1838
 5965TIP3   OH239529   3.755   5.991   1.117  1.0219  0.0033  0.1691
 5965TIP3    H139530   3.830   6.010   1.059  0.7740  1.6754  0.3478
 5965TIP3    H239531   3.678   6.010   1.063  0.7841  2.8591  1.3530
 5966TIP3   OH239532   3.731   6.294   8.381 -0.0167  0.1635  0.6274
 5966TIP3    H139533   3.658   6.351   8.355 -0.2748  0.0316  1.0463
 5966TIP3    H239534   3.777   6.276   8.299 -0.5760  0.0812  0.3239
 5967TIP3   OH239535   6.742   4.503   2.240 -0.3611 -0.3063  0.5242
 5967TIP3    H139536   6.764   4.426   2.293 -1.4021 -1.5449 -0.7477
 5967TIP3    H239537   6.736   4.574   2.303 -1.7628 -1.7449  2.1362
 5968TIP3   OH239538   3.261   5.456   0.860  0.3188 -0.1197 -0.3466
 5968TIP3    H139539   3.209   5.381   0.829  0.2398 -0.6688  1.0313
 5968TIP3    H239540   3.212   5.533   0.831 -0.5949 -0.6265 -0.1957
 5969TIP3   OH239541   5.792   1.536   7.234  0.1117  0.6345  0.3022
 5969TIP3    H139542   5.832   1.490   7.308 -1.0586 -1.4972 -0.2908
 5969TIP3    H239543   5.840   1.505   7.157 -0.4137  0.7218 -0.0713
 5970TIP3   OH239544   1.065   0.583   1.561  0.0909  0.4544  0.1280
 5970TIP3    H139545   0.982   0.629   1.549 -0.1897 -0.2384 -0.6643
 5970TIP3    H239546   1.050   0.524   1.634 -0.6951 -0.9261 -1.0955
 5971TIP3   OH239547   2.224   0.707   2.279 -0.3566 -0.2613  0.4266
 5971TIP3    H139548   2.131   0.693   2.295 -0.6417  0.7713 -0.2325
 5971TIP3    H239549   2.260   0.619   2.265 -1.6933 -0.5319 -1.7391
 5972TIP3   OH239550   4.111   3.901   0.703  0.6210 -0.0296  0.2947
 5972TIP3    H139551   4.180   3.964   0.681  1.2062 -0.6674  0.3059
 5972TIP3    H239552   4.129   3.876   0.793  1.1843 -1.2154 -0.1245
 5973TIP3   OH239553   1.266   5.749   8.677 -0.2386 -0.2236 -0.4668
 5973TIP3    H139554   1.219   5.763   8.595  0.2697  0.2090 -0.6918
 5973TIP3    H239555   1.327   5.822   8.683  0.8109 -1.0591 -0.4743
 5974TIP3   OH239556   4.115   3.392   0.729 -0.3707  0.4428 -0.4782
 5974TIP3    H139557   4.136   3.328   0.661  3.8736  1.3639 -0.3045
 5974TIP3    H239558   4.079   3.467   0.682 -1.2160 -0.3866 -1.1864
 5975TIP3   OH239559   2.481   5.544   1.684 -0.0997 -0.0635  0.1979
 5975TIP3    H139560   2.557   5.497   1.651 -0.3720 -0.2621 -0.1618
 5975TIP3    H239561   2.488   5.539   1.779 -0.1196 -0.8150  0.1626
 5976TIP3   OH239562   6.629   1.466   8.323  0.7915 -0.3373  0.0165
 5976TIP3    H139563   6.676   1.448   8.404  0.5218 -0.5145  0.1344
 5976TIP3    H239564   6.697   1.492   8.261  1.0821 -0.8722  0.1088
 5977TIP3   OH239565   6.387   1.916   0.812 -0.8353  0.2154 -0.0119
 5977TIP3    H139566   6.315   1.934   0.873  0.1217  0.3856  1.0994
 5977TIP3    H239567   6.464   1.955   0.853  0.1132 -0.9578 -0.6218
 5978TIP3   OH239568   0.594   5.389   6.835  0.1777 -0.0556 -0.3980
 5978TIP3    H139569   0.660   5.321   6.821  0.8025  0.4344  0.0899
 5978TIP3    H239570   0.595   5.403   6.930 -0.6372 -0.0420 -0.3844
 5979TIP3   OH239571   3.236   0.724   0.085  0.5339  0.0060 -0.1453
 5979TIP3    H139572   3.257   0.774   0.164  1.3497 -0.8237  0.1937
 5979TIP3    H239573   3.307   0.659   0.079  1.3096  0.9601 -2.3629
 5980TIP3   OH239574   0.294   0.767   0.619  0.2107  0.0268 -0.3048
 5980TIP3    H139575   0.211   0.750   0.574 -1.2379 -0.1416  2.2580
 5980TIP3    H239576   0.318   0.855   0.590 -3.6046  2.3257  2.5392
 5981TIP3   OH239577   4.714   3.706   0.549  0.0917 -0.2118 -0.2543
 5981TIP3    H139578   4.703   3.644   0.621 -0.7290  2.4409  2.0722
 5981TIP3    H239579   4.769   3.775   0.584  1.6956  0.0596 -3.0280
 5982TIP3   OH239580   4.950   3.519   2.560 -0.0972 -0.6776 -0.8718
 5982TIP3    H139581   4.950   3.600   2.612 -0.8098 -1.6304  0.6807
 5982TIP3    H239582   4.892   3.460   2.607  1.7726 -2.7344 -0.9527
 5983TIP3   OH239583   3.768   4.559   8.271  0.0528 -0.5754 -0.5266
 5983TIP3    H139584   3.819   4.639   8.285 -1.4317  0.2343  0.5889
 5983TIP3    H239585   3.677   4.590   8.265 -0.8440 -2.3342  2.1715
 5984TIP3   OH239586   3.599   1.153   7.292 -0.4234  0.2788 -0.1620
 5984TIP3    H139587   3.539   1.221   7.262 -1.8949 -0.9385 -0.1078
 5984TIP3    H239588   3.548   1.072   7.288  1.5198 -0.9782 -1.0105
 5985TIP3   OH239589   5.044   6.268   1.506 -0.4444 -0.5327 -0.1112
 5985TIP3    H139590   5.122   6.268   1.451 -1.1486 -1.1505 -1.1439
 5985TIP3    H239591   5.075   6.298   1.591  0.5375  1.1325 -1.0079
 5986TIP3   OH239592   4.114   2.578   7.049 -1.0556 -0.1227  0.2606
 5986TIP3    H139593   4.041   2.573   6.988 -0.6860  0.3949 -0.2332
 5986TIP3    H239594   4.108   2.666   7.087 -1.1680 -0.3702  0.8291
 5987TIP3   OH239595   6.383   1.459   7.040  0.3567  0.2395  0.4521
 5987TIP3    H139596   6.411   1.509   7.117 -1.1085  1.3327  0.3274
 5987TIP3    H239597   6.350   1.526   6.979 -1.7584 -0.8583  0.3240
 5988TIP3   OH239598   0.905   1.736   8.017  0.5805 -0.2151 -0.0798
 5988TIP3    H139599   0.968   1.680   7.971 -1.2350 -1.9218 -0.6222
 5988TIP3    H239600   0.838   1.755   7.952 -0.7426 -0.5346  1.1461
 5989TIP3   OH239601   5.118   1.516   1.077 -0.1733  0.6581  0.1487
 5989TIP3    H139602   5.055   1.582   1.049  0.2223  0.9382 -0.0946
 5989TIP3    H239603   5.091   1.492   1.166 -1.3865 -0.1699 -0.4253
 5990TIP3   OH239604   0.085   3.549   6.436 -0.1587 -0.1838 -0.0307
 5990TIP3    H139605   0.143   3.477   6.463  0.6899 -0.3916 -2.2298
 5990TIP3    H239606   0.015   3.506   6.387  0.7802  0.4927 -2.0617
 5991TIP3   OH239607   3.212   5.434   6.114  0.1756 -0.6379 -0.2231
 5991TIP3    H139608   3.130   5.396   6.142 -0.1654 -1.0819 -1.7088
 5991TIP3    H239609   3.201   5.447   6.019  1.3482  0.4631 -0.2419
 5992TIP3   OH239610   1.910   3.360   0.995  0.1632  0.3674 -0.0996
 5992TIP3    H139611   1.975   3.395   0.934  1.4101 -1.9934 -0.2716
 5992TIP3    H239612   1.918   3.265   0.986 -1.2640 -0.0294  2.0659
 5993TIP3   OH239613   0.057   6.692   7.758 -0.2949  0.5468  0.7029
 5993TIP3    H139614   0.032   6.722   7.846 -0.9320  0.0288  0.7050
 5993TIP3    H239615   0.129   6.749   7.733  0.0145  0.5773  1.6410
 5994TIP3   OH239616   0.389   1.433   7.065  0.3771 -0.3225 -0.3924
 5994TIP3    H139617   0.329   1.415   6.992  1.0224 -1.2686 -0.7166
 5994TIP3    H239618   0.358   1.515   7.103 -1.0827 -0.7658 -0.5856
 5995TIP3   OH239619   3.545   0.665   1.346  0.8194  0.3339  0.4645
 5995TIP3    H139620   3.535   0.656   1.441  0.7714  1.8090  0.6191
 5995TIP3    H239621   3.611   0.734   1.335  1.8273 -0.7521 -0.5873
 5996TIP3   OH239622   3.905   6.717   7.920  0.1739  0.2072 -0.1718
 5996TIP3    H139623   3.971   6.661   7.878  0.1453 -0.4260  0.6093
 5996TIP3    H239624   3.951   6.756   7.995  0.3469  1.6609 -1.0025
 5997TIP3   OH239625   3.592   1.148   2.100  0.0147 -0.3992 -0.0977
 5997TIP3    H139626   3.533   1.132   2.174 -0.5924 -2.3249 -0.9399
 5997TIP3    H239627   3.645   1.068   2.095  1.3295  0.4882 -0.5992
 5998TIP3   OH239628   0.844   6.617   8.840  0.4310 -0.0767  0.5169
 5998TIP3    H139629   0.865   6.660   8.923  1.0432 -3.2097  2.1437
 5998TIP3    H239630   0.929   6.603   8.798  0.2272  0.4217 -0.0763
 5999TIP3   OH239631   5.522   1.624   1.146  0.9059  0.6290 -0.0281
 5999TIP3    H139632   5.580   1.690   1.184  1.0616 -0.1409  1.1250
 5999TIP3    H239633   5.473   1.590   1.221  0.0666  0.1790 -0.7663
 6000TIP3   OH239634   1.570   4.827   0.689 -0.1155 -0.2552 -0.0995
 6000TIP3    H139635   1.594   4.815   0.781  0.2645 -1.7194 -0.3560
 6000TIP3    H239636   1.654   4.838   0.644 -0.2742  0.0481 -0.3227
 6001TIP3   OH239637   1.070   1.421   0.020 -0.4019  0.0165  0.3209
 6001TIP3    H139638   1.006   1.353   0.000 -0.9030  0.9336 -1.3928
 6001TIP3    H239639   1.018   1.495   0.052 -0.2660  0.7867 -1.1394
 6002TIP3   OH239640   1.471   6.418   1.527 -0.2539 -0.2884 -0.2830
 6002TIP3    H139641   1.504   6.495   1.480  1.2127 -0.0347  1.0774
 6002TIP3    H239642   1.382   6.441   1.552  0.2980  1.1551  0.4511
 6003TIP3   OH239643   3.023   3.763   8.586  0.0259  0.5425  0.8116
 6003TIP3    H139644   3.098   3.704   8.582  0.0399  0.4313  2.1543
 6003TIP3    H239645   3.045   3.825   8.656 -0.0588  2.0620 -0.4505
 6004TIP3   OH239646   1.218   2.169   7.401  1.2164  0.7396  0.0007
 6004TIP3    H139647   1.179   2.256   7.412 -0.1941  0.3968 -1.7445
 6004TIP3    H239648   1.297   2.184   7.350  0.9989  1.0118 -0.2610
 6005TIP3   OH239649   2.190   0.167   8.175  0.1349 -0.5695  0.0752
 6005TIP3    H139650   2.195   0.110   8.098 -0.5381  0.0729 -0.4566
 6005TIP3    H239651   2.101   0.156   8.207  0.2682 -0.4631  0.4866
 6006TIP3   OH239652   0.038   1.523   0.495  0.2896 -0.0040 -0.2867
 6006TIP3    H139653  -0.017   1.501   0.571  1.8239 -0.0150  0.8602
 6006TIP3    H239654   0.005   1.608   0.466 -0.2850  0.0299  0.4292
 6007TIP3   OH239655   1.109   5.322   7.775 -0.0041  0.1593  0.3051
 6007TIP3    H139656   1.105   5.326   7.679  1.2412 -0.5527  0.1976
 6007TIP3    H239657   1.018   5.329   7.803 -0.2165  3.4268 -0.7670
 6008TIP3   OH239658   5.876   6.747   1.238 -0.2639  0.3118  0.0591
 6008TIP3    H139659   5.908   6.837   1.233  1.5641 -0.1340  2.2653
 6008TIP3    H239660   5.951   6.693   1.213 -0.9961 -0.6392 -0.1478
 6009TIP3   OH239661   6.530   1.673   1.468 -0.0229  0.0936 -0.2813
 6009TIP3    H139662   6.527   1.746   1.530 -1.6668 -1.9034  2.1843
 6009TIP3    H239663   6.589   1.609   1.508 -0.7905 -1.0783 -0.9463
 6010TIP3   OH239664   2.428   1.989   6.832  0.1094 -0.6615 -0.0468
 6010TIP3    H139665   2.499   1.934   6.865  0.2602 -1.1072 -1.0852
 6010TIP3    H239666   2.413   1.959   6.743 -2.7438 -1.9610  0.7345
 6011TIP3   OH239667   1.485   6.794   2.369 -0.2039 -0.2269 -0.3401
 6011TIP3    H139668   1.488   6.698   2.369  1.1154 -0.2248  1.2704
 6011TIP3    H239669   1.502   6.818   2.278 -1.6981 -1.4991 -1.0166
 6012TIP3   OH239670   1.831   2.681   8.290  0.2564  0.0529  0.2692
 6012TIP3    H139671   1.793   2.764   8.318  0.2159  0.3856 -0.7245
 6012TIP3    H239672   1.925   2.692   8.305  0.1674 -0.0409  0.9167
 6013TIP3   OH239673   6.539   4.376   7.521 -0.7341 -0.0641  0.9153
 6013TIP3    H139674   6.519   4.467   7.499 -0.6001 -0.8635 -3.2670
 6013TIP3    H239675   6.453   4.334   7.528 -0.7888  0.2480  2.6511
 6014TIP3   OH239676   3.768   1.461   0.674 -0.9543 -0.4781 -0.0115
 6014TIP3    H139677   3.854   1.503   0.672 -2.2598  2.4239 -1.0068
 6014TIP3    H239678   3.708   1.531   0.697 -3.2989 -1.8953 -1.4174
 6015TIP3   OH239679   4.462   4.768   0.825 -0.0373 -0.3335  0.0745
 6015TIP3    H139680   4.507   4.851   0.818  0.5022 -0.5170  1.1218
 6015TIP3    H239681   4.510   4.720   0.893 -1.4024 -0.7801  0.7761
 6016TIP3   OH239682   6.634   0.005   7.550 -0.0703 -0.0826  0.4923
 6016TIP3    H139683   6.642  -0.091   7.548 -1.2147 -0.1811  0.2097
 6016TIP3    H239684   6.624   0.026   7.643  0.6504 -0.1856  0.6000
 6017TIP3   OH239685   3.414   3.230   6.284  0.9832  0.6469  0.0753
 6017TIP3    H139686   3.455   3.194   6.206 -0.3736 -0.4255 -0.1706
 6017TIP3    H239687   3.418   3.160   6.348  0.5178  0.9137  0.4046
 6018TIP3   OH239688   3.982   4.159   8.778 -0.8409  0.2992 -0.1915
 6018TIP3    H139689   4.069   4.197   8.763  0.5190 -2.0319  1.2785
 6018TIP3    H239690   3.935   4.227   8.826  1.3117  0.4913  1.8486
 6019TIP3   OH239691   0.449   0.885   8.180  0.0302  0.3252 -0.1486
 6019TIP3    H139692   0.389   0.930   8.120 -0.2280  1.7265  1.1127
 6019TIP3    H239693   0.516   0.848   8.122 -1.4671 -0.3927 -1.4968
 6020TIP3   OH239694   1.558   3.142   1.192 -0.3089  0.6177 -0.2888
 6020TIP3    H139695   1.572   3.161   1.099  0.3835 -1.5391 -0.6861
 6020TIP3    H239696   1.644   3.150   1.232  0.2832 -2.4276 -0.6973
 6021TIP3   OH239697   2.091   1.813   1.117 -0.0386  0.1983  0.4506
 6021TIP3    H139698   2.177   1.778   1.093 -0.2516 -0.2092  0.2759
 6021TIP3    H239699   2.029   1.746   1.088 -0.4564  0.7628  0.0278
 6022TIP3   OH239700   0.697   5.081   7.280  0.2786  0.1592  0.1586
 6022TIP3    H139701   0.678   5.155   7.338  0.6738 -0.3354  0.9294
 6022TIP3    H239702   0.667   5.004   7.327  1.0155 -0.2942 -0.0871
 6023TIP3   OH239703   5.916   0.491   1.854  0.3382  0.0633  0.2265
 6023TIP3    H139704   5.954   0.404   1.857 -0.8760 -0.4729  0.7884
 6023TIP3    H239705   5.840   0.486   1.913 -1.1104  0.8109 -1.4850
 6024TIP3   OH239706   4.495   1.228   1.051  0.0273  0.6281  0.7186
 6024TIP3    H139707   4.579   1.274   1.050  0.6369 -0.4714 -0.0608
 6024TIP3    H239708   4.498   1.171   0.975 -2.0647  1.6558 -0.2019
 6025TIP3   OH239709   2.218   5.838   7.799  0.4404  0.2129 -0.6501
 6025TIP3    H139710   2.242   5.748   7.821 -0.6125 -0.2147 -1.1857
 6025TIP3    H239711   2.211   5.839   7.704  1.0828  1.0352 -0.6974
 6026TIP3   OH239712   4.014   6.260   0.106 -0.0137  0.1033  0.5071
 6026TIP3    H139713   4.099   6.256   0.150 -0.3537  0.5048  1.2135
 6026TIP3    H239714   3.999   6.171   0.074  0.1022 -0.2755  1.4850
 6027TIP3   OH239715   0.864   0.219   7.908  0.1045  0.3669 -0.3723
 6027TIP3    H139716   0.878   0.312   7.925 -0.9162  0.8662 -2.0071
 6027TIP3    H239717   0.909   0.204   7.825  0.4541 -0.6796 -0.0094
 6028TIP3   OH239718   2.366   3.754   1.413  0.6635  0.4710  0.2887
 6028TIP3    H139719   2.415   3.757   1.495  0.8431 -0.9697  0.2569
 6028TIP3    H239720   2.345   3.662   1.400 -0.0371  0.7669 -0.8980
 6029TIP3   OH239721   2.540   2.703   0.337  0.1878 -0.9157  1.1371
 6029TIP3    H139722   2.501   2.649   0.269  4.2100 -1.1457 -1.2981
 6029TIP3    H239723   2.493   2.786   0.331  0.1850 -1.0267 -1.7831
 6030TIP3   OH239724   4.247   4.133   0.769 -0.3898  0.0422 -0.3599
 6030TIP3    H139725   4.258   4.153   0.862  0.4631 -0.3572 -0.3600
 6030TIP3    H239726   4.280   4.211   0.724 -1.0066  0.3230 -0.3284
 6031TIP3   OH239727   0.651   0.920   7.299 -0.1199 -0.4024  0.2377
 6031TIP3    H139728   0.636   0.839   7.349 -0.1212  0.2953  1.4060
 6031TIP3    H239729   0.613   0.989   7.353  0.2373  0.4347 -0.5569
 6032TIP3   OH239730   1.598   2.776   6.871 -0.5648  0.4097 -0.5412
 6032TIP3    H139731   1.632   2.698   6.916 -2.7866 -0.7191 -0.6634
 6032TIP3    H239732   1.652   2.783   6.793  2.5069  1.6222  1.5016
 6033TIP3   OH239733   1.908   4.441   0.626 -0.2385 -0.4372 -0.5022
 6033TIP3    H139734   1.892   4.507   0.693 -2.5880  0.9277 -2.2622
 6033TIP3    H239735   1.903   4.358   0.674  0.9743  0.5196  1.4399
 6034TIP3   OH239736   0.596   3.956   0.080 -0.0740  0.1099 -0.6841
 6034TIP3    H139737   0.546   4.038   0.073  1.4908  1.1975  0.1310
 6034TIP3    H239738   0.572   3.921   0.165  0.5852  0.6959 -0.2395
 6035TIP3   OH239739   0.467   1.848   1.098 -0.0015  0.0632 -0.0228
 6035TIP3    H139740   0.471   1.752   1.099  0.0938  0.0636 -0.3500
 6035TIP3    H239741   0.391   1.869   1.153  0.0313 -0.1969  0.1233
 6036TIP3   OH239742   0.137   1.230   6.006 -0.2539  0.0119  0.0644
 6036TIP3    H139743   0.182   1.188   5.932  1.5724  2.4328 -0.3145
 6036TIP3    H239744   0.115   1.317   5.975 -1.3901  0.3565  1.7124
 6037TIP3   OH239745   6.147   6.317   7.407 -0.3707  0.9601 -1.1561
 6037TIP3    H139746   6.217   6.252   7.418 -1.3509  0.0685 -0.0328
 6037TIP3    H239747   6.143   6.332   7.313  2.1711  1.9871 -1.1819
 6038TIP3   OH239748   3.052   3.782   1.810 -0.0747 -1.1552 -0.2836
 6038TIP3    H139749   3.091   3.811   1.728 -2.5413 -0.5689 -1.3493
 6038TIP3    H239750   3.105   3.823   1.879  0.1900  0.8969 -1.6450
 6039TIP3   OH239751   1.370   5.164   0.669  0.4894  0.3058  0.3848
 6039TIP3    H139752   1.393   5.184   0.578  0.3784 -0.0216  0.2802
 6039TIP3    H239753   1.290   5.214   0.685  1.0545  1.1430  0.6273
 6040TIP3   OH239754   2.301   3.887   8.714 -0.1269  0.4445 -0.7446
 6040TIP3    H139755   2.369   3.858   8.653  1.6338  0.2852  1.1956
 6040TIP3    H239756   2.332   3.860   8.800 -1.0938  3.1818  0.5895
 6041TIP3   OH239757   3.839   0.129   2.225  0.2845 -0.9484 -0.2491
 6041TIP3    H139758   3.810   0.053   2.175  2.3659 -2.7790  1.1828
 6041TIP3    H239759   3.761   0.157   2.273 -1.7885  0.7871 -4.0719
 6042TIP3   OH239760   1.657   4.961   0.221  0.1972 -0.3935 -0.2133
 6042TIP3    H139761   1.571   4.925   0.197 -0.7034  1.2468  0.4551
 6042TIP3    H239762   1.640   5.017   0.296  1.8565  0.0387 -0.1213
 6043TIP3   OH239763   1.080   3.387   7.348 -0.6575  0.0589 -0.0532
 6043TIP3    H139764   1.127   3.304   7.350 -0.1634  0.3367  2.2616
 6043TIP3    H239765   1.071   3.412   7.440 -2.2288  1.7764 -0.6110
 6044TIP3   OH239766   2.770   1.148   8.038  0.5591 -0.4891  0.4090
 6044TIP3    H139767   2.775   1.244   8.039 -1.4529 -0.3384 -0.2585
 6044TIP3    H239768   2.797   1.122   8.126 -0.7163  0.8271  1.2403
 6045TIP3   OH239769   4.391   1.564   6.813 -0.2879  0.1420  0.8056
 6045TIP3    H139770   4.415   1.546   6.723 -0.3804 -1.3066  1.0371
 6045TIP3    H239771   4.439   1.643   6.836 -0.5147  0.7150 -0.5988
 6046TIP3   OH239772   4.133   1.024   2.139  0.4621 -0.2047  0.8232
 6046TIP3    H139773   4.081   0.947   2.119  0.3324 -0.2807  1.4390
 6046TIP3    H239774   4.217   1.009   2.095 -0.3676  0.4005 -1.0808
 6047TIP3   OH239775   4.804   5.050   1.172 -0.2632 -0.5624  0.7690
 6047TIP3    H139776   4.787   5.131   1.125 -1.7721 -0.8639  0.7569
 6047TIP3    H239777   4.856   5.077   1.248  0.6174  0.1773 -0.0698
 6048TIP3   OH239778   0.874   0.062   0.051 -0.1852 -0.3430 -0.4786
 6048TIP3    H139779   0.896   0.036  -0.039  0.8004 -0.0730 -0.3286
 6048TIP3    H239780   0.869   0.158   0.047  1.3135 -0.2152  0.0390
 6049TIP3   OH239781   5.745   4.853   0.515 -0.2387  0.1908  0.5354
 6049TIP3    H139782   5.726   4.836   0.423  1.5301  0.6010  0.0745
 6049TIP3    H239783   5.813   4.920   0.515 -0.6520  0.6816  2.1641
 6050TIP3   OH239784   2.158   1.208   7.964 -0.3374 -0.2310 -0.5925
 6050TIP3    H139785   2.251   1.231   7.963 -0.3810 -0.0559 -0.7941
 6050TIP3    H239786   2.136   1.194   7.872 -1.0006  1.7923 -0.8002
 6051TIP3   OH239787   4.587   4.398   7.895  0.1344 -0.5717 -1.2747
 6051TIP3    H139788   4.650   4.340   7.854  3.2294  2.6617 -1.6131
 6051TIP3    H239789   4.641   4.460   7.944 -2.9948  0.8819  0.6026
 6052TIP3   OH239790   1.811   6.361   7.464 -0.1719  0.3006  0.4595
 6052TIP3    H139791   1.847   6.284   7.420 -0.1942  0.8919 -0.6127
 6052TIP3    H239792   1.878   6.385   7.529 -0.7599 -1.4037  1.7519
 6053TIP3   OH239793   6.550   3.454   0.452 -0.0514  0.2243  0.5620
 6053TIP3    H139794   6.521   3.367   0.427  0.2023 -0.6205  2.9440
 6053TIP3    H239795   6.572   3.447   0.545  0.0736  2.8037  0.8231
 6054TIP3   OH239796   5.944   3.573   7.199 -0.3444  0.6522 -0.6315
 6054TIP3    H139797   5.917   3.501   7.257 -0.3761  0.9921 -0.2186
 6054TIP3    H239798   5.971   3.530   7.118  0.2591  0.1278 -0.1534
 6055TIP3   OH239799   1.117   1.927   6.645 -0.0677 -0.3933  0.2627
 6055TIP3    H139800   1.034   1.914   6.599  1.0098 -1.0022 -1.6210
 6055TIP3    H239801   1.142   1.840   6.675 -0.7742  0.0003  2.1546
 6056TIP3   OH239802   1.251   5.619   0.078 -0.9265  0.4076 -0.0515
 6056TIP3    H139803   1.329   5.651   0.123 -0.3192 -0.2926 -0.5997
 6056TIP3    H239804   1.240   5.678   0.003 -1.0536  0.6320  0.1409
 6057TIP3   OH239805   3.520   0.712   8.560  0.4780  0.0153  0.1147
 6057TIP3    H139806   3.508   0.617   8.561  0.4155  0.0225  0.0680
 6057TIP3    H239807   3.483   0.740   8.476  0.7565  0.0467 -0.0004
 6058TIP3   OH239808   2.979   4.172   0.596 -0.0853  0.2978 -0.3025
 6058TIP3    H139809   2.991   4.140   0.507 -0.4760 -0.5821 -0.0510
 6058TIP3    H239810   2.940   4.098   0.643  1.3662  0.2769  0.9391
 6059TIP3   OH239811   2.594   4.325   1.567 -0.0502 -0.1656  0.6338
 6059TIP3    H139812   2.533   4.261   1.528  0.4180 -0.1595 -0.1248
 6059TIP3    H239813   2.569   4.328   1.659 -2.0019  0.7312  0.1278
 6060TIP3   OH239814   6.097   3.213   1.820 -0.3297  0.1441 -0.0911
 6060TIP3    H139815   6.148   3.161   1.883 -0.2713  0.2755 -0.0290
 6060TIP3    H239816   6.056   3.281   1.874  0.2977  0.6941 -0.2982
 6061TIP3   OH239817   1.048   0.441   8.609  0.0747  0.0753  0.3531
 6061TIP3    H139818   1.086   0.456   8.522 -0.4900  0.6811  0.2040
 6061TIP3    H239819   1.113   0.474   8.670  1.4161 -2.2142  0.2860
 6062TIP3   OH239820   1.279   1.466   0.284  0.3466  0.2560 -0.5149
 6062TIP3    H139821   1.299   1.413   0.207  0.1362 -1.6866  0.7111
 6062TIP3    H239822   1.236   1.406   0.344 -2.0786  2.4044  0.0508
 6063TIP3   OH239823   0.125   4.546   7.527  0.5121 -0.1721 -0.5189
 6063TIP3    H139824   0.141   4.616   7.590 -0.0893  1.4505 -2.0918
 6063TIP3    H239825   0.204   4.543   7.473  1.2170 -1.8618  0.4939
 6064TIP3   OH239826   4.142   1.988   7.593  0.5118 -0.4714 -0.2224
 6064TIP3    H139827   4.084   2.063   7.584  0.0249 -0.5717  1.6292
 6064TIP3    H239828   4.230   2.026   7.596  0.4218 -0.1618 -1.1143
 6065TIP3   OH239829   3.318   0.939   0.909 -0.6631  0.5967  0.6200
 6065TIP3    H139830   3.283   1.000   0.974 -1.0282  1.2406 -0.1669
 6065TIP3    H239831   3.391   0.986   0.869 -0.8786  0.4902  0.0862
 6066TIP3   OH239832   2.377   3.593   0.716 -0.1949  0.3617  0.6030
 6066TIP3    H139833   2.461   3.573   0.758  0.1720 -0.1235 -0.3359
 6066TIP3    H239834   2.361   3.685   0.737  0.9663  0.6876  0.1382
 6067TIP3   OH239835   6.648   2.349   8.433 -0.7907 -0.2219  0.3809
 6067TIP3    H139836   6.584   2.413   8.401  2.2801  2.6013 -0.6651
 6067TIP3    H239837   6.654   2.366   8.527 -0.4560  0.6178  0.2135
 6068TIP3   OH239838   4.570   6.828   7.606  0.6360  0.6838 -0.2221
 6068TIP3    H139839   4.565   6.817   7.511  0.5427 -1.5726 -0.0108
 6068TIP3    H239840   4.478   6.831   7.634  0.6610  1.7667 -0.2141
 6069TIP3   OH239841   2.256   1.724   8.295  0.2268 -0.0694  0.1667
 6069TIP3    H139842   2.299   1.651   8.252  3.3437  1.3007  0.6650
 6069TIP3    H239843   2.257   1.702   8.388  0.6436  0.3078  0.2589
 6070TIP3   OH239844   6.042   5.899   6.885  0.3472 -0.2818  0.0295
 6070TIP3    H139845   5.967   5.886   6.827 -0.1692  1.1782  0.3241
 6070TIP3    H239846   6.102   5.954   6.834  0.6516 -0.4020  0.2584
 6071TIP3   OH239847   3.589   6.457   7.236  0.2994 -0.5174  0.0825
 6071TIP3    H139848   3.527   6.517   7.195  1.1685  1.7913  1.9170
 6071TIP3    H239849   3.535   6.393   7.281 -0.6574 -1.2506 -1.9659
 6072TIP3   OH239850   4.824   3.627   2.041 -0.2018 -0.3453 -0.4935
 6072TIP3    H139851   4.747   3.577   2.015 -0.1135 -1.5007  1.2540
 6072TIP3    H239852   4.803   3.717   2.017 -1.3160 -0.8869 -1.6997
 6073TIP3   OH239853   0.652   2.557   8.416  0.2419  0.3960  0.0591
 6073TIP3    H139854   0.608   2.510   8.345  1.0940  0.5167 -0.5787
 6073TIP3    H239855   0.631   2.649   8.400  1.4810  0.5642 -0.8546
 6074TIP3   OH239856   6.835   0.664   8.315 -0.5777 -1.2589  0.1308
 6074TIP3    H139857   6.904   0.729   8.319 -2.1817  0.5735 -0.2847
 6074TIP3    H239858   6.841   0.616   8.398 -0.4554  0.6174  1.2491
 6075TIP3   OH239859   2.727   3.231   7.341  0.4518 -0.2445  0.3496
 6075TIP3    H139860   2.741   3.167   7.410 -3.9904  0.6708  2.4461
 6075TIP3    H239861   2.687   3.181   7.270  0.1507 -0.3444  0.5893
 6076TIP3   OH239862   4.720   3.088   1.636  0.1591 -0.8101  0.0019
 6076TIP3    H139863   4.809   3.104   1.670 -0.2675 -0.9069  1.2242
 6076TIP3    H239864   4.666   3.153   1.681 -0.7337 -2.1630  0.9649
 6077TIP3   OH239865   3.645   2.309   6.353  0.4457  0.2892  0.0614
 6077TIP3    H139866   3.588   2.239   6.320  2.6591 -1.0453 -1.1901
 6077TIP3    H239867   3.669   2.359   6.275 -1.4077  2.8215  0.9745
 6078TIP3   OH239868   1.010   1.913   0.809  0.6024  0.2322 -0.3466
 6078TIP3    H139869   1.022   1.862   0.889 -0.0849  2.0411  0.9854
 6078TIP3    H239870   0.934   1.874   0.766 -0.0299  0.2394  0.7369
 6079TIP3   OH239871   3.503   1.670   7.770  0.2196 -0.4688  0.4228
 6079TIP3    H139872   3.514   1.614   7.846 -0.5741 -1.8738 -0.4538
 6079TIP3    H239873   3.412   1.700   7.774  0.4609  0.2640  0.5520
 6080TIP3   OH239874   1.081   2.338   0.169 -0.6027 -0.2301  0.3339
 6080TIP3    H139875   1.040   2.253   0.186 -0.7103 -0.6871 -1.8848
 6080TIP3    H239876   1.085   2.344   0.074  0.8234  1.5937  0.4483
 6081TIP3   OH239877   3.948   3.371   8.722 -0.4081 -0.3966 -0.0002
 6081TIP3    H139878   3.967   3.281   8.746  2.7741  0.0378 -0.4312
 6081TIP3    H239879   3.963   3.421   8.802  1.5865  0.0807 -0.6032
 6082TIP3   OH239880   4.519   3.406   7.362  0.1188  0.6899 -0.1952
 6082TIP3    H139881   4.512   3.496   7.330 -0.7721  0.7466  0.1421
 6082TIP3    H239882   4.429   3.376   7.370  0.4015 -0.4694 -0.9477
 6083TIP3   OH239883   3.987   3.319   7.970 -0.1194  0.1244 -0.3999
 6083TIP3    H139884   3.973   3.388   8.035 -0.9688 -0.6608  0.2781
 6083TIP3    H239885   4.070   3.278   7.998  0.5694  1.0607 -1.0063
 6084TIP3   OH239886   3.948   4.689   6.943  0.0939 -0.1974 -0.1439
 6084TIP3    H139887   3.880   4.633   6.906  0.1773 -1.0266  0.9130
 6084TIP3    H239888   3.908   4.776   6.946 -2.6933 -1.3053  4.4277
 6085TIP3   OH239889   3.634   4.544   1.662  0.1156 -0.1177  0.3608
 6085TIP3    H139890   3.686   4.543   1.742  0.4250 -0.5591  0.1584
 6085TIP3    H239891   3.586   4.627   1.666  0.5808  0.1415  0.7119
 6086TIP3   OH239892   6.279   5.668   8.036  0.6046  0.0219 -0.8828
 6086TIP3    H139893   6.233   5.749   8.013 -0.2603 -0.6196 -1.4883
 6086TIP3    H239894   6.364   5.698   8.068  0.6790  1.1361 -2.0083
 6087TIP3   OH239895   1.183   1.352   2.519  0.4744 -0.4012 -0.5107
 6087TIP3    H139896   1.140   1.296   2.455 -1.9731  0.1874  0.5139
 6087TIP3    H239897   1.172   1.308   2.602  0.1326  0.6909  0.0471
 6088TIP3   OH239898   5.017   5.637   8.172 -0.3657 -0.3302  0.1400
 6088TIP3    H139899   5.072   5.565   8.202 -0.2065 -0.7702 -1.1486
 6088TIP3    H239900   5.047   5.655   8.083 -1.1425  0.5884  0.0470
 6089TIP3   OH239901   2.647   4.488   7.492 -0.4066 -0.1486 -0.0904
 6089TIP3    H139902   2.648   4.484   7.587 -1.8631  1.5872  0.0622
 6089TIP3    H239903   2.577   4.429   7.465 -0.0108 -0.6204 -0.1082
 6090TIP3   OH239904   3.043   5.860   7.433 -0.0160 -0.0024 -0.0198
 6090TIP3    H139905   2.962   5.869   7.383  1.0652  3.0052 -1.4501
 6090TIP3    H239906   3.088   5.786   7.392 -1.1337 -0.4490 -0.4896
 6091TIP3   OH239907   5.026   5.005   2.531  0.2664  0.1098  0.2064
 6091TIP3    H139908   5.045   5.098   2.546  0.6477 -0.1025  1.0947
 6091TIP3    H239909   4.963   4.982   2.600 -2.7759  0.5877 -2.1632
 6092TIP3   OH239910   4.215   1.465   1.652  0.0527 -0.5610  0.2537
 6092TIP3    H139911   4.217   1.371   1.636  2.3263 -0.8218  1.6871
 6092TIP3    H239912   4.237   1.504   1.567  1.7724 -1.4679  0.2428
 6093TIP3   OH239913   1.353   5.694   1.143  0.3750 -0.3215 -0.4572
 6093TIP3    H139914   1.356   5.621   1.080  0.9629 -0.0467 -0.7605
 6093TIP3    H239915   1.441   5.697   1.180  0.3119  0.1382 -0.3357
 6094TIP3   OH239916   2.632   2.513   0.484 -0.6214 -0.5928  0.7224
 6094TIP3    H139917   2.602   2.440   0.430 -2.3337 -0.0589  0.9076
 6094TIP3    H239918   2.604   2.591   0.437  0.8338 -0.0194  0.7396
 6095TIP3   OH239919   5.064   3.157   1.026 -0.4443  0.2461  0.5492
 6095TIP3    H139920   5.008   3.148   1.104 -0.5492  1.5484  0.6367
 6095TIP3    H239921   5.127   3.225   1.049  0.8335 -0.7763  0.2232
 6096TIP3   OH239922   1.374   0.663   6.952  0.1254 -0.0921  0.0593
 6096TIP3    H139923   1.394   0.756   6.958  1.3651 -0.4169  1.7024
 6096TIP3    H239924   1.316   0.646   7.026 -1.7417 -0.2825 -1.3783
 6097TIP3   OH239925   0.585   2.152   7.597 -0.4136  0.3157 -0.2190
 6097TIP3    H139926   0.510   2.211   7.597 -1.7634 -1.2929  0.2095
 6097TIP3    H239927   0.556   2.077   7.650  1.5283 -0.3418  0.0032
 6098TIP3   OH239928   4.055   4.053   2.016  0.8881 -1.0822  0.0828
 6098TIP3    H139929   4.013   4.001   2.084  1.4832  0.7775  1.9665
 6098TIP3    H239930   4.017   4.140   2.025  0.5509 -0.9010 -2.4000
 6099TIP3   OH239931   6.294   2.764   6.916 -0.2171  0.0536  0.3275
 6099TIP3    H139932   6.202   2.744   6.933 -0.2812 -0.4286 -0.5590
 6099TIP3    H239933   6.330   2.684   6.878 -0.1449  1.1390 -2.0411
 6100TIP3   OH239934   3.530   6.115   8.431 -0.0262  0.0188 -0.1784
 6100TIP3    H139935   3.575   6.189   8.391 -1.3001  0.3348 -1.0717
 6100TIP3    H239936   3.459   6.154   8.482  0.9251 -0.4452  1.6155
 6101TIP3   OH239937   2.613   5.044   0.799 -0.7467  0.0371  0.0894
 6101TIP3    H139938   2.688   4.984   0.809 -0.8770 -0.3499 -1.1492
 6101TIP3    H239939   2.653   5.131   0.795 -0.2441 -0.2404 -1.6069
 6102TIP3   OH239940   6.571   5.278   7.285 -0.5715 -0.0193 -0.0665
 6102TIP3    H139941   6.580   5.213   7.355  2.4100  1.2788  0.9398
 6102TIP3    H239942   6.556   5.227   7.206  3.7306 -2.2885  0.2869
 6103TIP3   OH239943   4.963   0.779   1.181  0.2098  0.2627 -0.4118
 6103TIP3    H139944   5.010   0.813   1.104  3.5465  0.0901  1.3475
 6103TIP3    H239945   4.959   0.854   1.241 -0.5378 -0.1180  0.0245
 6104TIP3   OH239946   1.125   0.532   7.418 -0.0899  0.1808 -0.1325
 6104TIP3    H139947   1.033   0.536   7.443 -0.3018 -2.4060 -0.2509
 6104TIP3    H239948   1.160   0.458   7.468  1.3209 -0.3853 -1.8678
 6105TIP3   OH239949   3.102   1.518   0.466 -0.1834  0.2111 -0.2389
 6105TIP3    H139950   3.165   1.457   0.505 -0.9266  0.8387  2.0764
 6105TIP3    H239951   3.039   1.462   0.421 -1.0243 -0.8550  2.0864
 6106TIP3   OH239952   5.387   3.450   6.278  0.4575 -0.5636 -0.0997
 6106TIP3    H139953   5.357   3.382   6.219  0.1731 -1.3053  0.8844
 6106TIP3    H239954   5.417   3.404   6.356 -1.1696  0.4918  1.2266
 6107TIP3   OH239955   1.289   5.394   7.962 -0.5751  0.2999  0.2006
 6107TIP3    H139956   1.310   5.319   8.018  1.4279 -1.2978 -2.4535
 6107TIP3    H239957   1.226   5.359   7.898 -0.0269  1.0139 -0.7553
 6108TIP3   OH239958   3.023   5.217   7.161  0.4242 -0.6635  0.0768
 6108TIP3    H139959   2.966   5.254   7.229 -0.2878 -0.7870 -0.4425
 6108TIP3    H239960   2.963   5.178   7.098  1.0272  0.2812 -1.1243
 6109TIP3   OH239961   2.167   4.520   7.096 -0.2379  0.5929 -0.0082
 6109TIP3    H139962   2.141   4.428   7.091 -1.4151  0.9394 -1.1443
 6109TIP3    H239963   2.255   4.522   7.058 -0.6566  0.0712 -1.0673
 6110TIP3   OH239964   0.447   2.904   6.924 -0.1180  0.3869 -0.0712
 6110TIP3    H139965   0.518   2.937   6.978 -1.1563  1.4214  0.6863
 6110TIP3    H239966   0.461   2.945   6.838  1.1208 -0.7093 -0.4305
 6111TIP3   OH239967   1.816   6.544   0.878  0.1623 -0.0083  0.0166
 6111TIP3    H139968   1.896   6.512   0.922 -0.3897 -0.8386  0.4472
 6111TIP3    H239969   1.845   6.565   0.789  1.0016  0.3304  0.3598
 6112TIP3   OH239970   4.991   0.289   7.420 -0.4212  0.3686  0.4094
 6112TIP3    H139971   4.931   0.241   7.478 -0.6636 -0.2582 -0.3379
 6112TIP3    H239972   4.933   0.329   7.354 -0.0283 -0.3226 -0.3757
 6113TIP3   OH239973   5.877   5.102   0.097  0.2072  0.1464 -0.5290
 6113TIP3    H139974   5.932   5.165   0.050  0.5285 -0.6959 -1.2967
 6113TIP3    H239975   5.935   5.062   0.161  0.6798 -1.1750 -1.7400
 6114TIP3   OH239976   2.580   4.045   7.555 -0.6787 -0.4717  0.5841
 6114TIP3    H139977   2.588   4.043   7.460 -1.5374  1.5056  0.4110
 6114TIP3    H239978   2.652   4.102   7.583 -2.2353  1.4992  0.7798
 6115TIP3   OH239979   5.010   2.890   7.310  0.0289 -0.2269 -0.0991
 6115TIP3    H139980   4.976   2.974   7.342  1.0733  0.1670  0.0114
 6115TIP3    H239981   4.950   2.866   7.239  0.7847  1.5624 -1.4106
 6116TIP3   OH239982   5.761   0.008   6.855  0.0659  0.4174 -0.7690
 6116TIP3    H139983   5.788   0.099   6.870  1.0113  0.4383 -2.3194
 6116TIP3    H239984   5.673   0.002   6.893  0.1635  1.8615 -0.2603
 6117TIP3   OH239985   2.760   4.221   7.657  0.0758 -0.8221  0.2788
 6117TIP3    H139986   2.814   4.253   7.584 -0.1275 -1.6162 -0.2385
 6117TIP3    H239987   2.803   4.255   7.735 -0.7864  1.7300 -0.2457
 6118TIP3   OH239988   4.502   3.253   8.834 -0.2655  0.1699  0.6991
 6118TIP3    H139989   4.464   3.299   8.909 -0.7790  0.0498  0.5166
 6118TIP3    H239990   4.541   3.174   8.871 -0.6600  0.0308  0.8185
 6119TIP3   OH239991   0.207   0.836   6.678  0.1567  0.3934  0.4224
 6119TIP3    H139992   0.201   0.926   6.709 -0.8477  0.2284  0.7437
 6119TIP3    H239993   0.237   0.844   6.588  0.8452  1.0010  0.6938
 6120TIP3   OH239994   0.439   0.329   1.942  0.5707 -0.7424  0.0344
 6120TIP3    H139995   0.365   0.348   1.999  1.4626 -1.0036  1.3279
 6120TIP3    H239996   0.516   0.339   1.998  1.6068  0.5943 -1.5309
 6121TIP3   OH239997   4.668   3.934   8.333 -0.1214 -0.3652  0.1305
 6121TIP3    H139998   4.729   3.872   8.373 -0.9255 -1.4676 -0.3090
 6121TIP3    H239999   4.592   3.933   8.391 -0.9186 -1.2692 -0.8944
 6122TIP3   OH240000   0.894   0.812   1.185  0.1244  0.0500  0.2309
 6122TIP3    H140001   0.837   0.747   1.225 -1.7378 -0.2174 -2.5958
 6122TIP3    H240002   0.847   0.894   1.194  0.1764  0.1602 -0.4645
 6123TIP3   OH240003   1.854   5.377   8.586  0.0113  0.3965  0.2657
 6123TIP3    H140004   1.771   5.353   8.545 -0.2630 -0.1061  1.0803
 6123TIP3    H240005   1.879   5.300   8.636 -0.0436  1.2169  1.6183
 6124TIP3   OH240006   1.835   4.865   0.626 -0.2528 -0.2170  0.0959
 6124TIP3    H140007   1.824   4.815   0.546 -0.3927  0.4069 -0.2773
 6124TIP3    H240008   1.843   4.956   0.597 -1.2924  0.1330  0.8440
 6125TIP3   OH240009   6.470   1.834   1.686  0.3366 -0.1681 -0.6850
 6125TIP3    H140010   6.396   1.826   1.747 -0.0229  2.2552 -0.7392
 6125TIP3    H240011   6.547   1.833   1.743  0.0299  1.4474 -0.1844
 6126TIP3   OH240012   6.772   3.821   8.689 -0.7253 -0.1558 -0.1196
 6126TIP3    H140013   6.766   3.901   8.636  0.7909  0.9395  1.2481
 6126TIP3    H240014   6.807   3.851   8.773  0.5849 -2.3759  0.2030
 6127TIP3   OH240015   6.792   4.058   7.551  0.1337  0.4639  0.3661
 6127TIP3    H140016   6.809   4.151   7.542  1.5716  0.1198 -0.8134
 6127TIP3    H240017   6.875   4.022   7.584  0.5693 -0.7691 -1.9175
 6128TIP3   OH240018   1.370   1.807   8.038  0.3599  0.2019  0.2135
 6128TIP3    H140019   1.363   1.713   8.051  0.6864  0.2096  0.4778
 6128TIP3    H240020   1.339   1.822   7.949 -0.7929 -0.0146  0.5634
 6129TIP3   OH240021   1.995   3.427   0.553 -0.3716  0.2430 -0.6434
 6129TIP3    H140022   1.903   3.440   0.574 -1.0293  0.0422 -3.1157
 6129TIP3    H240023   2.041   3.445   0.635 -2.5515  0.8125  0.5302
 6130TIP3   OH240024   0.395   1.102   7.993  0.4884 -0.3567 -0.2714
 6130TIP3    H140025   0.414   1.146   7.909 -1.2385 -0.2028 -0.6194
 6130TIP3    H240026   0.460   1.138   8.054  2.0314 -0.7496 -1.6051
 6131TIP3   OH240027   3.859   5.088   7.243 -0.0416 -0.6469 -0.1568
 6131TIP3    H140028   3.782   5.130   7.282  1.5628  0.5034  2.0053
 6131TIP3    H240029   3.894   5.153   7.182  1.0366  0.2206  1.3363
 6132TIP3   OH240030   1.473   0.764   8.781 -0.3897  0.2019  0.6093
 6132TIP3    H140031   1.550   0.725   8.821  1.2226  2.1661 -0.3819
 6132TIP3    H240032   1.508   0.827   8.718 -2.8025  1.7813  0.7159
 6133TIP3   OH240033   2.015   1.088   6.353 -0.6439 -0.0185  0.2936
 6133TIP3    H140034   2.089   1.084   6.293 -0.7436 -0.8450  0.2130
 6133TIP3    H240035   2.055   1.097   6.440 -0.5167  2.7092  0.0437
 6134TIP3   OH240036   5.530   6.318   7.654 -0.7903 -0.0797  0.5753
 6134TIP3    H140037   5.592   6.275   7.713 -2.1106 -2.1521  0.5321
 6134TIP3    H240038   5.463   6.355   7.712 -1.4385 -1.0512  0.4620
 6135TIP3   OH240039   1.628   5.757   0.467 -0.3289 -0.5069 -0.7663
 6135TIP3    H140040   1.646   5.841   0.426 -0.0187 -1.7595 -3.4308
 6135TIP3    H240041   1.539   5.764   0.501  0.1329  1.2562  0.1789
 6136TIP3   OH240042   2.289   2.333   8.073  0.1025 -0.0603  0.3962
 6136TIP3    H140043   2.261   2.401   8.010  2.6044 -1.1084 -2.0869
 6136TIP3    H240044   2.222   2.265   8.066 -0.0799  0.1977 -0.5448
 6137TIP3   OH240045   2.637   4.584   8.692  0.5148  0.0837  0.2623
 6137TIP3    H140046   2.689   4.511   8.726  1.8808  1.4283  1.1884
 6137TIP3    H240047   2.598   4.624   8.769 -0.2521  0.3139 -0.2383
 6138TIP3   OH240048   6.741   1.008   8.173 -0.4850  0.0550 -0.2328
 6138TIP3    H140049   6.799   0.932   8.181  2.2713  1.9868 -0.3091
 6138TIP3    H240050   6.655   0.976   8.200  0.4215 -3.1882 -0.7825
 6139TIP3   OH240051   6.253   6.392   0.187 -0.1467  0.4692 -0.3727
 6139TIP3    H140052   6.176   6.339   0.166 -0.1466  0.4938 -0.4378
 6139TIP3    H240053   6.218   6.470   0.230 -0.1368  0.3567 -0.1596
 6140TIP3   OH240054   2.329   2.156   8.580 -0.4799  0.1410  0.7716
 6140TIP3    H140055   2.277   2.226   8.619 -1.8373 -0.8911  0.8504
 6140TIP3    H240056   2.285   2.136   8.498 -0.1713 -0.7154  0.8070
 6141TIP3   OH240057   5.599   6.851   0.786  0.1045  0.0258 -0.0415
 6141TIP3    H140058   5.548   6.917   0.833  0.7311 -0.9287  2.1365
 6141TIP3    H240059   5.539   6.815   0.721 -0.6477  1.8106 -0.3780
 6142TIP3   OH240060   1.703   0.481   7.277  0.3392  0.1060 -0.9070
 6142TIP3    H140061   1.728   0.528   7.198  3.0222  0.6684  0.1584
 6142TIP3    H240062   1.786   0.451   7.314 -0.8822 -0.7957  1.2902
 6143TIP3   OH240063   3.433   1.997   7.950 -0.5648 -0.2738 -0.1101
 6143TIP3    H140064   3.506   1.946   7.982 -0.3495  0.1971  0.1622
 6143TIP3    H240065   3.461   2.027   7.863 -0.1223  0.5173  0.2925
 6144TIP3   OH240066   6.032   6.278   1.043  0.3343 -0.0745 -0.2797
 6144TIP3    H140067   6.120   6.306   1.017  0.7866 -0.5219  0.7062
 6144TIP3    H240068   5.992   6.246   0.962  0.7178  1.0563 -0.9267
 6145TIP3   OH240069   2.143   1.597   0.297  0.0208  0.3723  0.2144
 6145TIP3    H140070   2.204   1.648   0.244  2.0467 -0.1150  1.9685
 6145TIP3    H240071   2.181   1.597   0.384 -2.2280 -0.4556  1.2628
 6146TIP3   OH240072   2.744   6.151   7.436  0.2765  0.5924 -0.4901
 6146TIP3    H140073   2.709   6.233   7.402 -0.0744 -0.2791 -2.3707
 6146TIP3    H240074   2.670   6.110   7.481  0.2266  0.9316 -0.2601
 6147TIP3   OH240075   5.775   3.564   0.139  0.0610 -0.1777 -0.0996
 6147TIP3    H140076   5.840   3.582   0.071  0.9285  0.4097  0.8541
 6147TIP3    H240077   5.691   3.567   0.094  0.7048 -1.4270 -1.4556
 6148TIP3   OH240078   2.223   1.388   8.545 -0.4905 -0.3900  0.0815
 6148TIP3    H140079   2.220   1.477   8.581 -0.8828 -0.3898  0.0567
 6148TIP3    H240080   2.312   1.358   8.562 -0.4037 -0.0504  0.2339
 6149TIP3   OH240081   2.160   2.472   1.143 -0.5249  0.0646  0.8588
 6149TIP3    H140082   2.190   2.416   1.072 -0.9417  0.0163  0.7193
 6149TIP3    H240083   2.240   2.515   1.175 -0.5743  1.6490 -0.9737
 6150TIP3   OH240084   0.761   2.215   0.474  0.2216 -0.0636  0.3038
 6150TIP3    H140085   0.713   2.280   0.526  1.9330  1.2498  0.3156
 6150TIP3    H240086   0.829   2.184   0.532  2.6251  1.9442 -1.2394
 6151TIP3   OH240087   3.209   2.240   1.479 -0.0777 -0.4626  0.1762
 6151TIP3    H140088   3.157   2.272   1.553  0.8887 -0.9721  1.1057
 6151TIP3    H240089   3.178   2.291   1.404 -0.6732  0.4797  1.0376
 6152TIP3   OH240090   1.184   5.640   7.988 -0.1529  0.2166  0.7599
 6152TIP3    H140091   1.111   5.660   7.930 -0.0549 -0.0737  0.5301
 6152TIP3    H240092   1.203   5.547   7.971 -0.0049  0.1789  1.1224
 6153TIP3   OH240093   5.888   3.982   1.008 -0.0615 -0.3341  0.1249
 6153TIP3    H140094   5.961   3.920   1.012  1.0837  0.9850  0.1491
 6153TIP3    H240095   5.811   3.929   1.031  0.9896 -1.5659  0.9659
 6154TIP3   OH240096   3.802   3.591   7.472  0.1893 -0.1232  0.3438
 6154TIP3    H140097   3.813   3.503   7.509 -0.3200 -0.6496 -0.7013
 6154TIP3    H240098   3.828   3.650   7.542 -3.5435 -0.9344  2.7341
 6155TIP3   OH240099   6.457   1.228   0.270 -0.3168 -0.4310  0.2311
 6155TIP3    H140100   6.481   1.307   0.221  1.9479 -1.2011 -0.0523
 6155TIP3    H240101   6.482   1.248   0.361  3.3329 -1.7694 -0.2870
 6156TIP3   OH240102   0.194   1.137   6.735  0.3376  0.4849  0.0117
 6156TIP3    H140103   0.202   1.206   6.801 -2.8564  0.8213  0.1987
 6156TIP3    H240104   0.237   1.173   6.658  1.6188  1.2640  1.0367
 6157TIP3   OH240105   1.415   5.287   1.128 -0.2255  0.2431  0.3587
 6157TIP3    H140106   1.499   5.282   1.174 -0.4728  0.1456  0.8044
 6157TIP3    H240107   1.424   5.364   1.071 -1.4157  3.1577  3.6938
 6158TIP3   OH240108   3.910   5.485   2.325 -0.5640 -0.0897 -0.0740
 6158TIP3    H140109   3.967   5.479   2.402 -1.5450  0.8543  0.7642
 6158TIP3    H240110   3.833   5.532   2.356 -0.1606  2.1472 -2.0847
 6159TIP3   OH240111   6.120   5.810   0.872 -0.0212  0.5890  0.4027
 6159TIP3    H140112   6.153   5.829   0.960  0.3622 -1.4329  0.7392
 6159TIP3    H240113   6.198   5.810   0.817  0.4155 -2.2813  0.8615
 6160TIP3   OH240114   4.524   2.575   1.662  0.1334  0.2177 -0.2670
 6160TIP3    H140115   4.613   2.609   1.671  0.4147 -0.9123  1.8006
 6160TIP3    H240116   4.482   2.596   1.745 -0.9207 -0.9387 -0.4819
 6161TIP3   OH240117   5.816   2.197   0.355  0.1738  0.3105  0.2100
 6161TIP3    H140118   5.737   2.143   0.355 -0.7603  1.5664  2.5807
 6161TIP3    H240119   5.835   2.211   0.262  0.6089 -4.1452 -0.6156
 6162TIP3   OH240120   2.949   1.450   8.767  0.1080  0.2121 -0.8091
 6162TIP3    H140121   2.921   1.488   8.683 -0.3655  1.3344 -0.1605
 6162TIP3    H240122   3.016   1.510   8.800 -1.0472  0.8547  0.4906
 6163TIP3   OH240123   1.312   0.495   6.446  0.2693  0.3853  0.9475
 6163TIP3    H140124   1.283   0.585   6.429 -1.1703 -0.4496 -1.5687
 6163TIP3    H240125   1.407   0.501   6.445  0.2432  2.0588  2.2107
 6164TIP3   OH240126   0.354   3.246   7.898 -0.4116  0.5497 -0.2805
 6164TIP3    H140127   0.388   3.165   7.859 -0.6982  1.0695 -1.6571
 6164TIP3    H240128   0.432   3.299   7.914 -0.3249  0.5490 -0.6787
 6165TIP3   OH240129   0.254   0.640   8.109  0.1716 -0.3646  0.1291
 6165TIP3    H140130   0.254   0.736   8.105  3.3959 -0.2857 -1.6311
 6165TIP3    H240131   0.217   0.613   8.025 -0.3415 -0.6881  0.4516
 6166TIP3   OH240132   3.062   6.596   7.102  0.2357  0.1766  0.0347
 6166TIP3    H140133   3.063   6.595   7.007 -0.5898  1.2316  0.0033
 6166TIP3    H240134   3.079   6.687   7.126 -1.1617  0.2469  0.8609
 6167TIP3   OH240135   3.052   1.805   1.736  0.2018 -0.6119  0.1556
 6167TIP3    H140136   3.092   1.812   1.823  1.0546 -1.1083 -0.1885
 6167TIP3    H240137   3.100   1.869   1.683  0.6068 -1.2666 -0.2808
 6168TIP3   OH240138   4.088   1.195   1.183  0.0544  0.6992 -0.3432
 6168TIP3    H140139   4.050   1.282   1.200  1.2840  1.2435 -0.2745
 6168TIP3    H240140   4.015   1.134   1.198 -0.1769  1.4847  2.2578
 6169TIP3   OH240141   6.466   5.694   6.648  0.0289  0.2145  0.2763
 6169TIP3    H140142   6.407   5.744   6.593 -2.4591 -0.3503  2.2426
 6169TIP3    H240143   6.464   5.740   6.732  0.4145 -1.2299  1.1050
 6170TIP3   OH240144   1.689   2.746   0.326 -0.0026 -1.0027  0.5558
 6170TIP3    H140145   1.705   2.670   0.269  2.2739 -0.7289  0.7272
 6170TIP3    H240146   1.776   2.785   0.338 -0.9773  1.0734  1.2730
 6171TIP3   OH240147   1.464   6.372   6.501  0.0235 -0.0515 -0.1527
 6171TIP3    H140148   1.372   6.382   6.476 -0.0124 -0.6214 -0.2527
 6171TIP3    H240149   1.494   6.462   6.518 -0.5225  0.1456 -0.2118
 6172TIP3   OH240150   2.589   3.984   1.074  0.7312  0.1788 -0.4139
 6172TIP3    H140151   2.672   3.975   1.027  0.6813 -0.3056 -0.4096
 6172TIP3    H240152   2.573   4.078   1.076  0.2752  0.1820 -2.1602
 6173TIP3   OH240153   2.845   1.474   1.825  0.1357  0.6075 -0.0249
 6173TIP3    H140154   2.931   1.444   1.797  0.5344  0.8853  0.8872
 6173TIP3    H240155   2.792   1.393   1.828  0.3063  0.4603 -0.7368
 6174TIP3   OH240156   2.709   2.453   1.661 -0.0412 -0.2700 -0.2621
 6174TIP3    H140157   2.766   2.465   1.585 -2.2328 -0.1210 -1.9909
 6174TIP3    H240158   2.673   2.365   1.651  0.5444 -0.7267  1.3130
 6175TIP3   OH240159   1.485   2.881   8.269 -0.3837 -0.0818  0.0924
 6175TIP3    H140160   1.450   2.883   8.358  1.3402  1.6410  0.8006
 6175TIP3    H240161   1.554   2.947   8.269 -0.3651 -0.0062 -2.5585
 6176TIP3   OH240162   5.820   3.473   8.357  0.2481 -0.2498  0.3537
 6176TIP3    H140163   5.777   3.548   8.400  0.1945 -0.0589 -0.0301
 6176TIP3    H240164   5.748   3.425   8.317 -0.1678 -2.3305  3.2676
 6177TIP3   OH240165   4.403   1.559   2.348 -0.6940 -0.9590 -0.0743
 6177TIP3    H140166   4.378   1.650   2.362  0.5570 -0.4148 -1.1356
 6177TIP3    H240167   4.339   1.508   2.398 -0.9410  0.5229  1.1981
 6178TIP3   OH240168   1.790   4.656   7.139  0.1937  0.1396 -0.0373
 6178TIP3    H140169   1.795   4.568   7.104 -0.6391 -0.2542  0.7952
 6178TIP3    H240170   1.731   4.649   7.214 -0.1951  1.4782 -0.1925
 6179TIP3   OH240171   1.033   5.521   0.311  0.4087  0.1384  0.0010
 6179TIP3    H140172   1.078   5.590   0.263  1.4083 -0.4938 -0.0048
 6179TIP3    H240173   0.943   5.550   0.317  0.6333  1.0209 -0.7772
 6180TIP3   OH240174   5.239   2.164   1.557 -0.0947 -0.3145  0.0900
 6180TIP3    H140175   5.154   2.208   1.561 -0.1722 -0.0623 -2.7319
 6180TIP3    H240176   5.284   2.206   1.484  1.5370 -2.0661  0.0237
 6181TIP3   OH240177   6.270   0.645   1.830  0.2404 -0.2904  0.1192
 6181TIP3    H140178   6.328   0.570   1.835  0.2021 -0.3354 -0.1488
 6181TIP3    H240179   6.324   0.715   1.792  0.2880 -0.1684  0.4029
 6182TIP3   OH240180   1.958   6.763   8.035 -0.0840 -0.2747  0.0812
 6182TIP3    H140181   1.909   6.697   7.986  1.0190 -0.4084 -0.9010
 6182TIP3    H240182   1.958   6.840   7.977  0.0235  0.0457  0.5042
 6183TIP3   OH240183   4.854   2.834   8.159  0.1852  0.2571  0.1893
 6183TIP3    H140184   4.811   2.821   8.074 -2.1216 -0.3579  1.3735
 6183TIP3    H240185   4.821   2.763   8.214 -1.3595  2.7071  2.6651
 6184TIP3   OH240186   5.605   3.648   8.182 -0.0945  0.5573  0.4741
 6184TIP3    H140187   5.625   3.554   8.188  0.8352  0.6703 -0.5155
 6184TIP3    H240188   5.610   3.667   8.088 -1.9628  1.2657  0.4750
 6185TIP3   OH240189   5.166   1.185   6.697 -0.3189  0.0378  0.3951
 6185TIP3    H140190   5.116   1.217   6.623 -1.2304  0.8935  1.3394
 6185TIP3    H240191   5.157   1.090   6.693 -0.6716  0.0974 -0.3661
 6186TIP3   OH240192   3.018   1.170   0.513  0.3325  0.1162  0.4795
 6186TIP3    H140193   2.933   1.214   0.510  0.2249 -0.0894  0.4614
 6186TIP3    H240194   3.033   1.153   0.606 -0.0357 -0.5890  0.4151
 6187TIP3   OH240195   2.780   0.128   8.245 -0.1663 -0.3466 -0.3171
 6187TIP3    H140196   2.783   0.050   8.190  0.1180 -0.3943 -0.2364
 6187TIP3    H240197   2.864   0.128   8.292  0.6514  1.0077 -1.6793
 6188TIP3   OH240198   4.433   3.570   6.111 -0.2347 -0.2293 -0.4431
 6188TIP3    H140199   4.479   3.487   6.100 -1.0254 -0.5582 -1.5010
 6188TIP3    H240200   4.355   3.548   6.163  0.0948  0.0620  0.1842
 6189TIP3   OH240201   5.109   5.995   0.583 -0.2590  0.2241  0.4209
 6189TIP3    H140202   5.040   6.060   0.573  1.0915  1.4212 -2.5438
 6189TIP3    H240203   5.081   5.922   0.527  0.0193 -0.0664  0.6606
 6190TIP3   OH240204   6.183   6.483   8.548  0.5000 -0.7481  0.1897
 6190TIP3    H140205   6.224   6.506   8.465  0.0309  0.0540  0.1640
 6190TIP3    H240206   6.089   6.489   8.531  0.3925 -1.0983  0.6379
 6191TIP3   OH240207   2.766   5.777   7.361 -0.4027  0.3026 -0.3576
 6191TIP3    H140208   2.806   5.711   7.417  0.4369 -0.8838 -2.2432
 6191TIP3    H240209   2.711   5.728   7.301 -0.6146  1.4266 -1.1260
 6192TIP3   OH240210   3.192   4.377   8.333 -0.1225  0.1136  0.0766
 6192TIP3    H140211   3.248   4.309   8.371 -0.1152 -0.9604 -1.7340
 6192TIP3    H240212   3.253   4.447   8.309 -0.1195  0.7815  1.8698
 6193TIP3   OH240213   5.486   6.688   7.753 -0.8827 -0.0250  0.5313
 6193TIP3    H140214   5.565   6.659   7.706  0.5188 -1.3076  3.4405
 6193TIP3    H240215   5.491   6.783   7.751 -0.1473 -0.0584 -0.6651
 6194TIP3   OH240216   2.050   1.126   1.152  0.1807 -0.1463  0.5626
 6194TIP3    H140217   2.000   1.128   1.070  1.4951 -0.7870 -0.2995
 6194TIP3    H240218   1.991   1.084   1.215 -0.6688 -0.1012 -0.1837
 6195TIP3   OH240219   2.774   3.334   0.192 -0.3031  0.0003 -0.4263
 6195TIP3    H140220   2.751   3.249   0.154  1.0149 -0.4616 -0.2558
 6195TIP3    H240221   2.813   3.383   0.119  0.1135 -0.0297 -0.2287
 6196TIP3   OH240222   0.634   0.375   2.114 -0.1130 -0.0430 -0.4247
 6196TIP3    H140223   0.604   0.401   2.201 -0.8637  0.8290 -0.9296
 6196TIP3    H240224   0.729   0.365   2.124  0.2199  2.6167 -0.0681
 6197TIP3   OH240225   3.888   1.582   2.365  0.4319  0.1239  0.2298
 6197TIP3    H140226   3.831   1.645   2.409 -0.0591 -0.4247  0.3936
 6197TIP3    H240227   3.855   1.577   2.276  0.7034  0.3753  0.1149
 6198TIP3   OH240228   5.070   3.308   0.128 -0.1305  0.3593 -0.0321
 6198TIP3    H140229   5.010   3.376   0.096  0.9815  1.7518  0.7535
 6198TIP3    H240230   5.149   3.356   0.154  0.4349 -1.1640  1.1766
 6199TIP3   OH240231   1.547   1.656   0.672 -0.4992  0.2483  0.0771
 6199TIP3    H140232   1.543   1.602   0.751  1.7021 -1.9025 -1.1303
 6199TIP3    H240233   1.513   1.599   0.602  1.1702  0.6515 -1.1282
 6200TIP3   OH240234   0.421   5.960   0.696 -0.2584 -0.4212 -0.5769
 6200TIP3    H140235   0.327   5.980   0.701 -0.1529 -0.1167  0.8595
 6200TIP3    H240236   0.463   6.044   0.714  0.2256 -1.1541  2.1610
 6201TIP3   OH240237   5.984   1.854   2.054  0.1852  0.2812  0.1720
 6201TIP3    H140238   5.968   1.783   1.993 -0.0569  0.1122  0.4321
 6201TIP3    H240239   6.042   1.816   2.121 -2.3771 -0.6167  2.0334
 6202TIP3   OH240240   5.434   3.046   0.481 -0.3646  0.2281 -0.2788
 6202TIP3    H140241   5.344   3.047   0.447 -0.4107  0.0764 -0.1599
 6202TIP3    H240242   5.428   3.095   0.563 -0.8435 -1.8659  1.0139
 6203TIP3   OH240243   3.864   3.174   6.170 -0.2298 -0.1053  0.3840
 6203TIP3    H140244   3.904   3.095   6.134  0.6588 -0.1734  1.4633
 6203TIP3    H240245   3.937   3.227   6.200 -0.8741 -0.4869  2.9196
 6204TIP3   OH240246   2.604   6.175   1.555 -0.5549 -0.6697 -0.6987
 6204TIP3    H140247   2.601   6.115   1.480 -0.3072 -0.3207 -0.9953
 6204TIP3    H240248   2.641   6.256   1.519 -1.0230 -0.2901 -0.3344
 6205TIP3   OH240249   2.168   6.146   7.661 -0.0942 -0.3207 -0.1886
 6205TIP3    H140250   2.250   6.138   7.708 -0.6038 -0.1008  0.7744
 6205TIP3    H240251   2.192   6.144   7.568  0.9877 -0.2281  0.0825
 6206TIP3   OH240252   1.311   5.486   7.473 -0.2796 -0.1918  0.0436
 6206TIP3    H140253   1.344   5.494   7.562  1.1500 -0.7602 -0.3965
 6206TIP3    H240254   1.322   5.573   7.435  0.2291 -0.2358  0.0775
 6207TIP3   OH240255   1.403   3.440   7.529 -0.2851 -0.3803  0.0115
 6207TIP3    H140256   1.320   3.454   7.575 -0.0889  0.6606  0.0835
 6207TIP3    H240257   1.408   3.345   7.516 -1.6467 -0.4282 -0.2933
 6208TIP3   OH240258   1.182   5.064   1.197 -0.4313  0.3497  0.2072
 6208TIP3    H140259   1.278   5.066   1.200 -0.4244  3.1173  1.1921
 6208TIP3    H240260   1.158   5.144   1.150 -2.2975 -0.7037 -0.7509
 6209TIP3   OH240261   3.779   0.053   6.345 -0.7537  0.0526 -0.4934
 6209TIP3    H140262   3.687   0.053   6.372 -0.6861 -1.9505 -0.0832
 6209TIP3    H240263   3.776   0.056   6.250 -1.2771 -0.6269 -0.5050
 6210TIP3   OH240264   1.102   3.971   7.958  0.0008  0.2714  0.0481
 6210TIP3    H140265   1.096   3.878   7.980  1.9728  0.1076  0.0688
 6210TIP3    H240266   1.085   4.016   8.041 -0.1607 -0.0930  0.2160
 6211TIP3   OH240267   6.393   6.819   0.844  0.0906 -0.7388 -0.1136
 6211TIP3    H140268   6.464   6.868   0.886 -0.3375  0.4894 -0.7865
 6211TIP3    H240269   6.397   6.843   0.752 -1.6368 -0.0854 -0.0506
 6212TIP3   OH240270   3.900   4.440   7.794 -0.2922  0.2338  0.0558
 6212TIP3    H140271   3.821   4.443   7.848 -0.9261  3.5408 -0.8302
 6212TIP3    H240272   3.878   4.493   7.717  1.4079 -2.2065 -2.3350
 6213TIP3   OH240273   5.808   5.907   1.010 -0.2805  0.0591 -0.0290
 6213TIP3    H140274   5.902   5.901   1.025 -0.1582 -0.6471 -1.0215
 6213TIP3    H240275   5.790   5.843   0.941 -1.3096  0.9648 -0.6391
 6214TIP3   OH240276   0.204   0.074   7.047  0.0566  0.5423  0.1642
 6214TIP3    H140277   0.289   0.029   7.046  1.5115  3.0788 -1.9083
 6214TIP3    H240278   0.164   0.052   6.963  0.6130  2.6498 -0.7087
 6215TIP3   OH240279   4.659   5.011   0.904 -1.0863 -0.5616  0.3646
 6215TIP3    H140280   4.614   5.096   0.907 -0.9459 -0.4338 -0.7045
 6215TIP3    H240281   4.684   4.994   0.994  0.3402  1.3479  0.4154
 6216TIP3   OH240282   3.381   1.833   7.543  0.1989  0.7394 -0.0734
 6216TIP3    H140283   3.441   1.810   7.472  0.2472 -0.8767  0.4447
 6216TIP3    H240284   3.429   1.898   7.594  1.1354  0.1919 -0.2147
 6217TIP3   OH240285   2.491   1.024   8.665  0.1642 -0.2285  0.5394
 6217TIP3    H140286   2.396   1.026   8.657  0.2809  2.5500 -3.2192
 6217TIP3    H240287   2.519   0.954   8.606  0.4457  0.5434 -0.2698
 6218TIP3   OH240288   0.026   5.471   6.571 -0.3255 -0.2720 -0.0445
 6218TIP3    H140289  -0.034   5.465   6.497 -1.5696  0.1122  0.9092
 6218TIP3    H240290   0.113   5.459   6.532 -0.9868 -0.5978 -1.4816
 6219TIP3   OH240291   5.460   6.828   8.106 -0.1543  0.2016  0.3763
 6219TIP3    H140292   5.546   6.788   8.121  0.8897  2.0251 -0.4092
 6219TIP3    H240293   5.457   6.841   8.011 -2.6347 -2.5621 -0.0584
 6220TIP3   OH240294   5.856   5.479   8.379 -0.3260  0.0734 -0.2240
 6220TIP3    H140295   5.926   5.507   8.439 -1.3029  0.5721  0.7230
 6220TIP3    H240296   5.861   5.540   8.306 -0.7249  1.0936  0.5665
 6221TIP3   OH240297   4.320   3.985   1.168 -0.1925 -0.1417  0.3778
 6221TIP3    H140298   4.322   3.982   1.264  0.3786 -2.1940  0.3568
 6221TIP3    H240299   4.264   3.911   1.144 -2.4904  1.8693 -0.8787
 6222TIP3   OH240300   3.493   2.477   2.331  0.3406  0.3240 -0.4892
 6222TIP3    H140301   3.451   2.464   2.416  0.4234  2.9461  0.0227
 6222TIP3    H240302   3.567   2.416   2.332 -0.5594 -0.8225  0.6233
 6223TIP3   OH240303   0.534   2.488   8.170  0.0703  0.6497  0.2379
 6223TIP3    H140304   0.603   2.542   8.131 -1.0137  1.0027 -1.2778
 6223TIP3    H240305   0.457   2.545   8.172 -0.4716 -0.0856  0.8735
 6224TIP3   OH240306   2.352   4.386   0.126  0.1780 -0.2534 -0.2595
 6224TIP3    H140307   2.278   4.349   0.175  0.2663 -0.8691 -0.5909
 6224TIP3    H240308   2.312   4.438   0.057 -0.0170  2.6695  1.8694
 6225TIP3   OH240309   0.618   3.618   6.962 -0.1354 -0.2712 -0.1442
 6225TIP3    H140310   0.553   3.579   6.904 -1.0084 -0.5428  0.9922
 6225TIP3    H240311   0.615   3.711   6.944 -0.2344 -0.3796 -0.6896
 6226TIP3   OH240312   3.405   6.183   7.718 -0.3326 -0.2395  0.2200
 6226TIP3    H140313   3.309   6.175   7.717 -0.3846 -0.4011  2.3131
 6226TIP3    H240314   3.420   6.278   7.725 -0.4471 -0.3171  2.0944
 6227TIP3   OH240315   4.858   2.268   0.655 -0.1772  0.6889 -0.5308
 6227TIP3    H140316   4.889   2.357   0.665 -1.5224  1.0485  0.9633
 6227TIP3    H240317   4.934   2.213   0.675  0.5722  1.4708 -1.1541
 6228TIP3   OH240318   2.044   1.997   7.072 -0.2160  0.3154 -0.4569
 6228TIP3    H140319   2.052   1.940   6.996 -3.3278  1.2948 -1.6760
 6228TIP3    H240320   2.050   2.086   7.035 -3.2442  0.8414  0.0979
 6229TIP3   OH240321   6.083   0.249   6.883  0.0273 -0.4821  0.2911
 6229TIP3    H140322   6.060   0.201   6.963 -0.0074  2.0859  1.9099
 6229TIP3    H240323   6.018   0.318   6.876  0.9279  0.2776 -1.1444
 6230TIP3   OH240324   6.865   3.907   1.934  0.4088 -0.2365 -0.8614
 6230TIP3    H140325   6.946   3.899   1.985 -0.0995 -0.0424 -0.0156
 6230TIP3    H240326   6.868   3.996   1.898 -0.5256  0.6420  1.1075
 6231TIP3   OH240327   0.410   3.321   6.362  0.0745  0.3218 -0.3674
 6231TIP3    H140328   0.412   3.417   6.365  1.3731  0.3410 -0.9014
 6231TIP3    H240329   0.343   3.296   6.425  1.8714  1.4936  2.1912
 6232TIP3   OH240330   6.572   5.484   7.697  0.2205 -0.9930  0.1212
 6232TIP3    H140331   6.486   5.513   7.727  0.5905 -1.0076  1.2247
 6232TIP3    H240332   6.597   5.414   7.758  2.1531  0.7847  1.4812
 6233TIP3   OH240333   3.953   1.462   0.384 -0.4349 -0.0485 -0.1420
 6233TIP3    H140334   3.865   1.499   0.377  0.1290  1.1650 -0.9889
 6233TIP3    H240335   3.999   1.491   0.305  1.0063  0.0832  0.7011
 6234TIP3   OH240336   4.317   5.987   1.644  0.7519 -0.2482 -0.2617
 6234TIP3    H140337   4.397   5.996   1.696  1.6576 -1.2957 -1.4101
 6234TIP3    H240338   4.336   6.033   1.562  0.7919 -1.8165 -1.1628
 6235TIP3   OH240339   6.212   2.138   7.078 -0.0744 -0.3596  0.1255
 6235TIP3    H140340   6.136   2.172   7.126 -0.2066 -0.6095  0.0936
 6235TIP3    H240341   6.229   2.203   7.010  0.2749  0.1299  0.6749
 6236TIP3   OH240342   4.016   2.447   0.525 -0.7339  0.0559 -0.8397
 6236TIP3    H140343   4.001   2.355   0.547 -2.9824  1.0473  2.6288
 6236TIP3    H240344   4.103   2.467   0.561 -1.7524  0.0457  1.8729
 6237TIP3   OH240345   5.990   5.564   0.146  0.6748  0.0143 -0.2748
 6237TIP3    H140346   5.898   5.561   0.173  1.2026 -0.9551  1.5825
 6237TIP3    H240347   6.021   5.649   0.176  0.7522 -0.2759  0.5003
 6238TIP3   OH240348   0.787   0.201   5.698  0.2286 -0.0478 -0.9764
 6238TIP3    H140349   0.810   0.143   5.770  0.2118  1.0090 -0.0974
 6238TIP3    H240350   0.752   0.143   5.630  0.1220 -1.0411 -0.0859
 6239TIP3   OH240351   6.542   5.952   6.344 -0.3015 -0.0272  0.5087
 6239TIP3    H140352   6.477   5.910   6.400  0.3595 -0.8277  0.7091
 6239TIP3    H240353   6.560   6.036   6.386 -1.2656  0.2526  0.3902
 6240TIP3   OH240354   3.283   5.737   6.996  0.1437  0.2601  0.1377
 6240TIP3    H140355   3.195   5.752   6.961 -0.6441 -3.7210 -0.0877
 6240TIP3    H240356   3.268   5.709   7.087  1.3875  1.3465  0.7061
 6241TIP3   OH240357   0.501   1.529   8.597 -1.0865 -0.3422  0.5641
 6241TIP3    H140358   0.472   1.553   8.509 -0.0983 -1.0493  0.0277
 6241TIP3    H240359   0.421   1.529   8.650 -1.5434  1.1303 -0.0785
 6242TIP3   OH240360   1.675   3.752   7.246  0.0062 -0.4908  0.4089
 6242TIP3    H140361   1.584   3.753   7.276  0.2028 -0.2815  1.0145
 6242TIP3    H240362   1.710   3.837   7.273  0.0860 -0.1335 -0.7813
 6243TIP3   OH240363   5.178   0.238   8.384  0.2305 -0.0685 -0.0503
 6243TIP3    H140364   5.264   0.229   8.344  0.8485  0.1936  1.2021
 6243TIP3    H240365   5.120   0.188   8.325  1.4390 -1.3569 -0.2073
 6244TIP3   OH240366   2.395   0.751   0.615  0.0106 -0.1324 -0.0934
 6244TIP3    H140367   2.302   0.761   0.595  0.6982  4.0497 -2.3501
 6244TIP3    H240368   2.437   0.741   0.530  1.7467 -1.6167  0.8744
 6245TIP3   OH240369   6.538   3.397   6.753 -0.0577  0.7942  0.6706
 6245TIP3    H140370   6.509   3.310   6.724  2.5376 -0.5687  1.8962
 6245TIP3    H240371   6.504   3.405   6.842 -0.4864  1.1620  0.4788
 6246TIP3   OH240372   6.583   2.118   8.032 -0.2177 -0.2278 -0.0556
 6246TIP3    H140373   6.566   2.181   8.102  0.7049 -0.2668  0.2175
 6246TIP3    H240374   6.670   2.082   8.052 -1.0942 -2.2664  0.3041
 6247TIP3   OH240375   2.317   1.884   8.677 -0.0162  0.7805  0.4042
 6247TIP3    H140376   2.301   1.976   8.654  0.7004  0.6504 -0.6662
 6247TIP3    H240377   2.311   1.883   8.773  3.1331  2.6382  0.7639
 6248TIP3   OH240378   2.957   4.657   0.392  0.4074 -0.2359 -0.0561
 6248TIP3    H140379   2.909   4.608   0.324  0.0533  0.6023 -0.4219
 6248TIP3    H240380   2.892   4.672   0.461 -0.0540  1.3747 -0.7896
 6249TIP3   OH240381   4.534   3.907   2.119  0.0933 -0.0733 -0.0619
 6249TIP3    H140382   4.503   3.965   2.188 -0.7482 -0.8395  0.2218
 6249TIP3    H240383   4.455   3.868   2.083  0.6957 -2.6339  1.1512
 6250TIP3   OH240384   1.924   4.287   1.237  0.6252  0.6041 -0.7349
 6250TIP3    H140385   1.856   4.338   1.194  0.0685  0.0133 -0.5626
 6250TIP3    H240386   1.879   4.240   1.307  1.2327  0.3146 -0.5252
 6251TIP3   OH240387   3.592   3.977   7.464  0.4264  0.5231 -0.6321
 6251TIP3    H140388   3.595   3.953   7.557 -1.2499  0.1294 -0.6639
 6251TIP3    H240389   3.666   3.930   7.426  0.2650 -0.4914  0.2476
 6252TIP3   OH240390   4.071   6.753   7.220 -0.5655  0.4026  0.4275
 6252TIP3    H140391   4.136   6.734   7.287 -1.7007 -3.0833  0.7335
 6252TIP3    H240392   4.118   6.805   7.154  2.1007 -0.7367  1.3085
 6253TIP3   OH240393   5.206   5.457   0.864  0.0693  0.1849 -0.5569
 6253TIP3    H140394   5.184   5.540   0.906 -1.4843  0.3656 -1.6508
 6253TIP3    H240395   5.138   5.397   0.894  0.5499 -0.4209 -0.6569
 6254TIP3   OH240396   5.250   0.380   0.022 -0.3697 -0.3178 -0.4702
 6254TIP3    H140397   5.279   0.471   0.023 -0.5865 -0.2398 -0.9445
 6254TIP3    H240398   5.219   0.365  -0.067 -3.1397  0.0323  0.3323
 6255TIP3   OH240399   1.516   4.682   8.694 -0.4662 -0.2895 -0.1515
 6255TIP3    H140400   1.498   4.725   8.610 -1.8063 -0.1834  0.1583
 6255TIP3    H240401   1.583   4.617   8.675 -0.4003  0.0773 -1.2005
 6256TIP3   OH240402   3.561   0.822   1.909 -0.2036 -0.2301  0.2197
 6256TIP3    H140403   3.651   0.843   1.885 -0.0484 -0.6281  0.4498
 6256TIP3    H240404   3.512   0.903   1.892  0.1038 -0.1619 -0.3813
 6257TIP3   OH240405   4.843   0.790   8.756  0.3070  0.4483 -0.4956
 6257TIP3    H140406   4.859   0.699   8.783  1.8950  1.2505  1.4995
 6257TIP3    H240407   4.758   0.811   8.794  0.5991  0.2353  0.3021
 6258TIP3   OH240408   3.772   4.012   1.555 -0.0420 -0.0504 -0.1427
 6258TIP3    H140409   3.834   4.040   1.488 -1.5094  0.9313 -1.1560
 6258TIP3    H240410   3.785   4.074   1.628 -2.2802  2.6058 -1.8061
 6259TIP3   OH240411   6.565   0.845   1.031  0.2112 -0.1064 -0.0567
 6259TIP3    H140412   6.631   0.862   0.964 -0.0711 -1.0235 -0.5779
 6259TIP3    H240413   6.595   0.895   1.107  0.4917  1.0108 -0.8826
 6260TIP3   OH240414   0.621   2.091   8.463 -0.5681 -0.4896 -0.1602
 6260TIP3    H140415   0.585   2.003   8.472  2.1030 -1.6793 -0.0837
 6260TIP3    H240416   0.703   2.079   8.415 -0.0384  1.9321 -0.0071
 6261TIP3   OH240417   4.432   2.066   7.636 -0.3097 -0.0250  0.1615
 6261TIP3    H140418   4.395   2.048   7.723  0.7163 -0.9310  0.4397
 6261TIP3    H240419   4.510   2.119   7.654 -0.7162  0.7718 -0.3196
 6262TIP3   OH240420   2.430   5.999   0.883  0.1086 -0.3702 -0.6896
 6262TIP3    H140421   2.468   6.030   0.965  0.9201  0.9108 -1.5375
 6262TIP3    H240422   2.454   5.906   0.880  0.1333 -0.4233  0.4683
 6263TIP3   OH240423   6.545   5.652   1.381  0.1580 -0.0914 -0.7454
 6263TIP3    H140424   6.613   5.598   1.340 -0.1288 -0.0620 -1.2679
 6263TIP3    H240425   6.555   5.635   1.475  0.4984 -0.5453 -0.8576
 6264TIP3   OH240426   6.206   4.640   0.412  0.1100  0.6422  0.0787
 6264TIP3    H140427   6.280   4.583   0.432  0.1641  1.1077  1.2900
 6264TIP3    H240428   6.229   4.725   0.450 -0.6625  1.0372 -0.3073
 6265TIP3   OH240429   4.852   3.982   0.224  0.3545  0.2403 -0.0793
 6265TIP3    H140430   4.770   3.955   0.184  0.4573  0.1888 -0.2582
 6265TIP3    H240431   4.854   3.937   0.309  0.8016 -0.8085 -0.6217
 6266TIP3   OH240432   5.308   4.976   6.586 -0.2438 -0.2576 -0.1015
 6266TIP3    H140433   5.258   5.041   6.635 -2.8740  0.2928 -3.2057
 6266TIP3    H240434   5.373   5.027   6.538  0.8759 -0.5468  1.0581
 6267TIP3   OH240435   6.757   4.787   0.680 -0.0767 -0.0215 -0.1423
 6267TIP3    H140436   6.776   4.715   0.619  0.1690  1.6971 -2.2180
 6267TIP3    H240437   6.835   4.793   0.735 -0.0657 -1.2692  0.0009
 6268TIP3   OH240438   4.980   4.022   0.906 -0.8917  0.7030 -0.3833
 6268TIP3    H140439   4.954   4.114   0.914  1.7485  1.3765  3.1978
 6268TIP3    H240440   5.071   4.021   0.936 -1.1237 -3.2138  0.7554
 6269TIP3   OH240441   4.095   2.347   1.099 -0.0142 -0.0794  0.5624
 6269TIP3    H140442   4.050   2.262   1.095  0.2568 -0.2917  1.7743
 6269TIP3    H240443   4.078   2.379   1.187  2.0903 -0.0949  1.0112
 6270TIP3   OH240444   1.381   4.229   7.968  0.1108 -1.1071  0.8501
 6270TIP3    H140445   1.353   4.180   8.046  0.3322 -2.0516  0.3516
 6270TIP3    H240446   1.366   4.169   7.895 -0.2539 -0.1745  0.1299
 6271TIP3   OH240447   2.743   5.731   6.603  0.1779 -0.3472 -0.0973
 6271TIP3    H140448   2.669   5.673   6.618  1.3942 -1.7606  0.6491
 6271TIP3    H240449   2.747   5.742   6.508 -0.7508 -0.5368 -0.1652
 6272TIP3   OH240450   3.770   6.840   0.452  0.4420 -0.3202 -0.5210
 6272TIP3    H140451   3.697   6.898   0.473  0.7313 -0.3731  0.6732
 6272TIP3    H240452   3.839   6.865   0.513  0.1205 -2.8272  0.9849
 6273TIP3   OH240453   5.668   5.157   0.618 -0.2233 -0.0051 -0.1945
 6273TIP3    H140454   5.683   5.249   0.640  0.9413 -0.5689  1.6366
 6273TIP3    H240455   5.755   5.123   0.595 -0.1407 -1.1754  1.5656
 6274TIP3   OH240456   3.635   6.037   7.703  0.1767  0.7483 -0.2678
 6274TIP3    H140457   3.561   6.098   7.714  1.3952  2.2510 -0.0070
 6274TIP3    H240458   3.601   5.953   7.732 -1.7339  1.1773 -1.0839
 6275TIP3   OH240459   0.135   3.086   0.009 -0.1563  0.3387 -0.2927
 6275TIP3    H140460   0.168   3.107  -0.079  1.8007  0.1216  0.3352
 6275TIP3    H240461   0.085   3.006  -0.003  0.8507 -0.2011 -1.0949
 6276TIP3   OH240462   0.576   6.521   7.982 -0.6915  0.1101  0.3623
 6276TIP3    H140463   0.630   6.560   8.050  0.5537 -1.7607  0.5056
 6276TIP3    H240464   0.495   6.495   8.027 -0.7586  0.8031  0.6507
 6277TIP3   OH240465   5.358   4.476   1.203 -0.5990 -0.3320  0.0501
 6277TIP3    H140466   5.429   4.521   1.249  0.7577 -1.4884 -0.8047
 6277TIP3    H240467   5.314   4.545   1.154  1.3706  0.1529 -1.1732
 6278TIP3   OH240468   2.522   2.005   6.321  0.0126  0.4392 -0.4509
 6278TIP3    H140469   2.589   1.980   6.385  0.2059 -0.4598 -0.9820
 6278TIP3    H240470   2.457   1.934   6.326 -0.1797  0.5788 -0.9453
 6279TIP3   OH240471   3.449   5.030   7.923 -0.4384  0.2448  0.2642
 6279TIP3    H140472   3.498   4.963   7.972 -2.0996 -0.3666  1.2068
 6279TIP3    H240473   3.403   5.080   7.991  0.9601  2.5771 -0.4006
 6280TIP3   OH240474   6.815   6.276   7.314  0.0767 -0.0810 -0.2747
 6280TIP3    H140475   6.855   6.194   7.343 -0.0784 -0.5253 -1.2616
 6280TIP3    H240476   6.762   6.305   7.388  0.6679 -0.5165  0.3259
 6281TIP3   OH240477   6.494   1.533   1.070  0.1044 -0.2137 -0.3424
 6281TIP3    H140478   6.441   1.604   1.106  1.7215  0.3958  0.9615
 6281TIP3    H240479   6.487   1.463   1.134 -0.0183 -0.5622 -0.7299
 6282TIP3   OH240480   4.260   5.277   1.713 -0.2361  0.0702 -0.1295
 6282TIP3    H140481   4.287   5.223   1.788 -1.1512 -2.8271 -1.7473
 6282TIP3    H240482   4.167   5.259   1.703 -0.5193  1.7656 -0.9896
 6283TIP3   OH240483   5.327   4.006   8.786 -0.3041 -0.6796 -0.0295
 6283TIP3    H140484   5.352   3.915   8.771 -3.8328 -1.8534  0.2020
 6283TIP3    H240485   5.291   4.006   8.874  1.4472  1.4911  0.7718
 6284TIP3   OH240486   0.723   2.931   1.167 -0.1721  1.1140 -0.0110
 6284TIP3    H140487   0.817   2.948   1.167  0.1127 -0.2929  1.1448
 6284TIP3    H240488   0.707   2.889   1.083  1.1181 -2.6891  1.4393
 6285TIP3   OH240489   6.832   6.803   8.635  0.0151 -0.4069  0.0768
 6285TIP3    H140490   6.802   6.755   8.713  0.9418 -3.0924 -1.0903
 6285TIP3    H240491   6.905   6.855   8.666 -0.4544 -0.4068  1.2523
 6286TIP3   OH240492   3.447   5.360   7.449 -0.5831  0.6057  0.5851
 6286TIP3    H140493   3.505   5.285   7.464 -1.1531  0.1485  0.5367
 6286TIP3    H240494   3.469   5.389   7.360 -1.5738 -0.6125 -0.0906
 6287TIP3   OH240495   1.209   6.250   1.570  0.2318 -0.4605  0.5858
 6287TIP3    H140496   1.209   6.305   1.491  1.2620 -0.2722  0.7004
 6287TIP3    H240497   1.121   6.214   1.574  0.0195 -0.0904 -0.3931
 6288TIP3   OH240498   6.067   1.292   8.387 -0.0812 -0.0575  0.2848
 6288TIP3    H140499   6.076   1.207   8.429  0.0873 -0.1807  0.0029
 6288TIP3    H240500   5.992   1.333   8.430  1.0235  0.4643  1.8010
 6289TIP3   OH240501   4.916   4.126   0.494  0.0840 -0.2203 -0.1300
 6289TIP3    H140502   4.866   4.187   0.441 -0.9906 -0.9904 -0.0448
 6289TIP3    H240503   4.970   4.181   0.551  0.3663  0.6170 -1.1820
 6290TIP3   OH240504   2.960   1.459   2.156  0.3880  0.8339 -0.0843
 6290TIP3    H140505   2.946   1.520   2.084 -0.3401 -0.4238 -1.0526
 6290TIP3    H240506   3.003   1.383   2.116  2.4324  1.1777  1.3211
 6291TIP3   OH240507   1.175   4.564   1.242  0.1464  0.3487 -0.1181
 6291TIP3    H140508   1.098   4.509   1.252  0.2896  0.3927  1.5320
 6291TIP3    H240509   1.141   4.648   1.210 -0.1115 -0.5266 -2.3069
 6292TIP3   OH240510   2.589   5.632   8.773  0.3758 -0.2443 -0.4254
 6292TIP3    H140511   2.634   5.648   8.690  0.8552  1.1346  0.0776
 6292TIP3    H240512   2.497   5.623   8.748  0.5683 -0.2890 -1.1499
 6293TIP3   OH240513   1.739   1.667   1.177 -0.4805 -0.3018 -0.5703
 6293TIP3    H140514   1.832   1.646   1.189 -0.1915  1.1294 -0.1204
 6293TIP3    H240515   1.704   1.673   1.266 -0.1158  2.7862 -0.5346
 6294TIP3   OH240516   3.681   4.042   6.309 -0.0325 -0.1396 -0.0000
 6294TIP3    H140517   3.591   4.069   6.290  0.4085  0.1174 -1.8773
 6294TIP3    H240518   3.687   3.954   6.273  0.6011  0.0205 -0.2839
 6295TIP3   OH240519   5.133   1.320   2.056 -0.2667  0.0241 -0.3560
 6295TIP3    H140520   5.205   1.317   1.993 -1.9076 -0.0038 -2.2994
 6295TIP3    H240521   5.066   1.262   2.021 -0.9494 -0.6695  1.8760
 6296TIP3   OH240522   3.950   3.358   7.116  0.2740  0.0564  0.2602
 6296TIP3    H140523   3.903   3.378   7.035  0.4822  2.1579  0.5988
 6296TIP3    H240524   3.947   3.263   7.122  2.1769 -0.4113 -3.3590
 6297TIP3   OH240525   1.257   3.004   6.748  0.1654  0.2384 -0.1726
 6297TIP3    H140526   1.219   3.036   6.666  1.2718 -1.3336 -1.3510
 6297TIP3    H240527   1.217   2.918   6.762  2.2992 -0.9097 -0.7915
 6298TIP3   OH240528   5.939   2.435   8.563 -0.0539  0.3838 -0.1834
 6298TIP3    H140529   5.875   2.488   8.609 -0.5676  0.4081 -0.9041
 6298TIP3    H240530   6.021   2.448   8.612 -0.6721  0.0405  0.9773
 6299TIP3   OH240531   2.726   4.511   8.376  0.1530 -0.0516 -0.3613
 6299TIP3    H140532   2.743   4.430   8.425  0.1945  0.4522  0.4615
 6299TIP3    H240533   2.814   4.544   8.355  0.2910  1.5134  2.1962
 6300TIP3   OH240534   0.836   4.983   8.010 -0.0025 -0.3931 -0.1493
 6300TIP3    H140535   0.838   4.927   8.089 -1.3365  0.5320  0.5771
 6300TIP3    H240536   0.863   5.069   8.041 -3.0631  0.6481 -0.0625
 6301TIP3   OH240537   3.281   1.320   1.853  0.1879 -0.3052 -0.0830
 6301TIP3    H140538   3.206   1.296   1.798 -0.9203 -0.0206  1.2475
 6301TIP3    H240539   3.249   1.392   1.907  1.9994  1.0747 -0.7165
 6302TIP3   OH240540   3.282   0.423   1.191 -0.3329  0.7744 -0.7789
 6302TIP3    H140541   3.231   0.499   1.163 -1.2562  0.4379 -0.0445
 6302TIP3    H240542   3.370   0.439   1.156 -0.7916  1.6456 -1.5580
 6303TIP3   OH240543   0.156   6.712   0.965 -0.0889 -0.0776 -1.1216
 6303TIP3    H140544   0.178   6.771   1.037  0.7368 -0.2819 -1.1908
 6303TIP3    H240545   0.188   6.757   0.887 -1.0949  0.2033 -1.3916
 6304TIP3   OH240546   5.550   0.400   1.608  0.5498  0.1802  0.3521
 6304TIP3    H140547   5.524   0.330   1.668 -2.0463  0.2091 -0.5885
 6304TIP3    H240548   5.527   0.481   1.655 -4.3424  0.2220 -1.4620
 6305TIP3   OH240549   3.694   5.651   6.415  0.1286  0.5311  0.1268
 6305TIP3    H140550   3.723   5.627   6.327 -0.7387  0.8006 -0.2498
 6305TIP3    H240551   3.626   5.587   6.436  1.2591 -0.3817  1.1807
 6306TIP3   OH240552   5.221   1.688   6.337  0.0966 -0.6179  0.5126
 6306TIP3    H140553   5.185   1.599   6.338 -0.3234 -0.5624 -2.4851
 6306TIP3    H240554   5.302   1.681   6.288 -0.1245  0.7077 -0.0991
 6307TIP3   OH240555   2.943   1.808   7.684  0.5496 -0.3792 -0.1568
 6307TIP3    H140556   2.915   1.732   7.735  2.0405 -1.1037 -0.3635
 6307TIP3    H240557   2.890   1.880   7.718  0.3705 -1.1528  1.3131
 6308TIP3   OH240558   4.953   2.439   8.780 -0.6670  0.2274 -0.2704
 6308TIP3    H140559   5.015   2.386   8.831  2.0112  2.6663 -0.7398
 6308TIP3    H240560   4.937   2.387   8.701  0.7801 -0.5198 -0.1136
 6309TIP3   OH240561   2.464   2.262   0.632  0.2897  0.7092  1.0512
 6309TIP3    H140562   2.545   2.218   0.606  0.5607  1.9756 -0.3575
 6309TIP3    H240563   2.492   2.346   0.667 -0.2722  0.1152  3.1213
 6310TIP3   OH240564   0.278   6.010   6.790  0.2649 -0.2406 -0.1399
 6310TIP3    H140565   0.301   6.072   6.859 -0.4896  0.0659 -0.1548
 6310TIP3    H240566   0.362   5.979   6.757  0.6413  0.0540  0.5134
 6311TIP3   OH240567   3.200   2.619   2.487  0.2340 -0.3824  0.0434
 6311TIP3    H140568   3.150   2.638   2.566 -1.0404  0.4151 -0.9089
 6311TIP3    H240569   3.265   2.555   2.515  0.9286  1.1063  2.1071
 6312TIP3   OH240570   3.817   1.930   6.882 -0.6195  0.3560 -0.0846
 6312TIP3    H140571   3.835   2.017   6.918  2.1662  0.2791 -1.0272
 6312TIP3    H240572   3.792   1.947   6.791 -1.9939  0.2175  0.2360
 6313TIP3   OH240573   6.532   1.005   7.924 -0.0276  0.1424 -0.0815
 6313TIP3    H140574   6.572   1.092   7.932  1.6462 -0.5373 -0.5544
 6313TIP3    H240575   6.477   1.011   7.846  0.6386  0.5864 -0.5315
 6314TIP3   OH240576   5.442   4.083   7.133 -0.1522  0.5294  0.5087
 6314TIP3    H140577   5.453   4.044   7.046  0.5045  1.1263  0.3075
 6314TIP3    H240578   5.526   4.127   7.149 -0.3830  0.6830  1.3135
 6315TIP3   OH240579   0.970   1.911   8.206  0.1790 -0.6204  0.3725
 6315TIP3    H140580   0.906   1.894   8.275 -1.3429 -0.7936 -1.0187
 6315TIP3    H240581   0.944   1.854   8.134 -0.6900  2.2229 -1.7571
 6316TIP3   OH240582   2.917   0.400   7.287  0.0615 -0.0775 -0.0142
 6316TIP3    H140583   2.984   0.410   7.354 -0.4082  3.1595  0.1202
 6316TIP3    H240584   2.959   0.349   7.218  1.3447 -1.4126  1.6573
 6317TIP3   OH240585   4.893   5.688   1.396 -0.0477  0.3816  0.4011
 6317TIP3    H140586   4.800   5.668   1.385 -0.1565  0.5931  0.9124
 6317TIP3    H240587   4.932   5.668   1.311 -0.7287  1.2731 -0.1412
 6318TIP3   OH240588   0.826   0.544   7.803 -0.0760  0.0932  0.4485
 6318TIP3    H140589   0.887   0.540   7.876  0.0617 -0.1508  0.3189
 6318TIP3    H240590   0.793   0.634   7.804  1.7233  0.8107 -0.6622
 6319TIP3   OH240591   6.633   2.250   6.250 -0.6280  0.1958  0.2283
 6319TIP3    H140592   6.609   2.264   6.158  0.1157 -0.3842 -0.0664
 6319TIP3    H240593   6.700   2.316   6.268 -0.6170  0.1677  0.2913
 6320TIP3   OH240594   3.619   5.086   0.577 -0.5162 -0.0311 -0.0997
 6320TIP3    H140595   3.525   5.086   0.596 -0.3602  2.2684  0.9867
 6320TIP3    H240596   3.657   5.031   0.646 -0.9769 -0.3405 -0.0846
 6321TIP3   OH240597   3.760   6.185   8.620 -0.0317 -0.1101  0.0627
 6321TIP3    H140598   3.673   6.151   8.642 -0.5379  0.9431 -0.2483
 6321TIP3    H240599   3.750   6.223   8.533  1.0812 -1.0974 -0.5339
 6322TIP3   OH240600   6.850   1.107   1.700  0.2648 -0.4570  0.1328
 6322TIP3    H140601   6.831   1.201   1.705  0.5227 -0.4549  1.2921
 6322TIP3    H240602   6.765   1.066   1.716  0.0632 -0.4326 -0.8166
 6323TIP3   OH240603   1.809   1.476   8.840  0.3389  0.0589  0.3608
 6323TIP3    H140604   1.794   1.386   8.810 -0.7766  0.5319 -0.5522
 6323TIP3    H240605   1.862   1.466   8.919 -2.4849 -1.6259  2.2141
 6324TIP3   OH240606   2.563   5.676   0.587 -0.7349 -0.1188  0.3102
 6324TIP3    H140607   2.624   5.665   0.660 -0.5416 -2.9654 -0.1487
 6324TIP3    H240608   2.617   5.661   0.509 -1.4569  0.3292 -0.2912
 6325TIP3   OH240609   0.098   1.062   7.585 -0.6445  0.1818  0.0704
 6325TIP3    H140610   0.057   0.995   7.639 -1.9497 -0.2047 -1.3461
 6325TIP3    H240611   0.026   1.111   7.548  0.1607  0.0170 -1.8295
 6326TIP3   OH240612   6.400   1.275   1.231 -0.1079 -0.1153  0.5741
 6326TIP3    H140613   6.415   1.221   1.153  3.7107 -0.3704  1.2861
 6326TIP3    H240614   6.356   1.216   1.292 -1.3917 -0.5040 -0.6693
 6327TIP3   OH240615   2.141   2.493   7.042 -0.1183  0.3296 -0.2829
 6327TIP3    H140616   2.072   2.511   6.978  0.4510  0.3494 -0.9074
 6327TIP3    H240617   2.204   2.440   6.994 -0.5146 -1.1636  0.7820
 6328TIP3   OH240618   5.020   1.688   0.017 -0.6632 -0.3115  0.3886
 6328TIP3    H140619   5.022   1.732  -0.068 -1.4654 -0.5510  0.2388
 6328TIP3    H240620   4.956   1.619   0.006  1.1998 -2.1200  0.3462
 6329TIP3   OH240621   1.858   0.646   8.814 -0.4419 -0.0307 -0.4413
 6329TIP3    H140622   1.922   0.661   8.883 -0.2085 -0.4804 -0.5527
 6329TIP3    H240623   1.776   0.629   8.860 -0.2637 -0.4341 -0.2710
 6330TIP3   OH240624   3.758   3.800   7.285 -0.1397 -0.1877  0.1831
 6330TIP3    H140625   3.828   3.819   7.222  0.2644  2.2330  1.2485
 6330TIP3    H240626   3.796   3.736   7.345  0.1883 -0.9366 -0.8004
 6331TIP3   OH240627   0.651   0.092   6.683 -0.1360 -0.2241  0.1300
 6331TIP3    H140628   0.712   0.165   6.678 -2.3253  1.6658 -0.5889
 6331TIP3    H240629   0.593   0.103   6.608 -1.4154 -1.9111  0.7975
 6332TIP3   OH240630   1.638   4.395   0.857  0.4380 -0.0073  0.4072
 6332TIP3    H140631   1.547   4.421   0.869  0.5271  1.2183 -1.2384
 6332TIP3    H240632   1.681   4.473   0.821  1.8545 -0.9410 -0.0257
 6333TIP3   OH240633   0.270   5.323   1.474 -0.3727 -0.4048 -0.7439
 6333TIP3    H140634   0.262   5.413   1.505  0.0799  0.2702 -2.4920
 6333TIP3    H240635   0.302   5.275   1.550  0.4215  1.1167 -0.0720
 6334TIP3   OH240636   5.394   3.568   0.902  0.3072  0.0523  0.3265
 6334TIP3    H140637   5.481   3.604   0.918  0.4403  0.2751 -0.8138
 6334TIP3    H240638   5.409   3.493   0.844 -0.0894 -1.1265  1.6841
 6335TIP3   OH240639   0.283   0.291   7.430  0.1264 -0.2568 -0.2818
 6335TIP3    H140640   0.345   0.263   7.498  1.6994  0.7260 -1.2325
 6335TIP3    H240641   0.222   0.349   7.476  0.8179 -0.0659  0.4300
 6336TIP3   OH240642   0.352   5.798   0.313 -0.4727  0.0219  0.4750
 6336TIP3    H140643   0.411   5.727   0.339 -0.0731  0.3220  0.3986
 6336TIP3    H240644   0.333   5.779   0.221  2.2267  1.7446 -0.5606
 6337TIP3   OH240645   1.924   3.059   0.955 -0.3892 -0.0852  0.2657
 6337TIP3    H140646   1.905   2.966   0.972 -2.2350  0.2660  0.2800
 6337TIP3    H240647   1.977   3.058   0.876 -1.3528 -1.1008 -0.3910
 6338TIP3   OH240648   2.230   5.319   0.622  0.8368  0.4561 -0.4024
 6338TIP3    H140649   2.175   5.381   0.574  1.8856  0.6131 -1.4317
 6338TIP3    H240650   2.174   5.241   0.631  1.1755 -0.3213 -3.6255
 6339TIP3   OH240651   4.630   2.095   8.648 -0.3364  1.3565 -0.5139
 6339TIP3    H140652   4.723   2.099   8.626 -0.1129  0.0154  0.0828
 6339TIP3    H240653   4.628   2.068   8.740 -1.3096  1.7100 -0.4170
 6340TIP3   OH240654   6.460   0.678   1.267 -0.3292 -0.3575  0.5218
 6340TIP3    H140655   6.498   0.687   1.180  0.6113 -0.2663  0.9296
 6340TIP3    H240656   6.437   0.585   1.274 -0.9950 -0.2405 -0.0517
 6341TIP3   OH240657   2.246   4.893   1.478  1.0429  0.0090 -0.1265
 6341TIP3    H140658   2.261   4.901   1.383  0.4729  0.4176 -0.1899
 6341TIP3    H240659   2.206   4.976   1.502  1.4055 -0.0040  0.5252
 6342TIP3   OH240660   1.149   5.804   8.446  0.2240  0.3977  0.3092
 6342TIP3    H140661   1.177   5.816   8.355 -0.5138  0.6524  0.1081
 6342TIP3    H240662   1.056   5.824   8.445  0.1676  0.2060  1.0901
 6343TIP3   OH240663   5.841   1.062   1.149  0.4225  0.3048 -0.3553
 6343TIP3    H140664   5.878   1.055   1.236  0.3266  0.0801 -0.3314
 6343TIP3    H240665   5.850   0.974   1.112 -0.6612  0.0688 -0.1106
 6344TIP3   OH240666   4.816   6.113   8.631  0.5912 -0.1824 -0.0054
 6344TIP3    H140667   4.776   6.132   8.546  0.0436 -1.2819 -0.0068
 6344TIP3    H240668   4.760   6.045   8.669  0.4332  0.7560  1.5339
 6345TIP3   OH240669   3.184   5.737   1.467 -0.0354  0.0468 -0.1917
 6345TIP3    H140670   3.216   5.648   1.484 -0.1433  0.2160  0.9519
 6345TIP3    H240671   3.233   5.793   1.528 -1.6652  0.4514  0.8098
 6346TIP3   OH240672   0.108   2.297   1.438  0.5085 -0.0393  0.3211
 6346TIP3    H140673   0.116   2.229   1.505 -0.2128  0.7144  1.2014
 6346TIP3    H240674   0.131   2.378   1.484 -1.2990  0.6699  0.0443
 6347TIP3   OH240675   2.977   0.054   6.829  0.0806 -0.0533 -0.3795
 6347TIP3    H140676   2.925   0.133   6.844  0.3789  0.1602 -0.4681
 6347TIP3    H240677   2.956   0.029   6.738  0.2076  0.0892 -0.4485
 6348TIP3   OH240678   5.320   6.652   0.024 -0.3472 -0.4420 -0.0932
 6348TIP3    H140679   5.347   6.561   0.035 -1.1788 -0.7156 -0.2768
 6348TIP3    H240680   5.322   6.688   0.113  0.2192 -0.5659 -0.0523
 6349TIP3   OH240681   5.440   2.252   6.887 -0.2007  0.6546 -0.3599
 6349TIP3    H140682   5.499   2.187   6.849 -0.3553  0.5141 -0.3613
 6349TIP3    H240683   5.354   2.231   6.850 -0.4876  0.0649  0.6110
 6350TIP3   OH240684   3.837   0.868   7.388  0.0384 -0.3153 -0.3502
 6350TIP3    H140685   3.885   0.933   7.440  0.7274 -2.1198  1.3853
 6350TIP3    H240686   3.883   0.867   7.303  0.8197  0.5228  0.0448
 6351TIP3   OH240687   2.255   5.195   1.744 -0.4497 -0.4273  0.0536
 6351TIP3    H140688   2.201   5.256   1.795  1.0226  0.7386  0.2679
 6351TIP3    H240689   2.269   5.121   1.803  0.9828  0.7755  1.2845
 6352TIP3   OH240690   3.023   0.907   8.519 -0.5170 -0.1502  0.6598
 6352TIP3    H140691   2.961   0.897   8.446  0.9380  0.2738 -0.6918
 6352TIP3    H240692   3.041   1.001   8.522 -0.5190 -0.1732  1.5460
 6353TIP3   OH240693   6.164   4.586   1.291 -0.1242 -0.1949 -0.1281
 6353TIP3    H140694   6.206   4.512   1.335 -0.8454  0.1864  1.2687
 6353TIP3    H240695   6.220   4.661   1.313  0.1434 -0.1783 -0.8431
 6354TIP3   OH240696   4.000   0.659   0.350 -0.5842  0.2087  0.0142
 6354TIP3    H140697   4.013   0.739   0.400 -0.7467 -0.7716  1.7074
 6354TIP3    H240698   3.968   0.688   0.264 -0.5842  1.9346  0.5790
 6355TIP3   OH240699   0.513   0.151   7.213  0.0773 -0.0860  0.7699
 6355TIP3    H140700   0.454   0.101   7.156  0.7757  0.2089 -0.2352
 6355TIP3    H240701   0.567   0.202   7.153  2.4868 -1.5535  1.5495
 6356TIP3   OH240702   5.366   1.005   1.956  0.3534 -0.3224 -0.4410
 6356TIP3    H140703   5.379   0.961   2.040  1.6962 -0.2075 -0.5675
 6356TIP3    H240704   5.366   1.098   1.978  0.7274 -0.2912 -0.5677
 6357TIP3   OH240705   3.518   3.618   7.550  0.5007  0.1908  0.4448
 6357TIP3    H140706   3.578   3.586   7.482 -1.1130 -0.0904 -0.9049
 6357TIP3    H240707   3.442   3.651   7.502 -0.2993  0.8651  2.0869
 6358TIP3   OH240708   0.036   1.415   8.519 -0.3678  0.1378 -0.1373
 6358TIP3    H140709   0.052   1.384   8.608 -0.6677  0.3618 -0.0012
 6358TIP3    H240710   0.038   1.336   8.466  0.8113  0.1214 -0.0838
 6359TIP3   OH240711   5.994   4.524   8.620  0.3322 -0.0513 -0.0724
 6359TIP3    H140712   5.936   4.466   8.669  2.5382 -1.2421  1.2827
 6359TIP3    H240713   6.007   4.480   8.536  0.8400 -0.7988  0.3900
 6360TIP3   OH240714   1.078   1.606   6.462  0.5117  1.0316 -0.1978
 6360TIP3    H140715   1.146   1.592   6.529 -0.6158  0.7499  0.9155
 6360TIP3    H240716   1.067   1.521   6.420  0.9697  1.1262 -0.5283
 6361TIP3   OH240717   0.315   1.594   8.775  0.2612  0.3624 -1.0551
 6361TIP3    H140718   0.327   1.553   8.860  1.5162  3.2179  0.2645
 6361TIP3    H240719   0.220   1.603   8.765  0.0778 -0.6313 -0.3118
 6362TIP3   OH240720   0.333   2.359   2.244 -0.3357 -0.1128  0.2663
 6362TIP3    H140721   0.406   2.319   2.196 -0.1348 -1.1692  1.4269
 6362TIP3    H240722   0.273   2.388   2.175  0.9248  0.3248 -0.6948
 6363TIP3   OH240723   6.160   3.782   8.106  0.5238  0.0006  0.6436
 6363TIP3    H140724   6.145   3.698   8.063 -0.5790  0.0461  0.8975
 6363TIP3    H240725   6.248   3.775   8.143  0.5152 -0.9817  0.5108
 6364TIP3   OH240726   6.028   5.161   0.839  0.3701  0.0761 -0.8065
 6364TIP3    H140727   6.103   5.167   0.898  0.6487 -2.5466 -0.7925
 6364TIP3    H240728   5.953   5.146   0.896  0.3835 -0.7897 -1.0066
 6365TIP3   OH240729   1.771   4.967   8.384 -0.2789 -0.0923  0.2229
 6365TIP3    H140730   1.794   4.969   8.477  1.1239 -1.4954 -0.0514
 6365TIP3    H240731   1.851   4.939   8.340 -1.2386 -0.5987 -1.3000
 6366TIP3   OH240732   2.048   2.239   6.928 -0.1977 -0.1038 -0.0419
 6366TIP3    H140733   2.000   2.237   6.845  2.1563 -2.0895 -1.5077
 6366TIP3    H240734   2.136   2.269   6.904 -0.0854  1.6062  2.1965
 6367TIP3   OH240735   5.283   3.000   1.553  0.1947  0.2242  0.3222
 6367TIP3    H140736   5.227   3.069   1.516  0.3122  0.9977  1.5581
 6367TIP3    H240737   5.306   2.946   1.477 -0.7396  0.9379 -0.5066
 6368TIP3   OH240738   6.403   6.199   7.427  0.1002 -0.1926  0.1241
 6368TIP3    H140739   6.441   6.270   7.375  0.0703  1.0881  1.7586
 6368TIP3    H240740   6.466   6.127   7.419  0.9934  0.5970 -0.2198
 6369TIP3   OH240741   4.179   6.156   7.077 -0.4217  0.2025 -0.1228
 6369TIP3    H140742   4.228   6.183   6.999  2.2069 -1.8010  0.6788
 6369TIP3    H240743   4.128   6.081   7.049  0.0125 -0.1122 -0.0788
 6370TIP3   OH240744   0.535   3.341   0.126  0.2761  0.3188  0.0007
 6370TIP3    H140745   0.605   3.348   0.061  0.6651  2.6777  0.5584
 6370TIP3    H240746   0.581   3.330   0.210  0.0292  1.9120  0.3745
 6371TIP3   OH240747   6.711   0.284   8.242  0.1306 -0.6125  0.5827
 6371TIP3    H140748   6.649   0.356   8.258 -0.2762 -1.0148  0.8347
 6371TIP3    H240749   6.797   0.322   8.260  0.1123  0.3637 -1.1060
 6372TIP3   OH240750   4.377   2.448   7.882  0.0451 -0.0247  0.5833
 6372TIP3    H140751   4.435   2.462   7.807 -3.4170  0.2890 -2.3158
 6372TIP3    H240752   4.348   2.536   7.908 -2.0471 -0.2512 -0.6973
 6373TIP3   OH240753   4.025   5.611   8.020  0.2471  0.5610 -0.1488
 6373TIP3    H140754   4.031   5.519   8.046  0.2698  0.0455 -1.8856
 6373TIP3    H240755   3.969   5.651   8.087 -0.0201 -0.7714  0.4621
 6374TIP3   OH240756   4.553   2.633   7.256 -0.0830  0.0726  0.1735
 6374TIP3    H140757   4.492   2.569   7.218  0.9570 -0.8451  0.0174
 6374TIP3    H240758   4.595   2.674   7.180  0.3811 -0.1785  0.2912
 6375TIP3   OH240759   4.844   3.494   1.176  0.0243  0.0622  0.0277
 6375TIP3    H140760   4.937   3.513   1.168 -0.1247  1.0709  0.5872
 6375TIP3    H240761   4.839   3.429   1.247  0.2173  0.9065  0.8378
 6376TIP3   OH240762   4.466   2.256   0.059  0.1891 -0.2851  0.2661
 6376TIP3    H140763   4.399   2.289  -0.000  1.7340  1.2950 -0.6795
 6376TIP3    H240764   4.467   2.161   0.043 -1.1179 -0.2104 -0.4016
 6377TIP3   OH240765   3.975   2.398   8.247 -0.9703  0.4508  0.3117
 6377TIP3    H140766   3.892   2.433   8.215 -0.1299  1.6337 -0.6628
 6377TIP3    H240767   3.968   2.303   8.233 -2.7751  0.3025  1.8075
 6378TIP3   OH240768   5.067   5.018   6.394  0.1079 -0.0431  0.0836
 6378TIP3    H140769   5.133   5.082   6.366 -0.6073  1.8710  2.3950
 6378TIP3    H240770   5.113   4.963   6.458 -0.1870  0.5810  0.8582
 6379TIP3   OH240771   6.517   3.956   0.207  0.2366 -0.1707  0.2748
 6379TIP3    H140772   6.592   4.014   0.197 -0.2474  0.3916 -0.1722
 6379TIP3    H240773   6.537   3.903   0.284  0.0331  1.6073  1.5964
 6380TIP3   OH240774   0.779   4.402   1.442 -0.7470  0.8439  0.0363
 6380TIP3    H140775   0.837   4.429   1.370 -0.2350  1.7457  0.7677
 6380TIP3    H240776   0.703   4.363   1.398  0.0657  0.3272 -0.9592
 6381TIP3   OH240777   1.735   1.788   7.062  0.2599  0.1794 -0.2111
 6381TIP3    H140778   1.752   1.725   7.133 -0.8394  1.5922  1.3947
 6381TIP3    H240779   1.813   1.844   7.061 -0.0098  0.5733  0.3669
 6382TIP3   OH240780   5.226   6.745   6.744 -0.4174 -0.4086 -0.2501
 6382TIP3    H140781   5.155   6.793   6.701  0.5741 -0.2591 -1.7836
 6382TIP3    H240782   5.255   6.682   6.679  1.0302 -0.2787  0.2514
 6383TIP3   OH240783   5.076   4.958   6.141 -0.3083  0.3975  0.0885
 6383TIP3    H140784   5.071   4.862   6.147 -0.1662  0.2444 -1.6944
 6383TIP3    H240785   5.079   4.987   6.232  1.4662 -1.4000  0.6934
 6384TIP3   OH240786   6.377   2.992   7.647  0.3326  0.1472  0.1322
 6384TIP3    H140787   6.329   3.048   7.587 -0.9315 -0.6865  0.3245
 6384TIP3    H240788   6.448   2.955   7.595  0.7460  1.3549 -0.1752
 6385TIP3   OH240789   2.646   5.297   0.105  0.7000  0.0408  0.1190
 6385TIP3    H140790   2.587   5.368   0.130 -0.1830 -0.7355  0.3205
 6385TIP3    H240791   2.625   5.280   0.013  1.3307  0.4326 -0.1011
 6386TIP3   OH240792   3.314   0.595   7.388  1.0449  0.9412 -0.1577
 6386TIP3    H140793   3.371   0.607   7.465  2.2242 -1.8017 -0.4486
 6386TIP3    H240794   3.349   0.655   7.322  1.8959  1.2237  0.5333
 6387TIP3   OH240795   3.206   1.273   6.542  0.1305 -0.1104  0.7158
 6387TIP3    H140796   3.267   1.341   6.514 -0.2979 -0.2061 -0.5045
 6387TIP3    H240797   3.121   1.317   6.545 -0.3618 -0.8519 -1.2852
 6388TIP3   OH240798   1.737   4.727   6.741  0.3195  0.1884 -1.0120
 6388TIP3    H140799   1.794   4.685   6.806  1.0676 -1.6074 -2.7254
 6388TIP3    H240800   1.779   4.811   6.723 -0.8556  1.5847  2.0190
 6389TIP3   OH240801   0.080   0.625   7.906  0.2122  0.2081  0.4004
 6389TIP3    H140802   0.067   0.704   7.855  0.4008  0.9034  1.4009
 6389TIP3    H240803   0.001   0.616   7.959  0.3994  0.0064  0.6509
 6390TIP3   OH240804   4.327   6.330   0.399 -0.7147  0.5834 -0.1667
 6390TIP3    H140805   4.409   6.373   0.373 -1.9257  2.1684 -1.5799
 6390TIP3    H240806   4.290   6.387   0.466 -1.0269  0.2461 -0.0472
 6391TIP3   OH240807   0.451   1.360   0.375 -0.1430  0.0948 -1.0730
 6391TIP3    H140808   0.362   1.329   0.391  0.5777 -0.6917  2.1130
 6391TIP3    H240809   0.460   1.437   0.431  1.3808 -0.2524 -0.7913
 6392TIP3   OH240810   4.772   6.492   1.649  0.4020 -0.2984  0.5944
 6392TIP3    H140811   4.863   6.515   1.631  0.3863 -1.1659 -0.7204
 6392TIP3    H240812   4.723   6.571   1.629  0.8347  0.0755  0.9953
 6393TIP3   OH240813   2.556   0.944   2.323 -0.1097  0.2775 -0.5747
 6393TIP3    H140814   2.524   0.958   2.412  0.4522 -1.4170 -0.0692
 6393TIP3    H240815   2.649   0.924   2.334 -0.5946 -2.8002 -1.1994
 6394TIP3   OH240816   4.119   2.664   8.544  0.1113  0.2729  0.2731
 6394TIP3    H140817   4.050   2.727   8.562  2.5351  3.3812 -0.3705
 6394TIP3    H240818   4.090   2.618   8.465 -0.2001  3.3472 -1.5834
 6395TIP3   OH240819   5.773   3.190   8.545  1.0475 -0.7081  0.4412
 6395TIP3    H140820   5.771   3.113   8.601 -1.7430 -0.6269  0.5809
 6395TIP3    H240821   5.739   3.160   8.461 -0.5520  0.4043  0.6408
 6396TIP3   OH240822   4.267   3.707   1.364 -0.1948  0.1212  0.1781
 6396TIP3    H140823   4.261   3.741   1.453 -0.8398  1.0545 -0.2085
 6396TIP3    H240824   4.205   3.760   1.314  0.8449  0.2333 -1.0244
 6397TIP3   OH240825   3.067   1.206   2.053 -0.2806 -0.3485  0.0595
 6397TIP3    H140826   3.068   1.195   1.958  1.7350 -1.5726  0.1736
 6397TIP3    H240827   3.116   1.131   2.087 -0.1175  0.5742  2.0005
 6398TIP3   OH240828   2.571   2.213   1.652 -0.1903  0.2157 -0.0962
 6398TIP3    H140829   2.540   2.206   1.561  1.1535 -1.3309 -0.4627
 6398TIP3    H240830   2.537   2.135   1.695  1.9149 -0.7916 -0.1471
 6399TIP3   OH240831   3.128   2.022   0.688 -0.4561 -0.2876 -0.4949
 6399TIP3    H140832   3.063   2.059   0.747  0.1856 -0.7538  0.5479
 6399TIP3    H240833   3.150   2.093   0.629 -1.5510  0.0173 -0.5583
 6400TIP3   OH240834   1.654   1.050   7.832 -0.3570  0.7226  0.0429
 6400TIP3    H140835   1.738   1.027   7.871  0.0734  2.7016  0.3652
 6400TIP3    H240836   1.619   1.118   7.889 -2.6745 -0.7248  0.4810
 6401TIP3   OH240837   6.244   3.569   2.295  0.3719 -0.6120  0.6860
 6401TIP3    H140838   6.151   3.552   2.275  0.2614  0.0101  0.6460
 6401TIP3    H240839   6.251   3.664   2.294  1.0769 -0.6665  0.4222
 6402TIP3   OH240840   1.772   3.533   1.350 -0.3374 -0.3027  0.2005
 6402TIP3    H140841   1.732   3.466   1.405 -0.7323  0.4238  0.8274
 6402TIP3    H240842   1.864   3.507   1.343  0.3457  0.8393  3.2892
 6403TIP3   OH240843   3.801   5.947   2.172  0.0128  0.0967  0.0220
 6403TIP3    H140844   3.872   6.008   2.154 -0.6251 -0.0058 -3.2982
 6403TIP3    H240845   3.731   6.001   2.209 -0.0884  1.1947 -1.6918
 6404TIP3   OH240846   1.368   0.915   6.263  0.2114  0.2701  0.5620
 6404TIP3    H140847   1.307   0.845   6.286 -1.5203  2.0517  1.7731
 6404TIP3    H240848   1.344   0.941   6.175 -1.0904  1.1800  1.1514
 6405TIP3   OH240849   0.313   3.677   8.506  0.3569 -0.2045  0.0117
 6405TIP3    H140850   0.276   3.761   8.535 -0.0831  0.0486 -1.2171
 6405TIP3    H240851   0.275   3.613   8.566  0.4720  0.4412  0.7914
 6406TIP3   OH240852   3.786   2.151   0.797 -0.5047 -0.1026 -0.6150
 6406TIP3    H140853   3.701   2.161   0.839 -0.3369 -0.8618 -0.0873
 6406TIP3    H240854   3.845   2.206   0.849 -0.6588  0.4251 -0.9820
 6407TIP3   OH240855   0.090   3.129   0.330  0.5123  0.8746 -0.7315
 6407TIP3    H140856   0.160   3.149   0.267  0.8691  1.9342 -0.0181
 6407TIP3    H240857   0.118   3.172   0.410 -1.5110  2.2400 -0.7184
 6408TIP3   OH240858   2.397   3.952   0.396  0.1717 -0.1519  0.0305
 6408TIP3    H140859   2.435   3.892   0.461 -1.3048 -2.1138 -0.8337
 6408TIP3    H240860   2.438   4.036   0.415  2.6521 -1.4855  1.0441
 6409TIP3   OH240861   2.821   1.656   1.595  0.2594  0.0363 -1.1229
 6409TIP3    H140862   2.792   1.583   1.650 -0.8629 -0.0190 -1.7496
 6409TIP3    H240863   2.899   1.690   1.639 -0.1459 -0.5033  0.0612
 6410TIP3   OH240864   4.333   1.450   1.104 -0.3017 -0.7714  0.0000
 6410TIP3    H140865   4.393   1.377   1.092  1.0479 -0.0560  1.8591
 6410TIP3    H240866   4.387   1.528   1.090 -1.2749 -0.1191 -0.2256
 6411TIP3   OH240867   3.405   0.411   2.247  0.5419 -0.3184 -0.0163
 6411TIP3    H140868   3.335   0.397   2.183  0.0518  1.7213  0.0180
 6411TIP3    H240869   3.365   0.463   2.316  2.3664  2.2251 -0.6885
 6412TIP3   OH240870   6.735   5.477   1.262 -0.1364 -0.2376  0.2249
 6412TIP3    H140871   6.767   5.394   1.297 -0.8430 -0.1818  1.0659
 6412TIP3    H240872   6.758   5.475   1.169  1.6963 -0.4591  0.6426
 6413TIP3   OH240873   2.526   2.377   7.245 -0.6594 -0.5079  0.5229
 6413TIP3    H140874   2.460   2.330   7.296 -2.0708 -0.1313 -0.8877
 6413TIP3    H240875   2.592   2.311   7.225 -2.1163 -1.6928 -0.5999
 6414TIP3   OH240876   1.118   1.241   1.162  0.3937  0.1393 -0.1160
 6414TIP3    H140877   1.117   1.295   1.241 -0.0533 -3.0842  2.3044
 6414TIP3    H240878   1.025   1.229   1.141  0.5082  0.8219 -1.0663
 6415TIP3   OH240879   0.907   4.802   0.036  0.1034  0.3680  0.2543
 6415TIP3    H140880   0.994   4.767   0.054 -0.5729 -0.3648  2.3906
 6415TIP3    H240881   0.897   4.793  -0.059  0.9521 -3.0263  0.3664
 6416TIP3   OH240882   1.259   3.646   8.825  0.5637 -0.7451 -0.0721
 6416TIP3    H140883   1.323   3.610   8.764 -2.0218 -4.1311 -1.0928
 6416TIP3    H240884   1.193   3.577   8.835 -1.1041  1.0769  3.7279
 6417TIP3   OH240885   5.440   3.211   0.993 -0.2647 -0.0877  0.0941
 6417TIP3    H140886   5.449   3.188   1.086  1.1333  0.0646  0.0125
 6417TIP3    H240887   5.388   3.291   0.994 -1.4634 -0.8391  0.6437
 6418TIP3   OH240888   4.769   4.259   0.293  0.0925  0.0957 -0.2483
 6418TIP3    H140889   4.810   4.202   0.229 -0.2406  0.6555 -0.9770
 6418TIP3    H240890   4.758   4.343   0.247  0.3975  0.6910  0.7253
 6419TIP3   OH240891   1.962   6.091   8.484  0.1277 -0.6630 -0.0862
 6419TIP3    H140892   1.911   6.130   8.555  1.3500 -1.0950  1.0689
 6419TIP3    H240893   1.968   6.159   8.417  0.5466  0.4329  1.0398
 6420TIP3   OH240894   0.689   1.391   8.332  0.0737 -0.1342 -0.3006
 6420TIP3    H140895   0.657   1.473   8.369 -1.3965 -0.9433  0.3223
 6420TIP3    H240896   0.721   1.342   8.407  0.6823 -0.2460 -0.6310
 6421TIP3   OH240897   1.264   2.987   0.056 -0.5468  0.3243 -0.1302
 6421TIP3    H140898   1.325   2.980   0.129 -0.6641 -1.1641 -0.1409
 6421TIP3    H240899   1.315   2.962  -0.021 -0.7205  0.7715 -0.3950
 6422TIP3   OH240900   6.544   4.218   2.439  0.0343  1.0029 -0.1651
 6422TIP3    H140901   6.516   4.259   2.520  1.0110  0.0051  0.7154
 6422TIP3    H240902   6.569   4.129   2.464 -0.1151  0.5102 -1.6445
 6423TIP3   OH240903   0.749   0.337   8.842 -0.1459 -0.1023  0.2191
 6423TIP3    H140904   0.673   0.288   8.875  0.7196 -1.7549 -0.1423
 6423TIP3    H240905   0.781   0.285   8.768  0.0762  1.6933 -0.9941
 6424TIP3   OH240906   3.509   3.875   0.908  0.1115  0.2499  0.2185
 6424TIP3    H140907   3.562   3.916   0.840  0.1475  0.9815  0.6742
 6424TIP3    H240908   3.562   3.883   0.988 -0.2448  0.0750  0.4775
 6425TIP3   OH240909   4.140   5.996   8.282 -0.2078  0.0886  0.2205
 6425TIP3    H140910   4.210   5.943   8.244  0.0992  0.6254  0.0222
 6425TIP3    H240911   4.185   6.075   8.313 -0.8283  0.7573 -0.5416
 6426TIP3   OH240912   4.140   5.370   0.080  0.5348  0.2658 -0.4137
 6426TIP3    H140913   4.108   5.336  -0.004 -1.0568  1.8001 -0.4925
 6426TIP3    H240914   4.234   5.381   0.067  0.4335 -0.2624 -1.7306
 6427TIP3   OH240915   4.853   3.361   1.446  0.2907  0.0316  0.4843
 6427TIP3    H140916   4.768   3.336   1.482 -0.3280  2.2216  0.7231
 6427TIP3    H240917   4.887   3.427   1.507  2.0480 -0.5950  0.2363
 6428TIP3   OH240918   4.792   5.915   0.329  0.8219 -0.0780 -0.1634
 6428TIP3    H140919   4.752   5.850   0.272  0.2668  0.8427 -0.8589
 6428TIP3    H240920   4.853   5.866   0.384  2.3755 -0.8256 -2.4310
 6429TIP3   OH240921   1.973   2.450   0.899 -0.5604  0.1590 -0.6664
 6429TIP3    H140922   2.025   2.460   0.820  0.9548 -0.0759  0.2582
 6429TIP3    H240923   2.033   2.471   0.971 -2.5481  2.8403  0.3613
 6430TIP3   OH240924   5.251   4.887   7.147 -0.3283 -0.0444  0.3175
 6430TIP3    H140925   5.164   4.883   7.186 -0.6025 -0.9368 -0.3302
 6430TIP3    H240926   5.274   4.979   7.148 -1.4940  0.2699  0.0695
 6431TIP3   OH240927   0.771   2.232   8.226  1.0017  0.3200 -0.4222
 6431TIP3    H140928   0.782   2.317   8.268  1.8616  0.5988 -1.1812
 6431TIP3    H240929   0.860   2.201   8.209  0.8636 -2.1620  2.5400
 6432TIP3   OH240930   4.414   6.025   0.822 -0.4989 -0.3653 -0.2721
 6432TIP3    H140931   4.430   6.067   0.907  1.9164  0.3278 -1.0067
 6432TIP3    H240932   4.388   5.935   0.844 -0.1176 -0.1424  1.1953
 6433TIP3   OH240933   1.037   0.787   0.660 -0.2705  0.3001  0.1801
 6433TIP3    H140934   1.007   0.786   0.751 -1.6349  0.7179 -0.2478
 6433TIP3    H240935   1.099   0.860   0.657  0.4872 -0.2895  0.9752
 6434TIP3   OH240936   0.669   1.713   7.162  0.3811  0.2948 -0.4454
 6434TIP3    H140937   0.642   1.804   7.157  1.1891  0.5302 -0.6115
 6434TIP3    H240938   0.644   1.675   7.077  0.7343  0.5521 -0.6628
 6435TIP3   OH240939   3.148   6.486   7.549 -0.3157  0.2528  0.8736
 6435TIP3    H140940   3.174   6.549   7.482 -2.9752  0.1927 -0.3650
 6435TIP3    H240941   3.091   6.536   7.608  0.5655 -0.1389  2.1035
 6436TIP3   OH240942   6.735   1.179   7.532  0.3988 -0.1767  0.0096
 6436TIP3    H140943   6.660   1.164   7.475 -0.1798 -1.9493  1.1338
 6436TIP3    H240944   6.719   1.265   7.571 -0.4040  0.0052 -0.7009
 6437TIP3   OH240945   1.192   3.449   7.683  0.0111  0.5105  0.0798
 6437TIP3    H140946   1.099   3.458   7.662 -0.0254 -1.0552 -0.5845
 6437TIP3    H240947   1.194   3.401   7.766  0.2239  4.0195  2.3352
 6438TIP3   OH240948   3.549   0.407   8.518 -0.8670 -0.0498 -0.1784
 6438TIP3    H140949   3.477   0.349   8.493 -0.0069 -0.4708 -1.8096
 6438TIP3    H240950   3.629   0.359   8.493 -0.1180  1.5370 -1.0149
 6439TIP3   OH240951   4.214   5.029   8.411 -0.5099 -0.2466  0.3295
 6439TIP3    H140952   4.156   4.985   8.473 -2.1330  0.1315 -0.8602
 6439TIP3    H240953   4.195   5.122   8.423  0.6619 -0.0423  0.6835
 6440TIP3   OH240954   3.259   1.484   7.133 -0.1324 -0.0372 -0.1485
 6440TIP3    H140955   3.318   1.451   7.065 -0.3338 -1.8245  0.4730
 6440TIP3    H240956   3.317   1.506   7.206 -0.0415  0.3999 -0.3545
 6441TIP3   OH240957   4.996   1.289   0.992 -0.5852  0.1798  0.4353
 6441TIP3    H140958   4.925   1.308   0.931  0.0544  0.7129 -0.1524
 6441TIP3    H240959   5.021   1.374   1.028  0.1809  0.0780  0.1604
 6442TIP3   OH240960   4.970   4.664   1.035  0.9127 -0.2117  0.0367
 6442TIP3    H140961   4.894   4.707   1.074  0.4300  0.3710 -1.4729
 6442TIP3    H240962   4.962   4.573   1.063 -1.3258 -0.5580 -1.3985
 6443TIP3   OH240963   0.612   4.990   8.307  0.3436  0.1840 -0.1977
 6443TIP3    H140964   0.536   4.953   8.262  0.9839  3.3133 -4.5238
 6443TIP3    H240965   0.673   4.917   8.314 -1.6049 -1.5311 -0.1462
 6444TIP3   OH240966   4.243   5.332   7.729 -0.2468 -0.1314 -0.2686
 6444TIP3    H140967   4.265   5.420   7.761 -0.3950 -0.1549 -0.1030
 6444TIP3    H240968   4.268   5.334   7.637 -0.4177  0.1412 -0.3106
 6445TIP3   OH240969   0.753   5.474   8.468 -0.7340 -0.3819  0.2081
 6445TIP3    H140970   0.760   5.498   8.376 -2.1321  1.0851  0.4382
 6445TIP3    H240971   0.809   5.537   8.514 -1.0826 -0.2533  0.4630
 6446TIP3   OH240972   1.748   1.852   0.583 -0.4529  0.2815  0.0399
 6446TIP3    H140973   1.733   1.935   0.628  1.4821  0.1764  0.9921
 6446TIP3    H240974   1.697   1.788   0.633  0.4493  0.4319  1.2168
 6447TIP3   OH240975   2.297   3.478   1.380  0.2220  0.4546 -0.3867
 6447TIP3    H140976   2.203   3.476   1.394  0.1885 -1.9241 -0.5181
 6447TIP3    H240977   2.310   3.435   1.296  1.4433  0.4278 -0.2093
 6448TIP3   OH240978   6.761   6.825   6.917 -0.3306  0.5307 -0.5177
 6448TIP3    H140979   6.814   6.879   6.858  0.3168 -1.4309 -1.8484
 6448TIP3    H240980   6.798   6.737   6.908 -2.9162 -0.6623 -0.4223
 6449TIP3   OH240981   5.013   2.542   6.755 -0.3237  0.4918  0.0567
 6449TIP3    H140982   5.063   2.483   6.699 -2.6791 -0.6802 -0.9554
 6449TIP3    H240983   5.065   2.623   6.757  1.6683 -0.7089 -0.7115
 6450TIP3   OH240984   5.217   2.885   0.029  0.2704 -0.1821  0.5812
 6450TIP3    H140985   5.153   2.822  -0.003 -1.6570  0.5981  2.6433
 6450TIP3    H240986   5.180   2.971   0.007  1.0913  0.2875  0.9468
 6451TIP3   OH240987   5.036   5.978   7.694 -0.2099  0.5526 -0.0729
 6451TIP3    H140988   4.949   6.017   7.703 -0.6364 -0.5232  0.5920
 6451TIP3    H240989   5.025   5.909   7.628  0.1567  0.4540 -0.0326
 6452TIP3   OH240990   3.090   4.064   7.421  0.3027  0.1339 -0.0629
 6452TIP3    H140991   3.086   3.999   7.491  1.4001 -0.3632 -0.4541
 6452TIP3    H240992   3.181   4.063   7.392  0.1533  1.2733 -0.6201
 6453TIP3   OH240993   3.865   2.737   0.098  0.1886 -0.1299  0.3110
 6453TIP3    H140994   3.849   2.678   0.172 -1.9411  0.7726  0.6469
 6453TIP3    H240995   3.877   2.823   0.138  0.3259  0.1482 -0.3205
 6454TIP3   OH240996   2.846   5.460   8.116  0.6789 -0.9046 -0.3572
 6454TIP3    H140997   2.778   5.467   8.049 -0.9107 -0.7666  1.1925
 6454TIP3    H240998   2.802   5.422   8.192  1.7280  1.2437  1.4833
 6455TIP3   OH240999   5.398   3.100   0.004  0.8182 -0.5193 -0.4138
 6455TIP3    H141000   5.333   3.031  -0.010 -0.6740  0.2130  2.2763
 6455TIP3    H241001   5.374   3.169  -0.059 -1.2409 -0.1691  0.6742
 6456TIP3   OH241002   5.532   5.308   1.677  0.5011  0.7273 -0.2878
 6456TIP3    H141003   5.454   5.253   1.666  1.5950 -1.0543  0.2749
 6456TIP3    H241004   5.526   5.339   1.768  0.9433 -0.3171  0.1241
 6457TIP3   OH241005   6.865   6.456   8.179 -0.5772  0.2232  0.2348
 6457TIP3    H141006   6.812   6.415   8.110  1.0872  1.5773 -1.9823
 6457TIP3    H241007   6.812   6.530   8.209 -1.9574 -1.2352  1.5579
 6458TIP3   OH241008   6.134   3.638   7.373  0.1330 -0.0484  0.5095
 6458TIP3    H141009   6.059   3.625   7.315  1.0750 -0.4609 -0.6559
 6458TIP3    H241010   6.200   3.680   7.318  0.9123 -0.0806  1.3903
 6459TIP3   OH241011   5.197   6.812   1.408 -0.0231 -0.5571  0.0047
 6459TIP3    H141012   5.199   6.719   1.432 -1.6266 -0.9971 -1.4087
 6459TIP3    H241013   5.289   6.839   1.411  0.4866 -2.2095  0.3404
 6460TIP3   OH241014   3.811   2.442   1.530 -0.3248  0.0358 -0.0462
 6460TIP3    H141015   3.893   2.489   1.514 -0.5482  1.2597  1.9792
 6460TIP3    H241016   3.757   2.461   1.453 -0.7490  4.0602  0.9777
 6461TIP3   OH241017   2.724   2.481   8.328  0.0015  0.1781  0.0636
 6461TIP3    H141018   2.761   2.569   8.329  0.5610 -0.0413  1.3545
 6461TIP3    H241019   2.645   2.488   8.275  0.2351  1.3719 -0.1460
 6462TIP3   OH241020   2.743   3.717   8.563 -0.3856 -0.0416  1.0290
 6462TIP3    H141021   2.835   3.707   8.590 -0.0768 -0.7011 -0.2209
 6462TIP3    H241022   2.734   3.661   8.486 -1.3529  1.4804 -0.0039
 6463TIP3   OH241023   0.682   5.739   7.427 -1.1275 -0.0729 -0.4334
 6463TIP3    H141024   0.678   5.708   7.336 -0.3233  0.3207 -0.6145
 6463TIP3    H241025   0.653   5.829   7.424  0.4748  0.4776 -0.5940
 6464TIP3   OH241026   2.753   2.590   7.859 -0.1287  0.5754  0.0992
 6464TIP3    H141027   2.707   2.598   7.942 -0.4946  0.0281 -0.0418
 6464TIP3    H241028   2.710   2.652   7.801 -1.4903 -0.7283 -0.3654
 6465TIP3   OH241029   5.666   0.184   0.611 -0.0464 -0.0558  0.5705
 6465TIP3    H141030   5.651   0.123   0.683  1.2829 -1.8833 -0.6109
 6465TIP3    H241031   5.586   0.177   0.558  0.9942 -2.7519 -0.8426
 6466TIP3   OH241032   6.359   6.851   6.753 -0.2135  0.1767  0.0544
 6466TIP3    H141033   6.277   6.801   6.758 -0.8400  1.0671 -0.8697
 6466TIP3    H241034   6.366   6.894   6.838 -0.0396 -0.8732  0.5951
 6467TIP3   OH241035   4.453   2.206   6.919  0.4527  0.3489  0.7375
 6467TIP3    H141036   4.376   2.171   6.875  1.8777  0.0618 -1.7107
 6467TIP3    H241037   4.516   2.221   6.848  2.3603  1.3298  2.5455
 6468TIP3   OH241038   0.186   4.878   7.329  0.2633  0.0114 -0.0308
 6468TIP3    H141039   0.144   4.844   7.251 -0.9057  1.5691 -0.1228
 6468TIP3    H241040   0.238   4.952   7.298  3.4804 -2.0233  0.0197
 6469TIP3   OH241041   0.826   0.542   0.656  0.6622  0.3347  0.3627
 6469TIP3    H141042   0.753   0.576   0.706 -0.2751  0.7678 -1.2186
 6469TIP3    H241043   0.877   0.619   0.632  0.7960  0.1965  0.1962
 6470TIP3   OH241044   2.533   3.525   2.092  0.5896 -0.8643  0.4607
 6470TIP3    H141045   2.519   3.574   2.011  0.9849 -0.8546  0.3987
 6470TIP3    H241046   2.617   3.558   2.126  0.7697 -1.3711  0.5097
 6471TIP3   OH241047   2.763   5.030   7.286  0.2237 -0.2390 -0.8608
 6471TIP3    H141048   2.830   5.065   7.345  0.7535 -0.5737 -1.2434
 6471TIP3    H241049   2.778   5.075   7.203 -0.5607  0.2782 -0.7274
 6472TIP3   OH241050   6.050   4.680   7.908 -0.8058  0.3481 -0.6619
 6472TIP3    H141051   6.123   4.734   7.880 -1.0170  0.8022 -0.3590
 6472TIP3    H241052   5.973   4.737   7.900 -1.3253 -0.4887 -2.1670
 6473TIP3   OH241053   1.078   6.461   1.386 -0.7951 -0.0036 -0.0351
 6473TIP3    H141054   1.124   6.521   1.328 -1.6036  1.2137  0.5318
 6473TIP3    H241055   1.000   6.434   1.337  1.7233 -4.3718 -2.2012
 6474TIP3   OH241056   4.572   3.875   0.758 -0.0738  0.2740  0.0928
 6474TIP3    H141057   4.561   3.927   0.838 -1.4679  1.5353 -0.8737
 6474TIP3    H241058   4.665   3.881   0.739  0.1444  0.6389  1.1644
 6475TIP3   OH241059   4.275   2.953   8.594 -0.1911  0.1923  0.7939
 6475TIP3    H141060   4.343   2.998   8.543 -0.7902  1.1234  0.7918
 6475TIP3    H241061   4.323   2.895   8.653  0.6637  1.4526  1.3808
 6476TIP3   OH241062   3.342   2.592   0.600 -0.9638 -0.1097 -0.4943
 6476TIP3    H141063   3.278   2.639   0.548  0.0991 -0.4143 -2.1243
 6476TIP3    H241064   3.310   2.501   0.601  0.1252 -0.5573 -2.5072
 6477TIP3   OH241065   1.227   6.342   1.836  0.2275 -0.1006  0.3071
 6477TIP3    H141066   1.310   6.381   1.863  0.2299 -0.8153  1.3940
 6477TIP3    H241067   1.234   6.333   1.741  1.9279 -1.3267  0.5115
 6478TIP3   OH241068   2.047   1.738   8.155 -0.0674 -0.8091  0.1589
 6478TIP3    H141069   2.109   1.742   8.228  0.8437  2.5906 -0.6221
 6478TIP3    H241070   1.962   1.760   8.193 -0.1473 -1.8185  0.6027
 6479TIP3   OH241071   0.124   3.199   0.597 -0.1901 -0.0756  0.2456
 6479TIP3    H141072   0.197   3.171   0.652  0.0442 -0.3527 -0.2023
 6479TIP3    H241073   0.052   3.140   0.621 -0.2021  0.0527  0.5269
 6480TIP3   OH241074   5.543   5.499   7.594 -0.3412 -0.4312  0.0144
 6480TIP3    H141075   5.631   5.519   7.563 -0.7232  1.3209 -0.0689
 6480TIP3    H241076   5.553   5.483   7.688 -0.1628  1.7365  0.4091
 6481TIP3   OH241077   5.153   6.738   0.304  0.3184 -0.0557 -0.1676
 6481TIP3    H141078   5.100   6.680   0.249  1.2890  0.7198 -2.0186
 6481TIP3    H241079   5.090   6.784   0.359 -1.0224  0.9722 -2.4192
 6482TIP3   OH241080   2.484   1.966   1.777  0.2778 -0.4932  0.2081
 6482TIP3    H141081   2.469   1.999   1.866  0.0417  0.3689 -0.1377
 6482TIP3    H241082   2.576   1.939   1.776  0.9917  1.7344  0.0513
 6483TIP3   OH241083   6.106   2.556   0.791 -0.1960  0.4834 -0.3840
 6483TIP3    H141084   6.129   2.523   0.704  2.2839 -0.1587  0.4588
 6483TIP3    H241085   6.040   2.494   0.823  1.1918 -1.1725 -0.5744
 6484TIP3   OH241086   4.300   1.422   0.783 -0.6000 -0.2202 -0.1392
 6484TIP3    H141087   4.291   1.496   0.844 -2.2372 -1.1509  0.8116
 6484TIP3    H241088   4.298   1.463   0.696 -3.5040  0.7755  0.2896
 6485TIP3   OH241089   5.846   4.852   7.843  0.2337 -0.1725  0.5540
 6485TIP3    H141090   5.805   4.832   7.758  1.4456 -1.3835  0.2178
 6485TIP3    H241091   5.772   4.855   7.904 -0.5078 -1.0028 -0.2554
 6486TIP3   OH241092   5.074   1.337   8.374  0.1126 -0.3022  0.5052
 6486TIP3    H141093   5.030   1.396   8.313 -1.6512 -0.4703  1.5616
 6486TIP3    H241094   5.047   1.250   8.346 -0.4207 -0.3964  1.2981
 6487TIP3   OH241095   3.189   3.444   0.080  0.3689  0.5582 -0.0398
 6487TIP3    H141096   3.163   3.534   0.101 -1.1293  0.0717  0.3115
 6487TIP3    H241097   3.178   3.438  -0.015  0.6798  0.8049 -0.0933
 6488TIP3   OH241098   3.914   2.013   0.058 -0.0062 -0.8121 -0.3657
 6488TIP3    H141099   3.909   2.026  -0.037  3.0003  1.3954 -0.3461
 6488TIP3    H241100   3.865   2.087   0.095 -0.3604 -1.1453 -0.1469
 6489TIP3   OH241101   6.844   0.947   6.820  0.1397  0.1855  0.2438
 6489TIP3    H141102   6.892   1.029   6.806  1.3796 -0.4022  0.8737
 6489TIP3    H241103   6.806   0.957   6.907 -2.4843  1.3807 -0.9332
 6490TIP3   OH241104   6.638   3.259   7.864  0.7875  0.1277 -0.1507
 6490TIP3    H141105   6.621   3.308   7.945  0.1944  0.9999 -0.7935
 6490TIP3    H241106   6.648   3.326   7.797 -0.1862 -0.6325 -1.0851
 6491TIP3   OH241107   2.763   3.120   6.542  0.4948 -0.7531  0.5839
 6491TIP3    H141108   2.845   3.094   6.500  0.6083  1.0837 -0.4594
 6491TIP3    H241109   2.705   3.144   6.470 -1.0812 -2.1993  1.2894
 6492TIP3   OH241110   5.892   2.583   7.573 -0.1827  0.0076 -0.3718
 6492TIP3    H141111   5.928   2.646   7.635 -0.0817 -0.6158  0.2118
 6492TIP3    H241112   5.903   2.498   7.615 -0.8053 -0.3555 -0.9118
 6493TIP3   OH241113   1.569   6.134   6.392 -0.2388 -0.5572 -0.4012
 6493TIP3    H141114   1.519   6.201   6.438 -0.1404 -0.1155 -0.9252
 6493TIP3    H241115   1.564   6.160   6.300  0.7309 -0.6542 -0.4871
 6494TIP3   OH241116   2.228   6.592   1.736  0.1263 -0.1080 -0.5002
 6494TIP3    H141117   2.160   6.524   1.745 -0.6182  0.4327 -1.6750
 6494TIP3    H241118   2.190   6.669   1.778 -0.3208  0.3895 -1.7530
 6495TIP3   OH241119   6.050   5.147   8.434  0.1249  0.2141  0.1862
 6495TIP3    H141120   6.084   5.059   8.418 -0.7128 -0.2149  0.7044
 6495TIP3    H241121   5.998   5.168   8.357 -1.6114 -0.7211  1.0472
 6496TIP3   OH241122   1.302   0.111   1.558  0.7032 -0.1973  0.4077
 6496TIP3    H141123   1.304   0.181   1.492 -1.6728 -0.5290 -0.1099
 6496TIP3    H241124   1.296   0.157   1.642  1.6052  0.2133  0.2568
 6497TIP3   OH241125   2.473   3.825   8.507 -0.2236 -0.4279 -0.1506
 6497TIP3    H141126   2.438   3.741   8.476 -1.9002  0.3100 -0.3599
 6497TIP3    H241127   2.568   3.818   8.494 -0.3281 -2.2664 -0.1899
 6498TIP3   OH241128   1.270   3.157   1.169 -0.0879 -0.0589  0.6604
 6498TIP3    H141129   1.365   3.154   1.179  0.0827  1.1069 -0.4849
 6498TIP3    H241130   1.241   3.222   1.233  0.0660  0.8094 -0.1452
 6499TIP3   OH241131   0.634   0.863   0.476  0.1645 -0.4700 -0.0819
 6499TIP3    H141132   0.616   0.947   0.434  1.1311  0.2366  0.8735
 6499TIP3    H241133   0.728   0.864   0.493  0.2762 -1.9580 -0.4888
 6500TIP3   OH241134   0.237   2.039   2.242 -0.4845  0.0185 -0.2087
 6500TIP3    H141135   0.266   2.129   2.253 -2.3241  0.6014  0.2847
 6500TIP3    H241136   0.312   1.986   2.269 -0.3603  1.4222  2.5352
 6501TIP3   OH241137   2.036   0.810   1.074  0.1060  0.4476  0.0184
 6501TIP3    H141138   2.057   0.788   1.165 -0.6531  0.5400  0.2222
 6501TIP3    H241139   2.078   0.894   1.059 -0.3195  0.7552  0.5050
 6502TIP3   OH241140   2.617   4.962   7.935 -0.1354 -0.1425  0.1284
 6502TIP3    H141141   2.707   4.993   7.946  0.3077 -1.0804 -0.6773
 6502TIP3    H241142   2.603   4.903   8.010  0.4827 -1.1963 -0.5539
 6503TIP3   OH241143   4.343   2.489   8.538 -0.2956  0.4457 -0.0177
 6503TIP3    H141144   4.409   2.459   8.476  0.6485 -0.3322  1.3152
 6503TIP3    H241145   4.291   2.553   8.489  0.4411 -0.1141 -1.5725
 6504TIP3   OH241146   1.624   2.255   0.317  0.6278  0.3289 -0.0062
 6504TIP3    H141147   1.586   2.191   0.255  2.0637  1.6329 -2.3816
 6504TIP3    H241148   1.549   2.307   0.346 -0.0457 -0.0468 -1.0106
 6505TIP3   OH241149   3.276   1.348   8.753 -0.1244 -0.0173 -0.2350
 6505TIP3    H141150   3.282   1.266   8.802 -1.2445  0.5540  0.9224
 6505TIP3    H241151   3.313   1.414   8.813  1.3678  0.2574 -1.4007
 6506TIP3   OH241152   2.997   4.375   0.899  0.1251 -0.1647 -0.4626
 6506TIP3    H141153   3.052   4.357   0.975  0.1594 -0.9395 -0.6574
 6506TIP3    H241154   2.918   4.413   0.935  1.6027  3.0871 -0.3245
 6507TIP3   OH241155   0.701   0.991   8.590  0.0774  0.0153 -0.5725
 6507TIP3    H141156   0.626   0.973   8.534 -0.8794  0.0272  0.6617
 6507TIP3    H241157   0.708   1.086   8.591  0.3462  0.0041 -0.9681
 6508TIP3   OH241158   4.595   3.371   7.807 -0.1041 -0.3690 -0.9818
 6508TIP3    H141159   4.688   3.382   7.786  0.2332 -1.6581 -0.2655
 6508TIP3    H241160   4.561   3.460   7.812  0.8005  0.0934 -2.4936
 6509TIP3   OH241161   4.489   5.401   7.971 -0.6053  0.1255  0.6102
 6509TIP3    H141162   4.419   5.413   7.907 -1.1139  0.3960  1.1963
 6509TIP3    H241163   4.526   5.489   7.983 -1.7133  0.4546  1.9920
 6510TIP3   OH241164   3.808   0.644   6.713 -0.1745 -0.3194  0.5852
 6510TIP3    H141165   3.839   0.684   6.631 -2.0173 -1.1252 -0.5846
 6510TIP3    H241166   3.713   0.654   6.709 -0.6501 -3.7644  0.7374
 6511TIP3   OH241167   0.596   2.833   8.400 -0.0601  0.3231  0.2945
 6511TIP3    H141168   0.506   2.831   8.431 -0.1330  0.1186  0.0749
 6511TIP3    H241169   0.630   2.917   8.430  0.6849 -0.8790  3.1755
 6512TIP3   OH241170   0.338   5.088   7.271  0.2749 -0.8045  0.0830
 6512TIP3    H141171   0.332   5.117   7.362  0.9958 -2.3519  0.6573
 6512TIP3    H241172   0.432   5.077   7.256  0.3132  1.0403 -1.4180
 6513TIP3   OH241173   3.424   1.977   0.549  0.1480  0.2951  0.1487
 6513TIP3    H141174   3.332   1.973   0.526  0.2697  0.2140 -0.3296
 6513TIP3    H241175   3.469   1.929   0.479  0.3519 -1.5364  1.4415
 6514TIP3   OH241176   0.113   4.011   8.734 -0.6419 -0.4591  0.1761
 6514TIP3    H141177   0.157   4.030   8.817  0.8366 -0.0419 -0.6743
 6514TIP3    H241178   0.088   4.097   8.700 -0.0865 -0.5192 -0.4107
 6515TIP3   OH241179   2.902   3.419   8.785 -0.1940  0.3449  0.3994
 6515TIP3    H141180   2.971   3.360   8.753 -1.5157 -0.6451 -0.7806
 6515TIP3    H241181   2.933   3.507   8.765  1.1120 -0.0302  0.7162
 6516TIP3   OH241182   1.507   2.791   0.040 -0.4367  0.4459  0.3953
 6516TIP3    H141183   1.554   2.806  -0.043 -0.1334 -0.0682  0.4656
 6516TIP3    H241184   1.530   2.866   0.095  0.5749  0.0409  0.5442
 6517TIP3   OH241185   2.533   0.888   6.689  0.2506  0.5738  0.3777
 6517TIP3    H141186   2.582   0.897   6.607 -0.8350 -0.9026 -0.4779
 6517TIP3    H241187   2.578   0.818   6.736 -0.5542 -0.2903 -0.0933
 6518TIP3   OH241188   4.117   1.223   0.829  0.0706 -0.9916 -0.4457
 6518TIP3    H141189   4.084   1.250   0.915 -1.2933  1.3278 -1.6015
 6518TIP3    H241190   4.165   1.299   0.797 -0.8016 -1.1894 -2.3764
 6519TIP3   OH241191   0.187   5.618   1.648 -0.0724 -0.0930  0.0670
 6519TIP3    H141192   0.124   5.546   1.651  0.9708 -1.0077  0.3403
 6519TIP3    H241193   0.190   5.651   1.738  0.6948 -0.8236  0.3253
 6520TIP3   OH241194   4.257   4.112   0.445 -0.2443 -0.5903  0.9077
 6520TIP3    H141195   4.339   4.154   0.418 -0.9712  0.4756  0.3191
 6520TIP3    H241196   4.235   4.153   0.528  0.2815 -1.5490  1.5474
 6521TIP3   OH241197   0.510   6.283   6.795 -0.2005  0.4105  0.0343
 6521TIP3    H141198   0.582   6.340   6.771 -0.3847  0.3177 -0.7466
 6521TIP3    H241199   0.462   6.268   6.714 -0.8122  0.0678  0.4473
 6522TIP3   OH241200   0.439   3.013   6.345 -0.0055  0.3630  0.3901
 6522TIP3    H141201   0.428   3.108   6.335  2.1470  0.4928 -1.6749
 6522TIP3    H241202   0.356   2.976   6.316  0.1456  1.5708 -1.8276
 6523TIP3   OH241203   1.651   1.424   7.205  0.1502 -0.6124 -0.1439
 6523TIP3    H141204   1.695   1.407   7.122 -1.3543 -0.4870 -0.9999
 6523TIP3    H241205   1.692   1.505   7.238 -1.1913  1.0366 -2.2485
 6524TIP3   OH241206   4.340   6.166   6.854 -0.0891 -0.6138 -0.0790
 6524TIP3    H141207   4.308   6.191   6.768  1.1357  1.0786 -0.1010
 6524TIP3    H241208   4.434   6.187   6.852  0.4029 -2.4832  0.9856
 6525TIP3   OH241209   3.201   5.638   7.270  0.4471  0.2523  0.6767
 6525TIP3    H141210   3.135   5.602   7.211  1.9700  0.3841 -1.2029
 6525TIP3    H241211   3.224   5.566   7.328  0.0400 -0.3630  0.0771
 6526TIP3   OH241212   2.000   6.223   1.572 -0.8575  0.3124  0.0130
 6526TIP3    H141213   1.970   6.303   1.529  0.7890  0.8959 -0.1126
 6526TIP3    H241214   1.997   6.244   1.665 -0.5920  0.4616 -0.0116
 6527TIP3   OH241215   6.279   6.504   0.624 -0.2585  0.0052 -0.2099
 6527TIP3    H141216   6.245   6.424   0.664  0.2596  0.8129  1.9748
 6527TIP3    H241217   6.249   6.574   0.681  1.9053  1.0769 -0.2662
 6528TIP3   OH241218   6.011   5.209   7.994  0.3532 -0.6355 -0.2673
 6528TIP3    H141219   5.968   5.290   7.968 -1.7069 -0.6737  2.5258
 6528TIP3    H241220   6.025   5.162   7.913  1.4091  2.3481 -1.9858
 6529TIP3   OH241221   3.656   2.219   7.839 -0.1983  0.7382  0.3995
 6529TIP3    H141222   3.615   2.157   7.778 -1.3664  2.0076 -0.1564
 6529TIP3    H241223   3.737   2.175   7.866 -1.2519 -1.2778  0.4949
 6530TIP3   OH241224   4.758   4.886   6.922  0.4999  0.5542  0.3404
 6530TIP3    H141225   4.726   4.929   6.843  0.4254  1.7159  0.9912
 6530TIP3    H241226   4.754   4.792   6.901 -1.2303  0.7540 -0.3824
 6531TIP3   OH241227   0.217   3.418   1.033 -0.2764 -0.3894 -0.1990
 6531TIP3    H141228   0.296   3.422   0.979 -1.4215  0.8100 -1.8584
 6531TIP3    H241229   0.184   3.329   1.021  0.4285 -0.6742 -0.0586
 6532TIP3   OH241230   2.645   5.969   7.233 -0.2017  0.1667  0.3716
 6532TIP3    H141231   2.686   5.896   7.278  0.7666 -0.3067 -1.2027
 6532TIP3    H241232   2.642   6.039   7.298 -0.2631 -0.9521  1.6105
 6533TIP3   OH241233   3.185   6.748   1.483  0.1055  0.5473  0.1437
 6533TIP3    H141234   3.122   6.718   1.548  1.4446 -1.1080  0.7607
 6533TIP3    H241235   3.206   6.670   1.432 -0.5546  1.7111 -2.0246
 6534TIP3   OH241236   2.135   0.959   1.716 -0.4878  0.1946  0.4131
 6534TIP3    H141237   2.129   0.995   1.805 -0.0538 -0.6902  0.8104
 6534TIP3    H241238   2.146   0.865   1.729  0.1543  0.1257 -0.5672
 6535TIP3   OH241239   3.812   4.341   0.906 -0.4929 -0.1412  0.3232
 6535TIP3    H141240   3.878   4.404   0.876 -0.1635 -0.8816 -0.5368
 6535TIP3    H241241   3.828   4.263   0.854 -1.7430 -0.5006  0.4465
 6536TIP3   OH241242   6.558   6.636   6.986  0.2358 -0.5300  0.5125
 6536TIP3    H141243   6.624   6.583   7.031  0.9372  0.3364  0.5441
 6536TIP3    H241244   6.606   6.714   6.957 -0.6117 -0.2406 -0.1492
 6537TIP3   OH241245   4.942   6.856   0.437  0.0689 -0.0911  0.0430
 6537TIP3    H141246   4.903   6.942   0.424  0.7017  0.2187  0.1499
 6537TIP3    H241247   4.876   6.794   0.405  0.1013  0.4814 -1.1812
 6538TIP3   OH241248   4.145   5.941   1.850  0.3776  0.1384 -0.0298
 6538TIP3    H141249   4.205   5.967   1.779 -0.4164  0.3295 -0.6429
 6538TIP3    H241250   4.197   5.881   1.904  0.9678 -0.1020 -0.8344
 6539TIP3   OH241251   4.572   1.546   7.810 -0.5547  0.2970 -0.0122
 6539TIP3    H141252   4.485   1.571   7.779 -0.4309 -0.4313 -0.9851
 6539TIP3    H241253   4.612   1.502   7.735  0.6021  0.4965  0.4746
 6540TIP3   OH241254   2.704   6.367   0.023  0.4120  0.0979  0.3721
 6540TIP3    H141255   2.621   6.338  -0.015  1.0992  0.0776 -1.1907
 6540TIP3    H241256   2.739   6.289   0.068  0.7743 -0.6515 -1.1507
 6541TIP3   OH241257   3.690   2.735   0.766  0.2013  0.4278 -0.2234
 6541TIP3    H141258   3.760   2.715   0.704  1.9426  0.4252  1.6436
 6541TIP3    H241259   3.669   2.827   0.750  1.0243  0.5842 -0.4614
 6542TIP3   OH241260   0.410   4.503   1.464 -0.0307 -0.2569 -0.3361
 6542TIP3    H141261   0.361   4.475   1.541 -0.5205 -0.6173 -0.7735
 6542TIP3    H241262   0.502   4.491   1.489 -0.2047 -2.0176 -0.3930
 6543TIP3   OH241263   0.625   1.293   0.931  0.6514  0.7328 -0.1222
 6543TIP3    H141264   0.561   1.223   0.929  1.3472  0.0941 -1.7840
 6543TIP3    H241265   0.620   1.328   1.020 -0.1388 -1.0144  0.5564
 6544TIP3   OH241266   3.430   6.338   8.120 -0.3513  0.1838  0.0711
 6544TIP3    H141267   3.432   6.423   8.075 -0.8418 -0.0126 -0.3425
 6544TIP3    H241268   3.339   6.329   8.150 -0.5552 -0.5942 -0.7034
 6545TIP3   OH241269   5.525   6.326   2.015 -0.0898 -0.1497 -0.3552
 6545TIP3    H141270   5.543   6.279   2.096 -1.3994 -1.1783 -0.6161
 6545TIP3    H241271   5.440   6.368   2.030  0.4595  1.0866 -0.5980
 6546TIP3   OH241272   6.287   0.839   0.448  0.3853  0.1559  0.0752
 6546TIP3    H141273   6.222   0.796   0.504  0.2326 -0.1297 -0.3199
 6546TIP3    H241274   6.273   0.802   0.361  0.2214  1.0420 -0.2888
 6547TIP3   OH241275   3.018   4.196   0.073 -0.0365 -0.2395  0.1371
 6547TIP3    H141276   3.013   4.285   0.037  0.7587  0.0724  0.7632
 6547TIP3    H241277   3.044   4.142  -0.001 -0.7540  0.0061 -0.3070
 6548TIP3   OH241278   2.961   1.716   0.057  0.1238 -0.6429 -0.2098
 6548TIP3    H141279   2.886   1.675   0.100 -0.6112  2.6486  2.0339
 6548TIP3    H241280   2.922   1.772  -0.010  0.7383 -0.4115 -0.3781
 6549TIP3   OH241281   0.199   2.737   0.549  0.6820  0.0444  0.1057
 6549TIP3    H141282   0.209   2.706   0.460  1.4685  0.2131  0.1265
 6549TIP3    H241283   0.137   2.810   0.543 -0.3364 -0.8189 -0.0937
 6550TIP3   OH241284   1.202   4.458   8.092 -0.4229  0.1771  0.5574
 6550TIP3    H141285   1.210   4.375   8.138  3.1012 -0.4364 -0.8592
 6550TIP3    H241286   1.151   4.436   8.013 -0.8040 -0.2591  0.9166
 6551TIP3   OH241287   4.759   6.336   0.259  0.1570 -0.3539 -0.4906
 6551TIP3    H141288   4.726   6.293   0.338 -0.1476 -0.0755 -0.4634
 6551TIP3    H241289   4.736   6.428   0.271  0.5418 -0.2314 -0.6840
 6552TIP3   OH241290   1.879   5.194   0.886  0.8512  0.3407  0.2261
 6552TIP3    H141291   1.913   5.284   0.892  2.1214  0.0236 -1.3942
 6552TIP3    H241292   1.785   5.204   0.869  0.6105  1.3096  1.9733
 6553TIP3   OH241293   3.550   2.633   0.410  0.1627 -0.2242  0.0962
 6553TIP3    H141294   3.525   2.553   0.365 -0.9205  0.8663 -1.3489
 6553TIP3    H241295   3.502   2.630   0.493 -0.0318 -0.9754 -0.0387
 6554TIP3   OH241296   1.959   0.614   0.585 -0.6147  0.3370  0.1576
 6554TIP3    H141297   1.986   0.550   0.651 -1.9995 -1.3268 -0.7999
 6554TIP3    H241298   2.035   0.622   0.528 -0.6586 -1.1006 -0.1537
 6555TIP3   OH241299   4.379   4.614   8.300 -0.2250 -0.0394  0.0320
 6555TIP3    H141300   4.362   4.642   8.389 -0.8555  0.4355 -0.2294
 6555TIP3    H241301   4.356   4.690   8.246 -0.8134 -0.6614 -0.6055
 6556TIP3   OH241302   3.253   6.732   8.358  0.1914  0.1666 -0.1056
 6556TIP3    H141303   3.275   6.666   8.423  1.2449 -0.6534 -1.2605
 6556TIP3    H241304   3.293   6.813   8.391  2.4984 -0.6596 -0.6602
 6557TIP3   OH241305   5.979   3.572   2.226  0.3065  0.4482  0.5602
 6557TIP3    H141306   5.907   3.511   2.211  1.1202 -0.5077  0.4042
 6557TIP3    H241307   5.955   3.651   2.177 -1.3383  0.7396  1.7472
 6558TIP3   OH241308   0.794   3.201   0.770 -0.1105  0.2634 -0.5192
 6558TIP3    H141309   0.746   3.119   0.764  0.7217 -0.2977  0.3125
 6558TIP3    H241310   0.759   3.254   0.698 -0.4571 -0.9106 -1.2488
 6559TIP3   OH241311   0.653   2.026   0.774 -0.0465 -0.3472 -0.1542
 6559TIP3    H141312   0.691   1.955   0.723 -1.3267  0.4271 -2.3562
 6559TIP3    H241313   0.565   1.995   0.796 -1.0545  0.8735 -2.1300
 6560TIP3   OH241314   2.122   4.739   0.366 -0.0118 -0.4680 -0.4987
 6560TIP3    H141315   2.169   4.794   0.429 -0.5601 -0.0254 -0.4687
 6560TIP3    H241316   2.120   4.653   0.407 -1.5421  0.1026  0.7504
 6561TIP3   OH241317   5.540   5.509   2.313  0.5599 -0.3014 -0.0157
 6561TIP3    H141318   5.474   5.459   2.264  1.2937 -1.9535  0.6423
 6561TIP3    H241319   5.567   5.451   2.384  1.7501  0.8812  0.5356
 6562TIP3   OH241320   6.296   6.830   8.093  0.7398 -0.0402 -0.0031
 6562TIP3    H141321   6.204   6.804   8.089  0.7246  0.0707 -0.5509
 6562TIP3    H241322   6.298   6.915   8.049  1.0706  0.0536  0.1966
 6563TIP3   OH241323   1.073   6.158   8.301 -0.3286 -0.1613 -0.5016
 6563TIP3    H141324   1.136   6.174   8.231 -0.5316  0.7560 -0.4770
 6563TIP3    H241325   0.997   6.119   8.256 -0.3508  0.1649 -0.7499
 6564TIP3   OH241326   1.509   2.091   8.749 -0.7933 -0.5605 -0.8637
 6564TIP3    H141327   1.482   2.003   8.720  1.4804 -1.5188 -0.2799
 6564TIP3    H241328   1.541   2.078   8.838 -0.0382  0.7734 -0.9208
 6565TIP3   OH241329   3.278   5.469   6.813 -0.3995 -0.0650  0.7274
 6565TIP3    H141330   3.275   5.452   6.907  1.4399 -1.1305  0.6264
 6565TIP3    H241331   3.230   5.396   6.774  0.4601 -0.6389  0.7403
 6566TIP3   OH241332   3.272   0.156   2.207  0.6010 -0.1324  0.0437
 6566TIP3    H141333   3.320   0.083   2.166 -0.2158 -0.7415  0.1588
 6566TIP3    H241334   3.200   0.173   2.147  0.8457  0.6649 -0.0354
 6567TIP3   OH241335   4.315   0.841   0.247  0.7249 -0.0982  0.2300
 6567TIP3    H141336   4.374   0.898   0.199  0.4373 -1.8160 -2.3891
 6567TIP3    H241337   4.233   0.890   0.253  1.8791  1.7765  2.7692
 6568TIP3   OH241338   5.009   4.479   0.289  0.2913 -0.7551  0.3140
 6568TIP3    H141339   4.951   4.553   0.310  0.3624 -1.1393  2.0302
 6568TIP3    H241340   4.990   4.414   0.357  1.0524 -1.8498 -0.4934
 6569TIP3   OH241341   2.412   4.459   0.539  0.2283  0.3360  0.0829
 6569TIP3    H141342   2.435   4.534   0.593 -0.0036  0.8618 -0.5369
 6569TIP3    H241343   2.317   4.449   0.549  0.1894  0.4136 -0.1946
 6570TIP3   OH241344   4.536   3.523   8.131  0.8325  0.1481  0.4057
 6570TIP3    H141345   4.484   3.470   8.191  1.4213 -1.5045 -0.4776
 6570TIP3    H241346   4.474   3.552   8.064  0.6888 -0.2551  0.3637
 6571TIP3   OH241347   1.741   0.778   1.207 -0.5914 -0.6171 -0.0609
 6571TIP3    H141348   1.657   0.777   1.253 -0.5030 -0.5821  0.1019
 6571TIP3    H241349   1.761   0.685   1.191 -1.7656 -0.5838 -2.1384
 6572TIP3   OH241350   4.143   1.867   0.069  0.1664  0.3319  0.6129
 6572TIP3    H141351   4.072   1.931   0.065 -1.3177 -1.3022 -1.2883
 6572TIP3    H241352   4.170   1.855  -0.022  2.5262  0.4489  1.2284
 6573TIP3   OH241353   5.813   6.787   7.784 -0.1604 -0.9995 -0.1460
 6573TIP3    H141354   5.791   6.879   7.799  1.0772 -0.9210  1.3891
 6573TIP3    H241355   5.891   6.789   7.728 -1.3984 -1.2078 -1.9901
 6574TIP3   OH241356   1.822   4.074   1.387  0.0289 -0.1007 -0.4874
 6574TIP3    H141357   1.753   4.040   1.444 -1.6132  0.5069 -2.0124
 6574TIP3    H241358   1.903   4.035   1.420 -1.0704 -1.0472  1.1977
 6575TIP3   OH241359   4.012   0.426   0.499  0.1196 -0.8632  0.0909
 6575TIP3    H141360   3.944   0.449   0.563  0.0554 -1.3338  0.2018
 6575TIP3    H241361   4.019   0.502   0.442 -1.2890 -1.2185 -0.6024
 6576TIP3   OH241362   2.809   2.275   7.980 -0.1503 -0.4385  0.4718
 6576TIP3    H141363   2.871   2.343   8.006 -1.4106  0.9848 -0.1445
 6576TIP3    H241364   2.728   2.322   7.960 -1.3048 -2.2061  0.7921
 6577TIP3   OH241365   5.224   2.342   1.108  0.0047  0.1887 -0.1990
 6577TIP3    H141366   5.134   2.311   1.111  0.3421 -0.8425  2.1413
 6577TIP3    H241367   5.217   2.436   1.095 -1.3489  0.0164 -0.9072
 6578TIP3   OH241368   4.693   0.172   6.789  0.1748  0.0850 -0.0864
 6578TIP3    H141369   4.652   0.245   6.745 -1.6786 -1.3315 -0.8285
 6578TIP3    H241370   4.677   0.097   6.732  0.0632 -1.3082  1.6734
 6579TIP3   OH241371   3.597   0.073   6.861  0.2089  0.2288  0.0538
 6579TIP3    H141372   3.552   0.017   6.798  1.1524 -1.1459  0.5726
 6579TIP3    H241373   3.533   0.086   6.931  0.2803 -1.0151  0.3814
 6580TIP3   OH241374   6.172   6.247   0.727  0.3843 -0.0827  0.3886
 6580TIP3    H141375   6.256   6.201   0.728  0.8316  0.6787 -0.6569
 6580TIP3    H241376   6.137   6.233   0.639  0.0392  0.7136  0.3913
 6581TIP3   OH241377   0.682   4.064   8.179  0.0229  0.2047  0.0747
 6581TIP3    H141378   0.713   4.039   8.267  0.2847 -1.3831 -0.4417
 6581TIP3    H241379   0.625   4.139   8.194 -0.2421 -0.2788  1.6503
 6582TIP3   OH241380   5.439   5.532   8.756 -0.1880 -0.3573  0.9536
 6582TIP3    H141381   5.433   5.478   8.836  3.3286 -1.4016  0.7012
 6582TIP3    H241382   5.443   5.622   8.788 -0.4454 -0.6424  1.8229
 6583TIP3   OH241383   5.275   2.275   6.633  0.3792  0.5176  0.1946
 6583TIP3    H141384   5.280   2.367   6.607  0.4652  1.0606  1.9465
 6583TIP3    H241385   5.360   2.238   6.609  1.6278  1.7658  2.3399
 6584TIP3   OH241386   0.423   1.679   0.387 -0.2973 -0.3518  0.2486
 6584TIP3    H141387   0.382   1.758   0.352  0.8012 -0.1673 -0.6646
 6584TIP3    H241388   0.503   1.669   0.337 -1.9632 -3.9545 -2.0787
 6585TIP3   OH241389   3.389   2.212   6.507  0.5227  0.6925  0.0300
 6585TIP3    H141390   3.453   2.186   6.440 -0.2103  0.6630 -0.6753
 6585TIP3    H241391   3.313   2.243   6.457 -0.5955 -0.6705  0.8142
 6586TIP3   OH241392   6.152   0.546   7.711  0.0263  0.1856 -0.6762
 6586TIP3    H141393   6.077   0.504   7.669  1.1288 -2.0998 -0.4948
 6586TIP3    H241394   6.221   0.480   7.708  1.1540  1.1446  1.7938
 6587TIP3   OH241395   5.713   6.584   0.183  0.0315 -0.7343  0.6285
 6587TIP3    H141396   5.737   6.667   0.140  0.8520 -1.2305  0.1032
 6587TIP3    H241397   5.644   6.608   0.245  0.3545  0.3635  0.5766
 6588TIP3   OH241398   6.767   5.206   7.923  0.5253  0.1133  0.5211
 6588TIP3    H141399   6.816   5.199   7.840  0.4949  0.2789  0.4883
 6588TIP3    H241400   6.767   5.300   7.943 -1.1776  0.3415 -0.3319
 6589TIP3   OH241401   4.221   1.205   7.180 -0.1204 -0.1396 -0.4474
 6589TIP3    H141402   4.129   1.231   7.173  0.1969  1.2731  0.1852
 6589TIP3    H241403   4.243   1.169   7.094 -0.9558  0.5906 -0.9823
 6590TIP3   OH241404   2.004   1.572   1.056  0.6482  0.6302  0.3613
 6590TIP3    H141405   2.021   1.524   0.975 -0.1812  0.0313  0.5344
 6590TIP3    H241406   2.043   1.519   1.125  2.3604  1.7042  0.2595
 6591TIP3   OH241407   4.886   0.462   0.800 -0.3802  0.6446  0.6841
 6591TIP3    H141408   4.843   0.386   0.840 -0.1762  0.4546  0.5429
 6591TIP3    H241409   4.869   0.534   0.861 -0.2228  0.3953  1.0220
 6592TIP3   OH241410   2.255   3.897   8.351 -0.6407  0.2586  0.2012
 6592TIP3    H141411   2.337   3.881   8.398 -0.7359 -0.0149  0.2756
 6592TIP3    H241412   2.238   3.816   8.304  0.0256  0.8995 -1.1872
 6593TIP3   OH241413   5.562   5.745   2.039 -0.1323 -0.4626 -0.7948
 6593TIP3    H141414   5.532   5.766   2.128  0.0972 -1.0030 -0.5832
 6593TIP3    H241415   5.488   5.700   1.999 -0.0004 -0.8111 -0.6491
 6594TIP3   OH241416   2.217   4.957   7.541 -0.6171  0.3682  0.4044
 6594TIP3    H141417   2.135   4.964   7.492 -0.9141  1.1673  0.9956
 6594TIP3    H241418   2.219   4.867   7.573 -1.8451  0.6699  1.3881
 6595TIP3   OH241419   5.734   6.710   7.260 -0.3623  0.2913  0.2924
 6595TIP3    H141420   5.646   6.694   7.291 -0.3853 -0.4077 -0.1264
 6595TIP3    H241421   5.790   6.654   7.313 -0.1894  0.5730  0.4126
 6596TIP3   OH241422   2.137   4.285   0.259  0.1459  0.3111 -0.2368
 6596TIP3    H141423   2.161   4.234   0.181 -0.5495  0.1316 -0.3441
 6596TIP3    H241424   2.043   4.270   0.268 -0.0381  1.4506 -0.1660
 6597TIP3   OH241425   3.649   0.429   7.348 -1.0024 -0.2436 -0.4543
 6597TIP3    H141426   3.584   0.372   7.307  0.1952 -1.9271 -0.1653
 6597TIP3    H241427   3.658   0.394   7.437 -0.1248  0.2881 -0.3197
 6598TIP3   OH241428   6.094   4.397   7.813  0.2199  0.0060  0.4226
 6598TIP3    H141429   6.089   4.307   7.782  0.2510  0.4114 -0.8398
 6598TIP3    H241430   6.036   4.446   7.753  0.2986  0.8338  1.0072
 6599TIP3   OH241431   6.858   5.454   7.160  0.0122  0.0036  0.0949
 6599TIP3    H141432   6.923   5.476   7.093  0.3692 -1.4604 -0.0526
 6599TIP3    H241433   6.791   5.404   7.113 -0.7679  0.6962  0.4343
 6600TIP3   OH241434   5.608   2.234   8.458 -0.1621 -0.2103  0.9911
 6600TIP3    H141435   5.625   2.195   8.372  0.2895  0.6553  0.6753
 6600TIP3    H241436   5.689   2.220   8.507 -0.3162 -0.4446  1.1836
 6601TIP3   OH241437   5.194   1.088   0.994  0.1710  0.7157  0.0404
 6601TIP3    H141438   5.132   1.159   1.012  1.8465  1.9113  1.2960
 6601TIP3    H241439   5.255   1.124   0.930 -0.8405 -0.7553 -1.8817
 6602TIP3   OH241440   4.090   0.408   7.089  0.6609  0.0891  0.2639
 6602TIP3    H141441   4.104   0.399   6.994 -0.2238 -4.3430  0.3188
 6602TIP3    H241442   3.994   0.405   7.099  0.7772 -0.6031  1.3264
 6603TIP3   OH241443   3.646   2.668   1.648 -0.4020  0.0488  0.2234
 6603TIP3    H141444   3.661   2.595   1.587 -0.7089  0.4370 -0.3280
 6603TIP3    H241445   3.733   2.688   1.682 -0.4817 -1.4307  1.3965
 6604TIP3   OH241446   0.199   3.981   8.486 -0.1239 -0.1334 -0.4114
 6604TIP3    H141447   0.271   4.011   8.542 -1.1794  0.8711  0.4472
 6604TIP3    H241448   0.135   3.945   8.547 -1.1040  0.5699 -1.0001
 6605TIP3   OH241449   2.984   6.534   1.819 -0.1359  0.1373  0.0561
 6605TIP3    H141450   3.056   6.538   1.881 -0.0729  0.0360 -0.0099
 6605TIP3    H241451   2.972   6.624   1.789 -1.1048  0.4404  1.2861
 6606TIP3   OH241452   4.941   4.815   7.116  0.4393 -0.4993  0.5174
 6606TIP3    H141453   4.866   4.853   7.070  0.5059 -1.1737 -0.1518
 6606TIP3    H241454   4.909   4.797   7.204 -0.3345 -1.2332  0.0928
 6607TIP3   OH241455   1.358   2.414   8.262 -0.0345  0.5406  0.3095
 6607TIP3    H141456   1.404   2.492   8.231  0.3490  0.6057  1.0270
 6607TIP3    H241457   1.290   2.448   8.321 -1.7954  0.5368 -1.6055
 6608TIP3   OH241458   2.644   0.036   0.290 -0.0597  0.4409 -0.0993
 6608TIP3    H141459   2.719   0.007   0.238 -1.4398 -0.3392 -1.7445
 6608TIP3    H241460   2.581  -0.036   0.283 -1.0875  1.1922  1.0223
 6609TIP3   OH241461   0.062   2.312   0.421  0.1905  0.2364  0.1468
 6609TIP3    H141462   0.126   2.265   0.474 -0.5394 -1.1614 -0.1568
 6609TIP3    H241463   0.012   2.364   0.483  1.1454  0.7963  0.4677
 6610TIP3   OH241464   2.416   2.990   0.078  0.1248 -0.1925 -0.0617
 6610TIP3    H141465   2.393   2.897   0.069 -1.1167  0.1840 -1.2734
 6610TIP3    H241466   2.382   3.015   0.164  1.4303 -1.0856  0.7525
 6611TIP3   OH241467   4.698   5.153   8.699 -0.5347 -0.3379 -0.4290
 6611TIP3    H141468   4.754   5.077   8.680 -2.1077 -0.8817 -3.4589
 6611TIP3    H241469   4.634   5.120   8.762  1.1717 -0.2662  1.4818
 6612TIP3   OH241470   4.692   3.334   8.378  0.0173 -0.4842 -0.1340
 6612TIP3    H141471   4.596   3.341   8.380  0.0566 -0.1051  0.5382
 6612TIP3    H241472   4.721   3.417   8.339 -0.0054 -1.4691 -2.4241
 6613TIP3   OH241473   5.227   2.274   0.182 -0.1909  0.1707  0.1493
 6613TIP3    H141474   5.245   2.364   0.152 -0.1592  0.3273  0.6332
 6613TIP3    H241475   5.259   2.272   0.272 -0.1821 -0.3338  0.1334
 6614TIP3   OH241476   1.161   0.004   0.095 -0.4826 -0.1719  0.2508
 6614TIP3    H141477   1.133   0.094   0.106 -1.0445 -0.3815  0.5763
 6614TIP3    H241478   1.122  -0.023   0.012 -0.0035 -0.0008 -0.0320
 6615TIP3   OH241479   1.844   0.337   8.350  0.5506  0.3174  0.0836
 6615TIP3    H141480   1.864   0.244   8.349  2.0842  0.6136  0.9746
 6615TIP3    H241481   1.846   0.362   8.442 -0.9332  1.0393 -0.0394
 6616TIP3   OH241482   3.407   1.371   0.421 -0.3179  0.2111  0.3042
 6616TIP3    H141483   3.448   1.305   0.477 -1.7216  0.6598  1.9691
 6616TIP3    H241484   3.325   1.331   0.392 -1.1253  1.1337  1.2339
 6617TIP3   OH241485   3.303   5.604   0.094 -0.5795 -0.8363 -0.2182
 6617TIP3    H141486   3.380   5.592   0.039 -1.2926 -0.2168 -1.3875
 6617TIP3    H241487   3.335   5.589   0.183  0.7295 -1.2733 -0.7320
 6618TIP3   OH241488   4.567   5.651   1.453 -0.5356 -0.0913  0.4635
 6618TIP3    H141489   4.477   5.620   1.454 -0.2111 -1.1109 -0.0411
 6618TIP3    H241490   4.586   5.672   1.544 -1.1933 -0.1346  0.6153
 6619TIP3   OH241491   4.868   1.567   8.600 -0.0133 -0.8153 -0.0290
 6619TIP3    H141492   4.884   1.503   8.670  0.7443 -3.1151 -2.1335
 6619TIP3    H241493   4.954   1.579   8.559 -0.3330  0.8806 -0.2900
 6620TIP3   OH241494   4.643   5.076   1.987 -0.2351  0.1806 -0.2957
 6620TIP3    H141495   4.577   5.083   2.056  1.8493  1.2555  1.7246
 6620TIP3    H241496   4.652   5.166   1.955 -0.1806 -0.0708 -0.9904
 6621TIP3   OH241497   1.721   5.200   2.106  0.2629  0.4103  0.4849
 6621TIP3    H141498   1.804   5.184   2.060  0.5583  1.9681  0.4236
 6621TIP3    H241499   1.715   5.296   2.111 -2.6791  0.4819 -1.6336
 6622TIP3   OH241500   4.027   1.885   7.295  0.1054  0.1412 -0.4006
 6622TIP3    H141501   4.011   1.926   7.380  0.4502  1.1898 -0.8272
 6622TIP3    H241502   3.976   1.805   7.297  0.7834 -0.2735  1.1201
 6623TIP3   OH241503   0.601   5.163   2.047 -0.3316  0.0128  0.1102
 6623TIP3    H141504   0.595   5.250   2.010 -0.7496  0.0135  0.1832
 6623TIP3    H241505   0.512   5.140   2.071 -0.0947 -0.0464  0.9805
 6624TIP3   OH241506   0.514   0.176   0.066  0.5412 -0.3340  0.0068
 6624TIP3    H141507   0.469   0.198   0.147 -0.2868 -1.9939  0.0515
 6624TIP3    H241508   0.534   0.082   0.075 -0.6731 -0.8704 -2.2000
 6625TIP3   OH241509   3.862   6.155   8.156  0.1277  0.4380 -0.0584
 6625TIP3    H141510   3.782   6.129   8.109  1.6155 -1.1218 -1.9125
 6625TIP3    H241511   3.887   6.077   8.205  0.6980  0.7968  0.2288
 6626TIP3   OH241512   4.723   6.101   7.911 -0.1778  0.6341  0.2361
 6626TIP3    H141513   4.684   6.069   7.830 -0.3212  0.7837  0.2445
 6626TIP3    H241514   4.773   6.178   7.884  0.9141 -0.1138  0.0698
 6627TIP3   OH241515   2.423   6.057   7.663 -0.1935 -0.6418 -0.4513
 6627TIP3    H141516   2.365   5.990   7.628 -0.4089 -1.5939  1.5822
 6627TIP3    H241517   2.511   6.022   7.650 -0.2044 -0.4532 -1.0600
 6628TIP3   OH241518   4.820   3.174   6.187 -0.7878 -0.3538  0.3375
 6628TIP3    H141519   4.880   3.135   6.124 -1.4304 -0.1724 -0.4038
 6628TIP3    H241520   4.733   3.151   6.155 -1.1694  1.2079  0.1852
 6629TIP3   OH241521   4.725   0.692   1.321  0.2360  0.3235  0.4661
 6629TIP3    H141522   4.759   0.607   1.349  1.2775  0.1936 -1.0793
 6629TIP3    H241523   4.790   0.725   1.260 -1.7521  0.7060 -1.5626
 6630TIP3   OH241524   0.093   3.992   1.351 -0.6147  0.1021  1.2286
 6630TIP3    H141525   0.045   4.016   1.271 -0.7520 -1.2082  0.8938
 6630TIP3    H241526   0.086   4.069   1.407 -1.4400  0.6488  0.4070
 6631TIP3   OH241527   4.151   5.716   0.742 -0.2169  0.3066 -0.1754
 6631TIP3    H141528   4.119   5.709   0.652 -1.2561  1.8825  0.0227
 6631TIP3    H241529   4.074   5.743   0.793  0.6067  0.5488  0.9831
 6632TIP3   OH241530   3.752   3.022   1.113 -0.0956 -0.5620  0.3977
 6632TIP3    H141531   3.790   2.981   1.036 -1.2881 -0.4408 -0.2782
 6632TIP3    H241532   3.659   3.034   1.092 -0.7153 -1.5687  2.2742
 6633TIP3   OH241533   6.476   6.130   1.399 -0.1747 -0.3113  0.4258
 6633TIP3    H141534   6.501   6.217   1.367  0.4851 -0.3897  0.7302
 6633TIP3    H241535   6.517   6.069   1.338  0.7803 -0.4514  1.1797
 6634TIP3   OH241536   6.623   5.050   8.148  0.1276  0.3984  0.4995
 6634TIP3    H141537   6.618   5.117   8.217 -0.0796  1.5642 -0.6020
 6634TIP3    H241538   6.681   5.088   8.082  0.9245 -1.0175  0.3536
 6635TIP3   OH241539   5.555   0.777   8.129 -0.1156  0.1184  0.4500
 6635TIP3    H141540   5.520   0.853   8.176 -0.3952  0.1510  0.1918
 6635TIP3    H241541   5.479   0.738   8.087  0.5322  2.1971 -3.0955
 6636TIP3   OH241542   6.496   4.972   8.788  0.1689 -0.0609  0.4769
 6636TIP3    H141543   6.584   4.964   8.750 -0.1916  1.7646 -0.8529
 6636TIP3    H241544   6.499   5.054   8.837 -0.8709  0.1262  0.2454
 6637TIP3   OH241545   5.960   3.061   7.316 -0.2466 -0.0838  0.0673
 6637TIP3    H141546   5.962   3.056   7.221  0.3485  1.1639 -0.0019
 6637TIP3    H241547   5.997   2.977   7.345  0.3630 -0.1217 -0.8040
 6638TIP3   OH241548   2.196   0.999   0.085 -0.1628 -0.3768 -0.0654
 6638TIP3    H141549   2.122   0.993   0.025  2.2023  0.6345 -3.3460
 6638TIP3    H241550   2.234   0.911   0.086 -0.4978 -0.5177  0.3698
 6639TIP3   OH241551   1.925   5.006   0.319 -0.1326 -0.1088  0.9995
 6639TIP3    H141552   1.977   4.926   0.316  0.1804  0.1199 -0.2722
 6639TIP3    H241553   1.837   4.978   0.295  0.1256  0.0148 -0.1699
 6640TIP3   OH241554   5.698   2.101   8.752 -0.4049 -0.4437 -0.3981
 6640TIP3    H141555   5.773   2.136   8.800  0.0554 -2.0884  0.1455
 6640TIP3    H241556   5.622   2.138   8.797  0.0429  0.4113 -0.3065
 6641TIP3   OH241557   1.893   5.522   0.059  0.2542  0.2336  0.3106
 6641TIP3    H141558   1.934   5.608   0.051  0.2955  0.1116 -1.0087
 6641TIP3    H241559   1.965   5.461   0.068  0.2981  0.1949 -0.2623
 6642TIP3   OH241560   6.338   0.869   7.278  0.6984 -0.0918 -0.8068
 6642TIP3    H141561   6.356   0.943   7.336  0.5548 -0.4197 -0.3288
 6642TIP3    H241562   6.276   0.816   7.328 -0.2051  0.1227 -1.6794
 6643TIP3   OH241563   6.317   5.502   1.294  0.3807  0.5603  0.6039
 6643TIP3    H141564   6.261   5.508   1.372  1.6021 -1.0404  1.6596
 6643TIP3    H241565   6.404   5.527   1.325  0.4140  2.5800 -0.9213
 6644TIP3   OH241566   5.661   0.467   0.701 -0.1315  0.4338  0.1946
 6644TIP3    H141567   5.567   0.482   0.702 -0.5021 -1.5170 -0.2008
 6644TIP3    H241568   5.670   0.371   0.698  1.8913  0.4389  2.7560
 6645TIP3   OH241569   1.137   4.228   0.231 -0.3231  0.0719 -0.2402
 6645TIP3    H141570   1.114   4.136   0.233  0.7478 -0.2059  0.4715
 6645TIP3    H241571   1.203   4.238   0.300 -0.0030  1.2472 -0.6810
 6646TIP3   OH241572   2.320   5.726   0.761 -0.5230 -0.1443  0.0198
 6646TIP3    H141573   2.351   5.657   0.820  1.5954  1.6989  1.2121
 6646TIP3    H241574   2.385   5.729   0.691 -0.7459  0.4324 -0.1718
 6647TIP3   OH241575   3.313   0.408   1.984  0.8286 -0.0199  0.2252
 6647TIP3    H141576   3.317   0.323   1.940  1.3352 -1.0438  2.1693
 6647TIP3    H241577   3.232   0.404   2.035  0.7135  0.7942  0.1149
 6648TIP3   OH241578   2.212   3.696   1.018 -0.0728 -0.1296  0.3434
 6648TIP3    H141579   2.275   3.743   0.963 -2.9805  0.4420 -2.8752
 6648TIP3    H241580   2.165   3.765   1.065 -0.8498 -0.1511 -0.3589
 6649TIP3   OH241581   2.048   0.019   8.710 -0.3417  0.5049  0.0080
 6649TIP3    H141582   2.132  -0.020   8.685 -0.2272 -0.3183  1.5369
 6649TIP3    H241583   2.019  -0.033   8.785 -2.0480  1.0209 -0.2591
 6650TIP3   OH241584   2.323   5.928   2.134 -0.1103 -0.1306 -0.0417
 6650TIP3    H141585   2.356   5.840   2.152 -0.3788 -0.0987  0.6558
 6650TIP3    H241586   2.229   5.922   2.155 -0.7954 -0.4542 -2.7563
 6651TIP3   OH241587   5.331   2.781   7.729 -0.2046  0.2093 -0.3126
 6651TIP3    H141588   5.271   2.853   7.750  0.1983  0.0896  1.3731
 6651TIP3    H241589   5.416   2.824   7.715 -0.2569  0.1898 -0.6925
 6652TIP3   OH241590   5.195   2.951   0.891  0.4669 -0.4274 -0.0274
 6652TIP3    H141591   5.152   2.880   0.939 -1.8965 -0.8702 -2.6011
 6652TIP3    H241592   5.138   3.027   0.904  0.4010 -0.2669 -1.1874
 6653TIP3   OH241593   5.954   2.033   0.529  0.0015  0.1779  0.2084
 6653TIP3    H141594   5.944   2.080   0.611 -4.0585 -1.2050  0.7448
 6653TIP3    H241595   5.913   2.090   0.463 -0.6872 -0.5273  0.0067
 6654TIP3   OH241596   2.634   1.533   0.399 -0.5522 -0.1817 -0.0427
 6654TIP3    H141597   2.543   1.513   0.421  0.0054 -2.2619  0.6407
 6654TIP3    H241598   2.669   1.574   0.478 -0.1798 -2.0501  0.8268
 6655TIP3   OH241599   0.102   3.280   2.849  0.1397 -0.3051  0.4489
 6655TIP3    H141600   0.071   3.234   2.771 -0.3046  1.8947 -0.7255
 6655TIP3    H241601   0.154   3.214   2.896 -1.4911 -2.3913 -0.4637
 6656TIP3   OH241602   3.264   1.571   8.121  0.1835 -0.2395 -0.0806
 6656TIP3    H141603   3.250   1.651   8.170 -5.1490  0.3467 -1.8880
 6656TIP3    H241604   3.200   1.509   8.156  0.9540 -2.1025 -1.7382
 6657TIP3   OH241605   4.758   1.321   0.333 -0.1493 -0.1110 -0.0300
 6657TIP3    H141606   4.799   1.273   0.405 -0.7543  1.9974  1.8271
 6657TIP3    H241607   4.789   1.411   0.343 -2.5235  0.8570 -0.6172
 6658TIP3   OH241608   6.532   1.601   7.283 -0.6455 -0.3433  0.2841
 6658TIP3    H141609   6.578   1.621   7.364  1.4033 -2.0248 -0.3686
 6658TIP3    H241610   6.538   1.682   7.232  1.1786 -0.3104  0.4676
 6659TIP3   OH241611   5.902   1.407   7.438 -0.8839  0.2004 -0.4318
 6659TIP3    H141612   5.900   1.326   7.489  2.5624  0.4315  0.2900
 6659TIP3    H241613   5.894   1.477   7.502 -0.9720  0.4861 -0.7476
 6660TIP3   OH241614   0.182   0.649   7.540 -0.4107  0.3287 -0.1435
 6660TIP3    H141615   0.270   0.664   7.505 -0.1374  2.4027  1.2630
 6660TIP3    H241616   0.186   0.561   7.578  1.3181  0.7088  0.6495
 6661TIP3   OH241617   5.994   1.049   1.406 -0.3120 -0.4011  0.2122
 6661TIP3    H141618   6.001   0.966   1.453 -0.5984 -1.2068 -1.1233
 6661TIP3    H241619   6.062   1.104   1.446  1.2505 -1.9385 -0.2001
 6662TIP3   OH241620   4.589   0.636   6.296 -0.0359 -0.2552 -0.3836
 6662TIP3    H141621   4.521   0.586   6.343  0.0205 -0.8203 -0.8889
 6662TIP3    H241622   4.546   0.719   6.274  0.0103  0.1181  0.8570
 6663TIP3   OH241623   1.693   4.390   6.444  0.2812 -0.0579  0.3969
 6663TIP3    H141624   1.692   4.486   6.446 -0.3270 -0.0167 -0.8951
 6663TIP3    H241625   1.697   4.368   6.351 -1.9386 -1.2806  0.5177
 6664TIP3   OH241626   1.327   1.326   8.255 -0.1629  0.0411 -0.5221
 6664TIP3    H141627   1.337   1.244   8.304 -0.3387  0.4056  0.1394
 6664TIP3    H241628   1.406   1.332   8.201 -0.4051 -0.8336 -0.9879
 6665TIP3   OH241629   5.537   6.512   8.739 -0.4722 -0.0454  0.1535
 6665TIP3    H141630   5.600   6.583   8.723 -1.5609  0.7371 -0.9158
 6665TIP3    H241631   5.515   6.480   8.651 -0.9189 -0.8856  0.5613
 6666TIP3   OH241632   0.884   0.205   0.792 -0.2062  0.0653 -0.1066
 6666TIP3    H141633   0.790   0.199   0.811 -0.1282  0.5989  0.4766
 6666TIP3    H241634   0.925   0.214   0.877  0.2103  1.7827 -0.4349
 6667TIP3   OH241635   3.584   4.637   0.441  0.3053 -0.0238 -0.1766
 6667TIP3    H141636   3.667   4.622   0.486 -0.8561 -0.8368  1.7957
 6667TIP3    H241637   3.561   4.728   0.463  0.1865 -0.1290  0.1449
 6668TIP3   OH241638   4.654   6.340   7.243 -0.2760  0.2640 -0.0584
 6668TIP3    H141639   4.629   6.251   7.218  0.1183 -0.3452  1.5801
 6668TIP3    H241640   4.632   6.393   7.167  0.0319 -1.3114 -1.3106
 6669TIP3   OH241641   1.593   5.988   0.326 -0.2042 -0.8042  0.4502
 6669TIP3    H141642   1.539   6.055   0.368  1.0826 -0.4921  1.7000
 6669TIP3    H241643   1.668   6.036   0.291  0.6233 -1.5435  1.1601
 6670TIP3   OH241644   1.186   1.067   7.144 -0.0332  0.5614 -0.2094
 6670TIP3    H141645   1.105   1.028   7.177  0.4490 -0.0208  0.2998
 6670TIP3    H241646   1.167   1.087   7.052 -0.2837 -0.9028 -0.4989
 6671TIP3   OH241647   3.159   6.035   0.602 -0.6938  0.3751  0.0058
 6671TIP3    H141648   3.182   6.002   0.689 -0.7312  0.0137 -0.1190
 6671TIP3    H241649   3.116   5.961   0.559 -1.4606  0.8227 -0.0155
 6672TIP3   OH241650   0.741   6.152   6.246 -0.0223 -0.3035  0.3569
 6672TIP3    H141651   0.766   6.110   6.163  1.7398  1.4073 -0.0291
 6672TIP3    H241652   0.686   6.226   6.220 -0.5223 -0.4978  0.8316
 6673TIP3   OH241653   1.469   3.791   7.455  0.0035 -0.5651  0.5347
 6673TIP3    H141654   1.389   3.775   7.504  0.1429 -0.5330  0.7721
 6673TIP3    H241655   1.467   3.885   7.437 -0.0399 -0.5742  0.4903
 6674TIP3   OH241656   2.117   0.622   6.262 -0.0821  0.2107 -0.3329
 6674TIP3    H141657   2.187   0.601   6.201 -0.0780  0.8238 -0.5434
 6674TIP3    H241658   2.054   0.672   6.210 -1.4031 -1.5867 -0.5413
 6675TIP3   OH241659   4.002   2.931   8.493  0.2795  0.5165  0.2634
 6675TIP3    H141660   4.097   2.926   8.488  0.3113 -1.2875  1.5539
 6675TIP3    H241661   3.972   2.901   8.407  0.8682 -0.2531  0.3200
 6676TIP3   OH241662   3.493   2.790   8.500 -0.0609  0.0593 -0.3889
 6676TIP3    H141663   3.548   2.754   8.569  1.1405  1.2033 -0.6906
 6676TIP3    H241664   3.477   2.881   8.527 -0.7732  0.0948 -0.9073
 6677TIP3   OH241665   0.632   4.406   6.794  0.2627 -0.2741  0.4057
 6677TIP3    H141666   0.682   4.471   6.745 -1.1755  1.5258  1.2100
 6677TIP3    H241667   0.558   4.384   6.738  1.6805 -2.7526 -0.6791
 6678TIP3   OH241668   2.285   1.222   0.946 -0.0170  0.4557  0.0846
 6678TIP3    H141669   2.342   1.226   0.870  2.4420 -0.4568  1.7536
 6678TIP3    H241670   2.341   1.246   1.020 -2.5159  2.1969  1.5575
 6679TIP3   OH241671   2.050   1.684   6.372 -0.0083 -0.2538 -0.1039
 6679TIP3    H141672   2.052   1.604   6.424 -1.2441 -0.4579 -0.3421
 6679TIP3    H241673   2.046   1.654   6.281  1.1667  0.0991 -0.2953
 6680TIP3   OH241674   4.724   0.390   6.375 -0.0915  0.2781 -0.3278
 6680TIP3    H141675   4.691   0.391   6.465  1.4190  0.1099  0.2728
 6680TIP3    H241676   4.726   0.482   6.349 -1.5891  0.2513 -0.6294
 6681TIP3   OH241677   2.008   1.026   0.399 -0.2405  0.5233  0.0164
 6681TIP3    H141678   1.953   1.085   0.452 -1.0964  1.6503 -2.0194
 6681TIP3    H241679   2.051   1.083   0.336  1.2306 -0.7095 -0.1584
 6682TIP3   OH241680   2.336   2.594   7.916  0.4517  0.4710 -0.0555
 6682TIP3    H141681   2.390   2.587   7.837  2.7888  1.4471  1.3829
 6682TIP3    H241682   2.373   2.666   7.965 -1.0940  0.0435  1.8692
 6683TIP3   OH241683   6.040   1.045   0.688 -0.0139  0.3235  0.1004
 6683TIP3    H141684   6.008   1.033   0.777 -1.6420 -0.2556 -0.5336
 6683TIP3    H241685   6.105   1.115   0.695  0.3419 -0.1453  1.8258
 6684TIP3   OH241686   3.963   6.669   8.551 -0.5720 -0.3916  0.5395
 6684TIP3    H141687   3.908   6.616   8.493 -0.1605 -0.7235  0.4443
 6684TIP3    H241688   4.015   6.723   8.492 -0.1251 -0.7563  0.5851
 6685TIP3   OH241689   6.322   3.427   1.934 -0.1328 -0.3071  0.0673
 6685TIP3    H141690   6.349   3.518   1.947  0.5357 -0.5907  0.7272
 6685TIP3    H241691   6.344   3.408   1.843  2.8805 -0.8058  0.7717
 6686TIP3   OH241692   0.339   3.296   8.643  0.5906 -0.4401 -0.3572
 6686TIP3    H141693   0.246   3.295   8.664  0.3789 -0.9315 -1.2851
 6686TIP3    H241694   0.383   3.296   8.729 -0.2538 -1.6181  0.0903
 6687TIP3   OH241695   5.236   5.129   0.068 -0.2036  0.2426 -0.2429
 6687TIP3    H141696   5.260   5.104   0.158 -2.4681 -0.4601  0.2219
 6687TIP3    H241697   5.259   5.053   0.015 -1.2657 -0.4137  0.1927
 6688TIP3   OH241698   4.584   2.732   0.743  0.3780  0.1317 -0.7059
 6688TIP3    H141699   4.617   2.822   0.745  1.6855 -0.2865 -2.1717
 6688TIP3    H241700   4.570   2.713   0.651 -0.7569 -0.8908 -0.3522
 6689TIP3   OH241701   0.517   3.760   8.687  0.1319 -0.0092 -0.3502
 6689TIP3    H141702   0.551   3.690   8.743  1.1015 -0.1942 -1.1467
 6689TIP3    H241703   0.459   3.714   8.625 -1.9080  0.3393  1.1900
 6690TIP3   OH241704   4.589   3.481   6.687 -0.1443 -0.0074 -0.9586
 6690TIP3    H141705   4.649   3.407   6.691 -0.3300 -0.1204 -0.2250
 6690TIP3    H241706   4.508   3.444   6.652 -0.1997 -0.1232 -0.7051
 6691TIP3   OH241707   6.286   4.290   1.560  0.2379 -0.5824  0.2073
 6691TIP3    H141708   6.278   4.301   1.465 -0.5511  1.5456  0.4586
 6691TIP3    H241709   6.204   4.249   1.587  0.6253 -1.5530 -0.0497
 6692TIP3   OH241710   3.492   2.081   6.942  0.8275 -0.1536 -0.2206
 6692TIP3    H141711   3.397   2.091   6.954  0.9481  0.4467  0.3025
 6692TIP3    H241712   3.501   2.044   6.854  0.1544  0.9633 -0.7891
 6693TIP3   OH241713   2.951   3.218   6.792 -0.5876 -0.2964 -0.2336
 6693TIP3    H141714   2.894   3.189   6.720  0.3622  0.2398 -1.2454
 6693TIP3    H241715   3.022   3.155   6.792 -1.9235 -1.9533  2.1177
 6694TIP3   OH241716   5.527   3.093   1.701  0.0383 -0.6523 -0.7631
 6694TIP3    H141717   5.455   3.043   1.663  0.7182 -1.7561 -0.6286
 6694TIP3    H241718   5.490   3.180   1.718 -1.3788 -1.3193 -0.3261
 6695TIP3   OH241719   3.419   6.337   0.164 -0.0292  0.8764  0.5871
 6695TIP3    H141720   3.372   6.372   0.240 -1.6652 -3.4783  1.9207
 6695TIP3    H241721   3.350   6.300   0.109  1.4293 -0.8398 -0.2012
 6696TIP3   OH241722   1.936   6.860   7.646 -0.1603  0.3859  0.2844
 6696TIP3    H141723   2.024   6.840   7.615 -0.7632  0.5601 -1.6444
 6696TIP3    H241724   1.878   6.813   7.586 -1.3987 -0.0793  1.7728
 6697TIP3   OH241725   4.157   5.602   0.242 -0.1146 -0.1675 -0.0456
 6697TIP3    H141726   4.110   5.668   0.192  2.1654  1.7718  0.1908
 6697TIP3    H241727   4.172   5.531   0.180 -0.8859  0.3959 -0.9002
 6698TIP3   OH241728   5.416   5.842   7.540  0.4021  0.1265  0.3261
 6698TIP3    H141729   5.388   5.798   7.460  1.0411  0.7579 -0.2631
 6698TIP3    H241730   5.379   5.930   7.533  1.3406  0.5224  0.2073
 6699TIP3   OH241731   2.342   3.471   8.082  0.2976  0.6362  0.3227
 6699TIP3    H141732   2.263   3.478   8.028  0.1819 -0.0344  0.3913
 6699TIP3    H241733   2.397   3.544   8.054  0.7316 -0.3478 -1.5110
 6700TIP3   OH241734   2.556   1.331   7.277 -0.1085 -0.1282  0.6252
 6700TIP3    H141735   2.583   1.322   7.369  0.5080 -1.6026  0.3272
 6700TIP3    H241736   2.633   1.368   7.233  1.3769 -3.6328 -0.0822
 6701TIP3   OH241737   3.188   3.395   6.756  0.5322  0.1917  0.5978
 6701TIP3    H141738   3.102   3.355   6.747  0.6107  0.1737 -0.1469
 6701TIP3    H241739   3.209   3.427   6.668  1.2926  0.1767  0.7675
 6702TIP3   OH241740   3.579   0.804   7.317  0.5556  0.1565  0.1735
 6702TIP3    H141741   3.648   0.851   7.364  0.8395 -2.3853  2.5952
 6702TIP3    H241742   3.625   0.752   7.252  0.3317  2.2459 -1.7812
 6703TIP3   OH241743   3.954   0.912   7.156  0.3737  0.1737 -0.4005
 6703TIP3    H141744   3.942   0.878   7.068  1.9934  0.5227 -0.7849
 6703TIP3    H241745   3.899   0.991   7.160  0.4495  0.2683 -1.1675
 6704TIP3   OH241746   4.865   3.892   0.667 -0.7901  0.9718  0.2042
 6704TIP3    H141747   4.883   3.972   0.617 -0.4902  0.4878 -0.4627
 6704TIP3    H241748   4.920   3.900   0.745  0.8537  0.4560 -0.8463
 6705TIP3   OH241749   6.218   2.011   1.346 -0.2055 -0.4990 -0.3650
 6705TIP3    H141750   6.181   2.096   1.322 -0.2141 -0.1186  0.9061
 6705TIP3    H241751   6.215   2.010   1.442 -1.4796 -2.5033 -0.3560
 6706TIP3   OH241752   3.999   0.106   7.771 -0.4109  0.2291 -0.2516
 6706TIP3    H141753   3.995   0.169   7.844 -0.0813 -0.2097  0.1522
 6706TIP3    H241754   3.972   0.023   7.810  0.0169 -0.0633 -0.5651
 6707TIP3   OH241755   1.971   4.119   1.735  0.1330 -0.0700  0.1491
 6707TIP3    H141756   1.953   4.039   1.686  1.3820 -1.1750  1.4087
 6707TIP3    H241757   1.929   4.106   1.820  0.6497  0.4417  0.4987
 6708TIP3   OH241758   3.948   6.855   0.667  0.1959 -0.0850  0.4936
 6708TIP3    H141759   3.927   6.904   0.746 -2.0478  0.6912 -0.5079
 6708TIP3    H241760   4.035   6.886   0.641  0.3068  0.7575  1.8053
 6709TIP3   OH241761   0.725   6.229   1.369  0.2134  0.3107  0.2802
 6709TIP3    H141762   0.735   6.267   1.456 -1.0551  1.3220  0.0095
 6709TIP3    H241763   0.813   6.198   1.346  0.6198  0.2871  1.7884
 6710TIP3   OH241764   6.707   3.290   8.265  0.2073  0.3288 -0.0292
 6710TIP3    H141765   6.636   3.254   8.319  0.6474 -0.2155  0.1988
 6710TIP3    H241766   6.663   3.321   8.186 -0.2314 -0.5077 -0.1329
 6711TIP3   OH241767   5.999   2.792   8.093 -0.3477  0.1181 -0.0428
 6711TIP3    H141768   6.002   2.776   8.187 -2.2853  0.8872  0.2068
 6711TIP3    H241769   6.078   2.751   8.059 -0.3217 -1.4546  1.7215
 6712TIP3   OH241770   5.886   4.281   8.065  0.5672  0.1197 -0.6074
 6712TIP3    H141771   5.817   4.235   8.016  1.0973 -1.3610 -0.0206
 6712TIP3    H241772   5.934   4.212   8.110  1.9227  1.2001 -0.3186
 6713TIP3   OH241773   5.525   5.159   7.918 -0.4035  0.2704  0.1655
 6713TIP3    H141774   5.433   5.174   7.942 -0.8245 -0.9354 -0.5829
 6713TIP3    H241775   5.529   5.181   7.825 -0.2152 -0.7244 -0.0745
 6714TIP3   OH241776   0.751   2.195   1.979  0.1604 -0.5321 -0.7748
 6714TIP3    H141777   0.743   2.280   1.936 -1.0024 -0.3089 -0.1764
 6714TIP3    H241778   0.743   2.131   1.908  1.0446 -0.1496 -1.2287
 6715TIP3   OH241779   5.370   4.746   6.724  0.0849  0.1343 -0.2128
 6715TIP3    H141780   5.334   4.817   6.670 -2.4536  0.9578  2.3466
 6715TIP3    H241781   5.457   4.778   6.749 -0.5585  1.8671 -0.0409
 6716TIP3   OH241782   6.799   3.042   0.731  0.0748  0.4217  0.1241
 6716TIP3    H141783   6.828   3.034   0.822 -1.8452  0.8947  0.8092
 6716TIP3    H241784   6.724   3.101   0.735  0.0858  0.6099 -1.8101
 6717TIP3   OH241785   1.231   1.304   0.510  0.9368 -0.1043  0.6454
 6717TIP3    H141786   1.145   1.264   0.518  0.8001  0.0505  0.0270
 6717TIP3    H241787   1.247   1.345   0.595  0.3083  0.0548  0.6887
 6718TIP3   OH241788   5.465   2.861   1.346  0.4224  0.7420 -0.1733
 6718TIP3    H141789   5.463   2.840   1.253 -1.1032 -0.6054  0.1140
 6718TIP3    H241790   5.436   2.781   1.390  2.7411  0.7638  1.6212
 6719TIP3   OH241791   1.285   2.106   7.826  0.5097  0.6256  0.0393
 6719TIP3    H141792   1.271   2.114   7.921  0.6911  1.2906  0.0128
 6719TIP3    H241793   1.380   2.109   7.816  0.5198 -0.0019 -0.1239
 6720TIP3   OH241794   3.118   3.670   7.872  0.2734  0.3070 -0.6045
 6720TIP3    H141795   3.191   3.651   7.931  0.0028  1.2274  0.0439
 6720TIP3    H241796   3.070   3.741   7.915 -0.6365  0.1501 -1.3364
 6721TIP3   OH241797   1.111   4.602   6.674  0.1489  0.7317 -0.4798
 6721TIP3    H141798   1.105   4.690   6.711 -2.5407 -0.1324  1.5470
 6721TIP3    H241799   1.064   4.607   6.591  0.3818  1.2960 -0.5815
 6722TIP3   OH241800   5.399   5.913   1.501  0.1091 -0.2650  0.1310
 6722TIP3    H141801   5.406   5.896   1.407 -1.6377  1.7914 -0.4470
 6722TIP3    H241802   5.437   6.000   1.513  0.4860 -0.5831  1.3651
 6723TIP3   OH241803   6.014   5.974   1.714  0.2495  0.8085 -0.1468
 6723TIP3    H141804   6.000   5.974   1.619 -2.5525 -0.1157  0.1701
 6723TIP3    H241805   6.041   5.884   1.734  1.7425  1.2340 -0.1215
 6724TIP3   OH241806   4.124   3.919   7.351  0.4492  0.6762  0.4203
 6724TIP3    H141807   4.136   4.006   7.389  0.7235 -0.0222  2.0234
 6724TIP3    H241808   4.108   3.862   7.426  1.0707 -0.8008 -0.5168
 6725TIP3   OH241809   2.984   6.006   0.218  0.1907 -0.3971 -0.2848
 6725TIP3    H141810   3.056   5.944   0.205 -0.4232 -1.4095  1.0038
 6725TIP3    H241811   2.945   5.981   0.301 -0.7622  1.0558 -0.2593
 6726TIP3   OH241812   1.034   3.968   7.652  0.1864 -0.2297 -0.3141
 6726TIP3    H141813   1.035   3.958   7.748  0.4200  1.4012 -0.1113
 6726TIP3    H241814   0.943   3.986   7.631  0.1978 -0.2255 -0.3579
 6727TIP3   OH241815   3.599   4.003   7.738  0.3395  0.7311  0.4366
 6727TIP3    H141816   3.615   4.097   7.741 -1.1136  0.9851  1.4308
 6727TIP3    H241817   3.505   3.995   7.720  1.0416 -0.5966 -3.6484
 6728TIP3   OH241818   5.173   2.216   2.105  0.5087 -0.1814 -0.1517
 6728TIP3    H141819   5.266   2.205   2.123  0.3105  0.5333  1.5057
 6728TIP3    H241820   5.157   2.309   2.122 -0.1383  0.1946 -2.3934
 6729TIP3   OH241821   0.751   3.415   7.755  0.2332 -0.2892 -0.3422
 6729TIP3    H141822   0.689   3.397   7.825  1.2412  1.8149  1.1954
 6729TIP3    H241823   0.697   3.452   7.685 -0.3363  1.6999  1.0445
 6730TIP3   OH241824   4.317   0.040   7.754 -0.0196  0.3569 -0.4478
 6730TIP3    H141825   4.276  -0.044   7.775  2.3910 -0.3760  1.8666
 6730TIP3    H241826   4.285   0.100   7.821  1.2607  0.2296  0.2994
 6731TIP3   OH241827   4.180   4.748   7.330 -0.2945  0.3049  0.0721
 6731TIP3    H141828   4.272   4.764   7.354 -0.0578  0.1771 -0.7108
 6731TIP3    H241829   4.185   4.715   7.240 -1.1856  1.3655 -0.3795
 6732TIP3   OH241830   1.124   0.888   8.711 -0.1973 -0.1917  0.0906
 6732TIP3    H141831   1.192   0.946   8.677 -1.8562  2.0679  0.4004
 6732TIP3    H241832   1.081   0.853   8.633 -0.2084  0.2946 -0.1254
 6733TIP3   OH241833   6.787   6.766   6.389  0.4900 -0.9152 -0.0120
 6733TIP3    H141834   6.860   6.800   6.441 -1.4073  0.8265  1.6722
 6733TIP3    H241835   6.814   6.781   6.298  1.2730  1.9883  0.5863
 6734TIP3   OH241836   0.005   5.196   7.656 -0.4115 -0.3725  0.5317
 6734TIP3    H141837  -0.090   5.186   7.665 -0.3531 -0.4323  1.1129
 6734TIP3    H241838   0.035   5.108   7.631 -0.7932  0.2114 -2.4472
 6735TIP3   OH241839   2.981   1.350   7.747 -0.6514  0.1744  0.3195
 6735TIP3    H141840   3.012   1.329   7.659 -0.4532 -2.0115  0.8432
 6735TIP3    H241841   3.042   1.417   7.778  2.0529 -2.1044  0.3220
 6736TIP3   OH241842   6.183   0.807   2.244  0.2108  0.7066  0.3411
 6736TIP3    H141843   6.149   0.836   2.328  0.3316  0.3886  0.4997
 6736TIP3    H241844   6.246   0.876   2.219  0.8607  0.3508  0.9452
 6737TIP3   OH241845   2.020   4.849   8.236  0.1104 -0.0929 -0.2290
 6737TIP3    H141846   2.029   4.787   8.163  0.8767  0.2188 -0.4013
 6737TIP3    H241847   2.093   4.909   8.226 -0.2282  0.4249  0.3509
 6738TIP3   OH241848   0.156   0.911   8.769 -0.3650  0.3686  0.2842
 6738TIP3    H141849   0.243   0.947   8.758 -0.3251  0.3357  0.4964
 6738TIP3    H241850   0.097   0.985   8.757 -0.3380  0.2894 -0.4154
 6739TIP3   OH241851   6.165   0.338   0.025 -0.1280 -0.1977 -0.4534
 6739TIP3    H141852   6.192   0.343  -0.066 -4.0753  1.8554 -1.7636
 6739TIP3    H241853   6.189   0.423   0.062 -1.6658  0.3942 -0.7236
 6740TIP3   OH241854   5.448   3.581   1.470 -0.4631  0.0597  0.1590
 6740TIP3    H141855   5.412   3.663   1.503  0.4013 -0.0939  1.5758
 6740TIP3    H241856   5.528   3.606   1.425  0.7097 -0.1257  2.0591
 6741TIP3   OH241857   1.183   1.307   7.774 -0.3766  0.0823  0.4835
 6741TIP3    H141858   1.225   1.387   7.743 -2.7421  1.1091 -0.2669
 6741TIP3    H241859   1.118   1.286   7.707 -0.5146 -1.9175  1.1620
 6742TIP3   OH241860   4.747   2.442   0.308  0.0598  0.1591  0.1806
 6742TIP3    H141861   4.801   2.488   0.372 -0.5978  1.1913  0.0143
 6742TIP3    H241862   4.749   2.497   0.230  0.9778 -1.1671 -0.7713
 6743TIP3   OH241863   1.123   5.550   6.150  0.2418 -0.4130 -0.3655
 6743TIP3    H141864   1.070   5.473   6.172 -1.0830  0.2919 -0.9353
 6743TIP3    H241865   1.196   5.515   6.099 -1.9110 -1.0598 -3.2324
 6744TIP3   OH241866   5.857   6.155   0.332  0.0142  0.4474 -0.4016
 6744TIP3    H141867   5.864   6.250   0.322 -0.3995  0.4089 -1.1789
 6744TIP3    H241868   5.780   6.142   0.387  0.4574  0.5766  0.2585
 6745TIP3   OH241869   2.629   5.516   0.863  0.0340  0.0443  0.2136
 6745TIP3    H141870   2.556   5.472   0.820 -0.9477  0.1988  1.6558
 6745TIP3    H241871   2.664   5.452   0.925  0.6151  0.2371  0.0937
 6746TIP3   OH241872   2.084   0.435   1.564  0.6380  0.1450 -0.2889
 6746TIP3    H141873   2.068   0.379   1.640  1.0884 -0.1585 -0.4095
 6746TIP3    H241874   1.997   0.452   1.528  0.5799 -1.9921 -1.3124
 6747TIP3   OH241875   3.117   2.224   0.509  0.6343 -0.2551 -0.1123
 6747TIP3    H141876   3.177   2.231   0.435  0.2025 -0.0700 -0.4482
 6747TIP3    H241877   3.033   2.255   0.475  0.6290  0.6499  0.6927
 6748TIP3   OH241878   0.009   0.162   1.205 -0.6014  0.1466  0.2416
 6748TIP3    H141879   0.033   0.112   1.127 -1.1092 -1.9560  1.3635
 6748TIP3    H241880   0.074   0.136   1.271 -0.0030  2.1066  0.4856
 6749TIP3   OH241881   3.111   2.748   2.241 -0.3775 -0.3055 -0.0370
 6749TIP3    H141882   3.154   2.710   2.318  0.8461  1.3590  0.1581
 6749TIP3    H241883   3.044   2.806   2.277 -1.7637 -1.6569 -0.3242
 6750TIP3   OH241884   4.125   3.248   7.696  0.1465  0.0812  0.4954
 6750TIP3    H141885   4.106   3.155   7.680  1.3118  0.0577 -1.0299
 6750TIP3    H241886   4.059   3.276   7.759 -1.9410 -1.1019 -1.0581
 6751TIP3   OH241887   1.879   1.439   0.507 -0.6084 -0.0631  0.5896
 6751TIP3    H141888   1.910   1.430   0.416 -1.3276 -1.6875  0.4717
 6751TIP3    H241889   1.808   1.376   0.514 -0.0480 -0.5350  2.5203
 6752TIP3   OH241890   0.340   2.536   8.520 -0.0045  0.3835  0.1544
 6752TIP3    H141891   0.401   2.596   8.563 -0.6299 -0.5136  2.4904
 6752TIP3    H241892   0.364   2.450   8.555 -1.7751 -0.1430  0.1599
 6753TIP3   OH241893   3.531   3.658   8.573 -0.0038  0.5625 -0.3183
 6753TIP3    H141894   3.603   3.595   8.582 -0.4995 -0.3721 -2.3776
 6753TIP3    H241895   3.469   3.633   8.641  0.5317 -0.1342 -0.0666
 6754TIP3   OH241896   5.786   6.721   6.344  0.2612 -0.7631 -0.2192
 6754TIP3    H141897   5.711   6.705   6.402 -0.3739  0.0910 -0.7778
 6754TIP3    H241898   5.749   6.717   6.256  0.4918  1.3762 -0.4628
 6755TIP3   OH241899   0.258   2.043   1.263  0.1158 -0.2996 -0.4806
 6755TIP3    H141900   0.197   2.117   1.257 -1.0403 -1.1342  0.6001
 6755TIP3    H241901   0.336   2.079   1.306 -0.0721  0.4953 -0.7852
 6756TIP3   OH241902   2.560   0.651   7.023 -0.3428 -0.4331 -0.3822
 6756TIP3    H141903   2.616   0.651   7.101  0.1333  3.3768 -0.5315
 6756TIP3    H241904   2.471   0.651   7.058 -0.1751 -0.6821  0.0600
 6757TIP3   OH241905   3.751   5.296   6.661 -0.0743  0.0993 -0.4380
 6757TIP3    H141906   3.815   5.228   6.683 -0.0609 -1.1756 -3.8243
 6757TIP3    H241907   3.799   5.378   6.671  0.9344 -0.5788  0.5854
 6758TIP3   OH241908   0.818   5.129   7.614  0.0599  0.2845 -0.2659
 6758TIP3    H141909   0.887   5.079   7.572  0.2913  0.7833 -0.4866
 6758TIP3    H241910   0.829   5.218   7.581 -1.1352  0.2262 -0.8639
 6759TIP3   OH241911   3.250   3.123   7.879 -0.1703  0.0054  0.6062
 6759TIP3    H141912   3.333   3.077   7.871  0.7012  1.7924 -1.9322
 6759TIP3    H241913   3.274   3.215   7.887 -1.6756  1.1827 -4.7311
 6760TIP3   OH241914   6.190   1.293   7.619 -1.0211  0.4454  0.4547
 6760TIP3    H141915   6.246   1.270   7.694 -0.9355 -0.1343  0.2211
 6760TIP3    H241916   6.206   1.386   7.605 -1.3055  0.6457  1.3842
 6761TIP3   OH241917   1.544   4.910   7.236  0.1413 -0.1565  0.1746
 6761TIP3    H141918   1.637   4.910   7.213  0.1921 -1.8013  0.2889
 6761TIP3    H241919   1.536   4.843   7.304 -0.6561  1.9329  2.3012
 6762TIP3   OH241920   1.901   5.611   7.249 -0.1775  0.1822  0.4484
 6762TIP3    H141921   1.919   5.692   7.203  0.6618 -0.2604 -0.0291
 6762TIP3    H241922   1.821   5.577   7.208  0.1971  0.1187 -0.2288
 6763TIP3   OH241923   4.420   0.097   8.706 -0.1091 -0.0156 -0.3326
 6763TIP3    H141924   4.449   0.023   8.759  0.9958  0.5399 -0.1096
 6763TIP3    H241925   4.389   0.058   8.624 -0.6707 -0.7932  0.2386
 6764TIP3   OH241926   3.852   3.720   1.009  0.4593  0.2511  0.3352
 6764TIP3    H141927   3.796   3.645   0.993 -0.3923  1.2565 -1.9303
 6764TIP3    H241928   3.851   3.769   0.926  2.7940  1.5676  0.9690
 6765TIP3   OH241929   6.691   0.343   1.793 -0.4378 -0.3759  0.4778
 6765TIP3    H141930   6.711   0.330   1.886  1.8174  2.1696  0.4698
 6765TIP3    H241931   6.678   0.254   1.759  0.6581 -1.5212  2.8178
 6766TIP3   OH241932   5.369   1.551   0.363 -0.1063 -0.3205  0.0127
 6766TIP3    H141933   5.323   1.630   0.335  0.0895 -0.0425  0.4729
 6766TIP3    H241934   5.385   1.503   0.282 -3.4366 -1.6584 -0.0162
 6767TIP3   OH241935   2.650   5.770   7.874 -0.2956 -0.1296 -0.0512
 6767TIP3    H141936   2.621   5.828   7.804 -1.8731  1.4764  1.8194
 6767TIP3    H241937   2.728   5.812   7.910 -1.2502  0.7341  1.0906
 6768TIP3   OH241938   4.284   0.430   8.215  0.0173 -0.0292  0.1588
 6768TIP3    H141939   4.276   0.335   8.223  2.1770 -0.4787 -2.0147
 6768TIP3    H241940   4.378   0.446   8.214 -0.1810  1.7185 -2.9813
 6769TIP3   OH241941   4.543   5.973   0.412 -0.2523 -0.7053 -0.3350
 6769TIP3    H141942   4.633   5.943   0.408 -0.4049 -1.0979 -2.8652
 6769TIP3    H241943   4.491   5.894   0.401 -0.9571 -0.5239  1.3952
 6770TIP3   OH241944   2.099   1.666   7.239 -0.3923 -0.0297  0.0208
 6770TIP3    H141945   2.137   1.749   7.212  0.1368 -0.1579  0.3722
 6770TIP3    H241946   2.051   1.687   7.319 -1.8467  0.3212 -0.8843
 6771TIP3   OH241947   0.601   5.132   7.809  0.1382 -0.1120 -0.0292
 6771TIP3    H141948   0.636   5.131   7.720  0.7184 -2.3824  0.1708
 6771TIP3    H241949   0.602   5.040   7.837  1.9814  0.7084  3.0942
 6772TIP3   OH241950   1.074   2.213   1.709 -0.3856  0.3173  0.0256
 6772TIP3    H141951   1.073   2.276   1.637  0.8069  0.6315  0.2711
 6772TIP3    H241952   1.075   2.266   1.788  2.6774  0.0894  0.2342
 6773TIP3   OH241953   3.523   4.445   7.643 -0.0454  0.2534  0.1288
 6773TIP3    H141954   3.576   4.487   7.711 -1.2478  1.3328  0.4523
 6773TIP3    H241955   3.443   4.418   7.689 -0.6813  0.5968 -0.7439
 6774TIP3   OH241956   0.511   0.489   2.340 -1.1138  0.1585 -0.3305
 6774TIP3    H141957   0.426   0.513   2.302 -2.0873 -0.4984  1.3179
 6774TIP3    H241958   0.548   0.572   2.370 -1.3592  0.4077 -0.7181
 6775TIP3   OH241959   1.073   1.688   2.097  0.3535 -0.1476 -0.0469
 6775TIP3    H141960   1.012   1.616   2.084 -0.7358  0.7532 -0.0677
 6775TIP3    H241961   1.088   1.690   2.192 -1.1608  0.8026  0.1983
 6776TIP3   OH241962   5.317   2.662   0.298  0.1833 -0.0732 -0.5685
 6776TIP3    H141963   5.403   2.690   0.329 -0.2988  1.5460 -0.5655
 6776TIP3    H241964   5.269   2.639   0.377 -0.2634  1.7422 -0.2594
 6777TIP3   OH241965   2.598   6.581   8.038  0.5297  0.6509 -0.2293
 6777TIP3    H141966   2.680   6.538   8.061  0.5972  1.9727  2.3667
 6777TIP3    H241967   2.609   6.607   7.947  2.4996 -0.2926 -0.2947
 6778TIP3   OH241968   4.196   3.864   8.220 -0.0079 -0.2050 -0.4411
 6778TIP3    H141969   4.170   3.834   8.307  0.1585 -1.2141 -0.7283
 6778TIP3    H241970   4.185   3.959   8.223 -2.2514 -0.4230 -0.0566
 6779TIP3   OH241971   1.434   0.646   8.199 -0.2811 -0.9549  0.6626
 6779TIP3    H141972   1.484   0.603   8.269  0.3347 -0.0424  0.7972
 6779TIP3    H241973   1.357   0.681   8.244  0.6729  0.6341  1.1496
 6780TIP3   OH241974   1.107   2.594   2.167  0.0034  0.0223 -0.3863
 6780TIP3    H141975   1.191   2.547   2.167  0.7365  1.2635  0.3934
 6780TIP3    H241976   1.090   2.613   2.075  1.6449  1.5017 -0.4386
 6781TIP3   OH241977   0.831   3.407   2.414 -0.4042 -0.3004  0.2502
 6781TIP3    H141978   0.907   3.451   2.377 -0.4649 -0.2339  0.2022
 6781TIP3    H241979   0.759   3.431   2.355 -0.2293 -1.3948 -0.4329
 6782TIP3   OH241980   2.595   2.155   1.215 -0.0366  0.0471  0.1190
 6782TIP3    H141981   2.613   2.062   1.202  1.8422  0.2358  1.0729
 6782TIP3    H241982   2.537   2.158   1.291  1.4286 -0.2879  1.2930
 6783TIP3   OH241983   0.248   5.873   7.571 -0.4587  0.0484 -0.1874
 6783TIP3    H141984   0.293   5.878   7.487  1.3070  1.0405  0.7605
 6783TIP3    H241985   0.276   5.952   7.618 -1.2004 -0.6055  1.4327
 6784TIP3   OH241986   3.604   4.233   1.675 -0.3819 -0.1350 -0.3688
 6784TIP3    H141987   3.528   4.284   1.649 -0.6882 -0.3081  0.1847
 6784TIP3    H241988   3.679   4.280   1.638 -0.6803  0.5870 -0.0560
 6785TIP3   OH241989   2.241   2.110   0.999 -0.2608 -0.7048  0.7588
 6785TIP3    H141990   2.148   2.129   0.991  0.0517  2.1412  2.5034
 6785TIP3    H241991   2.245   2.030   1.052 -1.6847 -1.2145  0.1467
 6786TIP3   OH241992   1.723   0.303   0.343  0.6040 -0.2357  0.2139
 6786TIP3    H141993   1.798   0.303   0.284  0.2835  1.0946 -0.2234
 6786TIP3    H241994   1.665   0.371   0.308  0.1212  0.1575  1.7019
 6787TIP3   OH241995   4.482   4.533   1.359  0.5447 -0.5700 -0.1941
 6787TIP3    H141996   4.479   4.626   1.337  0.9394 -0.3569  0.6105
 6787TIP3    H241997   4.392   4.512   1.385  0.6516 -0.1844  0.5066
 6788TIP3   OH241998   0.259   0.476   0.151 -0.2243  0.4975  0.1183
 6788TIP3    H141999   0.234   0.532   0.078 -1.1842 -2.2213 -1.8288
 6788TIP3    H242000   0.201   0.502   0.223 -2.3412  0.4374 -1.4725
 6789TIP3   OH242001   3.804   0.367   1.045 -0.7573 -0.1415  0.2073
 6789TIP3    H142002   3.858   0.444   1.067 -0.9086  0.0527 -0.1060
 6789TIP3    H242003   3.717   0.389   1.077 -1.6530  1.2787 -2.8974
 6790TIP3   OH242004   2.145   4.581   0.877 -0.6850 -1.0502  0.1542
 6790TIP3    H142005   2.062   4.595   0.832 -0.0448 -2.5989 -1.6681
 6790TIP3    H242006   2.184   4.668   0.885 -1.0189 -0.6499 -1.9974
 6791TIP3   OH242007   3.512   5.754   6.832 -0.4228  0.1705  0.0364
 6791TIP3    H142008   3.433   5.753   6.886 -0.1756  0.8384  0.4168
 6791TIP3    H242009   3.578   5.709   6.885 -0.5372 -0.3681 -0.2720
 6792TIP3   OH242010   4.909   4.652   6.581  0.2035 -0.5171  0.6292
 6792TIP3    H142011   4.914   4.560   6.608 -0.3256 -1.0190 -0.8716
 6792TIP3    H242012   4.987   4.665   6.528 -0.9815 -0.8985 -1.3235
 6793TIP3   OH242013   0.299   0.337   5.817 -0.2996 -0.0448  0.2468
 6793TIP3    H142014   0.276   0.344   5.910 -0.5102  0.5392  0.1497
 6793TIP3    H242015   0.391   0.310   5.818 -0.0823  0.6834  0.6259
 6794TIP3   OH242016   2.224   6.123   0.060  0.3291 -0.1114  0.5014
 6794TIP3    H142017   2.224   6.035   0.021  1.1001  0.9305 -2.0023
 6794TIP3    H242018   2.132   6.142   0.075  0.1670 -1.4408  1.3674
 6795TIP3   OH242019   3.114   2.987   1.310  0.2165 -0.4995  0.3502
 6795TIP3    H142020   3.162   3.066   1.287 -0.1732 -0.4918 -0.4446
 6795TIP3    H242021   3.052   2.974   1.239 -0.6327 -0.7862  1.1283
 6796TIP3   OH242022   1.059   0.210   6.295  0.5331  0.3500  0.0162
 6796TIP3    H142023   1.143   0.170   6.319 -0.1639 -0.0603  1.9203
 6796TIP3    H242024   1.022   0.150   6.230  0.4026 -1.0953  1.3619
 6797TIP3   OH242025   3.976   3.475   0.146  0.0242 -0.4974  0.3257
 6797TIP3    H142026   3.895   3.526   0.144  1.2422  1.6158  1.1868
 6797TIP3    H242027   3.974   3.430   0.231 -1.2769 -2.3871 -0.6333
 6798TIP3   OH242028   2.691   6.209   7.726  0.3303  0.6197  0.3171
 6798TIP3    H142029   2.731   6.223   7.640  0.0813 -1.8917 -0.2769
 6798TIP3    H242030   2.617   6.270   7.728 -1.1898 -0.9390 -2.3395
 6799TIP3   OH242031   5.423   2.904   1.079 -0.7157  0.2043 -0.0144
 6799TIP3    H142032   5.339   2.893   1.034 -0.3334  0.1585 -0.7183
 6799TIP3    H242033   5.446   2.996   1.064 -0.6974  0.2500  0.2852
 6800TIP3   OH242034   1.557   1.133   8.756 -0.4769  0.8296 -0.1936
 6800TIP3    H142035   1.596   1.091   8.832 -2.7450 -1.2084 -0.0401
 6800TIP3    H242036   1.631   1.169   8.707  1.2012  0.3303  1.8653
 6801TIP3   OH242037   1.868   3.573   7.143 -0.3612 -0.1469  0.1795
 6801TIP3    H142038   1.786   3.620   7.155 -0.9765 -1.6778  2.8662
 6801TIP3    H242039   1.936   3.634   7.170 -0.9206  0.0861  1.0946
 6802TIP3   OH242040   5.063   6.033   8.752 -0.5287 -0.1436 -0.0171
 6802TIP3    H142041   5.032   6.033   8.843  1.1914 -0.9502  0.5988
 6802TIP3    H242042   4.986   6.058   8.701 -1.3823  0.9450  1.7016
 6803TIP3   OH242043   5.489   5.610   1.325 -0.0578  0.6036  0.3101
 6803TIP3    H142044   5.474   5.524   1.286  0.1066  0.9409 -0.5311
 6803TIP3    H242045   5.467   5.599   1.417  0.4699 -0.4776  0.3291
 6804TIP3   OH242046   2.203   1.280   7.693  0.0104  0.5373 -0.1626
 6804TIP3    H142047   2.267   1.233   7.640 -1.5151  0.0825 -1.7108
 6804TIP3    H242048   2.217   1.372   7.671 -0.9964  0.3187 -1.9205
 6805TIP3   OH242049   4.425   1.085   0.090  0.1380  0.0618 -0.4539
 6805TIP3    H142050   4.402   1.123   0.005  0.3570  1.0248 -0.1025
 6805TIP3    H242051   4.342   1.080   0.137  0.3889  2.5079  0.4104
 6806TIP3   OH242052   2.844   3.647   1.670 -0.2145  0.5525 -0.0227
 6806TIP3    H142053   2.763   3.657   1.721 -0.0066  0.3021  0.3619
 6806TIP3    H242054   2.912   3.685   1.726 -0.0733  0.8057 -0.3657
 6807TIP3   OH242055   2.031   4.392   6.173 -0.0255 -0.5671  0.0863
 6807TIP3    H142056   2.028   4.463   6.238  0.6201  0.0478 -0.5448
 6807TIP3    H242057   1.939   4.370   6.158 -0.1849 -0.8927  1.3829
 6808TIP3   OH242058   5.273   4.039   0.865 -0.0671  0.8153 -0.0456
 6808TIP3    H142059   5.287   4.092   0.787 -0.1434 -0.5507 -1.0251
 6808TIP3    H242060   5.362   4.018   0.896 -0.0384  1.6193  0.4279
 6809TIP3   OH242061   0.636   1.647   8.217 -0.1512 -0.1487 -0.0823
 6809TIP3    H142062   0.589   1.627   8.135 -0.0131  1.0785 -0.4730
 6809TIP3    H242063   0.727   1.656   8.190  0.5333 -3.1783  0.7728
 6810TIP3   OH242064   6.732   6.219   1.141  0.0058  0.1798  0.5133
 6810TIP3    H142065   6.818   6.205   1.103 -0.1460 -0.4211  0.3859
 6810TIP3    H242066   6.677   6.149   1.105 -0.2341 -0.1702  1.5274
 6811TIP3   OH242067   6.486   4.050   8.359 -0.4142  0.3991  0.5102
 6811TIP3    H142068   6.556   4.079   8.418 -0.6542  3.6659 -0.6073
 6811TIP3    H242069   6.524   4.058   8.272 -0.5457 -2.9748 -0.0097
 6812TIP3   OH242070   4.332   3.429   0.900 -0.0094 -0.5107  0.1808
 6812TIP3    H142071   4.359   3.338   0.886 -1.4786 -1.1392  1.1803
 6812TIP3    H242072   4.246   3.435   0.859 -0.7875 -0.1405  1.7835
 6813TIP3   OH242073   1.274   3.156   8.284  0.1758 -0.4892 -0.3874
 6813TIP3    H142074   1.306   3.214   8.215 -1.2930  2.6887  1.3864
 6813TIP3    H242075   1.352   3.133   8.334  1.0259 -1.5297 -2.1050
 6814TIP3   OH242076   3.928   4.768   0.796  0.1850 -0.4021  0.1242
 6814TIP3    H142077   3.849   4.815   0.822  0.0432  0.2304 -1.3038
 6814TIP3    H242078   3.995   4.798   0.857 -0.0663  1.1942 -0.3259
 6815TIP3   OH242079   6.249   6.014   1.492 -0.2680  0.5311 -0.2882
 6815TIP3    H142080   6.204   6.088   1.534 -0.8744  0.2409 -0.4079
 6815TIP3    H242081   6.335   6.048   1.468  0.2461  0.6228  1.5067
 6816TIP3   OH242082   1.410   3.590   7.305  0.4966 -0.2202  0.0210
 6816TIP3    H142083   1.406   3.535   7.384 -0.4686  0.8924  0.7744
 6816TIP3    H242084   1.442   3.674   7.336 -0.6236  0.4653 -0.6115
 6817TIP3   OH242085   0.530   0.546   0.189  0.0171 -0.3815 -0.3681
 6817TIP3    H142086   0.517   0.557   0.284 -0.0049  1.8956 -0.5885
 6817TIP3    H242087   0.446   0.512   0.158 -0.5102  0.3330  0.2351
 6818TIP3   OH242088   4.227   0.190   7.488 -0.1962 -0.7093  0.0807
 6818TIP3    H142089   4.153   0.132   7.508 -1.3238  0.8221  0.6062
 6818TIP3    H242090   4.301   0.153   7.536 -1.2024 -1.0242  1.4590
 6819TIP3   OH242091   1.505   6.689   7.760 -0.2871 -0.2051 -0.2320
 6819TIP3    H142092   1.438   6.647   7.706  0.3924 -0.5330 -0.8284
 6819TIP3    H242093   1.483   6.782   7.757 -0.5395 -0.2761 -0.6793
 6820TIP3   OH242094   6.377   3.581   0.741  0.2151  0.2843  0.1839
 6820TIP3    H142095   6.448   3.520   0.760 -0.5290 -0.8429 -0.4814
 6820TIP3    H242096   6.377   3.642   0.815  0.8076 -0.7153  1.0440
 6821TIP3   OH242097   6.729   1.226   5.976 -0.0278  0.5071 -0.1427
 6821TIP3    H142098   6.823   1.221   5.992  0.1388  0.2585 -1.1171
 6821TIP3    H242099   6.703   1.136   5.955 -0.4888  0.5641  0.1735
 6822TIP3   OH242100   4.227   4.843   8.201  0.0935 -0.4778  0.0649
 6822TIP3    H142101   4.252   4.895   8.277  0.4484  1.6284 -1.3827
 6822TIP3    H242102   4.131   4.844   8.201  0.0488  2.1011 -1.0710
 6823TIP3   OH242103   6.792   1.506   1.024  0.4141  0.4993 -0.1241
 6823TIP3    H142104   6.861   1.571   1.039  0.4401  0.4901 -0.2001
 6823TIP3    H242105   6.711   1.551   1.048  0.6552 -0.2766  2.3793
 6824TIP3   OH242106   4.825   5.700   7.352 -0.2134  0.2727  0.2825
 6824TIP3    H142107   4.780   5.776   7.388  1.3509  2.0583 -1.3072
 6824TIP3    H242108   4.917   5.714   7.373 -0.0305 -2.1785  1.5412
 6825TIP3   OH242109   1.171   6.580   7.756 -0.9755 -0.1616 -0.1344
 6825TIP3    H142110   1.123   6.538   7.828  0.5445  0.0534  1.0409
 6825TIP3    H242111   1.219   6.508   7.715 -0.8367 -0.0697 -0.1305
 6826TIP3   OH242112   1.105   6.636   0.543  0.0924 -0.6795 -0.0165
 6826TIP3    H142113   1.117   6.651   0.449  0.4140  0.4305  0.1778
 6826TIP3    H242114   1.145   6.713   0.584  1.4971 -1.9584  1.1170
 6827TIP3   OH242115   3.222   1.489   6.284  0.0070 -0.2076 -0.2592
 6827TIP3    H142116   3.289   1.443   6.334  0.9730  1.9536  0.5079
 6827TIP3    H242117   3.269   1.531   6.212 -0.5006  1.2904  0.2545
 6828TIP3   OH242118   2.156   5.614   7.371  0.2294 -0.3540  0.3574
 6828TIP3    H142119   2.080   5.624   7.313 -0.5243  1.1033  1.5379
 6828TIP3    H242120   2.122   5.570   7.448  0.8403 -0.6768  0.4446
 6829TIP3   OH242121   0.012   4.530   7.268  0.4020  0.2508 -0.2698
 6829TIP3    H142122   0.093   4.482   7.249 -0.8573 -2.0437 -0.0884
 6829TIP3    H242123   0.005   4.528   7.363 -0.2410 -0.2366 -0.3219
 6830TIP3   OH242124   2.689   4.819   8.513 -0.0081  0.2366 -0.0595
 6830TIP3    H142125   2.695   4.810   8.418  1.2052 -0.8939  0.0975
 6830TIP3    H242126   2.692   4.729   8.546  1.7372  0.6818  1.1326
 6831TIP3   OH242127   6.411   3.764   7.803  0.3674  0.5205 -0.0012
 6831TIP3    H142128   6.479   3.824   7.771  1.4917 -0.7400 -0.0659
 6831TIP3    H242129   6.360   3.743   7.725  0.1732  1.1148 -0.0417
 6832TIP3   OH242130   4.323   1.498   1.409 -0.3974  0.4643  0.4075
 6832TIP3    H142131   4.336   1.406   1.386 -2.7698  0.2536 -0.4516
 6832TIP3    H242132   4.390   1.545   1.358  0.6484 -0.7445  0.6247
 6833TIP3   OH242133   1.203   2.822   7.065 -0.2472 -0.0569  0.1633
 6833TIP3    H142134   1.197   2.917   7.067  1.6768  0.1007  0.7805
 6833TIP3    H242135   1.203   2.795   7.156  1.8602 -0.3648  0.1362
 6834TIP3   OH242136   5.701   0.956   6.723  0.1317 -0.5746 -0.1580
 6834TIP3    H142137   5.624   1.004   6.692  1.0165  0.7982 -0.3082
 6834TIP3    H242138   5.668   0.869   6.745 -1.9137  0.6046  1.8414
 6835TIP3   OH242139   1.672   1.333   0.244 -0.2518 -0.2066  0.2774
 6835TIP3    H142140   1.755   1.380   0.247  0.5559 -1.6061  0.8815
 6835TIP3    H242141   1.638   1.350   0.156 -0.3160  1.9861  0.6746
 6836TIP3   OH242142   4.980   1.038   0.035  0.4675 -0.0334  0.4162
 6836TIP3    H142143   5.066   1.001   0.056  0.1060  0.0034  2.1095
 6836TIP3    H242144   4.942   0.977  -0.027  1.0376 -0.9673  0.9676
 6837TIP3   OH242145   3.016   4.466   8.813 -0.6661  0.6571  0.0828
 6837TIP3    H142146   3.039   4.484   8.722  2.6101 -0.9656  0.4357
 6837TIP3    H242147   3.026   4.551   8.858 -2.5795  1.5277 -1.0152
 6838TIP3   OH242148   0.170   3.417   7.762 -0.3262  0.2032 -0.1401
 6838TIP3    H142149   0.220   3.345   7.802 -0.6285  0.0051 -0.1146
 6838TIP3    H242150   0.230   3.455   7.698 -1.4158 -2.6623 -3.1831
 6839TIP3   OH242151   4.755   3.297   7.483 -0.5762 -0.0080  0.1623
 6839TIP3    H142152   4.692   3.279   7.412 -1.5472 -0.3541  1.0788
 6839TIP3    H242153   4.700   3.320   7.558  0.4495  0.6785  0.7170
 6840TIP3   OH242154   5.218   4.885   7.582 -0.1576 -0.4101  0.5870
 6840TIP3    H142155   5.227   4.795   7.550  0.1410 -0.1067 -0.2008
 6840TIP3    H242156   5.305   4.908   7.614  0.3702  0.3510 -1.2636
 6841TIP3   OH242157   1.212   0.747   6.422 -0.0012  0.6115 -0.8700
 6841TIP3    H142158   1.239   0.750   6.514  0.8018 -0.0040 -1.0767
 6841TIP3    H242159   1.119   0.770   6.424 -0.1970 -0.1999  0.1804
 6842TIP3   OH242160   2.404   6.112   0.507  0.3339  0.2427 -0.5193
 6842TIP3    H142161   2.364   6.129   0.593 -0.2613  2.3835 -1.1654
 6842TIP3    H242162   2.358   6.035   0.475  0.8602 -0.8725  1.2308
 6843TIP3   OH242163   2.567   6.600   6.503  0.3241  0.1237  0.2415
 6843TIP3    H142164   2.642   6.603   6.443  0.5019 -2.3159  0.2481
 6843TIP3    H242165   2.604   6.623   6.588  0.4002  1.9806 -0.2594
 6844TIP3   OH242166   5.773   3.444   6.735  0.8198 -0.0660  0.2210
 6844TIP3    H142167   5.734   3.359   6.715 -0.4162  0.5270 -0.0095
 6844TIP3    H242168   5.740   3.502   6.666  1.0247  0.7694  0.8071
 6845TIP3   OH242169   3.970   2.842   1.225  0.2738 -0.1364 -0.3673
 6845TIP3    H142170   3.961   2.937   1.212 -0.7707 -0.0517  0.9115
 6845TIP3    H242171   3.950   2.805   1.139 -1.1723  0.6998 -0.4144
 6846TIP3   OH242172   6.770   3.474   1.273  0.4418 -0.1463  0.4076
 6846TIP3    H142173   6.766   3.452   1.367  0.7626  0.2822  0.5251
 6846TIP3    H242174   6.754   3.568   1.270  0.2888 -0.1840  0.0136
 6847TIP3   OH242175   1.852   0.796   8.598  0.1515  0.8851  0.1485
 6847TIP3    H142176   1.850   0.728   8.665  0.3549  0.5850 -0.1467
 6847TIP3    H242177   1.767   0.789   8.554  0.4131  0.3862 -0.3018
 6848TIP3   OH242178   3.105   6.574   0.653  0.1239  0.0134  0.1472
 6848TIP3    H142179   3.194   6.567   0.689  0.7186 -0.7311 -1.3664
 6848TIP3    H242180   3.091   6.491   0.607 -0.9613  0.5147 -0.4742
 6849TIP3   OH242181   4.354   6.531   0.947 -1.1386 -0.5722 -0.8464
 6849TIP3    H142182   4.365   6.537   0.852 -1.0558 -0.1560 -0.8134
 6849TIP3    H242183   4.434   6.571   0.983 -1.3756 -0.3135 -0.6047
 6850TIP3   OH242184   4.419   1.287   0.308  0.1651 -0.2063  0.0964
 6850TIP3    H142185   4.381   1.266   0.393  0.9332  1.4347  0.8838
 6850TIP3    H242186   4.413   1.383   0.302  3.2480  0.0646 -0.1345
 6851TIP3   OH242187   4.688   1.293   2.541 -0.0044  0.1348 -0.2614
 6851TIP3    H142188   4.746   1.370   2.544 -0.0759  0.1788  0.1954
 6851TIP3    H242189   4.744   1.223   2.508  0.7748 -0.1856  1.5723
 6852TIP3   OH242190   0.776   1.801   8.400 -0.6164 -0.0199 -0.0136
 6852TIP3    H142191   0.801   1.751   8.477 -1.8199  0.4705  0.7254
 6852TIP3    H242192   0.688   1.771   8.379 -1.0858  1.2596  0.0184
 6853TIP3   OH242193   2.989   0.843   0.934  0.6708  0.3796  0.0546
 6853TIP3    H142194   3.031   0.830   1.019  1.7104 -1.7951 -0.7308
 6853TIP3    H242195   3.057   0.824   0.870 -1.0931 -2.0654 -1.2758
 6854TIP3   OH242196   6.256   6.538   8.801 -0.2409  0.4775  0.1373
 6854TIP3    H142197   6.243   6.490   8.720  0.9009  0.4432 -0.0417
 6854TIP3    H242198   6.294   6.473   8.861  0.1215  0.8174  0.2848
 6855TIP3   OH242199   5.195   3.109   0.327 -0.3136 -0.0600 -0.0546
 6855TIP3    H142200   5.168   3.180   0.385 -0.0572  1.5065 -1.7503
 6855TIP3    H242201   5.164   3.136   0.241 -0.3808 -2.1342 -0.7260
 6856TIP3   OH242202   6.605   2.434   8.088 -0.1646  0.2984 -0.0321
 6856TIP3    H142203   6.514   2.409   8.102 -0.2220  1.2352  1.4493
 6856TIP3    H242204   6.601   2.526   8.062  0.3314  0.1985 -0.4940
 6857TIP3   OH242205   3.763   3.320   1.458 -0.0152 -0.0456 -0.0549
 6857TIP3    H142206   3.775   3.314   1.553 -0.3984  2.3970  0.2157
 6857TIP3    H242207   3.676   3.282   1.443 -0.5461  0.7752  0.7894
 6858TIP3   OH242208   0.422   1.853   7.012 -0.1344  0.2208  0.0406
 6858TIP3    H142209   0.378   1.852   6.927 -1.3633  1.8759  0.6145
 6858TIP3    H242210   0.492   1.918   7.002 -0.5100  0.6867  0.3834
 6859TIP3   OH242211   3.887   6.730   1.063  0.0542 -0.5425  0.2782
 6859TIP3    H142212   3.878   6.812   1.110  1.4462  1.1047 -2.0987
 6859TIP3    H242213   3.978   6.728   1.035  0.2930 -3.3690  0.9674
 6860TIP3   OH242214   1.271   4.689   6.033 -0.5747  0.4807 -0.1014
 6860TIP3    H142215   1.219   4.698   6.112  2.3163  0.7377  1.9048
 6860TIP3    H242216   1.211   4.714   5.962 -2.6224  2.4573  2.1530
 6861TIP3   OH242217   2.730   1.778   0.489 -0.3447  0.2005  0.2403
 6861TIP3    H142218   2.787   1.813   0.421 -1.5775 -0.4942 -1.2146
 6861TIP3    H242219   2.643   1.807   0.464 -1.1871 -2.3329 -0.0628
 6862TIP3   OH242220   2.384   2.204   7.403 -0.1703 -0.4347 -0.1851
 6862TIP3    H142221   2.427   2.121   7.383  0.7744 -0.0655  0.2476
 6862TIP3    H242222   2.337   2.187   7.485  2.1542  0.1262  1.3778
 6863TIP3   OH242223   3.936   6.374   8.701  0.0301  0.2505 -0.2982
 6863TIP3    H142224   3.982   6.331   8.772  1.5972 -0.4372 -1.6624
 6863TIP3    H242225   3.860   6.319   8.684 -0.0420  0.1128  0.4489
 6864TIP3   OH242226   4.043   4.725   7.615 -0.5550  0.1052 -0.2729
 6864TIP3    H142227   4.055   4.802   7.558 -2.0757 -0.3314 -1.2449
 6864TIP3    H242228   4.131   4.704   7.646 -0.1795  2.6947  0.6627
 6865TIP3   OH242229   4.425   6.538   6.967 -0.4940 -0.4312  0.1629
 6865TIP3    H142230   4.371   6.518   6.891 -0.1977  1.2027 -0.5253
 6865TIP3    H242231   4.382   6.493   7.040 -1.1073 -1.5542 -0.8446
 6866TIP3   OH242232   4.402   1.638   7.103 -0.5669  0.1504 -0.4928
 6866TIP3    H142233   4.316   1.618   7.066 -0.3537 -0.4389 -0.6857
 6866TIP3    H242234   4.456   1.664   7.028 -0.3487 -0.2949 -0.4945
 6867TIP3   OH242235   0.863   3.996   0.102 -0.1427  0.1207 -0.4378
 6867TIP3    H142236   0.768   3.991   0.091 -0.6855  3.4108  1.4343
 6867TIP3    H242237   0.883   3.930   0.168 -1.3775  0.3302  0.1767
 6868TIP3   OH242238   5.396   1.123   6.876  0.2471  0.0889 -0.9017
 6868TIP3    H142239   5.360   1.045   6.918  0.9791  0.4835  0.5395
 6868TIP3    H242240   5.418   1.095   6.787 -1.1286 -0.8486 -0.9637
 6869TIP3   OH242241   2.305   1.088   6.841  0.6527  0.0872 -0.1608
 6869TIP3    H142242   2.213   1.080   6.863  0.7634 -0.9220 -0.0160
 6869TIP3    H242243   2.351   1.038   6.909  1.0449 -2.4193 -2.1172
 6870TIP3   OH242244   4.634   0.279   7.200 -0.6331  0.0240  0.3279
 6870TIP3    H142245   4.691   0.338   7.150 -1.0844  0.6225  0.5091
 6870TIP3    H242246   4.550   0.283   7.154 -1.3552  1.3590  1.6709
 6871TIP3   OH242247   3.160   1.293   0.260  0.6717 -0.3282 -0.3026
 6871TIP3    H142248   3.072   1.321   0.237  1.2135  1.6812 -0.0862
 6871TIP3    H242249   3.174   1.213   0.209 -0.8371 -0.0248 -1.2307
 6872TIP3   OH242250   4.153   2.969   7.653  0.1147 -0.5945  0.4813
 6872TIP3    H142251   4.206   2.915   7.594  3.7758  1.8498  1.2383
 6872TIP3    H242252   4.135   2.911   7.727  0.6662 -1.8844 -0.3413
 6873TIP3   OH242253   4.189   4.357   2.260  0.1024  0.8367 -0.7697
 6873TIP3    H142254   4.099   4.341   2.232  0.0526 -1.0404  0.3074
 6873TIP3    H242255   4.189   4.450   2.285 -1.8703  0.6099  0.3273
 6874TIP3   OH242256   2.757   1.327   2.338 -0.5731 -0.1929 -0.6538
 6874TIP3    H142257   2.780   1.375   2.258 -1.5492 -1.3085 -1.6317
 6874TIP3    H242258   2.732   1.240   2.307 -0.1969 -0.8907  0.9563
 6875TIP3   OH242259   0.814   3.385   6.507  0.6703  0.3012  0.0734
 6875TIP3    H142260   0.903   3.359   6.481 -0.1297 -2.1574 -0.3947
 6875TIP3    H242261   0.763   3.381   6.426 -0.1507  0.4574  0.5737
 6876TIP3   OH242262   1.926   2.865   1.464 -0.1624  0.4800  0.7767
 6876TIP3    H142263   1.902   2.794   1.524  2.7213  0.0909  1.6131
 6876TIP3    H242264   1.982   2.823   1.399  1.3414  1.8738  1.1056
 6877TIP3   OH242265   1.732   3.295   8.244  0.4655 -0.3948 -0.2422
 6877TIP3    H142266   1.672   3.344   8.187  1.5402  0.4194 -0.7221
 6877TIP3    H242267   1.687   3.212   8.261 -0.8452  0.2404 -0.4718
 6878TIP3   OH242268   6.477   5.741   1.080 -0.0531 -0.2982 -0.0744
 6878TIP3    H142269   6.501   5.734   1.172  1.8471  0.1554 -0.4867
 6878TIP3    H242270   6.449   5.652   1.055  0.5505 -0.7011  0.6482
 6879TIP3   OH242271   6.838   1.539   6.782 -0.0586 -0.0589 -0.1077
 6879TIP3    H142272   6.769   1.525   6.846 -1.3181  2.0409 -0.8875
 6879TIP3    H242273   6.791   1.555   6.700  1.3354  1.4260 -0.6631
 6880TIP3   OH242274   6.082   5.256   7.623 -0.4775 -0.1126  0.0805
 6880TIP3    H142275   6.006   5.314   7.623  0.0379  0.5715 -0.5822
 6880TIP3    H242276   6.083   5.216   7.536  0.0577  0.0688 -0.0031
 6881TIP3   OH242277   5.972   6.155   7.532 -0.7006  0.2160 -0.6343
 6881TIP3    H142278   6.023   6.235   7.518 -1.0652  0.7847  1.0601
 6881TIP3    H242279   6.020   6.087   7.484  1.3042  0.8561  0.3408
 6882TIP3   OH242280   3.984   1.411   1.426 -0.1186  0.3102  0.1344
 6882TIP3    H142281   4.030   1.333   1.458 -2.2387 -1.2649 -0.4222
 6882TIP3    H242282   3.983   1.470   1.500  0.0232 -0.9224  1.1543
 6883TIP3   OH242283   3.200   1.950   0.370 -0.3759 -0.1186  0.2742
 6883TIP3    H142284   3.250   1.889   0.316 -0.0751  1.0070 -0.7610
 6883TIP3    H242285   3.150   1.894   0.429  1.7866 -1.3041  1.0951
 6884TIP3   OH242286   1.312   2.422   2.124  0.4911  0.3851  0.1434
 6884TIP3    H142287   1.395   2.465   2.145  1.1839  0.0837 -1.8223
 6884TIP3    H242288   1.334   2.329   2.118 -0.4390  0.0349  1.6102
 6885TIP3   OH242289   0.660   3.127   6.511 -0.4080 -0.5219 -0.4000
 6885TIP3    H142290   0.680   3.091   6.425 -1.4396  0.2315 -0.9807
 6885TIP3    H242291   0.651   3.221   6.496 -0.6017 -0.3810  0.5272
 6886TIP3   OH242292   0.648   2.816   6.402  0.3338  0.0201  0.6310
 6886TIP3    H142293   0.584   2.887   6.395 -0.8950 -1.1826 -2.0655
 6886TIP3    H242294   0.729   2.853   6.366 -0.1175  0.2778 -0.1500
 6887TIP3   OH242295   3.833   5.568   6.645  0.0252  0.1048  0.0023
 6887TIP3    H142296   3.808   5.598   6.558  0.9009  0.1208 -0.2475
 6887TIP3    H242297   3.887   5.638   6.680  1.2877 -0.7343 -0.2137
 6888TIP3   OH242298   2.352   0.630   1.507 -0.0727  0.4650  0.6213
 6888TIP3    H142299   2.336   0.648   1.600  2.0537  0.5966  1.0194
 6888TIP3    H242300   2.317   0.543   1.493  1.5801 -0.5212  2.1819
 6889TIP3   OH242301   0.198   2.098   6.802  0.1096 -0.1960  0.5403
 6889TIP3    H142302   0.209   2.158   6.728 -1.1104 -1.1210 -0.4482
 6889TIP3    H242303   0.272   2.038   6.796 -0.3616 -0.7248 -0.4365
 6890TIP3   OH242304   3.962   4.758   8.258 -0.0451  0.1680  0.3141
 6890TIP3    H142305   3.984   4.707   8.335  1.4273 -1.1562 -0.9095
 6890TIP3    H242306   3.972   4.697   8.185  1.8678  2.1798 -1.2412
 6891TIP3   OH242307   4.538   6.053   7.136 -0.3245 -0.2020  0.0022
 6891TIP3    H142308   4.470   5.988   7.121 -1.2913  0.8489 -0.3521
 6891TIP3    H242309   4.550   6.095   7.051  1.3495 -0.8869 -0.1325
 6892TIP3   OH242310   2.737   5.494   7.250 -0.3550  0.4697  0.4035
 6892TIP3    H142311   2.677   5.540   7.190  1.5036 -0.2317 -2.1894
 6892TIP3    H242312   2.680   5.436   7.300 -1.9582 -0.0571 -1.8353
 6893TIP3   OH242313   6.299   6.614   1.005 -0.0359  0.3746 -0.3219
 6893TIP3    H142314   6.331   6.685   0.950  1.7580  0.9949  1.3562
 6893TIP3    H242315   6.204   6.617   0.996  0.1325  1.1325 -2.4609
 6894TIP3   OH242316   1.281   1.004   1.219 -0.4085 -0.3962  0.1642
 6894TIP3    H142317   1.365   1.049   1.222 -1.4391  1.5773  1.2660
 6894TIP3    H242318   1.218   1.071   1.192 -1.8918 -1.3317  1.1256
 6895TIP3   OH242319   0.453   5.553   7.341  0.3655 -0.4289  0.5256
 6895TIP3    H142320   0.461   5.642   7.306  1.9631 -0.4524  0.7528
 6895TIP3    H242321   0.364   5.549   7.376  0.8229  1.7035  2.1678
 6896TIP3   OH242322   4.661   3.000   0.153  0.1918 -0.2673 -0.5192
 6896TIP3    H142323   4.720   3.074   0.167 -0.5254  0.3844 -0.8816
 6896TIP3    H242324   4.713   2.938   0.102  0.7124  0.1006 -0.4449
 6897TIP3   OH242325   4.032   0.205   0.285  0.1015 -0.1952 -0.4784
 6897TIP3    H142326   4.038   0.262   0.362  0.8425 -0.2735 -0.4710
 6897TIP3    H242327   4.061   0.260   0.212 -1.6269  0.2179 -0.9019
 6898TIP3   OH242328   1.687   1.049   0.159  0.0045  0.5005 -0.2715
 6898TIP3    H142329   1.719   0.975   0.210 -0.1632  0.4698 -0.2119
 6898TIP3    H242330   1.672   1.118   0.223  2.4349  1.4094 -0.5585
 6899TIP3   OH242331   2.918   5.320   1.762  0.4609 -0.6095  0.1593
 6899TIP3    H142332   2.891   5.317   1.854 -1.7407  1.4243 -0.3277
 6899TIP3    H242333   3.013   5.329   1.766  0.5057 -1.3551  2.1889
 6900TIP3   OH242334   4.506   4.892   8.374 -0.0256 -0.2527  0.4711
 6900TIP3    H142335   4.452   4.961   8.414  0.9569  1.0178 -0.3244
 6900TIP3    H242336   4.507   4.822   8.440 -0.7937  0.6027  1.4405
 6901TIP3   OH242337   2.528   6.069   1.801 -0.0516  0.0066 -0.6631
 6901TIP3    H142338   2.557   6.115   1.722 -2.2628  0.9374 -0.9968
 6901TIP3    H242339   2.567   6.120   1.873  0.7255  0.0490 -1.0959
 6902TIP3   OH242340   6.319   5.534   7.798 -1.2244 -0.0942 -0.1994
 6902TIP3    H142341   6.320   5.570   7.887 -2.4186 -1.0295  0.2226
 6902TIP3    H242342   6.316   5.439   7.810  2.7538 -0.5333 -1.2780
 6903TIP3   OH242343   3.828   5.594   8.724  0.4072  0.3605 -0.0363
 6903TIP3    H142344   3.821   5.559   8.635 -0.4014  1.3497 -0.3791
 6903TIP3    H242345   3.783   5.530   8.779  2.3518 -1.1232 -0.0587
 6904TIP3   OH242346   1.296   1.948   7.062 -0.4275 -0.3324 -0.0060
 6904TIP3    H142347   1.386   1.958   7.091 -0.0818 -0.3344 -1.0336
 6904TIP3    H242348   1.299   1.877   6.998 -1.2874 -0.8289  0.4795
 6905TIP3   OH242349   2.415   5.686   7.362 -0.3840 -0.1114  0.3191
 6905TIP3    H142350   2.333   5.645   7.336 -0.2455  0.5756 -1.3463
 6905TIP3    H242351   2.391   5.750   7.428 -1.7334  2.2433 -2.2492
 6906TIP3   OH242352   1.680   2.424   0.969 -0.0488 -0.7233  0.2575
 6906TIP3    H142353   1.774   2.438   0.967  0.0029 -0.7347  1.4888
 6906TIP3    H242354   1.662   2.392   1.058 -1.0799 -1.7026 -0.2668
 6907TIP3   OH242355   6.482   0.958   1.467 -0.7735 -0.0839  0.9234
 6907TIP3    H142356   6.451   0.969   1.557 -0.4998 -0.1928  1.0314
 6907TIP3    H242357   6.468   0.866   1.447 -0.5818 -0.1195  0.9497
 6908TIP3   OH242358   2.378   2.812   1.581 -0.3246  0.5458 -0.1635
 6908TIP3    H142359   2.367   2.729   1.627  0.9579  0.7300  0.5176
 6908TIP3    H242360   2.403   2.874   1.649  0.7653  1.0187 -0.9592
 6909TIP3   OH242361   3.842   2.407   1.813 -0.1480  0.2999  0.2242
 6909TIP3    H142362   3.772   2.457   1.853  1.0153  1.2124  1.2019
 6909TIP3    H242363   3.813   2.392   1.723 -1.6899  0.4103  0.6826
 6910TIP3   OH242364   5.521   1.286   8.228 -0.3080  0.0395 -0.3662
 6910TIP3    H142365   5.491   1.274   8.139 -3.3900  1.8417  0.3031
 6910TIP3    H242366   5.579   1.211   8.244  1.4486  0.3610 -4.2048
 6911TIP3   OH242367   1.720   6.445   0.300 -0.2206  0.1420 -0.3643
 6911TIP3    H142368   1.652   6.406   0.246 -0.6585 -1.4891  1.2579
 6911TIP3    H242369   1.682   6.526   0.333 -1.6726 -1.0491  1.0160
 6912TIP3   OH242370   5.413   6.757   8.394  0.4612 -0.4089  0.0215
 6912TIP3    H142371   5.339   6.720   8.442  0.6342  0.9696  1.4277
 6912TIP3    H242372   5.378   6.778   8.307 -1.3097  1.7078  1.1440
 6913TIP3   OH242373   2.110   5.076   7.862  0.5141 -0.8555 -0.4399
 6913TIP3    H142374   2.201   5.050   7.875  1.2738  0.4574 -2.5616
 6913TIP3    H242375   2.115   5.166   7.830 -1.6682 -0.0856  1.1360
 6914TIP3   OH242376   1.770   6.101   6.566 -0.0151  0.0039 -0.3321
 6914TIP3    H142377   1.696   6.114   6.506 -0.7804  2.9314  1.0788
 6914TIP3    H242378   1.737   6.128   6.651  2.1358 -0.5369  0.7347
 6915TIP3   OH242379   0.432   2.876   0.550 -0.1147 -0.5299 -0.3639
 6915TIP3    H142380   0.357   2.817   0.542 -0.0323 -0.6404 -0.3212
 6915TIP3    H242381   0.452   2.901   0.460 -2.4701  2.3713 -0.2424
 6916TIP3   OH242382   5.002   2.176   8.301  0.0555  0.0268 -0.1593
 6916TIP3    H142383   4.942   2.214   8.236 -0.6085  1.2674  1.1231
 6916TIP3    H242384   5.047   2.251   8.340 -0.1049 -0.6077  1.3255
 6917TIP3   OH242385   5.958   3.312   0.033 -0.0510 -0.1832 -0.0063
 6917TIP3    H142386   5.909   3.348  -0.042  0.3897 -1.7501 -1.0945
 6917TIP3    H242387   5.981   3.223   0.006  2.2582  0.0341  1.0048
 6918TIP3   OH242388   5.279   4.246   1.437 -0.5944 -0.0125 -0.0325
 6918TIP3    H142389   5.184   4.259   1.425 -1.0616 -1.3616  1.7621
 6918TIP3    H242390   5.313   4.237   1.348 -1.5387  3.8034 -1.0018
 6919TIP3   OH242391   0.003   2.984   8.561  0.5333  0.4800  0.0978
 6919TIP3    H142392  -0.006   3.000   8.467  1.1464 -1.1444 -0.2782
 6919TIP3    H242393   0.008   2.889   8.568  0.3782  0.5743  1.8006
 6920TIP3   OH242394   5.651   3.391   7.228  0.0872  0.5435  0.5800
 6920TIP3    H142395   5.607   3.337   7.293 -0.4359  1.3818  0.9237
 6920TIP3    H242396   5.595   3.467   7.216  1.0667  1.2781  0.4876
 6921TIP3   OH242397   3.357   1.717   1.724 -0.1974  0.6636 -0.2271
 6921TIP3    H142398   3.398   1.721   1.811  0.9795  3.7577 -0.7558
 6921TIP3    H242399   3.346   1.809   1.700 -1.8778 -0.1121 -2.7605
 6922TIP3   OH242400   5.841   5.717   1.853  0.7039  0.6436  0.2180
 6922TIP3    H142401   5.929   5.709   1.817  0.1120 -2.0909 -0.8555
 6922TIP3    H242402   5.786   5.739   1.778  0.0852 -0.7339  0.2366
 6923TIP3   OH242403   3.563   4.440   0.967 -0.2400  0.7068  0.1406
 6923TIP3    H142404   3.599   4.439   1.056  0.5477  1.3850 -0.1571
 6923TIP3    H242405   3.629   4.394   0.914  0.6638  2.7133 -0.5650
 6924TIP3   OH242406   3.954   6.451   0.883 -0.0121  0.3921 -1.1711
 6924TIP3    H142407   3.939   6.358   0.904 -3.2905  1.1448  0.4706
 6924TIP3    H242408   3.896   6.469   0.809  0.9316  1.0784 -1.7664
 6925TIP3   OH242409   2.658   4.238   1.257  0.4829 -0.2568 -0.1450
 6925TIP3    H142410   2.752   4.230   1.271  0.2294 -1.7286  0.9780
 6925TIP3    H242411   2.646   4.329   1.229  2.1331  0.2157  0.5375
 6926TIP3   OH242412   2.615   4.880   1.342  0.4725 -0.0867  0.7402
 6926TIP3    H142413   2.553   4.878   1.269  2.1866 -2.5119 -0.7956
 6926TIP3    H242414   2.664   4.962   1.330  0.1599 -0.0408 -0.3216
 6927TIP3   OH242415   3.455   2.346   1.478  0.1404 -0.2339  0.0656
 6927TIP3    H142416   3.439   2.439   1.494  1.3948 -0.1521  0.8729
 6927TIP3    H242417   3.372   2.304   1.501 -0.0802  0.5561  0.7652
 6928TIP3   OH242418   4.460   2.622   1.930  0.3596  0.1325  0.3272
 6928TIP3    H142419   4.439   2.554   1.995  1.4749 -0.0774  0.4896
 6928TIP3    H242420   4.508   2.689   1.980  0.9842  0.0992 -0.2119
 6929TIP3   OH242421   5.000   4.874   0.362 -0.0568  0.0896 -0.0133
 6929TIP3    H142422   5.074   4.932   0.345  2.0286 -2.1912  0.6731
 6929TIP3    H242423   4.946   4.881   0.283 -0.6824  3.8661  0.5462
 6930TIP3   OH242424   4.315   4.209   1.011 -0.4480  0.0106 -0.6257
 6930TIP3    H142425   4.303   4.134   1.070 -0.5993  1.4114  1.1889
 6930TIP3    H242426   4.242   4.268   1.030 -0.4179  0.5926 -2.1378
 6931TIP3   OH242427   4.587   6.595   1.104  0.6064  0.0981  0.5837
 6931TIP3    H142428   4.671   6.585   1.058 -1.2826 -1.5332 -2.8309
 6931TIP3    H242429   4.566   6.507   1.134 -0.3969  0.2754  0.4233
 6932TIP3   OH242430   0.757   3.257   8.772 -0.4757 -0.2035 -0.2124
 6932TIP3    H142431   0.824   3.271   8.839  0.5065  0.1942 -1.2618
 6932TIP3    H242432   0.777   3.170   8.736 -0.5737 -0.1150 -0.4817
 6933TIP3   OH242433   6.007   4.979   7.038 -0.4039 -0.4395  0.4015
 6933TIP3    H142434   5.970   5.063   7.013  0.3049  0.0193  0.8737
 6933TIP3    H242435   5.996   4.974   7.133  0.0052 -0.6562  0.4437
 6934TIP3   OH242436   0.283   1.309   6.554 -0.3636  0.1098 -0.1679
 6934TIP3    H142437   0.245   1.382   6.505  0.2030 -0.7287 -1.9463
 6934TIP3    H242438   0.339   1.351   6.620  1.5444  1.3590 -2.4256
 6935TIP3   OH242439   3.217   1.296   1.552  0.2752  0.5219  0.5585
 6935TIP3    H142440   3.176   1.379   1.576  0.2556  0.7408 -0.2072
 6935TIP3    H242441   3.310   1.315   1.546  0.2324  0.5782  0.0316
 6936TIP3   OH242442   2.367   4.932   0.598 -0.1937  0.0791  0.0405
 6936TIP3    H142443   2.389   5.014   0.553 -0.7436 -0.3713 -1.0730
 6936TIP3    H242444   2.448   4.882   0.600 -0.3382 -0.2248 -1.1646
 6937TIP3   OH242445   5.440   1.715   8.615  0.0787 -0.0108 -0.2657
 6937TIP3    H142446   5.358   1.684   8.577  0.0862  1.2770 -1.4063
 6937TIP3    H242447   5.494   1.738   8.539 -0.0087  2.9754  0.4605
 6938TIP3   OH242448   1.540   1.997   0.941  0.5799  0.1317 -0.1463
 6938TIP3    H142449   1.549   2.003   1.036 -1.4809 -1.3604  0.2151
 6938TIP3    H242450   1.607   1.935   0.914  1.2792  0.6803  0.2979
 6939TIP3   OH242451   3.300   0.025   1.272 -0.8261  0.1433 -0.0686
 6939TIP3    H142452   3.297  -0.015   1.359  0.1479  0.0445 -0.0722
 6939TIP3    H242453   3.343  -0.040   1.217 -1.5769  0.1472 -0.6655
 6940TIP3   OH242454   5.973   3.604   1.431 -0.0346 -0.4211 -0.3102
 6940TIP3    H142455   6.027   3.602   1.510  0.2844 -0.7329 -0.5322
 6940TIP3    H242456   5.890   3.642   1.459  0.4108  0.3627 -0.0324
 6941TIP3   OH242457   3.840   1.385   6.747 -0.2580 -0.1491 -0.3493
 6941TIP3    H142458   3.900   1.455   6.774  0.0951 -0.2096 -0.9510
 6941TIP3    H242459   3.770   1.430   6.700 -0.5083 -0.1140  0.0507
 6942TIP3   OH242460   0.277   0.666   6.903 -0.2242 -0.2603 -0.1696
 6942TIP3    H142461   0.273   0.743   6.846  1.6633  0.2518  0.3037
 6942TIP3    H242462   0.263   0.700   6.991  2.2605 -0.1010  0.2446
 6943TIP3   OH242463   4.723   1.192   6.913  0.0375  0.1683  0.0779
 6943TIP3    H142464   4.731   1.191   6.817  1.7683 -3.8885  0.0528
 6943TIP3    H242465   4.653   1.255   6.930 -1.7569 -0.3642 -4.0138
 6944TIP3   OH242466   1.576   2.692   8.594 -0.2679  0.1071 -0.0169
 6944TIP3    H142467   1.602   2.632   8.524  1.1920  0.7740 -0.0847
 6944TIP3    H242468   1.641   2.679   8.663 -1.0156  0.2967  0.7476
 6945TIP3   OH242469   5.735   2.690   0.855  0.2314  0.3544 -0.2522
 6945TIP3    H142470   5.705   2.687   0.946  0.6102 -0.0965 -0.1405
 6945TIP3    H242471   5.655   2.699   0.804 -0.0712 -0.4928  0.0625
 6946TIP3   OH242472   4.509   0.336   8.536 -0.1996 -0.9203 -1.1238
 6946TIP3    H142473   4.564   0.394   8.589  1.1795 -3.0140 -0.0831
 6946TIP3    H242474   4.559   0.254   8.531 -2.1869 -2.1540 -2.1891
 6947TIP3   OH242475   0.647   0.364   0.499 -0.3196  0.2658  0.1186
 6947TIP3    H142476   0.616   0.343   0.587 -1.5958 -0.8012 -0.5435
 6947TIP3    H242477   0.610   0.451   0.481  0.2123  0.6227  0.7485
 6948TIP3   OH242478   1.447   3.343   8.104 -0.5273  0.3821  0.2132
 6948TIP3    H142479   1.494   3.407   8.051  1.1773  0.4175  1.6879
 6948TIP3    H242480   1.435   3.268   8.045 -0.1052  1.0055 -0.6955
 6949TIP3   OH242481   4.309   4.046   1.481 -0.2140  0.0522 -0.2193
 6949TIP3    H142482   4.249   3.976   1.507  0.1548 -0.5506 -0.9374
 6949TIP3    H242483   4.348   4.076   1.563  0.2721 -1.2015  0.0441
 6950TIP3   OH242484   2.709   3.958   1.648 -0.0753  0.0549 -0.3300
 6950TIP3    H142485   2.635   3.905   1.680 -0.3022  0.1491 -0.6928
 6950TIP3    H242486   2.680   3.991   1.563  0.3139  0.2480 -0.3905
 6951TIP3   OH242487   0.173   2.144   1.685 -0.9165  0.0266 -0.3968
 6951TIP3    H142488   0.212   2.128   1.771  0.7704  0.4502 -1.0393
 6951TIP3    H242489   0.080   2.155   1.702 -0.6411 -0.1226  1.3412
 6952TIP3   OH242490   0.802   0.537   0.193 -0.1037  0.0625  0.6925
 6952TIP3    H142491   0.775   0.474   0.127  1.3300  0.8876 -0.7560
 6952TIP3    H242492   0.721   0.566   0.234 -1.0804 -0.1734 -0.9886
 6953TIP3   OH242493   6.538   1.107   6.916  0.7344  0.3624  0.0360
 6953TIP3    H142494   6.578   1.183   6.873 -1.2774  0.7116 -1.3952
 6953TIP3    H242495   6.472   1.077   6.853 -2.5595  0.9837  2.9033
 6954TIP3   OH242496   3.656   3.300   7.326  0.0013 -0.3347  0.1744
 6954TIP3    H142497   3.701   3.332   7.405 -0.2062 -0.8955  0.5280
 6954TIP3    H242498   3.705   3.338   7.254  0.0777  0.3522  0.5782
 6955TIP3   OH242499   5.225   1.290   1.541 -0.4221 -0.1355  0.1678
 6955TIP3    H142500   5.187   1.376   1.562  0.0015  0.2812 -0.6926
 6955TIP3    H242501   5.214   1.282   1.446 -1.5231 -1.5685  0.3834
 6956TIP3   OH242502   1.011   2.159   0.926  0.0942  0.1891 -0.2697
 6956TIP3    H142503   1.000   2.064   0.915  0.0329  0.0687  0.7345
 6956TIP3    H242504   1.035   2.191   0.839  3.2361 -1.1877 -0.0338
 6957TIP3   OH242505   1.323   2.018   0.106  0.1158  0.3742 -0.0661
 6957TIP3    H142506   1.230   2.007   0.125  0.0754  0.6485 -0.1023
 6957TIP3    H242507   1.330   2.107   0.072  0.3930  0.3594 -0.0486
 6958TIP3   OH242508   4.166   6.281   1.363 -0.2937 -0.0385  0.2817
 6958TIP3    H142509   4.177   6.307   1.271 -0.5211  0.0399  0.2748
 6958TIP3    H242510   4.117   6.353   1.402 -2.2296 -1.0957 -0.0817
 6959TIP3   OH242511   2.726   3.433   1.894  0.1983  0.4393 -0.2334
 6959TIP3    H142512   2.667   3.497   1.856  0.3839  1.0007  0.3917
 6959TIP3    H242513   2.755   3.379   1.821 -0.5473  0.5938 -0.6464
 6960TIP3   OH242514   1.885   3.103   0.134 -0.6177  0.1389 -0.1442
 6960TIP3    H142515   1.903   3.105   0.040 -0.5329  1.1864 -0.1192
 6960TIP3    H242516   1.805   3.155   0.144  0.5428  1.8625  0.5905
 6961TIP3   OH242517   0.005   1.215   1.049 -0.1276 -0.0056 -0.0414
 6961TIP3    H142518  -0.003   1.309   1.065 -0.3032 -0.1395  0.6827
 6961TIP3    H242519  -0.055   1.174   1.112  0.0004 -0.6074 -0.2995
 6962TIP3   OH242520   2.312   3.137   2.135 -0.0856 -0.0483 -0.6107
 6962TIP3    H142521   2.348   3.201   2.197  0.0530 -1.0006  0.3352
 6962TIP3    H242522   2.350   3.053   2.163  0.0782 -0.4928 -2.0860
 6963TIP3   OH242523   0.479   3.249   7.118  0.2735 -0.4180 -0.5798
 6963TIP3    H142524   0.532   3.198   7.057  1.3920  1.4581 -1.2713
 6963TIP3    H242525   0.506   3.219   7.204  0.0935 -1.7440 -0.9678
 6964TIP3   OH242526   3.518   4.366   0.122  0.5408 -0.1365 -0.5184
 6964TIP3    H142527   3.524   4.290   0.181 -0.8478  0.2724  0.1993
 6964TIP3    H242528   3.464   4.335   0.049  0.4415  0.0049 -0.5041
 6965TIP3   OH242529   4.332   1.764   8.725 -0.2115 -0.0485 -0.5948
 6965TIP3    H142530   4.363   1.823   8.657 -0.0390  1.3884  0.6700
 6965TIP3    H242531   4.411   1.744   8.776  0.4356 -4.0081 -2.7844
 6966TIP3   OH242532   0.457   1.490   6.693 -0.1373 -0.6415 -0.3887
 6966TIP3    H142533   0.417   1.572   6.720 -1.0824 -1.5799  1.2354
 6966TIP3    H242534   0.529   1.515   6.635  0.5701  1.3994  1.2832
 6967TIP3   OH242535   4.672   1.631   2.435 -0.0084 -0.2067  0.2352
 6967TIP3    H142536   4.582   1.601   2.419  0.3934 -1.0582 -0.5061
 6967TIP3    H242537   4.677   1.714   2.389 -0.5564  0.0814  0.6767
 6968TIP3   OH242538   1.419   3.486   0.276  0.3881 -0.8413 -0.3439
 6968TIP3    H142539   1.465   3.567   0.258  0.7340 -0.6385  1.2704
 6968TIP3    H242540   1.348   3.511   0.336 -0.0922 -1.5805 -0.5852
 6969TIP3   OH242541   4.309   1.073   0.522  0.2002 -0.4547 -0.6718
 6969TIP3    H142542   4.339   0.991   0.482 -1.5955 -2.3933  1.6494
 6969TIP3    H242543   4.229   1.096   0.473 -1.2875 -2.1286  0.8385
 6970TIP3   OH242544   0.643   1.875   1.332  0.2905  0.0403  0.2852
 6970TIP3    H142545   0.612   1.836   1.414 -0.4759  1.8295  0.9023
 6970TIP3    H242546   0.576   1.853   1.268  0.2023 -0.2213  0.4649
 6971TIP3   OH242547   2.812   1.316   0.432 -0.4751 -1.0397 -0.5496
 6971TIP3    H142548   2.766   1.400   0.436  1.0766 -0.2017  0.5626
 6971TIP3    H242549   2.862   1.319   0.350  0.3201 -0.4497 -0.0577
 6972TIP3   OH242550   6.560   0.371   8.512 -0.6658  0.4354  0.3870
 6972TIP3    H142551   6.652   0.343   8.518 -1.0416 -1.2659 -0.9899
 6972TIP3    H242552   6.563   0.455   8.467  0.1941  0.1953 -0.0213
 6973TIP3   OH242553   6.524   0.300   0.103 -0.2204 -0.0952 -0.0530
 6973TIP3    H142554   6.504   0.210   0.076  2.0567 -0.4609 -0.7069
 6973TIP3    H242555   6.496   0.354   0.029  0.1119 -0.4774 -0.4695
 6974TIP3   OH242556   1.540   1.309   6.374 -0.2946 -0.6114  0.5527
 6974TIP3    H142557   1.571   1.228   6.415 -0.8416 -0.1643  1.8935
 6974TIP3    H242558   1.446   1.296   6.362 -0.3714 -0.2052  0.7016
 6975TIP3   OH242559   0.787   0.591   8.592  0.2626 -0.3552  0.3112
 6975TIP3    H142560   0.775   0.670   8.643 -0.2733  0.7382 -1.4125
 6975TIP3    H242561   0.881   0.586   8.575  0.3538 -0.3518  0.8018
 6976TIP3   OH242562   1.147   5.431   0.874  0.7814 -0.1734 -0.7828
 6976TIP3    H142563   1.154   5.343   0.910  0.4782 -0.4941 -1.4910
 6976TIP3    H242564   1.074   5.471   0.922  0.8168 -0.3578 -0.5733
 6977TIP3   OH242565   5.099   3.368   0.464  0.2019 -0.0501  0.8297
 6977TIP3    H142566   5.157   3.420   0.518  0.9193  0.7730 -0.6562
 6977TIP3    H242567   5.020   3.421   0.453 -0.0874 -0.3682  1.3449
 6978TIP3   OH242568   5.502   1.172   0.323  0.2965  0.5346 -0.4768
 6978TIP3    H142569   5.565   1.242   0.304 -1.3968  1.6417 -2.3871
 6978TIP3    H242570   5.482   1.182   0.416  1.5784  1.2743 -0.2546
 6979TIP3   OH242571   1.986   2.523   6.837  0.0659  0.1817 -0.4343
 6979TIP3    H142572   2.064   2.550   6.789  0.7239 -0.8509  0.0263
 6979TIP3    H242573   1.931   2.480   6.772  0.4422 -0.1985 -0.5022
 6980TIP3   OH242574   6.087   2.349   0.053 -0.2580 -0.2284 -1.1644
 6980TIP3    H142575   6.059   2.428   0.098 -0.7767 -0.5640 -0.8913
 6980TIP3    H242576   6.162   2.377  -0.000  1.5585 -0.1867  1.2663
 6981TIP3   OH242577   0.097   6.187   0.960 -0.4563 -0.4247 -0.2887
 6981TIP3    H142578   0.070   6.278   0.966 -0.6419 -0.4177 -1.1155
 6981TIP3    H242579   0.044   6.150   0.889 -0.2685 -1.1321 -0.0755
 6982TIP3   OH242580   3.768   6.209   0.665  0.0620 -0.0944  0.3542
 6982TIP3    H142581   3.695   6.246   0.617  0.3159 -1.2267 -0.9869
 6982TIP3    H242582   3.845   6.235   0.615  0.2312 -2.5435 -0.8015
 6983TIP3   OH242583   1.369   3.759   6.946 -0.2162 -0.0630  0.5429
 6983TIP3    H142584   1.389   3.670   6.973 -2.2793 -0.2006  1.9052
 6983TIP3    H242585   1.321   3.750   6.863  0.7133 -0.0989 -0.0017
 6984TIP3   OH242586   3.618   0.105   0.834 -0.0553 -0.3724 -0.6696
 6984TIP3    H142587   3.561   0.144   0.900  0.4834 -0.6000 -0.0689
 6984TIP3    H242588   3.703   0.100   0.875  0.4961  0.2891 -1.6790
 6985TIP3   OH242589   2.366   5.829   8.351 -0.3975  0.2502  0.0799
 6985TIP3    H142590   2.459   5.814   8.366 -0.5995 -2.7238 -0.9427
 6985TIP3    H242591   2.349   5.916   8.387  2.6111  0.6044  0.8765
 6986TIP3   OH242592   4.881   3.728   2.363  0.1164  0.4206 -0.2146
 6986TIP3    H142593   4.792   3.716   2.394  0.5462  1.3798  1.4993
 6986TIP3    H242594   4.935   3.676   2.423  0.6559 -1.1459 -1.9523
 6987TIP3   OH242595   4.208   1.970   0.440  0.1469 -0.2559  0.4029
 6987TIP3    H142596   4.286   1.924   0.409 -1.9222 -2.8599 -1.4214
 6987TIP3    H242597   4.183   2.027   0.368 -0.2607 -0.2938  0.5096
 6988TIP3   OH242598   1.254   3.681   6.695 -0.4124  0.0297  0.3735
 6988TIP3    H142599   1.172   3.633   6.685 -0.8389  1.0449 -1.7087
 6988TIP3    H242600   1.316   3.633   6.641  0.3537 -0.6401  1.8114
 6989TIP3   OH242601   0.339   6.807   0.740  0.0472 -0.1930 -0.2286
 6989TIP3    H142602   0.362   6.822   0.649 -1.1605 -3.6080 -1.2706
 6989TIP3    H242603   0.384   6.876   0.789  3.1007  0.0703 -3.0981
 6990TIP3   OH242604   2.341   1.560   0.521 -0.0082 -0.5196  0.0748
 6990TIP3    H142605   2.412   1.583   0.581 -0.4559 -1.2044  0.8914
 6990TIP3    H242606   2.266   1.545   0.578 -0.5717 -0.7093 -0.7051
 6991TIP3   OH242607   4.549   6.742   8.273  0.1623 -0.1951 -0.3208
 6991TIP3    H142608   4.561   6.808   8.206  0.7650 -1.8140 -1.8743
 6991TIP3    H242609   4.502   6.671   8.230  2.1495 -2.0681  0.3901
 6992TIP3   OH242610   6.160   4.496   1.016  0.4536 -0.2993  0.0851
 6992TIP3    H142611   6.114   4.535   1.090  1.4119 -0.0809  0.5894
 6992TIP3    H242612   6.252   4.493   1.044  0.7880 -0.4795 -0.9852
 6993TIP3   OH242613   1.139   6.122   8.585  0.2679  0.1640 -0.3094
 6993TIP3    H142614   1.106   6.109   8.496 -0.3169  0.2948 -0.1114
 6993TIP3    H242615   1.073   6.083   8.641 -0.6721  2.3756  0.2185
 6994TIP3   OH242616   0.090   5.691   1.383  0.7788  0.4679  0.1188
 6994TIP3    H142617   0.138   5.673   1.464  1.0470  1.7552  0.2648
 6994TIP3    H242618   0.022   5.623   1.380  2.8181 -1.6788 -0.3175
 6995TIP3   OH242619   4.344   3.584   7.949 -0.5785 -0.0264  0.0438
 6995TIP3    H142620   4.315   3.568   7.859  3.0736 -1.3240 -1.0940
 6995TIP3    H242621   4.357   3.679   7.953  0.1058 -0.0486 -1.1594
 6996TIP3   OH242622   5.205   1.116   7.743  0.1177 -0.3767 -0.4860
 6996TIP3    H142623   5.216   1.211   7.734  1.2404 -0.5123 -0.6390
 6996TIP3    H242624   5.294   1.081   7.742 -0.3417 -1.5762 -1.8717
 6997TIP3   OH242625   1.075   6.458   8.276 -0.2160  0.3554 -0.0542
 6997TIP3    H142626   1.115   6.545   8.265  1.5514 -0.6758 -2.5808
 6997TIP3    H242627   1.101   6.431   8.364  0.6050  1.6914  0.1422
 6998TIP3   OH242628   2.079   4.530   1.144 -0.2037 -0.0459  0.0946
 6998TIP3    H142629   2.070   4.550   1.051 -0.7462  0.8774  0.3257
 6998TIP3    H242630   2.100   4.437   1.148  0.6927  0.0903 -0.9870
 6999TIP3   OH242631   1.263   4.500   7.020 -0.1718  0.8505  0.2370
 6999TIP3    H142632   1.188   4.559   7.005 -0.2779  0.7936  0.5242
 6999TIP3    H242633   1.329   4.529   6.958  0.2472  2.0992  1.2272
 7000TIP3   OH242634   1.847   3.723   2.077  0.5907 -0.5980 -0.1190
 7000TIP3    H142635   1.835   3.650   2.017 -1.0074  1.2149 -2.2138
 7000TIP3    H242636   1.774   3.717   2.139  1.6435 -1.8847  1.0388
 7001TIP3   OH242637   3.473   0.063   6.057 -0.2430  0.2757 -0.1397
 7001TIP3    H142638   3.441  -0.003   6.118  0.0752 -0.2256 -0.5048
 7001TIP3    H242639   3.425   0.046   5.976  0.2587  0.1095 -0.4108
 7002TIP3   OH242640   6.857   5.924   6.903 -0.1414  0.1688 -0.4104
 7002TIP3    H142641   6.823   5.841   6.937 -2.3227  0.6464 -1.2711
 7002TIP3    H242642   6.808   5.992   6.950  2.6249  1.1144  1.3405
 7003TIP3   OH242643   6.011   2.288   1.689  0.7434  0.0195  0.0770
 7003TIP3    H142644   5.943   2.316   1.751  1.3665  1.8061  0.0223
 7003TIP3    H242645   5.978   2.206   1.652 -1.0567  0.4955  0.5415
 7004TIP3   OH242646   2.322   5.487   0.876 -0.5660 -0.2874  0.0853
 7004TIP3    H142647   2.254   5.451   0.819 -0.3012 -1.5901  0.5727
 7004TIP3    H242648   2.285   5.481   0.964 -1.5900  3.0746  0.0428
 7005TIP3   OH242649   2.681   5.259   0.452 -0.3321  0.3455  0.1802
 7005TIP3    H142650   2.604   5.251   0.396 -0.7233  0.3965  0.6984
 7005TIP3    H242651   2.645   5.269   0.541  0.2685 -0.7318  0.5719
 7006TIP3   OH242652   2.387   0.890   2.120  0.3468  0.4274 -0.0970
 7006TIP3    H142653   2.459   0.882   2.182 -0.1505  0.3464  0.4845
 7006TIP3    H242654   2.310   0.858   2.168  0.0149  0.0371 -0.8713
 7007TIP3   OH242655   6.453   6.225   0.322  0.8162 -0.2305  0.7922
 7007TIP3    H142656   6.387   6.271   0.270  3.0196  0.1110 -1.9314
 7007TIP3    H242657   6.457   6.138   0.283 -1.0549 -1.8447  3.8553
 7008TIP3   OH242658   5.881   5.165   8.214  1.0094 -0.2636 -0.1155
 7008TIP3    H142659   5.790   5.185   8.194 -0.2149 -4.7815 -0.0253
 7008TIP3    H242660   5.929   5.189   8.134 -0.2872  1.6545 -0.3689
 7009TIP3   OH242661   2.021   1.033   1.949 -0.8687 -0.1032  0.0452
 7009TIP3    H142662   1.946   1.009   1.895 -1.2492  1.2562 -0.0744
 7009TIP3    H242663   1.988   1.028   2.039 -0.6486 -0.9823  0.0841
 7010TIP3   OH242664   6.151   0.409   1.222  0.1323 -0.6543  0.1621
 7010TIP3    H142665   6.240   0.373   1.231 -0.3560 -2.1616 -0.6997
 7010TIP3    H242666   6.132   0.403   1.129 -1.7065 -2.5183  0.5790
 7011TIP3   OH242667   3.914   2.409   6.417 -0.7857  0.5241 -0.2331
 7011TIP3    H142668   3.828   2.368   6.425 -0.9033  0.2620 -2.1500
 7011TIP3    H242669   3.975   2.344   6.453 -1.4148  1.0032  1.7775
 7012TIP3   OH242670   3.360   4.460   0.319 -0.0874  0.5080 -0.0246
 7012TIP3    H142671   3.392   4.399   0.253 -1.1860 -1.0658  0.8188
 7012TIP3    H242672   3.439   4.496   0.359  0.5934 -0.1079 -0.7895
 7013TIP3   OH242673   1.579   3.205   7.069  0.1817 -0.0453  0.5628
 7013TIP3    H142674   1.667   3.167   7.067  0.4848  0.6231  0.6912
 7013TIP3    H242675   1.539   3.179   6.986  0.9588  0.6865 -0.0537
 7014TIP3   OH242676   4.958   3.708   6.924  0.2058  0.6770 -0.3838
 7014TIP3    H142677   4.991   3.624   6.953  0.0300  0.7215 -0.0492
 7014TIP3    H242678   4.931   3.694   6.833  1.2107  0.6632 -0.6903
 7015TIP3   OH242679   1.317   4.068   7.732  0.5350  0.0979 -0.0530
 7015TIP3    H142680   1.224   4.061   7.712  0.8904 -0.1104 -1.7545
 7015TIP3    H242681   1.362   4.041   7.652  2.0898 -1.0636  1.1265
 7016TIP3   OH242682   2.530   5.322   0.678  0.1378  0.4373 -0.1804
 7016TIP3    H142683   2.445   5.366   0.672 -1.2256 -2.0795 -0.9753
 7016TIP3    H242684   2.508   5.229   0.683  2.8467 -0.2192  1.1941
 7017TIP3   OH242685   5.682   4.672   1.182  0.6319 -0.5878  0.4991
 7017TIP3    H142686   5.630   4.677   1.101 -0.9718 -1.7945  1.3938
 7017TIP3    H242687   5.771   4.694   1.154  0.2347 -1.4650 -1.7220
 7018TIP3   OH242688   3.638   4.631   0.793 -0.3614  0.0718  0.2291
 7018TIP3    H142689   3.590   4.569   0.848 -2.4281  0.3991 -1.0954
 7018TIP3    H242690   3.646   4.710   0.848 -1.8918  0.2097  0.3092
 7019TIP3   OH242691   4.957   6.226   8.288 -0.5120 -0.1388  0.7361
 7019TIP3    H142692   4.894   6.299   8.284 -1.3203 -0.8604 -0.8969
 7019TIP3    H242693   4.975   6.206   8.196 -0.9386 -2.5041  1.1091
 7020TIP3   OH242694   0.815   4.334   0.422 -0.0957  0.3605  0.4250
 7020TIP3    H142695   0.824   4.240   0.436 -0.2564  0.2129 -0.3965
 7020TIP3    H242696   0.863   4.374   0.495 -0.8232 -0.3388  1.2997
 7021TIP3   OH242697   6.140   3.660   1.712  0.1300 -0.0796  0.3502
 7021TIP3    H142698   6.190   3.578   1.714  2.3734  1.1268 -1.1886
 7021TIP3    H242699   6.204   3.727   1.737 -1.1076  1.4154 -0.3538
 7022TIP3   OH242700   6.545   4.340   0.870 -0.1363  0.1432  0.9008
 7022TIP3    H142701   6.506   4.402   0.808  1.4481  0.2044 -0.0896
 7022TIP3    H242702   6.620   4.386   0.907  0.3028 -0.7194  1.1234
 7023TIP3   OH242703   1.888   4.392   7.776 -0.1077 -0.0552  0.0910
 7023TIP3    H142704   1.794   4.379   7.789 -0.0276 -1.3158 -0.4361
 7023TIP3    H242705   1.895   4.457   7.707 -0.6116 -0.5073 -0.3911
 7024TIP3   OH242706   4.384   1.604   8.116  0.0160  0.3968  0.0885
 7024TIP3    H142707   4.376   1.510   8.100  2.9337 -0.1028  0.9612
 7024TIP3    H242708   4.389   1.642   8.028  2.5361 -0.7636 -0.3465
 7025TIP3   OH242709   2.616   0.046   8.650  0.1371  0.4745 -0.2486
 7025TIP3    H142710   2.693  -0.002   8.619  0.0656  0.5771 -0.5969
 7025TIP3    H242711   2.649   0.103   8.720  0.4432  0.7605 -0.6204
 7026TIP3   OH242712   3.712   6.793   2.102 -0.3265  0.5781  0.3328
 7026TIP3    H142713   3.793   6.760   2.064 -1.1402 -1.1689  0.0177
 7026TIP3    H242714   3.648   6.789   2.030 -0.6564  2.2054  0.4863
 7027TIP3   OH242715   6.059   3.612   8.334  0.1276 -0.8810  0.2965
 7027TIP3    H142716   5.978   3.561   8.332 -0.7648  0.4641  1.0384
 7027TIP3    H242717   6.030   3.703   8.327  1.6039 -0.3951  0.3062
 7028TIP3   OH242718   4.527   3.226   1.879  0.3458  0.1348  0.2588
 7028TIP3    H142719   4.469   3.227   1.955  1.7065  0.1343  1.3215
 7028TIP3    H242720   4.608   3.187   1.911  1.2191  0.8789 -0.9825
 7029TIP3   OH242721   3.990   0.970   6.399 -0.6201 -0.2952  0.1457
 7029TIP3    H142722   4.080   0.987   6.426 -0.0543 -1.6735 -0.7796
 7029TIP3    H242723   3.958   1.055   6.368  0.5333  0.1021 -0.0034
 7030TIP3   OH242724   5.672   0.904   0.019  0.1221  0.0863  0.3318
 7030TIP3    H142725   5.669   0.809   0.016 -1.3757  0.1379 -1.0596
 7030TIP3    H242726   5.698   0.925   0.109 -0.4078 -1.6084  0.9009
 7031TIP3   OH242727   6.171   2.497   0.522 -0.5740 -0.4911 -0.0094
 7031TIP3    H142728   6.083   2.472   0.494 -1.6635  1.8906  0.9577
 7031TIP3    H242729   6.208   2.544   0.448 -0.7985 -0.0292  0.1677
 7032TIP3   OH242730   6.751   5.697   8.393  0.1254  0.6051 -0.0303
 7032TIP3    H142731   6.743   5.766   8.458  0.3224  1.4774 -0.9052
 7032TIP3    H242732   6.664   5.659   8.387 -0.2335  1.4510 -0.2541
 7033TIP3   OH242733   0.762   6.296   0.280 -0.0723 -0.1363 -0.1330
 7033TIP3    H142734   0.705   6.345   0.221 -0.7373  1.2637  1.5729
 7033TIP3    H242735   0.703   6.260   0.346  0.7558 -0.6845  0.3197
 7034TIP3   OH242736   4.723   5.247   7.730  0.4713  0.2399 -0.0065
 7034TIP3    H142737   4.802   5.241   7.785 -0.0918  0.9956  0.9211
 7034TIP3    H242738   4.651   5.241   7.793 -0.1981  0.5257 -0.7420
 7035TIP3   OH242739   3.824   2.495   8.564  0.1526 -0.6633 -0.4757
 7035TIP3    H142740   3.780   2.412   8.582 -2.4657  0.4597 -1.1918
 7035TIP3    H242741   3.916   2.472   8.551 -0.2824 -3.2560  0.5269
 7036TIP3   OH242742   0.480   1.841   8.341 -0.0866 -0.9891  0.2077
 7036TIP3    H142743   0.490   1.877   8.253 -2.0400 -0.2559  0.2571
 7036TIP3    H242744   0.449   1.752   8.327 -0.5720 -0.8127  0.1510
 7037TIP3   OH242745   1.770   5.374   7.820 -0.0844  0.8157 -0.3307
 7037TIP3    H142746   1.741   5.283   7.828 -0.3685  0.9539  0.2193
 7037TIP3    H242747   1.760   5.393   7.727  2.4712 -0.5347 -0.9822
 7038TIP3   OH242748   0.223   6.853   1.193  0.6944 -0.2007 -0.0908
 7038TIP3    H142749   0.211   6.790   1.264 -0.0518 -0.0586 -0.0815
 7038TIP3    H242750   0.267   6.927   1.235  1.7180 -0.7720 -0.1395
 7039TIP3   OH242751   4.069   1.075   1.873 -0.0769 -0.2176  0.3017
 7039TIP3    H142752   4.058   1.067   1.968 -0.6398  0.0170  0.2574
 7039TIP3    H242753   4.020   1.154   1.850  0.4235 -0.0214 -0.1259
 7040TIP3   OH242754   5.140   2.610   0.494 -0.0646  0.0087  0.4916
 7040TIP3    H142755   5.058   2.651   0.468  0.1443  0.6119  0.7428
 7040TIP3    H242756   5.117   2.521   0.520 -0.5217 -0.0657 -0.1395
 7041TIP3   OH242757   1.353   2.620   7.522 -0.1495 -0.3980  0.3995
 7041TIP3    H142758   1.317   2.709   7.520  1.0307  0.0848 -0.4115
 7041TIP3    H242759   1.396   2.613   7.607  0.2310  0.0116  0.2444
 7042TIP3   OH242760   6.754   1.192   0.631 -0.1156 -0.1272  0.3291
 7042TIP3    H142761   6.782   1.267   0.684 -0.0329  0.2938 -0.3002
 7042TIP3    H242762   6.827   1.175   0.572 -0.1392 -0.7017  0.4580
 7043TIP3   OH242763   2.378   4.552   6.912 -0.1750  0.4653  0.1176
 7043TIP3    H142764   2.443   4.540   6.843 -0.7334  0.4493 -0.4204
 7043TIP3    H242765   2.400   4.637   6.951  1.1061 -0.2470  0.9900
 7044TIP3   OH242766   4.899   3.509   0.035  0.3203 -0.2367 -0.0009
 7044TIP3    H142767   4.817   3.559   0.038  0.0034 -0.7291 -0.4558
 7044TIP3    H242768   4.967   3.576   0.041 -0.1039  0.2628 -0.5853
 7045TIP3   OH242769   6.642   4.790   1.277 -0.3106 -0.3008 -0.4192
 7045TIP3    H142770   6.630   4.850   1.351 -1.4736  0.4722 -1.1996
 7045TIP3    H242771   6.710   4.730   1.306 -0.7380 -0.0223  1.2845
 7046TIP3   OH242772   6.694   5.293   8.776  0.0648 -0.1072  0.2062
 7046TIP3    H142773   6.752   5.225   8.808  1.0899  0.0173 -1.2890
 7046TIP3    H242774   6.748   5.371   8.771 -0.9959  0.7627  1.5155
 7047TIP3   OH242775   6.713   4.902   0.294 -0.2578  0.2838 -0.0039
 7047TIP3    H142776   6.712   4.997   0.306 -1.1844  0.2783  0.0806
 7047TIP3    H242777   6.633   4.872   0.338 -0.8611 -0.3466 -1.4597
 7048TIP3   OH242778   1.253   0.001   6.346  0.1783  0.0119  0.0592
 7048TIP3    H142779   1.213  -0.085   6.333  0.3567 -0.0125 -0.3225
 7048TIP3    H242780   1.325   0.005   6.283 -0.5630  0.9150 -0.7598
 7049TIP3   OH242781   0.065   3.609   8.647 -0.1212 -0.4232  0.3769
 7049TIP3    H142782   0.010   3.685   8.663  0.7728  0.3843 -0.2969
 7049TIP3    H242783   0.026   3.566   8.571 -1.1113 -1.1310  1.2589
 7050TIP3   OH242784   2.522   3.671   8.058  0.2529  0.2386  0.5532
 7050TIP3    H142785   2.513   3.750   8.005  1.1898 -0.3042 -0.4376
 7050TIP3    H242786   2.615   3.668   8.080  0.2015 -0.5450  0.6711
 7051TIP3   OH242787   5.013   2.484   0.860 -0.0063 -0.7866  0.5624
 7051TIP3    H142788   4.995   2.410   0.918  0.0861 -0.7012  0.6985
 7051TIP3    H242789   4.926   2.520   0.840 -0.0383 -0.8295  0.6276
 7052TIP3   OH242790   1.203   6.355   0.381 -0.2251  0.0263  0.5770
 7052TIP3    H142791   1.153   6.296   0.438  0.2722 -0.3346  0.6518
 7052TIP3    H242792   1.224   6.430   0.437 -1.2995  0.5244  0.3342
 7053TIP3   OH242793   3.930   4.180   1.398  0.7479  0.0682 -0.1396
 7053TIP3    H142794   3.926   4.217   1.310  0.9249 -1.6614 -0.9206
 7053TIP3    H242795   3.888   4.245   1.454  1.3781  1.5745 -1.3540
 7054TIP3   OH242796   5.444   5.475   1.972  0.1259 -0.1123 -0.4792
 7054TIP3    H142797   5.429   5.408   2.038  1.1354 -1.1855 -1.2844
 7054TIP3    H242798   5.534   5.505   1.989 -0.9866  2.6772  1.2369
 7055TIP3   OH242799   4.269   3.421   1.171 -0.0465 -0.6775 -0.3810
 7055TIP3    H142800   4.301   3.457   1.089  1.4044  0.0330  0.4690
 7055TIP3    H242801   4.263   3.496   1.230 -0.5379 -1.2637  0.3377
 7056TIP3   OH242802   3.473   6.839   0.429 -0.2922 -0.0114  1.2500
 7056TIP3    H142803   3.492   6.930   0.451 -1.5693  0.2298  1.4691
 7056TIP3    H242804   3.386   6.842   0.388 -0.0495 -1.0494  0.6181
 7057TIP3   OH242805   0.558   0.533   7.539 -0.0584 -0.0325  0.5824
 7057TIP3    H142806   0.542   0.441   7.561 -1.7042 -0.0895 -0.6787
 7057TIP3    H242807   0.568   0.534   7.444  0.0481  1.0836  0.5859
 7058TIP3   OH242808   6.407   6.021   7.737  0.3357  0.1361  0.5224
 7058TIP3    H142809   6.499   6.036   7.757  1.1097 -0.1253 -2.3903
 7058TIP3    H242810   6.382   6.093   7.679 -1.1134 -0.1132  0.7948
 7059TIP3   OH242811   0.419   3.622   6.756 -0.2325 -0.4531  0.1297
 7059TIP3    H142812   0.479   3.639   6.683  1.1223 -0.7099  1.1485
 7059TIP3    H242813   0.344   3.678   6.737  0.2840 -0.1533 -1.2147
 7060TIP3   OH242814   5.604   1.792   0.448  0.6482  0.2429  0.8250
 7060TIP3    H142815   5.677   1.826   0.396  0.1375  0.3769  0.1853
 7060TIP3    H242816   5.627   1.700   0.463  0.3476 -0.0617 -0.4824
 7061TIP3   OH242817   5.567   4.077   1.421 -0.6510 -0.4373  0.0101
 7061TIP3    H142818   5.588   3.995   1.376  0.9180  0.3316 -0.7367
 7061TIP3    H242819   5.490   4.057   1.473  0.1578 -2.6127  0.4680
 7062TIP3   OH242820   4.118   4.819   8.838  0.7786  0.6783  0.1245
 7062TIP3    H142821   4.152   4.875   8.908 -0.5198  1.4086  0.2017
 7062TIP3    H242822   4.044   4.773   8.878  0.8582  0.0820 -0.4005
 7063TIP3   OH242823   5.612   5.972   6.794 -0.2044 -0.2181 -0.3525
 7063TIP3    H142824   5.648   5.916   6.725  0.1748 -0.5364  0.0942
 7063TIP3    H242825   5.593   5.912   6.866  1.5162  0.3762  0.6540
 7064TIP3   OH242826   0.780   4.033   7.575  0.2049 -0.1119 -0.0426
 7064TIP3    H142827   0.763   4.094   7.503 -0.2551 -2.4001 -1.9985
 7064TIP3    H242828   0.694   4.010   7.609  0.4311  1.1573  1.4940
 7065TIP3   OH242829   2.260   6.295   1.446  0.1400  0.7908 -0.2642
 7065TIP3    H142830   2.198   6.253   1.506  0.2017 -0.4468 -1.0367
 7065TIP3    H242831   2.270   6.233   1.374  1.8488  1.2025 -0.4341
 7066TIP3   OH242832   2.284   4.809   0.832 -1.0403 -0.1328 -0.2504
 7066TIP3    H142833   2.348   4.865   0.875 -0.1817 -0.8967 -0.4980
 7066TIP3    H242834   2.281   4.839   0.741 -2.8447  1.4717  0.2575
 7067TIP3   OH242835   3.672   4.609   0.175  0.3015 -0.2074 -0.2635
 7067TIP3    H142836   3.609   4.547   0.139 -1.7423  1.8773 -0.4525
 7067TIP3    H242837   3.647   4.618   0.267  1.6161 -0.8323  0.1851
 7068TIP3   OH242838   5.080   1.913   7.222  0.3895 -0.0287  0.3321
 7068TIP3    H142839   4.995   1.874   7.239  0.7577 -0.1458  2.0739
 7068TIP3    H242840   5.135   1.884   7.294  1.5108  1.2236  0.0304
 7069TIP3   OH242841   3.718   4.190   7.358  0.0076  0.1247 -0.0904
 7069TIP3    H142842   3.673   4.115   7.397 -3.3046  1.1411 -1.5554
 7069TIP3    H242843   3.712   4.176   7.264  1.9656  0.8617 -0.3708
 7070TIP3   OH242844   1.777   0.076   8.732 -0.4943 -0.5105  0.1544
 7070TIP3    H142845   1.872   0.091   8.731 -0.6235  0.4875 -2.2295
 7070TIP3    H242846   1.768  -0.011   8.770  1.5325 -1.3552 -1.0998
 7071TIP3   OH242847   3.813   0.009   7.076 -0.6449  0.4766 -0.3365
 7071TIP3    H142848   3.899   0.013   7.118 -0.8635  3.1431  0.0303
 7071TIP3    H242849   3.832   0.023   6.983 -0.4836 -1.9466 -0.7373
 7072TIP3   OH242850   4.430   5.240   1.315 -0.4169 -0.2351  0.1105
 7072TIP3    H142851   4.457   5.199   1.398  1.6587 -1.6397 -1.1810
 7072TIP3    H242852   4.346   5.282   1.336 -0.2293 -0.9904  2.7730
 7073TIP3   OH242853   5.193   5.850   1.652 -0.3665 -0.0506  0.1784
 7073TIP3    H142854   5.189   5.760   1.621  1.2566  0.1833 -0.8387
 7073TIP3    H242855   5.263   5.891   1.601  0.3888  1.2070  2.0565
 7074TIP3   OH242856   2.622   4.655   0.807  0.2653 -0.0811 -0.5200
 7074TIP3    H142857   2.558   4.585   0.824  1.6085 -1.2537 -0.0645
 7074TIP3    H242858   2.617   4.710   0.885  0.3204 -0.5781 -0.1567
 7075TIP3   OH242859   2.186   0.720   8.238 -0.5167 -0.2874 -0.1240
 7075TIP3    H142860   2.273   0.702   8.201 -1.2082 -1.4883 -1.2833
 7075TIP3    H242861   2.142   0.773   8.171 -0.4497  0.9171  0.7673
 7076TIP3   OH242862   3.906   2.219   6.741 -0.0520  0.5676 -0.1913
 7076TIP3    H142863   3.839   2.157   6.713  0.4572  0.1229 -0.4456
 7076TIP3    H242864   3.969   2.221   6.669  0.0995  1.1436 -0.0503
 7077TIP3   OH242865   6.052   1.313   0.341  0.1763  1.1170 -0.3334
 7077TIP3    H142866   5.983   1.321   0.275  0.9575  0.8217 -1.2100
 7077TIP3    H242867   6.132   1.337   0.295  0.8432  0.1737  0.2955
 7078TIP3   OH242868   2.269   0.173   8.451  0.0820  0.2176 -0.0737
 7078TIP3    H142869   2.355   0.215   8.446 -0.9293  2.3275 -2.0906
 7078TIP3    H242870   2.232   0.185   8.364 -1.4230 -2.6391  0.0607
 7079TIP3   OH242871   5.142   2.811   6.902  0.3914 -0.4490 -0.3800
 7079TIP3    H142872   5.187   2.895   6.902 -0.2858 -0.0422  1.5264
 7079TIP3    H242873   5.088   2.813   6.823  0.2153  1.0214 -0.2445
 7080TIP3   OH242874   3.023   4.476   1.396  0.4393  0.4714 -0.3805
 7080TIP3    H142875   3.023   4.389   1.436  3.2273 -0.5521 -2.2897
 7080TIP3    H242876   2.971   4.466   1.316  0.5235  0.6362 -0.4573
 7081TIP3   OH242877   6.230   4.876   7.384  0.6601 -0.9269  0.4533
 7081TIP3    H142878   6.252   4.851   7.294 -0.0620 -1.3972  0.4018
 7081TIP3    H242879   6.196   4.965   7.377 -0.7664 -1.4737  0.0443
 7082TIP3   OH242880   6.031   2.124   6.054  0.8282 -0.2448  0.3338
 7082TIP3    H142881   5.990   2.160   6.133 -0.2496 -0.2528 -0.2014
 7082TIP3    H242882   6.069   2.040   6.082 -1.0332 -1.0864  0.5122
 7083TIP3   OH242883   3.814   6.310   7.880  0.1809 -0.6417 -0.3292
 7083TIP3    H142884   3.907   6.287   7.877 -0.1232 -1.8982 -0.7905
 7083TIP3    H242885   3.788   6.318   7.788 -0.0687  0.1548 -0.1970
 7084TIP3   OH242886   3.849   3.803   7.670  0.9936 -0.3603 -0.7896
 7084TIP3    H142887   3.919   3.749   7.708  0.9696  1.7329  2.7115
 7084TIP3    H242888   3.888   3.890   7.664 -0.3279  0.1741 -2.0811
 7085TIP3   OH242889   6.181   6.177   8.445  0.0831  0.6412  0.3148
 7085TIP3    H142890   6.248   6.223   8.496  0.5292  0.0695  0.2511
 7085TIP3    H242891   6.230   6.117   8.390 -0.5649 -1.1852  1.6297
 7086TIP3   OH242892   6.240   4.630   0.771  0.0570 -0.4017  0.0040
 7086TIP3    H142893   6.217   4.589   0.854  0.4319  1.1623  0.9162
 7086TIP3    H242894   6.214   4.722   0.782  0.3265 -0.1207 -1.5284
 7087TIP3   OH242895   6.126   1.057   0.390 -0.6027 -0.0719  0.1392
 7087TIP3    H142896   6.093   1.139   0.427  1.9107  1.0181  0.1566
 7087TIP3    H242897   6.203   1.036   0.444 -0.6279 -1.9029 -0.4998
 7088TIP3   OH242898   5.940   0.918   0.910  0.3660  0.8658 -0.1673
 7088TIP3    H142899   5.928   0.844   0.969 -1.6753 -0.2302 -1.8397
 7088TIP3    H242900   5.858   0.924   0.862  1.0982  3.1883 -1.2691
 7089TIP3   OH242901   5.016   5.944   1.346 -0.9767  0.1085 -1.1651
 7089TIP3    H142902   4.972   5.859   1.354  0.0535 -0.3442 -0.0160
 7089TIP3    H242903   5.089   5.927   1.286  0.7171 -0.4977  0.9536
 7090TIP3   OH242904   2.472   4.249   1.023 -0.2612  0.1794 -0.1774
 7090TIP3    H142905   2.386   4.252   1.065 -1.4384 -2.0383 -2.1524
 7090TIP3    H242906   2.485   4.337   0.987 -1.6827  0.5724  0.2068
 7091TIP3   OH242907   4.087   3.591   2.097  0.0789 -0.1104 -0.0497
 7091TIP3    H142908   4.152   3.541   2.147 -0.6269 -1.1632 -0.1471
 7091TIP3    H242909   4.093   3.556   2.009 -0.4815 -0.0826 -0.1025
 7092TIP3   OH242910   0.724   2.823   1.620 -0.0773  0.4553  0.0254
 7092TIP3    H142911   0.741   2.776   1.701  0.5618  1.9193  0.7880
 7092TIP3    H242912   0.757   2.766   1.551 -0.8431 -0.9228  0.7456
 7093TIP3   OH242913   3.965   0.606   1.089  0.5574 -0.1144 -1.0258
 7093TIP3    H142914   4.009   0.632   1.170  0.1604  0.8250 -1.1009
 7093TIP3    H242915   4.013   0.651   1.020  1.4187 -1.5687 -1.4208
 7094TIP3   OH242916   4.672   3.231   6.894 -0.2000  0.2291  0.4268
 7094TIP3    H142917   4.685   3.237   6.800  0.8219  0.6790  0.5846
 7094TIP3    H242918   4.734   3.164   6.923  1.7548  2.2477  1.1731
 7095TIP3   OH242919   4.193   3.535   7.734 -0.3265 -0.1962 -0.2337
 7095TIP3    H142920   4.105   3.554   7.764  0.3364  2.1366  0.5083
 7095TIP3    H242921   4.187   3.450   7.690 -3.1035  0.3174 -1.0110
 7096TIP3   OH242922   1.698   0.461   7.846 -0.3193 -0.5159 -1.0534
 7096TIP3    H142923   1.754   0.495   7.777  0.5190  0.5097  0.0968
 7096TIP3    H242924   1.669   0.538   7.895  0.9385 -1.3096  1.1091
 7097TIP3   OH242925   1.626   6.132   7.775  0.1675 -0.5212  0.5472
 7097TIP3    H142926   1.686   6.207   7.774 -0.2478 -0.1169  2.3065
 7097TIP3    H242927   1.673   6.064   7.823  0.7610 -1.6445 -1.5093
 7098TIP3   OH242928   5.278   1.971   6.948 -0.6206  0.5481 -0.6188
 7098TIP3    H142929   5.313   1.977   6.859  1.2701 -0.5992 -0.0236
 7098TIP3    H242930   5.221   1.894   6.947  1.6847 -1.2896 -0.2349
 7099TIP3   OH242931   2.375   1.654   0.913  0.7131 -0.1142  1.0715
 7099TIP3    H142932   2.305   1.621   0.856 -0.9325  1.6887  1.9432
 7099TIP3    H242933   2.456   1.637   0.864 -0.2380 -2.6645  0.2265
 7100TIP3   OH242934   5.516   5.010   6.835 -0.6294 -0.2833  0.1026
 7100TIP3    H142935   5.516   5.035   6.742 -0.5537 -0.4429  0.0594
 7100TIP3    H242936   5.454   5.070   6.876  0.2412  0.5979  0.1616
 7101TIP3   OH242937   1.143   6.000   0.894  0.3044 -0.1782  0.5035
 7101TIP3    H142938   1.134   6.084   0.847 -0.6635  0.5295  1.8878
 7101TIP3    H242939   1.237   5.989   0.905  0.5079  0.1391 -0.6938
 7102TIP3   OH242940   0.742   3.636   6.273 -0.4423  0.1990 -0.0118
 7102TIP3    H142941   0.688   3.716   6.270 -0.9274 -0.1057  0.5093
 7102TIP3    H242942   0.805   3.652   6.342 -0.3684  0.2393 -0.0886
 7103TIP3   OH242943   2.737   0.964   0.924  0.4453 -0.4884  0.5010
 7103TIP3    H142944   2.778   1.048   0.943 -1.3477  0.1870  1.6627
 7103TIP3    H242945   2.809   0.901   0.926  1.6713  0.8706  0.5937
 7104TIP3   OH242946   0.032   1.463   1.840  0.1402 -0.4556  0.3922
 7104TIP3    H142947  -0.039   1.399   1.849  0.2265 -1.3166 -3.3887
 7104TIP3    H242948   0.111   1.415   1.869  0.1922 -2.2181 -2.2860
 7105TIP3   OH242949   6.540   3.956   6.777  0.3217  0.7657  0.4752
 7105TIP3    H142950   6.558   3.957   6.682  2.1801 -0.1077  0.7680
 7105TIP3    H242951   6.481   4.031   6.790 -0.3109  0.6704 -1.4168
 7106TIP3   OH242952   2.057   5.360   7.793  0.0799  0.6015  0.2522
 7106TIP3    H142953   2.039   5.436   7.737 -1.2068 -0.6085 -1.0825
 7106TIP3    H242954   1.978   5.350   7.846  0.7268  0.8839  1.2995
 7107TIP3   OH242955   4.843   6.316   0.870  0.1973 -0.4138 -0.0351
 7107TIP3    H142956   4.870   6.394   0.919  2.2893 -0.9034 -0.2976
 7107TIP3    H242957   4.753   6.300   0.898  0.2135  1.2396  1.1282
 7108TIP3   OH242958   2.803   2.795   0.429  0.0258 -0.0557 -0.8881
 7108TIP3    H142959   2.757   2.872   0.461 -0.4287 -0.8789  0.5267
 7108TIP3    H242960   2.733   2.740   0.393  0.4429  0.5294 -2.7078
 7109TIP3   OH242961   0.346   3.787   0.079 -0.0802 -0.2256 -1.0392
 7109TIP3    H142962   0.396   3.848   0.134  0.4349 -1.0312 -0.5876
 7109TIP3    H242963   0.395   3.783  -0.003  0.0647 -0.2733 -0.9519
 7110TIP3   OH242964   2.041   1.807   0.720  0.0577 -0.2014 -0.3203
 7110TIP3    H142965   1.963   1.752   0.728 -0.2753  0.4640  1.6099
 7110TIP3    H242966   2.007   1.896   0.714  0.6549 -0.0001 -0.8668
 7111TIP3   OH242967   5.818   6.262   1.242 -0.0385 -0.2419  0.4090
 7111TIP3    H142968   5.809   6.346   1.288  1.7078  0.4841 -0.4779
 7111TIP3    H242969   5.861   6.285   1.159  0.7857 -2.0659  0.2899
 7112TIP3   OH242970   6.787   6.462   6.295  0.4718 -0.1518  0.7498
 7112TIP3    H142971   6.804   6.553   6.272 -2.1835  0.5473  1.2332
 7112TIP3    H242972   6.758   6.421   6.213 -2.9070  0.7388  1.3625
 7113TIP3   OH242973   1.083   5.257   0.321 -0.5175 -0.1577  0.3604
 7113TIP3    H142974   1.056   5.349   0.323  2.1236  0.7289 -0.5853
 7113TIP3    H242975   1.144   5.248   0.394 -2.0983 -1.7155  1.5842
 7114TIP3   OH242976   5.418   6.129   1.807  0.1247  0.0877  0.2229
 7114TIP3    H142977   5.389   6.078   1.882 -0.6684  1.7657  1.0919
 7114TIP3    H242978   5.479   6.193   1.843  2.6314 -1.3369 -1.1150
 7115TIP3   OH242979   1.707   0.192   6.746  0.1294 -0.2011  0.1005
 7115TIP3    H142980   1.692   0.259   6.680 -1.8099 -1.0596 -0.3839
 7115TIP3    H242981   1.782   0.142   6.714 -1.4259 -1.2899 -2.0988
 7116TIP3   OH242982   0.564   1.242   8.618 -0.8948  0.4337 -0.1426
 7116TIP3    H142983   0.625   1.293   8.670  0.6534 -0.2346 -1.1929
 7116TIP3    H242984   0.494   1.303   8.595 -0.1550  1.4928  0.3410
 7117TIP3   OH242985   5.858   0.716   1.726 -0.1955  0.1113 -0.4405
 7117TIP3    H142986   5.878   0.638   1.778  0.7923  0.2604 -0.5825
 7117TIP3    H242987   5.764   0.730   1.740  0.1300  0.4651  1.7158
 7118TIP3   OH242988   3.896   3.580   1.415  0.0469 -0.2996 -0.2107
 7118TIP3    H142989   3.950   3.598   1.491  2.0044 -0.5036 -1.4886
 7118TIP3    H242990   3.848   3.500   1.438  1.4233 -0.9744  0.4050
 7119TIP3   OH242991   2.622   4.906   0.101 -0.5926 -0.0548 -0.5478
 7119TIP3    H142992   2.668   4.915   0.017 -2.0446  0.5376 -1.3103
 7119TIP3    H242993   2.676   4.954   0.163  0.6871 -0.7885 -1.0580
 7120TIP3   OH242994   5.086   2.201   7.890  0.3443  0.0175  0.0695
 7120TIP3    H142995   5.005   2.150   7.885  0.0561  0.5821 -1.5076
 7120TIP3    H242996   5.112   2.213   7.799  2.8605 -1.1235  0.5741
 7121TIP3   OH242997   4.468   4.204   8.062  0.3743 -0.4029 -0.0697
 7121TIP3    H142998   4.416   4.150   8.002 -1.6196 -0.2987  1.4560
 7121TIP3    H242999   4.496   4.279   8.008  1.7585 -2.0394 -1.7672
 7122TIP3   OH243000   3.667   5.986   8.822  0.7192  0.4936 -0.2788
 7122TIP3    H143001   3.665   5.935   8.903 -0.7407  0.4872 -0.2890
 7122TIP3    H243002   3.613   5.935   8.761 -0.9651  2.1192 -0.2202
 7123TIP3   OH243003   4.649   5.267   7.473 -0.5525 -0.1133  0.4740
 7123TIP3    H143004   4.652   5.175   7.447 -1.7722  0.4294 -1.7628
 7123TIP3    H243005   4.707   5.271   7.550  0.9345 -2.3996 -0.3996
 7124TIP3   OH243006   5.179   5.238   0.633  0.0315  0.1162  0.1631
 7124TIP3    H143007   5.125   5.188   0.695 -0.2002  0.4452  0.2282
 7124TIP3    H243008   5.116   5.275   0.571  0.3177 -0.8210 -0.7210
 7125TIP3   OH243009   0.011   6.091   6.221  0.2899 -0.0779 -0.1090
 7125TIP3    H143010   0.081   6.063   6.162  0.2388  1.2514 -0.8547
 7125TIP3    H243011  -0.025   6.169   6.178  0.3214  0.9993  1.7332
 7126TIP3   OH243012   0.222   2.256   7.241 -0.2126  0.1863 -0.6543
 7126TIP3    H143013   0.140   2.206   7.240  0.6312 -1.5072 -4.1783
 7126TIP3    H243014   0.290   2.189   7.256  0.6259  1.4172  1.3323
 7127TIP3   OH243015   3.975   3.849   2.224 -0.0571  0.0873 -0.5126
 7127TIP3    H143016   3.952   3.760   2.251 -1.5655  0.3186 -0.9503
 7127TIP3    H243017   4.053   3.869   2.276  0.2549 -1.4367 -0.3184
 7128TIP3   OH243018   4.720   4.512   7.179 -0.2698 -0.0072  0.3286
 7128TIP3    H143019   4.808   4.494   7.146 -0.7882  0.5805 -1.4901
 7128TIP3    H243020   4.662   4.463   7.121 -1.1892  0.4619  0.8388
 7129TIP3   OH243021   5.852   2.895   1.186 -0.2363 -0.8028  0.2452
 7129TIP3    H143022   5.863   2.804   1.157 -0.0298 -0.6061 -0.3096
 7129TIP3    H243023   5.775   2.893   1.243  0.3871 -1.5191  1.0929
 7130TIP3   OH243024   2.591   5.518   2.065 -0.4941 -0.2422  0.3807
 7130TIP3    H143025   2.595   5.458   1.990 -0.6952 -1.3477  1.2280
 7130TIP3    H243026   2.667   5.495   2.118 -0.6810  0.1112  0.8076
 7131TIP3   OH243027   4.060   5.321   2.022  0.5075  0.1946 -0.2067
 7131TIP3    H143028   3.973   5.353   2.001 -0.4619 -2.2124 -0.1062
 7131TIP3    H243029   4.108   5.399   2.049 -2.0686  1.3834  1.2687
 7132TIP3   OH243030   4.341   6.575   8.171  0.1007  0.0521  0.3648
 7132TIP3    H143031   4.375   6.504   8.117  3.9149  1.4608  0.6002
 7132TIP3    H243032   4.339   6.539   8.260 -0.0126 -0.3569  0.1980
 7133TIP3   OH243033   3.043   5.007   0.272 -0.7275  0.1096 -0.1738
 7133TIP3    H143034   2.962   5.040   0.233 -1.2312  0.5145  1.1588
 7133TIP3    H243035   3.052   4.918   0.237 -0.7799  0.6803 -1.7142
 7134TIP3   OH243036   4.644   0.855   7.712 -0.0064 -0.2108  0.5947
 7134TIP3    H143037   4.656   0.761   7.699 -0.4287 -0.5436  2.3478
 7134TIP3    H243038   4.550   0.866   7.726  0.1359  0.3708  1.1361
 7135TIP3   OH243039   4.947   5.643   1.132  0.2930  0.1886  0.0117
 7135TIP3    H143040   4.910   5.692   1.059 -0.7012 -0.0058  0.3732
 7135TIP3    H243041   5.041   5.636   1.111 -0.1489 -0.9361 -1.8754
 7136TIP3   OH243042   3.178   0.759   7.726  0.5433 -0.0416  0.0859
 7136TIP3    H143043   3.118   0.771   7.652  1.2149 -0.2121 -0.5018
 7136TIP3    H243044   3.163   0.668   7.753 -1.2706  0.6389  1.6000
 7137TIP3   OH243045   2.081   2.925   0.201 -0.7648 -0.3701 -0.3910
 7137TIP3    H143046   2.072   2.892   0.291 -2.6283 -0.3714 -0.5501
 7137TIP3    H243047   2.009   2.987   0.191 -2.8303 -2.9710 -3.0027
 7138TIP3   OH243048   1.918   1.099   0.802 -0.1863  0.7198 -0.3160
 7138TIP3    H143049   1.855   1.077   0.734 -1.8768 -1.4499  1.8245
 7138TIP3    H243050   1.977   1.024   0.806 -1.7647 -0.5286  2.3282
 7139TIP3   OH243051   0.813   0.800   6.865  0.1780  0.1726 -0.2471
 7139TIP3    H143052   0.769   0.849   6.935  0.8678 -0.8131  0.9288
 7139TIP3    H243053   0.802   0.854   6.787  1.0653  2.2819  0.9991
 7140TIP3   OH243054   1.694   3.134   7.842 -0.3686  0.1945  0.2625
 7140TIP3    H143055   1.619   3.130   7.902 -0.5756  0.4125  0.0186
 7140TIP3    H243056   1.748   3.058   7.867 -1.3931 -0.8300 -0.5091
 7141TIP3   OH243057   0.505   6.507   7.307 -0.4145 -0.0909  0.3606
 7141TIP3    H143058   0.426   6.509   7.253  0.3254  0.1330 -0.7555
 7141TIP3    H243059   0.562   6.573   7.268 -0.8018  2.0133  3.0102
 7142TIP3   OH243060   2.322   2.208   0.118 -0.3823  0.1142  0.6243
 7142TIP3    H143061   2.331   2.260   0.198 -1.1368 -1.1031  1.5472
 7142TIP3    H243062   2.228   2.201   0.104 -0.3054 -0.9874  0.5371
 7143TIP3   OH243063   1.551   6.108   8.606 -0.3243 -0.4834 -0.6203
 7143TIP3    H143064   1.499   6.088   8.528  0.6605 -0.4553 -1.3198
 7143TIP3    H243065   1.528   6.041   8.670 -2.2392  0.3499 -0.3878
 7144TIP3   OH243066   5.580   4.155   2.363 -0.4998  0.4685 -0.2703
 7144TIP3    H143067   5.665   4.190   2.337 -0.5040 -0.2573 -1.3429
 7144TIP3    H243068   5.600   4.081   2.420 -0.4788  1.5721  1.2363
 7145TIP3   OH243069   0.052   0.273   8.782  0.1415 -0.2916  0.1235
 7145TIP3    H143070   0.117   0.237   8.843 -1.6340 -1.3488  1.4603
 7145TIP3    H243071  -0.017   0.308   8.838 -0.2070  1.3871 -1.2622
 7146TIP3   OH243072   3.554   5.417   1.782 -0.5373  0.0355 -0.0699
 7146TIP3    H143073   3.535   5.326   1.760  0.5401  0.1798 -1.8400
 7146TIP3    H243074   3.500   5.435   1.859 -0.5015 -2.1866  0.5488
 7147TIP3   OH243075   1.566   4.074   2.432  0.2779  0.5190  0.2174
 7147TIP3    H143076   1.549   3.980   2.430  0.4128  0.4994 -0.0714
 7147TIP3    H243077   1.518   4.109   2.357 -0.5443  0.8158  0.8728
 7148TIP3   OH243078   5.010   5.730   7.903  0.0924  0.0213 -0.0885
 7148TIP3    H143079   4.940   5.687   7.855 -0.1337  1.2653 -0.9066
 7148TIP3    H243080   5.007   5.821   7.875 -0.1409  0.8514  2.3973
 7149TIP3   OH243081   5.676   0.770   1.306 -0.8131 -0.2610  0.0422
 7149TIP3    H143082   5.646   0.857   1.330  1.1300  0.2645  0.7503
 7149TIP3    H243083   5.705   0.730   1.388  0.3742 -0.7068 -0.5615
 7150TIP3   OH243084   5.722   6.256   7.102 -0.2210  0.1140  0.4259
 7150TIP3    H143085   5.769   6.312   7.042  0.8066  0.8721  1.8719
 7150TIP3    H243086   5.790   6.205   7.146 -1.0281 -1.2366  0.1670
 7151TIP3   OH243087   3.204   2.726   8.052 -0.3940  0.2106 -0.6696
 7151TIP3    H143088   3.173   2.665   8.120  2.3070 -0.5674 -0.0136
 7151TIP3    H243089   3.124   2.769   8.020 -2.2920 -2.6340 -0.1675
 7152TIP3   OH243090   4.439   0.640   6.078 -0.5199  0.2984  0.2969
 7152TIP3    H143091   4.411   0.558   6.038  0.4857  0.5548 -1.0071
 7152TIP3    H243092   4.507   0.614   6.141  1.5905  0.2436 -1.8439
 7153TIP3   OH243093   2.816   2.757   7.176 -0.4289 -0.5496 -0.3664
 7153TIP3    H143094   2.767   2.836   7.154  1.5016  0.0561 -2.9454
 7153TIP3    H243095   2.856   2.776   7.261 -0.7586  0.8590 -0.5088
 7154TIP3   OH243096   1.632   2.614   1.406 -0.3307 -0.2046  0.1825
 7154TIP3    H143097   1.652   2.675   1.335 -1.8407 -0.4655 -0.4879
 7154TIP3    H243098   1.633   2.668   1.485 -0.5633  0.4643 -0.2708
 7155TIP3   OH243099   5.583   4.616   8.327 -0.5856  0.0047 -0.0586
 7155TIP3    H143100   5.597   4.537   8.275 -0.2998 -0.7805  1.1608
 7155TIP3    H243101   5.662   4.622   8.382 -1.7938 -0.4287  1.8167
 7156TIP3   OH243102   6.311   6.485   8.309 -0.4634  0.5492  0.0318
 7156TIP3    H143103   6.323   6.541   8.232 -1.1116 -1.2940 -1.4901
 7156TIP3    H243104   6.382   6.420   8.302 -0.1803  0.7063  1.3292
 7157TIP3   OH243105   6.684   2.493   7.698 -0.2166 -0.3177 -0.0347
 7157TIP3    H143106   6.627   2.551   7.748  0.3868  0.1287  0.1317
 7157TIP3    H243107   6.696   2.538   7.614  0.4769 -0.0568  0.1960
 7158TIP3   OH243108   2.382   5.143   0.425  0.2488  0.0864  0.2568
 7158TIP3    H143109   2.348   5.075   0.368 -0.4443 -0.8692  1.7500
 7158TIP3    H243110   2.323   5.217   0.412  0.1454 -0.0922 -0.3093
 7159TIP3   OH243111   4.521   1.644   1.001 -0.7261  0.3077  0.2442
 7159TIP3    H143112   4.563   1.716   1.049  1.5311 -1.5258  1.2081
 7159TIP3    H243113   4.510   1.679   0.912  0.2136  1.8737  0.6938
 7160TIP3   OH243114   3.709   4.673   8.600  0.1803  0.0930 -0.3832
 7160TIP3    H143115   3.749   4.627   8.674  1.3296  2.1148  0.3241
 7160TIP3    H243116   3.686   4.603   8.538  0.7140 -1.5110  1.1309
 7161TIP3   OH243117   3.480   0.821   8.118 -0.3867  0.0841  0.2648
 7161TIP3    H143118   3.388   0.806   8.093 -0.5160  3.0701 -1.5161
 7161TIP3    H243119   3.530   0.768   8.056 -0.8632 -0.3853  0.2694
 7162TIP3   OH243120   6.422   3.729   0.477  0.6339 -0.1253 -0.0531
 7162TIP3    H143121   6.406   3.705   0.385  1.3390 -1.3112  0.1172
 7162TIP3    H243122   6.428   3.645   0.523 -4.3915  0.2958  1.9843
 7163TIP3   OH243123   0.129   0.042   8.424  0.3486  0.6202  0.0890
 7163TIP3    H143124   0.208   0.010   8.381 -0.2475  0.5600 -0.9970
 7163TIP3    H243125   0.059  -0.017   8.395 -0.1770  0.9209  0.6976
 7164TIP3   OH243126   1.209   4.098   0.820  0.7151 -0.8221 -0.2733
 7164TIP3    H143127   1.213   4.074   0.913  0.4115 -2.0288 -0.5482
 7164TIP3    H243128   1.299   4.121   0.798  0.4666  1.3682  0.7629
 7165TIP3   OH243129   5.034   3.081   1.672  0.0496  0.1244 -0.3693
 7165TIP3    H143130   5.111   3.100   1.619 -0.6959  0.8354 -1.2469
 7165TIP3    H243131   5.015   3.164   1.717  1.0853 -0.6574  1.6151
 7166TIP3   OH243132   0.497   5.594   7.608  0.4433  0.7217 -0.2355
 7166TIP3    H143133   0.536   5.512   7.640  1.0882  1.2252  0.2877
 7166TIP3    H243134   0.522   5.597   7.516 -1.1990 -0.6040 -0.7811
 7167TIP3   OH243135   4.943   0.418   8.285  0.2536 -0.0064  0.2617
 7167TIP3    H143136   4.997   0.418   8.364 -0.8737 -0.5698  1.0501
 7167TIP3    H243137   4.901   0.332   8.284 -0.1603  0.1892 -0.6751
 7168TIP3   OH243138   0.690   5.953   7.746 -0.7035 -0.3392  0.0663
 7168TIP3    H143139   0.760   5.929   7.807 -0.2670 -0.4603 -0.4766
 7168TIP3    H243140   0.648   5.870   7.724  1.6084 -0.9068 -2.7987
 7169TIP3   OH243141   6.719   2.724   7.514  0.2999 -0.7241  0.0324
 7169TIP3    H143142   6.690   2.812   7.539  0.5562 -0.8434  0.7766
 7169TIP3    H243143   6.691   2.714   7.423  1.2721  0.5766 -0.4361
 7170TIP3   OH243144   0.895   0.906   7.458  0.0794  0.0058 -0.1022
 7170TIP3    H143145   0.957   0.931   7.389 -1.3373 -1.4810 -2.0208
 7170TIP3    H243146   0.907   0.811   7.467 -0.2017  0.0835  1.2802
 7171TIP3   OH243147   3.752   3.768   6.783 -0.4102  0.5042  0.3470
 7171TIP3    H143148   3.815   3.731   6.721 -1.2768  2.1726 -1.6272
 7171TIP3    H243149   3.791   3.851   6.811 -1.0138  0.7850  0.3647
 7172TIP3   OH243150   4.365   6.211   6.467 -0.0890  0.5495 -0.9103
 7172TIP3    H143151   4.314   6.208   6.547  0.8259 -0.0502 -0.3268
 7172TIP3    H243152   4.453   6.184   6.493  0.2655  0.4853 -2.0840
 7173TIP3   OH243153   0.396   6.109   7.642  0.1634 -0.6099 -0.4617
 7173TIP3    H143154   0.393   6.180   7.578 -1.1745 -2.1582 -2.2456
 7173TIP3    H243155   0.458   6.046   7.605  0.6976 -0.7640  0.6710
 7174TIP3   OH243156   0.987   3.665   6.942 -0.2940  0.1458  0.3262
 7174TIP3    H143157   0.986   3.760   6.957  2.5731  0.6495 -1.8606
 7174TIP3    H243158   1.048   3.631   7.008 -0.3741  0.0011  0.3261
 7175TIP3   OH243159   3.304   1.293   0.918  0.2000 -0.2570  0.5586
 7175TIP3    H143160   3.341   1.377   0.890 -1.8554  1.0545  1.5163
 7175TIP3    H243161   3.346   1.275   1.002 -1.3570  1.3546  1.7697
 7176TIP3   OH243162   2.433   0.556   0.362 -0.3506 -0.2581 -0.3439
 7176TIP3    H143163   2.429   0.585   0.271 -2.0839  0.8143  0.0217
 7176TIP3    H243164   2.495   0.483   0.361 -0.8658 -0.7543 -2.5243
 7177TIP3   OH243165   1.095   2.344   6.542  0.5392 -0.3385  0.5281
 7177TIP3    H143166   1.065   2.433   6.559  0.9443 -0.4361  1.9082
 7177TIP3    H243167   1.068   2.325   6.453  2.6680  2.1009 -0.7723
 7178TIP3   OH243168   4.148   3.216   1.484  0.0396 -0.2893  0.0893
 7178TIP3    H143169   4.206   3.285   1.517  0.6066 -0.1244 -1.1851
 7178TIP3    H243170   4.123   3.166   1.562  0.6427  0.5825  0.8645
 7179TIP3   OH243171   6.760   5.753   1.012 -0.2260  1.0068 -0.5219
 7179TIP3    H143172   6.803   5.805   1.079 -0.6745  0.4299  0.2302
 7179TIP3    H243173   6.672   5.790   1.005  0.2717  2.0516 -1.9103
 7180TIP3   OH243174   6.569   2.242   7.439  0.1758 -0.5762 -0.6902
 7180TIP3    H143175   6.585   2.233   7.533  0.2785  0.6440 -0.5685
 7180TIP3    H243176   6.645   2.290   7.407 -1.8582  3.0876 -0.5590
 7181TIP3   OH243177   2.422   6.371   8.433  0.4985 -0.3511  0.0216
 7181TIP3    H143178   2.446   6.333   8.348  0.0265 -0.8057  0.0831
 7181TIP3    H243179   2.328   6.389   8.425  0.1576 -1.6012  0.8821
 7182TIP3   OH243180   1.389   4.507   0.809  0.6362  0.2075  0.8187
 7182TIP3    H143181   1.359   4.422   0.840  1.4492 -0.4690 -0.1615
 7182TIP3    H243182   1.314   4.565   0.820 -0.9288 -1.2953 -1.0845
 7183LIG      O43183   1.305   4.072   6.122  0.1705  0.2169 -0.0193
 7183LIG     C143184   1.313   4.162   6.009 -1.1343  0.6707  0.0826
 7183LIG     C243185   1.279   4.074   5.883  0.9410  0.2316  0.4046
 7183LIG     C343186   1.220   4.282   6.023  0.1781  0.6302  0.3297
 7183LIG     H143187   1.418   4.199   6.001 -0.8249 -0.3227 -0.5764
 7183LIG     H243188   1.361   4.000   5.870  0.3375  0.0099 -3.0144
 7183LIG     H343189   1.278   4.139   5.793  0.7402  0.2911  0.4485
 7183LIG     H443190   1.183   4.017   5.883  1.6537 -1.0281 -1.0691
 7183LIG     H543191   1.258   4.354   6.099 -0.1312 -0.2927  1.4024
 7183LIG     H643192   1.124   4.233   6.052  0.0899  1.1524  0.9621
 7183LIG     H743193   1.201   4.341   5.931 -1.2857  0.4676  0.4978
 7183LIG     H843194   1.214   4.040   6.116  0.1481  0.2962 -0.1171
   6.86659   6.86659   8.84270
