Title
43194
    1CHL1    C3    1   1.788   2.441   5.901  0.2839  0.9552 -0.8371
    1CHL1    H3    2   1.700   2.502   5.930  0.1084  0.7414 -0.9195
    1CHL1    O3    3   1.845   2.377   6.016 -0.3064 -0.3962  0.4473
    1CHL1   H3'    4   1.939   2.397   6.013 -0.0554 -0.7474  3.3257
    1CHL1    C4    5   1.747   2.343   5.791  0.0788 -0.1489  0.2118
    1CHL1   H4A    6   1.834   2.279   5.765  0.8076  1.0893 -0.5087
    1CHL1   H4B    7   1.662   2.279   5.822  1.8654 -3.6771 -1.5920
    1CHL1    C5    8   1.722   2.421   5.664  0.0219 -0.2739  0.2902
    1CHL1    C6    9   1.605   2.402   5.603  0.1077  0.6005 -0.1672
    1CHL1    H6   10   1.525   2.359   5.666 -0.6023  1.9887 -0.0993
    1CHL1    C7   11   1.564   2.448   5.469  0.4638  0.4223 -0.6956
    1CHL1   H7A   12   1.523   2.366   5.407  0.5512  0.7976 -1.2576
    1CHL1   H7B   13   1.482   2.522   5.478  1.7999  1.8208  0.7264
    1CHL1    C8   14   1.683   2.505   5.387  0.2986  0.5825 -0.1000
    1CHL1    H8   15   1.742   2.414   5.360 -0.9628 -0.2359 -0.2084
    1CHL1   C14   16   1.627   2.584   5.273 -0.5993 -0.2490  0.0073
    1CHL1   H14   17   1.574   2.673   5.314  0.7221  0.8124 -0.5420
    1CHL1   C15   18   1.529   2.520   5.174  0.1190  0.8040 -0.0281
    1CHL1  H15A   19   1.568   2.427   5.129 -1.4890  1.6168 -3.4583
    1CHL1  H15B   20   1.428   2.507   5.217  0.1937 -0.2910 -0.1546
    1CHL1   C16   21   1.517   2.629   5.069  0.3194  0.7196 -0.0504
    1CHL1  H16A   22   1.513   2.577   4.971 -0.4070  0.2890  0.1989
    1CHL1  H16B   23   1.421   2.683   5.085  1.3476  1.8350  3.1128
    1CHL1   C17   24   1.636   2.727   5.082 -0.2587 -0.2523 -0.5297
    1CHL1   H17   25   1.607   2.820   5.137 -2.7796 -0.2709 -1.6651
    1CHL1   C13   26   1.732   2.655   5.189  0.7140 -0.0035  0.4170
    1CHL1   C18   27   1.824   2.558   5.111  0.3166 -0.0540 -0.2817
    1CHL1  H18A   28   1.849   2.469   5.172 -0.7977 -0.3770 -0.2761
    1CHL1  H18B   29   1.774   2.515   5.022  0.5365 -0.6011 -0.1439
    1CHL1  H18C   30   1.916   2.605   5.068  0.0891  1.4716  0.8148
    1CHL1   C12   31   1.808   2.743   5.283 -0.6760 -0.1027  0.3664
    1CHL1  H12A   32   1.879   2.809   5.228  0.5017 -2.3504 -0.9395
    1CHL1  H12B   33   1.732   2.803   5.338 -0.0830 -1.2280  2.5188
    1CHL1   C11   34   1.876   2.667   5.394 -0.3275 -0.1543 -0.3440
    1CHL1  H11A   35   1.943   2.593   5.344  1.4734  0.7832  0.5836
    1CHL1  H11B   36   1.948   2.731   5.449 -0.7305 -0.7267  0.8888
    1CHL1    C9   37   1.772   2.590   5.474 -0.6872 -0.2493 -0.0349
    1CHL1    H9   38   1.701   2.660   5.524 -2.0661 -2.1068  0.7489
    1CHL1   C10   39   1.832   2.507   5.599  0.1089  0.2913 -0.1739
    1CHL1   C19   40   1.942   2.412   5.557 -0.3322  0.0141 -0.3494
    1CHL1  H19A   41   2.030   2.473   5.527 -1.4116  0.7930 -2.1103
    1CHL1  H19B   42   1.986   2.356   5.642  2.2974  0.9233 -1.0279
    1CHL1  H19C   43   1.909   2.348   5.472 -1.2046 -0.1106  0.0743
    1CHL1    C1   44   1.873   2.600   5.719 -0.0692 -0.1362  0.3121
    1CHL1   H1A   45   1.957   2.668   5.691 -0.2829 -0.3362 -0.8610
    1CHL1   H1B   46   1.790   2.672   5.738 -0.5507 -0.1297 -1.5897
    1CHL1    C2   47   1.900   2.533   5.850  0.3675 -0.3157 -1.1472
    1CHL1   H2A   48   1.932   2.605   5.929 -0.7174  0.2730 -1.2328
    1CHL1   H2B   49   1.988   2.466   5.840  0.7729  0.0178 -0.0205
    1CHL1   C20   50   1.703   2.771   4.952 -0.2320  0.2553  0.5072
    1CHL1   H20   51   1.756   2.690   4.897 -0.8825  1.1659 -1.5776
    1CHL1   C21   52   1.816   2.876   4.981  0.3227 -0.3273  0.6024
    1CHL1  H21A   53   1.768   2.964   5.028  2.9520  2.6797 -1.8700
    1CHL1  H21B   54   1.867   2.919   4.892  2.9334 -2.7119  0.7908
    1CHL1  H21C   55   1.899   2.829   5.038 -0.3684 -1.6954  0.5308
    1CHL1   C22   56   1.600   2.828   4.850  0.3456 -0.3977  0.5214
    1CHL1  H22A   57   1.529   2.743   4.836 -1.1675  0.8078  0.5703
    1CHL1  H22B   58   1.538   2.913   4.884 -0.8064 -0.7198 -0.6548
    1CHL1   C23   59   1.655   2.860   4.710 -0.3615  0.3374 -0.2152
    1CHL1  H23A   60   1.707   2.958   4.718  1.1629 -0.5659  1.7955
    1CHL1  H23B   61   1.739   2.789   4.691 -0.5304 -0.7192  2.6015
    1CHL1   C24   62   1.555   2.878   4.593  0.2809  0.4715  0.4975
    1CHL1  H24A   63   1.477   2.799   4.589  1.1206 -0.3367 -1.4173
    1CHL1  H24B   64   1.490   2.966   4.612 -0.5556 -0.0570  0.1395
    1CHL1   C25   65   1.619   2.892   4.452 -0.2247 -0.9243  0.5668
    1CHL1   H25   66   1.712   2.832   4.452 -1.3914 -2.7993  0.6502
    1CHL1   C26   67   1.532   2.840   4.342  0.0806 -0.0657  0.2248
    1CHL1  H26A   68   1.427   2.878   4.344 -1.0856 -2.5318 -3.6506
    1CHL1  H26B   69   1.572   2.864   4.242 -1.0411  0.2994 -0.1476
    1CHL1  H26C   70   1.530   2.729   4.351  3.4984 -0.2574 -0.2966
    1CHL1   C27   71   1.646   3.045   4.427 -0.2762 -0.0026 -0.1703
    1CHL1  H27A   72   1.546   3.094   4.427  0.8546  2.4846  1.9503
    1CHL1  H27B   73   1.709   3.084   4.509 -0.3023 -0.2600 -0.0254
    1CHL1  H27C   74   1.703   3.058   4.333  0.2093  0.2142  0.1557
    2CHL1    C3   75   2.550   2.182   5.701  0.4125 -0.1922  1.3089
    2CHL1    H3   76   2.465   2.238   5.655  0.8044 -1.0335 -0.5435
    2CHL1    O3   77   2.527   2.189   5.844 -0.0092 -0.2407  0.2309
    2CHL1   H3'   78   2.603   2.141   5.878 -0.2197  0.4039  1.6729
    2CHL1    C4   79   2.549   2.034   5.651  0.2066  0.4984 -0.2123
    2CHL1   H4A   80   2.625   1.971   5.700  2.1309  1.4745 -1.7798
    2CHL1   H4B   81   2.449   1.995   5.681 -0.0952  1.2183 -0.2645
    2CHL1    C5   82   2.575   2.023   5.502  0.5377 -0.2203  0.1894
    2CHL1    C6   83   2.486   1.971   5.410  0.3712  0.1005 -0.0149
    2CHL1    H6   84   2.394   1.931   5.454 -0.5252 -0.8612 -2.6052
    2CHL1    C7   85   2.513   1.950   5.266  0.0659  0.6057  1.1716
    2CHL1   H7A   86   2.511   1.845   5.228  1.5500  0.6460  0.9230
    2CHL1   H7B   87   2.437   1.998   5.202  0.5101 -2.6802 -2.1599
    2CHL1    C8   88   2.669   1.983   5.234 -0.0874  0.2453  0.7005
    2CHL1    H8   89   2.721   1.891   5.267 -1.4527 -1.4715 -1.6333
    2CHL1   C14   90   2.693   2.005   5.079  0.3017  0.2705  0.4516
    2CHL1   H14   91   2.652   2.108   5.071  0.0408  0.3133  1.9696
    2CHL1   C15   92   2.634   1.907   4.984 -0.4463 -0.0586 -0.5866
    2CHL1  H15A   93   2.656   1.804   5.018  2.0693  0.8108  0.6836
    2CHL1  H15B   94   2.528   1.935   4.964 -0.2093  0.7735 -0.7515
    2CHL1   C16   95   2.711   1.916   4.853 -0.4236  0.1609  0.3238
    2CHL1  H16A   96   2.768   1.821   4.841 -0.7521 -0.0945  0.7698
    2CHL1  H16B   97   2.646   1.935   4.765 -0.7800 -1.8226  0.1252
    2CHL1   C17   98   2.811   2.031   4.881  1.0340 -0.0137 -0.6409
    2CHL1   H17   99   2.752   2.123   4.862 -0.0065 -0.4938  0.1607
    2CHL1   C13  100   2.840   2.024   5.040 -0.1386 -1.1201  0.7599
    2CHL1   C18  101   2.931   1.905   5.070 -0.2615  0.3169 -0.4903
    2CHL1  H18A  102   3.031   1.933   5.032 -0.1391  0.2350 -0.2282
    2CHL1  H18B  103   2.945   1.885   5.178 -0.9211 -2.1783 -0.8128
    2CHL1  H18C  104   2.896   1.809   5.027  0.7351  0.1295 -0.9061
    2CHL1   C12  105   2.891   2.151   5.124  0.4435 -0.9463 -0.3164
    2CHL1  H12A  106   2.998   2.170   5.101  0.3460  1.6409  1.0002
    2CHL1  H12B  107   2.838   2.238   5.079  1.6974 -0.0709 -0.1677
    2CHL1   C11  108   2.865   2.137   5.274 -0.2502  0.5946  0.4054
    2CHL1  H11A  109   2.944   2.064   5.301  0.2097  0.3185 -1.5398
    2CHL1  H11B  110   2.905   2.230   5.319  2.0301 -0.3338  0.4544
    2CHL1    C9  111   2.724   2.100   5.313  0.2892  0.5325  0.7841
    2CHL1    H9  112   2.662   2.187   5.285  0.2267 -0.0821 -1.1376
    2CHL1   C10  113   2.704   2.091   5.461 -0.4979 -0.4019 -0.1296
    2CHL1   C19  114   2.829   2.019   5.521  0.0329  0.1346  0.5207
    2CHL1  H19A  115   2.842   1.923   5.467  1.6921  0.7568 -0.2486
    2CHL1  H19B  116   2.917   2.083   5.502 -1.2474  1.1663 -2.8079
    2CHL1  H19C  117   2.825   2.003   5.631 -1.3050 -0.0332  0.4743
    2CHL1    C1  118   2.703   2.237   5.512  0.7196 -0.5499 -0.9333
    2CHL1   H1A  119   2.790   2.298   5.480  1.1164 -0.3652  0.4396
    2CHL1   H1B  120   2.617   2.289   5.463  0.6178 -1.1241 -1.3715
    2CHL1    C2  121   2.677   2.252   5.661 -0.6033 -0.3993 -0.3135
    2CHL1   H2A  122   2.673   2.355   5.701 -0.0782 -0.0075 -1.2245
    2CHL1   H2B  123   2.760   2.198   5.712 -1.4455 -0.7103  0.7516
    2CHL1   C20  124   2.931   2.036   4.783  0.6236  0.4640 -0.1150
    2CHL1   H20  125   2.978   1.936   4.775 -0.6001  0.0019 -2.1152
    2CHL1   C21  126   3.040   2.141   4.826 -0.1137 -0.6068  0.0906
    2CHL1  H21A  127   2.995   2.242   4.837 -2.1584 -1.4542  0.0434
    2CHL1  H21B  128   3.122   2.150   4.752 -0.5847  0.1136 -0.3586
    2CHL1  H21C  129   3.091   2.107   4.918  2.4271  0.8982 -0.6563
    2CHL1   C22  130   2.888   2.068   4.640 -0.3422 -0.4260 -0.5671
    2CHL1  H22A  131   2.803   2.007   4.603  0.4916 -1.0328 -1.5416
    2CHL1  H22B  132   2.860   2.176   4.638  2.0923  0.2834  0.0522
    2CHL1   C23  133   3.003   2.027   4.540  0.6669 -0.0484  0.3129
    2CHL1  H23A  134   3.085   2.095   4.570  0.7253 -0.8666  2.1809
    2CHL1  H23B  135   3.009   1.917   4.555 -0.2179  0.2081  3.1723
    2CHL1   C24  136   2.971   2.063   4.387 -0.3638  0.3619  0.2348
    2CHL1  H24A  137   2.882   2.006   4.354  0.5322 -0.8647 -0.1277
    2CHL1  H24B  138   2.939   2.170   4.392 -0.7032  0.3061 -0.5893
    2CHL1   C25  139   3.095   2.052   4.296 -0.1585 -0.1040  0.8797
    2CHL1   H25  140   3.167   2.120   4.346 -2.3858  2.0738  1.3206
    2CHL1   C26  141   3.144   1.907   4.278 -0.2860  0.2971  0.0072
    2CHL1  H26A  142   3.200   1.863   4.364  1.4886  0.0466 -1.2287
    2CHL1  H26B  143   3.059   1.842   4.251  1.0025 -2.5350  2.2005
    2CHL1  H26C  144   3.216   1.900   4.194  0.2021  1.1060  0.3419
    2CHL1   C27  145   3.070   2.111   4.153  0.2313  0.2769 -0.5367
    2CHL1  H27A  146   3.165   2.093   4.098  0.5328  2.0120 -0.6246
    2CHL1  H27B  147   2.984   2.054   4.113 -0.7598 -0.8673  2.8909
    2CHL1  H27C  148   3.049   2.219   4.168  1.4518  0.4026  0.4292
    3CHL1    C3  149   1.506   1.923   5.851  1.3008  0.0967  0.0803
    3CHL1    H3  150   1.453   2.020   5.864  0.8718 -0.2454  0.9587
    3CHL1    O3  151   1.497   1.855   5.979 -0.0174 -0.0063  0.9583
    3CHL1   H3'  152   1.564   1.786   5.977  0.6088  0.5884 -1.5985
    3CHL1    C4  153   1.428   1.831   5.755  0.3179 -0.4022  0.0208
    3CHL1   H4A  154   1.472   1.729   5.750 -0.0541 -0.6160  0.9957
    3CHL1   H4B  155   1.324   1.819   5.791  0.5300  0.8039  1.0864
    3CHL1    C5  156   1.431   1.891   5.613 -0.4328 -0.3936 -0.0030
    3CHL1    C6  157   1.317   1.921   5.549  0.2515 -0.4807 -0.4803
    3CHL1    H6  158   1.218   1.892   5.587  0.0693 -0.6494 -1.0692
    3CHL1    C7  159   1.304   1.974   5.409  0.3115 -0.6289  1.0183
    3CHL1   H7A  160   1.230   1.917   5.348  0.2464 -1.8345  2.1716
    3CHL1   H7B  161   1.271   2.080   5.414 -2.5531 -1.3929  0.1979
    3CHL1    C8  162   1.437   1.971   5.332 -0.1613 -0.4035  0.2216
    3CHL1    H8  163   1.453   1.865   5.304  0.5012 -0.8901  2.2367
    3CHL1   C14  164   1.443   2.054   5.207  0.2187  0.3113  0.0224
    3CHL1   H14  165   1.404   2.151   5.243  0.9687 -0.0935  2.0376
    3CHL1   C15  166   1.339   2.030   5.091  0.0943  0.7702  0.0616
    3CHL1  H15A  167   1.326   1.922   5.069  0.2047  0.4725  1.3886
    3CHL1  H15B  168   1.246   2.078   5.128 -0.4585 -1.0950  1.1986
    3CHL1   C16  169   1.394   2.092   4.962 -0.1388  0.2527 -0.5510
    3CHL1  H16A  170   1.406   2.014   4.883 -2.5084  1.6069 -2.4110
    3CHL1  H16B  171   1.330   2.165   4.909 -0.3298  0.1366 -0.4804
    3CHL1   C17  172   1.532   2.147   5.006  0.0312  0.6230 -0.0648
    3CHL1   H17  173   1.524   2.250   5.047  0.3316  0.9820 -0.8941
    3CHL1   C13  174   1.576   2.068   5.129 -0.2686  0.3304  0.0936
    3CHL1   C18  175   1.627   1.935   5.079 -0.5548 -0.0061  0.1351
    3CHL1  H18A  176   1.613   1.874   5.171 -1.0232  0.6827  0.5301
    3CHL1  H18B  177   1.560   1.895   5.000 -1.2813 -1.5148  1.4583
    3CHL1  H18C  178   1.733   1.934   5.048 -1.0737 -1.7866 -1.7842
    3CHL1   C12  179   1.681   2.132   5.226 -0.7973  0.1611 -0.0185
    3CHL1  H12A  180   1.779   2.144   5.175 -1.1284 -0.3779 -0.8003
    3CHL1  H12B  181   1.634   2.232   5.245 -1.0051 -0.1890  1.4742
    3CHL1   C11  182   1.693   2.050   5.355  0.0405  0.3017  1.1343
    3CHL1  H11A  183   1.732   1.952   5.320 -0.9516  0.8714 -1.7673
    3CHL1  H11B  184   1.762   2.091   5.432 -0.0488  0.9708  0.8663
    3CHL1    C9  185   1.551   2.014   5.430 -0.1802  0.2090 -0.5665
    3CHL1    H9  186   1.520   2.114   5.466 -0.7920 -0.2350  0.1815
    3CHL1   C10  187   1.567   1.920   5.559  0.4299 -0.2801  1.1356
    3CHL1   C19  188   1.628   1.785   5.530  0.5361  0.3566  0.1009
    3CHL1  H19A  189   1.571   1.716   5.465 -0.3050 -0.1309  1.3281
    3CHL1  H19B  190   1.726   1.794   5.478  0.3658 -0.0793 -0.3073
    3CHL1  H19C  191   1.641   1.726   5.624 -2.8196 -1.8370 -0.6398
    3CHL1    C1  192   1.650   2.003   5.658 -0.3593  0.3592 -0.6592
    3CHL1   H1A  193   1.755   2.012   5.622  0.2671 -0.2856  0.9257
    3CHL1   H1B  194   1.619   2.110   5.658 -0.0112  0.4726  0.4944
    3CHL1    C2  195   1.651   1.944   5.803  0.6913  0.8152 -0.2737
    3CHL1   H2A  196   1.687   2.025   5.871 -0.7482  0.4418  0.9871
    3CHL1   H2B  197   1.717   1.855   5.810 -0.9902 -0.4251  0.7374
    3CHL1   C20  198   1.621   2.163   4.878 -0.3146 -0.4424 -0.3222
    3CHL1   H20  199   1.638   2.061   4.837  0.4345 -0.4540 -0.0006
    3CHL1   C21  200   1.759   2.228   4.911  0.1163  0.1488 -0.1857
    3CHL1  H21A  201   1.804   2.264   4.816 -1.4646  0.7656 -0.7404
    3CHL1  H21B  202   1.829   2.159   4.963 -0.3672 -0.6386 -0.5510
    3CHL1  H21C  203   1.752   2.324   4.966  0.9531  1.7749 -2.7736
    3CHL1   C22  204   1.549   2.239   4.761  0.0654  0.1434 -0.5805
    3CHL1  H22A  205   1.614   2.237   4.671  0.5331  1.2595 -0.2869
    3CHL1  H22B  206   1.466   2.169   4.738  1.2175 -1.4508 -0.1323
    3CHL1   C23  207   1.529   2.393   4.785 -0.1542  0.5275  0.4678
    3CHL1  H23A  208   1.469   2.396   4.878  0.4003  0.5611  0.8298
    3CHL1  H23B  209   1.627   2.438   4.813  0.2590  0.4385 -0.7863
    3CHL1   C24  210   1.456   2.462   4.672  0.6214  0.2483 -0.2667
    3CHL1  H24A  211   1.451   2.568   4.704 -2.8512 -0.1286  0.8129
    3CHL1  H24B  212   1.521   2.462   4.582 -1.4149 -0.6560 -1.8247
    3CHL1   C25  213   1.314   2.416   4.645  0.3607  0.4559  0.0142
    3CHL1   H25  214   1.319   2.313   4.604 -0.4656 -0.1018  1.2815
    3CHL1   C26  215   1.210   2.420   4.760 -0.2859  0.2326 -0.3959
    3CHL1  H26A  216   1.109   2.418   4.714 -1.3025 -2.0589  1.7364
    3CHL1  H26B  217   1.221   2.336   4.831 -0.9329  0.7247  0.3068
    3CHL1  H26C  218   1.216   2.514   4.819 -1.9783  1.0207 -1.3905
    3CHL1   C27  219   1.275   2.504   4.522 -0.2978 -0.2141 -0.4929
    3CHL1  H27A  220   1.174   2.470   4.488 -0.1500 -1.5764  0.3535
    3CHL1  H27B  221   1.268   2.610   4.556  1.8760  0.5290 -2.1673
    3CHL1  H27C  222   1.346   2.495   4.437 -0.2594 -1.9549 -0.3039
    4CHL1    C3  223   5.778   1.871   5.889  0.5140 -0.7859  0.7675
    4CHL1    H3  224   5.740   1.975   5.880 -0.0680 -0.9094  1.6667
    4CHL1    O3  225   5.850   1.858   6.007  0.1552 -0.5832  0.4887
    4CHL1   H3'  226   5.794   1.888   6.079 -1.3304 -1.7158 -0.1669
    4CHL1    C4  227   5.664   1.765   5.897  0.7077 -0.1284  0.7173
    4CHL1   H4A  228   5.696   1.664   5.933 -0.4281 -0.7327  0.0878
    4CHL1   H4B  229   5.611   1.811   5.984  0.8638  1.9640 -0.2402
    4CHL1    C5  230   5.576   1.762   5.776 -0.8096 -0.1384  0.5140
    4CHL1    C6  231   5.444   1.780   5.783  0.2600 -0.9811 -0.1280
    4CHL1    H6  232   5.395   1.801   5.879 -0.1976  0.7617 -0.7083
    4CHL1    C7  233   5.364   1.788   5.655 -0.4871  0.6493  0.2162
    4CHL1   H7A  234   5.269   1.732   5.665 -0.5584  0.7143 -0.0807
    4CHL1   H7B  235   5.350   1.898   5.643  0.6175  0.5148 -3.4873
    4CHL1    C8  236   5.431   1.721   5.532 -0.5393 -0.2890  0.0317
    4CHL1    H8  237   5.427   1.612   5.551 -0.1633 -0.2464  0.3785
    4CHL1   C14  238   5.348   1.756   5.411  0.4962  0.9069 -1.1556
    4CHL1   H14  239   5.362   1.865   5.400  2.1787  0.5309 -3.4479
    4CHL1   C15  240   5.196   1.739   5.400  0.0472  0.6128 -0.3192
    4CHL1  H15A  241   5.183   1.641   5.452  0.9305  0.6562 -0.0114
    4CHL1  H15B  242   5.141   1.813   5.463 -1.1336  0.2990 -0.9347
    4CHL1   C16  243   5.171   1.740   5.255 -0.5110 -0.1199  0.0983
    4CHL1  H16A  244   5.134   1.641   5.220  1.5778 -0.4129 -1.4935
    4CHL1  H16B  245   5.105   1.821   5.217 -0.3672 -0.1376 -0.1975
    4CHL1   C17  246   5.305   1.755   5.182  0.2208 -0.4644  0.4139
    4CHL1   H17  247   5.315   1.866   5.180  3.5020 -0.6394  0.6854
    4CHL1   C13  248   5.413   1.711   5.279  0.0782  0.3249  0.1478
    4CHL1   C18  249   5.416   1.549   5.289  0.5276  0.8099 -0.8271
    4CHL1  H18A  250   5.504   1.513   5.346  0.3748 -0.3309 -1.2797
    4CHL1  H18B  251   5.321   1.513   5.332  0.9638 -1.1871 -1.4451
    4CHL1  H18C  252   5.429   1.499   5.190 -1.0880  1.4502 -1.3915
    4CHL1   C12  253   5.545   1.788   5.267 -0.5906  1.0506 -0.1854
    4CHL1  H12A  254   5.597   1.754   5.175  1.3202  2.5867  0.2728
    4CHL1  H12B  255   5.529   1.898   5.261  1.3240  1.4043  0.5054
    4CHL1   C11  256   5.646   1.755   5.380 -0.0936  0.4249  0.6739
    4CHL1  H11A  257   5.685   1.650   5.378 -0.6546  0.2190 -0.3158
    4CHL1  H11B  258   5.737   1.817   5.366 -0.5893  0.6356 -2.2786
    4CHL1    C9  259   5.572   1.784   5.518 -0.0991 -0.2572 -0.1968
    4CHL1    H9  260   5.543   1.891   5.520 -2.6363 -0.8743 -0.4826
    4CHL1   C10  261   5.659   1.748   5.642 -0.8460 -0.9445 -0.2074
    4CHL1   C19  262   5.722   1.604   5.630  0.4957  0.0927  0.2350
    4CHL1  H19A  263   5.642   1.534   5.595 -1.2243  1.9720  0.1734
    4CHL1  H19B  264   5.804   1.611   5.555 -1.7669  2.4183 -2.2875
    4CHL1  H19C  265   5.768   1.570   5.724 -0.5273  2.1408  1.5590
    4CHL1    C1  266   5.776   1.855   5.642  0.4357  0.4905  0.1894
    4CHL1   H1A  267   5.835   1.825   5.553 -1.8071 -3.4492 -0.2379
    4CHL1   H1B  268   5.740   1.958   5.621 -1.8693 -0.5654 -1.4512
    4CHL1    C2  269   5.861   1.848   5.768 -0.4814  0.0588 -0.1618
    4CHL1   H2A  270   5.928   1.937   5.767 -1.0486  0.5385  1.4687
    4CHL1   H2B  271   5.912   1.749   5.772  1.4671  1.0316  0.2528
    4CHL1   C20  272   5.302   1.692   5.040  0.5240 -0.9321  0.2921
    4CHL1   H20  273   5.273   1.584   5.043  2.3468 -1.4363  1.6191
    4CHL1   C21  274   5.437   1.703   4.961 -0.0806  0.2029  0.1260
    4CHL1  H21A  275   5.510   1.634   5.009 -0.4821 -0.1545  0.2317
    4CHL1  H21B  276   5.483   1.804   4.975 -1.7267  0.9287  0.6502
    4CHL1  H21C  277   5.435   1.662   4.859 -0.1106 -6.0852  2.2558
    4CHL1   C22  278   5.190   1.762   4.963  0.6089 -0.4215 -0.3668
    4CHL1  H22A  279   5.091   1.753   5.012 -0.5193 -0.4523 -2.5272
    4CHL1  H22B  280   5.220   1.866   4.937 -1.3934  0.3979  0.3275
    4CHL1   C23  281   5.168   1.704   4.816  0.4609  0.0088 -0.3104
    4CHL1  H23A  282   5.126   1.778   4.746 -1.1252  0.8041  1.3762
    4CHL1  H23B  283   5.259   1.661   4.771 -1.1062 -2.8888 -0.9816
    4CHL1   C24  284   5.072   1.580   4.831 -0.3476  0.4070  0.6320
    4CHL1  H24A  285   5.122   1.504   4.894  2.1988  1.1248 -0.3768
    4CHL1  H24B  286   4.979   1.616   4.879 -0.7485  0.5751 -0.2410
    4CHL1   C25  287   5.045   1.514   4.691 -0.2759 -0.2506 -0.3280
    4CHL1   H25  288   5.016   1.589   4.615 -2.0262 -1.8186 -1.3117
    4CHL1   C26  289   5.174   1.456   4.632 -0.1161 -0.3687 -0.2601
    4CHL1  H26A  290   5.242   1.417   4.711 -1.4804 -0.0717  1.1126
    4CHL1  H26B  291   5.141   1.374   4.564 -2.2740 -0.6253  0.9735
    4CHL1  H26C  292   5.232   1.534   4.579 -1.6121  1.3938  0.6075
    4CHL1   C27  293   4.924   1.418   4.696  0.1926 -0.0340  0.4318
    4CHL1  H27A  294   4.904   1.372   4.597  0.2851 -2.1129  1.3242
    4CHL1  H27B  295   4.927   1.338   4.773 -1.1020  0.8462  1.4482
    4CHL1  H27C  296   4.826   1.461   4.728 -0.6562 -2.6543  1.6364
    5CHL1    C3  297   3.214   4.267   5.834 -0.3817 -0.2862 -0.6431
    5CHL1    H3  298   3.154   4.176   5.856 -1.2174  0.4353  0.1219
    5CHL1    O3  299   3.247   4.341   5.950 -0.2294 -0.3950  0.0489
    5CHL1   H3'  300   3.320   4.291   5.987 -0.4433 -0.2793  0.6273
    5CHL1    C4  301   3.340   4.218   5.760  0.3521 -1.0390 -0.6109
    5CHL1   H4A  302   3.422   4.291   5.747  1.1727 -1.9691 -0.8495
    5CHL1   H4B  303   3.382   4.140   5.827 -0.4679 -0.7368  0.2706
    5CHL1    C5  304   3.303   4.148   5.625 -0.4322 -0.7039 -0.4305
    5CHL1    C6  305   3.334   4.020   5.587 -0.0328 -0.2301 -0.6638
    5CHL1    H6  306   3.393   3.951   5.649 -0.8662  0.3883  0.8905
    5CHL1    C7  307   3.297   3.957   5.454 -0.3395 -0.5916 -0.4561
    5CHL1   H7A  308   3.388   3.908   5.412 -0.3720 -0.6413 -0.4692
    5CHL1   H7B  309   3.215   3.883   5.467  0.3387 -1.2207  0.4339
    5CHL1    C8  310   3.250   4.061   5.344 -0.3503 -0.1065 -0.1469
    5CHL1    H8  311   3.345   4.112   5.317 -0.0377 -0.0399  1.0251
    5CHL1   C14  312   3.189   3.996   5.229  0.4961  0.2070 -0.0821
    5CHL1   H14  313   3.094   3.950   5.264 -0.8570  2.0778 -1.1177
    5CHL1   C15  314   3.271   3.884   5.156 -0.6842 -0.4398 -0.3223
    5CHL1  H15A  315   3.376   3.914   5.177 -0.9941  1.3788 -1.1931
    5CHL1  H15B  316   3.246   3.789   5.209 -2.8236  1.0346  1.5418
    5CHL1   C16  317   3.240   3.896   5.005  0.0353 -0.5214  0.8005
    5CHL1  H16A  318   3.333   3.911   4.947 -0.5512  2.7054  0.4825
    5CHL1  H16B  319   3.194   3.801   4.969 -2.3286 -0.0412  2.2809
    5CHL1   C17  320   3.125   4.003   4.994 -0.1688 -0.3043 -0.3237
    5CHL1   H17  321   3.028   3.956   5.019  0.8328 -1.2995  1.9206
    5CHL1   C13  322   3.158   4.092   5.110 -0.3228 -0.5044 -0.2697
    5CHL1   C18  323   3.283   4.174   5.066  0.3804  0.6225  0.1902
    5CHL1  H18A  324   3.355   4.102   5.022  1.3487  1.4839  0.3223
    5CHL1  H18B  325   3.256   4.253   4.993  0.0417  0.3052 -0.0310
    5CHL1  H18C  326   3.334   4.226   5.150  0.1982  2.9132 -1.0224
    5CHL1   C12  327   3.055   4.195   5.169  0.1038  0.0858 -0.0774
    5CHL1  H12A  328   3.033   4.271   5.091 -0.5107  0.0856  0.0952
    5CHL1  H12B  329   2.960   4.142   5.192  0.6061 -0.6005  0.4657
    5CHL1   C11  330   3.098   4.264   5.297  0.3035 -0.6970 -0.2755
    5CHL1  H11A  331   3.162   4.351   5.271  0.0911 -0.3190  0.4297
    5CHL1  H11B  332   3.016   4.319   5.349  2.4067  0.1926  2.4020
    5CHL1    C9  333   3.156   4.167   5.403 -0.5005 -0.1448 -0.4923
    5CHL1    H9  334   3.068   4.106   5.432 -0.7649  0.6397  0.3648
    5CHL1   C10  335   3.212   4.237   5.529 -0.1087  0.8159  0.6203
    5CHL1   C19  336   3.309   4.352   5.485  0.0532 -0.0734 -0.3208
    5CHL1  H19A  337   3.353   4.388   5.581  3.7766 -0.8089 -1.5909
    5CHL1  H19B  338   3.395   4.320   5.422  0.3706  0.4604 -0.1639
    5CHL1  H19C  339   3.255   4.437   5.438  0.5188 -0.1391 -0.9921
    5CHL1    C1  340   3.094   4.290   5.610 -1.2684 -0.5958  0.2592
    5CHL1   H1A  341   3.037   4.361   5.547  1.4645  0.2538 -1.4219
    5CHL1   H1B  342   3.023   4.206   5.626 -1.0851 -0.9350 -0.5944
    5CHL1    C2  343   3.130   4.351   5.745  0.2145 -0.5011 -0.0469
    5CHL1   H2A  344   3.042   4.378   5.807  2.1322  3.1317  1.4474
    5CHL1   H2B  345   3.189   4.445   5.739  1.4300 -0.9683  2.9631
    5CHL1   C20  346   3.120   4.062   4.851  0.3498 -0.2955 -0.3601
    5CHL1   H20  347   3.221   4.101   4.826  0.2539 -0.0609 -0.3820
    5CHL1   C21  348   3.019   4.174   4.838  0.1512  0.1431 -0.2060
    5CHL1  H21A  349   3.051   4.273   4.877 -3.7862  0.7404  2.0205
    5CHL1  H21B  350   2.922   4.157   4.890  0.4950  2.1086  1.2003
    5CHL1  H21C  351   3.004   4.192   4.729  1.0904  0.0538 -0.3575
    5CHL1   C22  352   3.107   3.954   4.738 -0.0243 -0.3202 -0.4631
    5CHL1  H22A  353   3.123   4.008   4.642  0.1288 -1.8933 -1.3530
    5CHL1  H22B  354   3.194   3.886   4.736  0.5072  0.3657 -0.8862
    5CHL1   C23  355   2.968   3.880   4.743 -0.5520 -0.7300  0.5269
    5CHL1  H23A  356   2.970   3.813   4.832 -1.4452  2.7900  3.4298
    5CHL1  H23B  357   2.891   3.959   4.754 -1.6433 -1.6398 -0.3957
    5CHL1   C24  358   2.930   3.805   4.612  0.1613 -0.0659 -0.3354
    5CHL1  H24A  359   2.960   3.882   4.538  0.8677 -0.2163 -0.2155
    5CHL1  H24B  360   2.992   3.714   4.595 -2.3321 -2.2942  1.6798
    5CHL1   C25  361   2.784   3.761   4.597 -0.2144  0.3221  0.9536
    5CHL1   H25  362   2.765   3.699   4.687  0.7779 -0.6753  0.4986
    5CHL1   C26  363   2.688   3.879   4.590  0.0417 -0.7137 -0.1112
    5CHL1  H26A  364   2.692   3.928   4.689  1.4094 -0.8118 -0.0931
    5CHL1  H26B  365   2.725   3.949   4.512  1.5345  0.7630  1.8228
    5CHL1  H26C  366   2.589   3.835   4.566 -1.0825  1.7351 -0.2397
    5CHL1   C27  367   2.762   3.673   4.470 -0.1307  0.4380 -0.3969
    5CHL1  H27A  368   2.777   3.730   4.375  0.5465 -1.3374 -1.4092
    5CHL1  H27B  369   2.808   3.575   4.491  0.3741  0.8428  0.4268
    5CHL1  H27C  370   2.652   3.661   4.467 -0.2544  1.1551  0.7670
    6CHL1    C3  371   5.367   0.058   5.705 -0.3388  0.1411  0.5807
    6CHL1    H3  372   5.372   0.167   5.683  2.4172 -0.2124 -0.9261
    6CHL1    O3  373   5.365   0.031   5.845  0.4201 -0.0413 -0.1871
    6CHL1   H3'  374   5.301   0.100   5.865  0.6737 -0.6802  3.3622
    6CHL1    C4  375   5.259  -0.018   5.622  0.4517 -0.0100  0.2692
    6CHL1   H4A  376   5.254  -0.121   5.661 -0.0837 -0.6121 -1.2971
    6CHL1   H4B  377   5.162   0.026   5.654 -0.6313 -0.9273 -1.5921
    6CHL1    C5  378   5.284  -0.019   5.473 -0.2273 -0.6405  0.0836
    6CHL1    C6  379   5.196   0.025   5.382  0.1737  0.0892 -0.5320
    6CHL1    H6  380   5.096   0.060   5.413 -0.5543 -1.0181 -1.5561
    6CHL1    C7  381   5.207   0.027   5.233 -0.0410 -0.5803  0.1018
    6CHL1   H7A  382   5.114  -0.012   5.186 -0.3032 -1.2585  1.1648
    6CHL1   H7B  383   5.218   0.130   5.191  2.6338 -1.0949 -0.6366
    6CHL1    C8  384   5.319  -0.068   5.194  0.3021 -0.1609  0.9935
    6CHL1    H8  385   5.272  -0.167   5.212 -1.6150  0.4408 -0.4458
    6CHL1   C14  386   5.353  -0.045   5.047  0.1683 -0.0872 -0.9415
    6CHL1   H14  387   5.385   0.060   5.033  1.2526 -0.2326  0.2695
    6CHL1   C15  388   5.234  -0.076   4.949 -0.2876  0.0627  0.3429
    6CHL1  H15A  389   5.199  -0.180   4.968 -0.6139  0.1868  0.4182
    6CHL1  H15B  390   5.151  -0.003   4.954 -2.1204 -1.6101 -2.5981
    6CHL1   C16  391   5.307  -0.080   4.808  0.3919 -0.0046 -0.1118
    6CHL1  H16A  392   5.275  -0.169   4.750 -0.7743  1.5098 -1.9078
    6CHL1  H16B  393   5.287   0.006   4.741 -0.4661 -0.7621 -0.8631
    6CHL1   C17  394   5.456  -0.093   4.842  0.1277  0.1068  0.1758
    6CHL1   H17  395   5.501   0.009   4.834  0.9992 -0.3582 -1.5120
    6CHL1   C13  396   5.467  -0.129   4.992 -0.4224 -0.6652 -0.5917
    6CHL1   C18  397   5.441  -0.280   5.011 -0.2466 -0.2904  0.8643
    6CHL1  H18A  398   5.411  -0.308   5.114 -1.3284 -2.3176  0.0399
    6CHL1  H18B  399   5.357  -0.316   4.948 -1.5925  1.7089  1.4289
    6CHL1  H18C  400   5.532  -0.336   4.982 -0.4860  0.4353 -1.6047
    6CHL1   C12  401   5.592  -0.074   5.070 -0.3534  0.2436  0.4065
    6CHL1  H12A  402   5.684  -0.122   5.032  0.0538  2.5334 -1.7589
    6CHL1  H12B  403   5.595   0.036   5.054  1.6215  0.0633 -0.7400
    6CHL1   C11  404   5.581  -0.107   5.218 -0.4861 -0.3946  0.5051
    6CHL1  H11A  405   5.577  -0.218   5.228  0.5829 -0.8313 -2.8793
    6CHL1  H11B  406   5.672  -0.065   5.266  0.8613 -4.1606  1.6712
    6CHL1    C9  407   5.446  -0.049   5.273  0.1644 -0.5020 -0.1439
    6CHL1    H9  408   5.474   0.057   5.258  3.1872 -1.1565  0.0949
    6CHL1   C10  409   5.421  -0.074   5.425  0.1451  0.1028  0.3870
    6CHL1   C19  410   5.429  -0.222   5.462  0.4019  0.3339  0.1537
    6CHL1  H19A  411   5.350  -0.282   5.412  1.6026 -1.6564  0.5070
    6CHL1  H19B  412   5.528  -0.256   5.424  0.8050  1.0469  0.5601
    6CHL1  H19C  413   5.435  -0.248   5.569  3.8356 -2.4192 -0.5127
    6CHL1    C1  414   5.525   0.014   5.499 -0.0009 -0.0076  0.1973
    6CHL1   H1A  415   5.625  -0.025   5.472  1.0729  2.4255  0.4124
    6CHL1   H1B  416   5.526   0.117   5.458 -0.4153 -0.3407 -0.6986
    6CHL1    C2  417   5.508   0.013   5.654 -0.1104 -0.5072 -0.4221
    6CHL1   H2A  418   5.580   0.075   5.712 -1.5344 -0.7537  1.7483
    6CHL1   H2B  419   5.528  -0.089   5.692  0.5967 -0.0945  0.3634
    6CHL1   C20  420   5.523  -0.182   4.736 -0.6155  1.0443 -0.5855
    6CHL1   H20  421   5.488  -0.285   4.757  0.9541  1.3169  5.1577
    6CHL1   C21  422   5.680  -0.187   4.766 -0.0152 -0.8828  0.0301
    6CHL1  H21A  423   5.700  -0.254   4.852  0.0007  1.2353  1.7733
    6CHL1  H21B  424   5.708  -0.084   4.796 -3.9704  0.1745  0.7041
    6CHL1  H21C  425   5.743  -0.210   4.678  0.1556 -1.9323  0.4162
    6CHL1   C22  426   5.495  -0.144   4.589  0.3128  0.3738  0.0045
    6CHL1  H22A  427   5.522  -0.229   4.522  1.7517  1.7792 -1.3121
    6CHL1  H22B  428   5.385  -0.134   4.575  0.5739  2.2784 -1.1212
    6CHL1   C23  429   5.565  -0.010   4.547 -0.1087 -0.0735 -0.3275
    6CHL1  H23A  430   5.521   0.066   4.615 -1.3531 -1.6928  0.7911
    6CHL1  H23B  431   5.675  -0.015   4.556  0.3136  1.8357 -3.2202
    6CHL1   C24  432   5.538   0.033   4.400  1.0016  0.2871 -0.4140
    6CHL1  H24A  433   5.575  -0.046   4.331  1.7326  0.6950 -0.4975
    6CHL1  H24B  434   5.431   0.052   4.378  0.3943  0.2776  2.1803
    6CHL1   C25  435   5.623   0.158   4.381  0.0878  0.6930  0.8780
    6CHL1   H25  436   5.720   0.138   4.431  0.9424  0.3680 -0.8540
    6CHL1   C26  437   5.650   0.185   4.234 -0.7609 -0.0426  0.1638
    6CHL1  H26A  438   5.707   0.099   4.195  1.6982  0.4761  2.3166
    6CHL1  H26B  439   5.548   0.206   4.194 -1.9961  0.7631  3.3916
    6CHL1  H26C  440   5.716   0.275   4.226 -0.2434 -0.4313  0.0185
    6CHL1   C27  441   5.564   0.285   4.440 -0.2667  1.0911  0.7719
    6CHL1  H27A  442   5.463   0.292   4.395 -0.1877  0.4682  0.4833
    6CHL1  H27B  443   5.555   0.282   4.551 -0.2336 -1.5571  0.7577
    6CHL1  H27C  444   5.634   0.367   4.411  0.3748  0.2484 -0.1614
    7CHL1    C3  445   1.873   0.645   5.665 -0.0100 -0.5898  0.3822
    7CHL1    H3  446   1.786   0.576   5.660  0.0073 -0.6047  0.2923
    7CHL1    O3  447   1.930   0.640   5.792  0.1309 -0.0059 -0.1893
    7CHL1   H3'  448   2.013   0.593   5.788  1.9158  3.0248 -2.2877
    7CHL1    C4  449   1.977   0.615   5.561 -0.0766  0.1666 -0.5386
    7CHL1   H4A  450   2.067   0.674   5.587 -0.1711  1.1177 -2.2783
    7CHL1   H4B  451   2.013   0.510   5.565 -2.1972 -0.6185 -0.5182
    7CHL1    C5  452   1.938   0.640   5.418  0.5796  0.0987  0.3099
    7CHL1    C6  453   1.939   0.536   5.330  0.5828 -0.2336 -0.4438
    7CHL1    H6  454   1.953   0.433   5.366  0.4141 -0.3212 -0.6264
    7CHL1    C7  455   1.896   0.559   5.188  0.5435  0.6135  0.1454
    7CHL1   H7A  456   1.973   0.516   5.120  1.3663 -2.0157  2.5492
    7CHL1   H7B  457   1.800   0.506   5.170 -0.6236  2.3473  0.9973
    7CHL1    C8  458   1.887   0.708   5.140 -0.2253 -0.8155  0.4160
    7CHL1    H8  459   1.989   0.752   5.138 -0.9026  0.9179  1.5284
    7CHL1   C14  460   1.817   0.729   5.013  0.8439 -0.4136  0.4721
    7CHL1   H14  461   1.716   0.684   5.017  0.5850  0.0344 -0.6395
    7CHL1   C15  462   1.882   0.662   4.883  0.7739  0.8105 -0.0173
    7CHL1  H15A  463   1.989   0.686   4.902  0.7460  0.8260  0.1238
    7CHL1  H15B  464   1.854   0.555   4.900 -0.2086  1.2969  1.7801
    7CHL1   C16  465   1.816   0.730   4.761  0.1579  0.1881 -0.2709
    7CHL1  H16A  466   1.895   0.774   4.697 -0.9964  1.4281 -0.8854
    7CHL1  H16B  467   1.745   0.664   4.707 -0.5556  0.2143  0.6122
    7CHL1   C17  468   1.741   0.853   4.826  0.6110 -0.2238  0.1241
    7CHL1   H17  469   1.637   0.817   4.840  0.5567 -0.0682  0.1257
    7CHL1   C13  470   1.801   0.872   4.966  0.2991  0.2765  0.0666
    7CHL1   C18  471   1.936   0.951   4.942  0.4791 -0.4201 -0.2549
    7CHL1  H18A  472   1.906   1.058   4.942  1.2484 -0.1602 -2.5694
    7CHL1  H18B  473   2.003   0.932   5.029  0.5987 -1.0849 -0.4859
    7CHL1  H18C  474   1.991   0.936   4.847  0.6202 -0.2385 -0.2023
    7CHL1   C12  475   1.712   0.936   5.075 -0.1717  0.6187  0.3467
    7CHL1  H12A  476   1.700   1.043   5.045  0.8232  0.7889  0.5443
    7CHL1  H12B  477   1.617   0.879   5.079  0.7762 -0.9738  1.1560
    7CHL1   C11  478   1.778   0.929   5.206 -0.6581 -0.1510 -0.1598
    7CHL1  H11A  479   1.875   0.983   5.193  0.6583 -2.8501 -2.8366
    7CHL1  H11B  480   1.710   0.983   5.275  2.3766  4.1044 -0.0755
    7CHL1    C9  481   1.811   0.786   5.250  0.4095  0.1366 -0.4786
    7CHL1    H9  482   1.713   0.736   5.257 -0.0552  0.9366 -1.0971
    7CHL1   C10  483   1.884   0.778   5.392  1.0615  0.5375 -0.5817
    7CHL1   C19  484   2.000   0.880   5.395 -0.1750  0.3796 -0.6383
    7CHL1  H19A  485   2.076   0.852   5.471 -0.6899 -0.7912 -0.5495
    7CHL1  H19B  486   2.052   0.875   5.296 -1.1596  1.6584 -1.2541
    7CHL1  H19C  487   1.967   0.986   5.400 -1.5331 -0.0623  0.2341
    7CHL1    C1  488   1.777   0.815   5.505  0.6815 -0.3972  0.0522
    7CHL1   H1A  489   1.765   0.925   5.489  2.8481  0.2842  2.4830
    7CHL1   H1B  490   1.681   0.762   5.484 -1.3873  2.2083  2.2014
    7CHL1    C2  491   1.824   0.791   5.641  0.2789 -0.2002 -0.8210
    7CHL1   H2A  492   1.751   0.811   5.721  0.0317 -0.8237 -0.8901
    7CHL1   H2B  493   1.920   0.840   5.669  1.8757 -3.4410 -0.1261
    7CHL1   C20  494   1.740   0.975   4.727  0.2346 -0.4618  0.2241
    7CHL1   H20  495   1.841   0.998   4.687  0.1271 -2.1457 -1.0905
    7CHL1   C21  496   1.667   1.093   4.788 -0.3831 -0.1605  0.0025
    7CHL1  H21A  497   1.581   1.060   4.850 -0.7899  1.2617  0.2493
    7CHL1  H21B  498   1.627   1.150   4.701  0.1110 -1.1154 -0.8696
    7CHL1  H21C  499   1.733   1.153   4.855  0.9896 -1.1155 -0.4617
    7CHL1   C22  500   1.681   0.930   4.589  0.3793 -0.7752 -0.2592
    7CHL1  H22A  501   1.722   0.830   4.560  0.1493 -0.2151 -2.7276
    7CHL1  H22B  502   1.574   0.919   4.615  0.4795 -0.5711  0.2550
    7CHL1   C23  503   1.700   1.015   4.466  0.5334 -0.3400  0.0093
    7CHL1  H23A  504   1.653   1.113   4.491  1.2213 -0.3406  1.3843
    7CHL1  H23B  505   1.808   1.029   4.446  0.1548 -0.8926 -2.8166
    7CHL1   C24  506   1.628   0.963   4.344  0.0739  0.0877  0.2224
    7CHL1  H24A  507   1.678   0.881   4.289 -1.8984 -2.7618  2.3590
    7CHL1  H24B  508   1.537   0.905   4.371  0.6693 -1.5402 -1.1598
    7CHL1   C25  509   1.579   1.062   4.235 -0.5140 -0.1643 -0.6097
    7CHL1   H25  510   1.530   1.148   4.286  0.1179  0.9838 -1.8646
    7CHL1   C26  511   1.701   1.115   4.155  0.0328  0.3079 -0.6105
    7CHL1  H26A  512   1.751   1.029   4.105 -0.5754  0.2307 -1.1004
    7CHL1  H26B  513   1.652   1.180   4.079 -1.5567  1.0064  0.9542
    7CHL1  H26C  514   1.761   1.184   4.218 -1.3328 -1.3006  2.6800
    7CHL1   C27  515   1.482   0.989   4.135  0.4547  0.4298  0.3009
    7CHL1  H27A  516   1.386   0.957   4.181 -0.2058 -0.2607 -1.4685
    7CHL1  H27B  517   1.447   1.059   4.056 -1.4424  1.5916  2.0530
    7CHL1  H27C  518   1.532   0.906   4.081  0.9787  2.0626 -1.8489
    8CHL1    C3  519   6.632   0.778   5.907  0.4000 -0.0216  0.4276
    8CHL1    H3  520   6.525   0.767   5.879  0.9357  0.8148 -2.2844
    8CHL1    O3  521   6.644   0.759   6.046  0.0006  0.2210  0.3756
    8CHL1   H3'  522   6.576   0.699   6.077  0.4924 -0.9423 -0.7042
    8CHL1    C4  523   6.728   0.683   5.826  0.3380 -0.8355  0.1797
    8CHL1   H4A  524   6.833   0.715   5.843 -0.1346  2.3244 -2.0687
    8CHL1   H4B  525   6.712   0.580   5.864  0.0268 -0.9571 -0.2717
    8CHL1    C5  526   6.704   0.700   5.682 -0.0948  1.0773  0.5931
    8CHL1    C6  527   6.689   0.586   5.609 -0.5465 -0.2129  0.4498
    8CHL1    H6  528   6.700   0.488   5.657 -0.1262 -0.4306 -0.0809
    8CHL1    C7  529   6.664   0.572   5.464  1.1035 -0.2148  0.0151
    8CHL1   H7A  530   6.728   0.502   5.406  0.5815 -0.2859 -0.4848
    8CHL1   H7B  531   6.562   0.533   5.445  1.1807 -0.1074 -0.6277
    8CHL1    C8  532   6.683   0.710   5.392  0.1041  0.0021 -0.1895
    8CHL1    H8  533   6.792   0.700   5.375  0.1031 -2.1430  0.7188
    8CHL1   C14  534   6.600   0.708   5.274 -0.8608 -0.1156 -0.2805
    8CHL1   H14  535   6.495   0.728   5.305 -0.9669 -1.4139  0.2513
    8CHL1   C15  536   6.605   0.583   5.183  0.2979 -0.5712  0.1697
    8CHL1  H15A  537   6.708   0.543   5.164 -0.5594 -1.5639 -3.1280
    8CHL1  H15B  538   6.549   0.497   5.224  0.9333 -0.0551  2.2512
    8CHL1   C16  539   6.554   0.639   5.043  0.0494 -0.2473 -0.6681
    8CHL1  H16A  540   6.615   0.607   4.956 -0.8147 -2.0349 -0.6508
    8CHL1  H16B  541   6.447   0.611   5.044 -1.0816  3.5288  0.9660
    8CHL1   C17  542   6.543   0.793   5.065  0.0352 -0.0406  0.1219
    8CHL1   H17  543   6.440   0.812   5.101  0.4967  1.1945  0.8367
    8CHL1   C13  544   6.632   0.826   5.182 -0.0630  0.3028 -0.4013
    8CHL1   C18  545   6.778   0.820   5.136  0.6535 -0.0739 -0.3344
    8CHL1  H18A  546   6.807   0.724   5.089  1.4062  0.5933 -1.2591
    8CHL1  H18B  547   6.810   0.898   5.064  0.8233  2.8118  2.6196
    8CHL1  H18C  548   6.845   0.842   5.222 -0.7604 -0.6101  0.9451
    8CHL1   C12  549   6.603   0.959   5.257 -0.3688 -0.0342  0.0873
    8CHL1  H12A  550   6.648   1.051   5.213  0.3288  0.5289  1.8990
    8CHL1  H12B  551   6.493   0.968   5.274  0.0738  1.0781  2.8877
    8CHL1   C11  552   6.657   0.966   5.400 -0.9171 -0.1666  0.3924
    8CHL1  H11A  553   6.764   0.994   5.405 -0.7749 -0.7967  1.3092
    8CHL1  H11B  554   6.604   1.049   5.452  1.5050  1.7592 -0.0037
    8CHL1    C9  555   6.637   0.835   5.474  0.2241  0.4746 -0.3990
    8CHL1    H9  556   6.528   0.819   5.489  0.2270  0.9881  0.2283
    8CHL1   C10  557   6.701   0.842   5.620  0.3414 -0.4738 -0.4678
    8CHL1   C19  558   6.847   0.893   5.618  0.0416 -0.4025  0.1840
    8CHL1  H19A  559   6.905   0.839   5.540  0.2877  0.1230 -0.0007
    8CHL1  H19B  560   6.841   1.003   5.606 -3.3243 -0.5473 -0.4725
    8CHL1  H19C  561   6.899   0.873   5.714  1.1575  1.1592 -0.0500
    8CHL1    C1  562   6.624   0.939   5.715 -0.1990  0.0228  0.3953
    8CHL1   H1A  563   6.626   1.042   5.674 -1.7633  0.0866  0.4156
    8CHL1   H1B  564   6.515   0.921   5.704 -0.4436  1.7870 -0.4467
    8CHL1    C2  565   6.654   0.926   5.858  0.0346 -0.5236 -0.0347
    8CHL1   H2A  566   6.588   0.996   5.914  0.5985  0.7072 -0.8739
    8CHL1   H2B  567   6.763   0.948   5.872  0.0144 -0.8667  0.6994
    8CHL1   C20  568   6.554   0.879   4.942  0.1995 -0.0328  0.5719
    8CHL1   H20  569   6.661   0.874   4.912 -0.1890 -0.5458 -0.8244
    8CHL1   C21  570   6.514   1.021   4.958  0.2165 -0.3523  0.6663
    8CHL1  H21A  571   6.509   1.076   4.861 -1.2206  0.7132  1.3185
    8CHL1  H21B  572   6.579   1.080   5.026 -0.1179 -0.3120  0.9519
    8CHL1  H21C  573   6.414   1.037   5.002 -1.2568  0.3869 -2.6135
    8CHL1   C22  574   6.473   0.818   4.820  0.2004 -0.1917  0.3183
    8CHL1  H22A  575   6.467   0.707   4.816 -0.5514 -0.1334 -0.4641
    8CHL1  H22B  576   6.370   0.857   4.828  0.7563  1.2016  0.9064
    8CHL1   C23  577   6.518   0.853   4.673 -0.3053 -0.2898 -0.5809
    8CHL1  H23A  578   6.447   0.791   4.615 -0.3415  1.9870 -3.1865
    8CHL1  H23B  579   6.501   0.963   4.662 -1.2446 -0.0554  2.2586
    8CHL1   C24  580   6.670   0.819   4.649  0.0882 -0.2141 -0.5757
    8CHL1  H24A  581   6.732   0.896   4.700  1.4806 -3.5749  3.4165
    8CHL1  H24B  582   6.685   0.731   4.716  2.0129  0.5985  0.1575
    8CHL1   C25  583   6.690   0.774   4.498  0.1998 -0.8661 -0.3474
    8CHL1   H25  584   6.796   0.742   4.497  1.5482  2.0465  5.2119
    8CHL1   C26  585   6.597   0.662   4.464  0.0851  0.7169 -0.2861
    8CHL1  H26A  586   6.493   0.695   4.440 -0.1921 -0.6690 -1.0879
    8CHL1  H26B  587   6.634   0.616   4.370  0.9444  2.0383 -0.6206
    8CHL1  H26C  588   6.598   0.583   4.542  2.9460  0.3309 -0.6412
    8CHL1   C27  589   6.668   0.891   4.399  0.2631  0.9879  0.2612
    8CHL1  H27A  590   6.723   0.981   4.431 -1.6019  1.9355  0.9074
    8CHL1  H27B  591   6.699   0.849   4.300  0.9666  0.0834  0.8377
    8CHL1  H27C  592   6.563   0.925   4.401  0.2052  0.8207  0.1281
    9CHL1    C3  593   1.907   1.358   5.852 -0.6873  0.2625 -0.0680
    9CHL1    H3  594   1.814   1.391   5.903 -0.9645 -1.0474  0.2896
    9CHL1    O3  595   1.999   1.323   5.954 -0.1171 -0.0301  0.2659
    9CHL1   H3'  596   2.024   1.410   5.985 -1.5251  0.7598 -0.7282
    9CHL1    C4  597   1.885   1.236   5.763  0.2183  0.0016 -0.2859
    9CHL1   H4A  598   1.986   1.206   5.729 -0.5625  0.0488 -2.8221
    9CHL1   H4B  599   1.853   1.147   5.821 -2.2617  0.9083 -0.1684
    9CHL1    C5  600   1.804   1.268   5.641 -0.3517  0.4219 -0.2167
    9CHL1    C6  601   1.697   1.195   5.606 -0.2701 -0.6571  0.0308
    9CHL1    H6  602   1.660   1.111   5.666 -0.0291 -1.3593 -0.7883
    9CHL1    C7  603   1.627   1.221   5.479 -0.2643 -0.4356  0.6437
    9CHL1   H7A  604   1.605   1.124   5.430 -0.3537  1.4064 -3.3463
    9CHL1   H7B  605   1.533   1.276   5.502  0.1622  0.2402  0.8058
    9CHL1    C8  606   1.700   1.312   5.370 -0.3917 -0.8342  0.4193
    9CHL1    H8  607   1.769   1.247   5.312 -0.9118  0.8255 -2.2772
    9CHL1   C14  608   1.606   1.360   5.260  0.6047 -0.2114  0.3355
    9CHL1   H14  609   1.542   1.438   5.306  0.8123  0.5626 -0.6504
    9CHL1   C15  610   1.515   1.256   5.195  0.4289 -0.1510  0.4475
    9CHL1  H15A  611   1.570   1.160   5.180  1.2668  0.1561  1.4448
    9CHL1  H15B  612   1.428   1.229   5.259 -1.3902 -1.0010 -2.2425
    9CHL1   C16  613   1.477   1.322   5.061  0.8238  0.2134 -0.4203
    9CHL1  H16A  614   1.504   1.254   4.977 -0.7136  0.7296 -1.3946
    9CHL1  H16B  615   1.367   1.338   5.064  0.5082 -1.8093 -0.2467
    9CHL1   C17  616   1.550   1.455   5.045 -0.6828 -0.1991  0.0627
    9CHL1   H17  617   1.492   1.532   5.101  1.4404  0.5833  1.3014
    9CHL1   C13  618   1.672   1.438   5.144  0.4745  0.7822 -0.2776
    9CHL1   C18  619   1.776   1.342   5.066  0.8282 -0.3315  0.1107
    9CHL1  H18A  620   1.740   1.242   5.034 -0.1963  0.6704 -2.0744
    9CHL1  H18B  621   1.808   1.404   4.980  0.9243 -0.3895  0.1042
    9CHL1  H18C  622   1.862   1.319   5.132  0.8989 -0.8129 -0.1403
    9CHL1   C12  623   1.737   1.563   5.213  0.2823  0.0528 -0.3385
    9CHL1  H12A  624   1.796   1.620   5.139  0.8527  0.0288  0.0845
    9CHL1  H12B  625   1.651   1.628   5.237  1.1224  0.7906  0.7759
    9CHL1   C11  626   1.825   1.527   5.336  0.2902  0.8948  0.4341
    9CHL1  H11A  627   1.906   1.478   5.279 -0.3045  1.8822 -1.3290
    9CHL1  H11B  628   1.862   1.624   5.377 -0.2992  0.9606  0.8236
    9CHL1    C9  629   1.760   1.429   5.442 -0.0079 -0.1281  0.3454
    9CHL1    H9  630   1.681   1.489   5.491 -0.0410  0.1203 -0.0106
    9CHL1   C10  631   1.861   1.381   5.552  0.4752 -0.0580 -0.3756
    9CHL1   C19  632   1.996   1.319   5.491 -0.3369 -0.3713 -0.2961
    9CHL1  H19A  633   2.045   1.398   5.430  1.3977 -2.1207 -1.2281
    9CHL1  H19B  634   2.065   1.282   5.569 -0.2948 -0.7139 -0.4964
    9CHL1  H19C  635   1.980   1.228   5.431  1.2662 -1.1584  0.4026
    9CHL1    C1  636   1.893   1.505   5.643  0.3130 -0.2832  0.0027
    9CHL1   H1A  637   1.959   1.570   5.582  0.0068 -1.7074 -1.9473
    9CHL1   H1B  638   1.799   1.558   5.668  0.7290  0.9409 -0.9511
    9CHL1    C2  639   1.965   1.477   5.772  1.1833  0.4233 -0.1956
    9CHL1   H2A  640   1.968   1.561   5.845  0.8776 -1.1334  1.6928
    9CHL1   H2B  641   2.070   1.457   5.742  1.7841  0.8130  1.5430
    9CHL1   C20  642   1.578   1.488   4.898 -0.2186 -0.3932  0.3349
    9CHL1   H20  643   1.643   1.411   4.851  0.4328  0.5317 -0.3216
    9CHL1   C21  644   1.661   1.618   4.879  0.2639 -0.0476 -0.7818
    9CHL1  H21A  645   1.625   1.707   4.936  0.5203 -1.6386  2.0586
    9CHL1  H21B  646   1.677   1.656   4.776 -1.3371  0.1805 -0.9717
    9CHL1  H21C  647   1.762   1.605   4.925 -0.3635  1.1030  1.0280
    9CHL1   C22  648   1.453   1.498   4.808  0.1075  0.2621  0.0653
    9CHL1  H22A  649   1.371   1.426   4.831  0.4112  0.0258  0.4117
    9CHL1  H22B  650   1.414   1.602   4.813  0.0123  0.2252  0.0976
    9CHL1   C23  651   1.485   1.480   4.658 -0.1464 -0.6941 -0.1841
    9CHL1  H23A  652   1.567   1.547   4.626 -0.2201 -0.6320 -0.2411
    9CHL1  H23B  653   1.526   1.377   4.649 -0.1357 -0.7995  0.9228
    9CHL1   C24  654   1.364   1.485   4.555  0.1441 -0.3128  0.5846
    9CHL1  H24A  655   1.278   1.428   4.596 -0.1918  0.3352  0.8115
    9CHL1  H24B  656   1.323   1.589   4.557 -3.3232 -1.5015  3.6027
    9CHL1   C25  657   1.397   1.422   4.418  0.3152  0.1381 -0.4134
    9CHL1   H25  658   1.455   1.331   4.445  1.9944  0.9355 -1.2010
    9CHL1   C26  659   1.266   1.368   4.346 -0.2316 -0.2144 -0.3537
    9CHL1  H26A  660   1.295   1.316   4.252 -1.1929 -0.2292 -0.6618
    9CHL1  H26B  661   1.206   1.307   4.418 -1.4919  0.7933 -0.5213
    9CHL1  H26C  662   1.196   1.446   4.310 -0.2462 -0.7313 -1.4898
    9CHL1   C27  663   1.475   1.516   4.323  0.5058  0.2919 -0.4624
    9CHL1  H27A  664   1.415   1.606   4.296 -0.0279  0.1290  0.1655
    9CHL1  H27B  665   1.569   1.546   4.373 -0.0974  0.9067  0.3340
    9CHL1  H27C  666   1.492   1.472   4.222 -0.1383 -0.4971 -0.2362
   10CHL1    C3  667   3.156   0.238   6.191 -0.1181 -0.2245 -0.0088
   10CHL1    H3  668   3.155   0.349   6.188 -2.5463 -0.2024 -0.6049
   10CHL1    O3  669   3.125   0.207   6.327 -0.1444  0.0249 -0.4984
   10CHL1   H3'  670   3.206   0.176   6.369 -0.3713  0.9683  0.6982
   10CHL1    C4  671   3.047   0.188   6.090  0.5770  0.6636  0.9921
   10CHL1   H4A  672   3.050   0.079   6.113 -0.9073  0.2722 -0.4391
   10CHL1   H4B  673   2.952   0.233   6.127  0.2169 -1.1501  2.4329
   10CHL1    C5  674   3.084   0.206   5.942 -0.5845 -0.3605  0.0436
   10CHL1    C6  675   3.012   0.280   5.861  0.7183  0.5062  0.2832
   10CHL1    H6  676   2.932   0.342   5.903  1.4692  2.8751 -1.5438
   10CHL1    C7  677   3.034   0.300   5.713  0.0508 -0.5314  0.1325
   10CHL1   H7A  678   2.942   0.285   5.653  0.9451  0.7629 -1.6316
   10CHL1   H7B  679   3.073   0.403   5.705 -0.4462 -0.3534 -0.0434
   10CHL1    C8  680   3.140   0.197   5.662  1.4047 -0.7647 -0.0116
   10CHL1    H8  681   3.087   0.101   5.647  1.6343 -0.7635 -0.9518
   10CHL1   C14  682   3.187   0.236   5.521 -0.2413 -0.5795  0.1758
   10CHL1   H14  683   3.241   0.333   5.522  0.5269 -0.9970 -0.1430
   10CHL1   C15  684   3.084   0.257   5.414  0.1661  0.0161 -0.1393
   10CHL1  H15A  685   3.003   0.181   5.416 -0.4557  0.4485 -3.0524
   10CHL1  H15B  686   3.026   0.351   5.430  0.1699 -0.1894  1.1385
   10CHL1   C16  687   3.158   0.243   5.277 -0.9472 -0.1117  0.3303
   10CHL1  H16A  688   3.115   0.159   5.219 -2.5254  0.3056  0.8389
   10CHL1  H16B  689   3.155   0.337   5.217  0.5947  0.3701  0.9692
   10CHL1   C17  690   3.297   0.195   5.314  0.0152 -0.4450  0.0783
   10CHL1   H17  691   3.355   0.288   5.328  0.8149 -0.8544 -0.4298
   10CHL1   C13  692   3.295   0.143   5.459  0.4553  0.2043 -0.5796
   10CHL1   C18  693   3.247  -0.005   5.450 -0.7049 -0.2165 -0.0550
   10CHL1  H18A  694   3.320  -0.069   5.396 -1.1658 -0.7085 -0.1097
   10CHL1  H18B  695   3.240  -0.037   5.556  1.3033 -0.7032 -0.0300
   10CHL1  H18C  696   3.149  -0.015   5.397 -0.1064 -0.3688 -1.1558
   10CHL1   C12  697   3.421   0.160   5.550 -0.4588 -0.6928  0.8529
   10CHL1  H12A  698   3.512   0.107   5.513 -1.1898 -0.0213 -2.2135
   10CHL1  H12B  699   3.435   0.268   5.573  0.3711 -0.7552  0.6840
   10CHL1   C11  700   3.394   0.119   5.698 -0.2763 -0.1397  0.1151
   10CHL1  H11A  701   3.381   0.009   5.700  0.7448 -0.2673  0.3975
   10CHL1  H11B  702   3.481   0.145   5.762 -1.7354  0.3133  2.0502
   10CHL1    C9  703   3.259   0.191   5.758 -0.4247  0.1354  0.8055
   10CHL1    H9  704   3.285   0.299   5.760 -1.4654  0.5144 -1.6800
   10CHL1   C10  705   3.220   0.150   5.899 -0.0627  0.5651 -0.2507
   10CHL1   C19  706   3.225  -0.010   5.915 -0.0475 -0.5879  0.1521
   10CHL1  H19A  707   3.329  -0.048   5.908  0.1898 -0.1464  1.0161
   10CHL1  H19B  708   3.179  -0.049   6.009 -1.7453  0.5246 -0.1701
   10CHL1  H19C  709   3.174  -0.059   5.830  0.0560  0.0462 -0.2833
   10CHL1    C1  710   3.324   0.213   6.001  0.3686 -0.3093  0.3001
   10CHL1   H1A  711   3.423   0.171   5.973  0.4184  1.0601 -1.8860
   10CHL1   H1B  712   3.337   0.323   5.992 -1.5119 -0.1775 -1.8176
   10CHL1    C2  713   3.293   0.185   6.147 -0.1628 -0.0623  0.1293
   10CHL1   H2A  714   3.375   0.225   6.210  0.3897 -0.0188 -0.5983
   10CHL1   H2B  715   3.293   0.078   6.179  0.8305  0.1587  0.9283
   10CHL1   C20  716   3.373   0.134   5.203 -0.0229  0.4020 -0.6644
   10CHL1   H20  717   3.320   0.038   5.185  0.3699 -0.1067  0.7379
   10CHL1   C21  718   3.516   0.114   5.264  0.1782  0.4070  0.6329
   10CHL1  H21A  719   3.526   0.022   5.325 -2.5637  0.3472  1.1457
   10CHL1  H21B  720   3.558   0.206   5.309  1.3530  1.1179 -1.7348
   10CHL1  H21C  721   3.579   0.099   5.174 -0.4222  5.4604 -0.9274
   10CHL1   C22  722   3.390   0.210   5.071 -0.3088  0.2422 -0.0049
   10CHL1  H22A  723   3.290   0.249   5.042 -0.4470 -0.3733 -0.3800
   10CHL1  H22B  724   3.459   0.295   5.091  0.7348  0.1403 -2.7956
   10CHL1   C23  725   3.434   0.113   4.952 -0.0171 -0.7119  0.2235
   10CHL1  H23A  726   3.540   0.079   4.964  0.7192  1.0066 -0.9570
   10CHL1  H23B  727   3.374   0.020   4.947 -1.0235 -0.0634  0.1015
   10CHL1   C24  728   3.438   0.179   4.809 -0.0462 -0.2262 -0.5407
   10CHL1  H24A  729   3.486   0.278   4.816 -0.6075  0.2314 -2.4973
   10CHL1  H24B  730   3.503   0.116   4.744  0.5233 -0.7243  0.4944
   10CHL1   C25  731   3.293   0.198   4.759  0.1072 -0.4500 -0.1038
   10CHL1   H25  732   3.245   0.279   4.817  0.1641  1.9431 -3.1469
   10CHL1   C26  733   3.301   0.253   4.619  1.2041  0.3642  0.3082
   10CHL1  H26A  734   3.202   0.292   4.588  0.5317 -0.8994  0.7781
   10CHL1  H26B  735   3.380   0.330   4.609  0.1320  1.3413 -0.9462
   10CHL1  H26C  736   3.307   0.166   4.550  0.7022 -0.5562  1.3900
   10CHL1   C27  737   3.206   0.071   4.756  0.5075 -0.2350 -1.2451
   10CHL1  H27A  738   3.247  -0.017   4.702 -1.1751 -0.6986 -1.8154
   10CHL1  H27B  739   3.176   0.044   4.860 -0.2784  2.0931 -0.8168
   10CHL1  H27C  740   3.109   0.087   4.705 -0.2630 -2.8875 -0.7612
   11CHL1    C3  741   1.577   6.782   5.956  0.2767 -0.3640  0.2390
   11CHL1    H3  742   1.571   6.890   5.981 -1.1336 -0.1819 -0.7843
   11CHL1    O3  743   1.629   6.718   6.072  0.1973  0.1124 -0.0662
   11CHL1   H3'  744   1.579   6.636   6.068 -0.4692  0.5632 -1.1112
   11CHL1    C4  745   1.436   6.733   5.930  1.1971 -0.6008 -0.5027
   11CHL1   H4A  746   1.434   6.623   5.947  1.4832 -0.6793 -0.9784
   11CHL1   H4B  747   1.372   6.784   6.006 -2.7732 -4.3627 -0.9517
   11CHL1    C5  748   1.382   6.762   5.791  0.0026  0.1001 -0.3028
   11CHL1    C6  749   1.262   6.821   5.775  0.5463  0.1265 -0.2471
   11CHL1    H6  750   1.203   6.832   5.867  2.4221 -1.2959  1.1951
   11CHL1    C7  751   1.211   6.856   5.638 -0.0209  0.3022  0.6194
   11CHL1   H7A  752   1.111   6.813   5.615  0.6206 -0.4019 -1.0191
   11CHL1   H7B  753   1.200   6.966   5.628  0.3547  0.3401  0.6150
   11CHL1    C8  754   1.300   6.806   5.515  0.0377  0.6005 -0.9477
   11CHL1    H8  755   1.279   6.696   5.515 -0.7308  0.6660  1.8638
   11CHL1   C14  756   1.263   6.878   5.386  0.1069 -0.0711  0.6117
   11CHL1   H14  757   1.293   6.984   5.401 -0.4049  0.1782 -0.0438
   11CHL1   C15  758   1.112   6.876   5.347 -0.2011 -0.0918 -0.0856
   11CHL1  H15A  759   1.061   6.784   5.383  1.2286 -0.4012  1.2561
   11CHL1  H15B  760   1.044   6.954   5.389 -1.7325 -1.5874  0.3149
   11CHL1   C16  761   1.116   6.886   5.196 -0.2391 -0.3870 -0.0145
   11CHL1  H16A  762   1.084   6.791   5.148  0.8603 -0.4250 -0.6992
   11CHL1  H16B  763   1.058   6.973   5.158 -3.5801 -2.4065  0.0284
   11CHL1   C17  764   1.267   6.897   5.163  0.2712 -0.4903  0.5200
   11CHL1   H17  765   1.293   7.003   5.182  0.3548 -0.4709  0.2960
   11CHL1   C13  766   1.336   6.820   5.267  0.1322  0.1512  0.0504
   11CHL1   C18  767   1.320   6.667   5.250  0.5854  0.5258  0.0013
   11CHL1  H18A  768   1.214   6.647   5.222  0.4909  1.6884 -0.5351
   11CHL1  H18B  769   1.382   6.643   5.161  0.7678  2.9664 -0.5850
   11CHL1  H18C  770   1.352   6.609   5.339 -1.1921  0.5401  0.6929
   11CHL1   C12  771   1.485   6.853   5.280 -0.2931  0.6337  0.4834
   11CHL1  H12A  772   1.545   6.814   5.195 -1.1996  0.5222 -0.1207
   11CHL1  H12B  773   1.502   6.963   5.289  2.3478  0.4056 -0.7324
   11CHL1   C11  774   1.535   6.802   5.418 -0.1675 -0.1050 -0.5751
   11CHL1  H11A  775   1.536   6.692   5.403 -0.5353  0.0698 -1.9933
   11CHL1  H11B  776   1.636   6.846   5.432 -0.2967 -0.0612  0.2722
   11CHL1    C9  777   1.448   6.823   5.542  0.3654 -0.1508  0.1786
   11CHL1    H9  778   1.465   6.930   5.563  2.7654 -0.3214 -0.5550
   11CHL1   C10  779   1.486   6.753   5.672 -0.4563  0.2556 -0.5550
   11CHL1   C19  780   1.508   6.599   5.649 -0.3240  0.2102  0.1916
   11CHL1  H19A  781   1.546   6.547   5.740  0.3822 -1.9605 -1.2941
   11CHL1  H19B  782   1.414   6.548   5.618 -0.3471  0.0439  0.5267
   11CHL1  H19C  783   1.575   6.579   5.563  0.3656  3.9082 -0.3004
   11CHL1    C1  784   1.621   6.826   5.712 -0.0560  0.3720 -0.2566
   11CHL1   H1A  785   1.693   6.822   5.628  0.5086 -0.5639  0.2476
   11CHL1   H1B  786   1.616   6.936   5.725  3.0777  0.3713  2.2895
   11CHL1    C2  787   1.677   6.774   5.845 -0.0814  0.0151  0.6496
   11CHL1   H2A  788   1.770   6.827   5.875 -1.0028  1.9256  0.2933
   11CHL1   H2B  789   1.705   6.667   5.833 -3.3137 -1.0825  1.9522
   11CHL1   C20  790   1.300   6.885   5.012 -0.1779  0.9181 -0.4558
   11CHL1   H20  791   1.321   6.777   4.996 -0.2741  0.5676  1.5722
   11CHL1   C21  792   1.429   6.967   4.968 -0.0815  0.4388 -0.3341
   11CHL1  H21A  793   1.463   6.926   4.871  0.8186  1.7355 -0.5974
   11CHL1  H21B  794   1.514   6.951   5.038 -0.0724 -0.0718 -0.4599
   11CHL1  H21C  795   1.392   7.072   4.964 -2.3583 -0.1855  1.7766
   11CHL1   C22  796   1.187   6.919   4.923 -0.1488  0.2400 -0.8722
   11CHL1  H22A  797   1.105   6.849   4.951  0.8524 -1.8223 -2.7827
   11CHL1  H22B  798   1.145   7.019   4.946 -1.2943 -0.5322  0.5535
   11CHL1   C23  799   1.214   6.927   4.772 -0.8713 -0.2947  0.7341
   11CHL1  H23A  800   1.278   7.017   4.757  1.4019 -1.7405  1.2244
   11CHL1  H23B  801   1.275   6.846   4.726  1.7377  1.5012  0.8116
   11CHL1   C24  802   1.080   6.934   4.699  0.4855 -0.3504  0.4736
   11CHL1  H24A  803   1.002   6.968   4.771  0.6743 -1.3871  1.1768
   11CHL1  H24B  804   1.078   7.010   4.618 -1.9186 -0.1048  0.6746
   11CHL1   C25  805   1.040   6.794   4.641  0.2627 -0.3504 -0.0994
   11CHL1   H25  806   1.044   6.723   4.726 -1.8623 -2.6097 -1.7700
   11CHL1   C26  807   0.899   6.794   4.601  0.1833  0.1364 -0.2772
   11CHL1  H26A  808   0.813   6.830   4.661 -1.5441 -3.3635 -0.3862
   11CHL1  H26B  809   0.903   6.838   4.499  0.4929 -0.0479 -0.3466
   11CHL1  H26C  810   0.861   6.690   4.586 -2.7326  1.2412 -1.2109
   11CHL1   C27  811   1.129   6.734   4.536  0.1935 -0.3434 -0.2240
   11CHL1  H27A  812   1.234   6.705   4.554  0.2237  0.9380  2.0901
   11CHL1  H27B  813   1.077   6.650   4.485 -0.5043  0.1294 -0.3014
   11CHL1  H27C  814   1.147   6.812   4.459  2.5387  0.0075  0.6021
   12CHL1    C3  815   2.100   6.130   5.630  0.1672  0.1724 -1.5036
   12CHL1    H3  816   2.058   6.233   5.631  0.9095  0.4915 -0.2156
   12CHL1    O3  817   2.116   6.088   5.769  0.1202 -0.0648  0.1467
   12CHL1   H3'  818   2.038   6.043   5.801 -2.0789  1.6628 -2.2814
   12CHL1    C4  819   1.985   6.045   5.561 -0.1728  0.0010  0.4171
   12CHL1   H4A  820   2.001   5.935   5.564 -0.3024 -0.0217  0.2904
   12CHL1   H4B  821   1.888   6.062   5.613 -0.2292 -1.7840  0.9619
   12CHL1    C5  822   1.980   6.082   5.415  0.3010  0.5792  0.0670
   12CHL1    C6  823   1.860   6.111   5.364  0.1841  1.2850  0.0146
   12CHL1    H6  824   1.780   6.097   5.439 -0.5591 -0.3257 -1.0183
   12CHL1    C7  825   1.831   6.132   5.216  0.4848 -0.0779 -0.7331
   12CHL1   H7A  826   1.750   6.060   5.188  0.6831 -1.4837  2.0068
   12CHL1   H7B  827   1.785   6.233   5.205 -0.2792 -0.5010 -1.5863
   12CHL1    C8  828   1.956   6.112   5.131 -0.2338 -0.1033  0.6073
   12CHL1    H8  829   1.953   6.004   5.105  1.2775  0.2758 -1.3195
   12CHL1   C14  830   1.947   6.194   5.000 -0.2070  0.7478 -0.2750
   12CHL1   H14  831   1.954   6.301   5.027 -1.6944  0.8994 -0.3895
   12CHL1   C15  832   1.816   6.187   4.917 -0.4895  0.0258  0.4081
   12CHL1  H15A  833   1.771   6.087   4.905  0.6539 -0.8135  2.5153
   12CHL1  H15B  834   1.739   6.239   4.978 -0.2845  0.2795  0.4562
   12CHL1   C16  835   1.860   6.254   4.783 -0.1845 -0.7653 -0.3209
   12CHL1  H16A  836   1.842   6.182   4.701 -0.1584  0.3476 -1.3212
   12CHL1  H16B  837   1.812   6.352   4.764 -0.7233 -0.7420  1.0232
   12CHL1   C17  838   2.014   6.266   4.796  0.1937 -0.2705  0.2729
   12CHL1   H17  839   2.035   6.364   4.843 -2.6262  1.2340 -1.3715
   12CHL1   C13  840   2.059   6.169   4.900 -0.3427  0.3748  0.6330
   12CHL1   C18  841   2.065   6.024   4.840 -0.1064  0.0786 -0.2309
   12CHL1  H18A  842   1.966   5.999   4.796 -1.3683  0.3835  2.2133
   12CHL1  H18B  843   2.148   6.004   4.770  1.4200 -2.8522  2.1643
   12CHL1  H18C  844   2.091   5.956   4.925  2.1074  0.6815 -0.3815
   12CHL1   C12  845   2.197   6.204   4.967 -0.9436  0.1687  0.0019
   12CHL1  H12A  846   2.283   6.183   4.900  0.7368  1.0337  1.7905
   12CHL1  H12B  847   2.208   6.309   5.001 -1.8780  0.3404 -0.1823
   12CHL1   C11  848   2.214   6.118   5.102 -0.1513 -0.4992  0.5683
   12CHL1  H11A  849   2.230   6.015   5.064  0.0069 -0.1898 -0.2389
   12CHL1  H11B  850   2.311   6.155   5.141  0.6561 -0.2538 -1.5065
   12CHL1    C9  851   2.094   6.141   5.195 -0.1452  0.1857  0.2937
   12CHL1    H9  852   2.086   6.249   5.221  0.0482 -0.7147  4.9927
   12CHL1   C10  853   2.111   6.077   5.337 -0.2292 -0.6422  0.4742
   12CHL1   C19  854   2.146   5.925   5.327 -0.1785  1.1042 -0.5409
   12CHL1  H19A  855   2.068   5.862   5.280  0.7928 -0.9048  0.3908
   12CHL1  H19B  856   2.242   5.894   5.281 -1.0471 -0.8166 -1.1813
   12CHL1  H19C  857   2.153   5.889   5.433 -3.9894 -0.5375 -0.7084
   12CHL1    C1  858   2.227   6.153   5.416 -0.1363  0.0468  0.4398
   12CHL1   H1A  859   2.323   6.138   5.362  1.1802  0.8937  2.4226
   12CHL1   H1B  860   2.217   6.263   5.413 -3.2335 -0.1001  1.9723
   12CHL1    C2  861   2.238   6.116   5.563 -0.0485  0.2358  0.1224
   12CHL1   H2A  862   2.319   6.180   5.602  3.0814 -2.1540 -1.9370
   12CHL1   H2B  863   2.276   6.012   5.575 -0.5042 -0.1255 -1.4422
   12CHL1   C20  864   2.099   6.290   4.668 -0.2663 -0.3791 -0.1257
   12CHL1   H20  865   2.205   6.273   4.698  0.7054  1.1125 -2.4210
   12CHL1   C21  866   2.083   6.438   4.616  0.1131 -0.3092  0.5864
   12CHL1  H21A  867   2.131   6.448   4.516 -1.6495 -2.1598 -0.5050
   12CHL1  H21B  868   2.134   6.498   4.696  0.4958  0.9106 -0.5335
   12CHL1  H21C  869   1.976   6.468   4.619  0.5594  1.4185  0.3978
   12CHL1   C22  870   2.072   6.194   4.551  0.6770  0.5336 -0.3510
   12CHL1  H22A  871   2.068   6.093   4.598  1.8958 -0.2161 -1.7583
   12CHL1  H22B  872   1.970   6.218   4.515  0.0449 -3.2694 -1.5497
   12CHL1   C23  873   2.175   6.193   4.433  0.1294 -0.1474 -0.0594
   12CHL1  H23A  874   2.176   6.288   4.376  0.1665 -0.0047  0.1776
   12CHL1  H23B  875   2.278   6.183   4.476 -0.2080  0.2977  0.8761
   12CHL1   C24  876   2.151   6.086   4.324  0.1131  0.3204  0.0660
   12CHL1  H24A  877   2.147   5.982   4.361  0.4453 -0.5467 -2.1662
   12CHL1  H24B  878   2.053   6.089   4.272 -0.2377  3.2059  0.7493
   12CHL1   C25  879   2.264   6.073   4.217  0.6188 -0.3019 -0.7155
   12CHL1   H25  880   2.358   6.050   4.272  0.1526 -0.2218  0.1302
   12CHL1   C26  881   2.242   5.946   4.134  0.0190 -0.3900 -0.3702
   12CHL1  H26A  882   2.335   5.928   4.076  0.1189 -0.4788 -0.1844
   12CHL1  H26B  883   2.213   5.854   4.188  0.6939 -0.1115  0.5080
   12CHL1  H26C  884   2.163   5.976   4.062 -0.4649  0.1965  0.3845
   12CHL1   C27  885   2.282   6.200   4.131  0.2128 -0.1082  0.0376
   12CHL1  H27A  886   2.366   6.192   4.059 -1.3924  0.2934 -1.9703
   12CHL1  H27B  887   2.191   6.213   4.068 -0.2153 -0.1566  0.6312
   12CHL1  H27C  888   2.284   6.297   4.185 -0.6913  1.5775 -2.7846
   13CHL1    C3  889   0.413   0.481   5.797  0.0204  0.1063  0.5239
   13CHL1    H3  890   0.365   0.381   5.786 -0.3226  0.4867 -1.8524
   13CHL1    O3  891   0.449   0.498   5.934 -0.2989 -0.1622 -0.0975
   13CHL1   H3'  892   0.536   0.540   5.940  0.2084 -1.2941  0.9698
   13CHL1    C4  893   0.537   0.501   5.709  0.4060  0.1598 -0.5806
   13CHL1   H4A  894   0.563   0.607   5.733 -2.1088  0.6452  0.3386
   13CHL1   H4B  895   0.618   0.433   5.744  1.9088  2.9974  1.9119
   13CHL1    C5  896   0.491   0.494   5.567  0.1759  0.3177  0.6669
   13CHL1    C6  897   0.547   0.393   5.491  0.1187 -0.7314  0.2183
   13CHL1    H6  898   0.631   0.333   5.530  0.9770 -0.0819 -0.5859
   13CHL1    C7  899   0.511   0.383   5.346  0.2906  0.1403  0.0607
   13CHL1   H7A  900   0.608   0.384   5.293 -1.1477  2.7950 -2.9144
   13CHL1   H7B  901   0.457   0.290   5.319  2.2181 -0.9314 -0.2833
   13CHL1    C8  902   0.438   0.505   5.290  0.1121 -0.7351  0.4348
   13CHL1    H8  903   0.513   0.587   5.283  0.2087 -0.8669 -0.1028
   13CHL1   C14  904   0.373   0.477   5.150  0.3164 -0.4897  0.5009
   13CHL1   H14  905   0.304   0.391   5.155 -0.2891 -0.1835 -1.4936
   13CHL1   C15  906   0.469   0.441   5.046 -0.6282 -0.0456 -0.3695
   13CHL1  H15A  907   0.559   0.505   5.060 -0.0620 -1.1766  1.5520
   13CHL1  H15B  908   0.512   0.339   5.061  0.6485  0.6266  0.7754
   13CHL1   C16  909   0.388   0.450   4.918  0.9533 -0.7246  0.4745
   13CHL1  H16A  910   0.444   0.515   4.847  0.9535  0.9060  1.9028
   13CHL1  H16B  911   0.354   0.351   4.881  0.4207 -0.2609 -0.3079
   13CHL1   C17  912   0.247   0.524   4.952 -0.6288  0.1268  0.4245
   13CHL1   H17  913   0.169   0.446   4.961  0.1136 -1.2810 -3.4899
   13CHL1   C13  914   0.283   0.587   5.089 -0.2804  0.6921  0.6649
   13CHL1   C18  915   0.364   0.713   5.065  0.3054 -0.4872 -0.0525
   13CHL1  H18A  916   0.438   0.706   4.983  1.0296  2.0711  0.3185
   13CHL1  H18B  917   0.297   0.796   5.037  1.0546 -0.7036 -2.6874
   13CHL1  H18C  918   0.420   0.742   5.157 -2.6486  2.2245  1.0792
   13CHL1   C12  919   0.168   0.591   5.185  0.5548 -0.3005 -0.8131
   13CHL1  H12A  920   0.097   0.670   5.154 -0.5011 -1.0779 -0.4338
   13CHL1  H12B  921   0.114   0.494   5.192 -1.6280  0.9494  0.9621
   13CHL1   C11  922   0.207   0.630   5.323 -0.1490 -0.1051 -0.0601
   13CHL1  H11A  923   0.241   0.735   5.307 -0.8763 -0.2920 -3.6151
   13CHL1  H11B  924   0.122   0.631   5.394  0.1992  1.6524  0.3687
   13CHL1    C9  925   0.317   0.539   5.384 -0.6598 -0.3390  0.0800
   13CHL1    H9  926   0.265   0.443   5.406  0.5741 -1.4968 -1.7184
   13CHL1   C10  927   0.376   0.585   5.523  0.2751 -0.9917  0.2362
   13CHL1   C19  928   0.418   0.736   5.512 -0.3615  0.2320 -0.2957
   13CHL1  H19A  929   0.444   0.762   5.617  0.4940 -1.1690 -0.1436
   13CHL1  H19B  930   0.509   0.755   5.452 -1.3534  4.1814 -0.8372
   13CHL1  H19C  931   0.331   0.798   5.479 -0.3024 -0.5325 -1.9817
   13CHL1    C1  932   0.263   0.571   5.625 -0.1386  0.3467 -0.9975
   13CHL1   H1A  933   0.174   0.634   5.603 -1.9269 -2.2484 -1.5827
   13CHL1   H1B  934   0.215   0.471   5.623  0.3123 -0.0663  2.5105
   13CHL1    C2  935   0.301   0.581   5.772  0.3984 -0.2076 -0.1887
   13CHL1   H2A  936   0.215   0.568   5.842  0.5596  2.5551  0.6504
   13CHL1   H2B  937   0.340   0.681   5.801  0.4661  0.4484 -2.3768
   13CHL1   C20  938   0.200   0.617   4.844  0.9381  0.1206 -0.8527
   13CHL1   H20  939   0.285   0.687   4.829  0.9269  0.5229  0.7840
   13CHL1   C21  940   0.075   0.693   4.882  0.8360 -0.0884 -0.5063
   13CHL1  H21A  941  -0.001   0.632   4.936  1.4749 -1.2794 -0.9153
   13CHL1  H21B  942   0.021   0.741   4.797 -2.2162  2.2378  2.4395
   13CHL1  H21C  943   0.098   0.782   4.943 -0.9967  0.2917 -0.2971
   13CHL1   C22  944   0.185   0.551   4.705  0.3121  0.3169 -0.3181
   13CHL1  H22A  945   0.151   0.445   4.712 -0.8706  0.4324 -3.0066
   13CHL1  H22B  946   0.108   0.612   4.653 -1.1323  0.3257  1.7207
   13CHL1   C23  947   0.309   0.542   4.619 -0.0075 -0.2502 -0.1462
   13CHL1  H23A  948   0.346   0.647   4.610  1.8293 -0.6810  1.5609
   13CHL1  H23B  949   0.389   0.480   4.665  0.1977 -2.7941 -3.5687
   13CHL1   C24  950   0.274   0.488   4.487  0.0964 -0.3465  0.3079
   13CHL1  H24A  951   0.364   0.485   4.421 -0.1419 -0.7540 -0.0020
   13CHL1  H24B  952   0.253   0.381   4.505  0.0513 -0.2398  0.9018
   13CHL1   C25  953   0.174   0.565   4.410  0.5633 -0.5308  0.0779
   13CHL1   H25  954   0.080   0.587   4.465  1.2603 -1.5568  1.7573
   13CHL1   C26  955   0.233   0.706   4.366  0.4344 -0.2779  0.3287
   13CHL1  H26A  956   0.333   0.698   4.318  0.7631 -0.6603  1.0596
   13CHL1  H26B  957   0.163   0.762   4.300 -0.1681 -0.7803  0.5272
   13CHL1  H26C  958   0.238   0.770   4.456 -2.3329 -1.6353  1.5664
   13CHL1   C27  959   0.140   0.487   4.279 -0.0469  0.5191 -0.4542
   13CHL1  H27A  960   0.094   0.388   4.295 -0.0720  0.8687  2.1089
   13CHL1  H27B  961   0.071   0.558   4.231 -0.3222 -0.8011 -2.0847
   13CHL1  H27C  962   0.233   0.484   4.217 -1.0669 -0.9309 -1.9745
   14CHL1    C3  963   0.146   3.676   5.716 -0.2737  0.2652 -0.1086
   14CHL1    H3  964   0.099   3.576   5.709  4.7350 -2.3466 -0.8970
   14CHL1    O3  965   0.199   3.708   5.844  1.2704 -0.0647  0.0520
   14CHL1   H3'  966   0.224   3.801   5.835  0.4421  0.5174  2.9074
   14CHL1    C4  967   0.263   3.688   5.612  0.0064  0.8085 -0.1390
   14CHL1   H4A  968   0.320   3.778   5.643  0.2271  0.8605 -0.6875
   14CHL1   H4B  969   0.330   3.602   5.631 -1.2492 -0.2405 -0.3329
   14CHL1    C5  970   0.217   3.684   5.470  0.0099  0.4024 -0.1771
   14CHL1    C6  971   0.263   3.587   5.384 -1.1401  0.1781  0.6871
   14CHL1    H6  972   0.340   3.518   5.422  0.9299  2.9943  1.9253
   14CHL1    C7  973   0.231   3.579   5.241  0.0803  0.1258  0.1640
   14CHL1   H7A  974   0.317   3.541   5.182 -1.3370  0.3259 -2.1613
   14CHL1   H7B  975   0.151   3.502   5.242  1.7605 -1.7253  2.4831
   14CHL1    C8  976   0.171   3.715   5.194  0.8727 -0.5915  0.6173
   14CHL1    H8  977   0.253   3.787   5.176 -0.0132 -0.2159 -2.4189
   14CHL1   C14  978   0.102   3.687   5.056 -0.1268 -0.4731 -0.2695
   14CHL1   H14  979   0.021   3.612   5.072 -1.3190  0.8197 -0.0108
   14CHL1   C15  980   0.182   3.616   4.943 -1.0882  0.2046 -0.3659
   14CHL1  H15A  981   0.283   3.662   4.951  0.0556 -2.2840  0.3978
   14CHL1  H15B  982   0.196   3.509   4.968 -1.4274 -0.2478 -1.9697
   14CHL1   C16  983   0.102   3.651   4.817  0.0077 -0.0829  0.9138
   14CHL1  H16A  984   0.162   3.704   4.740  0.6688 -1.1209  0.6905
   14CHL1  H16B  985   0.053   3.564   4.769 -0.7868  0.7166  0.2433
   14CHL1   C17  986  -0.017   3.747   4.863  0.0214 -0.4937 -0.8164
   14CHL1   H17  987  -0.092   3.669   4.887  3.3357 -4.2146 -1.5586
   14CHL1   C13  988   0.032   3.811   4.993 -0.6114 -0.2481 -0.0709
   14CHL1   C18  989   0.138   3.917   4.959 -0.2108  0.1670 -0.5852
   14CHL1  H18A  990   0.217   3.883   4.888 -0.7082  0.0729 -1.1075
   14CHL1  H18B  991   0.084   3.997   4.903  0.3221  0.9495 -0.0072
   14CHL1  H18C  992   0.176   3.955   5.056 -2.8082 -1.1376  1.0665
   14CHL1   C12  993  -0.076   3.863   5.083  0.2425 -0.3580  0.2938
   14CHL1  H12A  994  -0.114   3.964   5.053  2.0283  0.4174  0.5510
   14CHL1  H12B  995  -0.164   3.795   5.081 -1.0246  1.1685  1.4750
   14CHL1   C11  996  -0.020   3.890   5.225  0.9673 -0.4074  0.1225
   14CHL1  H11A  997   0.052   3.974   5.219 -0.9412  1.4342  1.7329
   14CHL1  H11B  998  -0.096   3.918   5.301 -0.0727 -0.3908 -0.8856
   14CHL1    C9  999   0.060   3.769   5.287 -1.0725  0.2231  0.6732
   14CHL1    H9 1000  -0.009   3.683   5.299 -1.3345  0.6779  3.0846
   14CHL1   C10 1001   0.111   3.789   5.438 -0.4695 -0.3396 -0.1583
   14CHL1   C19 1002   0.172   3.929   5.450  0.0958 -0.1969 -0.0985
   14CHL1  H19A 1003   0.223   3.952   5.546 -0.0928  0.4789 -0.1550
   14CHL1  H19B 1004   0.257   3.930   5.379  0.6878 -2.5856  0.4942
   14CHL1  H19C 1005   0.096   4.009   5.438  1.7427  1.3550 -0.5861
   14CHL1    C1 1006  -0.011   3.784   5.541 -1.0031  0.9732 -0.1928
   14CHL1   H1A 1007  -0.075   3.873   5.523 -2.6605  0.1481  1.3095
   14CHL1   H1B 1008  -0.079   3.699   5.526  0.0959 -0.2401  1.3452
   14CHL1    C2 1009   0.036   3.778   5.693  0.5392 -0.3494  0.3136
   14CHL1   H2A 1010  -0.049   3.744   5.757  0.6719 -3.1648 -0.8270
   14CHL1   H2B 1011   0.066   3.878   5.730  2.0827 -1.2548  1.6183
   14CHL1   C20 1012  -0.067   3.833   4.743  0.1335  1.1446 -0.4100
   14CHL1   H20 1013   0.011   3.905   4.713  2.3332 -0.8704  0.1540
   14CHL1   C21 1014  -0.191   3.903   4.799  0.3944 -0.2547  0.6006
   14CHL1  H21A 1015  -0.142   3.979   4.864  0.3382  0.1342  0.1930
   14CHL1  H21B 1016  -0.266   3.833   4.842 -1.2801  1.8462  1.2784
   14CHL1  H21C 1017  -0.245   3.949   4.713 -0.3099 -2.6161 -0.3001
   14CHL1   C22 1018  -0.108   3.754   4.617  0.3114 -0.0682 -0.2304
   14CHL1  H22A 1019  -0.025   3.682   4.605 -0.5809 -1.1535 -0.0810
   14CHL1  H22B 1020  -0.197   3.690   4.638 -0.0953 -0.2400 -2.2554
   14CHL1   C23 1021  -0.149   3.828   4.489 -0.0265 -0.4050  0.4453
   14CHL1  H23A 1022  -0.240   3.883   4.519  0.7704 -0.5250  3.3790
   14CHL1  H23B 1023  -0.068   3.896   4.454  0.6370 -0.5149  1.7033
   14CHL1   C24 1024  -0.197   3.725   4.383  0.8629 -0.2319 -0.2971
   14CHL1  H24A 1025  -0.117   3.649   4.368  1.4169  0.2820 -0.0171
   14CHL1  H24B 1026  -0.282   3.669   4.427 -0.2461 -0.0011 -2.0796
   14CHL1   C25 1027  -0.240   3.799   4.256  0.0143 -0.3831  0.4079
   14CHL1   H25 1028  -0.316   3.874   4.284  1.4519  0.9170  1.0086
   14CHL1   C26 1029  -0.123   3.889   4.191 -0.6824  0.7859  0.1566
   14CHL1  H26A 1030  -0.071   3.959   4.261 -0.4786  1.4491 -0.6492
   14CHL1  H26B 1031  -0.048   3.832   4.132 -0.6711 -0.8606  1.6745
   14CHL1  H26C 1032  -0.168   3.965   4.124 -0.2303  1.4146  0.5531
   14CHL1   C27 1033  -0.288   3.710   4.142  0.1013 -0.4411  0.0037
   14CHL1  H27A 1034  -0.289   3.769   4.048 -0.8082 -0.7998 -0.2249
   14CHL1  H27B 1035  -0.212   3.631   4.120  0.6856  0.4612 -1.3964
   14CHL1  H27C 1036  -0.386   3.662   4.164 -0.1407  0.2881  0.5226
   15CHL1    C3 1037   6.241   3.961   6.075 -0.3229  0.1231 -0.0827
   15CHL1    H3 1038   6.203   3.860   6.050  1.2987 -0.4349 -0.3691
   15CHL1    O3 1039   6.243   3.983   6.213  0.1723 -0.0627  0.0609
   15CHL1   H3' 1040   6.317   4.043   6.225 -0.3245  0.7881 -0.9778
   15CHL1    C4 1041   6.374   3.985   6.005  0.1883  0.0319 -0.0820
   15CHL1   H4A 1042   6.405   4.092   6.018  0.2225  0.1219 -0.8667
   15CHL1   H4B 1043   6.447   3.918   6.056 -1.2764 -1.8550 -0.3881
   15CHL1    C5 1044   6.372   3.957   5.853  0.1543  0.2419  0.9881
   15CHL1    C6 1045   6.460   3.869   5.799  0.7014 -0.4043  0.4099
   15CHL1    H6 1046   6.532   3.822   5.868  1.8534 -0.5453 -0.8587
   15CHL1    C7 1047   6.462   3.818   5.655 -0.7194  0.6458 -0.0972
   15CHL1   H7A 1048   6.563   3.820   5.610 -0.1152 -0.2360  1.1762
   15CHL1   H7B 1049   6.435   3.711   5.663  0.3651  0.4350  0.8933
   15CHL1    C8 1050   6.370   3.912   5.564 -0.2532  1.1855 -0.2026
   15CHL1    H8 1051   6.421   4.010   5.558 -1.6354  1.8508 -1.9897
   15CHL1   C14 1052   6.355   3.873   5.424 -0.0147  0.4170  0.4339
   15CHL1   H14 1053   6.307   3.775   5.408  0.5165  0.5824 -2.8755
   15CHL1   C15 1054   6.488   3.862   5.344  0.0402  0.3019  0.4806
   15CHL1  H15A 1055   6.558   3.941   5.379  1.5756 -0.1951 -1.3107
   15CHL1  H15B 1056   6.530   3.761   5.360  0.5329  0.3335 -0.5750
   15CHL1   C16 1057   6.447   3.884   5.191 -0.2007 -0.1183 -0.9704
   15CHL1  H16A 1058   6.508   3.961   5.139 -2.4923  1.2418 -1.7690
   15CHL1  H16B 1059   6.456   3.799   5.120 -0.7898 -1.7313  0.7932
   15CHL1   C17 1060   6.294   3.922   5.196 -0.2884  0.3389 -0.0471
   15CHL1   H17 1061   6.238   3.827   5.190  0.5090 -0.1506  0.0286
   15CHL1   C13 1062   6.273   3.971   5.337 -0.5197 -0.5524 -0.3919
   15CHL1   C18 1063   6.326   4.115   5.343  0.0910 -0.0711  0.3085
   15CHL1  H18A 1064   6.317   4.155   5.446  2.3372 -1.7476  1.2317
   15CHL1  H18B 1065   6.431   4.120   5.309 -1.0228  0.2935 -3.5105
   15CHL1  H18C 1066   6.267   4.185   5.279 -1.8906 -1.9535 -0.0430
   15CHL1   C12 1067   6.128   3.962   5.391  0.3231  0.2981 -0.5535
   15CHL1  H12A 1068   6.070   4.034   5.331 -2.3341 -0.4697  0.9409
   15CHL1  H12B 1069   6.083   3.861   5.381  0.2657  0.3129 -0.4486
   15CHL1   C11 1070   6.127   4.010   5.540 -0.4554 -0.3247  0.1622
   15CHL1  H11A 1071   6.127   4.121   5.543 -1.8209 -0.1452 -2.6672
   15CHL1  H11B 1072   6.027   3.984   5.581 -1.3896  2.5489 -0.0116
   15CHL1    C9 1073   6.233   3.942   5.635 -0.6880  0.4500 -0.2275
   15CHL1    H9 1074   6.195   3.842   5.667  0.6603  0.5402  1.8643
   15CHL1   C10 1075   6.253   4.014   5.770  1.1285 -0.2925 -0.5312
   15CHL1   C19 1076   6.269   4.166   5.749 -0.3600 -0.1127 -0.7971
   15CHL1  H19A 1077   6.175   4.208   5.707 -0.9480  0.0953  0.6691
   15CHL1  H19B 1078   6.293   4.215   5.846  1.1130  0.2483 -1.3242
   15CHL1  H19C 1079   6.353   4.187   5.680  0.1399  3.0767  0.5662
   15CHL1    C1 1080   6.123   4.000   5.860  0.1722 -0.5019 -0.1696
   15CHL1   H1A 1081   6.045   4.058   5.805  1.2556  1.2455  0.0318
   15CHL1   H1B 1082   6.091   3.894   5.862  0.2577 -0.5144  0.8813
   15CHL1    C2 1083   6.134   4.051   6.009  0.7616 -0.0889  0.0882
   15CHL1   H2A 1084   6.030   4.043   6.048  0.7061  0.5729  0.0913
   15CHL1   H2B 1085   6.164   4.158   6.012 -0.6426  0.3092  1.1968
   15CHL1   C20 1086   6.253   4.008   5.071  0.4852 -0.2806 -0.6940
   15CHL1   H20 1087   6.320   4.096   5.064  0.2401 -0.0811 -0.5171
   15CHL1   C21 1088   6.096   4.047   5.087  0.6520  0.4999  0.4391
   15CHL1  H21A 1089   6.087   4.129   5.161 -0.0115  1.0451 -0.2255
   15CHL1  H21B 1090   6.038   3.963   5.133  0.0203  1.0362  0.6323
   15CHL1  H21C 1091   6.036   4.075   4.997 -0.9894 -1.0298  0.9886
   15CHL1   C22 1092   6.276   3.922   4.944  0.6502 -0.3778 -0.3985
   15CHL1  H22A 1093   6.383   3.894   4.935  0.3700 -1.6704  0.1031
   15CHL1  H22B 1094   6.216   3.828   4.946  0.9645 -0.5653  0.5984
   15CHL1   C23 1095   6.223   3.992   4.812  0.0911 -0.2954 -0.6827
   15CHL1  H23A 1096   6.113   4.004   4.818  0.2972  1.3676  0.4076
   15CHL1  H23B 1097   6.265   4.095   4.809  1.4047 -0.6491  2.1643
   15CHL1   C24 1098   6.271   3.923   4.687 -0.0981  0.6091  0.7376
   15CHL1  H24A 1099   6.376   3.891   4.704 -1.6766 -3.8574  3.7606
   15CHL1  H24B 1100   6.214   3.829   4.672  3.3369 -1.1706 -3.0439
   15CHL1   C25 1101   6.263   4.008   4.561  0.1822  0.1561 -0.0232
   15CHL1   H25 1102   6.338   4.090   4.567  0.7575 -0.0675 -2.7817
   15CHL1   C26 1103   6.305   3.911   4.446 -0.9234  0.6868  0.1651
   15CHL1  H26A 1104   6.218   3.850   4.415  1.6084 -1.7345 -2.9596
   15CHL1  H26B 1105   6.338   3.954   4.350  1.9171  0.4121  0.9233
   15CHL1  H26C 1106   6.391   3.850   4.484  0.3130  2.5683  0.5332
   15CHL1   C27 1107   6.134   4.073   4.531 -0.2308  1.0200 -0.2143
   15CHL1  H27A 1108   6.091   4.148   4.601 -1.4875  2.3714 -2.3415
   15CHL1  H27B 1109   6.134   4.109   4.426  0.7177 -1.7793 -1.2628
   15CHL1  H27C 1110   6.059   3.991   4.528 -0.0232  0.8080 -3.4616
   16CHL1    C3 1111   6.397   4.671   5.845  0.4169 -0.0502 -0.4641
   16CHL1    H3 1112   6.505   4.674   5.818  0.4575 -0.2789 -0.3285
   16CHL1    O3 1113   6.372   4.682   5.986 -0.7980 -0.0392  0.7535
   16CHL1   H3' 1114   6.283   4.716   5.996 -0.8821 -0.6380  2.2073
   16CHL1    C4 1115   6.339   4.795   5.767  0.6369 -0.9000 -0.0541
   16CHL1   H4A 1116   6.231   4.804   5.794  0.3211 -1.9459 -0.8615
   16CHL1   H4B 1117   6.398   4.880   5.806 -3.0873  1.8083  0.2654
   16CHL1    C5 1118   6.347   4.783   5.621 -0.3691  0.0196 -0.5872
   16CHL1    C6 1119   6.399   4.882   5.539  0.7091 -0.0544  0.6082
   16CHL1    H6 1120   6.433   4.978   5.580 -2.0611 -0.0365  3.3109
   16CHL1    C7 1121   6.391   4.869   5.388  0.5912  0.4142  0.3482
   16CHL1   H7A 1122   6.370   4.965   5.336  0.8145 -0.5786 -1.6619
   16CHL1   H7B 1123   6.487   4.826   5.353  0.9511  2.7229 -1.8167
   16CHL1    C8 1124   6.288   4.763   5.334  0.4499 -0.1112 -0.3610
   16CHL1    H8 1125   6.184   4.800   5.338  0.5741  0.1655  0.3180
   16CHL1   C14 1126   6.326   4.728   5.191  0.6552  0.4542  0.0854
   16CHL1   H14 1127   6.425   4.678   5.188 -0.5297 -2.1433  0.9481
   16CHL1   C15 1128   6.343   4.836   5.089 -0.7047 -0.5346  0.4712
   16CHL1  H15A 1129   6.259   4.908   5.086  0.5847  1.0106 -0.6593
   16CHL1  H15B 1130   6.437   4.894   5.090 -0.8163 -0.3567  2.1797
   16CHL1   C16 1131   6.358   4.759   4.951  0.8578 -0.5043 -0.8526
   16CHL1  H16A 1132   6.283   4.804   4.883 -0.2669  1.9727  1.8216
   16CHL1  H16B 1133   6.457   4.752   4.902  0.4633 -0.6799 -1.6479
   16CHL1   C17 1134   6.300   4.615   4.980 -0.0177 -1.2275  0.7635
   16CHL1   H17 1135   6.385   4.543   4.984 -0.6186 -1.9067  1.6197
   16CHL1   C13 1136   6.237   4.619   5.123 -0.0517 -0.3549 -0.2674
   16CHL1   C18 1137   6.086   4.670   5.095 -0.4695  0.7509  0.5456
   16CHL1  H18A 1138   6.079   4.761   5.031 -1.4785  0.1890 -0.1656
   16CHL1  H18B 1139   6.024   4.585   5.059  0.0967  0.5849 -0.0583
   16CHL1  H18C 1140   6.051   4.705   5.194  1.1823  0.5809  1.2192
   16CHL1   C12 1141   6.248   4.489   5.197  0.2017 -0.1876  0.2234
   16CHL1  H12A 1142   6.170   4.422   5.156 -0.7467  0.9148  0.1918
   16CHL1  H12B 1143   6.352   4.453   5.177  1.3572  0.5737  3.9542
   16CHL1   C11 1144   6.215   4.514   5.348  0.3681  0.1732 -0.1093
   16CHL1  H11A 1145   6.109   4.548   5.352  0.4979  0.4603  2.0267
   16CHL1  H11B 1146   6.211   4.416   5.400 -0.9638 -1.6317 -3.3058
   16CHL1    C9 1147   6.293   4.631   5.414  0.7567  0.2769  0.8381
   16CHL1    H9 1148   6.400   4.605   5.396  0.0551 -1.9295 -0.5835
   16CHL1   C10 1149   6.270   4.646   5.570 -0.8056 -0.1883  0.1720
   16CHL1   C19 1150   6.115   4.649   5.587 -0.2139  0.6773 -0.4896
   16CHL1  H19A 1151   6.057   4.709   5.514 -1.0625  0.3722 -0.0823
   16CHL1  H19B 1152   6.074   4.546   5.580 -0.7893  0.7826  0.9510
   16CHL1  H19C 1153   6.095   4.682   5.691 -0.5091  2.1655 -1.0045
   16CHL1    C1 1154   6.329   4.527   5.640 -0.8697 -0.1657 -0.2592
   16CHL1   H1A 1155   6.281   4.433   5.608 -3.0734 -0.2769  2.9010
   16CHL1   H1B 1156   6.437   4.526   5.613 -0.8837  1.6497 -0.4980
   16CHL1    C2 1157   6.335   4.537   5.795  0.2168 -0.1074  0.2017
   16CHL1   H2A 1158   6.394   4.454   5.839 -2.2412 -2.3976 -0.5799
   16CHL1   H2B 1159   6.233   4.529   5.839  0.8744 -3.0520  1.4311
   16CHL1   C20 1160   6.212   4.564   4.859 -0.0462 -0.8267 -0.1248
   16CHL1   H20 1161   6.127   4.634   4.844  2.0343  1.8526 -0.1753
   16CHL1   C21 1162   6.175   4.420   4.872 -0.0440 -0.1646  0.9042
   16CHL1  H21A 1163   6.264   4.357   4.894  0.2005  0.0348  0.4927
   16CHL1  H21B 1164   6.135   4.388   4.773 -1.9954  1.7095  1.0236
   16CHL1  H21C 1165   6.102   4.403   4.954 -1.1499 -2.0008 -0.3807
   16CHL1   C22 1166   6.289   4.583   4.720 -0.4247 -0.1004  0.9052
   16CHL1  H22A 1167   6.331   4.686   4.712  1.8934 -1.0884 -0.7166
   16CHL1  H22B 1168   6.380   4.520   4.732  0.1719  0.9477  2.1853
   16CHL1   C23 1169   6.214   4.549   4.588  0.4416 -0.1325 -0.1035
   16CHL1  H23A 1170   6.184   4.442   4.592 -1.5822  0.4034  0.2299
   16CHL1  H23B 1171   6.123   4.611   4.576  1.2745  1.3747  0.9877
   16CHL1   C24 1172   6.299   4.573   4.463  0.8071 -0.1011  0.1971
   16CHL1  H24A 1173   6.350   4.672   4.465  1.4097 -0.2924 -2.1192
   16CHL1  H24B 1174   6.371   4.488   4.461  0.9582  0.0320 -0.1392
   16CHL1   C25 1175   6.204   4.573   4.336 -0.5789  0.4485 -0.6304
   16CHL1   H25 1176   6.274   4.557   4.251 -0.4520 -0.8436 -0.3007
   16CHL1   C26 1177   6.105   4.459   4.326  0.3290 -0.9071 -0.3536
   16CHL1  H26A 1178   6.034   4.464   4.412 -2.3676  0.7689 -2.4971
   16CHL1  H26B 1179   6.044   4.449   4.234  1.8523  1.0095 -1.6351
   16CHL1  H26C 1180   6.160   4.363   4.338 -0.7895 -1.4081  1.2799
   16CHL1   C27 1181   6.133   4.709   4.312 -0.0503  0.4671  0.1840
   16CHL1  H27A 1182   6.087   4.699   4.212  1.4849  2.2460 -0.7774
   16CHL1  H27B 1183   6.066   4.741   4.395 -0.5729  3.4605 -1.2427
   16CHL1  H27C 1184   6.212   4.787   4.301  2.0033 -1.1875  2.1275
   17CHL1    C3 1185   6.805   4.717   5.796  0.3149  0.1891  0.8924
   17CHL1    H3 1186   6.743   4.631   5.760  2.6277 -1.3358  0.3635
   17CHL1    O3 1187   6.818   4.717   5.939  0.1990  0.2853 -0.4264
   17CHL1   H3' 1188   6.887   4.651   5.949 -0.0906 -0.0252 -0.4356
   17CHL1    C4 1189   6.947   4.707   5.736  0.4635 -0.1404 -1.1127
   17CHL1   H4A 1190   7.007   4.790   5.779 -0.0949 -1.4593  2.5221
   17CHL1   H4B 1191   6.995   4.612   5.767  0.6688 -0.0222 -1.0633
   17CHL1    C5 1192   6.945   4.722   5.588  0.2598 -0.0491  0.5877
   17CHL1    C6 1193   6.985   4.621   5.506  0.1381  0.7145  0.1301
   17CHL1    H6 1194   7.028   4.534   5.557  2.8064  1.5292 -0.5706
   17CHL1    C7 1195   7.000   4.638   5.358 -0.1699 -0.0217  0.2826
   17CHL1   H7A 1196   7.097   4.616   5.307 -1.0393 -0.3187 -1.3267
   17CHL1   H7B 1197   6.943   4.560   5.303  0.1455 -0.1148  0.0835
   17CHL1    C8 1198   6.967   4.775   5.305 -0.4963  0.0684  0.4202
   17CHL1    H8 1199   7.062   4.832   5.308  0.5914 -1.7226  2.1358
   17CHL1   C14 1200   6.912   4.765   5.162 -0.5026 -0.5295  0.4204
   17CHL1   H14 1201   6.819   4.704   5.172  0.0541 -1.0993  2.3910
   17CHL1   C15 1202   6.993   4.690   5.058  0.1850 -0.1300  1.0652
   17CHL1  H15A 1203   7.099   4.721   5.065  0.0247  1.0719 -1.1046
   17CHL1  H15B 1204   6.994   4.580   5.074 -2.7287 -0.3776  0.0471
   17CHL1   C16 1205   6.919   4.717   4.924 -0.4013  0.4989 -0.2016
   17CHL1  H16A 1206   6.998   4.739   4.849  0.1404 -2.5944 -0.6613
   17CHL1  H16B 1207   6.864   4.629   4.886 -0.4354  0.8415 -0.9760
   17CHL1   C17 1208   6.825   4.837   4.952 -0.3631  0.6849  0.1881
   17CHL1   H17 1209   6.731   4.787   4.984  0.0517 -0.0155  0.3386
   17CHL1   C13 1210   6.874   4.896   5.083 -0.7575 -0.0794 -0.1110
   17CHL1   C18 1211   7.000   4.989   5.075  0.1605  0.0514  0.7901
   17CHL1  H18A 1212   7.070   4.943   5.002 -0.5660 -1.7009  1.1324
   17CHL1  H18B 1213   6.961   5.080   5.025  0.4106 -0.3049 -0.0847
   17CHL1  H18C 1214   7.037   5.035   5.169 -3.3583  2.3667  1.2315
   17CHL1   C12 1215   6.770   4.976   5.172 -0.1393  0.7208  0.5542
   17CHL1  H12A 1216   6.752   5.076   5.128 -0.7258  0.0137 -0.8947
   17CHL1  H12B 1217   6.670   4.929   5.164  0.4038 -0.5051  0.6323
   17CHL1   C11 1218   6.808   4.989   5.319 -0.3140  0.5647 -0.2956
   17CHL1  H11A 1219   6.902   5.049   5.321  1.3237 -1.8358  1.8859
   17CHL1  H11B 1220   6.727   5.029   5.383  1.8189  1.4431  2.0262
   17CHL1    C9 1221   6.854   4.856   5.381 -0.7822 -0.4456 -0.4271
   17CHL1    H9 1222   6.766   4.794   5.356  0.5861 -2.0702 -1.4356
   17CHL1   C10 1223   6.878   4.857   5.538  0.4682 -0.6372  0.1738
   17CHL1   C19 1224   6.965   4.973   5.566  0.9290  0.3304 -0.1157
   17CHL1  H19A 1225   6.977   4.977   5.676 -1.5160 -0.7567  0.2487
   17CHL1  H19B 1226   7.063   4.964   5.515  0.2542 -0.9199 -1.2606
   17CHL1  H19C 1227   6.915   5.069   5.542 -1.9954 -0.5763  1.8192
   17CHL1    C1 1228   6.738   4.873   5.604  0.2244 -0.0834 -0.1050
   17CHL1   H1A 1229   6.688   4.970   5.583  0.7528  0.1079 -0.5144
   17CHL1   H1B 1230   6.672   4.801   5.552 -1.1025 -1.0999  2.7839
   17CHL1    C2 1231   6.742   4.853   5.759  0.2890 -0.0304 -0.4095
   17CHL1   H2A 1232   6.637   4.858   5.796  0.9113 -1.9519  1.8620
   17CHL1   H2B 1233   6.797   4.933   5.812  0.8006 -0.9620  0.4981
   17CHL1   C20 1234   6.807   4.927   4.824 -0.2344 -0.2742 -0.4013
   17CHL1   H20 1235   6.906   4.955   4.779 -0.0385  0.4918  0.4868
   17CHL1   C21 1236   6.739   5.054   4.859  0.2259 -0.3651 -0.0742
   17CHL1  H21A 1237   6.717   5.116   4.769  0.3270  0.7439  0.6459
   17CHL1  H21B 1238   6.807   5.117   4.920  0.0205  1.1724 -1.3927
   17CHL1  H21C 1239   6.635   5.047   4.899  0.6414  1.8053  1.5370
   17CHL1   C22 1240   6.730   4.847   4.722  0.2409  0.0018  0.1412
   17CHL1  H22A 1241   6.785   4.757   4.688  0.3965  1.3786 -3.7652
   17CHL1  H22B 1242   6.645   4.811   4.783  1.4416 -1.2371  1.1491
   17CHL1   C23 1243   6.686   4.914   4.592  0.3193 -0.5446 -0.2417
   17CHL1  H23A 1244   6.606   4.987   4.616  1.5269  0.4851  0.8448
   17CHL1  H23B 1245   6.775   4.961   4.545 -0.4414 -1.8567 -3.1894
   17CHL1   C24 1246   6.641   4.820   4.482  0.0664  0.4666  0.0371
   17CHL1  H24A 1247   6.717   4.739   4.475 -0.8532 -0.7411  2.6639
   17CHL1  H24B 1248   6.547   4.779   4.524 -0.1380  0.9937  0.0964
   17CHL1   C25 1249   6.621   4.862   4.336 -0.4433  0.5890  0.2199
   17CHL1   H25 1250   6.725   4.888   4.306  0.1702  0.5483  2.1858
   17CHL1   C26 1251   6.575   4.747   4.238 -0.4188 -0.6547  0.3480
   17CHL1  H26A 1252   6.645   4.662   4.229 -0.4605 -0.5854 -0.8255
   17CHL1  H26B 1253   6.484   4.698   4.279 -1.8932  2.1880  0.7468
   17CHL1  H26C 1254   6.570   4.786   4.134  0.8743 -1.5983 -0.0834
   17CHL1   C27 1255   6.525   4.978   4.325 -0.1939 -0.2831 -0.0484
   17CHL1  H27A 1256   6.518   5.018   4.222  2.6447  2.6991  0.7690
   17CHL1  H27B 1257   6.422   4.942   4.350 -0.5121 -0.4574 -1.5386
   17CHL1  H27C 1258   6.543   5.056   4.402 -2.5449 -1.9462  2.4007
   18CHL1    C3 1259   0.787   0.162   6.034  0.4317  0.5263 -0.5966
   18CHL1    H3 1260   0.760   0.265   6.002  1.2066  0.5366 -1.2377
   18CHL1    O3 1261   0.821   0.192   6.175 -0.5829  0.2024 -0.0208
   18CHL1   H3' 1262   0.775   0.273   6.197  0.7000  0.4656  1.8397
   18CHL1    C4 1263   0.668   0.067   6.027  0.8578  0.6981 -0.0376
   18CHL1   H4A 1264   0.698  -0.034   6.061  1.3190  1.2262  1.1990
   18CHL1   H4B 1265   0.585   0.099   6.094 -0.2296 -2.4298  0.2726
   18CHL1    C5 1266   0.626   0.039   5.884 -0.5757  0.2871  0.3284
   18CHL1    C6 1267   0.504   0.054   5.845  0.3139  0.7586 -0.0582
   18CHL1    H6 1268   0.419   0.074   5.911 -1.4397 -0.7303 -1.7453
   18CHL1    C7 1269   0.462   0.028   5.705  0.2734  0.0119  0.0646
   18CHL1   H7A 1270   0.379  -0.046   5.709  0.9286 -0.8852 -1.8287
   18CHL1   H7B 1271   0.437   0.128   5.664  1.5890  0.3892  0.1256
   18CHL1    C8 1272   0.572  -0.019   5.612  0.0616 -0.0244  0.5625
   18CHL1    H8 1273   0.569  -0.130   5.626 -0.7471  0.0219  0.8092
   18CHL1   C14 1274   0.533   0.010   5.466  0.0258  0.9957  0.2200
   18CHL1   H14 1275   0.531   0.121   5.469 -2.5738  0.9853  3.0686
   18CHL1   C15 1276   0.395  -0.041   5.410 -0.5962  0.1459 -0.8660
   18CHL1  H15A 1277   0.396  -0.151   5.426 -0.8584  0.4835  2.0071
   18CHL1  H15B 1278   0.300   0.001   5.448  0.8541  0.8253  2.3888
   18CHL1   C16 1279   0.415  -0.016   5.261  0.1064  0.1287 -0.3906
   18CHL1  H16A 1280   0.375  -0.098   5.198 -0.3210  2.3556 -3.2295
   18CHL1  H16B 1281   0.380   0.084   5.226  0.2940 -0.0458 -1.0901
   18CHL1   C17 1282   0.568  -0.007   5.228 -0.0069  0.5055  0.6465
   18CHL1   H17 1283   0.575   0.098   5.192 -2.9517  0.4925 -0.2129
   18CHL1   C13 1284   0.638  -0.032   5.362 -0.2859  0.4712 -0.1741
   18CHL1   C18 1285   0.657  -0.181   5.378  0.0840 -0.1735 -0.3249
   18CHL1  H18A 1286   0.704  -0.206   5.475  2.3441 -1.5407 -1.6629
   18CHL1  H18B 1287   0.558  -0.233   5.376 -0.2249  0.2325  1.9182
   18CHL1  H18C 1288   0.731  -0.224   5.307  0.3211 -0.5963  0.1698
   18CHL1   C12 1289   0.769   0.040   5.391  0.3189  0.1522  0.2185
   18CHL1  H12A 1290   0.844   0.005   5.317 -0.9026  3.1613 -2.6696
   18CHL1  H12B 1291   0.753   0.149   5.376 -1.5474  0.1230  1.5687
   18CHL1   C11 1292   0.813   0.017   5.539  0.5206  0.3118  0.3552
   18CHL1  H11A 1293   0.856  -0.085   5.537 -1.5221 -0.5963  0.7476
   18CHL1  H11B 1294   0.890   0.094   5.562 -0.3663  1.2036  0.4476
   18CHL1    C9 1295   0.702   0.047   5.643 -0.1297  0.2710 -0.2919
   18CHL1    H9 1296   0.694   0.157   5.634  0.2207  0.3394  0.1822
   18CHL1   C10 1297   0.749   0.009   5.784  0.1061  0.0254  0.0877
   18CHL1   C19 1298   0.796  -0.139   5.787  0.2575  0.3710 -0.1477
   18CHL1  H19A 1299   0.893  -0.162   5.737 -0.5954  1.4765 -2.4270
   18CHL1  H19B 1300   0.809  -0.171   5.893  0.8144 -1.2670 -0.6831
   18CHL1  H19C 1301   0.713  -0.205   5.755 -3.0880  4.0118  0.3395
   18CHL1    C1 1302   0.880   0.091   5.818  0.7898 -0.0066 -0.3284
   18CHL1   H1A 1303   0.973   0.059   5.766  1.1505 -0.5731  0.6438
   18CHL1   H1B 1304   0.853   0.192   5.779 -0.6732  0.0505  0.7967
   18CHL1    C2 1305   0.912   0.109   5.966 -0.7563 -0.1820 -0.1453
   18CHL1   H2A 1306   0.995   0.175   5.998  1.0524 -2.5708  0.3945
   18CHL1   H2B 1307   0.939   0.016   6.021 -0.9623  0.2915  0.7805
   18CHL1   C20 1308   0.606  -0.085   5.100  0.8318 -0.4947 -0.0226
   18CHL1   H20 1309   0.610  -0.195   5.116 -3.2197 -0.6188  1.3606
   18CHL1   C21 1310   0.752  -0.052   5.072  0.2523  0.1326  0.6678
   18CHL1  H21A 1311   0.769   0.058   5.080 -2.2671  0.5173  2.1555
   18CHL1  H21B 1312   0.797  -0.082   4.976 -2.0587 -0.4825 -0.3041
   18CHL1  H21C 1313   0.809  -0.108   5.149  1.2373  1.6861  1.1153
   18CHL1   C22 1314   0.512  -0.041   4.973 -0.2059  0.3037 -0.7231
   18CHL1  H22A 1315   0.403  -0.060   4.991 -0.0758 -1.2209 -1.4150
   18CHL1  H22B 1316   0.537   0.066   4.958 -0.9955  0.5858 -0.1034
   18CHL1   C23 1317   0.535  -0.119   4.855 -0.4076  0.3069  0.6107
   18CHL1  H23A 1318   0.633  -0.100   4.804 -1.2292  1.0283 -0.7646
   18CHL1  H23B 1319   0.526  -0.226   4.881 -2.9322  0.3718  0.2012
   18CHL1   C24 1320   0.426  -0.093   4.748  0.7245  0.0053  0.6093
   18CHL1  H24A 1321   0.449  -0.163   4.665 -0.1868  0.0843  0.2734
   18CHL1  H24B 1322   0.330  -0.121   4.796  0.8998 -0.2153  0.8360
   18CHL1   C25 1323   0.416   0.047   4.690 -0.6077  0.0963  0.0035
   18CHL1   H25 1324   0.459   0.118   4.763 -1.4087  0.9044 -0.2959
   18CHL1   C26 1325   0.515   0.050   4.572  0.2670 -0.3753 -0.1592
   18CHL1  H26A 1326   0.510   0.157   4.541  1.6143  0.2724  1.6411
   18CHL1  H26B 1327   0.618   0.025   4.604 -0.6225 -1.9040  1.7111
   18CHL1  H26C 1328   0.482  -0.016   4.490  0.7581  0.5299 -1.1152
   18CHL1   C27 1329   0.280   0.092   4.644  0.3103 -0.0826  0.1047
   18CHL1  H27A 1330   0.304   0.193   4.604 -0.1308 -0.6465 -1.6690
   18CHL1  H27B 1331   0.236   0.040   4.556  1.0987  1.0472 -0.9791
   18CHL1  H27C 1332   0.206   0.111   4.725  0.4401  1.2576 -0.0726
   19CHL1    C3 1333   6.648   5.323   5.693 -0.2096 -0.1649  0.2998
   19CHL1    H3 1334   6.739   5.273   5.653 -1.7449 -0.7586 -2.7717
   19CHL1    O3 1335   6.654   5.326   5.835 -0.3026  0.1674  0.4304
   19CHL1   H3' 1336   6.564   5.342   5.865 -0.4110 -0.2262  0.3199
   19CHL1    C4 1337   6.644   5.465   5.637  0.4853  0.8652 -0.1767
   19CHL1   H4A 1338   6.553   5.523   5.667  0.5654 -0.5756  3.3346
   19CHL1   H4B 1339   6.737   5.516   5.670  1.0607 -1.0658  1.4032
   19CHL1    C5 1340   6.634   5.460   5.490 -0.5326  0.1279  0.4559
   19CHL1    C6 1341   6.727   5.531   5.423 -0.0889  0.3810  0.2539
   19CHL1    H6 1342   6.807   5.590   5.470  0.5320 -0.0308 -0.2573
   19CHL1    C7 1343   6.724   5.548   5.272 -0.3411 -0.4753 -0.4032
   19CHL1   H7A 1344   6.736   5.658   5.260 -1.6766 -0.3663 -0.8857
   19CHL1   H7B 1345   6.809   5.498   5.221  0.9248 -0.3482  1.4914
   19CHL1    C8 1346   6.587   5.504   5.209 -0.1504  0.0489  0.6106
   19CHL1    H8 1347   6.511   5.585   5.214 -1.4251 -0.9692 -1.3318
   19CHL1   C14 1348   6.603   5.472   5.061 -0.3865  0.5205  0.3831
   19CHL1   H14 1349   6.677   5.389   5.064 -1.0962 -0.1691 -0.5540
   19CHL1   C15 1350   6.656   5.586   4.965  0.1288  0.6171  0.3468
   19CHL1  H15A 1351   6.597   5.678   4.987 -1.4544 -0.1338 -0.6137
   19CHL1  H15B 1352   6.763   5.599   4.992 -0.2083  1.3490  1.4281
   19CHL1   C16 1353   6.623   5.538   4.820 -0.2309  0.0235  0.7600
   19CHL1  H16A 1354   6.554   5.614   4.777 -1.7063 -1.2653  0.7642
   19CHL1  H16B 1355   6.711   5.524   4.755 -1.5813 -2.8536 -0.6379
   19CHL1   C17 1356   6.543   5.400   4.843 -0.0673 -0.2412  0.2916
   19CHL1   H17 1357   6.620   5.322   4.856 -1.4624 -1.6071  0.7197
   19CHL1   C13 1358   6.491   5.406   4.984  0.4447 -0.2296 -0.3675
   19CHL1   C18 1359   6.379   5.511   4.988 -0.0427 -0.7465  0.3721
   19CHL1  H18A 1360   6.280   5.466   4.968 -1.3901  1.8699  0.7640
   19CHL1  H18B 1361   6.364   5.563   5.085 -0.0049 -0.5813  0.2916
   19CHL1  H18C 1362   6.393   5.589   4.910 -0.7727 -1.1231 -0.1443
   19CHL1   C12 1363   6.458   5.273   5.053 -0.6170  0.2099 -0.1891
   19CHL1  H12A 1364   6.364   5.233   5.009 -0.2812  0.1136 -0.8275
   19CHL1  H12B 1365   6.534   5.194   5.034 -0.7941  0.0006 -0.0293
   19CHL1   C11 1366   6.429   5.297   5.199  0.1167  0.1566  0.4531
   19CHL1  H11A 1367   6.339   5.360   5.217 -0.3675 -0.6829  1.0637
   19CHL1  H11B 1368   6.402   5.197   5.240 -2.9885  0.2387 -1.1321
   19CHL1    C9 1369   6.544   5.370   5.275  0.1332 -0.2940 -0.5220
   19CHL1    H9 1370   6.624   5.294   5.267 -1.3485 -2.3880  2.5650
   19CHL1   C10 1371   6.526   5.369   5.431 -0.2628 -0.2171  0.4817
   19CHL1   C19 1372   6.387   5.455   5.450 -0.0567 -0.1048  0.7502
   19CHL1  H19A 1373   6.369   5.479   5.557  0.5800  1.7075  0.4756
   19CHL1  H19B 1374   6.370   5.547   5.390 -1.5922  0.1844  1.5499
   19CHL1  H19C 1375   6.311   5.378   5.424  1.0684 -1.0800  0.3025
   19CHL1    C1 1376   6.519   5.225   5.503  0.4201 -0.1741 -0.5716
   19CHL1   H1A 1377   6.436   5.167   5.457  2.1689 -0.6625 -3.3943
   19CHL1   H1B 1378   6.607   5.165   5.471  1.5531  0.3985  1.3111
   19CHL1    C2 1379   6.526   5.235   5.656  0.6960  0.2252 -0.2864
   19CHL1   H2A 1380   6.534   5.133   5.700 -0.2480 -0.0118 -0.6297
   19CHL1   H2B 1381   6.434   5.274   5.704  1.4030  0.1300  1.1840
   19CHL1   C20 1382   6.453   5.377   4.715  0.1798 -0.2648 -0.0383
   19CHL1   H20 1383   6.366   5.446   4.726  0.7560  0.5360 -0.4015
   19CHL1   C21 1384   6.393   5.234   4.722 -0.1841 -0.0277  0.4579
   19CHL1  H21A 1385   6.341   5.210   4.627 -1.5945  1.8460  0.7029
   19CHL1  H21B 1386   6.317   5.220   4.802 -2.3591  1.3078 -1.2559
   19CHL1  H21C 1387   6.473   5.156   4.728 -0.2842 -0.0646  1.5852
   19CHL1   C22 1388   6.530   5.405   4.581  0.5695  0.4180  1.2598
   19CHL1  H22A 1389   6.454   5.390   4.501  0.0887  1.5510  1.4858
   19CHL1  H22B 1390   6.531   5.516   4.585 -0.8472  0.5119 -0.0969
   19CHL1   C23 1391   6.663   5.333   4.556  0.4069  0.4170 -0.3735
   19CHL1  H23A 1392   6.714   5.316   4.653 -1.8890  0.5851  0.9461
   19CHL1  H23B 1393   6.641   5.232   4.516  1.5523  0.0967 -0.2201
   19CHL1   C24 1394   6.741   5.409   4.446  0.6435  0.2774  0.2336
   19CHL1  H24A 1395   6.673   5.463   4.377  1.0559  1.8035  0.9640
   19CHL1  H24B 1396   6.807   5.486   4.493  1.0049 -0.6261  1.2373
   19CHL1   C25 1397   6.844   5.314   4.373 -0.7279  0.2221  0.5082
   19CHL1   H25 1398   6.789   5.222   4.343  0.1826 -1.0815  2.5382
   19CHL1   C26 1399   6.881   5.380   4.240 -0.1118  0.2724  0.0150
   19CHL1  H26A 1400   6.784   5.396   4.189 -0.8129 -0.3424  1.1162
   19CHL1  H26B 1401   6.927   5.480   4.257  0.3310  0.2195 -0.8441
   19CHL1  H26C 1402   6.942   5.316   4.172  1.4459  3.2760 -1.6031
   19CHL1   C27 1403   6.956   5.271   4.461 -0.2040  0.6375  0.0433
   19CHL1  H27A 1404   7.006   5.179   4.426 -1.3582 -0.3120  0.8204
   19CHL1  H27B 1405   7.037   5.347   4.465  0.8302 -0.0273 -3.7494
   19CHL1  H27C 1406   6.921   5.234   4.559 -1.4590  2.2424  0.2456
   20CHL1    C3 1407   5.378   0.468   5.734  0.5520  0.0007  0.3247
   20CHL1    H3 1408   5.385   0.357   5.733 -2.7280 -0.2829 -0.9931
   20CHL1    O3 1409   5.401   0.530   5.860  0.0749 -0.3246 -0.4277
   20CHL1   H3' 1410   5.323   0.517   5.914  1.6442  1.7668  2.6465
   20CHL1    C4 1411   5.489   0.517   5.632 -0.2702 -1.3614 -0.0071
   20CHL1   H4A 1412   5.505   0.627   5.641 -0.6296 -1.1087 -1.9924
   20CHL1   H4B 1413   5.583   0.465   5.662  0.6533 -0.6561 -1.5499
   20CHL1    C5 1414   5.451   0.474   5.495 -0.0680  0.0676  0.4663
   20CHL1    C6 1415   5.547   0.410   5.422  0.8026  0.4337 -0.3653
   20CHL1    H6 1416   5.642   0.383   5.470  0.2985  0.8475  0.9195
   20CHL1    C7 1417   5.527   0.369   5.276  0.4539  0.6188  0.2034
   20CHL1   H7A 1418   5.622   0.378   5.218  1.5863 -0.5721  1.7874
   20CHL1   H7B 1419   5.495   0.263   5.264 -3.1044  1.6078 -0.1090
   20CHL1    C8 1420   5.417   0.461   5.210  0.1425  0.2968 -0.3046
   20CHL1    H8 1421   5.469   0.558   5.196 -1.5140  1.0191 -1.9863
   20CHL1   C14 1422   5.381   0.408   5.070 -0.1946 -0.7861 -0.4043
   20CHL1   H14 1423   5.336   0.307   5.088 -0.5280 -0.6757 -0.6022
   20CHL1   C15 1424   5.490   0.378   4.962 -0.3122 -0.5185 -0.4324
   20CHL1  H15A 1425   5.560   0.463   4.979  0.4303 -1.1477 -0.3065
   20CHL1  H15B 1426   5.545   0.286   4.992 -1.3006 -0.2413  2.6076
   20CHL1   C16 1427   5.416   0.378   4.824  0.7000  0.0122  0.5219
   20CHL1  H16A 1428   5.470   0.450   4.759  0.0217  1.3285  1.3812
   20CHL1  H16B 1429   5.434   0.281   4.773 -0.9191  1.1323 -2.4895
   20CHL1   C17 1430   5.268   0.409   4.856  0.0718 -0.0784 -0.0406
   20CHL1   H17 1431   5.218   0.312   4.879 -0.2736  0.2410  0.5700
   20CHL1   C13 1432   5.279   0.488   4.993  0.1237  0.6579  0.9103
   20CHL1   C18 1433   5.320   0.632   4.960 -0.3763  0.7049  0.5329
   20CHL1  H18A 1434   5.343   0.689   5.052  1.6185  0.8656  0.0013
   20CHL1  H18B 1435   5.409   0.634   4.893 -1.1791 -2.4222 -0.8241
   20CHL1  H18C 1436   5.236   0.683   4.909  1.4887  3.3198 -0.1644
   20CHL1   C12 1437   5.150   0.505   5.083 -0.8963  0.0865  0.8234
   20CHL1  H12A 1438   5.077   0.569   5.028 -1.2549 -1.7383 -0.9271
   20CHL1  H12B 1439   5.097   0.408   5.097 -0.5329 -0.0564  1.2211
   20CHL1   C11 1440   5.179   0.557   5.227  0.6485 -0.5663 -0.1027
   20CHL1  H11A 1441   5.195   0.666   5.214 -1.0410  0.0247  2.2338
   20CHL1  H11B 1442   5.080   0.554   5.277  0.7464 -0.0522  0.1281
   20CHL1    C9 1443   5.290   0.484   5.297 -0.1540 -0.3399  0.7819
   20CHL1    H9 1444   5.250   0.381   5.313 -1.6567 -0.2569 -1.8790
   20CHL1   C10 1445   5.325   0.532   5.440  0.4828 -0.0181 -0.3203
   20CHL1   C19 1446   5.322   0.686   5.445  0.5246 -0.3189  0.3570
   20CHL1  H19A 1447   5.397   0.718   5.370  0.1418 -2.1823 -0.8980
   20CHL1  H19B 1448   5.228   0.733   5.412  0.5169 -0.8353 -0.3981
   20CHL1  H19C 1449   5.340   0.727   5.546 -1.6556 -1.8527  1.4595
   20CHL1    C1 1450   5.212   0.476   5.541 -0.4415  0.1265  0.1594
   20CHL1   H1A 1451   5.114   0.523   5.520 -0.1236  0.6796 -0.0990
   20CHL1   H1B 1452   5.208   0.367   5.520 -0.2829  0.1865 -0.1850
   20CHL1    C2 1453   5.238   0.504   5.685 -0.4462 -1.1085  0.4321
   20CHL1   H2A 1454   5.176   0.440   5.752  2.7112 -2.1402  2.6244
   20CHL1   H2B 1455   5.212   0.608   5.714  1.9407 -0.6480  1.1545
   20CHL1   C20 1456   5.210   0.472   4.728  0.4049 -0.7697  0.3473
   20CHL1   H20 1457   5.267   0.563   4.698 -0.1606 -0.5749 -0.1463
   20CHL1   C21 1458   5.063   0.526   4.750 -0.4838  0.4155 -0.3854
   20CHL1  H21A 1459   5.030   0.596   4.670  0.6460  0.9236 -0.4301
   20CHL1  H21B 1460   5.055   0.576   4.848  0.8008 -0.1586  0.0323
   20CHL1  H21C 1461   4.985   0.448   4.761 -2.9313  2.6891 -0.7375
   20CHL1   C22 1462   5.221   0.358   4.619 -0.3989 -0.1381 -0.3246
   20CHL1  H22A 1463   5.324   0.349   4.579 -0.9992 -1.0002 -1.7771
   20CHL1  H22B 1464   5.197   0.264   4.674  0.8051 -0.0855  0.3025
   20CHL1   C23 1465   5.129   0.362   4.503 -0.1941 -0.2063 -0.0535
   20CHL1  H23A 1466   5.021   0.352   4.528 -0.2196 -0.5022 -0.2816
   20CHL1  H23B 1467   5.143   0.450   4.436 -1.1050 -0.3588 -0.4501
   20CHL1   C24 1468   5.157   0.243   4.403 -0.8856 -0.0557  0.2411
   20CHL1  H24A 1469   5.255   0.262   4.354  0.0503 -1.6185  1.4248
   20CHL1  H24B 1470   5.175   0.154   4.467  0.2979 -1.3798 -1.8161
   20CHL1   C25 1471   5.047   0.218   4.297 -0.2518  0.7258  0.5647
   20CHL1   H25 1472   4.956   0.172   4.341 -0.4586 -1.9690 -2.3174
   20CHL1   C26 1473   5.017   0.335   4.205  0.7120 -0.9506  0.1807
   20CHL1  H26A 1474   4.988   0.425   4.262  0.5037  0.0337 -1.4220
   20CHL1  H26B 1475   5.103   0.357   4.138 -0.0757  0.1997 -0.4799
   20CHL1  H26C 1476   4.937   0.325   4.129  0.2565  0.5341  0.4318
   20CHL1   C27 1477   5.097   0.109   4.206  0.0824 -0.4015  0.0251
   20CHL1  H27A 1478   5.176   0.049   4.256  1.3515  1.4217  0.2780
   20CHL1  H27B 1479   5.013   0.040   4.180  0.1407 -0.5216  0.1529
   20CHL1  H27C 1480   5.146   0.136   4.111  2.8499 -3.4705  0.4049
   21CHL1    C3 1481   2.752   4.594   5.823 -0.3571  0.2305  0.1364
   21CHL1    H3 1482   2.817   4.506   5.843 -1.4028 -0.1231  2.3752
   21CHL1    O3 1483   2.693   4.624   5.949  0.0274 -0.0920 -0.3567
   21CHL1   H3' 1484   2.599   4.633   5.930  0.2418  1.2944 -0.8203
   21CHL1    C4 1485   2.836   4.717   5.785  0.3317 -0.2813 -0.8469
   21CHL1   H4A 1486   2.773   4.809   5.786  0.6074 -0.0852 -1.2192
   21CHL1   H4B 1487   2.907   4.736   5.868 -0.6553  1.4938 -0.3400
   21CHL1    C5 1488   2.905   4.712   5.647  0.7484  0.2031  0.0005
   21CHL1    C6 1489   3.030   4.730   5.632 -0.3306  0.2454 -0.6937
   21CHL1    H6 1490   3.079   4.759   5.727 -2.0104 -1.5361  0.8201
   21CHL1    C7 1491   3.095   4.720   5.499 -0.6298  0.7237  0.0502
   21CHL1   H7A 1492   3.167   4.804   5.488  0.6579 -0.4272 -0.5341
   21CHL1   H7B 1493   3.152   4.625   5.490 -0.8120  0.4713  1.3802
   21CHL1    C8 1494   3.007   4.725   5.377 -0.9793 -0.1248  0.1469
   21CHL1    H8 1495   2.961   4.825   5.362 -4.4946 -1.4386  1.1883
   21CHL1   C14 1496   3.076   4.677   5.250 -0.0074 -0.7090 -0.0289
   21CHL1   H14 1497   3.102   4.570   5.261  2.3637 -0.2665 -0.6580
   21CHL1   C15 1498   3.214   4.750   5.220 -0.6323 -0.4446  0.0392
   21CHL1  H15A 1499   3.212   4.860   5.236  1.2713 -0.1932 -1.1980
   21CHL1  H15B 1500   3.306   4.703   5.259  0.8490  1.6662 -0.7550
   21CHL1   C16 1501   3.223   4.739   5.069 -0.2853 -0.4635  0.4045
   21CHL1  H16A 1502   3.211   4.845   5.036 -0.3961 -0.7293 -0.4295
   21CHL1  H16B 1503   3.321   4.697   5.038  0.9867  3.1502 -0.9696
   21CHL1   C17 1504   3.107   4.657   5.021  0.0666  0.0920  0.8216
   21CHL1   H17 1505   3.130   4.549   5.032 -0.4204  0.1472  2.7788
   21CHL1   C13 1506   2.992   4.680   5.121 -0.0982  0.0675  0.1385
   21CHL1   C18 1507   2.926   4.818   5.092  0.6494  0.5995 -0.9748
   21CHL1  H18A 1508   2.997   4.902   5.104  2.0777 -0.5223 -1.3316
   21CHL1  H18B 1509   2.870   4.830   4.997 -0.7428  3.6267  0.0966
   21CHL1  H18C 1510   2.844   4.818   5.167  0.0638 -0.5479 -1.5931
   21CHL1   C12 1511   2.889   4.570   5.147  0.2083  0.5834 -0.3813
   21CHL1  H12A 1512   2.831   4.549   5.055 -0.7197 -0.1516  0.3452
   21CHL1  H12B 1513   2.951   4.479   5.164  1.1141  1.3805  0.7751
   21CHL1   C11 1514   2.809   4.592   5.280 -0.1339  0.1666  1.1151
   21CHL1  H11A 1515   2.742   4.678   5.261 -0.7174 -0.7271 -1.2769
   21CHL1  H11B 1516   2.758   4.495   5.301  2.3478 -1.4266  0.1613
   21CHL1    C9 1517   2.899   4.628   5.403 -0.1148  0.1622 -0.0427
   21CHL1    H9 1518   2.956   4.537   5.430  0.0522  0.6384  1.2995
   21CHL1   C10 1519   2.812   4.670   5.529  0.1934  0.4050  0.1617
   21CHL1   C19 1520   2.709   4.785   5.506 -0.5282 -0.2709  0.1530
   21CHL1  H19A 1521   2.633   4.801   5.585 -1.0058 -1.7444  0.0189
   21CHL1  H19B 1522   2.766   4.871   5.465  3.0209 -2.6847 -0.4761
   21CHL1  H19C 1523   2.639   4.751   5.427 -1.1783 -0.6068  0.8662
   21CHL1    C1 1524   2.731   4.541   5.573  0.7902 -0.6591 -0.3266
   21CHL1   H1A 1525   2.658   4.500   5.501 -0.9701  0.4267  0.7461
   21CHL1   H1B 1526   2.804   4.460   5.593 -0.5059 -1.3588  1.9633
   21CHL1    C2 1527   2.653   4.559   5.712  0.0288  0.3823  0.1866
   21CHL1   H2A 1528   2.595   4.469   5.742 -0.1547 -0.3781 -2.2339
   21CHL1   H2B 1529   2.575   4.638   5.708 -1.5038 -1.0647  0.1158
   21CHL1   C20 1530   3.078   4.682   4.875 -0.2603  0.1003  0.7299
   21CHL1   H20 1531   3.041   4.786   4.861  1.4462  1.1220  3.0648
   21CHL1   C21 1532   2.957   4.592   4.823  0.0446  0.0358  0.2886
   21CHL1  H21A 1533   2.966   4.486   4.855 -0.9237 -0.2030 -0.1796
   21CHL1  H21B 1534   2.944   4.595   4.713 -1.8672  1.9893  0.4749
   21CHL1  H21C 1535   2.862   4.638   4.859  1.1376  0.7203  2.4483
   21CHL1   C22 1536   3.206   4.659   4.784 -0.8344 -0.1919  0.0410
   21CHL1  H22A 1537   3.288   4.728   4.813 -1.0298  0.3082 -0.5748
   21CHL1  H22B 1538   3.237   4.552   4.794 -1.8025 -0.4334  0.5284
   21CHL1   C23 1539   3.202   4.697   4.639 -0.2913  0.3244 -0.2081
   21CHL1  H23A 1540   3.115   4.642   4.598  0.0351 -0.9557  0.7350
   21CHL1  H23B 1541   3.185   4.805   4.617  1.6354  0.6232 -0.4001
   21CHL1   C24 1542   3.329   4.654   4.556 -0.1387 -0.1191 -0.8352
   21CHL1  H24A 1543   3.425   4.690   4.597  0.1513  0.9712 -2.3589
   21CHL1  H24B 1544   3.327   4.548   4.589  2.2273 -0.0348 -0.2863
   21CHL1   C25 1545   3.325   4.664   4.401 -0.5018  0.2852  0.2336
   21CHL1   H25 1546   3.264   4.751   4.371  0.5414  0.5549 -1.2690
   21CHL1   C26 1547   3.455   4.665   4.325  0.1873  0.2961  1.0978
   21CHL1  H26A 1548   3.513   4.575   4.359 -1.9462 -0.8579  1.8850
   21CHL1  H26B 1549   3.450   4.671   4.215  1.7939  0.0619  0.9872
   21CHL1  H26C 1550   3.514   4.755   4.352 -1.1119  1.2329  0.8337
   21CHL1   C27 1551   3.247   4.540   4.360  0.4601  0.3064 -0.3472
   21CHL1  H27A 1552   3.150   4.520   4.412  1.5324 -0.8041  1.3355
   21CHL1  H27B 1553   3.231   4.538   4.250 -1.3776  0.5661 -0.1148
   21CHL1  H27C 1554   3.301   4.446   4.383 -0.1180 -0.1373 -0.7555
   22CHL1    C3 1555   6.771   2.744   5.982 -0.0064 -0.1628  0.4619
   22CHL1    H3 1556   6.660   2.752   5.980 -0.2651 -0.6893  4.5562
   22CHL1    O3 1557   6.815   2.781   6.112 -0.1178 -0.3693 -0.2912
   22CHL1   H3' 1558   6.900   2.821   6.092 -0.6475  2.6564  2.6109
   22CHL1    C4 1559   6.830   2.609   5.946 -0.9296 -0.1948  0.6010
   22CHL1   H4A 1560   6.937   2.598   5.976 -0.6661  0.3809 -0.1006
   22CHL1   H4B 1561   6.784   2.536   6.017 -0.9130 -1.1147 -0.3198
   22CHL1    C5 1562   6.809   2.566   5.801 -0.1018 -1.1126 -0.3420
   22CHL1    C6 1563   6.748   2.451   5.781  0.1629  0.6633  0.2254
   22CHL1    H6 1564   6.708   2.401   5.871 -1.8936 -0.4486 -1.1973
   22CHL1    C7 1565   6.716   2.411   5.637  0.2425  0.0021 -0.3726
   22CHL1   H7A 1566   6.739   2.304   5.620 -0.9166  0.0832 -2.8554
   22CHL1   H7B 1567   6.610   2.425   5.606  0.4950  0.0071 -1.2408
   22CHL1    C8 1568   6.793   2.488   5.529  0.5062 -0.7912  0.3511
   22CHL1    H8 1569   6.898   2.454   5.518  1.4922  2.3303 -1.3616
   22CHL1   C14 1570   6.731   2.466   5.391  0.6482 -0.4257 -0.1693
   22CHL1   H14 1571   6.631   2.514   5.395  0.5781 -0.5838 -0.0109
   22CHL1   C15 1572   6.729   2.323   5.345 -0.2621 -0.0020  0.1204
   22CHL1  H15A 1573   6.828   2.272   5.349 -0.8830 -1.3586 -1.1024
   22CHL1  H15B 1574   6.656   2.260   5.399  1.5122 -1.4014  1.0168
   22CHL1   C16 1575   6.692   2.338   5.195 -0.6366 -0.8752 -0.1253
   22CHL1  H16A 1576   6.773   2.281   5.144 -1.1201 -0.2653 -1.6246
   22CHL1  H16B 1577   6.589   2.299   5.177 -2.2527  1.1655  3.6015
   22CHL1   C17 1578   6.699   2.488   5.164 -0.4402 -0.4152 -0.2712
   22CHL1   H17 1579   6.597   2.525   5.185 -0.6852 -1.1180 -0.1998
   22CHL1   C13 1580   6.789   2.548   5.269  0.3288  0.2456 -0.3437
   22CHL1   C18 1581   6.944   2.516   5.241  0.5643 -0.7174 -0.0849
   22CHL1  H18A 1582   6.943   2.405   5.235 -2.1860 -0.8790  1.5710
   22CHL1  H18B 1583   6.977   2.561   5.145 -0.2733 -0.3264 -0.1987
   22CHL1  H18C 1584   7.012   2.548   5.323  1.2736 -0.7134 -0.6641
   22CHL1   C12 1585   6.764   2.695   5.308  0.0230 -0.0419 -0.6615
   22CHL1  H12A 1586   6.797   2.767   5.231 -0.9462 -0.4889 -1.5274
   22CHL1  H12B 1587   6.655   2.719   5.310  0.1817  0.6546  1.4863
   22CHL1   C11 1588   6.838   2.724   5.446 -0.0352  0.6296 -0.1936
   22CHL1  H11A 1589   6.945   2.701   5.427  0.0301  1.3423 -0.7027
   22CHL1  H11B 1590   6.841   2.833   5.466  0.1902  0.5445  0.2382
   22CHL1    C9 1591   6.789   2.638   5.562  0.4148  0.3761 -0.5428
   22CHL1    H9 1592   6.680   2.657   5.565  0.3799  0.1420 -0.1240
   22CHL1   C10 1593   6.850   2.670   5.698 -0.1740 -0.4308 -1.0521
   22CHL1   C19 1594   7.008   2.682   5.681  0.5258 -0.0603 -0.0716
   22CHL1  H19A 1595   7.028   2.768   5.613 -0.2405  0.0559 -0.1612
   22CHL1  H19B 1596   7.062   2.693   5.777 -0.2742  1.3424  0.2470
   22CHL1  H19C 1597   7.030   2.586   5.630 -0.0689 -1.7609  2.6695
   22CHL1    C1 1598   6.787   2.805   5.742 -0.7276 -0.0230  0.1460
   22CHL1   H1A 1599   6.821   2.895   5.685  0.5133  1.1541  2.6017
   22CHL1   H1B 1600   6.677   2.795   5.736 -1.1374  2.3642  2.1228
   22CHL1    C2 1601   6.837   2.840   5.886 -0.3275 -0.1087 -0.2652
   22CHL1   H2A 1602   6.814   2.948   5.899  3.4897  1.1911 -2.4984
   22CHL1   H2B 1603   6.948   2.835   5.890 -0.3762 -2.4767  4.1528
   22CHL1   C20 1604   6.734   2.532   5.016 -0.3799  0.0721 -0.1784
   22CHL1   H20 1605   6.841   2.509   5.000 -0.5008 -1.2321  0.7055
   22CHL1   C21 1606   6.703   2.682   4.993 -0.5951 -0.3233 -0.1904
   22CHL1  H21A 1607   6.679   2.684   4.884 -0.7215 -1.9829 -0.2255
   22CHL1  H21B 1608   6.802   2.729   5.010  0.1175 -2.1767  1.0628
   22CHL1  H21C 1609   6.622   2.723   5.055  0.4217 -0.8586  1.5549
   22CHL1   C22 1610   6.656   2.428   4.920  0.2495 -0.0248  0.2551
   22CHL1  H22A 1611   6.705   2.329   4.930 -0.0766 -0.5347 -2.4530
   22CHL1  H22B 1612   6.552   2.429   4.960  0.3741 -1.2467  0.6505
   22CHL1   C23 1613   6.658   2.449   4.773  0.0567  0.1228  0.6148
   22CHL1  H23A 1614   6.597   2.536   4.739  0.5655  0.1354 -0.3152
   22CHL1  H23B 1615   6.762   2.475   4.742 -0.4757  0.9315 -0.5844
   22CHL1   C24 1616   6.618   2.335   4.685  0.3482  0.0099 -0.0625
   22CHL1  H24A 1617   6.693   2.255   4.702 -0.1381 -0.6714 -1.0729
   22CHL1  H24B 1618   6.525   2.297   4.731  1.1060 -2.0938 -0.1714
   22CHL1   C25 1619   6.616   2.371   4.536  0.1116  0.7304  0.1065
   22CHL1   H25 1620   6.562   2.468   4.532  1.6009  1.5946  0.2470
   22CHL1   C26 1621   6.748   2.389   4.478 -0.7184 -0.3642 -0.8752
   22CHL1  H26A 1622   6.818   2.323   4.533 -0.2681  1.7353  1.2114
   22CHL1  H26B 1623   6.755   2.387   4.367  2.6940 -0.8049 -0.7594
   22CHL1  H26C 1624   6.782   2.491   4.508  1.3430 -2.1321  3.7932
   22CHL1   C27 1625   6.539   2.263   4.449 -0.2304 -0.3207  0.0313
   22CHL1  H27A 1626   6.499   2.303   4.354  1.3453 -0.0023 -0.5301
   22CHL1  H27B 1627   6.596   2.168   4.437 -1.9690 -1.3784 -0.1331
   22CHL1  H27C 1628   6.443   2.246   4.502 -1.6902  0.5173 -2.2122
   23CHL1    C3 1629   2.328   0.937   5.786 -0.4432 -0.3933 -0.3393
   23CHL1    H3 1630   2.218   0.933   5.776 -0.3913  0.2570 -1.4338
   23CHL1    O3 1631   2.358   0.979   5.919  0.0443  0.1554 -0.5103
   23CHL1   H3' 1632   2.444   1.018   5.905 -0.4966  1.1443 -1.2959
   23CHL1    C4 1633   2.397   0.805   5.752  0.2412 -0.3202  0.4879
   23CHL1   H4A 1634   2.501   0.821   5.786 -0.2848 -0.9152  2.5358
   23CHL1   H4B 1635   2.363   0.730   5.827  3.5133 -0.9486  1.5016
   23CHL1    C5 1636   2.390   0.755   5.607  0.1314 -0.4804 -0.4742
   23CHL1    C6 1637   2.343   0.637   5.560 -0.3968 -0.4201 -0.9074
   23CHL1    H6 1638   2.317   0.560   5.635  0.3067  0.5824  0.3945
   23CHL1    C7 1639   2.321   0.590   5.419 -0.2518  0.3127  0.5815
   23CHL1   H7A 1640   2.335   0.480   5.412 -1.2144 -0.1859  4.2374
   23CHL1   H7B 1641   2.213   0.597   5.396 -1.0160 -0.7561  3.4650
   23CHL1    C8 1642   2.396   0.687   5.320 -0.6106  0.0251  0.2640
   23CHL1    H8 1643   2.501   0.654   5.317 -0.9012 -0.9200  0.2798
   23CHL1   C14 1644   2.335   0.673   5.183 -0.1105 -0.4337 -0.1468
   23CHL1   H14 1645   2.232   0.713   5.197 -0.4173 -0.8802 -1.0230
   23CHL1   C15 1646   2.303   0.535   5.119 -0.0012  0.0181  0.3746
   23CHL1  H15A 1647   2.387   0.463   5.125 -1.3190 -1.6945 -0.7246
   23CHL1  H15B 1648   2.209   0.496   5.164 -1.1907  2.3838  0.1149
   23CHL1   C16 1649   2.283   0.563   4.973  0.4685 -0.1094  0.4864
   23CHL1  H16A 1650   2.365   0.503   4.927 -1.4513 -2.4840 -0.0696
   23CHL1  H16B 1651   2.187   0.524   4.932 -0.4925  0.9221  1.6678
   23CHL1   C17 1652   2.301   0.712   4.952 -0.0631  0.1142  0.5787
   23CHL1   H17 1653   2.203   0.760   4.973 -0.6167  0.9768 -3.2540
   23CHL1   C13 1654   2.396   0.753   5.066  0.0712 -0.2542 -1.0136
   23CHL1   C18 1655   2.543   0.712   5.057  0.1364  0.0330  0.7531
   23CHL1  H18A 1656   2.533   0.604   5.034 -0.7201  0.0775  0.8621
   23CHL1  H18B 1657   2.589   0.765   4.970 -0.1696 -0.4643  0.2824
   23CHL1  H18C 1658   2.600   0.737   5.149  0.2979  1.1743  0.3541
   23CHL1   C12 1659   2.381   0.903   5.107  0.1658  0.3580 -0.7166
   23CHL1  H12A 1660   2.426   0.977   5.037 -2.2790  1.3338 -1.3384
   23CHL1  H12B 1661   2.272   0.920   5.117  0.4200  1.2105  0.9834
   23CHL1   C11 1662   2.444   0.928   5.251  0.1950  0.2214 -0.4305
   23CHL1  H11A 1663   2.554   0.920   5.246  0.0670 -1.6962 -1.0708
   23CHL1  H11B 1664   2.410   1.030   5.280 -0.8280 -0.3976  0.6246
   23CHL1    C9 1665   2.386   0.833   5.360  0.1026  0.3365  0.2023
   23CHL1    H9 1666   2.278   0.861   5.354  0.3353  1.0055 -1.9729
   23CHL1   C10 1667   2.425   0.864   5.508 -0.3210 -0.3527  0.0462
   23CHL1   C19 1668   2.583   0.889   5.525 -0.7312  0.4812 -0.0340
   23CHL1  H19A 1669   2.610   0.962   5.446 -1.3811 -0.9455 -1.6426
   23CHL1  H19B 1670   2.618   0.916   5.627 -1.3228  1.3841 -0.0629
   23CHL1  H19C 1671   2.641   0.799   5.495 -0.5007  0.2221  1.1284
   23CHL1    C1 1672   2.355   1.001   5.549  0.5212  0.4858 -0.1915
   23CHL1   H1A 1673   2.377   1.082   5.477  1.2592 -1.8545 -2.7598
   23CHL1   H1B 1674   2.248   0.970   5.543  0.6147  0.0340  0.3118
   23CHL1    C2 1675   2.384   1.045   5.697 -0.4111  0.5781 -0.5190
   23CHL1   H2A 1676   2.335   1.144   5.715  1.6232  1.5162  0.1665
   23CHL1   H2B 1677   2.490   1.075   5.710 -1.0783  3.9535 -1.7954
   23CHL1   C20 1678   2.347   0.738   4.808 -0.2978 -0.3010 -0.2807
   23CHL1   H20 1679   2.444   0.686   4.797 -1.5715 -2.8323 -0.3090
   23CHL1   C21 1680   2.368   0.894   4.784  0.7693  0.6744  0.2332
   23CHL1  H21A 1681   2.376   0.918   4.676 -0.7578 -0.1394 -0.0925
   23CHL1  H21B 1682   2.465   0.926   4.827  0.4729 -0.4785  1.8325
   23CHL1  H21C 1683   2.289   0.959   4.825  0.4294  0.0075  0.6580
   23CHL1   C22 1684   2.253   0.675   4.697 -0.6597 -0.3354  0.0089
   23CHL1  H22A 1685   2.219   0.576   4.735  1.4150 -0.8417  0.6767
   23CHL1  H22B 1686   2.165   0.742   4.706 -0.9919 -0.6526 -0.7141
   23CHL1   C23 1687   2.321   0.660   4.562 -0.0474 -0.1487 -0.1186
   23CHL1  H23A 1688   2.370   0.750   4.520  0.6145 -1.3103 -1.9559
   23CHL1  H23B 1689   2.397   0.580   4.569  0.0744 -0.0006  0.3134
   23CHL1   C24 1690   2.221   0.600   4.460  0.7595 -0.5051  0.8558
   23CHL1  H24A 1691   2.183   0.507   4.509 -0.3189 -1.1132 -1.0454
   23CHL1  H24B 1692   2.139   0.674   4.449  0.5269 -0.8773 -0.0165
   23CHL1   C25 1693   2.278   0.577   4.321 -0.4257  0.8121  0.2603
   23CHL1   H25 1694   2.353   0.495   4.331  0.1758  1.5053  1.6904
   23CHL1   C26 1695   2.178   0.523   4.220 -0.2557  0.2150 -1.0471
   23CHL1  H26A 1696   2.114   0.441   4.259  0.5715 -0.1377 -0.4052
   23CHL1  H26B 1697   2.092   0.590   4.197 -2.2852 -1.8658  0.0234
   23CHL1  H26C 1698   2.225   0.491   4.125  0.2460  4.3713 -2.3850
   23CHL1   C27 1699   2.344   0.703   4.267  0.3130 -0.4931 -0.1255
   23CHL1  H27A 1700   2.432   0.736   4.327  0.5393  0.9025 -1.1796
   23CHL1  H27B 1701   2.374   0.682   4.162 -0.5592  0.5526 -0.6084
   23CHL1  H27C 1702   2.269   0.784   4.259  2.0834  1.3335  0.7322
   24CHL1    C3 1703   0.418   4.759   5.899  0.6912  0.7412  0.6053
   24CHL1    H3 1704   0.318   4.718   5.872  1.3647 -1.2333  0.9425
   24CHL1    O3 1705   0.450   4.736   6.037 -0.8168 -0.2325 -0.2833
   24CHL1   H3' 1706   0.542   4.753   6.057 -0.2280 -1.7005 -1.5698
   24CHL1    C4 1707   0.530   4.685   5.816 -0.2751  0.1401 -0.9987
   24CHL1   H4A 1708   0.630   4.713   5.856 -0.8536  0.0956  0.5437
   24CHL1   H4B 1709   0.523   4.577   5.839  0.1742  0.6253  1.7504
   24CHL1    C5 1710   0.504   4.717   5.670  0.3884  0.2476  0.4148
   24CHL1    C6 1711   0.494   4.618   5.582  0.1706 -0.1457  0.3184
   24CHL1    H6 1712   0.517   4.517   5.620  2.9477  0.4474  0.4799
   24CHL1    C7 1713   0.484   4.629   5.429  0.0051 -0.4537  0.4991
   24CHL1   H7A 1714   0.552   4.562   5.372  0.1878  2.0182 -2.3919
   24CHL1   H7B 1715   0.380   4.613   5.396 -0.8787  1.2584  2.2224
   24CHL1    C8 1716   0.526   4.773   5.392  0.6600 -0.0374  0.3641
   24CHL1    H8 1717   0.637   4.773   5.400  0.7242 -0.6258 -0.3953
   24CHL1   C14 1718   0.487   4.801   5.247 -0.0103 -0.4587  0.1866
   24CHL1   H14 1719   0.377   4.792   5.235  0.2571 -1.2670 -2.1227
   24CHL1   C15 1720   0.542   4.709   5.141  0.2187  0.2242  0.0786
   24CHL1  H15A 1721   0.647   4.687   5.167 -0.3671 -1.3175  1.2956
   24CHL1  H15B 1722   0.501   4.606   5.138  1.2176 -0.2280  1.2595
   24CHL1   C16 1723   0.510   4.779   5.011  0.1479  0.6159  0.1243
   24CHL1  H16A 1724   0.599   4.783   4.945  1.4080 -0.4580  1.6876
   24CHL1  H16B 1725   0.426   4.728   4.959 -2.2529  1.8585  2.4936
   24CHL1   C17 1726   0.475   4.927   5.042 -0.0378 -0.0532 -0.0065
   24CHL1   H17 1727   0.364   4.920   5.046  0.0143 -0.8125  0.1425
   24CHL1   C13 1728   0.525   4.943   5.194 -0.1486 -0.3259 -0.8164
   24CHL1   C18 1729   0.681   4.963   5.197 -0.0024  0.2194 -0.3134
   24CHL1  H18A 1730   0.743   4.891   5.139 -0.1873 -0.7993  0.7195
   24CHL1  H18B 1731   0.699   5.063   5.153  3.4215 -0.0334  0.2531
   24CHL1  H18C 1732   0.729   4.964   5.297 -0.6998  0.2411  0.0271
   24CHL1   C12 1733   0.450   5.049   5.281 -0.0955  0.4424 -0.2766
   24CHL1  H12A 1734   0.487   5.152   5.266  0.6759  0.1001 -0.7749
   24CHL1  H12B 1735   0.340   5.035   5.269  0.0399 -1.8582  0.5875
   24CHL1   C11 1736   0.481   5.020   5.430 -0.6452 -0.5504  0.5353
   24CHL1  H11A 1737   0.589   5.046   5.435 -0.4887 -0.9587 -0.3255
   24CHL1  H11B 1738   0.436   5.098   5.494  1.7904 -0.0237  1.7033
   24CHL1    C9 1739   0.465   4.879   5.485  0.3485 -0.9722 -0.6103
   24CHL1    H9 1740   0.355   4.866   5.483 -0.4410  3.8287 -0.3202
   24CHL1   C10 1741   0.509   4.863   5.634  0.4674  0.2970 -0.2671
   24CHL1   C19 1742   0.658   4.922   5.653 -0.1131  0.2375 -0.7396
   24CHL1  H19A 1743   0.725   4.871   5.581  0.0924  0.2762 -0.5773
   24CHL1  H19B 1744   0.663   5.030   5.631 -1.0325  0.6322  0.7888
   24CHL1  H19C 1745   0.700   4.909   5.755 -2.8627  2.0065  0.7299
   24CHL1    C1 1746   0.402   4.941   5.719  0.1620 -0.2006 -0.0409
   24CHL1   H1A 1747   0.417   5.047   5.690 -0.7732 -0.6154 -2.2081
   24CHL1   H1B 1748   0.298   4.915   5.690 -0.1658 -0.8774  1.6400
   24CHL1    C2 1749   0.420   4.914   5.864 -0.4946 -1.2823 -0.2335
   24CHL1   H2A 1750   0.341   4.967   5.921  0.9429  0.0884  0.5495
   24CHL1   H2B 1751   0.517   4.957   5.895 -1.0903 -0.0185 -0.0567
   24CHL1   C20 1752   0.521   5.021   4.932 -0.2099 -1.4429  0.0175
   24CHL1   H20 1753   0.630   5.005   4.928 -0.1889 -1.2660 -0.1328
   24CHL1   C21 1754   0.492   5.170   4.968 -0.5519 -0.4515 -0.3409
   24CHL1  H21A 1755   0.517   5.238   4.884  1.0021  1.7215  1.7543
   24CHL1  H21B 1756   0.551   5.213   5.052  1.8230 -2.2743 -0.9670
   24CHL1  H21C 1757   0.383   5.182   4.987 -0.4430  1.0579 -0.5454
   24CHL1   C22 1758   0.463   4.985   4.794  0.3186  0.0088 -0.0099
   24CHL1  H22A 1759   0.478   4.879   4.765 -1.3867 -0.0926 -0.6378
   24CHL1  H22B 1760   0.353   4.992   4.797  0.2474 -1.0743  0.2177
   24CHL1   C23 1761   0.505   5.078   4.675 -0.4852  0.0329 -0.5380
   24CHL1  H23A 1762   0.483   5.184   4.700  0.1200  0.1504 -0.4942
   24CHL1  H23B 1763   0.612   5.064   4.651 -0.1946  0.0518  0.6960
   24CHL1   C24 1764   0.421   5.056   4.551  0.4008 -0.4078 -0.3478
   24CHL1  H24A 1765   0.420   4.949   4.524  0.1899 -0.2221 -1.1028
   24CHL1  H24B 1766   0.317   5.088   4.576  0.6619 -2.4772  4.2665
   24CHL1   C25 1767   0.464   5.120   4.424 -0.4484 -0.2763  0.1216
   24CHL1   H25 1768   0.571   5.095   4.407 -0.4004  1.0760 -1.8938
   24CHL1   C26 1769   0.399   5.064   4.296 -0.0266 -0.4026  0.0818
   24CHL1  H26A 1770   0.295   5.099   4.278  0.0209 -0.8536 -1.1496
   24CHL1  H26B 1771   0.458   5.091   4.205 -0.0768 -1.9195 -0.4303
   24CHL1  H26C 1772   0.395   4.953   4.301 -0.8540 -0.4314 -0.8434
   24CHL1   C27 1773   0.476   5.272   4.433  0.0613 -0.0637  0.5047
   24CHL1  H27A 1774   0.541   5.296   4.519 -0.5915 -0.4463  1.1213
   24CHL1  H27B 1775   0.518   5.300   4.334 -1.3133 -1.7954 -0.6405
   24CHL1  H27C 1776   0.388   5.333   4.463 -0.7563  0.4040 -2.4919
   25CHL1    C3 1777   5.992   3.477   6.176 -0.0575 -0.5161  0.5081
   25CHL1    H3 1778   5.884   3.466   6.152 -0.3275  0.4129  1.2659
   25CHL1    O3 1779   6.019   3.484   6.315  0.4934  0.4808 -0.0777
   25CHL1   H3' 1780   5.953   3.544   6.349 -1.9777 -1.2756 -1.4160
   25CHL1    C4 1781   6.076   3.355   6.123  0.1454  0.6084 -0.0067
   25CHL1   H4A 1782   6.182   3.378   6.149 -0.1486  1.4769  0.4685
   25CHL1   H4B 1783   6.035   3.266   6.176 -1.1550  0.7005 -0.8150
   25CHL1    C5 1784   6.056   3.337   5.972 -0.4100  0.0928  0.3446
   25CHL1    C6 1785   6.013   3.222   5.910 -0.1433  0.0969 -0.5570
   25CHL1    H6 1786   6.000   3.133   5.974  2.8301 -0.6979 -0.9203
   25CHL1    C7 1787   6.000   3.205   5.764  0.6804 -0.0981 -0.0494
   25CHL1   H7A 1788   6.037   3.108   5.727 -0.7149 -0.2557 -1.0840
   25CHL1   H7B 1789   5.891   3.209   5.746  0.3109  2.1240  2.0429
   25CHL1    C8 1790   6.070   3.315   5.679 -0.1352  0.6018 -0.1604
   25CHL1    H8 1791   6.180   3.302   5.680 -0.0297  0.8776 -2.3767
   25CHL1   C14 1792   6.024   3.307   5.530  0.3292 -0.6929 -0.6318
   25CHL1   H14 1793   5.915   3.327   5.540  0.5030 -0.6372  1.9609
   25CHL1   C15 1794   6.035   3.186   5.440 -0.4799  0.1178  0.4044
   25CHL1  H15A 1795   6.134   3.138   5.448  0.5228  1.7771 -1.3377
   25CHL1  H15B 1796   5.959   3.110   5.468 -0.9609  0.0003 -1.1462
   25CHL1   C16 1797   6.007   3.239   5.299  0.3165 -0.5837  0.8077
   25CHL1  H16A 1798   6.078   3.193   5.227 -0.7008 -0.7659 -0.1116
   25CHL1  H16B 1799   5.909   3.198   5.267  1.0466  0.5928 -3.6911
   25CHL1   C17 1800   6.009   3.392   5.311  0.7269 -0.4968 -0.4353
   25CHL1   H17 1801   5.903   3.418   5.333  0.5118 -1.4080 -0.3508
   25CHL1   C13 1802   6.084   3.419   5.443  0.6855 -0.6489  0.2359
   25CHL1   C18 1803   6.238   3.388   5.427 -0.1796 -0.1472  0.6145
   25CHL1  H18A 1804   6.288   3.471   5.374 -0.3888 -0.6560 -0.4177
   25CHL1  H18B 1805   6.285   3.366   5.525 -1.6789 -3.1287  0.8104
   25CHL1  H18C 1806   6.252   3.292   5.373  0.4454 -0.4595  1.3120
   25CHL1   C12 1807   6.064   3.558   5.502 -0.1537  0.0490 -0.2047
   25CHL1  H12A 1808   6.126   3.639   5.457 -0.1283 -0.7155 -1.5902
   25CHL1  H12B 1809   5.955   3.576   5.513 -0.5102 -2.6391  1.7440
   25CHL1   C11 1810   6.118   3.561   5.651 -0.3209 -0.0918 -0.2021
   25CHL1  H11A 1811   6.229   3.558   5.656 -0.2643  0.9816 -0.5738
   25CHL1  H11B 1812   6.089   3.661   5.689  0.5385  0.4002 -0.8133
   25CHL1    C9 1813   6.049   3.458   5.738  0.2485 -0.0484  0.1705
   25CHL1    H9 1814   5.939   3.472   5.738 -0.2334 -3.1050  0.5472
   25CHL1   C10 1815   6.095   3.461   5.886  0.9625 -0.6803  0.2624
   25CHL1   C19 1816   6.242   3.487   5.899 -0.8866 -0.4586 -0.0050
   25CHL1  H19A 1817   6.292   3.452   5.992 -0.8505  0.3780  0.3030
   25CHL1  H19B 1818   6.297   3.426   5.824  0.1807  1.4987 -0.9009
   25CHL1  H19C 1819   6.273   3.594   5.897  2.3568 -1.2672  0.8599
   25CHL1    C1 1820   6.021   3.585   5.944 -0.0720  0.2950  1.0223
   25CHL1   H1A 1821   6.058   3.679   5.899  1.2863  0.9074  3.2680
   25CHL1   H1B 1822   5.915   3.585   5.909  0.6959  2.4213 -1.6869
   25CHL1    C2 1823   6.039   3.600   6.097  0.3020  0.8329 -1.0835
   25CHL1   H2A 1824   5.977   3.688   6.124 -1.0232  0.3667 -2.4594
   25CHL1   H2B 1825   6.146   3.626   6.108 -0.4991  4.3315 -0.0334
   25CHL1   C20 1826   6.048   3.461   5.177  0.3751  0.4063  0.4436
   25CHL1   H20 1827   6.146   3.415   5.153  0.4283 -0.2353  1.7596
   25CHL1   C21 1828   6.077   3.608   5.186 -1.0309  0.5659 -0.0645
   25CHL1  H21A 1829   5.995   3.655   5.244 -1.2851 -0.3032  0.2923
   25CHL1  H21B 1830   6.097   3.653   5.087  1.3921 -0.5050 -0.1378
   25CHL1  H21C 1831   6.169   3.615   5.248 -1.1392  1.9157 -0.0323
   25CHL1   C22 1832   5.945   3.425   5.069 -0.5232 -0.2454  0.5862
   25CHL1  H22A 1833   5.924   3.317   5.054  0.2824 -0.4161  0.6433
   25CHL1  H22B 1834   5.845   3.465   5.099  0.7516  2.7521  1.2329
   25CHL1   C23 1835   5.995   3.477   4.926  0.5860  0.2800 -0.0813
   25CHL1  H23A 1836   5.979   3.587   4.932  0.4533  0.2673 -0.2023
   25CHL1  H23B 1837   6.105   3.463   4.911  0.3201 -2.2907 -0.1002
   25CHL1   C24 1838   5.907   3.424   4.818  0.5203  0.1803  1.3985
   25CHL1  H24A 1839   5.951   3.326   4.790 -0.1355 -0.6558  3.2146
   25CHL1  H24B 1840   5.805   3.411   4.860 -0.2690  1.4889  0.0035
   25CHL1   C25 1841   5.893   3.510   4.684 -0.5684 -0.1330 -0.0313
   25CHL1   H25 1842   5.874   3.617   4.705  2.3414  0.7423 -1.3364
   25CHL1   C26 1843   6.013   3.494   4.591  0.0692 -0.4052  0.1923
   25CHL1  H26A 1844   5.994   3.561   4.504 -1.9524  0.6547  1.3682
   25CHL1  H26B 1845   6.111   3.508   4.642  0.8923 -2.5433 -0.7205
   25CHL1  H26C 1846   6.013   3.393   4.545 -0.6252 -0.1437 -0.3972
   25CHL1   C27 1847   5.768   3.461   4.603 -0.4354  0.6471  0.2458
   25CHL1  H27A 1848   5.794   3.366   4.553 -1.0276  1.5746 -1.9860
   25CHL1  H27B 1849   5.686   3.466   4.678 -0.1476  3.0106  0.4956
   25CHL1  H27C 1850   5.753   3.538   4.524  1.7978  0.7472 -0.1427
   26CHL1    C3 1851   1.014   6.454   5.999 -0.4406 -0.1978 -0.0558
   26CHL1    H3 1852   0.947   6.543   6.007  1.0594  0.8587  1.6817
   26CHL1    O3 1853   1.058   6.427   6.133 -0.2319 -0.2341  0.1378
   26CHL1   H3' 1854   1.089   6.508   6.174  1.1879 -0.7458  0.1199
   26CHL1    C4 1855   0.936   6.333   5.940 -0.2968 -0.0889 -0.3754
   26CHL1   H4A 1856   1.006   6.247   5.952  0.9669  0.6979 -1.7379
   26CHL1   H4B 1857   0.860   6.311   6.018 -0.3588 -1.2196 -0.7240
   26CHL1    C5 1858   0.887   6.343   5.791  0.3548 -0.0456 -0.0025
   26CHL1    C6 1859   0.759   6.359   5.756 -0.3369 -0.0966  0.8035
   26CHL1    H6 1860   0.680   6.339   5.829 -1.9623  0.4999 -0.7242
   26CHL1    C7 1861   0.722   6.372   5.605 -0.3903  0.8020 -0.6854
   26CHL1   H7A 1862   0.635   6.307   5.580 -1.1643  1.0342  1.2186
   26CHL1   H7B 1863   0.686   6.476   5.588 -0.0529  1.0365 -0.0051
   26CHL1    C8 1864   0.831   6.335   5.507  0.0338  0.0296  0.5880
   26CHL1    H8 1865   0.847   6.225   5.508 -3.0603 -0.6454 -3.1840
   26CHL1   C14 1866   0.808   6.391   5.368 -0.3129  0.1407 -0.2983
   26CHL1   H14 1867   0.814   6.501   5.385  0.9714 -0.2561  2.4338
   26CHL1   C15 1868   0.665   6.371   5.302  0.0699  0.0908  0.2632
   26CHL1  H15A 1869   0.615   6.275   5.327 -0.7054  0.6234  0.7904
   26CHL1  H15B 1870   0.595   6.450   5.335  2.4490  1.4315  2.5202
   26CHL1   C16 1871   0.697   6.390   5.157 -0.0493  0.3701 -0.0035
   26CHL1  H16A 1872   0.673   6.288   5.118 -2.8856  0.5850  0.9268
   26CHL1  H16B 1873   0.636   6.467   5.105 -1.0367 -1.0795 -1.1056
   26CHL1   C17 1874   0.854   6.417   5.145  0.7344 -0.2514 -0.4545
   26CHL1   H17 1875   0.846   6.528   5.149 -0.3026 -0.3433  0.6319
   26CHL1   C13 1876   0.920   6.364   5.272  0.0919  0.0271  0.2895
   26CHL1   C18 1877   0.944   6.207   5.250 -0.4924  0.3876  0.3031
   26CHL1  H18A 1878   0.957   6.155   5.347 -1.6432 -0.4433  0.0267
   26CHL1  H18B 1879   0.853   6.165   5.202 -1.3601  2.4904 -0.0261
   26CHL1  H18C 1880   1.037   6.190   5.190 -0.7859  2.1825 -0.7450
   26CHL1   C12 1881   1.050   6.435   5.323  0.5557 -0.6054  0.6297
   26CHL1  H12A 1882   1.130   6.419   5.247  1.1426  2.7399  0.3789
   26CHL1  H12B 1883   1.029   6.544   5.319  0.1093 -0.7134 -0.4089
   26CHL1   C11 1884   1.082   6.381   5.458 -0.8474 -0.3826  0.5410
   26CHL1  H11A 1885   1.103   6.275   5.430 -1.4275  0.0178 -1.6328
   26CHL1  H11B 1886   1.176   6.434   5.484  0.4454 -0.7831 -2.8031
   26CHL1    C9 1887   0.970   6.398   5.557  0.0293 -0.1787  0.5309
   26CHL1    H9 1888   0.941   6.505   5.555 -2.1760 -0.7287 -0.0289
   26CHL1   C10 1889   1.012   6.367   5.703  0.4100  0.1811 -0.2260
   26CHL1   C19 1890   1.104   6.236   5.695  0.4537 -0.2517 -0.7874
   26CHL1  H19A 1891   1.199   6.256   5.642  0.8497 -0.4866 -0.1803
   26CHL1  H19B 1892   1.148   6.211   5.794  0.4694 -1.6653 -1.1189
   26CHL1  H19C 1893   1.048   6.158   5.639 -1.0491 -0.7469  1.2478
   26CHL1    C1 1894   1.095   6.491   5.748 -0.6530 -0.3030 -0.0406
   26CHL1   H1A 1895   1.188   6.508   5.689 -0.9574  4.0577  0.4165
   26CHL1   H1B 1896   1.038   6.586   5.749 -1.3477 -0.6865 -1.2851
   26CHL1    C2 1897   1.137   6.482   5.900  0.2621 -0.0927  0.1728
   26CHL1   H2A 1898   1.183   6.577   5.935 -0.7826 -0.4040  2.6059
   26CHL1   H2B 1899   1.212   6.403   5.917 -1.5495 -1.5801  1.5924
   26CHL1   C20 1900   0.924   6.384   5.013 -0.7699 -0.6812  0.1161
   26CHL1   H20 1901   0.984   6.291   5.009 -3.7249 -2.6896 -2.3036
   26CHL1   C21 1902   1.026   6.503   4.981 -0.7055 -0.1833 -0.2379
   26CHL1  H21A 1903   0.970   6.595   4.952 -3.5152 -2.2828 -1.9720
   26CHL1  H21B 1904   1.108   6.483   4.909  0.7300  1.2671  0.9256
   26CHL1  H21C 1905   1.071   6.535   5.077  0.0784  1.7024 -1.1787
   26CHL1   C22 1906   0.821   6.389   4.896  0.0364  0.0342 -0.4054
   26CHL1  H22A 1907   0.758   6.298   4.907 -1.1060  0.7512 -0.9224
   26CHL1  H22B 1908   0.749   6.472   4.906  0.2360  0.2689 -0.9153
   26CHL1   C23 1909   0.876   6.393   4.748 -0.8208 -0.3790  0.7716
   26CHL1  H23A 1910   0.938   6.484   4.737 -1.6739  0.2944  1.3008
   26CHL1  H23B 1911   0.942   6.306   4.731 -0.5672 -0.4355  1.9396
   26CHL1   C24 1912   0.761   6.393   4.645 -0.6290  0.1851  0.0586
   26CHL1  H24A 1913   0.707   6.298   4.663  0.7351 -0.9741 -1.7132
   26CHL1  H24B 1914   0.690   6.477   4.664 -2.1638 -0.5655 -1.9947
   26CHL1   C25 1915   0.799   6.386   4.492 -1.4800 -0.7207 -0.9003
   26CHL1   H25 1916   0.857   6.480   4.475 -2.4496 -0.6347 -4.6624
   26CHL1   C26 1917   0.886   6.273   4.441 -0.3498  0.4003 -0.3487
   26CHL1  H26A 1918   0.977   6.264   4.505 -0.7643  4.0178  1.0400
   26CHL1  H26B 1919   0.827   6.180   4.431 -0.0270  0.3519 -2.2658
   26CHL1  H26C 1920   0.918   6.291   4.336  1.0262 -1.1367 -0.2325
   26CHL1   C27 1921   0.681   6.414   4.403  0.2206  0.1124 -0.0344
   26CHL1  H27A 1922   0.631   6.509   4.432  0.4841 -0.2267  1.6304
   26CHL1  H27B 1923   0.706   6.427   4.295  0.7615  0.8031  0.1698
   26CHL1  H27C 1924   0.611   6.329   4.412  1.9679 -1.2525  1.3270
   27CHL1    C3 1925   1.019   4.756   5.917 -0.6021 -0.1296 -0.1084
   27CHL1    H3 1926   0.913   4.786   5.910 -0.5381  1.0109  2.5268
   27CHL1    O3 1927   1.043   4.699   6.045 -0.2039 -0.2736  0.7216
   27CHL1   H3' 1928   1.130   4.659   6.034  0.3570  1.4362 -2.7025
   27CHL1    C4 1929   1.048   4.647   5.822 -0.0654  0.1913  0.0774
   27CHL1   H4A 1930   1.143   4.597   5.848 -1.2517 -2.9183 -1.1139
   27CHL1   H4B 1931   0.976   4.563   5.833  2.1248 -1.8218 -0.3967
   27CHL1    C5 1932   1.042   4.688   5.677  0.4993  0.1403 -0.4209
   27CHL1    C6 1933   0.966   4.620   5.590 -0.1578  0.1929 -0.1925
   27CHL1    H6 1934   0.899   4.541   5.626 -0.7618  1.3229  1.2981
   27CHL1    C7 1935   0.959   4.656   5.444  0.6604  0.0515  0.5830
   27CHL1   H7A 1936   0.970   4.569   5.375 -2.2372 -0.2806  0.4073
   27CHL1   H7B 1937   0.865   4.710   5.419  1.3048  1.3248  0.8333
   27CHL1    C8 1938   1.063   4.758   5.397 -0.2049 -0.0171 -0.0397
   27CHL1    H8 1939   1.157   4.705   5.371  0.7649  2.4150 -1.9524
   27CHL1   C14 1940   1.011   4.823   5.266  0.3439 -0.5664 -0.5686
   27CHL1   H14 1941   0.924   4.882   5.302  3.1941  2.1202  2.6481
   27CHL1   C15 1942   0.968   4.727   5.157 -0.2841  0.2361 -0.6404
   27CHL1  H15A 1943   1.043   4.645   5.151  0.4580  0.8313  0.2429
   27CHL1  H15B 1944   0.867   4.687   5.180  0.4654 -1.8116 -0.7306
   27CHL1   C16 1945   0.992   4.801   5.026 -0.5585 -0.3046 -0.8278
   27CHL1  H16A 1946   1.077   4.750   4.977  0.9080  0.0443  1.1908
   27CHL1  H16B 1947   0.903   4.801   4.960 -0.2317  1.0162 -1.2985
   27CHL1   C17 1948   1.042   4.943   5.068  0.0138  0.1013 -0.0542
   27CHL1   H17 1949   0.951   4.993   5.107  0.3295  0.7620 -0.1550
   27CHL1   C13 1950   1.120   4.908   5.201  0.1029 -0.2329 -0.1477
   27CHL1   C18 1951   1.263   4.846   5.171 -0.0792 -0.2535 -0.3993
   27CHL1  H18A 1952   1.322   4.928   5.123  0.2456 -0.0926  0.2699
   27CHL1  H18B 1953   1.313   4.796   5.256 -0.2128  0.8891  0.3618
   27CHL1  H18C 1954   1.262   4.768   5.091  0.2963  0.9563 -1.6296
   27CHL1   C12 1955   1.144   5.032   5.288 -0.0823  0.2789 -0.2494
   27CHL1  H12A 1956   1.228   5.091   5.245 -0.7265  1.4756  0.1068
   27CHL1  H12B 1957   1.056   5.099   5.286  0.0083  0.4630  1.0200
   27CHL1   C11 1958   1.184   4.990   5.438 -0.4057 -0.5190  0.0001
   27CHL1  H11A 1959   1.288   4.952   5.430 -0.5412 -0.6890 -1.1375
   27CHL1  H11B 1960   1.181   5.084   5.496  0.7844  0.2446 -1.1012
   27CHL1    C9 1961   1.094   4.872   5.491 -0.1515  0.0460  0.6859
   27CHL1    H9 1962   0.999   4.926   5.508 -2.5306 -3.1219 -1.4265
   27CHL1   C10 1963   1.129   4.810   5.635 -0.6095 -0.7768  0.4605
   27CHL1   C19 1964   1.274   4.759   5.636 -0.3455  0.3909  0.9484
   27CHL1  H19A 1965   1.300   4.679   5.564 -0.0095 -0.6370  2.1677
   27CHL1  H19B 1966   1.345   4.836   5.600 -0.0611 -0.6780 -0.8841
   27CHL1  H19C 1967   1.297   4.727   5.740  1.5947  0.1501  0.4854
   27CHL1    C1 1968   1.100   4.922   5.739  0.6168  0.3699  0.1006
   27CHL1   H1A 1969   1.164   5.011   5.720 -1.5269  2.3256  1.6175
   27CHL1   H1B 1970   0.996   4.959   5.730  0.7805  0.5657 -1.1792
   27CHL1    C2 1971   1.114   4.874   5.884 -0.7937 -0.2313  0.1069
   27CHL1   H2A 1972   1.087   4.958   5.951  0.5647 -0.9761  1.6736
   27CHL1   H2B 1973   1.219   4.843   5.905 -1.0822 -0.7267  0.8668
   27CHL1   C20 1974   1.094   5.030   4.951  0.0141  0.3453 -0.2092
   27CHL1   H20 1975   1.200   5.002   4.933 -0.3148 -0.9462 -0.1935
   27CHL1   C21 1976   1.067   5.175   4.979 -0.5309 -0.2686 -0.7448
   27CHL1  H21A 1977   1.135   5.202   5.062  0.8479 -2.9444 -0.9113
   27CHL1  H21B 1978   0.963   5.184   5.018 -0.1553 -2.0670  0.7803
   27CHL1  H21C 1979   1.084   5.237   4.888 -0.3632  2.5872  1.0869
   27CHL1   C22 1980   1.030   4.996   4.807 -0.6750  0.1355 -0.4192
   27CHL1  H22A 1981   0.919   4.983   4.814 -0.7689  0.7915 -0.6683
   27CHL1  H22B 1982   1.040   5.083   4.740 -0.5951 -0.4741 -1.2137
   27CHL1   C23 1983   1.079   4.878   4.717 -0.1640 -0.2804  0.5551
   27CHL1  H23A 1984   1.189   4.886   4.713 -0.0162 -1.2716  1.8795
   27CHL1  H23B 1985   1.052   4.784   4.770  0.5196 -1.2445 -0.7572
   27CHL1   C24 1986   1.002   4.882   4.585  1.0380 -0.4385 -0.6912
   27CHL1  H24A 1987   0.891   4.877   4.591  0.7108  3.2014 -1.7242
   27CHL1  H24B 1988   1.016   4.983   4.541 -2.9655  0.4063 -0.4326
   27CHL1   C25 1989   1.058   4.788   4.469  0.2749  0.6260 -0.2027
   27CHL1   H25 1990   1.162   4.819   4.443  0.6419  0.4379  0.9581
   27CHL1   C26 1991   1.068   4.645   4.527 -0.1669 -0.1349  0.1556
   27CHL1  H26A 1992   0.971   4.621   4.575 -0.7303  1.5261 -0.1162
   27CHL1  H26B 1993   1.087   4.570   4.447 -3.0830 -1.0732  0.2214
   27CHL1  H26C 1994   1.143   4.639   4.608  2.6180 -0.1666 -2.2466
   27CHL1   C27 1995   0.964   4.788   4.349  0.1227 -0.8730  0.3279
   27CHL1  H27A 1996   1.003   4.725   4.266 -0.9970  1.5670 -2.2452
   27CHL1  H27B 1997   0.863   4.756   4.382 -0.6606  1.3106  0.2390
   27CHL1  H27C 1998   0.947   4.889   4.305 -0.3752 -1.1889 -0.2245
   28CHL1    C3 1999   5.258   5.856   6.046  0.1699  0.1102 -0.9670
   28CHL1    H3 2000   5.160   5.859   5.994  1.9068  2.0458 -4.5324
   28CHL1    O3 2001   5.238   5.814   6.180 -0.2388  0.1075 -0.1315
   28CHL1   H3' 2002   5.181   5.882   6.217  0.0608 -0.1677  0.8812
   28CHL1    C4 2003   5.337   5.752   5.957  0.3646 -0.2696  0.4956
   28CHL1   H4A 2004   5.434   5.726   6.004 -0.4072 -1.2210  1.6320
   28CHL1   H4B 2005   5.283   5.656   5.967 -0.6544  0.3739  1.3495
   28CHL1    C5 2006   5.342   5.806   5.813 -0.1270  0.2054  0.0610
   28CHL1    C6 2007   5.294   5.726   5.714  0.2905 -0.2551  0.3628
   28CHL1    H6 2008   5.267   5.622   5.740 -1.7093  0.6519  2.2327
   28CHL1    C7 2009   5.296   5.760   5.566  0.2598 -0.1218  0.4191
   28CHL1   H7A 2010   5.311   5.667   5.509  1.7514 -0.4991  1.3569
   28CHL1   H7B 2011   5.193   5.794   5.541  0.6206  1.1961  0.6413
   28CHL1    C8 2012   5.396   5.880   5.533  0.8436 -0.3153  0.0832
   28CHL1    H8 2013   5.501   5.848   5.554  0.8125  0.6810  2.0264
   28CHL1   C14 2014   5.383   5.929   5.389  0.2103 -0.3440 -0.2476
   28CHL1   H14 2015   5.278   5.963   5.374  0.0036 -1.5201 -1.7260
   28CHL1   C15 2016   5.390   5.824   5.275 -0.0502 -0.1173 -0.6752
   28CHL1  H15A 2017   5.472   5.756   5.305  0.4973  1.6777  2.2064
   28CHL1  H15B 2018   5.294   5.768   5.273 -0.4638  0.3825  2.0565
   28CHL1   C16 2019   5.420   5.910   5.147 -0.3247 -0.4224  0.0605
   28CHL1  H16A 2020   5.511   5.864   5.104  0.7391  1.0642  0.6602
   28CHL1  H16B 2021   5.332   5.927   5.080 -0.6403  1.8658  0.9675
   28CHL1   C17 2022   5.445   6.055   5.205 -0.2001 -0.2566 -0.1434
   28CHL1   H17 2023   5.345   6.102   5.197 -0.5280 -0.3664  2.4273
   28CHL1   C13 2024   5.476   6.039   5.353  0.5747 -0.0594 -0.7059
   28CHL1   C18 2025   5.624   5.992   5.372 -0.2002  0.5576 -0.2394
   28CHL1  H18A 2026   5.708   6.052   5.330  1.2149 -0.4072  1.0953
   28CHL1  H18B 2027   5.656   5.975   5.477  3.9721 -0.3083 -1.4403
   28CHL1  H18C 2028   5.640   5.891   5.327 -0.3267 -0.4155  1.8070
   28CHL1   C12 2029   5.433   6.153   5.444 -1.5315  0.9280  0.3812
   28CHL1  H12A 2030   5.498   6.242   5.431  0.0246 -0.1567  0.3689
   28CHL1  H12B 2031   5.327   6.182   5.430 -1.8130 -0.1291  0.2142
   28CHL1   C11 2032   5.444   6.124   5.596 -0.4926  0.4554 -0.9947
   28CHL1  H11A 2033   5.549   6.125   5.634  0.0383 -1.8725 -2.2030
   28CHL1  H11B 2034   5.393   6.208   5.648 -0.2247 -0.0136  0.0556
   28CHL1    C9 2035   5.374   5.989   5.639 -0.5424 -0.3377  0.4980
   28CHL1    H9 2036   5.265   6.005   5.629 -0.2113  0.3626 -3.9355
   28CHL1   C10 2037   5.397   5.942   5.789  0.5892 -0.3176  0.2091
   28CHL1   C19 2038   5.546   5.939   5.828  0.1941 -0.3348  0.9010
   28CHL1  H19A 2039   5.589   6.041   5.839  1.7744 -0.6306 -1.7071
   28CHL1  H19B 2040   5.551   5.893   5.929  0.3219 -1.3679  0.4359
   28CHL1  H19C 2041   5.608   5.887   5.752 -0.4336  1.5648 -0.9949
   28CHL1    C1 2042   5.328   6.052   5.891  0.1129 -0.4001 -1.0588
   28CHL1   H1A 2043   5.383   6.148   5.886 -1.0283  0.2113 -2.9884
   28CHL1   H1B 2044   5.226   6.081   5.858 -0.1608 -0.8422 -0.6008
   28CHL1    C2 2045   5.315   5.998   6.037 -0.1766  0.3539  0.1749
   28CHL1   H2A 2046   5.252   6.064   6.100 -1.3246 -0.6325  0.0961
   28CHL1   H2B 2047   5.421   5.997   6.073 -0.7449  0.8315  1.9522
   28CHL1   C20 2048   5.538   6.133   5.108  0.6737 -0.3045  0.2347
   28CHL1   H20 2049   5.636   6.079   5.109  0.5848 -0.4625  0.5744
   28CHL1   C21 2050   5.567   6.276   5.155  1.0203 -0.0691 -0.3801
   28CHL1  H21A 2051   5.477   6.323   5.199  1.6320 -0.8914  1.9218
   28CHL1  H21B 2052   5.611   6.346   5.082 -0.1598  0.5568 -0.5108
   28CHL1  H21C 2053   5.639   6.269   5.240  1.1134  1.6998 -0.2809
   28CHL1   C22 2054   5.492   6.125   4.958 -0.0207  0.3874  0.0356
   28CHL1  H22A 2055   5.563   6.189   4.900 -2.2864  1.3902 -1.7659
   28CHL1  H22B 2056   5.501   6.019   4.926  1.3111  0.3326  0.5103
   28CHL1   C23 2057   5.360   6.186   4.922  0.2350  0.6687 -0.2184
   28CHL1  H23A 2058   5.274   6.145   4.980  2.6140 -1.6748  1.8862
   28CHL1  H23B 2059   5.361   6.296   4.940 -1.7097  0.4901  1.3740
   28CHL1   C24 2060   5.325   6.172   4.768 -0.1179  0.3505  0.2822
   28CHL1  H24A 2061   5.417   6.167   4.706 -0.5282 -1.0804 -0.2450
   28CHL1  H24B 2062   5.258   6.085   4.750 -1.6426  1.4628  0.3626
   28CHL1   C25 2063   5.232   6.283   4.715 -0.4256 -0.2002  0.0394
   28CHL1   H25 2064   5.154   6.298   4.793  0.2216 -0.2713  0.7034
   28CHL1   C26 2065   5.301   6.416   4.695  0.1058 -0.3184  0.2129
   28CHL1  H26A 2066   5.246   6.484   4.627  0.3881  0.5604  0.8512
   28CHL1  H26B 2067   5.332   6.468   4.788  1.5099  1.3356 -1.1091
   28CHL1  H26C 2068   5.396   6.395   4.642 -0.3954 -0.5032 -0.6459
   28CHL1   C27 2069   5.178   6.238   4.575 -0.3122 -0.1391  0.3933
   28CHL1  H27A 2070   5.117   6.315   4.524 -0.6139 -1.3009 -1.0737
   28CHL1  H27B 2071   5.257   6.215   4.501 -0.7995 -0.3462 -0.0739
   28CHL1  H27C 2072   5.129   6.138   4.586 -1.2079  0.1529 -0.6841
   29CHL1    C3 2073   0.143   5.295   2.368  0.4499  0.7319  0.0338
   29CHL1    H3 2074   0.150   5.185   2.369  0.8715  0.7583  0.4381
   29CHL1    O3 2075   0.121   5.342   2.238 -0.0625 -0.4313  0.2604
   29CHL1   H3' 2076   0.106   5.437   2.245  0.8022 -0.3129  0.7358
   29CHL1    C4 2077   0.027   5.345   2.458  0.1419  0.4863  0.8529
   29CHL1   H4A 2078   0.012   5.451   2.430  0.1781 -0.2088 -2.1394
   29CHL1   H4B 2079  -0.065   5.294   2.421  2.7643 -2.6920 -1.8536
   29CHL1    C5 2080   0.038   5.318   2.600 -0.5393  1.2003  0.2826
   29CHL1    C6 2081  -0.061   5.257   2.669  0.1983 -0.1889  0.7829
   29CHL1    H6 2082  -0.158   5.238   2.620 -0.3602  1.2761  1.2358
   29CHL1    C7 2083  -0.046   5.233   2.819 -0.0506 -0.1776 -0.4262
   29CHL1   H7A 2084  -0.140   5.257   2.873 -0.1279  1.0806 -1.0715
   29CHL1   H7B 2085  -0.043   5.122   2.828  1.7272 -0.1621 -0.5334
   29CHL1    C8 2086   0.073   5.307   2.885  0.3309  0.0934  0.1797
   29CHL1    H8 2087   0.045   5.414   2.891  0.2491  0.0622  0.3467
   29CHL1   C14 2088   0.093   5.243   3.018 -0.1187 -0.1375 -0.1864
   29CHL1   H14 2089   0.133   5.141   2.999 -0.6420 -0.0896 -1.6751
   29CHL1   C15 2090  -0.023   5.225   3.118 -0.2284 -0.8794 -0.3480
   29CHL1  H15A 2091  -0.087   5.315   3.113  1.1401  0.2381  1.0232
   29CHL1  H15B 2092  -0.074   5.130   3.092  0.5107 -1.5491  0.5489
   29CHL1   C16 2093   0.038   5.207   3.258  0.6980 -0.5445  0.0309
   29CHL1  H16A 2094   0.004   5.298   3.312  0.0828 -0.2456 -0.8322
   29CHL1  H16B 2095   0.014   5.115   3.315 -1.5241 -0.8663 -1.2950
   29CHL1   C17 2096   0.193   5.215   3.232 -0.5036  0.2221 -0.7035
   29CHL1   H17 2097   0.236   5.116   3.205  1.3408  1.5528 -3.0733
   29CHL1   C13 2098   0.213   5.298   3.102  0.3882  0.3019  0.2880
   29CHL1   C18 2099   0.178   5.448   3.131  0.2282 -0.7616 -0.4678
   29CHL1  H18A 2100   0.141   5.497   3.038  1.7742 -1.7174 -1.6375
   29CHL1  H18B 2101   0.094   5.457   3.203 -2.1193 -2.1652 -2.8298
   29CHL1  H18C 2102   0.265   5.511   3.159 -0.2157 -0.8421  1.1952
   29CHL1   C12 2103   0.342   5.281   3.020  0.4896 -0.0299  0.1140
   29CHL1  H12A 2104   0.428   5.324   3.075 -0.2694  1.7242 -0.0013
   29CHL1  H12B 2105   0.359   5.172   3.006 -0.5061 -0.2124  0.2470
   29CHL1   C11 2106   0.329   5.342   2.879  0.5226 -0.0118 -1.1283
   29CHL1  H11A 2107   0.332   5.453   2.876  2.2748 -0.0243 -0.7814
   29CHL1  H11B 2108   0.415   5.309   2.817  1.0973  0.7850 -0.7735
   29CHL1    C9 2109   0.196   5.303   2.796  0.3282 -0.2837 -0.6960
   29CHL1    H9 2110   0.206   5.193   2.785  0.2438 -0.2027 -1.6469
   29CHL1   C10 2111   0.179   5.366   2.651  0.6440  0.3632  0.6130
   29CHL1   C19 2112   0.181   5.522   2.666 -0.5605 -0.4095  0.2410
   29CHL1  H19A 2113   0.283   5.557   2.694 -0.6650 -1.3118  1.9081
   29CHL1  H19B 2114   0.136   5.580   2.583  1.9125  0.9942 -0.2245
   29CHL1  H19C 2115   0.136   5.553   2.763  2.7681 -0.9424  2.1331
   29CHL1    C1 2116   0.290   5.305   2.564 -0.0282 -0.1342 -0.4390
   29CHL1   H1A 2117   0.395   5.334   2.586  0.1743 -1.4174  0.3792
   29CHL1   H1B 2118   0.282   5.195   2.578  0.2446 -0.1103 -0.0951
   29CHL1    C2 2119   0.277   5.338   2.416 -0.1247  0.5561 -0.2870
   29CHL1   H2A 2120   0.353   5.277   2.364 -1.3000  0.2676 -1.7513
   29CHL1   H2B 2121   0.309   5.442   2.395 -1.5842  0.7936 -1.4872
   29CHL1   C20 2122   0.257   5.259   3.367  0.4044  0.5672  0.0867
   29CHL1   H20 2123   0.217   5.360   3.391 -0.7888  0.6151 -1.8358
   29CHL1   C21 2124   0.409   5.277   3.344  0.1200 -0.0096 -0.2838
   29CHL1  H21A 2125   0.450   5.288   3.447 -0.6248  0.5386 -0.0363
   29CHL1  H21B 2126   0.433   5.370   3.288  0.4912  0.7110  1.0280
   29CHL1  H21C 2127   0.462   5.193   3.294 -0.1233 -0.2118 -0.2068
   29CHL1   C22 2128   0.223   5.160   3.487 -0.7301  0.1633 -0.5328
   29CHL1  H22A 2129   0.117   5.130   3.500 -0.3340 -0.5727  1.4488
   29CHL1  H22B 2130   0.283   5.073   3.454  1.2745  0.9976  0.6774
   29CHL1   C23 2131   0.272   5.208   3.628  0.5927  0.4416  0.1463
   29CHL1  H23A 2132   0.380   5.232   3.625  0.5638  0.7347  1.0314
   29CHL1  H23B 2133   0.212   5.294   3.665 -1.3592 -0.5268 -0.6510
   29CHL1   C24 2134   0.239   5.104   3.741 -0.1862 -0.0812 -0.1181
   29CHL1  H24A 2135   0.141   5.061   3.714  0.8533 -2.1610 -0.8446
   29CHL1  H24B 2136   0.314   5.022   3.740  0.9111  0.8891  0.0850
   29CHL1   C25 2137   0.229   5.162   3.887  0.4324  0.0557  0.0020
   29CHL1   H25 2138   0.139   5.227   3.891  0.1851 -0.3541  1.7463
   29CHL1   C26 2139   0.208   5.038   3.973  1.3737 -0.0594 -0.3230
   29CHL1  H26A 2140   0.299   4.974   3.973  0.7960 -0.9009 -0.3023
   29CHL1  H26B 2141   0.183   5.078   4.074  1.7855 -0.7984  0.0808
   29CHL1  H26C 2142   0.121   4.979   3.936  1.4973 -0.3285 -0.1938
   29CHL1   C27 2143   0.350   5.233   3.938  0.5680  0.0942 -0.3552
   29CHL1  H27A 2144   0.370   5.318   3.868  1.6236 -1.3665 -1.9231
   29CHL1  H27B 2145   0.336   5.263   4.044  2.6866 -0.4086  0.1292
   29CHL1  H27C 2146   0.440   5.168   3.943 -0.6966 -1.7392 -0.5322
   30CHL1    C3 2147   6.257   3.339   2.705 -0.3097 -0.1640  0.1658
   30CHL1    H3 2148   6.226   3.240   2.663 -2.2866  0.7385 -0.6766
   30CHL1    O3 2149   6.292   3.417   2.596 -0.6833 -0.1147 -0.3312
   30CHL1   H3' 2150   6.263   3.508   2.594  2.1147  0.8814 -0.5839
   30CHL1    C4 2151   6.131   3.406   2.775 -0.0057  0.0234  0.3491
   30CHL1   H4A 2152   6.149   3.516   2.776  4.0499 -0.4569 -1.3049
   30CHL1   H4B 2153   6.049   3.388   2.702 -0.2696 -0.7800  0.8265
   30CHL1    C5 2154   6.103   3.354   2.911  0.0935  0.0884  0.8849
   30CHL1    C6 2155   5.985   3.297   2.940  0.1162 -0.2634  0.6629
   30CHL1    H6 2156   5.899   3.291   2.873  0.7102 -1.0246 -0.0592
   30CHL1    C7 2157   5.942   3.253   3.074  0.0905 -0.1351  0.2076
   30CHL1   H7A 2158   5.844   3.287   3.115  0.6013 -1.0994  2.4116
   30CHL1   H7B 2159   5.922   3.144   3.074 -0.4765 -0.0831  2.6300
   30CHL1    C8 2160   6.050   3.281   3.185 -0.7329  0.0344 -0.1247
   30CHL1    H8 2161   6.031   3.388   3.208 -0.0069  0.4976 -1.5885
   30CHL1   C14 2162   6.034   3.189   3.312  0.5836  0.0046  0.5101
   30CHL1   H14 2163   6.049   3.087   3.270  0.0414 -0.4088  1.2868
   30CHL1   C15 2164   5.895   3.184   3.382 -0.6277 -0.4238 -0.2556
   30CHL1  H15A 2165   5.835   3.277   3.383 -0.9861 -0.6548  0.9986
   30CHL1  H15B 2166   5.835   3.101   3.339  0.5163 -1.0989 -0.6026
   30CHL1   C16 2167   5.937   3.154   3.530  0.5964  1.0270  0.3493
   30CHL1  H16A 2168   5.911   3.246   3.586 -0.2892  1.4430 -0.7101
   30CHL1  H16B 2169   5.869   3.079   3.578  1.2315 -0.5773 -1.1439
   30CHL1   C17 2170   6.083   3.123   3.536 -1.4041 -0.1612 -0.0303
   30CHL1   H17 2171   6.098   3.018   3.502 -1.7483 -0.0551 -0.5283
   30CHL1   C13 2172   6.133   3.218   3.423 -0.9544 -0.2376  0.0562
   30CHL1   C18 2173   6.122   3.364   3.457  0.0555 -0.3471  0.2981
   30CHL1  H18A 2174   6.137   3.439   3.376 -1.5530 -0.0372  0.2565
   30CHL1  H18B 2175   6.024   3.391   3.501  0.6119  0.2060  1.2196
   30CHL1  H18C 2176   6.199   3.390   3.533  0.9362  0.0465 -0.6986
   30CHL1   C12 2177   6.275   3.195   3.365 -0.1918  0.3528 -0.0648
   30CHL1  H12A 2178   6.355   3.227   3.435  1.1750  0.3844 -1.5860
   30CHL1  H12B 2179   6.282   3.085   3.353 -0.6219  0.2510  0.5860
   30CHL1   C11 2180   6.309   3.266   3.236 -0.0739 -0.1608 -0.0416
   30CHL1  H11A 2181   6.323   3.375   3.258  2.5515 -0.5043  0.3704
   30CHL1  H11B 2182   6.410   3.236   3.199  0.3646  2.0222 -0.7865
   30CHL1    C9 2183   6.190   3.261   3.129  0.0086  0.1494 -0.7020
   30CHL1    H9 2184   6.200   3.154   3.103  1.3145  0.3028 -0.9120
   30CHL1   C10 2185   6.225   3.351   3.006  0.3582  0.0250  0.2753
   30CHL1   C19 2186   6.250   3.497   3.049 -0.0248 -0.4485 -0.6070
   30CHL1  H19A 2187   6.338   3.514   3.114  0.5257 -3.5571 -0.3646
   30CHL1  H19B 2188   6.284   3.550   2.957 -0.2192  1.2600  0.2656
   30CHL1  H19C 2189   6.171   3.562   3.091  0.1647  0.3994 -1.5133
   30CHL1    C1 2190   6.347   3.285   2.936  0.2928 -0.1287 -0.8861
   30CHL1   H1A 2191   6.440   3.298   2.995  0.7295  0.3637 -1.6633
   30CHL1   H1B 2192   6.336   3.175   2.936 -0.5994 -0.0445 -0.4888
   30CHL1    C2 2193   6.378   3.331   2.798 -0.1180  0.2198 -0.0080
   30CHL1   H2A 2194   6.438   3.254   2.746 -0.5905  0.2978 -0.6855
   30CHL1   H2B 2195   6.435   3.426   2.812 -1.2063  1.0236 -0.8433
   30CHL1   C20 2196   6.144   3.150   3.677 -0.4633  0.4022 -0.0461
   30CHL1   H20 2197   6.159   3.260   3.681  0.4997  0.2559  1.7449
   30CHL1   C21 2198   6.274   3.070   3.684  0.2496  0.5311 -0.2773
   30CHL1  H21A 2199   6.333   3.075   3.590 -0.9786 -0.2751 -1.1093
   30CHL1  H21B 2200   6.233   2.967   3.693 -1.4429  1.0721 -1.5348
   30CHL1  H21C 2201   6.344   3.079   3.771  1.4716 -0.0383 -1.1661
   30CHL1   C22 2202   6.056   3.110   3.799  0.7547  0.1095 -0.0527
   30CHL1  H22A 2203   5.958   3.159   3.784  1.3087  2.1491  2.3723
   30CHL1  H22B 2204   6.037   3.001   3.793 -1.0325  0.4358 -0.9126
   30CHL1   C23 2205   6.104   3.158   3.932  0.1272 -0.0495  0.3079
   30CHL1  H23A 2206   6.200   3.106   3.957 -0.4329 -0.5045  1.5937
   30CHL1  H23B 2207   6.134   3.264   3.926  0.4418 -0.1237  0.5119
   30CHL1   C24 2208   6.009   3.135   4.046  0.5009  0.7660 -0.1916
   30CHL1  H24A 2209   5.911   3.186   4.032 -0.6896 -0.9277  1.4947
   30CHL1  H24B 2210   5.997   3.025   4.033  2.6606  0.5987 -1.2867
   30CHL1   C25 2211   6.056   3.173   4.187  0.3871 -0.2720  0.5116
   30CHL1   H25 2212   6.087   3.280   4.192 -0.2516 -0.1144  1.2755
   30CHL1   C26 2213   5.932   3.158   4.279 -0.6685  0.1335  0.5097
   30CHL1  H26A 2214   5.845   3.208   4.231 -1.5410 -1.5934  0.2363
   30CHL1  H26B 2215   5.899   3.053   4.293  0.1686 -0.0331  1.3871
   30CHL1  H26C 2216   5.953   3.195   4.382  1.4032  0.1133  0.1423
   30CHL1   C27 2217   6.174   3.095   4.235 -0.3114 -0.3893 -0.2172
   30CHL1  H27A 2218   6.255   3.118   4.162 -0.3737  1.4273  0.2629
   30CHL1  H27B 2219   6.216   3.132   4.331 -0.5584 -1.5186  0.3448
   30CHL1  H27C 2220   6.154   2.985   4.240 -0.8476 -0.2347  1.7803
   31CHL1    C3 2221   6.658   2.742   2.822 -1.0208 -0.1651 -0.1843
   31CHL1    H3 2222   6.548   2.736   2.832 -1.1307  0.5671 -0.8625
   31CHL1    O3 2223   6.675   2.753   2.683 -0.7437 -0.0667  0.0250
   31CHL1   H3' 2224   6.769   2.768   2.671 -1.4300  3.5716 -2.3652
   31CHL1    C4 2225   6.726   2.876   2.873  0.2532  0.1421  0.4451
   31CHL1   H4A 2226   6.834   2.859   2.853  0.6024 -0.3831  2.4888
   31CHL1   H4B 2227   6.695   2.963   2.812  0.7772  1.9634  2.6248
   31CHL1    C5 2228   6.705   2.880   3.025  0.2743 -0.3250  0.8382
   31CHL1    C6 2229   6.627   2.977   3.077 -0.6082 -0.2869 -0.1984
   31CHL1    H6 2230   6.577   3.052   3.014 -0.2636 -0.1823 -0.3464
   31CHL1    C7 2231   6.599   2.986   3.227  0.2511  0.6571 -0.2838
   31CHL1   H7A 2232   6.607   3.092   3.259 -0.7032  0.9173 -0.8531
   31CHL1   H7B 2233   6.492   2.967   3.251  0.5850 -0.2755  0.5384
   31CHL1    C8 2234   6.692   2.889   3.314 -0.3828 -0.9084  0.2412
   31CHL1    H8 2235   6.788   2.944   3.304 -1.6159  0.9423 -2.5991
   31CHL1   C14 2236   6.639   2.882   3.461 -0.0721  0.7640 -0.0049
   31CHL1   H14 2237   6.535   2.842   3.456  0.5029 -0.6426 -2.2508
   31CHL1   C15 2238   6.634   3.010   3.547 -0.4112 -0.7453 -0.2391
   31CHL1  H15A 2239   6.733   3.056   3.530 -0.1851 -0.6986  1.0693
   31CHL1  H15B 2240   6.560   3.091   3.528  1.1301  1.4229  2.2731
   31CHL1   C16 2241   6.634   2.955   3.691  0.3112 -0.3619 -0.2497
   31CHL1  H16A 2242   6.701   3.017   3.755  1.2529 -1.9967  0.4268
   31CHL1  H16B 2243   6.532   2.960   3.732  0.0078  0.2656 -1.0606
   31CHL1   C17 2244   6.677   2.804   3.684  0.1075 -0.3308  0.3522
   31CHL1   H17 2245   6.586   2.740   3.686 -0.8344  0.7989 -2.0038
   31CHL1   C13 2246   6.724   2.781   3.540  0.1630  0.1165 -0.1857
   31CHL1   C18 2247   6.874   2.820   3.533 -0.8793  0.1927 -0.1444
   31CHL1  H18A 2248   6.915   2.818   3.430  0.5304  0.4709  0.3855
   31CHL1  H18B 2249   6.902   2.916   3.582 -0.2774  0.3682 -0.8173
   31CHL1  H18C 2250   6.936   2.746   3.588 -1.1701 -0.6540 -0.9378
   31CHL1   C12 2251   6.701   2.637   3.483  0.0705 -0.3486 -1.4919
   31CHL1  H12A 2252   6.748   2.561   3.549  0.3734  1.2280  0.2093
   31CHL1  H12B 2253   6.591   2.627   3.475 -0.0969 -0.8969  0.6999
   31CHL1   C11 2254   6.757   2.635   3.335  0.2925 -0.3741 -0.3614
   31CHL1  H11A 2255   6.868   2.640   3.342  0.4395 -1.3552 -1.6656
   31CHL1  H11B 2256   6.710   2.542   3.296  0.0595 -0.7974  0.8802
   31CHL1    C9 2257   6.702   2.752   3.249  0.1820 -0.9267  0.5243
   31CHL1    H9 2258   6.593   2.730   3.241  0.1157  0.0210 -2.0535
   31CHL1   C10 2259   6.752   2.760   3.104 -0.3077 -0.0822  0.2432
   31CHL1   C19 2260   6.905   2.764   3.097 -0.1282 -0.5398 -0.3693
   31CHL1  H19A 2261   6.950   2.678   3.149 -1.3530 -1.3147 -0.5547
   31CHL1  H19B 2262   6.949   2.765   2.995  3.3078 -2.0898  0.9765
   31CHL1  H19C 2263   6.946   2.850   3.154  1.7295 -1.8154  0.3102
   31CHL1    C1 2264   6.704   2.623   3.039 -0.1232 -0.7644  0.4997
   31CHL1   H1A 2265   6.750   2.529   3.076 -0.1483 -1.3176 -0.8107
   31CHL1   H1B 2266   6.593   2.619   3.047 -0.3246  0.4924 -1.0627
   31CHL1    C2 2267   6.720   2.616   2.882 -0.1037  0.9705 -1.1766
   31CHL1   H2A 2268   6.671   2.528   2.834  0.4813 -0.7107  1.1609
   31CHL1   H2B 2269   6.830   2.610   2.876  0.0329 -2.3100  1.6829
   31CHL1   C20 2270   6.767   2.775   3.805 -0.1544  0.7346  0.6762
   31CHL1   H20 2271   6.866   2.821   3.781 -0.4156  1.1918  0.4721
   31CHL1   C21 2272   6.805   2.628   3.819  0.0462 -0.3144 -0.1963
   31CHL1  H21A 2273   6.719   2.558   3.827  0.3358 -0.6657 -0.1060
   31CHL1  H21B 2274   6.875   2.611   3.903  1.8821  0.8954 -1.4002
   31CHL1  H21C 2275   6.863   2.594   3.730  0.0110 -1.8064  0.3288
   31CHL1   C22 2276   6.704   2.813   3.940 -0.3874  0.2647  0.0149
   31CHL1  H22A 2277   6.782   2.794   4.017  1.9861  0.7173 -2.1327
   31CHL1  H22B 2278   6.692   2.922   3.954  3.0481  0.8205 -0.4901
   31CHL1   C23 2279   6.577   2.738   3.969  0.0838 -0.1630  1.0421
   31CHL1  H23A 2280   6.518   2.695   3.885 -0.1200 -1.2011  1.7003
   31CHL1  H23B 2281   6.609   2.648   4.024 -1.0909 -0.5127  1.1886
   31CHL1   C24 2282   6.480   2.824   4.060 -1.0860  0.0227 -0.7975
   31CHL1  H24A 2283   6.535   2.856   4.151  1.1598 -1.6507 -1.4672
   31CHL1  H24B 2284   6.455   2.915   4.002  1.7346  1.7643  0.5059
   31CHL1   C25 2285   6.356   2.748   4.095  0.4450  0.5699  0.3551
   31CHL1   H25 2286   6.302   2.812   4.169 -2.7157 -0.8624 -0.5441
   31CHL1   C26 2287   6.251   2.734   3.976 -0.0355 -1.0540 -0.5901
   31CHL1  H26A 2288   6.299   2.685   3.888  0.5390  0.9320 -1.4358
   31CHL1  H26B 2289   6.156   2.681   4.000 -0.2957  0.7305  3.0029
   31CHL1  H26C 2290   6.226   2.835   3.940  0.7008  0.0369  1.7603
   31CHL1   C27 2291   6.380   2.619   4.174  0.5973  0.4208 -0.1454
   31CHL1  H27A 2292   6.433   2.550   4.105  0.1433 -2.2468  1.9736
   31CHL1  H27B 2293   6.451   2.643   4.257 -2.3917  3.1512  1.8658
   31CHL1  H27C 2294   6.283   2.573   4.203  1.0312 -0.3978  0.0209
   32CHL1    C3 2295   6.324   6.049   2.731 -0.2406 -0.0318 -0.2171
   32CHL1    H3 2296   6.249   5.969   2.751  1.5874 -1.3049  1.9821
   32CHL1    O3 2297   6.324   6.068   2.592  0.5073 -0.2489 -0.5719
   32CHL1   H3' 2298   6.346   6.160   2.576 -4.4064  0.8825 -2.5603
   32CHL1    C4 2299   6.279   6.180   2.794 -1.1830 -0.1864 -0.1692
   32CHL1   H4A 2300   6.350   6.261   2.766 -1.7724  1.1184  1.9184
   32CHL1   H4B 2301   6.179   6.204   2.752 -1.8883 -2.3795  0.1244
   32CHL1    C5 2302   6.276   6.170   2.946  0.5353 -0.3261 -0.4556
   32CHL1    C6 2303   6.162   6.211   3.005 -0.2088 -0.0791 -0.0197
   32CHL1    H6 2304   6.085   6.260   2.945 -0.5072 -0.2353  0.2334
   32CHL1    C7 2305   6.127   6.204   3.148 -0.0939 -0.4262 -0.0696
   32CHL1   H7A 2306   6.085   6.300   3.185 -3.5957 -1.7569 -0.2183
   32CHL1   H7B 2307   6.044   6.132   3.162  1.5884 -2.1281  1.6572
   32CHL1    C8 2308   6.251   6.165   3.225  0.0028 -0.8008  0.6915
   32CHL1    H8 2309   6.313   6.258   3.232  0.0459 -0.7776  0.0118
   32CHL1   C14 2310   6.211   6.111   3.367 -0.5665  0.1594  0.2345
   32CHL1   H14 2311   6.163   6.012   3.350 -0.1228 -0.3579  1.7948
   32CHL1   C15 2312   6.103   6.196   3.446  0.2000 -0.3717  0.5083
   32CHL1  H15A 2313   6.130   6.303   3.452 -1.9631  0.2587  0.0442
   32CHL1  H15B 2314   6.002   6.177   3.404  0.5828 -2.3648  0.3885
   32CHL1   C16 2315   6.100   6.131   3.579 -0.2273  0.0459 -0.0763
   32CHL1  H16A 2316   6.109   6.211   3.656 -0.2683  2.0867 -2.0894
   32CHL1  H16B 2317   6.000   6.085   3.592 -0.3379  0.6735  1.5259
   32CHL1   C17 2318   6.209   6.027   3.580 -0.2053  0.7797 -1.1328
   32CHL1   H17 2319   6.167   5.927   3.556  1.1384  0.2724 -1.4664
   32CHL1   C13 2320   6.312   6.068   3.470 -1.1477 -0.0975  0.3507
   32CHL1   C18 2321   6.385   6.198   3.514 -0.3914  0.8280  0.1293
   32CHL1  H18A 2322   6.459   6.160   3.587 -3.5941 -3.6629  1.4404
   32CHL1  H18B 2323   6.428   6.250   3.425  3.1643  0.8794  1.6895
   32CHL1  H18C 2324   6.322   6.261   3.581 -1.1846 -1.2548  1.4539
   32CHL1   C12 2325   6.407   5.964   3.401 -0.4231  0.7085 -0.7277
   32CHL1  H12A 2326   6.499   5.957   3.462 -0.9274  0.2369  0.0065
   32CHL1  H12B 2327   6.352   5.867   3.412 -0.9434  1.0996  0.3042
   32CHL1   C11 2328   6.456   6.005   3.263 -0.5427 -0.6262  0.2433
   32CHL1  H11A 2329   6.529   6.086   3.283  1.6307 -2.3201 -0.4455
   32CHL1  H11B 2330   6.505   5.921   3.210  0.1175 -1.6831  2.4126
   32CHL1    C9 2331   6.345   6.059   3.162 -0.2116 -0.3859  0.2035
   32CHL1    H9 2332   6.277   5.972   3.147 -0.1027 -0.2440 -1.2356
   32CHL1   C10 2333   6.390   6.093   3.013  0.5627 -0.3840  0.1084
   32CHL1   C19 2334   6.504   6.192   3.027 -0.2369 -0.1769 -0.0625
   32CHL1  H19A 2335   6.581   6.124   3.070  0.5129 -0.8222 -2.2976
   32CHL1  H19B 2336   6.543   6.217   2.926  2.5836  1.7120  1.3653
   32CHL1  H19C 2337   6.474   6.275   3.094 -1.9155 -1.6388  1.0868
   32CHL1    C1 2338   6.430   5.970   2.936  0.0142 -0.1251  0.2236
   32CHL1   H1A 2339   6.521   5.923   2.980 -2.6437 -3.5261  2.5851
   32CHL1   H1B 2340   6.350   5.896   2.954 -0.3980  0.3642  0.4270
   32CHL1    C2 2341   6.454   5.995   2.786 -1.0756 -0.0925 -0.3903
   32CHL1   H2A 2342   6.463   5.891   2.748  0.2679 -0.1597  0.0382
   32CHL1   H2B 2343   6.551   6.044   2.760 -0.2449 -1.7855 -0.6070
   32CHL1   C20 2344   6.264   6.002   3.724 -0.9492  0.8528 -0.2168
   32CHL1   H20 2345   6.311   6.097   3.758 -1.2029  0.5811  0.8961
   32CHL1   C21 2346   6.383   5.891   3.719  0.4669  0.1449  0.1642
   32CHL1  H21A 2347   6.471   5.906   3.653  1.5712  3.3174  2.1281
   32CHL1  H21B 2348   6.339   5.791   3.701  3.7123 -1.8800  2.5206
   32CHL1  H21C 2349   6.417   5.887   3.825 -0.2980  3.1015  0.6262
   32CHL1   C22 2350   6.153   5.960   3.823 -0.0962 -0.1979  0.2759
   32CHL1  H22A 2351   6.065   6.024   3.802  0.6859 -0.1265 -3.4891
   32CHL1  H22B 2352   6.115   5.861   3.789  0.7888 -0.8724  1.2016
   32CHL1   C23 2353   6.185   5.974   3.966 -0.3233 -0.1383 -0.0120
   32CHL1  H23A 2354   6.271   5.912   3.999 -0.7453  0.0872  1.5534
   32CHL1  H23B 2355   6.228   6.076   3.975  1.4651 -0.8914  0.4503
   32CHL1   C24 2356   6.082   5.933   4.066  0.3900  0.4241 -0.2770
   32CHL1  H24A 2357   6.053   5.826   4.057 -1.2282  0.8256 -0.0905
   32CHL1  H24B 2358   6.118   5.939   4.171  0.5623 -1.2119 -0.2137
   32CHL1   C25 2359   5.955   6.019   4.069  1.1099 -0.7863  0.1059
   32CHL1   H25 2360   5.899   6.008   3.974 -1.5818  3.9990  0.8001
   32CHL1   C26 2361   5.859   5.975   4.185  0.5158  0.8274  0.0150
   32CHL1  H26A 2362   5.910   5.997   4.282  0.1268 -0.4970  0.5432
   32CHL1  H26B 2363   5.769   6.042   4.184 -0.9477 -1.0154  1.1448
   32CHL1  H26C 2364   5.824   5.871   4.173  2.1238  0.3332 -0.4739
   32CHL1   C27 2365   5.987   6.170   4.084  0.6467  0.5769 -0.0650
   32CHL1  H27A 2366   5.892   6.228   4.087  0.8279  0.9683 -1.2894
   32CHL1  H27B 2367   6.058   6.196   4.165  0.3015  0.9585  0.1217
   32CHL1  H27C 2368   6.036   6.202   3.990  1.2647  1.2037  0.4621
   33CHL1    C3 2369   6.250   0.148   2.730  0.4890 -0.0248 -0.4389
   33CHL1    H3 2370   6.202   0.050   2.750  0.6019 -0.1378 -0.7226
   33CHL1    O3 2371   6.211   0.200   2.609 -0.7953 -0.2576 -0.0883
   33CHL1   H3' 2372   6.263   0.281   2.613  0.9937 -1.3754  0.8746
   33CHL1    C4 2373   6.197   0.251   2.833 -0.4842  0.3235 -0.0533
   33CHL1   H4A 2374   6.225   0.352   2.796  0.0559 -0.2339 -1.1946
   33CHL1   H4B 2375   6.085   0.252   2.833 -0.4916  0.1220  0.6496
   33CHL1    C5 2376   6.258   0.227   2.972  0.7394 -0.1030 -0.9350
   33CHL1    C6 2377   6.174   0.214   3.078  0.8267  0.4003 -0.1542
   33CHL1    H6 2378   6.066   0.225   3.065  0.8693  0.8228 -0.1401
   33CHL1    C7 2379   6.225   0.191   3.216 -0.0468  0.2549 -0.9534
   33CHL1   H7A 2380   6.181   0.253   3.298 -1.0126 -1.7024  0.0740
   33CHL1   H7B 2381   6.199   0.089   3.251  2.2097  0.2422  0.9954
   33CHL1    C8 2382   6.379   0.206   3.233 -0.0859 -0.3760 -0.5990
   33CHL1    H8 2383   6.401   0.314   3.246  1.0117 -0.9462  3.5639
   33CHL1   C14 2384   6.428   0.135   3.357 -0.3026  0.6305 -0.7205
   33CHL1   H14 2385   6.415   0.025   3.346  0.7534  0.5933 -1.7960
   33CHL1   C15 2386   6.351   0.166   3.488  0.5542 -0.5102  0.4756
   33CHL1  H15A 2387   6.323   0.274   3.494  0.1831 -0.6153  0.7156
   33CHL1  H15B 2388   6.256   0.109   3.495 -0.1835  0.8289  1.9914
   33CHL1   C16 2389   6.452   0.135   3.597 -0.1035 -0.6727 -0.3765
   33CHL1  H16A 2390   6.485   0.234   3.636  1.7114 -0.9348 -1.1199
   33CHL1  H16B 2391   6.409   0.070   3.675  1.0133  1.2234  1.9462
   33CHL1   C17 2392   6.577   0.076   3.524  0.8924 -0.5988 -0.4217
   33CHL1   H17 2393   6.549  -0.030   3.502  0.2175  0.1608 -3.7902
   33CHL1   C13 2394   6.577   0.141   3.385  0.3621  0.6766  0.3850
   33CHL1   C18 2395   6.621   0.291   3.410 -0.8782  0.1853 -0.3687
   33CHL1  H18A 2396   6.567   0.335   3.496  0.4132 -1.6590  1.4587
   33CHL1  H18B 2397   6.729   0.297   3.434 -0.7076  2.6187 -1.4155
   33CHL1  H18C 2398   6.600   0.335   3.310 -0.2682 -1.2388 -1.1537
   33CHL1   C12 2399   6.652   0.071   3.267  0.1856  0.3683  0.2801
   33CHL1  H12A 2400   6.761   0.091   3.274  0.2075  0.2301  0.3255
   33CHL1  H12B 2401   6.638  -0.039   3.267 -0.1661  0.4087 -0.5316
   33CHL1   C11 2402   6.610   0.144   3.137  0.0041 -0.0942  0.3097
   33CHL1  H11A 2403   6.648   0.248   3.147  1.6025 -0.6719  0.6211
   33CHL1  H11B 2404   6.674   0.090   3.065  2.2443  1.8021  0.7521
   33CHL1    C9 2405   6.456   0.148   3.114  0.5763 -0.4848  0.6589
   33CHL1    H9 2406   6.422   0.043   3.104  2.3508 -1.0630  0.2965
   33CHL1   C10 2407   6.408   0.210   2.979 -0.0796  0.0854  0.7205
   33CHL1   C19 2408   6.483   0.340   2.946 -0.8196  0.1467  0.5049
   33CHL1  H19A 2409   6.443   0.379   2.850  1.0554  1.5321  0.2194
   33CHL1  H19B 2410   6.478   0.420   3.023  2.4316  1.8864 -0.8765
   33CHL1  H19C 2411   6.591   0.317   2.928 -1.4983 -0.4022 -4.1975
   33CHL1    C1 2412   6.453   0.109   2.865  0.5460  0.6926  0.0692
   33CHL1   H1A 2413   6.562   0.095   2.875  0.2000 -1.3050  1.9279
   33CHL1   H1B 2414   6.404   0.013   2.894 -1.3976  1.8162  0.7134
   33CHL1    C2 2415   6.399   0.139   2.729 -0.4550 -0.2292 -0.4573
   33CHL1   H2A 2416   6.436   0.054   2.668  0.5415  0.0383 -0.2399
   33CHL1   H2B 2417   6.444   0.230   2.683  1.8435 -0.3464  1.3844
   33CHL1   C20 2418   6.709   0.067   3.605  0.3443 -0.4895 -0.1389
   33CHL1   H20 2419   6.749   0.170   3.620  1.3078 -1.0386  1.2409
   33CHL1   C21 2420   6.821  -0.001   3.526 -1.0594 -0.2535 -0.5925
   33CHL1  H21A 2421   6.887  -0.045   3.605 -3.6080 -0.2366  1.7094
   33CHL1  H21B 2422   6.873   0.070   3.459 -0.9534  2.0139  1.7245
   33CHL1  H21C 2423   6.784  -0.085   3.465  1.5428 -1.2654 -0.9126
   33CHL1   C22 2424   6.686   0.008   3.745  0.1263 -0.6182  0.2735
   33CHL1  H22A 2425   6.621   0.079   3.800  1.2966  0.1643  0.7036
   33CHL1  H22B 2426   6.637  -0.086   3.712 -2.1715  0.5283  0.2382
   33CHL1   C23 2427   6.806  -0.007   3.842 -0.3545 -0.7162  0.1255
   33CHL1  H23A 2428   6.879  -0.081   3.802  0.8997  1.4840 -1.9817
   33CHL1  H23B 2429   6.851   0.095   3.849 -2.2486  0.1543  0.1159
   33CHL1   C24 2430   6.762  -0.040   3.987 -0.4850  0.4861  0.3878
   33CHL1  H24A 2431   6.712   0.046   4.035  0.0316  0.4213  1.0574
   33CHL1  H24B 2432   6.700  -0.133   3.985 -0.8486  0.7014 -2.0303
   33CHL1   C25 2433   6.881  -0.077   4.085 -0.6589 -0.6260  0.4182
   33CHL1   H25 2434   6.844  -0.082   4.190  1.8158  1.2137  1.4678
   33CHL1   C26 2435   6.939  -0.215   4.046  0.1088  0.3062 -0.5181
   33CHL1  H26A 2436   7.021  -0.241   4.116  2.6347  2.5554 -2.4276
   33CHL1  H26B 2437   6.850  -0.282   4.051 -1.1451  1.7560 -2.1736
   33CHL1  H26C 2438   6.978  -0.218   3.942  0.5316  0.7336 -0.3728
   33CHL1   C27 2439   6.998   0.022   4.069  0.4680 -0.1270  0.1264
   33CHL1  H27A 2440   7.074  -0.000   4.146  0.1498  0.1058  0.5117
   33CHL1  H27B 2441   7.036   0.007   3.966 -0.1891 -1.8400  0.1090
   33CHL1  H27C 2442   6.958   0.125   4.086  1.0992  0.3734 -1.2421
   34CHL1    C3 2443   1.424   3.381   2.749  0.3672 -0.1045  0.4918
   34CHL1    H3 2444   1.435   3.482   2.793 -1.3551  0.8947 -1.2303
   34CHL1    O3 2445   1.426   3.395   2.606  0.3623 -0.0482 -0.3758
   34CHL1   H3' 2446   1.388   3.313   2.571 -0.4286  1.0793 -2.3065
   34CHL1    C4 2447   1.545   3.289   2.779  1.0587 -0.5009  0.4103
   34CHL1   H4A 2448   1.531   3.193   2.724  0.6155  0.1448 -0.6445
   34CHL1   H4B 2449   1.642   3.326   2.740  0.3796  0.5665 -0.2975
   34CHL1    C5 2450   1.559   3.264   2.929 -0.2789 -1.1236  0.4134
   34CHL1    C6 2451   1.669   3.300   2.996 -0.5097 -0.1690 -0.7192
   34CHL1    H6 2452   1.745   3.343   2.929 -1.1455  0.3494 -1.1207
   34CHL1    C7 2453   1.690   3.287   3.147  0.1633  0.4294  0.3425
   34CHL1   H7A 2454   1.788   3.238   3.169 -0.8326 -1.6512  0.3901
   34CHL1   H7B 2455   1.703   3.387   3.192 -1.4576  0.5656  0.5588
   34CHL1    C8 2456   1.581   3.196   3.213 -0.6250 -0.2761  0.1693
   34CHL1    H8 2457   1.604   3.093   3.178  1.0468  0.4060 -0.8674
   34CHL1   C14 2458   1.592   3.215   3.362  0.4771  0.1661 -0.1679
   34CHL1   H14 2459   1.564   3.322   3.379 -0.8741 -0.3684  1.1679
   34CHL1   C15 2460   1.725   3.193   3.427  1.0251 -0.2660 -0.0371
   34CHL1  H15A 2461   1.767   3.106   3.371 -2.4184 -2.6686  0.7856
   34CHL1  H15B 2462   1.796   3.276   3.409 -0.5812  0.7433 -2.0427
   34CHL1   C16 2463   1.698   3.171   3.576 -0.3765 -0.1936 -0.7074
   34CHL1  H16A 2464   1.740   3.082   3.627  0.7021  0.7459  0.0769
   34CHL1  H16B 2465   1.745   3.257   3.628 -2.4652  0.5104  0.1303
   34CHL1   C17 2466   1.541   3.186   3.591  0.1673  0.5715 -0.0103
   34CHL1   H17 2467   1.524   3.296   3.589  1.9474  0.9399 -4.2067
   34CHL1   C13 2468   1.482   3.148   3.450 -0.0074  0.4514 -0.1879
   34CHL1   C18 2469   1.480   2.991   3.428  0.4912 -0.3843  0.8276
   34CHL1  H18A 2470   1.386   2.944   3.463 -0.5436 -1.0506 -2.4719
   34CHL1  H18B 2471   1.482   2.972   3.318 -2.4763 -2.6121  1.0319
   34CHL1  H18C 2472   1.570   2.946   3.475  1.7111  2.3720  1.3401
   34CHL1   C12 2473   1.351   3.198   3.401  0.4999 -0.2747  0.1203
   34CHL1  H12A 2474   1.270   3.145   3.456  1.3913  0.4042  2.1641
   34CHL1  H12B 2475   1.338   3.305   3.427  0.7159 -0.1149 -0.4338
   34CHL1   C11 2476   1.325   3.173   3.248  0.2174  0.5253  0.1629
   34CHL1  H11A 2477   1.317   3.063   3.235  0.1577  0.3820  1.2981
   34CHL1  H11B 2478   1.224   3.211   3.221  0.8346  1.2202 -1.2840
   34CHL1    C9 2479   1.443   3.234   3.159 -0.2919  0.2216  0.4469
   34CHL1    H9 2480   1.433   3.342   3.181 -2.9639 -0.1756  1.5193
   34CHL1   C10 2481   1.430   3.225   3.001 -0.4656 -0.5748  0.0079
   34CHL1   C19 2482   1.410   3.080   2.960 -0.6425  0.0821  0.2479
   34CHL1  H19A 2483   1.500   3.024   2.995  0.0256 -0.7416 -2.5404
   34CHL1  H19B 2484   1.313   3.042   3.000 -0.7646 -1.6419 -1.5409
   34CHL1  H19C 2485   1.399   3.059   2.852 -1.0944  1.1087  0.0911
   34CHL1    C1 2486   1.300   3.308   2.961 -0.3934  0.3204  0.6104
   34CHL1   H1A 2487   1.211   3.255   3.000 -0.4836 -0.8731 -1.1116
   34CHL1   H1B 2488   1.309   3.411   3.002 -1.0805  0.2893  0.8536
   34CHL1    C2 2489   1.291   3.327   2.805 -0.2314 -0.2998 -0.0837
   34CHL1   H2A 2490   1.221   3.407   2.774  0.2654  0.2508  0.1997
   34CHL1   H2B 2491   1.254   3.237   2.751  2.3162 -0.1156 -2.3611
   34CHL1   C20 2492   1.492   3.122   3.725  0.3703  0.2369 -0.3420
   34CHL1   H20 2493   1.520   3.014   3.727 -1.6508 -0.3408 -0.6892
   34CHL1   C21 2494   1.337   3.135   3.734  1.0865  0.3253 -0.7818
   34CHL1  H21A 2495   1.306   3.242   3.722 -4.3621 -0.8501  0.2933
   34CHL1  H21B 2496   1.291   3.099   3.828 -1.0497 -0.2354 -1.9651
   34CHL1  H21C 2497   1.298   3.073   3.651  4.5619  0.7615 -2.9588
   34CHL1   C22 2498   1.562   3.182   3.850 -0.2372  0.1995  0.1721
   34CHL1  H22A 2499   1.540   3.110   3.931 -1.8136 -0.9044 -1.1643
   34CHL1  H22B 2500   1.672   3.179   3.836 -0.1359  0.4466  0.8627
   34CHL1   C23 2501   1.515   3.316   3.898 -0.2910 -1.1420  0.3963
   34CHL1  H23A 2502   1.550   3.398   3.832 -1.0836 -2.9255 -2.3939
   34CHL1  H23B 2503   1.405   3.328   3.906  0.0025  0.8539  3.6262
   34CHL1   C24 2504   1.566   3.350   4.038  0.7513 -0.6171  0.3747
   34CHL1  H24A 2505   1.518   3.280   4.110  2.3989 -1.6790  0.4822
   34CHL1  H24B 2506   1.675   3.331   4.043  0.6119 -1.5514  0.0218
   34CHL1   C25 2507   1.541   3.499   4.088  0.7625  1.3519  0.2859
   34CHL1   H25 2508   1.584   3.571   4.015  0.1242  2.2195  0.7563
   34CHL1   C26 2509   1.388   3.524   4.108 -0.1381  0.1022  0.4237
   34CHL1  H26A 2510   1.382   3.602   4.187  1.1985  0.3149  0.3332
   34CHL1  H26B 2511   1.352   3.570   4.014 -2.9463  1.9631  2.2533
   34CHL1  H26C 2512   1.329   3.431   4.125 -1.7052  1.1314  0.8604
   34CHL1   C27 2513   1.608   3.522   4.224 -0.2132  0.2637 -0.3694
   34CHL1  H27A 2514   1.588   3.441   4.297  1.3823  0.1818  0.0128
   34CHL1  H27B 2515   1.716   3.506   4.204 -0.6582 -1.1060 -1.8161
   34CHL1  H27C 2516   1.598   3.626   4.263  2.1242  0.7433 -0.8757
   35CHL1    C3 2517   0.121   0.976   2.925 -0.5224  0.2933  0.0089
   35CHL1    H3 2518   0.037   0.918   2.881  1.1645 -2.6874  0.4380
   35CHL1    O3 2519   0.233   0.957   2.846  0.2168  0.3094  0.4399
   35CHL1   H3' 2520   0.217   0.991   2.757  1.8233  1.4524  0.5382
   35CHL1    C4 2521   0.086   1.121   2.914  0.4831  0.1765 -0.1648
   35CHL1   H4A 2522   0.170   1.186   2.947  2.1837 -1.0244 -1.8954
   35CHL1   H4B 2523   0.067   1.156   2.810 -1.6206  1.2854  0.5237
   35CHL1    C5 2524  -0.028   1.150   3.003  0.2743 -0.4245 -0.0917
   35CHL1    C6 2525  -0.139   1.197   2.948 -0.5874 -0.4816 -0.0181
   35CHL1    H6 2526  -0.144   1.210   2.839 -1.9551  1.1538  0.2067
   35CHL1    C7 2527  -0.255   1.241   3.030  0.1648 -0.1352 -0.1124
   35CHL1   H7A 2528  -0.281   1.345   3.002  0.1701  0.2033  1.1160
   35CHL1   H7B 2529  -0.336   1.173   2.995 -1.0199  0.4759  1.3450
   35CHL1    C8 2530  -0.248   1.239   3.180 -0.0196 -0.0712 -0.1625
   35CHL1    H8 2531  -0.200   1.336   3.202  0.7307  0.0058 -1.9632
   35CHL1   C14 2532  -0.382   1.230   3.247 -0.6516  0.0949 -1.2822
   35CHL1   H14 2533  -0.427   1.129   3.237 -1.0859  0.2358 -0.7687
   35CHL1   C15 2534  -0.498   1.332   3.200  0.3868  0.0416 -0.3325
   35CHL1  H15A 2535  -0.447   1.422   3.160  1.0289 -0.6880 -1.1990
   35CHL1  H15B 2536  -0.553   1.271   3.125  0.5545  0.1817 -0.5723
   35CHL1   C16 2537  -0.578   1.358   3.325  0.5098 -0.3159 -0.4870
   35CHL1  H16A 2538  -0.570   1.463   3.360  1.6341 -0.4683 -0.2329
   35CHL1  H16B 2539  -0.686   1.334   3.317 -0.1048  1.1148  2.3868
   35CHL1   C17 2540  -0.521   1.249   3.426  0.2724 -0.3459  0.3488
   35CHL1   H17 2541  -0.568   1.157   3.386  0.1638 -0.1893  0.1122
   35CHL1   C13 2542  -0.366   1.232   3.400  0.6563  0.1369 -0.5130
   35CHL1   C18 2543  -0.301   1.361   3.452 -0.9507 -0.0852 -0.8837
   35CHL1  H18A 2544  -0.195   1.375   3.420  0.2978 -0.4877  2.5886
   35CHL1  H18B 2545  -0.354   1.457   3.437 -1.1519  0.1955  1.2595
   35CHL1  H18C 2546  -0.287   1.361   3.562 -1.9449 -0.2266 -0.7474
   35CHL1   C12 2547  -0.283   1.102   3.435  0.3254  0.4925 -0.1638
   35CHL1  H12A 2548  -0.266   1.089   3.544  0.2866 -0.6813 -0.2896
   35CHL1  H12B 2549  -0.342   1.013   3.405 -0.3003  1.4286 -1.8882
   35CHL1   C11 2550  -0.153   1.097   3.374  0.1543  0.2386 -0.6109
   35CHL1  H11A 2551  -0.089   1.172   3.426  1.3063 -0.7438 -0.5554
   35CHL1  H11B 2552  -0.094   1.006   3.396 -0.1150 -0.0503 -1.0724
   35CHL1    C9 2553  -0.159   1.117   3.216 -0.4315  0.2712 -0.2690
   35CHL1    H9 2554  -0.211   1.030   3.170  1.0205 -0.8951  0.1960
   35CHL1   C10 2555  -0.021   1.112   3.146 -0.4727 -0.4665  0.1124
   35CHL1   C19 2556   0.065   1.208   3.217  0.0749  0.7956  0.9636
   35CHL1  H19A 2557   0.165   1.225   3.170 -0.1419  1.8752  0.8623
   35CHL1  H19B 2558   0.018   1.308   3.206 -0.1226  0.7387  1.2813
   35CHL1  H19C 2559   0.081   1.180   3.323 -1.3876  0.9136  1.2324
   35CHL1    C1 2560   0.036   0.970   3.157  0.1050  1.0108 -0.1587
   35CHL1   H1A 2561   0.081   0.959   3.258  0.5950 -0.3689 -0.5114
   35CHL1   H1B 2562  -0.054   0.909   3.135  0.4317  0.6380 -0.4654
   35CHL1    C2 2563   0.155   0.940   3.069  0.6891  1.1535  0.4731
   35CHL1   H2A 2564   0.181   0.832   3.072 -0.2363  0.7184 -2.9500
   35CHL1   H2B 2565   0.244   0.998   3.103  0.4916  1.5469  0.3273
   35CHL1   C20 2566  -0.578   1.260   3.566  0.2788  0.1567 -0.3868
   35CHL1   H20 2567  -0.687   1.242   3.559  0.8914 -3.7430 -2.3989
   35CHL1   C21 2568  -0.556   1.399   3.626  0.3811 -0.6972 -0.2937
   35CHL1  H21A 2569  -0.555   1.478   3.547 -1.3346  0.3570  0.6503
   35CHL1  H21B 2570  -0.455   1.405   3.671  1.1459  1.2749 -2.0604
   35CHL1  H21C 2571  -0.647   1.414   3.689  0.4645  0.6322 -0.4485
   35CHL1   C22 2572  -0.518   1.161   3.663  0.7582 -0.1149 -0.2608
   35CHL1  H22A 2573  -0.538   1.057   3.629 -0.2104  0.0970 -0.3690
   35CHL1  H22B 2574  -0.408   1.177   3.668  0.8131 -0.5610 -0.0138
   35CHL1   C23 2575  -0.573   1.166   3.810 -0.3897 -0.7255 -0.5163
   35CHL1  H23A 2576  -0.534   1.264   3.844  3.1921 -1.1887 -2.7273
   35CHL1  H23B 2577  -0.684   1.168   3.820 -0.3177  0.5383  0.2293
   35CHL1   C24 2578  -0.527   1.052   3.899 -0.2210 -0.9504  0.7147
   35CHL1  H24A 2579  -0.567   0.958   3.856 -0.3646 -0.6450  0.1675
   35CHL1  H24B 2580  -0.416   1.052   3.905 -0.0360 -2.8580 -1.4061
   35CHL1   C25 2581  -0.577   1.062   4.047 -0.0218 -0.4890 -0.3538
   35CHL1   H25 2582  -0.687   1.072   4.042 -0.2891 -2.0929  1.3395
   35CHL1   C26 2583  -0.568   0.928   4.123 -0.0715  0.2265  0.3141
   35CHL1  H26A 2584  -0.636   0.939   4.210 -0.3393 -0.5643  0.2122
   35CHL1  H26B 2585  -0.611   0.843   4.067 -1.8437  2.2454 -1.5611
   35CHL1  H26C 2586  -0.466   0.898   4.157  0.2709 -0.1979 -1.0276
   35CHL1   C27 2587  -0.505   1.173   4.127  0.5005 -0.1466 -0.2118
   35CHL1  H27A 2588  -0.551   1.171   4.228 -0.0584  0.5520 -0.4387
   35CHL1  H27B 2589  -0.400   1.140   4.134  0.7543  0.8809  1.1512
   35CHL1  H27C 2590  -0.528   1.272   4.083 -1.6401  0.2806  1.6699
   36CHL1    C3 2591   0.581   4.557   2.527  0.2327 -0.9171 -0.6176
   36CHL1    H3 2592   0.666   4.580   2.459  0.6079 -0.6201 -0.0496
   36CHL1    O3 2593   0.473   4.574   2.441 -0.4029  0.1204 -0.2398
   36CHL1   H3' 2594   0.402   4.522   2.479 -0.6300 -0.5180 -1.4638
   36CHL1    C4 2595   0.584   4.416   2.578 -0.0702 -0.0735  0.0282
   36CHL1   H4A 2596   0.487   4.377   2.616  0.8237 -0.9708  1.4551
   36CHL1   H4B 2597   0.595   4.346   2.492  2.2728 -2.2391  1.9721
   36CHL1    C5 2598   0.687   4.400   2.687  0.5442  1.1429 -0.4789
   36CHL1    C6 2599   0.789   4.316   2.668 -0.8174 -0.1672  0.3859
   36CHL1    H6 2600   0.790   4.262   2.572 -1.7113  2.4063 -1.1883
   36CHL1    C7 2601   0.886   4.281   2.774 -0.5356  0.4315  0.4911
   36CHL1   H7A 2602   0.899   4.171   2.779 -1.6823  0.2616 -0.0274
   36CHL1   H7B 2603   0.977   4.336   2.741 -1.6881  1.6039 -0.8759
   36CHL1    C8 2604   0.850   4.349   2.912  0.2589  0.1490  0.3928
   36CHL1    H8 2605   0.765   4.287   2.945  0.5320 -1.3019 -1.4782
   36CHL1   C14 2606   0.969   4.336   2.993 -0.6292  0.1062 -0.4787
   36CHL1   H14 2607   1.042   4.400   2.938 -1.9517  0.6923 -1.6218
   36CHL1   C15 2608   1.029   4.194   3.023 -0.1178 -0.2040 -0.2836
   36CHL1  H15A 2609   0.946   4.127   3.053  0.3845 -0.2594  1.0474
   36CHL1  H15B 2610   1.072   4.149   2.931 -1.0100  0.4265 -1.0373
   36CHL1   C16 2611   1.121   4.210   3.143  0.3362  0.4556 -0.1096
   36CHL1  H16A 2612   1.103   4.134   3.221 -0.4956 -0.7534 -1.4385
   36CHL1  H16B 2613   1.227   4.207   3.109  0.0738 -0.3216 -0.8941
   36CHL1   C17 2614   1.088   4.356   3.191  0.2479  0.7716  0.7424
   36CHL1   H17 2615   1.168   4.416   3.141  0.5923  2.8942  3.5874
   36CHL1   C13 2616   0.953   4.398   3.134 -0.3168 -0.0972  0.6279
   36CHL1   C18 2617   0.834   4.342   3.214 -0.2540 -0.0631  0.1371
   36CHL1  H18A 2618   0.834   4.405   3.306 -0.1263  0.0044  0.0909
   36CHL1  H18B 2619   0.737   4.352   3.162  0.4084 -1.2601 -1.3937
   36CHL1  H18C 2620   0.852   4.236   3.240  0.6598  0.5634  2.3310
   36CHL1   C12 2621   0.921   4.542   3.116 -0.8124  0.3190  0.1696
   36CHL1  H12A 2622   0.901   4.589   3.215  0.3488  0.1147  0.5130
   36CHL1  H12B 2623   1.005   4.599   3.071 -0.4271 -0.4278 -0.0761
   36CHL1   C11 2624   0.802   4.577   3.024 -0.2370  0.8839  0.8042
   36CHL1  H11A 2625   0.706   4.560   3.076 -0.4309 -0.2617  0.1009
   36CHL1  H11B 2626   0.811   4.682   2.987  1.8258  0.0491 -1.3483
   36CHL1    C9 2627   0.805   4.486   2.889  0.2996 -0.3379  0.4035
   36CHL1    H9 2628   0.879   4.543   2.828  0.4257 -1.0412 -0.1030
   36CHL1   C10 2629   0.673   4.492   2.806 -0.1944 -0.4017  0.6473
   36CHL1   C19 2630   0.540   4.464   2.889 -0.1045 -0.1054  0.0664
   36CHL1  H19A 2631   0.451   4.478   2.823  0.6660  1.7560 -0.6392
   36CHL1  H19B 2632   0.546   4.357   2.918 -2.7585 -0.5778 -0.8351
   36CHL1  H19C 2633   0.538   4.523   2.984 -0.3105 -0.1161  0.0700
   36CHL1    C1 2634   0.663   4.640   2.751  0.3848  0.2581 -0.5144
   36CHL1   H1A 2635   0.641   4.712   2.832 -0.6506 -0.1093 -0.4482
   36CHL1   H1B 2636   0.759   4.658   2.698  1.2853 -1.3027  0.5152
   36CHL1    C2 2637   0.561   4.649   2.642 -0.2462 -0.1287 -0.2582
   36CHL1   H2A 2638   0.574   4.753   2.607 -0.3497 -0.1062 -0.2283
   36CHL1   H2B 2639   0.460   4.639   2.688  0.8638  2.2808  3.1113
   36CHL1   C20 2640   1.120   4.381   3.334  0.3115  0.2719  0.1535
   36CHL1   H20 2641   1.057   4.321   3.404  2.5115 -1.5555  0.6772
   36CHL1   C21 2642   1.101   4.529   3.359 -0.0572 -0.1051 -0.4412
   36CHL1  H21A 2643   1.121   4.586   3.266  1.3618  1.4913  0.7826
   36CHL1  H21B 2644   1.159   4.554   3.450 -1.6208  1.0496  0.2756
   36CHL1  H21C 2645   0.999   4.556   3.394 -0.6112 -0.0947 -1.9702
   36CHL1   C22 2646   1.267   4.346   3.371  0.0279  0.3041 -0.3020
   36CHL1  H22A 2647   1.306   4.257   3.316 -0.9181  0.8992 -2.0245
   36CHL1  H22B 2648   1.328   4.429   3.330  0.8579  1.3595  2.8356
   36CHL1   C23 2649   1.289   4.320   3.518 -0.5853 -0.2160  0.2205
   36CHL1  H23A 2650   1.263   4.420   3.558 -1.1085 -0.4230  0.3926
   36CHL1  H23B 2651   1.229   4.241   3.567 -0.8159 -2.1471 -2.9137
   36CHL1   C24 2652   1.442   4.298   3.547 -0.1338 -0.0862 -0.0875
   36CHL1  H24A 2653   1.481   4.201   3.512  0.2317  0.1141 -0.2450
   36CHL1  H24B 2654   1.503   4.362   3.480 -2.0500  0.8074 -1.0558
   36CHL1   C25 2655   1.479   4.321   3.694 -0.4072  0.4781  0.6596
   36CHL1   H25 2656   1.425   4.236   3.741  0.7040  0.1302  1.3336
   36CHL1   C26 2657   1.628   4.320   3.710 -0.0579 -0.8697  0.0835
   36CHL1  H26A 2658   1.652   4.303   3.817 -0.1494 -0.9215  0.0961
   36CHL1  H26B 2659   1.665   4.225   3.666 -0.4860 -1.3893  0.8196
   36CHL1  H26C 2660   1.694   4.401   3.674  0.6759 -1.1310  0.8102
   36CHL1   C27 2661   1.428   4.452   3.757  1.2418  0.0244 -0.5493
   36CHL1  H27A 2662   1.453   4.453   3.865 -0.6810  1.1417 -0.0686
   36CHL1  H27B 2663   1.469   4.538   3.700  1.5771  1.0132  1.1185
   36CHL1  H27C 2664   1.318   4.460   3.744  1.2078 -0.5053 -0.6160
   37CHL1    C3 2665   4.245   3.174   2.635  1.0182 -0.0993 -0.2581
   37CHL1    H3 2666   4.190   3.081   2.663 -1.2945  1.2442 -0.0709
   37CHL1    O3 2667   4.282   3.144   2.504  0.1226 -0.3145  0.1403
   37CHL1   H3' 2668   4.334   3.219   2.472  1.2925 -2.1244 -2.6093
   37CHL1    C4 2669   4.158   3.303   2.633 -0.1203 -0.0321  0.0471
   37CHL1   H4A 2670   4.223   3.386   2.598  1.8972  0.1366  3.6748
   37CHL1   H4B 2671   4.077   3.291   2.558  0.5830 -0.2714 -0.6879
   37CHL1    C5 2672   4.113   3.338   2.776 -0.2584  0.1829 -0.6919
   37CHL1    C6 2673   3.985   3.347   2.802 -0.3636  0.1483 -0.4755
   37CHL1    H6 2674   3.916   3.346   2.716  0.5385 -0.5132 -1.2115
   37CHL1    C7 2675   3.928   3.388   2.938 -0.1457  0.1212  0.5327
   37CHL1   H7A 2676   3.861   3.476   2.930  1.1591  1.0310 -1.1342
   37CHL1   H7B 2677   3.875   3.302   2.983 -0.7468  0.9919  1.5260
   37CHL1    C8 2678   4.042   3.443   3.035  0.6698  0.2078  0.9517
   37CHL1    H8 2679   4.068   3.543   2.994  0.3664 -0.9597 -2.3703
   37CHL1   C14 2680   3.988   3.468   3.177 -0.3725 -0.1617 -0.7089
   37CHL1   H14 2681   3.951   3.365   3.197 -0.9505  0.1706 -0.0201
   37CHL1   C15 2682   3.867   3.552   3.200 -0.0922 -0.1209 -0.8557
   37CHL1  H15A 2683   3.888   3.643   3.140  1.6869  0.4097  0.4620
   37CHL1  H15B 2684   3.773   3.500   3.173 -0.4109 -0.2201  0.3761
   37CHL1   C16 2685   3.879   3.589   3.353  0.5382  0.2674 -0.2829
   37CHL1  H16A 2686   3.877   3.700   3.349  1.8837  0.2888 -1.4487
   37CHL1  H16B 2687   3.800   3.545   3.417  0.6920 -0.0886 -0.3365
   37CHL1   C17 2688   4.016   3.516   3.409  0.6045 -0.8244 -0.4887
   37CHL1   H17 2689   3.976   3.414   3.430  1.5467 -0.9403  0.8143
   37CHL1   C13 2690   4.101   3.505   3.277  0.1475  0.5632 -0.1007
   37CHL1   C18 2691   4.149   3.651   3.245 -0.3724  0.4213 -0.1558
   37CHL1  H18A 2692   4.065   3.724   3.246 -0.1075  0.8067  2.7446
   37CHL1  H18B 2693   4.242   3.680   3.298  0.1339 -2.9390  1.0016
   37CHL1  H18C 2694   4.178   3.638   3.138 -1.8325 -2.2537 -0.2982
   37CHL1   C12 2695   4.216   3.403   3.274 -0.1833 -0.5239  0.6303
   37CHL1  H12A 2696   4.294   3.447   3.341 -1.8342  2.4580  0.7580
   37CHL1  H12B 2697   4.179   3.317   3.334 -2.4342 -0.4963 -0.6107
   37CHL1   C11 2698   4.275   3.386   3.132  0.0593 -0.2751  0.5108
   37CHL1  H11A 2699   4.336   3.471   3.095  2.0219 -2.2367 -1.0667
   37CHL1  H11B 2700   4.339   3.296   3.117 -0.0104 -0.6013  2.0445
   37CHL1    C9 2701   4.163   3.356   3.028 -0.2926 -0.7927 -0.0557
   37CHL1    H9 2702   4.121   3.256   3.055 -0.5620 -0.5990  0.2530
   37CHL1   C10 2703   4.225   3.345   2.884 -0.3021  0.3665 -0.5655
   37CHL1   C19 2704   4.315   3.468   2.850 -0.0920  0.4201 -0.0181
   37CHL1  H19A 2705   4.404   3.467   2.916  0.4033 -0.9772 -0.6602
   37CHL1  H19B 2706   4.340   3.468   2.741 -0.6833 -1.0226 -0.1796
   37CHL1  H19C 2707   4.258   3.561   2.872 -1.7891  0.2496 -3.1134
   37CHL1    C1 2708   4.325   3.218   2.870  0.5221  0.3552 -0.5210
   37CHL1   H1A 2709   4.413   3.234   2.936  0.6975 -0.7864 -0.4500
   37CHL1   H1B 2710   4.274   3.125   2.904  0.2627  1.7915  3.5390
   37CHL1    C2 2711   4.375   3.182   2.729  0.0515 -0.1922 -1.0702
   37CHL1   H2A 2712   4.435   3.089   2.719 -0.1410 -0.3823 -0.4508
   37CHL1   H2B 2713   4.443   3.267   2.706  1.4723 -1.3746 -1.3437
   37CHL1   C20 2714   4.077   3.578   3.533  0.6782 -0.6696 -0.8567
   37CHL1   H20 2715   4.186   3.558   3.536  0.3923 -2.2761  0.3387
   37CHL1   C21 2716   4.024   3.492   3.644  0.3112  0.6983  0.3912
   37CHL1  H21A 2717   4.029   3.384   3.618 -1.0679  0.3474  1.4415
   37CHL1  H21B 2718   3.915   3.514   3.657  0.0128 -1.4610  2.2561
   37CHL1  H21C 2719   4.074   3.518   3.739  0.0906 -0.0012  0.7074
   37CHL1   C22 2720   4.051   3.725   3.556 -0.1810 -0.0358  0.3921
   37CHL1  H22A 2721   4.109   3.777   3.477 -1.3178 -0.3475 -0.6760
   37CHL1  H22B 2722   3.947   3.761   3.546 -0.3902 -0.2109  1.7601
   37CHL1   C23 2723   4.100   3.787   3.694  0.1095 -0.8261 -0.0605
   37CHL1  H23A 2724   4.051   3.728   3.775 -1.0532 -0.1073 -0.2152
   37CHL1  H23B 2725   4.210   3.775   3.700  0.2229 -0.0058 -0.4320
   37CHL1   C24 2726   4.074   3.943   3.692 -0.0884  0.4152 -0.1083
   37CHL1  H24A 2727   4.126   3.986   3.604  1.1380 -0.9614 -0.0976
   37CHL1  H24B 2728   3.965   3.937   3.670 -0.5494 -1.0919  2.2303
   37CHL1   C25 2729   4.105   4.023   3.816 -0.2848  0.3534 -0.1768
   37CHL1   H25 2730   4.071   4.127   3.799 -0.9198  0.3766  1.0594
   37CHL1   C26 2731   4.023   3.982   3.939  0.0003  0.3330  0.4020
   37CHL1  H26A 2732   3.913   3.981   3.921 -0.1518  0.4455  1.3056
   37CHL1  H26B 2733   4.054   3.878   3.964  1.8876  0.1328 -2.3177
   37CHL1  H26C 2734   4.041   4.050   4.025  0.7418 -0.4723  0.8918
   37CHL1   C27 2735   4.258   4.019   3.846 -0.4028 -0.8424  1.2873
   37CHL1  H27A 2736   4.286   4.081   3.933  0.6442  1.5767 -0.6453
   37CHL1  H27B 2737   4.276   3.910   3.860 -2.9970 -1.3420  1.2456
   37CHL1  H27C 2738   4.309   4.053   3.753 -1.5395  2.5128  1.7641
   38CHL1    C3 2739   1.229   0.735   2.627 -0.1272  0.2961  0.2620
   38CHL1    H3 2740   1.321   0.786   2.593  0.5483 -0.8817  0.2573
   38CHL1    O3 2741   1.159   0.703   2.509 -0.6269 -0.0262  0.2338
   38CHL1   H3' 2742   1.084   0.762   2.510 -0.4197  0.2396 -0.0692
   38CHL1    C4 2743   1.254   0.611   2.712 -1.1035 -0.3405  0.3844
   38CHL1   H4A 2744   1.156   0.568   2.741 -1.1752 -0.1614  0.4056
   38CHL1   H4B 2745   1.315   0.536   2.657  0.4651  2.9983 -2.8970
   38CHL1    C5 2746   1.329   0.656   2.832 -0.3847 -0.0048 -0.3062
   38CHL1    C6 2747   1.452   0.603   2.864  0.0521 -0.0163 -0.0198
   38CHL1    H6 2748   1.507   0.540   2.793 -0.4493 -1.2599  0.6765
   38CHL1    C7 2749   1.521   0.621   2.987  0.1705 -0.4739 -0.9890
   38CHL1   H7A 2750   1.562   0.525   3.027  2.8964  1.0624  0.1795
   38CHL1   H7B 2751   1.607   0.688   2.967  1.0812 -0.9175  1.1724
   38CHL1    C8 2752   1.439   0.687   3.099  0.3312 -0.6866 -0.5396
   38CHL1    H8 2753   1.371   0.611   3.142  0.4683 -1.3132 -1.4064
   38CHL1   C14 2754   1.525   0.753   3.206 -0.2251  0.2057  0.1209
   38CHL1   H14 2755   1.584   0.833   3.156  1.1990 -1.0028 -0.1992
   38CHL1   C15 2756   1.629   0.661   3.267  0.0388 -0.3580 -0.4801
   38CHL1  H15A 2757   1.590   0.562   3.299  1.9120 -0.6794  1.0025
   38CHL1  H15B 2758   1.716   0.633   3.204  0.8375  1.2104 -0.1270
   38CHL1   C16 2759   1.679   0.751   3.382  0.2559 -0.3649  0.1278
   38CHL1  H16A 2760   1.681   0.682   3.469 -1.8096 -1.4908 -0.6530
   38CHL1  H16B 2761   1.781   0.786   3.354 -0.6494  0.3641 -2.5299
   38CHL1   C17 2762   1.575   0.862   3.410 -1.0135 -0.4313 -1.0310
   38CHL1   H17 2763   1.607   0.958   3.363 -2.3586  0.8577  0.5311
   38CHL1   C13 2764   1.454   0.816   3.325 -0.2681  0.5494  0.2526
   38CHL1   C18 2765   1.373   0.712   3.409  0.2995 -0.0800 -0.0867
   38CHL1  H18A 2766   1.433   0.627   3.448 -0.6746 -1.1676 -0.9187
   38CHL1  H18B 2767   1.331   0.762   3.499  0.0640  1.6957 -1.1321
   38CHL1  H18C 2768   1.288   0.665   3.356  0.9045 -0.4627 -0.7424
   38CHL1   C12 2769   1.371   0.927   3.272  0.7695 -0.4958  0.3719
   38CHL1  H12A 2770   1.310   0.974   3.352  1.6933  1.3566  0.0473
   38CHL1  H12B 2771   1.430   1.009   3.226 -0.7983  0.2686 -0.3648
   38CHL1   C11 2772   1.278   0.881   3.157 -0.3333  0.2746  0.2435
   38CHL1  H11A 2773   1.205   0.811   3.205  1.3764 -1.8137 -0.0441
   38CHL1  H11B 2774   1.218   0.963   3.114 -0.0896 -0.0404 -0.7268
   38CHL1    C9 2775   1.354   0.799   3.042  0.0259 -0.2294 -0.2377
   38CHL1    H9 2776   1.418   0.881   3.001 -1.7902  1.2567 -0.2486
   38CHL1   C10 2777   1.258   0.758   2.925 -0.7419  0.1601 -0.3159
   38CHL1   C19 2778   1.130   0.696   2.988  0.4616 -0.6040 -0.0473
   38CHL1  H19A 2779   1.155   0.638   3.080  0.2215 -0.1320  0.3203
   38CHL1  H19B 2780   1.065   0.776   3.028 -0.0211 -0.7788 -0.4746
   38CHL1  H19C 2781   1.075   0.634   2.914 -1.1108 -0.3537  0.8632
   38CHL1    C1 2782   1.219   0.878   2.835 -0.1742 -0.1026  0.1509
   38CHL1   H1A 2783   1.148   0.943   2.891 -1.4989 -0.2142 -1.3185
   38CHL1   H1B 2784   1.310   0.935   2.807 -0.5312 -1.3230 -4.2169
   38CHL1    C2 2785   1.143   0.833   2.708  0.8468 -0.0576  0.2385
   38CHL1   H2A 2786   1.115   0.926   2.654 -1.5877  0.8786  2.8778
   38CHL1   H2B 2787   1.053   0.776   2.737  0.2643 -0.2390 -1.8089
   38CHL1   C20 2788   1.562   0.891   3.561  0.2691  0.3257  0.3653
   38CHL1   H20 2789   1.544   0.791   3.606  2.8508  0.4074  1.7487
   38CHL1   C21 2790   1.453   1.002   3.597 -0.3899 -0.3225 -0.3959
   38CHL1  H21A 2791   1.490   1.045   3.693  1.1728  0.7109 -1.4252
   38CHL1  H21B 2792   1.349   0.963   3.601 -0.6203  0.3688  1.0892
   38CHL1  H21C 2793   1.464   1.075   3.515  0.6213 -0.3628 -0.3149
   38CHL1   C22 2794   1.685   0.940   3.629 -0.4976  0.5272 -0.1081
   38CHL1  H22A 2795   1.774   0.934   3.563 -1.0863  1.2302 -0.9815
   38CHL1  H22B 2796   1.680   1.047   3.661 -0.6944  1.2470 -2.3746
   38CHL1   C23 2797   1.712   0.851   3.755 -0.2758 -0.4687 -0.6948
   38CHL1  H23A 2798   1.627   0.858   3.826  1.7043 -3.5269  2.3044
   38CHL1  H23B 2799   1.718   0.741   3.739  2.0494 -0.3663 -0.8783
   38CHL1   C24 2800   1.842   0.891   3.828  0.0698 -0.5128 -0.1336
   38CHL1  H24A 2801   1.914   0.914   3.746 -0.0034  0.6078  0.0912
   38CHL1  H24B 2802   1.817   0.986   3.879 -0.2763 -0.2936 -0.7027
   38CHL1   C25 2803   1.904   0.794   3.936  0.5898 -0.4314  0.0579
   38CHL1   H25 2804   1.820   0.785   4.008 -1.0032  0.3808 -1.5892
   38CHL1   C26 2805   1.948   0.655   3.875  0.4811 -0.6339  0.0099
   38CHL1  H26A 2806   2.039   0.671   3.814 -0.5607 -0.7393 -1.6427
   38CHL1  H26B 2807   1.961   0.591   3.965  0.1627 -3.6048 -1.9092
   38CHL1  H26C 2808   1.870   0.606   3.813 -0.5236 -1.3740  1.7830
   38CHL1   C27 2809   2.031   0.856   3.993  0.3842 -1.2209 -0.3704
   38CHL1  H27A 2810   1.997   0.946   4.048  1.4841 -1.2917  0.4381
   38CHL1  H27B 2811   2.082   0.783   4.059  1.1564 -0.9292 -0.6444
   38CHL1  H27C 2812   2.091   0.880   3.903 -0.0653  0.0335 -0.3627
   39CHL1    C3 2813   6.116   2.966   2.738  0.5415 -0.2581  0.3870
   39CHL1    H3 2814   6.126   3.051   2.809 -2.1179 -1.6162  2.5897
   39CHL1    O3 2815   6.143   3.005   2.598  0.2425  0.3376  0.1075
   39CHL1   H3' 2816   6.076   3.071   2.579  0.7871  1.0842  0.7635
   39CHL1    C4 2817   6.222   2.859   2.779  0.2754  0.3492  0.2433
   39CHL1   H4A 2818   6.206   2.777   2.705  1.1557  1.6173 -1.4052
   39CHL1   H4B 2819   6.326   2.894   2.763 -1.2283  4.9127 -1.0743
   39CHL1    C5 2820   6.196   2.820   2.919  0.2588  0.0110 -0.1377
   39CHL1    C6 2821   6.289   2.832   3.018  0.4076 -0.8143  0.2830
   39CHL1    H6 2822   6.391   2.870   3.001  0.3885 -0.9362 -0.1146
   39CHL1    C7 2823   6.258   2.808   3.159  0.3613  0.2510 -0.7838
   39CHL1   H7A 2824   6.349   2.757   3.195  0.7375  1.3657 -0.0986
   39CHL1   H7B 2825   6.234   2.907   3.203 -1.1535 -0.3493 -0.1875
   39CHL1    C8 2826   6.134   2.718   3.184  0.3228  0.8558  0.1585
   39CHL1    H8 2827   6.160   2.613   3.156 -0.9440  0.6536 -0.3578
   39CHL1   C14 2828   6.088   2.725   3.329 -0.5440 -0.5450  0.6135
   39CHL1   H14 2829   6.058   2.830   3.349  0.9988  0.1704 -0.6272
   39CHL1   C15 2830   6.195   2.702   3.438 -0.6790  0.1607 -0.5534
   39CHL1  H15A 2831   6.238   2.602   3.417 -1.7539 -0.4886  0.2620
   39CHL1  H15B 2832   6.274   2.780   3.435 -0.4547 -0.0892 -1.4966
   39CHL1   C16 2833   6.119   2.687   3.565 -0.1781 -0.1813 -0.0182
   39CHL1  H16A 2834   6.162   2.600   3.620  1.3489 -0.7953 -2.0815
   39CHL1  H16B 2835   6.133   2.780   3.624  0.8599 -1.0451  1.1618
   39CHL1   C17 2836   5.968   2.676   3.517 -0.3120 -0.1644 -0.0191
   39CHL1   H17 2837   5.921   2.776   3.536 -3.1080 -1.9007  3.4250
   39CHL1   C13 2838   5.968   2.644   3.373 -0.5504 -0.1020 -0.8843
   39CHL1   C18 2839   5.987   2.492   3.367  0.3771 -0.1399  0.3760
   39CHL1  H18A 2840   6.055   2.458   3.449 -0.0695 -1.6024  0.1639
   39CHL1  H18B 2841   5.889   2.441   3.370  2.0002 -3.8444 -1.9101
   39CHL1  H18C 2842   6.035   2.466   3.270  3.5719 -0.5061  1.8943
   39CHL1   C12 2843   5.858   2.711   3.288  0.2707  0.7474  0.5526
   39CHL1  H12A 2844   5.759   2.669   3.318 -0.2848  2.5640  1.4484
   39CHL1  H12B 2845   5.861   2.817   3.321 -2.2812  0.8231  0.8078
   39CHL1   C11 2846   5.889   2.694   3.142  0.4213 -0.2219  0.3514
   39CHL1  H11A 2847   5.902   2.584   3.128  0.3672 -0.0061 -1.5966
   39CHL1  H11B 2848   5.803   2.743   3.092  0.0854  1.2028  2.2273
   39CHL1    C9 2849   6.020   2.764   3.100  0.2625  0.7471 -0.8644
   39CHL1    H9 2850   6.004   2.868   3.137 -0.5067  0.0108  1.0202
   39CHL1   C10 2851   6.049   2.773   2.950 -0.2578  0.1630  0.3305
   39CHL1   C19 2852   6.033   2.630   2.892  0.2777  0.4225  0.3702
   39CHL1  H19A 2853   6.087   2.552   2.950  1.6146  1.2489  0.2729
   39CHL1  H19B 2854   5.923   2.616   2.900 -0.3066  4.3007  1.3174
   39CHL1  H19C 2855   6.063   2.624   2.786 -1.9348 -0.2106 -0.2714
   39CHL1    C1 2856   5.939   2.865   2.892 -0.2339 -0.7696  0.2899
   39CHL1   H1A 2857   5.839   2.817   2.890 -0.5353 -0.1375 -1.9732
   39CHL1   H1B 2858   5.936   2.954   2.958 -3.4475 -0.8608  0.4314
   39CHL1    C2 2859   5.970   2.908   2.747 -0.6790 -0.6423 -0.1624
   39CHL1   H2A 2860   5.890   2.979   2.717  0.0156  0.8099  1.2980
   39CHL1   H2B 2861   5.969   2.821   2.678 -1.6858 -0.6804 -0.1142
   39CHL1   C20 2862   5.888   2.586   3.611  0.2752  0.1845 -0.1842
   39CHL1   H20 2863   5.928   2.482   3.606  3.0196  1.0800  1.2062
   39CHL1   C21 2864   5.739   2.576   3.571 -0.2939  0.1955  0.4329
   39CHL1  H21A 2865   5.699   2.679   3.565 -0.7039 -0.0085 -0.4370
   39CHL1  H21B 2866   5.677   2.514   3.640 -0.0631 -0.3411  0.1681
   39CHL1  H21C 2867   5.721   2.515   3.480  1.2348 -0.0634  0.2636
   39CHL1   C22 2868   5.899   2.632   3.761 -0.1298  0.2475  0.3883
   39CHL1  H22A 2869   5.851   2.553   3.823 -0.3328  1.8837  2.4301
   39CHL1  H22B 2870   6.005   2.629   3.793  0.2045  0.3434 -0.6654
   39CHL1   C23 2871   5.830   2.762   3.801  0.3721 -0.1056  0.2751
   39CHL1  H23A 2872   5.866   2.851   3.744 -1.0649  0.4476  0.1777
   39CHL1  H23B 2873   5.722   2.744   3.779  0.3793  0.5045 -0.3169
   39CHL1   C24 2874   5.868   2.793   3.946 -0.7503  0.3721 -0.0647
   39CHL1  H24A 2875   5.978   2.805   3.953 -0.8283  1.1220 -0.0240
   39CHL1  H24B 2876   5.825   2.889   3.981 -0.5346  0.6381 -0.5168
   39CHL1   C25 2877   5.827   2.688   4.052  0.5887 -0.0833  0.2152
   39CHL1   H25 2878   5.876   2.588   4.041 -1.0526 -0.9126  0.1484
   39CHL1   C26 2879   5.877   2.740   4.197  0.3700 -0.6214  0.1395
   39CHL1  H26A 2880   5.823   2.835   4.219  0.9371  0.4082 -2.5877
   39CHL1  H26B 2881   5.845   2.662   4.270 -1.0869  0.1402  0.3544
   39CHL1  H26C 2882   5.982   2.775   4.192 -0.0288  0.3886 -2.5033
   39CHL1   C27 2883   5.672   2.672   4.049 -0.4840 -0.6298  0.2711
   39CHL1  H27A 2884   5.636   2.615   3.961  0.6000 -2.4829  0.9742
   39CHL1  H27B 2885   5.636   2.621   4.140 -0.0162  0.5149  1.1190
   39CHL1  H27C 2886   5.632   2.776   4.043 -0.1153 -0.5298 -0.7639
   40CHL1    C3 2887   4.814   4.987   2.705 -0.4894  0.5186 -0.1970
   40CHL1    H3 2888   4.920   4.954   2.699  0.2583  2.5077  0.9106
   40CHL1    O3 2889   4.767   5.036   2.581 -0.1258 -0.6508  0.0280
   40CHL1   H3' 2890   4.778   5.130   2.598 -0.0113 -0.5224 -0.7257
   40CHL1    C4 2891   4.731   4.870   2.758 -0.5563 -0.3565  0.5741
   40CHL1   H4A 2892   4.625   4.891   2.731  0.1151 -1.2835 -3.4794
   40CHL1   H4B 2893   4.769   4.778   2.708  0.2347 -0.9748  2.2460
   40CHL1    C5 2894   4.754   4.846   2.903  0.3111 -0.1409  0.2664
   40CHL1    C6 2895   4.790   4.725   2.950 -0.4436  0.3272 -0.3280
   40CHL1    H6 2896   4.815   4.645   2.879 -0.8069 -1.6109  1.6183
   40CHL1    C7 2897   4.821   4.685   3.092 -0.0590  0.3345 -0.0572
   40CHL1   H7A 2898   4.778   4.585   3.114  0.4633  0.0216 -0.4331
   40CHL1   H7B 2899   4.931   4.680   3.111  0.3665  0.4505 -2.2846
   40CHL1    C8 2900   4.752   4.785   3.187 -0.3158  0.9446  0.1526
   40CHL1    H8 2901   4.642   4.769   3.184 -0.5930  2.7400 -0.9700
   40CHL1   C14 2902   4.804   4.767   3.329  0.5357 -0.1923 -0.4828
   40CHL1   H14 2903   4.909   4.801   3.342  0.7909 -1.7798  2.7073
   40CHL1   C15 2904   4.802   4.633   3.405  0.6895  0.5917  0.5700
   40CHL1  H15A 2905   4.718   4.566   3.379  0.5073  1.1522 -0.3727
   40CHL1  H15B 2906   4.893   4.574   3.380  1.3618  1.4375  0.9542
   40CHL1   C16 2907   4.796   4.663   3.554  0.6310  0.2994  0.0961
   40CHL1  H16A 2908   4.709   4.621   3.609  0.2939  0.5041 -0.2737
   40CHL1  H16B 2909   4.894   4.641   3.602 -0.4904 -0.3428  2.2111
   40CHL1   C17 2910   4.774   4.811   3.566  0.1869 -0.0683 -0.3069
   40CHL1   H17 2911   4.877   4.854   3.571  0.3787 -0.4371 -0.9674
   40CHL1   C13 2912   4.723   4.858   3.427  0.7632  0.3737  0.1975
   40CHL1   C18 2913   4.574   4.832   3.413 -0.5509 -0.2599 -0.9213
   40CHL1  H18A 2914   4.521   4.879   3.327 -0.8889  0.2789 -0.4274
   40CHL1  H18B 2915   4.548   4.725   3.429  1.7067 -0.3868  3.2941
   40CHL1  H18C 2916   4.540   4.889   3.503  2.3534  0.8380 -0.4376
   40CHL1   C12 2917   4.766   4.999   3.391 -0.6739  0.1370 -0.3931
   40CHL1  H12A 2918   4.721   5.077   3.457  1.6101  0.7629  0.5653
   40CHL1  H12B 2919   4.876   5.000   3.409 -0.5003 -3.4528 -0.5855
   40CHL1   C11 2920   4.738   5.039   3.243  0.2321 -0.6772  0.2181
   40CHL1  H11A 2921   4.629   5.058   3.241  0.1031 -1.1532  1.5198
   40CHL1  H11B 2922   4.789   5.135   3.218  0.1955  0.3560  3.6292
   40CHL1    C9 2923   4.775   4.926   3.142 -0.1556  0.2902  0.0080
   40CHL1    H9 2924   4.886   4.926   3.150  0.0141 -1.9665 -1.6587
   40CHL1   C10 2925   4.735   4.966   2.999 -0.1756 -0.7502 -0.7321
   40CHL1   C19 2926   4.587   5.018   2.997  0.3364  0.1454 -0.0319
   40CHL1  H19A 2927   4.574   5.125   3.025 -1.0127 -0.1903  0.7064
   40CHL1  H19B 2928   4.547   5.016   2.893 -2.1832 -1.0516  0.8692
   40CHL1  H19C 2929   4.526   4.952   3.062  0.6093  0.2274  0.3094
   40CHL1    C1 2930   4.824   5.081   2.951 -0.2347  0.3920  0.4316
   40CHL1   H1A 2931   4.797   5.175   3.005 -2.3053 -1.0692  2.1325
   40CHL1   H1B 2932   4.929   5.052   2.970  0.0908  1.6510  0.6608
   40CHL1    C2 2933   4.815   5.115   2.800  0.7510  0.0001 -0.5110
   40CHL1   H2A 2934   4.897   5.186   2.776 -0.1140  1.4158  0.5824
   40CHL1   H2B 2935   4.719   5.169   2.789  1.6393  1.2992 -2.5908
   40CHL1   C20 2936   4.718   4.866   3.707  0.5449  0.0237  0.2254
   40CHL1   H20 2937   4.617   4.824   3.725  0.1418  0.5589 -0.7542
   40CHL1   C21 2938   4.700   5.019   3.708 -0.0403 -0.2427 -0.0907
   40CHL1  H21A 2939   4.788   5.083   3.687  1.2247 -0.9295  2.6262
   40CHL1  H21B 2940   4.669   5.068   3.803 -1.7632  2.4183 -1.8898
   40CHL1  H21C 2941   4.612   5.034   3.643 -1.0687  0.7069  1.4521
   40CHL1   C22 2942   4.810   4.827   3.814 -0.3693  0.0756 -0.0353
   40CHL1  H22A 2943   4.819   4.716   3.807 -2.8452 -0.0726 -2.2149
   40CHL1  H22B 2944   4.913   4.866   3.797 -0.6993  0.9156 -0.1084
   40CHL1   C23 2945   4.758   4.857   3.961 -0.2693 -0.0539 -0.6449
   40CHL1  H23A 2946   4.774   4.963   3.990 -0.3598 -0.9401  3.1813
   40CHL1  H23B 2947   4.653   4.824   3.973 -0.0808 -0.5323 -0.2173
   40CHL1   C24 2948   4.843   4.774   4.063 -0.1758 -0.2735  0.2134
   40CHL1  H24A 2949   4.819   4.669   4.036 -0.7476 -0.9537  3.0159
   40CHL1  H24B 2950   4.947   4.807   4.041 -1.0422  0.9407 -2.4115
   40CHL1   C25 2951   4.814   4.797   4.213  0.0540 -0.1149 -0.2814
   40CHL1   H25 2952   4.811   4.908   4.227 -1.4839 -0.4169  2.5864
   40CHL1   C26 2953   4.676   4.733   4.253 -0.8034  0.2318  0.4640
   40CHL1  H26A 2954   4.592   4.771   4.191 -1.0644 -2.3170 -0.8690
   40CHL1  H26B 2955   4.680   4.622   4.247 -2.3814  0.2173 -1.7701
   40CHL1  H26C 2956   4.654   4.777   4.353  2.8320  1.4821  0.8594
   40CHL1   C27 2957   4.925   4.734   4.298  0.2115 -0.2171 -0.2741
   40CHL1  H27A 2958   4.899   4.749   4.405 -0.0647  1.8442 -0.5719
   40CHL1  H27B 2959   4.931   4.625   4.283 -0.2851  0.0148 -2.6597
   40CHL1  H27C 2960   5.021   4.785   4.272  0.6892 -1.0082 -0.0864
   41CHL1    C3 2961   2.136   2.714   2.774  0.1896  0.0940 -0.7408
   41CHL1    H3 2962   2.083   2.804   2.813  2.7430  0.9361  1.0331
   41CHL1    O3 2963   2.133   2.716   2.637 -0.4036  0.1145  0.2942
   41CHL1   H3' 2964   2.045   2.748   2.615 -0.6930 -0.4280  0.6394
   41CHL1    C4 2965   2.280   2.734   2.826 -0.1322  0.5963 -0.2474
   41CHL1   H4A 2966   2.347   2.654   2.788  0.0613  0.2817  0.7361
   41CHL1   H4B 2967   2.321   2.834   2.799 -0.7051  1.0930  0.6589
   41CHL1    C5 2968   2.297   2.709   2.976 -0.0754  0.0809 -0.7265
   41CHL1    C6 2969   2.362   2.803   3.052  0.2699  0.2230  0.0222
   41CHL1    H6 2970   2.388   2.902   3.011  1.5938  0.3095  1.0013
   41CHL1    C7 2971   2.398   2.789   3.194  0.3220 -0.4293  0.2010
   41CHL1   H7A 2972   2.507   2.801   3.204  0.5933 -0.3934 -2.2618
   41CHL1   H7B 2973   2.340   2.864   3.252  0.4306  2.0626 -2.6447
   41CHL1    C8 2974   2.375   2.640   3.245 -0.6047 -0.0926  0.0962
   41CHL1    H8 2975   2.452   2.570   3.206  1.4846  1.9869  0.2890
   41CHL1   C14 2976   2.364   2.634   3.397 -0.2264 -0.4646  0.4406
   41CHL1   H14 2977   2.273   2.688   3.431 -0.7644 -1.8804  1.3021
   41CHL1   C15 2978   2.483   2.695   3.476  0.3283 -0.1236  0.6460
   41CHL1  H15A 2979   2.571   2.654   3.422  0.3773  2.7085 -1.6777
   41CHL1  H15B 2980   2.485   2.805   3.464  4.8793  0.4143  3.7706
   41CHL1   C16 2981   2.445   2.650   3.615 -0.0402  0.9048  0.8906
   41CHL1  H16A 2982   2.539   2.616   3.664  1.1574  2.0069 -0.5535
   41CHL1  H16B 2983   2.402   2.738   3.667 -1.5336  1.1334 -0.6617
   41CHL1   C17 2984   2.345   2.531   3.609 -0.6093 -0.0302 -0.1627
   41CHL1   H17 2985   2.248   2.584   3.623 -0.6546 -0.3167  0.6808
   41CHL1   C13 2986   2.343   2.494   3.459 -0.1620  0.5146  0.0983
   41CHL1   C18 2987   2.470   2.400   3.435  0.0498 -0.5494  0.2198
   41CHL1  H18A 2988   2.461   2.298   3.476  2.9048 -0.7020  0.6043
   41CHL1  H18B 2989   2.485   2.378   3.327  2.6547 -0.0513  0.4300
   41CHL1  H18C 2990   2.561   2.452   3.472 -1.0965  1.8265 -0.0930
   41CHL1   C12 2991   2.210   2.431   3.400  0.4935 -0.6264  0.2638
   41CHL1  H12A 2992   2.203   2.331   3.449  0.1050 -0.2825  0.9253
   41CHL1  H12B 2993   2.117   2.482   3.432  2.0230  1.8083  1.1665
   41CHL1   C11 2994   2.209   2.436   3.249 -0.4411 -0.0894  0.1661
   41CHL1  H11A 2995   2.291   2.368   3.217  1.1644  2.0620 -0.5219
   41CHL1  H11B 2996   2.107   2.411   3.213 -0.2226 -0.6604 -0.0634
   41CHL1    C9 2997   2.242   2.576   3.187  0.2660 -0.0674  0.1154
   41CHL1    H9 2998   2.156   2.642   3.214 -0.4017 -0.8032 -0.1849
   41CHL1   C10 2999   2.248   2.578   3.033 -0.1769  0.1138  0.5382
   41CHL1   C19 3000   2.330   2.464   2.984  0.9894 -0.4155 -0.0164
   41CHL1  H19A 3001   2.276   2.368   3.002  1.3054 -1.2741 -3.1408
   41CHL1  H19B 3002   2.331   2.475   2.874 -2.0212  1.7241  0.0229
   41CHL1  H19C 3003   2.432   2.461   3.028  1.4008 -2.9596 -1.0135
   41CHL1    C1 3004   2.105   2.566   2.982  1.1389 -0.7552 -0.8481
   41CHL1   H1A 3005   2.059   2.470   3.012 -3.4877  2.0448  2.1414
   41CHL1   H1B 3006   2.049   2.648   3.030  2.1773  0.6827 -1.9680
   41CHL1    C2 3007   2.075   2.586   2.827 -0.0789  0.2333 -0.0100
   41CHL1   H2A 3008   1.969   2.564   2.805 -0.3199 -1.7259  2.5847
   41CHL1   H2B 3009   2.127   2.502   2.776 -0.8788 -0.2930  0.0240
   41CHL1   C20 3010   2.359   2.427   3.722  0.0488 -0.5882 -0.0862
   41CHL1   H20 3011   2.458   2.378   3.719  0.0288 -0.6087 -0.4832
   41CHL1   C21 3012   2.254   2.317   3.698 -0.1849 -0.5984 -0.4633
   41CHL1  H21A 3013   2.156   2.365   3.678 -1.0472 -1.4041  1.5668
   41CHL1  H21B 3014   2.248   2.274   3.800  2.2867  1.1713  0.5507
   41CHL1  H21C 3015   2.282   2.245   3.617 -2.0606 -2.5469  0.5219
   41CHL1   C22 3016   2.341   2.488   3.864 -0.8953  0.2971 -0.4284
   41CHL1  H22A 3017   2.243   2.541   3.871 -1.1575 -0.3306  1.0649
   41CHL1  H22B 3018   2.341   2.396   3.926  1.2529  1.0508  0.7764
   41CHL1   C23 3019   2.448   2.581   3.923 -0.1913 -0.8918 -0.0389
   41CHL1  H23A 3020   2.543   2.525   3.931 -0.5374 -1.3831  0.7031
   41CHL1  H23B 3021   2.471   2.671   3.861  0.5994 -0.0587  1.4070
   41CHL1   C24 3022   2.412   2.619   4.061  0.2404 -0.3252 -0.1471
   41CHL1  H24A 3023   2.304   2.642   4.063  0.3339  0.2469 -1.0272
   41CHL1  H24B 3024   2.426   2.536   4.133 -0.1394 -0.3430 -0.0931
   41CHL1   C25 3025   2.481   2.742   4.121 -0.1676 -0.4693  0.5552
   41CHL1   H25 3026   2.426   2.830   4.082  0.9752  0.1610  0.2945
   41CHL1   C26 3027   2.461   2.747   4.275 -0.1706 -0.6666 -0.1921
   41CHL1  H26A 3028   2.482   2.650   4.325 -0.4170 -0.9751 -0.6774
   41CHL1  H26B 3029   2.511   2.831   4.328  2.5778 -3.0121  1.2072
   41CHL1  H26C 3030   2.352   2.762   4.287 -0.1464 -0.8567  0.2651
   41CHL1   C27 3031   2.627   2.756   4.090  0.4096 -0.2260 -0.0240
   41CHL1  H27A 3032   2.671   2.830   4.160 -0.2872 -1.4377  1.7684
   41CHL1  H27B 3033   2.681   2.661   4.109 -0.5488 -0.6795  0.4935
   41CHL1  H27C 3034   2.645   2.779   3.983  2.6692 -1.6322 -0.0206
   42CHL1    C3 3035   3.623   2.425   2.800 -0.1475  0.2745 -0.1796
   42CHL1    H3 3036   3.529   2.478   2.824 -0.4099 -0.3397  0.1677
   42CHL1    O3 3037   3.639   2.438   2.655 -0.8004  0.0358 -0.0691
   42CHL1   H3' 3038   3.713   2.379   2.641  0.8140  1.6853  1.0224
   42CHL1    C4 3039   3.743   2.500   2.866 -0.4768  0.0200  0.0012
   42CHL1   H4A 3040   3.826   2.464   2.802 -1.1799 -1.5474 -0.0852
   42CHL1   H4B 3041   3.745   2.606   2.833 -1.1377  0.2920  0.7883
   42CHL1    C5 3042   3.746   2.486   3.013 -0.2535  0.2731 -0.0644
   42CHL1    C6 3043   3.731   2.587   3.099 -0.0469 -0.3198  0.3742
   42CHL1    H6 3044   3.719   2.692   3.068 -1.5023  0.6227  3.6847
   42CHL1    C7 3045   3.750   2.576   3.248 -0.2000  0.5774  0.2921
   42CHL1   H7A 3046   3.828   2.650   3.274  0.7878 -0.1674 -0.4877
   42CHL1   H7B 3047   3.665   2.600   3.316 -0.4301 -1.1083  0.6349
   42CHL1    C8 3048   3.811   2.434   3.291  0.9295  0.2742 -0.6045
   42CHL1    H8 3049   3.918   2.423   3.263  1.3641 -4.2469  1.8332
   42CHL1   C14 3050   3.794   2.398   3.437 -0.4055  0.1191  0.5587
   42CHL1   H14 3051   3.683   2.395   3.450 -0.2857  1.2719  2.1229
   42CHL1   C15 3052   3.832   2.500   3.545  0.2020  0.0635 -0.2659
   42CHL1  H15A 3053   3.934   2.532   3.515  0.5645  0.5285  1.3753
   42CHL1  H15B 3054   3.773   2.593   3.558  1.5108  0.9635 -0.5551
   42CHL1   C16 3055   3.843   2.417   3.682 -0.0915 -1.0591 -0.3847
   42CHL1  H16A 3056   3.945   2.426   3.724 -0.9572 -0.9042  1.7829
   42CHL1  H16B 3057   3.770   2.456   3.755 -2.1331 -0.4644 -2.6113
   42CHL1   C17 3058   3.825   2.273   3.648 -0.7385  0.3449 -0.0535
   42CHL1   H17 3059   3.718   2.241   3.648 -0.4325 -0.8636 -2.0712
   42CHL1   C13 3060   3.851   2.261   3.487  0.0132 -0.1899 -0.0200
   42CHL1   C18 3061   4.003   2.261   3.465 -0.0661 -0.0437 -0.3762
   42CHL1  H18A 3062   4.057   2.170   3.499  0.7055  0.7221  0.4835
   42CHL1  H18B 3063   4.026   2.263   3.356 -2.0432 -1.5283 -0.8740
   42CHL1  H18C 3064   4.057   2.343   3.516 -0.4979  0.1342 -0.2058
   42CHL1   C12 3065   3.779   2.153   3.403 -0.7187 -0.1038 -0.5306
   42CHL1  H12A 3066   3.820   2.056   3.436 -0.4127  0.2191  0.0609
   42CHL1  H12B 3067   3.674   2.160   3.441 -0.4860 -0.6234  0.2374
   42CHL1   C11 3068   3.797   2.172   3.252  0.5942 -1.1852  0.3837
   42CHL1  H11A 3069   3.902   2.162   3.218  0.9778  2.2646  0.1603
   42CHL1  H11B 3070   3.737   2.092   3.203  0.4450 -2.1962  2.1336
   42CHL1    C9 3071   3.741   2.317   3.212 -0.3068  0.6171 -0.0204
   42CHL1    H9 3072   3.633   2.315   3.240 -0.0355  0.8589  1.0730
   42CHL1   C10 3073   3.753   2.342   3.058 -0.1380  0.2090  0.6451
   42CHL1   C19 3074   3.886   2.284   3.010 -0.2106  0.3530 -0.6502
   42CHL1  H19A 3075   3.888   2.286   2.899  1.3390 -1.9111 -0.7332
   42CHL1  H19B 3076   3.973   2.342   3.047  0.6883 -2.2513  1.6701
   42CHL1  H19C 3077   3.907   2.179   3.041  0.6972  0.8790  0.6028
   42CHL1    C1 3078   3.638   2.260   3.002  0.1776  0.2945  0.2593
   42CHL1   H1A 3079   3.654   2.151   3.015  0.3566 -0.0474 -2.3331
   42CHL1   H1B 3080   3.545   2.283   3.058  0.6473 -1.4584  1.8798
   42CHL1    C2 3081   3.606   2.278   2.849 -0.2245  0.2816 -0.0340
   42CHL1   H2A 3082   3.507   2.231   2.832 -0.0407 -0.0668 -0.1489
   42CHL1   H2B 3083   3.682   2.212   2.802 -0.2279 -0.9944  1.6298
   42CHL1   C20 3084   3.902   2.178   3.743  0.1831 -0.3446 -0.4189
   42CHL1   H20 3085   4.011   2.185   3.721  0.4751 -1.8301  0.4265
   42CHL1   C21 3086   3.874   2.030   3.704  0.5016  0.2633 -0.1884
   42CHL1  H21A 3087   3.944   1.997   3.624  1.5145 -1.3290  1.2762
   42CHL1  H21B 3088   3.767   2.017   3.679  0.9377 -2.5396 -0.9995
   42CHL1  H21C 3089   3.897   1.963   3.790  0.1838  0.5203  0.1003
   42CHL1   C22 3090   3.889   2.204   3.899  0.1528  0.1252  0.6548
   42CHL1  H22A 3091   3.903   2.313   3.911  2.0767 -0.2529  2.3216
   42CHL1  H22B 3092   3.784   2.178   3.926 -0.0688  1.7858  1.5471
   42CHL1   C23 3093   3.987   2.130   3.984  0.4409 -0.2003 -0.3154
   42CHL1  H23A 3094   4.016   2.028   3.951  2.0749  0.2273 -0.2903
   42CHL1  H23B 3095   4.084   2.184   3.994  0.0585  0.4252  0.0770
   42CHL1   C24 3096   3.919   2.109   4.120  0.0383 -0.4655  0.4637
   42CHL1  H24A 3097   3.886   2.195   4.183  1.1615 -0.2128  0.7149
   42CHL1  H24B 3098   3.831   2.049   4.085 -0.1104  0.4994 -0.8803
   42CHL1   C25 3099   3.985   2.021   4.219  0.0555  0.5580 -0.2176
   42CHL1   H25 3100   4.018   1.928   4.167  1.2419  1.0357 -0.3493
   42CHL1   C26 3101   4.109   2.083   4.279 -0.0091 -0.0997  0.4043
   42CHL1  H26A 3102   4.170   2.121   4.194 -0.9887  1.1381  0.2437
   42CHL1  H26B 3103   4.081   2.166   4.348 -2.6200  0.0357 -0.7027
   42CHL1  H26C 3104   4.164   2.001   4.331 -2.4046 -1.5571  0.7652
   42CHL1   C27 3105   3.881   1.990   4.331 -0.7339  0.3511  0.2249
   42CHL1  H27A 3106   3.816   2.078   4.352 -1.1002  0.0654  0.3050
   42CHL1  H27B 3107   3.813   1.913   4.288 -0.5663  0.2452  0.1476
   42CHL1  H27C 3108   3.923   1.935   4.417 -2.6426 -1.6611 -0.0556
   43CHL1    C3 3109   6.576   0.701   2.751 -0.4251 -0.5458  0.4311
   43CHL1    H3 3110   6.586   0.591   2.756 -1.3730 -0.9662 -3.6171
   43CHL1    O3 3111   6.620   0.736   2.620 -0.1931 -0.9662 -0.2496
   43CHL1   H3' 3112   6.676   0.812   2.637  2.3683 -2.8771  0.6154
   43CHL1    C4 3113   6.436   0.756   2.763  0.3396 -0.6218 -0.1087
   43CHL1   H4A 3114   6.436   0.866   2.748 -0.0064 -0.7006 -0.7289
   43CHL1   H4B 3115   6.386   0.714   2.673 -0.7964 -0.7117  0.5419
   43CHL1    C5 3116   6.361   0.717   2.894 -0.7714  0.1290 -0.6409
   43CHL1    C6 3117   6.256   0.635   2.904 -0.2491  0.6472  0.4120
   43CHL1    H6 3118   6.211   0.597   2.811  0.8901  0.4767 -0.0809
   43CHL1    C7 3119   6.181   0.599   3.032 -0.3575  0.5143  0.3404
   43CHL1   H7A 3120   6.071   0.592   3.016 -0.2972  0.2957 -0.0083
   43CHL1   H7B 3121   6.206   0.492   3.049 -0.1205  0.5421  0.1798
   43CHL1    C8 3122   6.223   0.679   3.157 -0.0517 -0.1218  0.2941
   43CHL1    H8 3123   6.180   0.780   3.145 -0.1560 -0.4618 -3.1936
   43CHL1   C14 3124   6.177   0.609   3.281  0.2799 -0.7793  0.1578
   43CHL1   H14 3125   6.216   0.504   3.279  0.1624 -0.8578  1.2474
   43CHL1   C15 3126   6.032   0.606   3.317  0.0497 -0.1705  0.2373
   43CHL1  H15A 3127   5.994   0.711   3.309  0.1455  0.0427  2.0511
   43CHL1  H15B 3128   5.964   0.545   3.254 -0.5818 -0.2482  0.9735
   43CHL1   C16 3129   6.028   0.557   3.466  0.5794 -0.6194 -0.6454
   43CHL1  H16A 3130   5.964   0.638   3.508  1.0562 -1.0434  0.9550
   43CHL1  H16B 3131   5.994   0.454   3.491  0.2780 -1.3403 -3.6904
   43CHL1   C17 3132   6.169   0.577   3.521  0.3784  0.1368 -0.6531
   43CHL1   H17 3133   6.212   0.475   3.525 -0.5585 -0.2250  1.3359
   43CHL1   C13 3134   6.244   0.660   3.407  0.4411 -0.2261 -0.2603
   43CHL1   C18 3135   6.218   0.812   3.433  0.3711  0.1233  0.4657
   43CHL1  H18A 3136   6.115   0.833   3.467  0.0398  0.9314 -0.9538
   43CHL1  H18B 3137   6.289   0.841   3.514 -0.1467 -0.0975  1.0061
   43CHL1  H18C 3138   6.237   0.877   3.345  0.0347 -0.6208 -0.1673
   43CHL1   C12 3139   6.397   0.634   3.397 -0.5320 -0.2589  0.0340
   43CHL1  H12A 3140   6.448   0.647   3.494  0.1481  0.2539 -0.3757
   43CHL1  H12B 3141   6.425   0.530   3.372  2.0334 -0.2558  2.5062
   43CHL1   C11 3142   6.456   0.720   3.286  0.4502  1.0626  0.1032
   43CHL1  H11A 3143   6.448   0.828   3.311 -1.3551  0.4473  2.5200
   43CHL1  H11B 3144   6.564   0.693   3.275  0.1040 -0.2082 -0.3165
   43CHL1    C9 3145   6.382   0.694   3.152  0.6276  0.3409  0.2167
   43CHL1    H9 3146   6.405   0.587   3.132 -0.9833  0.2001 -1.1649
   43CHL1   C10 3147   6.428   0.769   3.019 -0.5342 -0.3134 -0.5811
   43CHL1   C19 3148   6.390   0.912   3.038  0.1865 -0.4667 -0.2172
   43CHL1  H19A 3149   6.425   0.960   3.132 -0.6877 -0.8020  0.2919
   43CHL1  H19B 3150   6.438   0.964   2.953 -0.5494  0.0083 -0.3533
   43CHL1  H19C 3151   6.279   0.919   3.037 -0.0062 -2.7440 -1.0961
   43CHL1    C1 3152   6.585   0.753   3.002 -0.3733 -0.4783 -0.3429
   43CHL1   H1A 3153   6.645   0.823   3.064  0.2696 -0.9898 -0.3851
   43CHL1   H1B 3154   6.603   0.651   3.041  0.7033 -0.8032 -1.6196
   43CHL1    C2 3155   6.646   0.773   2.864  0.2059  0.0634 -0.3974
   43CHL1   H2A 3156   6.755   0.749   2.864  0.8179  2.5280 -1.5017
   43CHL1   H2B 3157   6.650   0.881   2.837  1.3489  0.7932  2.3560
   43CHL1   C20 3158   6.175   0.624   3.668 -0.2803 -0.0319  0.3349
   43CHL1   H20 3159   6.133   0.726   3.681 -1.9681 -0.6585 -0.0226
   43CHL1   C21 3160   6.321   0.626   3.718  0.6521 -0.2715 -0.4256
   43CHL1  H21A 3161   6.366   0.530   3.683 -0.2628 -0.1194 -2.1093
   43CHL1  H21B 3162   6.328   0.638   3.828 -0.0869  1.7191 -0.5522
   43CHL1  H21C 3163   6.363   0.720   3.679 -0.6742  0.4212 -0.2535
   43CHL1   C22 3164   6.088   0.539   3.762  0.0813  0.6213  0.3227
   43CHL1  H22A 3165   5.984   0.531   3.725  0.4858 -2.2882 -0.4222
   43CHL1  H22B 3166   6.123   0.434   3.771  1.7029  1.0802 -0.1273
   43CHL1   C23 3167   6.089   0.594   3.911 -0.0039  0.0424 -0.1821
   43CHL1  H23A 3168   6.185   0.560   3.955 -0.1439  2.2652  2.0878
   43CHL1  H23B 3169   6.097   0.705   3.917  3.1896 -0.1615  2.4681
   43CHL1   C24 3170   5.967   0.547   3.991  0.0796 -0.1076  0.3383
   43CHL1  H24A 3171   5.878   0.576   3.930  0.5783  1.6423  0.3938
   43CHL1  H24B 3172   5.972   0.436   3.992  3.3786 -0.0492  1.0621
   43CHL1   C25 3173   5.954   0.607   4.133  0.2382 -0.4333  0.6258
   43CHL1   H25 3174   5.933   0.715   4.120  0.5536 -0.2482  1.5476
   43CHL1   C26 3175   5.829   0.561   4.205 -0.4688 -0.2502 -0.1178
   43CHL1  H26A 3176   5.734   0.604   4.165 -1.1943 -0.9963  0.7642
   43CHL1  H26B 3177   5.816   0.450   4.200 -2.5464 -0.0244 -0.7666
   43CHL1  H26C 3178   5.823   0.586   4.313  2.3753 -1.3290  0.3866
   43CHL1   C27 3179   6.079   0.589   4.221  0.5906  0.3668  0.3911
   43CHL1  H27A 3180   6.164   0.641   4.171  1.8485 -1.6421  0.3456
   43CHL1  H27B 3181   6.060   0.636   4.320 -0.3696  0.8321 -0.0003
   43CHL1  H27C 3182   6.116   0.486   4.241  2.0187  0.8232  0.1839
   44CHL1    C3 3183   4.758   6.609   2.485  0.1058 -0.2281 -0.0177
   44CHL1    H3 3184   4.861   6.576   2.510  0.4857  0.1058 -1.1021
   44CHL1    O3 3185   4.737   6.588   2.351  0.3059  0.4287 -0.1619
   44CHL1   H3' 3186   4.646   6.619   2.343 -0.3070 -0.3101  2.8179
   44CHL1    C4 3187   4.661   6.525   2.566  0.2500 -0.0527 -0.1873
   44CHL1   H4A 3188   4.557   6.552   2.538  0.5953 -1.4908 -3.2044
   44CHL1   H4B 3189   4.673   6.418   2.540  1.1900 -0.2733  1.0315
   44CHL1    C5 3190   4.681   6.550   2.718  0.5081  0.0646 -0.1362
   44CHL1    C6 3191   4.711   6.437   2.788  0.3548 -1.3060 -0.2666
   44CHL1    H6 3192   4.697   6.344   2.731 -0.8639 -0.8792 -0.6898
   44CHL1    C7 3193   4.748   6.445   2.937 -0.0551  0.1462  1.0560
   44CHL1   H7A 3194   4.679   6.380   2.995 -0.5568  0.0045  0.3150
   44CHL1   H7B 3195   4.853   6.412   2.949  0.0160 -1.7082 -2.7705
   44CHL1    C8 3196   4.728   6.589   3.001  0.3250 -0.2531 -0.3687
   44CHL1    H8 3197   4.618   6.601   3.013  0.5835  1.2545  0.7723
   44CHL1   C14 3198   4.804   6.586   3.125 -0.6102 -0.3353  0.9539
   44CHL1   H14 3199   4.911   6.572   3.098 -0.1024  1.3631  1.9695
   44CHL1   C15 3200   4.779   6.473   3.226  0.2749  0.0047  0.1732
   44CHL1  H15A 3201   4.672   6.444   3.237  0.4899 -0.1081  2.2026
   44CHL1  H15B 3202   4.835   6.383   3.194 -0.1518  0.1270 -0.9878
   44CHL1   C16 3203   4.842   6.529   3.354  0.0907  0.2765  0.4679
   44CHL1  H16A 3204   4.764   6.530   3.433  0.9560 -0.6723  1.3644
   44CHL1  H16B 3205   4.929   6.474   3.396  0.2488  2.2308  2.9864
   44CHL1   C17 3206   4.871   6.680   3.330 -0.3185  0.6376  0.2598
   44CHL1   H17 3207   4.980   6.690   3.318  0.2174 -2.0475  1.9971
   44CHL1   C13 3208   4.790   6.719   3.202 -0.1976 -0.1388  0.6245
   44CHL1   C18 3209   4.636   6.742   3.228 -0.2946  0.2407  0.4994
   44CHL1  H18A 3210   4.579   6.775   3.139 -0.3049  2.6409  1.3178
   44CHL1  H18B 3211   4.585   6.649   3.261 -2.1673  0.3219 -1.8956
   44CHL1  H18C 3212   4.614   6.825   3.298  1.2642  0.6520  0.5450
   44CHL1   C12 3213   4.857   6.831   3.111  1.5190  0.0800 -0.1068
   44CHL1  H12A 3214   4.841   6.933   3.151  0.3490 -1.1321  2.8255
   44CHL1  H12B 3215   4.966   6.822   3.091  1.3121  1.4905 -2.2224
   44CHL1   C11 3216   4.788   6.835   2.971  0.4172  0.7591  0.0198
   44CHL1  H11A 3217   4.690   6.886   2.985 -0.0422  0.2613 -1.2653
   44CHL1  H11B 3218   4.846   6.901   2.903  0.4410  0.5830 -0.1294
   44CHL1    C9 3219   4.779   6.698   2.903 -0.3825 -0.5091 -0.1299
   44CHL1    H9 3220   4.887   6.680   2.881  0.1370  0.8103  1.1807
   44CHL1   C10 3221   4.706   6.694   2.768 -0.3117  0.2020  0.3293
   44CHL1   C19 3222   4.565   6.745   2.778 -0.2382 -0.1721  0.2322
   44CHL1  H19A 3223   4.572   6.853   2.804  2.2229 -0.1071 -0.4369
   44CHL1  H19B 3224   4.510   6.741   2.681 -0.9263 -2.4545  0.6587
   44CHL1  H19C 3225   4.500   6.714   2.862 -0.0294  1.2225  0.9244
   44CHL1    C1 3226   4.789   6.789   2.661 -0.4156 -0.3739 -0.2689
   44CHL1   H1A 3227   4.784   6.895   2.694  2.1906 -0.0420 -0.7157
   44CHL1   H1B 3228   4.895   6.756   2.660  0.0280  0.8061  1.9335
   44CHL1    C2 3229   4.739   6.764   2.519  0.2820 -0.4541 -0.4576
   44CHL1   H2A 3230   4.814   6.815   2.454  1.2759 -2.4382 -0.9421
   44CHL1   H2B 3231   4.637   6.807   2.506 -0.2116 -1.0679  1.1791
   44CHL1   C20 3232   4.844   6.762   3.456 -0.1786 -0.1253 -0.6906
   44CHL1   H20 3233   4.739   6.739   3.482 -0.7490  4.3315  1.8449
   44CHL1   C21 3234   4.870   6.912   3.434 -0.0679  0.5671 -0.3723
   44CHL1  H21A 3235   4.852   6.969   3.528 -1.2535 -0.0394 -0.2033
   44CHL1  H21B 3236   4.798   6.962   3.366  2.2290  1.2313 -2.4372
   44CHL1  H21C 3237   4.968   6.937   3.390 -0.6596  0.2388 -1.9133
   44CHL1   C22 3238   4.925   6.709   3.582  0.5160  0.0004 -0.6351
   44CHL1  H22A 3239   4.916   6.598   3.583 -0.0314  0.0389 -0.9859
   44CHL1  H22B 3240   5.033   6.732   3.566  0.8820  0.2716  1.8384
   44CHL1   C23 3241   4.875   6.759   3.719 -0.1453  0.4096  0.0619
   44CHL1  H23A 3242   4.836   6.860   3.695  1.5864  0.7686 -1.4662
   44CHL1  H23B 3243   4.786   6.704   3.757  0.5023  0.7056  2.1049
   44CHL1   C24 3244   4.976   6.769   3.827 -0.2716 -0.2187 -0.1434
   44CHL1  H24A 3245   5.065   6.823   3.788 -0.1304 -1.5204 -1.7085
   44CHL1  H24B 3246   4.946   6.837   3.909  2.9204  1.6270 -0.3441
   44CHL1   C25 3247   5.034   6.638   3.874 -0.0829 -0.1290 -0.3912
   44CHL1   H25 3248   5.065   6.579   3.785 -1.7490 -1.0440 -0.4094
   44CHL1   C26 3249   5.146   6.671   3.970 -0.2662  0.2725 -0.5861
   44CHL1  H26A 3250   5.203   6.578   3.989  1.2750  1.3154  0.0764
   44CHL1  H26B 3251   5.212   6.736   3.908  2.1705 -2.7657 -1.4244
   44CHL1  H26C 3252   5.122   6.724   4.064  1.5576  0.7650 -0.3653
   44CHL1   C27 3253   4.925   6.552   3.946  0.3169  0.1354  0.9559
   44CHL1  H27A 3254   4.864   6.619   4.010  1.8646  0.8217  1.7625
   44CHL1  H27B 3255   4.859   6.518   3.864  2.0398  0.5378 -0.6782
   44CHL1  H27C 3256   4.964   6.464   4.001 -2.5440  0.2524  3.3944
   45CHL1    C3 3257   5.193   1.535   2.660  0.4579  0.0678 -0.1226
   45CHL1    H3 3258   5.298   1.504   2.678  0.2885 -0.6176 -0.2868
   45CHL1    O3 3259   5.186   1.570   2.518 -0.1914  0.7136  0.2189
   45CHL1   H3' 3260   5.276   1.548   2.492 -0.2727  1.8413 -1.1196
   45CHL1    C4 3261   5.100   1.417   2.693 -0.1078 -0.2939  0.4778
   45CHL1   H4A 3262   5.001   1.432   2.646 -0.0943 -1.1824  0.1436
   45CHL1   H4B 3263   5.145   1.336   2.631  0.6517  1.4093 -1.3256
   45CHL1    C5 3264   5.088   1.379   2.839  0.2077  0.5637  0.5000
   45CHL1    C6 3265   5.128   1.255   2.882 -0.5576  0.2416  0.3862
   45CHL1    H6 3266   5.151   1.170   2.815 -0.6968  0.6322 -0.1686
   45CHL1    C7 3267   5.115   1.215   3.026  0.1376 -0.2101  0.1600
   45CHL1   H7A 3268   5.069   1.114   3.031 -0.7627  0.2298  1.0678
   45CHL1   H7B 3269   5.216   1.215   3.070  0.2326  0.0182 -0.0534
   45CHL1    C8 3270   5.028   1.316   3.109 -0.3622  0.1609  0.7151
   45CHL1    H8 3271   4.923   1.304   3.078  0.0030 -1.1889 -0.0703
   45CHL1   C14 3272   5.047   1.283   3.254 -0.2459 -0.7259 -0.3617
   45CHL1   H14 3273   5.153   1.305   3.278 -0.5443 -0.9429  1.2569
   45CHL1   C15 3274   5.022   1.141   3.305  0.0399 -0.3430  0.6878
   45CHL1  H15A 3275   4.930   1.103   3.256 -0.2842  1.5329 -0.2651
   45CHL1  H15B 3276   5.102   1.070   3.277 -0.6508  0.0604 -2.7784
   45CHL1   C16 3277   5.010   1.144   3.460  0.3339 -0.0353  0.2712
   45CHL1  H16A 3278   4.921   1.083   3.486  1.7620 -3.1290 -1.4794
   45CHL1  H16B 3279   5.100   1.095   3.503  0.8119  1.0780  0.5752
   45CHL1   C17 3280   5.008   1.295   3.489 -0.7990  0.5508 -0.6544
   45CHL1   H17 3281   5.114   1.320   3.510 -0.7089 -1.0935  1.1025
   45CHL1   C13 3282   4.974   1.368   3.352  1.1917 -0.0357  0.9274
   45CHL1   C18 3283   4.820   1.351   3.328 -0.3845  0.3460 -0.7341
   45CHL1  H18A 3284   4.783   1.362   3.224 -2.3919  0.4853 -0.0457
   45CHL1  H18B 3285   4.795   1.250   3.365 -0.4898  1.1533  1.5198
   45CHL1  H18C 3286   4.767   1.413   3.403 -0.7566  2.7887 -2.8729
   45CHL1   C12 3287   5.021   1.516   3.329 -1.1024 -0.9226 -0.1126
   45CHL1  H12A 3288   4.959   1.583   3.392 -1.3357 -0.8029 -0.4661
   45CHL1  H12B 3289   5.127   1.527   3.362 -0.8708  2.2373 -1.5105
   45CHL1   C11 3290   4.994   1.551   3.179  0.0049 -0.6025  0.3716
   45CHL1  H11A 3291   4.885   1.547   3.157  0.6357 -2.8457 -3.1715
   45CHL1  H11B 3292   5.029   1.656   3.172 -3.1669  0.7397  2.4109
   45CHL1    C9 3293   5.068   1.457   3.079 -0.4559 -0.2839 -0.3080
   45CHL1    H9 3294   5.177   1.459   3.101 -0.3995  1.1742 -0.6464
   45CHL1   C10 3295   5.049   1.490   2.928 -0.5565 -0.0430 -0.4828
   45CHL1   C19 3296   4.903   1.517   2.907  0.1337  0.1601 -0.8158
   45CHL1  H19A 3297   4.872   1.609   2.961  0.8481  0.8423 -1.5527
   45CHL1  H19B 3298   4.888   1.541   2.800  0.7398 -0.3488 -1.0195
   45CHL1  H19C 3299   4.831   1.436   2.932  0.3877  0.1191 -0.2010
   45CHL1    C1 3300   5.147   1.613   2.900 -0.6559  0.2907 -0.2088
   45CHL1   H1A 3301   5.109   1.694   2.966 -1.1955 -0.7742  0.8335
   45CHL1   H1B 3302   5.245   1.579   2.940  0.0378  0.6601 -1.5496
   45CHL1    C2 3303   5.159   1.655   2.754 -0.1125  0.7717  0.7465
   45CHL1   H2A 3304   5.231   1.737   2.736 -0.5751  1.2842  1.1648
   45CHL1   H2B 3305   5.061   1.698   2.723  0.8907  1.0307 -2.3353
   45CHL1   C20 3306   4.945   1.344   3.624  0.1501  0.5356 -0.9498
   45CHL1   H20 3307   4.840   1.371   3.600 -0.2354 -0.8992 -1.0232
   45CHL1   C21 3308   5.030   1.471   3.673  0.9923  0.2371 -0.3072
   45CHL1  H21A 3309   4.967   1.509   3.757  0.2341 -0.4607 -0.5458
   45CHL1  H21B 3310   5.029   1.543   3.589 -0.8743 -0.3045 -0.7960
   45CHL1  H21C 3311   5.130   1.447   3.714  0.6200 -1.1970 -0.1767
   45CHL1   C22 3312   4.938   1.239   3.736  0.4677  0.0819 -0.6042
   45CHL1  H22A 3313   4.896   1.144   3.696 -0.5653 -0.0227  0.6562
   45CHL1  H22B 3314   5.043   1.221   3.768  0.4986  0.2007 -0.6423
   45CHL1   C23 3315   4.852   1.263   3.862  0.2346 -0.3690 -0.4221
   45CHL1  H23A 3316   4.886   1.348   3.925  0.6551 -0.7340 -0.1525
   45CHL1  H23B 3317   4.745   1.289   3.843 -0.1511 -0.3742  1.5298
   45CHL1   C24 3318   4.856   1.132   3.951  0.7947 -0.0275  0.1248
   45CHL1  H24A 3319   4.848   1.037   3.894 -0.2921  0.1915 -0.1025
   45CHL1  H24B 3320   4.961   1.122   3.987  1.3821  0.7315 -1.2860
   45CHL1   C25 3321   4.751   1.127   4.063 -0.2491  0.1852  0.0449
   45CHL1   H25 3322   4.715   1.231   4.081 -0.9881  0.1374 -1.1024
   45CHL1   C26 3323   4.623   1.036   4.027 -0.2602 -0.3562  0.1764
   45CHL1  H26A 3324   4.647   0.930   4.051  0.8323 -0.5650 -1.6412
   45CHL1  H26B 3325   4.536   1.074   4.085  0.4036  0.3685  0.7128
   45CHL1  H26C 3326   4.601   1.048   3.919  0.1011 -1.4208 -0.0250
   45CHL1   C27 3327   4.810   1.069   4.200 -0.1770 -0.0997 -1.0417
   45CHL1  H27A 3328   4.834   0.964   4.173 -0.4145 -0.5775  0.5526
   45CHL1  H27B 3329   4.897   1.130   4.232  0.4029 -1.1576 -0.5484
   45CHL1  H27C 3330   4.737   1.064   4.283  1.8678  3.0236  1.1528
   46CHL1    C3 3331   0.428   2.954   2.519 -0.0341 -0.6000  0.2846
   46CHL1    H3 3332   0.534   2.983   2.537  0.0070 -1.2568  1.1814
   46CHL1    O3 3333   0.413   2.952   2.376  0.0787 -0.0814 -0.4334
   46CHL1   H3' 3334   0.317   2.945   2.364 -0.5477 -0.9831  3.6528
   46CHL1    C4 3335   0.402   2.815   2.576 -0.1804 -0.7884  0.4950
   46CHL1   H4A 3336   0.297   2.786   2.557 -0.5801  1.6797 -1.7313
   46CHL1   H4B 3337   0.459   2.744   2.512  0.9826  1.4352 -1.1044
   46CHL1    C5 3338   0.438   2.811   2.724 -0.4674  0.2463 -0.4361
   46CHL1    C6 3339   0.515   2.714   2.773  0.3734  0.3324 -0.4120
   46CHL1    H6 3340   0.561   2.636   2.711 -1.0528 -0.2211 -0.8131
   46CHL1    C7 3341   0.551   2.710   2.921 -0.4096 -0.2269  0.2998
   46CHL1   H7A 3342   0.534   2.608   2.961 -0.7858 -0.4441 -0.3836
   46CHL1   H7B 3343   0.660   2.724   2.934 -0.9309  1.2562  4.6201
   46CHL1    C8 3344   0.463   2.801   3.008 -0.3115  0.5372  0.0060
   46CHL1    H8 3345   0.362   2.756   3.015 -0.0506  0.0471  0.7681
   46CHL1   C14 3346   0.527   2.812   3.145  0.5869  0.7358 -0.1693
   46CHL1   H14 3347   0.624   2.864   3.125 -0.7657  3.3096 -0.5100
   46CHL1   C15 3348   0.569   2.690   3.225 -0.0587  0.8577  0.1103
   46CHL1  H15A 3349   0.491   2.610   3.230 -0.1766  1.0285  1.1429
   46CHL1  H15B 3350   0.660   2.643   3.182 -0.6091 -0.2887  0.1417
   46CHL1   C16 3351   0.593   2.738   3.369  0.1821  0.1978  0.4739
   46CHL1  H16A 3352   0.533   2.673   3.435  0.3922  1.8473  2.4006
   46CHL1  H16B 3353   0.698   2.723   3.401  0.1982 -0.6938  0.0168
   46CHL1   C17 3354   0.550   2.885   3.366 -0.0434 -0.8909  0.4532
   46CHL1   H17 3355   0.639   2.943   3.336 -1.2099 -0.0404 -1.5749
   46CHL1   C13 3356   0.456   2.900   3.243 -0.5303 -0.5137 -0.0712
   46CHL1   C18 3357   0.316   2.850   3.279 -0.1291  0.1985 -0.1547
   46CHL1  H18A 3358   0.260   2.919   3.347  0.8803  2.1736 -1.2209
   46CHL1  H18B 3359   0.260   2.822   3.187 -2.3362  2.1386  0.4931
   46CHL1  H18C 3360   0.319   2.756   3.338 -5.3959  0.3226  0.8183
   46CHL1   C12 3361   0.461   3.043   3.176 -0.0671  0.2274  0.5341
   46CHL1  H12A 3362   0.398   3.114   3.234  2.0085  1.9111  0.8770
   46CHL1  H12B 3363   0.565   3.079   3.160  0.4569 -2.2021 -2.3055
   46CHL1   C11 3364   0.382   3.039   3.041 -0.1855 -0.0054 -0.0287
   46CHL1  H11A 3365   0.275   3.014   3.060  0.2349 -1.3854  0.6889
   46CHL1  H11B 3366   0.371   3.141   2.998 -2.3499 -0.1720 -0.0058
   46CHL1    C9 3367   0.446   2.940   2.940 -0.0132 -0.6428  0.0401
   46CHL1    H9 3368   0.549   2.977   2.924  2.5869 -4.5934  4.6638
   46CHL1   C10 3369   0.371   2.922   2.804 -0.2827  0.2357  0.3417
   46CHL1   C19 3370   0.227   2.887   2.826 -0.3228 -0.3518  0.2912
   46CHL1  H19A 3371   0.212   2.789   2.876 -1.1891  0.2051  1.1521
   46CHL1  H19B 3372   0.162   2.956   2.883 -0.2122 -0.1247  0.1428
   46CHL1  H19C 3373   0.176   2.862   2.731  0.2480 -3.5553  0.7117
   46CHL1    C1 3374   0.377   3.065   2.735  0.2582  0.2818  0.2519
   46CHL1   H1A 3375   0.316   3.143   2.784 -1.3530  0.9425 -2.6060
   46CHL1   H1B 3376   0.483   3.097   2.747  0.7364 -1.5179  1.3380
   46CHL1    C2 3377   0.338   3.059   2.585  0.1107  0.2423  0.2154
   46CHL1   H2A 3378   0.333   3.156   2.531 -0.7550  0.7388  1.1609
   46CHL1   H2B 3379   0.235   3.017   2.590  0.6942 -1.0362  2.6805
   46CHL1   C20 3380   0.496   2.935   3.501 -0.5114 -0.6797 -0.9998
   46CHL1   H20 3381   0.396   2.891   3.521 -0.2219 -0.7941  0.3011
   46CHL1   C21 3382   0.479   3.097   3.496 -0.2493 -0.1819 -0.3670
   46CHL1  H21A 3383   0.577   3.125   3.450 -1.0534  0.6652 -1.6152
   46CHL1  H21B 3384   0.466   3.140   3.597 -2.8438 -1.3763 -0.1288
   46CHL1  H21C 3385   0.393   3.128   3.433 -0.6822 -1.0501 -0.2139
   46CHL1   C22 3386   0.585   2.901   3.622  0.4501 -0.3955  0.0157
   46CHL1  H22A 3387   0.695   2.904   3.604  0.1448  1.8789 -2.0183
   46CHL1  H22B 3388   0.582   2.983   3.697  2.1743 -2.2597  2.2632
   46CHL1   C23 3389   0.537   2.782   3.707 -0.6252  0.0845 -0.2716
   46CHL1  H23A 3390   0.428   2.772   3.685 -0.4112  1.0767 -1.9270
   46CHL1  H23B 3391   0.592   2.693   3.671  0.2221  0.9516 -1.1470
   46CHL1   C24 3392   0.575   2.800   3.850  0.3035 -0.5334  0.4208
   46CHL1  H24A 3393   0.684   2.805   3.868  0.3291 -0.6729  0.3030
   46CHL1  H24B 3394   0.546   2.898   3.895  3.2865  2.1193 -2.8463
   46CHL1   C25 3395   0.527   2.676   3.930 -0.2304  0.5994  0.2370
   46CHL1   H25 3396   0.571   2.584   3.886  1.1478  2.5221 -2.6884
   46CHL1   C26 3397   0.584   2.690   4.080  0.3517 -0.0209  0.5958
   46CHL1  H26A 3398   0.534   2.618   4.148  0.7197 -0.5912  0.2666
   46CHL1  H26B 3399   0.692   2.666   4.082  0.5025  0.0273 -2.4402
   46CHL1  H26C 3400   0.582   2.798   4.105  0.5112  0.5175 -1.4715
   46CHL1   C27 3401   0.376   2.665   3.937 -0.3516 -0.1137 -0.2688
   46CHL1  H27A 3402   0.338   2.760   3.978 -0.8988 -0.0843 -0.8355
   46CHL1  H27B 3403   0.325   2.656   3.839 -0.5447  1.6316 -0.3464
   46CHL1  H27C 3404   0.351   2.573   3.995  1.1519 -0.6616 -0.4218
   47CHL1    C3 3405   6.399   5.097   2.844 -0.4828 -0.1628  0.6782
   47CHL1    H3 3406   6.471   5.013   2.841 -0.9403 -0.5421 -1.1360
   47CHL1    O3 3407   6.355   5.118   2.708  0.0616 -0.0595 -0.8900
   47CHL1   H3' 3408   6.433   5.127   2.653  0.3844  2.3894 -0.1832
   47CHL1    C4 3409   6.283   5.072   2.937  0.0092 -0.1346 -0.1489
   47CHL1   H4A 3410   6.215   5.160   2.938  0.6908  0.3987  0.0029
   47CHL1   H4B 3411   6.225   4.988   2.893 -1.6415  1.9913 -2.3582
   47CHL1    C5 3412   6.325   5.062   3.079 -0.6139  0.1190 -0.6053
   47CHL1    C6 3413   6.302   4.943   3.142  0.0911 -0.6783  0.7026
   47CHL1    H6 3414   6.249   4.860   3.092 -0.0688 -0.6088  0.7574
   47CHL1    C7 3415   6.330   4.921   3.290 -0.2759  1.0157  0.6592
   47CHL1   H7A 3416   6.247   4.863   3.337  0.4669 -0.6286  0.0261
   47CHL1   H7B 3417   6.413   4.851   3.313 -0.4544  1.2627  2.1778
   47CHL1    C8 3418   6.386   5.048   3.358  1.0341 -0.3436 -0.2759
   47CHL1    H8 3419   6.292   5.101   3.385  0.2422 -1.6345 -0.4014
   47CHL1   C14 3420   6.477   5.017   3.480 -0.5781  0.0417  0.1280
   47CHL1   H14 3421   6.563   4.963   3.436  1.0871  0.7845  2.3136
   47CHL1   C15 3422   6.426   4.914   3.580 -0.1814  0.5805  0.5315
   47CHL1  H15A 3423   6.315   4.918   3.582 -0.1691  2.2755 -0.5223
   47CHL1  H15B 3424   6.464   4.816   3.542  0.7340  1.0485  0.2033
   47CHL1   C16 3425   6.488   4.961   3.717  0.4546 -0.3313  0.4006
   47CHL1  H16A 3426   6.401   4.981   3.783  1.1939  0.2071  1.2426
   47CHL1  H16B 3427   6.537   4.872   3.763  1.2922 -1.0681 -1.8149
   47CHL1   C17 3428   6.586   5.074   3.682  0.0139 -0.2124 -0.2276
   47CHL1   H17 3429   6.683   5.025   3.658  0.6936  0.6986  0.6145
   47CHL1   C13 3430   6.525   5.134   3.553  0.0573 -0.4073  0.6006
   47CHL1   C18 3431   6.395   5.219   3.594 -0.9590 -0.1263  0.1366
   47CHL1  H18A 3432   6.363   5.274   3.502 -2.1293  0.5458  0.9299
   47CHL1  H18B 3433   6.316   5.153   3.632 -0.0993 -0.9415  0.5424
   47CHL1  H18C 3434   6.422   5.299   3.667 -0.0976  0.7107 -1.0436
   47CHL1   C12 3435   6.627   5.206   3.461 -0.7558 -0.2423 -0.2704
   47CHL1  H12A 3436   6.662   5.299   3.510 -0.3215  0.0577 -1.1285
   47CHL1  H12B 3437   6.709   5.135   3.439  0.6274  1.0813  0.4231
   47CHL1   C11 3438   6.563   5.247   3.327  0.3929  0.3082 -0.2639
   47CHL1  H11A 3439   6.490   5.322   3.364  1.4229  1.4857 -0.5744
   47CHL1  H11B 3440   6.643   5.295   3.268  3.7749 -2.1559  1.9123
   47CHL1    C9 3441   6.480   5.131   3.261  0.8598 -0.1568 -0.4053
   47CHL1    H9 3442   6.559   5.058   3.233  1.6864 -0.1544  1.7799
   47CHL1   C10 3443   6.409   5.171   3.134  0.5561 -0.2358 -0.5674
   47CHL1   C19 3444   6.317   5.297   3.170 -0.1929 -0.4676 -0.1173
   47CHL1  H19A 3445   6.249   5.280   3.257 -0.6101  1.2060 -0.0767
   47CHL1  H19B 3446   6.385   5.383   3.186 -1.2690  0.5093 -0.6449
   47CHL1  H19C 3447   6.261   5.331   3.080 -1.4723 -0.1755  0.7565
   47CHL1    C1 3448   6.525   5.205   3.026  0.0817  0.3674 -0.3451
   47CHL1   H1A 3449   6.582   5.299   3.046  2.0006 -0.6665 -0.7663
   47CHL1   H1B 3450   6.593   5.118   3.023  1.4295  1.3187  1.3704
   47CHL1    C2 3451   6.473   5.224   2.886 -0.6349  0.2052  0.3560
   47CHL1   H2A 3452   6.560   5.246   2.821 -2.1836 -0.9760 -2.2611
   47CHL1   H2B 3453   6.408   5.314   2.884  1.7452  1.9986 -0.6133
   47CHL1   C20 3454   6.628   5.175   3.786  0.3819 -0.2789 -0.3221
   47CHL1   H20 3455   6.633   5.268   3.724 -1.4216 -0.3583 -0.6457
   47CHL1   C21 3456   6.776   5.147   3.830 -0.6112  0.3253 -0.9556
   47CHL1  H21A 3457   6.831   5.142   3.734 -0.2374 -0.3885 -0.7109
   47CHL1  H21B 3458   6.790   5.049   3.882  1.6547  0.0736 -1.9507
   47CHL1  H21C 3459   6.813   5.228   3.896 -0.6361 -1.2905  1.1660
   47CHL1   C22 3460   6.531   5.186   3.899  0.6609  0.7552 -0.5586
   47CHL1  H22A 3461   6.425   5.179   3.865  0.6724 -2.7027 -0.2482
   47CHL1  H22B 3462   6.541   5.099   3.968 -2.0051 -0.0131 -1.0410
   47CHL1   C23 3463   6.559   5.310   3.983 -0.1617  0.0290  0.2665
   47CHL1  H23A 3464   6.662   5.340   4.010 -0.7326  2.2647  0.1692
   47CHL1  H23B 3465   6.525   5.395   3.920 -2.4840 -1.0186 -0.0204
   47CHL1   C24 3466   6.486   5.320   4.122  0.3700 -0.3646  0.7863
   47CHL1  H24A 3467   6.548   5.266   4.198 -0.2287  2.3958  3.4750
   47CHL1  H24B 3468   6.492   5.425   4.158 -3.5088  0.1539  0.3260
   47CHL1   C25 3469   6.339   5.276   4.115 -0.1815 -0.0341  0.5345
   47CHL1   H25 3470   6.332   5.176   4.068 -1.9571 -0.5430  1.7655
   47CHL1   C26 3471   6.289   5.271   4.255  0.3386 -0.9614  0.3166
   47CHL1  H26A 3472   6.361   5.228   4.328  2.2206  0.3012 -0.7238
   47CHL1  H26B 3473   6.267   5.377   4.281  0.5079 -0.0529 -2.9161
   47CHL1  H26C 3474   6.199   5.206   4.252  0.0518 -0.5634  0.2843
   47CHL1   C27 3475   6.265   5.373   4.026 -0.1213  0.4254  0.2543
   47CHL1  H27A 3476   6.159   5.340   4.023  0.1920 -0.5588 -0.2898
   47CHL1  H27B 3477   6.259   5.476   4.067  2.2463  1.2627 -1.3188
   47CHL1  H27C 3478   6.305   5.382   3.924 -1.5699 -1.7423 -0.5888
   48CHL1    C3 3479   1.485   2.064   2.782 -0.3820  0.2113 -1.1315
   48CHL1    H3 3480   1.578   2.013   2.813 -0.3704  1.3220  0.7988
   48CHL1    O3 3481   1.475   2.093   2.644 -0.1391  0.3940  0.6083
   48CHL1   H3' 3482   1.398   2.149   2.632 -1.4746 -1.7073 -1.7189
   48CHL1    C4 3483   1.360   1.971   2.825 -0.1732 -0.0990  0.3477
   48CHL1   H4A 3484   1.267   2.018   2.786 -1.0388 -1.8816  0.1360
   48CHL1   H4B 3485   1.378   1.873   2.775 -0.9714  0.2080 -0.5669
   48CHL1    C5 3486   1.356   1.955   2.976 -0.2394 -0.0130  0.1556
   48CHL1    C6 3487   1.351   1.832   3.035 -1.0127 -0.2586  0.9909
   48CHL1    H6 3488   1.357   1.745   2.969 -1.6872 -1.1120  2.0271
   48CHL1    C7 3489   1.346   1.807   3.186  0.7566 -0.2553 -0.3794
   48CHL1   H7A 3490   1.273   1.726   3.207  2.2282 -1.5958 -0.2195
   48CHL1   H7B 3491   1.443   1.773   3.229  0.8143  0.3360 -0.0267
   48CHL1    C8 3492   1.301   1.934   3.265  0.1405 -0.0381 -0.1295
   48CHL1    H8 3493   1.193   1.943   3.242  0.4096 -0.1567 -1.5654
   48CHL1   C14 3494   1.334   1.919   3.413 -0.0074  0.3751 -0.6279
   48CHL1   H14 3495   1.445   1.912   3.422  0.1028  2.3030  0.0263
   48CHL1   C15 3496   1.291   1.796   3.494 -0.1659 -0.1829  0.1958
   48CHL1  H15A 3497   1.187   1.764   3.474 -0.3061 -0.8398  1.8463
   48CHL1  H15B 3498   1.357   1.707   3.487  0.9185  0.4080  2.1722
   48CHL1   C16 3499   1.303   1.843   3.643  0.2324 -0.2345 -0.0262
   48CHL1  H16A 3500   1.218   1.799   3.699 -0.5204 -1.5355 -2.0438
   48CHL1  H16B 3501   1.388   1.794   3.696  0.1480  2.5572  2.9769
   48CHL1   C17 3502   1.328   1.998   3.641  0.1414 -0.0438  0.3691
   48CHL1   H17 3503   1.439   1.996   3.644  0.1382  0.3115  1.4572
   48CHL1   C13 3504   1.296   2.042   3.502 -0.2599 -0.3751 -0.7225
   48CHL1   C18 3505   1.148   2.062   3.491  0.6567  0.0206  0.7631
   48CHL1  H18A 3506   1.093   1.973   3.528  0.8398  0.0046  1.0005
   48CHL1  H18B 3507   1.102   2.144   3.551  0.5197 -0.4094  1.2543
   48CHL1  H18C 3508   1.111   2.070   3.387 -1.4434 -2.0504  1.2747
   48CHL1   C12 3509   1.369   2.165   3.453  0.0094 -0.1740  0.8524
   48CHL1  H12A 3510   1.325   2.258   3.494  0.6543  0.5975 -0.1686
   48CHL1  H12B 3511   1.477   2.171   3.479 -0.1961  2.9560  1.3066
   48CHL1   C11 3512   1.352   2.186   3.297 -0.3973 -0.5775 -0.1750
   48CHL1  H11A 3513   1.251   2.230   3.282 -0.5276 -0.6447  0.4527
   48CHL1  H11B 3514   1.425   2.262   3.263  1.3920 -2.7507 -1.4722
   48CHL1    C9 3515   1.373   2.061   3.209  0.0646  0.5901  0.3769
   48CHL1    H9 3516   1.481   2.035   3.213  0.0941  0.2423 -1.5486
   48CHL1   C10 3517   1.359   2.086   3.055 -0.0020  0.0253 -0.9578
   48CHL1   C19 3518   1.236   2.172   3.030  0.1939  1.6013 -0.9205
   48CHL1  H19A 3519   1.249   2.274   3.071  0.7650  0.5364  1.8106
   48CHL1  H19B 3520   1.190   2.168   2.929  1.0330  0.6007 -1.2849
   48CHL1  H19C 3521   1.159   2.116   3.086  1.6215  0.5401  0.0613
   48CHL1    C1 3522   1.481   2.168   3.002  0.3929 -0.0498 -0.5775
   48CHL1   H1A 3523   1.477   2.264   3.058 -1.9810 -0.5877  0.3018
   48CHL1   H1B 3524   1.577   2.122   3.032 -0.3438 -0.8557  0.6374
   48CHL1    C2 3525   1.481   2.197   2.858 -0.0778  0.3707 -0.7338
   48CHL1   H2A 3526   1.574   2.248   2.825  1.7152 -1.3666  1.2685
   48CHL1   H2B 3527   1.397   2.261   2.827 -1.9887 -2.1219 -1.0508
   48CHL1   C20 3528   1.266   2.066   3.766  0.1023 -0.0644 -0.8331
   48CHL1   H20 3529   1.156   2.058   3.758 -0.8682  1.0296  5.7899
   48CHL1   C21 3530   1.293   2.214   3.762  0.8373  0.5272  0.5035
   48CHL1  H21A 3531   1.225   2.258   3.686  0.2382  0.3170  0.9058
   48CHL1  H21B 3532   1.392   2.241   3.720  0.0428  0.6386 -1.3841
   48CHL1  H21C 3533   1.276   2.264   3.860 -2.7417  0.3997  0.0835
   48CHL1   C22 3534   1.322   1.998   3.894 -0.0432  0.1862  0.6355
   48CHL1  H22A 3535   1.284   2.043   3.988 -1.0233  0.2022  0.2506
   48CHL1  H22B 3536   1.290   1.892   3.885 -0.7556  0.5678 -2.2010
   48CHL1   C23 3537   1.482   1.996   3.897 -0.1792 -0.2241  0.2814
   48CHL1  H23A 3538   1.517   1.936   3.810  0.5830 -1.6696  1.5267
   48CHL1  H23B 3539   1.527   2.097   3.894  1.0996 -0.7466  0.9401
   48CHL1   C24 3540   1.535   1.936   4.034  0.4441 -0.3647 -0.3632
   48CHL1  H24A 3541   1.480   1.984   4.118 -0.9851 -3.3475  0.5455
   48CHL1  H24B 3542   1.483   1.838   4.029  1.0765 -0.7643  0.7874
   48CHL1   C25 3543   1.693   1.920   4.040  0.6959 -0.0941 -0.2901
   48CHL1   H25 3544   1.740   2.017   4.013  1.1858  0.0003  0.8438
   48CHL1   C26 3545   1.742   1.887   4.181  0.0129  0.2415  0.1565
   48CHL1  H26A 3546   1.830   1.953   4.197 -0.1546  0.4480  0.2172
   48CHL1  H26B 3547   1.664   1.907   4.257 -1.1210  0.1630 -0.9569
   48CHL1  H26C 3548   1.782   1.784   4.193 -0.2530  0.2217  0.9519
   48CHL1   C27 3549   1.739   1.802   3.946  0.0243 -0.4508  0.0524
   48CHL1  H27A 3550   1.848   1.782   3.955  0.7751  1.4206 -3.3032
   48CHL1  H27B 3551   1.678   1.710   3.961 -0.5854 -0.1409 -0.4681
   48CHL1  H27C 3552   1.719   1.831   3.841 -0.7132  2.0390  0.8071
   49CHL1    C3 3553   5.246   3.824   2.509 -0.0804  0.7463  0.1569
   49CHL1    H3 3554   5.356   3.830   2.523 -0.1790 -1.0375  2.1636
   49CHL1    O3 3555   5.220   3.844   2.371 -0.1703 -0.3802  0.2316
   49CHL1   H3' 3556   5.236   3.939   2.365  0.6605 -0.5784 -0.7609
   49CHL1    C4 3557   5.186   3.698   2.561 -0.2102  0.2303 -0.0383
   49CHL1   H4A 3558   5.077   3.692   2.540 -0.5108 -1.1704  1.6648
   49CHL1   H4B 3559   5.228   3.611   2.508 -1.0980 -0.0962 -0.2240
   49CHL1    C5 3560   5.212   3.691   2.709  0.3180  0.4563  0.0969
   49CHL1    C6 3561   5.273   3.581   2.762 -0.2485 -0.3799 -0.3968
   49CHL1    H6 3562   5.292   3.497   2.693  0.4727 -0.7213  0.2009
   49CHL1    C7 3563   5.300   3.564   2.909 -0.5256  0.1107  0.6266
   49CHL1   H7A 3564   5.303   3.456   2.937  0.0743  0.2875  1.2642
   49CHL1   H7B 3565   5.406   3.595   2.915 -0.5394  0.0076  1.5359
   49CHL1    C8 3566   5.224   3.657   2.994  0.3322  0.8478 -0.3234
   49CHL1    H8 3567   5.116   3.629   3.000 -0.5009  3.3547 -1.7875
   49CHL1   C14 3568   5.285   3.660   3.134 -0.3552  0.2650 -0.7050
   49CHL1   H14 3569   5.385   3.707   3.126 -0.9446  2.0240  1.2108
   49CHL1   C15 3570   5.321   3.529   3.206 -0.0422  0.0727 -0.1257
   49CHL1  H15A 3571   5.244   3.450   3.191  0.3076  0.1693 -3.0599
   49CHL1  H15B 3572   5.409   3.475   3.166 -1.1150 -1.6708 -0.2811
   49CHL1   C16 3573   5.343   3.569   3.351 -0.1329 -0.6827 -0.3678
   49CHL1  H16A 3574   5.263   3.511   3.402  0.8273 -0.6867  1.1875
   49CHL1  H16B 3575   5.432   3.547   3.413 -2.0847 -1.1385  2.4542
   49CHL1   C17 3576   5.308   3.725   3.364  0.2056 -0.3872 -0.0813
   49CHL1   H17 3577   5.400   3.787   3.354  0.4507 -0.6000  0.7479
   49CHL1   C13 3578   5.215   3.743   3.238 -0.0673  0.1612 -0.2852
   49CHL1   C18 3579   5.073   3.678   3.267 -0.2348  0.0743  0.2204
   49CHL1  H18A 3580   5.022   3.651   3.172  0.6500 -1.8508  0.2435
   49CHL1  H18B 3581   5.083   3.588   3.331  3.1686 -0.2592 -0.5826
   49CHL1  H18C 3582   5.008   3.747   3.324  0.7755 -1.2364  3.1636
   49CHL1   C12 3583   5.203   3.886   3.183  0.1191 -0.5168 -0.3199
   49CHL1  H12A 3584   5.139   3.952   3.246 -0.3514  1.0645 -2.3582
   49CHL1  H12B 3585   5.304   3.928   3.163 -0.3562  0.8163 -0.0402
   49CHL1   C11 3586   5.130   3.881   3.044 -0.5069 -0.4370  0.2720
   49CHL1  H11A 3587   5.027   3.845   3.061 -0.8794 -0.3862 -1.6152
   49CHL1  H11B 3588   5.117   3.986   3.010  1.6954 -0.8296 -2.1524
   49CHL1    C9 3589   5.218   3.802   2.943  0.5169  0.1307  0.8206
   49CHL1    H9 3590   5.324   3.835   2.937  0.7022 -0.1598  2.0829
   49CHL1   C10 3591   5.167   3.807   2.797  0.0797  0.7077 -0.1715
   49CHL1   C19 3592   5.009   3.790   2.806 -0.0629  0.1138 -0.2690
   49CHL1  H19A 3593   4.988   3.692   2.853  2.1712 -1.2744 -1.9683
   49CHL1  H19B 3594   4.953   3.877   2.847 -1.3581 -0.9657  0.2900
   49CHL1  H19C 3595   4.974   3.777   2.702  1.0284 -0.5396 -0.5679
   49CHL1    C1 3596   5.204   3.944   2.733  0.2692 -0.2086 -0.7575
   49CHL1   H1A 3597   5.149   4.023   2.788  1.7494 -1.1043  2.2508
   49CHL1   H1B 3598   5.306   3.979   2.761 -0.8183  1.3089  1.6362
   49CHL1    C2 3599   5.186   3.949   2.585  0.3700 -0.5840 -0.9772
   49CHL1   H2A 3600   5.218   4.050   2.553 -1.6548  0.1392 -0.8291
   49CHL1   H2B 3601   5.076   3.936   2.578  0.1983 -0.3796  0.8631
   49CHL1   C20 3602   5.250   3.759   3.502  0.0238 -0.3411 -0.1956
   49CHL1   H20 3603   5.175   3.682   3.530 -0.5873 -0.7143 -2.6315
   49CHL1   C21 3604   5.182   3.898   3.506 -0.6787  0.5483 -0.2915
   49CHL1  H21A 3605   5.235   3.981   3.454 -0.6107  0.2938 -0.6351
   49CHL1  H21B 3606   5.169   3.935   3.610 -1.0449 -0.5882  0.0797
   49CHL1  H21C 3607   5.081   3.883   3.464 -0.1056 -1.8961 -0.9570
   49CHL1   C22 3608   5.346   3.751   3.613  0.5109  0.1015 -0.3278
   49CHL1  H22A 3609   5.438   3.701   3.578 -0.1891 -1.5688  0.1177
   49CHL1  H22B 3610   5.369   3.850   3.658  0.9158 -1.0640  2.2062
   49CHL1   C23 3611   5.294   3.669   3.736  0.0344  0.0037 -0.2142
   49CHL1  H23A 3612   5.195   3.703   3.775 -0.1062  0.9807 -1.3675
   49CHL1  H23B 3613   5.292   3.558   3.725  0.5022  0.0626 -1.0108
   49CHL1   C24 3614   5.388   3.682   3.863  0.4042 -0.3410  0.5593
   49CHL1  H24A 3615   5.490   3.644   3.839 -0.4936 -2.8083  0.3474
   49CHL1  H24B 3616   5.398   3.789   3.890 -2.4956  0.8838 -2.5875
   49CHL1   C25 3617   5.339   3.605   3.985  0.5589  0.4935 -0.2568
   49CHL1   H25 3618   5.313   3.505   3.945  1.2161  1.0120 -2.0524
   49CHL1   C26 3619   5.459   3.581   4.088 -0.2808  0.1087  0.4992
   49CHL1  H26A 3620   5.416   3.538   4.181  0.4618 -2.8227 -0.4072
   49CHL1  H26B 3621   5.516   3.504   4.032 -0.2271  0.4375  0.1013
   49CHL1  H26C 3622   5.516   3.672   4.118  0.3704 -0.1599  0.1005
   49CHL1   C27 3623   5.226   3.679   4.055 -0.1714  0.6926  0.0180
   49CHL1  H27A 3624   5.196   3.613   4.139  1.4592 -1.4021 -0.9465
   49CHL1  H27B 3625   5.254   3.784   4.082 -0.8272  1.5359 -2.3512
   49CHL1  H27C 3626   5.142   3.690   3.983 -1.0980 -0.0390  0.9683
   50CHL1    C3 3627   1.686   3.926   2.718 -0.1649 -0.3485  0.5562
   50CHL1    H3 3628   1.788   3.956   2.749 -0.8776  1.8287  0.9859
   50CHL1    O3 3629   1.693   3.926   2.577 -0.3441 -0.0441 -0.2826
   50CHL1   H3' 3630   1.636   3.859   2.539 -2.0805  1.0101  0.3499
   50CHL1    C4 3631   1.664   3.786   2.769 -0.1428  0.2307 -0.2592
   50CHL1   H4A 3632   1.570   3.732   2.747 -0.0097 -0.5397  0.9908
   50CHL1   H4B 3633   1.732   3.713   2.721 -1.1472 -0.9163  0.0266
   50CHL1    C5 3634   1.675   3.777   2.918  0.4410  0.6927 -0.2066
   50CHL1    C6 3635   1.765   3.700   2.983 -0.2524  0.4178 -0.2466
   50CHL1    H6 3636   1.836   3.636   2.930  0.1240 -0.2735  1.0627
   50CHL1    C7 3637   1.769   3.692   3.133  0.0205  0.5713  0.3066
   50CHL1   H7A 3638   1.791   3.592   3.176  0.4752  0.7525  0.4957
   50CHL1   H7B 3639   1.849   3.759   3.171  2.0868 -1.0035 -1.0223
   50CHL1    C8 3640   1.637   3.739   3.199 -0.1742  0.3680 -0.4708
   50CHL1    H8 3641   1.560   3.664   3.172 -1.2351  0.6168  1.6551
   50CHL1   C14 3642   1.653   3.744   3.346  0.3841 -1.3428  0.0948
   50CHL1   H14 3643   1.738   3.814   3.362 -0.5256 -0.2725  0.3427
   50CHL1   C15 3644   1.693   3.615   3.415 -0.0740 -0.8060 -0.6883
   50CHL1  H15A 3645   1.641   3.518   3.400  1.8943 -1.8570 -1.0381
   50CHL1  H15B 3646   1.800   3.597   3.391 -0.9126 -2.7150 -3.4180
   50CHL1   C16 3647   1.689   3.662   3.562 -0.3574 -0.4851 -0.4560
   50CHL1  H16A 3648   1.653   3.594   3.642 -1.0498  1.0620  0.5843
   50CHL1  H16B 3649   1.782   3.700   3.609 -0.3235 -1.1829  0.0616
   50CHL1   C17 3650   1.593   3.792   3.568  0.3868  0.0716  0.8562
   50CHL1   H17 3651   1.661   3.880   3.559  0.6239 -0.1282  0.6672
   50CHL1   C13 3652   1.534   3.800   3.419 -0.3467  0.6721 -0.5948
   50CHL1   C18 3653   1.413   3.702   3.406 -0.3613  0.2360  0.9665
   50CHL1  H18A 3654   1.442   3.611   3.462 -2.2710 -0.6957  0.5159
   50CHL1  H18B 3655   1.321   3.734   3.461 -0.6964 -0.2161  0.6703
   50CHL1  H18C 3656   1.381   3.677   3.303 -3.9474  0.9922  1.7486
   50CHL1   C12 3657   1.504   3.937   3.363 -0.6268 -0.7170 -0.2318
   50CHL1  H12A 3658   1.417   3.975   3.421 -1.0136  0.4846 -1.5129
   50CHL1  H12B 3659   1.590   4.006   3.378 -0.8506 -0.7259  1.1666
   50CHL1   C11 3660   1.474   3.935   3.215 -0.0733 -0.5371  0.2177
   50CHL1  H11A 3661   1.371   3.895   3.208 -0.5758  0.9760 -2.2620
   50CHL1  H11B 3662   1.463   4.042   3.187 -0.3519 -0.4440  0.6889
   50CHL1    C9 3663   1.589   3.873   3.140 -0.5785  0.3561  1.1296
   50CHL1    H9 3664   1.667   3.951   3.157  0.0304  0.1169 -0.4461
   50CHL1   C10 3665   1.568   3.864   2.983 -0.3106 -0.1038  0.3387
   50CHL1   C19 3666   1.423   3.810   2.961  0.2790 -1.3024 -0.7532
   50CHL1  H19A 3667   1.350   3.886   2.996  2.5885  1.1453 -0.8662
   50CHL1  H19B 3668   1.397   3.801   2.854 -2.7041 -1.5487 -0.0928
   50CHL1  H19C 3669   1.411   3.711   3.010 -0.7135 -0.2770  1.1930
   50CHL1    C1 3670   1.578   4.015   2.930 -0.0683  0.2324 -0.8510
   50CHL1   H1A 3671   1.486   4.066   2.963 -0.4029 -1.0634  0.2854
   50CHL1   H1B 3672   1.670   4.063   2.971 -0.3245 -0.7526  0.9644
   50CHL1    C2 3673   1.586   4.023   2.781 -0.0280 -0.4298 -0.4262
   50CHL1   H2A 3674   1.606   4.126   2.746 -0.7774  1.2160  3.4978
   50CHL1   H2B 3675   1.490   3.996   2.730 -0.9542  1.2415  0.3466
   50CHL1   C20 3676   1.506   3.798   3.688 -0.4604 -0.3670  0.8492
   50CHL1   H20 3677   1.444   3.707   3.702 -1.3278  0.3102  1.5232
   50CHL1   C21 3678   1.410   3.915   3.687 -0.5736  0.1153 -0.4689
   50CHL1  H21A 3679   1.459   4.012   3.661  0.5565  0.1838  1.6605
   50CHL1  H21B 3680   1.350   3.919   3.780  0.0925 -0.2076 -0.0117
   50CHL1  H21C 3681   1.330   3.904   3.611 -2.3323 -0.1687  1.3496
   50CHL1   C22 3682   1.590   3.808   3.822 -0.1517 -0.4184  0.6504
   50CHL1  H22A 3683   1.514   3.834   3.898  0.5572 -1.4521  1.7451
   50CHL1  H22B 3684   1.639   3.711   3.848 -0.5009 -0.9376 -0.5522
   50CHL1   C23 3685   1.697   3.918   3.829 -0.2488 -0.4091 -0.6536
   50CHL1  H23A 3686   1.788   3.877   3.780  0.1788  0.2065 -0.3810
   50CHL1  H23B 3687   1.662   4.016   3.790  2.8000  0.5243 -1.3271
   50CHL1   C24 3688   1.742   3.937   3.976  0.8224  0.1697 -0.5109
   50CHL1  H24A 3689   1.824   4.012   3.964  0.1968  0.5067 -3.1436
   50CHL1  H24B 3690   1.658   3.978   4.036  0.6887 -0.7417 -0.0536
   50CHL1   C25 3691   1.794   3.810   4.048  0.0971  0.1114 -0.1410
   50CHL1   H25 3692   1.711   3.736   4.046 -1.3827  1.7056 -0.2901
   50CHL1   C26 3693   1.915   3.750   3.982 -0.0294  0.6353  0.6255
   50CHL1  H26A 3694   2.008   3.810   3.994  2.0890 -2.3224  0.0058
   50CHL1  H26B 3695   1.922   3.646   4.020  1.6324 -0.3922 -2.1402
   50CHL1  H26C 3696   1.892   3.740   3.874 -0.1059  0.1984  0.6790
   50CHL1   C27 3697   1.818   3.846   4.193  0.4715  0.1086  0.1639
   50CHL1  H27A 3698   1.855   3.755   4.246  1.2065  0.3290  0.0425
   50CHL1  H27B 3699   1.899   3.923   4.199 -0.4626  1.1079  0.2443
   50CHL1  H27C 3700   1.729   3.875   4.253  0.3232 -0.4856  0.2430
   51CHL1    C3 3701   2.786   4.531   2.090 -0.3319 -0.3088 -0.1624
   51CHL1    H3 3702   2.729   4.625   2.111  0.1152  0.0953 -0.7154
   51CHL1    O3 3703   2.813   4.530   1.956  0.3829 -0.5896 -0.6697
   51CHL1   H3' 3704   2.728   4.519   1.913  1.2644 -1.5708 -2.2533
   51CHL1    C4 3705   2.917   4.527   2.174  0.6751  0.5062 -0.4387
   51CHL1   H4A 3706   2.975   4.439   2.139  2.3676  1.5760 -0.3820
   51CHL1   H4B 3707   2.974   4.619   2.150  1.4825  0.1830  0.1810
   51CHL1    C5 3708   2.887   4.514   2.328  0.1401  0.1495  1.0613
   51CHL1    C6 3709   2.919   4.616   2.409 -0.0208  0.4702 -0.7409
   51CHL1    H6 3710   2.981   4.693   2.363 -0.6621  0.5988 -1.4143
   51CHL1    C7 3711   2.900   4.606   2.562 -0.1614  0.0091  0.6862
   51CHL1   H7A 3712   2.986   4.638   2.623 -1.0237  2.4991  0.6862
   51CHL1   H7B 3713   2.817   4.677   2.583 -0.3722  0.0049 -0.1027
   51CHL1    C8 3714   2.857   4.469   2.616  0.7922  0.2220  0.0672
   51CHL1    H8 3715   2.942   4.397   2.616  0.6127 -0.0002 -0.6279
   51CHL1   C14 3716   2.819   4.472   2.764 -0.0993  0.4343 -0.1232
   51CHL1   H14 3717   2.728   4.536   2.767 -1.7740 -1.7007 -1.2162
   51CHL1   C15 3718   2.925   4.517   2.874  0.7364  0.3942 -0.0415
   51CHL1  H15A 3719   3.027   4.480   2.851 -0.1386 -1.4817 -1.2138
   51CHL1  H15B 3720   2.918   4.626   2.854 -0.0917  0.2502 -0.5769
   51CHL1   C16 3721   2.870   4.450   3.001  0.2690 -0.0166  0.5456
   51CHL1  H16A 3722   2.948   4.393   3.057 -1.1162 -1.7097  0.8536
   51CHL1  H16B 3723   2.826   4.522   3.073  3.9101 -0.0343  3.0324
   51CHL1   C17 3724   2.744   4.363   2.963  0.6496 -1.1561 -0.0006
   51CHL1   H17 3725   2.662   4.438   2.965  0.7037 -0.9630 -2.2235
   51CHL1   C13 3726   2.768   4.337   2.810  0.2258  0.8232 -0.1582
   51CHL1   C18 3727   2.883   4.225   2.807 -0.3980  0.7105 -0.2572
   51CHL1  H18A 3728   2.840   4.126   2.835  0.1662  0.8479  1.2258
   51CHL1  H18B 3729   2.926   4.216   2.705 -3.3887  0.7868 -1.6282
   51CHL1  H18C 3730   2.960   4.246   2.884  0.6561 -1.1050 -0.7563
   51CHL1   C12 3731   2.650   4.303   2.721  0.7316  0.7051 -1.0997
   51CHL1  H12A 3732   2.604   4.207   2.753 -1.1470  1.7582 -0.4766
   51CHL1  H12B 3733   2.578   4.387   2.730  0.8856  0.6960  0.7354
   51CHL1   C11 3734   2.692   4.287   2.577  0.0834  0.1594  0.1269
   51CHL1  H11A 3735   2.766   4.205   2.570  1.4197  1.4038 -0.7065
   51CHL1  H11B 3736   2.604   4.258   2.516 -1.1199  1.3719  1.1989
   51CHL1    C9 3737   2.754   4.412   2.520 -0.3055  0.7583  1.0742
   51CHL1    H9 3738   2.670   4.485   2.525 -0.0075  1.0245  2.4068
   51CHL1   C10 3739   2.801   4.394   2.376  0.2638 -0.1965  0.0945
   51CHL1   C19 3740   2.894   4.270   2.369  0.1564 -0.4047  0.8206
   51CHL1  H19A 3741   2.975   4.274   2.293 -0.8404 -1.1872 -0.3212
   51CHL1  H19B 3742   2.948   4.265   2.467  1.6271  1.4529  0.1594
   51CHL1  H19C 3743   2.842   4.173   2.352  2.8522 -1.7497 -0.3836
   51CHL1    C1 3744   2.676   4.388   2.279  0.2652 -0.5984  0.1712
   51CHL1   H1A 3745   2.616   4.296   2.298  1.7099 -1.6311 -0.0711
   51CHL1   H1B 3746   2.612   4.475   2.306 -1.6244 -1.8275 -0.1801
   51CHL1    C2 3747   2.699   4.411   2.124 -0.2241 -0.2236  0.2035
   51CHL1   H2A 3748   2.595   4.411   2.085 -1.0800  0.4665  2.3140
   51CHL1   H2B 3749   2.747   4.323   2.077  1.8404  0.5072  0.8057
   51CHL1   C20 3750   2.713   4.246   3.065  0.5943  0.1829  0.2679
   51CHL1   H20 3751   2.781   4.161   3.043 -1.3218 -1.0104 -1.3436
   51CHL1   C21 3752   2.566   4.209   3.037  0.3019  0.0911 -0.2640
   51CHL1  H21A 3753   2.543   4.157   2.942 -0.4923 -2.4277  1.1944
   51CHL1  H21B 3754   2.507   4.303   3.035  0.2398  0.0590 -0.0627
   51CHL1  H21C 3755   2.529   4.135   3.112  1.0846 -0.1840 -0.1390
   51CHL1   C22 3756   2.733   4.291   3.210 -0.1903  0.0003  0.1535
   51CHL1  H22A 3757   2.827   4.346   3.231 -0.2174  0.1799 -0.1913
   51CHL1  H22B 3758   2.648   4.360   3.227 -0.3532 -0.5626  1.7668
   51CHL1   C23 3759   2.745   4.171   3.302  0.9141 -0.0576 -0.3839
   51CHL1  H23A 3760   2.672   4.090   3.278 -1.7088  2.3797 -1.2806
   51CHL1  H23B 3761   2.847   4.132   3.286  1.2178  0.9271 -0.9488
   51CHL1   C24 3762   2.728   4.199   3.452  0.5103 -0.0191  0.0452
   51CHL1  H24A 3763   2.739   4.105   3.511  1.0972  0.7487  1.1931
   51CHL1  H24B 3764   2.816   4.258   3.484  1.2940  0.2763 -2.5103
   51CHL1   C25 3765   2.592   4.245   3.498  0.1323 -0.3320 -1.0183
   51CHL1   H25 3766   2.556   4.331   3.437  0.0795  0.3559 -0.0437
   51CHL1   C26 3767   2.492   4.131   3.499  0.6929  0.2648 -0.2700
   51CHL1  H26A 3768   2.463   4.096   3.397 -0.5102 -1.8219  0.7374
   51CHL1  H26B 3769   2.521   4.042   3.559 -0.4023 -1.6808 -2.4526
   51CHL1  H26C 3770   2.396   4.169   3.539  1.0143 -1.0637  1.8944
   51CHL1   C27 3771   2.593   4.309   3.638  0.2473  0.5927 -0.5017
   51CHL1  H27A 3772   2.485   4.318   3.663  0.0819 -0.5680 -0.7747
   51CHL1  H27B 3773   2.640   4.252   3.721  1.0577  2.1922  0.1905
   51CHL1  H27C 3774   2.639   4.410   3.636 -0.3363  0.8846  0.1458
   52CHL1    C3 3775   5.692   5.257   2.612  0.9758  0.2620 -0.7659
   52CHL1    H3 3776   5.582   5.264   2.624  0.9435 -0.1934 -0.7935
   52CHL1    O3 3777   5.731   5.250   2.479  0.2911 -0.4548  0.3746
   52CHL1   H3' 3778   5.810   5.305   2.473 -0.0127  0.0411  0.7589
   52CHL1    C4 3779   5.757   5.380   2.688 -0.1294  0.6095 -0.4727
   52CHL1   H4A 3780   5.866   5.362   2.675  0.0683 -0.0991  1.7268
   52CHL1   H4B 3781   5.727   5.478   2.645  0.2155  0.1949 -1.7168
   52CHL1    C5 3782   5.728   5.372   2.832  0.1782 -0.0834  0.0856
   52CHL1    C6 3783   5.672   5.474   2.899 -0.1721  0.2100  0.4809
   52CHL1    H6 3784   5.647   5.564   2.842 -0.8642 -0.1731  0.1615
   52CHL1    C7 3785   5.653   5.487   3.050 -0.4966 -0.1069  0.0293
   52CHL1   H7A 3786   5.710   5.577   3.084  0.3185 -0.6734  0.1778
   52CHL1   H7B 3787   5.547   5.492   3.081 -0.0922 -2.7138  2.1834
   52CHL1    C8 3788   5.725   5.368   3.130  0.3600  0.2016 -0.1658
   52CHL1    H8 3789   5.835   5.384   3.124  0.2679  0.7460 -0.5120
   52CHL1   C14 3790   5.671   5.372   3.274 -0.0372 -0.3581  0.2068
   52CHL1   H14 3791   5.562   5.365   3.254 -0.4895  1.6795  1.6603
   52CHL1   C15 3792   5.699   5.496   3.362 -0.1279 -0.4867  0.1035
   52CHL1  H15A 3793   5.800   5.538   3.344 -0.0180 -0.7428  0.1068
   52CHL1  H15B 3794   5.624   5.572   3.331 -1.8748 -1.9732  0.5560
   52CHL1   C16 3795   5.658   5.447   3.497 -0.8263 -0.0038 -0.3313
   52CHL1  H16A 3796   5.730   5.481   3.574  0.0817 -0.7306 -0.8371
   52CHL1  H16B 3797   5.554   5.482   3.517 -0.2563  1.5773  0.0490
   52CHL1   C17 3798   5.652   5.288   3.489 -0.2938  0.2944  0.5966
   52CHL1   H17 3799   5.545   5.258   3.487  0.0313 -0.9288  0.5821
   52CHL1   C13 3800   5.728   5.260   3.357  0.2494  0.3536  0.2319
   52CHL1   C18 3801   5.884   5.268   3.377  1.2411  0.3608  0.3873
   52CHL1  H18A 3802   5.923   5.276   3.273 -1.5590 -0.9268 -0.8967
   52CHL1  H18B 3803   5.925   5.353   3.435  0.4726  1.6661 -0.9021
   52CHL1  H18C 3804   5.919   5.171   3.417  1.9641  1.2855  2.0900
   52CHL1   C12 3805   5.695   5.122   3.294 -0.1197 -0.2521  0.3210
   52CHL1  H12A 3806   5.745   5.035   3.340 -1.4683 -0.6325  1.1012
   52CHL1  H12B 3807   5.586   5.099   3.295  0.7297 -5.2778  0.2395
   52CHL1   C11 3808   5.744   5.112   3.148  0.1086 -0.7039  0.6297
   52CHL1  H11A 3809   5.855   5.116   3.158 -0.0520 -0.2143  2.5859
   52CHL1  H11B 3810   5.702   5.017   3.106 -1.5936  0.8174 -1.3341
   52CHL1    C9 3811   5.698   5.232   3.059  0.6662 -0.3535  0.3721
   52CHL1    H9 3812   5.588   5.220   3.056  0.5774  0.2165  1.1430
   52CHL1   C10 3813   5.760   5.243   2.906 -0.2223  0.4191 -0.7783
   52CHL1   C19 3814   5.912   5.216   2.914  0.0474 -0.1435  0.6783
   52CHL1  H19A 3815   5.958   5.200   2.814 -1.5911 -1.2669  0.0710
   52CHL1  H19B 3816   5.972   5.296   2.962 -0.4709  2.0847 -2.1251
   52CHL1  H19C 3817   5.927   5.116   2.959  1.3276 -0.4710 -0.4089
   52CHL1    C1 3818   5.698   5.125   2.836  0.0989  0.3547 -0.0372
   52CHL1   H1A 3819   5.732   5.035   2.891  1.3611  0.6382 -0.3149
   52CHL1   H1B 3820   5.588   5.111   2.835  0.0020  0.2721 -3.6832
   52CHL1    C2 3821   5.724   5.121   2.680  0.2978 -0.0155 -0.3528
   52CHL1   H2A 3822   5.661   5.041   2.636 -1.2318 -0.5794  2.6464
   52CHL1   H2B 3823   5.831   5.094   2.662  0.1501 -1.0795  0.3026
   52CHL1   C20 3824   5.705   5.225   3.620  0.0784 -0.1364 -0.1330
   52CHL1   H20 3825   5.803   5.272   3.643  0.6008 -1.0296 -0.4959
   52CHL1   C21 3826   5.713   5.081   3.629 -0.0117  0.9266 -0.5751
   52CHL1  H21A 3827   5.757   5.029   3.541 -1.5965  3.4673 -3.0307
   52CHL1  H21B 3828   5.614   5.037   3.655  0.5940 -0.1378  0.0399
   52CHL1  H21C 3829   5.778   5.056   3.716  0.8159  1.2178 -1.1022
   52CHL1   C22 3830   5.625   5.276   3.746 -0.1963 -0.3166 -0.0176
   52CHL1  H22A 3831   5.639   5.387   3.751 -0.0958 -0.2289 -1.5959
   52CHL1  H22B 3832   5.519   5.250   3.723 -0.5756 -0.7399  2.0262
   52CHL1   C23 3833   5.670   5.208   3.879  0.2726 -0.7029 -0.1826
   52CHL1  H23A 3834   5.597   5.127   3.898 -1.1994  1.1930  3.1370
   52CHL1  H23B 3835   5.772   5.167   3.862  0.7939  0.2835  0.4739
   52CHL1   C24 3836   5.670   5.301   3.999 -0.0565 -0.6562 -0.4525
   52CHL1  H24A 3837   5.744   5.383   3.988  1.1677 -1.3496  2.0363
   52CHL1  H24B 3838   5.570   5.349   4.000  0.5460  0.6766 -1.5024
   52CHL1   C25 3839   5.695   5.232   4.136  0.3476 -0.0324 -0.0957
   52CHL1   H25 3840   5.615   5.157   4.152 -1.2681  1.6501  0.0044
   52CHL1   C26 3841   5.829   5.162   4.155 -0.1566 -0.0392  0.1721
   52CHL1  H26A 3842   5.913   5.235   4.149  0.6474 -0.9425  0.2869
   52CHL1  H26B 3843   5.835   5.113   4.254  0.9528 -0.1337  0.0683
   52CHL1  H26C 3844   5.842   5.079   4.082  0.1986 -1.7106  2.0570
   52CHL1   C27 3845   5.672   5.341   4.243 -0.0329 -0.6273 -0.4283
   52CHL1  H27A 3846   5.750   5.419   4.256 -1.5825  0.5786  2.6346
   52CHL1  H27B 3847   5.573   5.386   4.222 -1.1527 -3.1633 -0.9514
   52CHL1  H27C 3848   5.652   5.297   4.343 -0.3808  2.8444  1.1716
   53CHL1    C3 3849   5.631   4.103   2.748  0.0605  0.0852 -0.8318
   53CHL1    H3 3850   5.527   4.069   2.729 -0.0691 -1.5825  2.2706
   53CHL1    O3 3851   5.699   4.107   2.624  0.3053  0.1897 -0.8453
   53CHL1   H3' 3852   5.771   4.044   2.630 -0.7150 -0.9141  0.9220
   53CHL1    C4 3853   5.641   4.235   2.826 -0.2012 -0.5794 -0.0574
   53CHL1   H4A 3854   5.743   4.278   2.821 -1.0457  1.3971 -1.4935
   53CHL1   H4B 3855   5.585   4.307   2.762 -0.7889  0.0520  1.1290
   53CHL1    C5 3856   5.593   4.232   2.974  0.1238 -0.1071 -0.3763
   53CHL1    C6 3857   5.498   4.314   3.012  0.5876 -0.4895 -0.5542
   53CHL1    H6 3858   5.461   4.389   2.941  1.4673  0.2455 -0.2577
   53CHL1    C7 3859   5.445   4.328   3.153  0.6566 -0.3479  0.5349
   53CHL1   H7A 3860   5.438   4.435   3.184 -0.1701  0.7859 -2.9892
   53CHL1   H7B 3861   5.341   4.289   3.146 -0.1268  1.5915  0.4340
   53CHL1    C8 3862   5.546   4.253   3.250  0.6944 -0.0812  0.2090
   53CHL1    H8 3863   5.635   4.319   3.267  1.3573 -0.5379 -1.3247
   53CHL1   C14 3864   5.472   4.235   3.382 -0.0139 -0.1973  0.2186
   53CHL1   H14 3865   5.380   4.173   3.371 -1.1625  1.2867  1.0163
   53CHL1   C15 3866   5.423   4.367   3.438 -0.2155 -0.5072 -0.4230
   53CHL1  H15A 3867   5.500   4.444   3.418 -0.8841  0.4890  0.7170
   53CHL1  H15B 3868   5.327   4.410   3.402 -0.2647 -0.2309  0.0326
   53CHL1   C16 3869   5.413   4.336   3.589 -1.0097 -0.0874  0.5486
   53CHL1  H16A 3870   5.495   4.398   3.632  0.2520 -1.1876 -0.1922
   53CHL1  H16B 3871   5.316   4.358   3.639 -0.2413  0.3671  1.9063
   53CHL1   C17 3872   5.474   4.195   3.620  0.2099  0.4889  0.2328
   53CHL1   H17 3873   5.394   4.119   3.611 -0.4995  1.1710  0.6723
   53CHL1   C13 3874   5.559   4.162   3.495  0.5162 -0.0243  0.1364
   53CHL1   C18 3875   5.694   4.233   3.530  0.3874  0.5210  0.4052
   53CHL1  H18A 3876   5.750   4.253   3.437  1.5476  0.0576  0.9801
   53CHL1  H18B 3877   5.688   4.333   3.579 -0.5024 -0.0189  1.4441
   53CHL1  H18C 3878   5.752   4.177   3.607  0.6491  0.7507  0.3796
   53CHL1   C12 3879   5.579   4.014   3.439 -0.0573  0.6186 -0.0365
   53CHL1  H12A 3880   5.617   3.952   3.523 -0.1572  1.2329  0.4703
   53CHL1  H12B 3881   5.482   3.968   3.410 -0.9313  3.4532 -2.0939
   53CHL1   C11 3882   5.653   4.027   3.309 -0.2210  0.0941 -0.3998
   53CHL1  H11A 3883   5.753   4.071   3.331 -0.8539  0.0173  3.2419
   53CHL1  H11B 3884   5.660   3.927   3.262  1.7605  0.1464 -0.2809
   53CHL1    C9 3885   5.584   4.115   3.203  0.2649 -0.5764  0.2858
   53CHL1    H9 3886   5.485   4.068   3.187  0.3385  0.0679 -2.4857
   53CHL1   C10 3887   5.650   4.119   3.061 -0.4788 -0.3429  0.1948
   53CHL1   C19 3888   5.800   4.152   3.081 -0.0350  0.1160  0.1395
   53CHL1  H19A 3889   5.816   4.244   3.141  0.0940  1.0784 -1.3239
   53CHL1  H19B 3890   5.844   4.061   3.127 -1.6124 -1.2713 -0.9649
   53CHL1  H19C 3891   5.849   4.172   2.984 -0.3689  1.4571  0.2348
   53CHL1    C1 3892   5.635   3.991   2.978  1.0970 -0.3749 -0.6983
   53CHL1   H1A 3893   5.687   3.909   3.031 -0.7893 -1.3001 -0.1903
   53CHL1   H1B 3894   5.527   3.966   2.967  0.8240  0.5617 -0.1823
   53CHL1    C2 3895   5.694   3.998   2.835  0.1591  0.4343 -0.3493
   53CHL1   H2A 3896   5.679   3.896   2.794 -1.1892 -0.2972  1.8174
   53CHL1   H2B 3897   5.805   4.008   2.842  0.0252  1.7606  0.2875
   53CHL1   C20 3898   5.535   4.180   3.761  0.5863  0.1635 -0.8624
   53CHL1   H20 3899   5.627   4.241   3.778  0.7409 -0.2682 -0.0717
   53CHL1   C21 3900   5.591   4.033   3.783  0.3309 -0.0280  0.1020
   53CHL1  H21A 3901   5.680   4.014   3.719 -0.7285 -1.1931 -1.1080
   53CHL1  H21B 3902   5.509   3.962   3.754  1.6208 -2.2117  1.5402
   53CHL1  H21C 3903   5.617   4.008   3.888 -0.9649  0.7432  0.6347
   53CHL1   C22 3904   5.449   4.225   3.879 -0.1635 -0.4005  0.0886
   53CHL1  H22A 3905   5.395   4.319   3.856  0.7512  0.6292  1.9953
   53CHL1  H22B 3906   5.367   4.149   3.886  0.4342 -0.9367  1.8852
   53CHL1   C23 3907   5.520   4.249   4.013  0.2140 -0.9811 -0.7424
   53CHL1  H23A 3908   5.567   4.162   4.062  0.5165  0.3261  1.4338
   53CHL1  H23B 3909   5.591   4.334   4.009 -3.2061  2.5162  2.9904
   53CHL1   C24 3910   5.425   4.307   4.124  0.1725  0.0088  0.2973
   53CHL1  H24A 3911   5.370   4.398   4.091 -1.1617  0.1240  2.6333
   53CHL1  H24B 3912   5.348   4.234   4.158  0.5079 -1.4515 -1.8602
   53CHL1   C25 3913   5.498   4.348   4.250  0.9914 -0.4813 -0.2257
   53CHL1   H25 3914   5.566   4.426   4.211 -0.7097  0.8103 -0.7343
   53CHL1   C26 3915   5.401   4.417   4.353 -0.9160  0.4133  0.4789
   53CHL1  H26A 3916   5.438   4.421   4.458  0.2828 -0.1483  0.1026
   53CHL1  H26B 3917   5.372   4.512   4.303 -0.8792 -0.4646 -1.2968
   53CHL1  H26C 3918   5.313   4.351   4.368 -0.7076 -0.0376 -0.2304
   53CHL1   C27 3919   5.572   4.232   4.323  0.2906 -0.3718  0.1738
   53CHL1  H27A 3920   5.656   4.182   4.269  0.3479  2.3708 -2.5871
   53CHL1  H27B 3921   5.632   4.286   4.400  1.9123 -1.8695  0.0201
   53CHL1  H27C 3922   5.506   4.155   4.367  1.0640 -0.0162  2.0536
   54CHL1    C3 3923   5.098   2.045   2.758 -0.0578 -0.1628 -0.0569
   54CHL1    H3 3924   5.080   1.936   2.763 -0.1346 -0.3464 -2.7870
   54CHL1    O3 3925   5.119   2.074   2.623  0.4579  0.1183 -0.7587
   54CHL1   H3' 3926   5.138   1.993   2.576 -0.9303 -0.5602 -0.2193
   54CHL1    C4 3927   4.974   2.115   2.816  0.6371 -0.9205  0.1938
   54CHL1   H4A 3928   4.991   2.223   2.801 -2.8071 -0.2946 -0.1435
   54CHL1   H4B 3929   4.887   2.086   2.752  0.3551  0.6976 -0.1820
   54CHL1    C5 3930   4.956   2.086   2.967 -0.7728 -0.3646  0.2087
   54CHL1    C6 3931   4.839   2.037   3.006  0.4640 -0.1455 -0.2557
   54CHL1    H6 3932   4.755   2.028   2.937 -0.0446 -1.4245  0.4927
   54CHL1    C7 3933   4.813   2.006   3.153 -0.3719 -0.5819 -0.8770
   54CHL1   H7A 3934   4.710   2.038   3.180  0.5668  1.6611  0.3595
   54CHL1   H7B 3935   4.822   1.896   3.166  2.8783 -0.1365  2.2021
   54CHL1    C8 3936   4.915   2.066   3.245 -0.5012 -0.6457  0.4720
   54CHL1    H8 3937   4.895   2.175   3.245 -2.1388 -0.9097  1.6420
   54CHL1   C14 3938   4.898   2.022   3.388  0.5947  0.2780  0.0567
   54CHL1   H14 3939   4.911   1.911   3.390 -1.4140  0.0132  1.1293
   54CHL1   C15 3940   4.763   2.041   3.458  1.0422  0.0090 -0.1367
   54CHL1  H15A 3941   4.733   2.147   3.443  0.1190 -0.1778  0.3184
   54CHL1  H15B 3942   4.678   1.982   3.418  0.6060 -0.0054  0.7794
   54CHL1   C16 3943   4.790   2.020   3.611  0.1611 -0.4837  0.7701
   54CHL1  H16A 3944   4.745   2.111   3.656 -3.1928 -1.0643 -0.9995
   54CHL1  H16B 3945   4.729   1.929   3.632 -0.3477  0.1373  2.1073
   54CHL1   C17 3946   4.945   1.993   3.618 -0.9456  0.4907  1.0129
   54CHL1   H17 3947   4.958   1.885   3.599 -2.8194  0.2284  0.9739
   54CHL1   C13 3948   4.998   2.068   3.491  0.4248  1.3844 -0.2964
   54CHL1   C18 3949   4.992   2.218   3.516  0.0433  0.5062 -0.2332
   54CHL1  H18A 3950   5.084   2.252   3.566  0.1931  1.6045 -1.2030
   54CHL1  H18B 3951   4.989   2.278   3.423  0.8855  0.3712 -0.3516
   54CHL1  H18C 3952   4.905   2.254   3.575  0.0190  0.5052 -0.2683
   54CHL1   C12 3953   5.130   2.025   3.432 -0.0086 -0.1579 -0.3825
   54CHL1  H12A 3954   5.218   2.062   3.489  0.6947 -0.5159 -1.2019
   54CHL1  H12B 3955   5.135   1.915   3.438 -1.0134 -0.1578  0.5323
   54CHL1   C11 3956   5.167   2.076   3.294  0.2246  0.1194  0.0463
   54CHL1  H11A 3957   5.178   2.184   3.318  1.6357 -0.0737  0.3285
   54CHL1  H11B 3958   5.267   2.042   3.260 -0.3891 -0.0473 -1.6697
   54CHL1    C9 3959   5.057   2.043   3.187 -0.3538 -0.4189 -0.1066
   54CHL1    H9 3960   5.070   1.933   3.176 -0.0522 -0.1898 -2.4060
   54CHL1   C10 3961   5.084   2.106   3.048  0.5515 -0.5749  0.2897
   54CHL1   C19 3962   5.099   2.259   3.066 -0.6502 -0.4861  0.3754
   54CHL1  H19A 3963   5.197   2.272   3.119 -0.1263 -0.7823 -0.4994
   54CHL1  H19B 3964   5.113   2.304   2.966 -0.6903 -0.9247  0.1678
   54CHL1  H19C 3965   5.018   2.309   3.123 -0.8146 -1.2856  0.8611
   54CHL1    C1 3966   5.207   2.032   2.980  1.1169  0.2924 -0.6966
   54CHL1   H1A 3967   5.301   2.059   3.032  0.3338  0.4473  0.6799
   54CHL1   H1B 3968   5.189   1.923   2.985  0.4329  0.4263 -0.0164
   54CHL1    C2 3969   5.223   2.075   2.839  0.5637  0.3022 -0.2384
   54CHL1   H2A 3970   5.307   2.020   2.790  1.3013  2.2640 -1.3066
   54CHL1   H2B 3971   5.245   2.183   2.824 -1.7046  0.8174 -0.1552
   54CHL1   C20 3972   5.008   2.030   3.756 -0.5241 -0.1402  0.4264
   54CHL1   H20 3973   4.978   2.135   3.779  0.0206 -0.2639  1.7914
   54CHL1   C21 3974   5.158   2.017   3.745 -0.8666  0.0761 -0.0462
   54CHL1  H21A 3975   5.198   2.017   3.849  0.5215 -0.6204 -0.5524
   54CHL1  H21B 3976   5.198   2.105   3.690 -0.4761  0.0243  0.1493
   54CHL1  H21C 3977   5.186   1.920   3.700 -0.1460 -0.5055  1.5501
   54CHL1   C22 3978   4.948   1.946   3.876  0.0803  0.7421  0.6135
   54CHL1  H22A 3979   5.004   1.962   3.970  0.5394 -0.8143  0.6359
   54CHL1  H22B 3980   4.842   1.975   3.893 -0.2348  1.2666 -1.8789
   54CHL1   C23 3981   4.955   1.789   3.856  0.0940 -0.4227  0.6639
   54CHL1  H23A 3982   4.897   1.766   3.764  0.0051 -0.8578  0.8273
   54CHL1  H23B 3983   5.061   1.765   3.830 -0.0237  0.9548 -1.2906
   54CHL1   C24 3984   4.914   1.698   3.968 -0.0277 -1.0340 -0.1689
   54CHL1  H24A 3985   4.815   1.732   4.004  1.0285  1.8515  0.2881
   54CHL1  H24B 3986   4.904   1.599   3.918  3.4323 -0.8771 -1.4517
   54CHL1   C25 3987   5.014   1.694   4.079 -0.2105  0.5896  0.2707
   54CHL1   H25 3988   5.025   1.791   4.131 -2.4832  0.7797  0.5006
   54CHL1   C26 3989   4.958   1.592   4.182  0.0862 -0.1060  0.4794
   54CHL1  H26A 3990   4.937   1.491   4.141 -1.0198  0.3647 -0.1432
   54CHL1  H26B 3991   5.035   1.582   4.262  1.3611  0.0022 -0.6965
   54CHL1  H26C 3992   4.864   1.624   4.231  0.8109  1.0291  1.1725
   54CHL1   C27 3993   5.152   1.638   4.024 -0.3649  0.2089 -0.0509
   54CHL1  H27A 3994   5.120   1.547   3.968 -0.3845  0.5470 -0.5975
   54CHL1  H27B 3995   5.213   1.700   3.955 -0.5950  1.4246  0.8220
   54CHL1  H27C 3996   5.224   1.605   4.102  1.9312  0.6040 -1.8920
   55CHL1    C3 3997   3.723   6.497   2.948 -1.1028 -0.1839 -0.2520
   55CHL1    H3 3998   3.614   6.519   2.954 -0.7859  1.8714 -1.1647
   55CHL1    O3 3999   3.746   6.474   2.813 -1.1942  0.1080  0.4317
   55CHL1   H3' 4000   3.842   6.472   2.810 -1.1768  1.2967 -1.8939
   55CHL1    C4 4001   3.805   6.613   3.004  0.2568  0.4433 -0.7221
   55CHL1   H4A 4002   3.912   6.585   2.993  0.3535  1.0207 -1.3521
   55CHL1   H4B 4003   3.783   6.700   2.938 -0.4120 -2.0007 -4.0241
   55CHL1    C5 4004   3.768   6.632   3.151  0.5190 -0.2557 -0.1544
   55CHL1    C6 4005   3.702   6.749   3.185  0.0961 -0.7875  0.0443
   55CHL1    H6 4006   3.684   6.834   3.118 -1.6705  0.0598  1.4966
   55CHL1    C7 4007   3.647   6.770   3.322 -0.3301  0.2535  0.0521
   55CHL1   H7A 4008   3.672   6.871   3.362 -0.4208 -0.5372  2.2390
   55CHL1   H7B 4009   3.537   6.762   3.312 -0.2151 -0.7265 -0.5979
   55CHL1    C8 4010   3.701   6.667   3.424 -0.4027 -0.1230  0.0647
   55CHL1    H8 4011   3.809   6.691   3.437 -0.5651  1.6932 -1.5162
   55CHL1   C14 4012   3.618   6.665   3.552 -0.0519  0.1274  0.4971
   55CHL1   H14 4013   3.529   6.605   3.525  0.6963 -1.1836  0.8688
   55CHL1   C15 4014   3.571   6.802   3.607 -0.3497  0.1113 -0.0969
   55CHL1  H15A 4015   3.656   6.871   3.619 -0.4819  0.1434  0.7094
   55CHL1  H15B 4016   3.485   6.849   3.553 -0.5972  1.2434  1.2502
   55CHL1   C16 4017   3.531   6.758   3.749  0.3376 -0.5418 -0.3841
   55CHL1  H16A 4018   3.574   6.831   3.821  0.1264  1.2272 -1.9948
   55CHL1  H16B 4019   3.422   6.743   3.760  0.3110  0.7519  1.8484
   55CHL1   C17 4020   3.575   6.620   3.786 -0.5170 -0.4912 -0.1741
   55CHL1   H17 4021   3.495   6.545   3.769 -0.9086  0.1970 -1.4631
   55CHL1   C13 4022   3.674   6.583   3.674  0.1842  0.2740  0.3500
   55CHL1   C18 4023   3.819   6.637   3.698  0.0464 -0.3552  0.5335
   55CHL1  H18A 4024   3.828   6.747   3.687 -0.0167 -0.3697  0.3203
   55CHL1  H18B 4025   3.855   6.608   3.799 -0.5095 -0.9232  0.5791
   55CHL1  H18C 4026   3.896   6.591   3.632  0.3436 -0.0783  0.6858
   55CHL1   C12 4027   3.670   6.443   3.617 -0.0640  0.2964 -0.7124
   55CHL1  H12A 4028   3.705   6.375   3.698 -0.5813  0.5967 -0.2242
   55CHL1  H12B 4029   3.564   6.411   3.601  0.4631 -2.2135  0.2595
   55CHL1   C11 4030   3.754   6.427   3.487 -0.1975  0.0581  0.4458
   55CHL1  H11A 4031   3.864   6.432   3.500 -0.2377  0.0924  0.7849
   55CHL1  H11B 4032   3.739   6.321   3.456  1.1068 -1.1454  3.5093
   55CHL1    C9 4033   3.709   6.524   3.375  0.8647 -0.2471 -0.3975
   55CHL1    H9 4034   3.603   6.493   3.364 -0.4509  3.9048 -1.2288
   55CHL1   C10 4035   3.778   6.503   3.240 -0.7259 -0.2843  0.1659
   55CHL1   C19 4036   3.928   6.473   3.264 -0.2888 -0.0137 -0.3159
   55CHL1  H19A 4037   3.977   6.467   3.165  0.6656 -1.5819  0.2073
   55CHL1  H19B 4038   3.974   6.554   3.324 -1.0707 -0.3373  0.7514
   55CHL1  H19C 4039   3.942   6.376   3.317 -1.7873  0.5990  1.3227
   55CHL1    C1 4040   3.722   6.378   3.171  0.2887 -0.0681  0.3643
   55CHL1   H1A 4041   3.734   6.290   3.237 -0.7530 -2.4047 -2.3440
   55CHL1   H1B 4042   3.615   6.409   3.162  0.5337  0.1934 -2.8872
   55CHL1    C2 4043   3.757   6.359   3.021  0.4646 -0.2063  0.2412
   55CHL1   H2A 4044   3.699   6.272   2.983 -0.2256 -0.8779  2.6666
   55CHL1   H2B 4045   3.864   6.341   3.000  0.8417 -1.1455  2.6233
   55CHL1   C20 4046   3.616   6.595   3.937  0.2593  0.2984  0.3313
   55CHL1   H20 4047   3.695   6.668   3.964 -0.6985  1.9172 -1.0849
   55CHL1   C21 4048   3.665   6.450   3.963 -0.1419  0.1342 -0.3825
   55CHL1  H21A 4049   3.752   6.445   3.893  0.9221  2.7195  0.6181
   55CHL1  H21B 4050   3.584   6.374   3.958 -0.3479  0.3965 -1.2426
   55CHL1  H21C 4051   3.706   6.445   4.066 -0.4976  1.4590 -0.1539
   55CHL1   C22 4052   3.504   6.631   4.031  0.4833  0.0682  0.0861
   55CHL1  H22A 4053   3.442   6.711   3.987 -0.6726 -0.4878  0.6699
   55CHL1  H22B 4054   3.439   6.541   4.028  1.6363 -1.0467  3.3109
   55CHL1   C23 4055   3.553   6.665   4.174  0.1141 -0.1169 -0.1612
   55CHL1  H23A 4056   3.623   6.581   4.197  1.3123  1.0738  0.7126
   55CHL1  H23B 4057   3.615   6.757   4.185 -0.3672 -0.0280  2.2422
   55CHL1   C24 4058   3.435   6.668   4.275  0.0049  0.2551 -0.5659
   55CHL1  H24A 4059   3.370   6.753   4.245 -0.3599  1.1076  2.3123
   55CHL1  H24B 4060   3.380   6.571   4.274  1.2079 -0.4520 -0.5549
   55CHL1   C25 4061   3.475   6.699   4.418  0.4223  0.2536  0.3083
   55CHL1   H25 4062   3.568   6.758   4.405  0.4966 -0.1645 -1.2907
   55CHL1   C26 4063   3.368   6.793   4.485 -0.7551 -0.1214  0.0390
   55CHL1  H26A 4064   3.398   6.792   4.592  1.5900 -0.3048 -0.5613
   55CHL1  H26B 4065   3.383   6.892   4.439 -0.6735 -1.3999 -2.8825
   55CHL1  H26C 4066   3.265   6.753   4.475 -0.6247 -0.2534 -0.8631
   55CHL1   C27 4067   3.513   6.570   4.506  0.5578  0.0857  0.6027
   55CHL1  H27A 4068   3.588   6.501   4.460 -0.2581 -1.4124  1.4279
   55CHL1  H27B 4069   3.535   6.602   4.610 -1.1016  2.0327  0.4033
   55CHL1  H27C 4070   3.420   6.512   4.524  0.7603 -1.9140 -3.5663
   56CHL1    C3 4071   2.934   5.304   2.465 -0.2690  0.2369 -0.5487
   56CHL1    H3 4072   3.043   5.286   2.472 -0.4971 -0.6685  0.9567
   56CHL1    O3 4073   2.907   5.339   2.334  0.4813  0.2266 -0.3418
   56CHL1   H3' 4074   2.818   5.376   2.333 -0.2180 -1.3167  0.9417
   56CHL1    C4 4075   2.840   5.186   2.507 -0.0147 -0.2414  0.1050
   56CHL1   H4A 4076   2.740   5.217   2.472  0.7717  0.4140 -1.7156
   56CHL1   H4B 4077   2.873   5.100   2.444  1.2183 -0.0176  0.4179
   56CHL1    C5 4078   2.835   5.160   2.660  0.0699 -0.1061  0.3219
   56CHL1    C6 4079   2.859   5.039   2.711  0.2117  0.0995  0.5168
   56CHL1    H6 4080   2.876   4.954   2.643 -0.5380  1.8254 -1.9243
   56CHL1    C7 4081   2.838   5.019   2.860 -0.4999  0.2300 -0.1843
   56CHL1   H7A 4082   2.768   4.934   2.873  0.3512 -0.4918 -0.2557
   56CHL1   H7B 4083   2.932   4.987   2.908 -0.2139  2.0972  0.5916
   56CHL1    C8 4084   2.778   5.138   2.945 -0.0237 -0.6659  0.1570
   56CHL1    H8 4085   2.669   5.136   2.926  0.0735  1.2304 -0.8478
   56CHL1   C14 4086   2.790   5.126   3.100  0.5996 -0.3313  0.3244
   56CHL1   H14 4087   2.899   5.117   3.121  1.0429  0.2432 -1.5140
   56CHL1   C15 4088   2.726   5.004   3.174 -0.3539  0.1888  1.0867
   56CHL1  H15A 4089   2.621   4.983   3.143  0.5814  0.9435 -3.2070
   56CHL1  H15B 4090   2.791   4.915   3.158  0.3345  0.6856  1.0661
   56CHL1   C16 4091   2.736   5.041   3.323 -0.3660 -0.2014 -0.2663
   56CHL1  H16A 4092   2.631   5.045   3.360 -0.4912  2.5182 -0.6738
   56CHL1  H16B 4093   2.795   4.976   3.391  2.9198  3.3686  0.6243
   56CHL1   C17 4094   2.793   5.186   3.330 -0.0016  0.7027  0.1370
   56CHL1   H17 4095   2.903   5.176   3.343 -0.5191 -2.7123  3.4777
   56CHL1   C13 4096   2.762   5.253   3.188 -0.2343  0.3158  0.4859
   56CHL1   C18 4097   2.608   5.273   3.182 -0.1950  0.0479  0.6221
   56CHL1  H18A 4098   2.567   5.300   3.082  2.0708 -2.4118 -1.1259
   56CHL1  H18B 4099   2.544   5.195   3.229  0.1513  1.0257  2.8227
   56CHL1  H18C 4100   2.571   5.352   3.250  0.0104  0.7747 -0.0996
   56CHL1   C12 4101   2.848   5.366   3.137  0.2918  0.7165 -0.2977
   56CHL1  H12A 4102   2.830   5.453   3.203  0.0368 -0.4500  1.2342
   56CHL1  H12B 4103   2.955   5.336   3.145  0.7487  2.3834  0.2824
   56CHL1   C11 4104   2.813   5.393   2.992 -0.3342  0.0929 -0.0880
   56CHL1  H11A 4105   2.705   5.418   3.000 -0.7152 -1.7488  1.0445
   56CHL1  H11B 4106   2.865   5.487   2.963  0.1885  0.0089  0.5445
   56CHL1    C9 4107   2.842   5.273   2.890 -0.1367 -0.3958  0.3080
   56CHL1    H9 4108   2.953   5.272   2.891 -0.0486  0.7241 -1.9026
   56CHL1   C10 4109   2.813   5.290   2.746 -0.1086 -0.0312  0.2145
   56CHL1   C19 4110   2.663   5.335   2.722  0.1995 -0.1676 -0.1428
   56CHL1  H19A 4111   2.621   5.308   2.623 -1.5769 -1.1653  0.8319
   56CHL1  H19B 4112   2.599   5.286   2.798 -1.0608  0.5614 -0.7078
   56CHL1  H19C 4113   2.652   5.445   2.732 -0.2494 -0.2940  0.9040
   56CHL1    C1 4114   2.907   5.402   2.699 -0.9442  0.4925  0.1936
   56CHL1   H1A 4115   2.884   5.499   2.750  0.1233  0.2653  1.1367
   56CHL1   H1B 4116   3.008   5.369   2.729 -0.5007  1.5022 -0.1248
   56CHL1    C2 4117   2.911   5.433   2.550 -0.2584  0.2696 -0.0976
   56CHL1   H2A 4118   2.992   5.508   2.537 -1.1215  1.4074  0.8764
   56CHL1   H2B 4119   2.815   5.476   2.513 -0.9719 -2.4677 -1.7214
   56CHL1   C20 4120   2.753   5.264   3.457 -0.4400  0.3374 -0.4594
   56CHL1   H20 4121   2.642   5.272   3.453 -0.4207  0.8454 -0.0529
   56CHL1   C21 4122   2.825   5.397   3.466 -0.0588 -0.0551 -0.5301
   56CHL1  H21A 4123   2.793   5.467   3.385  2.6713 -0.1818 -1.8304
   56CHL1  H21B 4124   2.933   5.381   3.446  1.0824  4.6085  0.6130
   56CHL1  H21C 4125   2.824   5.465   3.554 -2.3313 -0.5898 -0.0839
   56CHL1   C22 4126   2.786   5.168   3.575  0.2027 -0.2954  0.6710
   56CHL1  H22A 4127   2.710   5.087   3.582  0.5855 -0.6193  1.1785
   56CHL1  H22B 4128   2.882   5.114   3.558 -0.4480 -1.1918 -0.2540
   56CHL1   C23 4129   2.796   5.234   3.712  0.4488 -0.6956 -0.0057
   56CHL1  H23A 4130   2.866   5.320   3.710 -2.1405  1.6355  1.1693
   56CHL1  H23B 4131   2.699   5.278   3.745 -0.2617 -1.6882 -0.7182
   56CHL1   C24 4132   2.832   5.133   3.827  0.5214  0.3711 -0.0610
   56CHL1  H24A 4133   2.748   5.062   3.840  1.1477 -0.5797 -1.0134
   56CHL1  H24B 4134   2.917   5.066   3.801 -0.2263 -0.6262  0.0347
   56CHL1   C25 4135   2.865   5.193   3.966 -0.8923  0.4362  0.3775
   56CHL1   H25 4136   2.779   5.252   4.006 -1.4610 -1.3195  1.8887
   56CHL1   C26 4137   2.895   5.083   4.070 -0.0440  0.4270 -0.3586
   56CHL1  H26A 4138   2.916   5.132   4.168  0.5381  0.7481 -0.6394
   56CHL1  H26B 4139   2.802   5.022   4.077  0.2116  0.1566  0.8606
   56CHL1  H26C 4140   2.974   5.010   4.044  1.0487  1.5448 -0.2688
   56CHL1   C27 4141   2.984   5.287   3.956  0.2801  0.4029 -0.2435
   56CHL1  H27A 4142   2.958   5.380   3.900  0.2123 -0.5364 -1.8396
   56CHL1  H27B 4143   3.015   5.315   4.059 -1.3208 -3.0282  1.3278
   56CHL1  H27C 4144   3.071   5.230   3.915  1.3485  0.0516  2.2991
   57SAPC     N 4145   2.511   4.597   6.503 -0.3785 -0.5571 -0.4957
   57SAPC   C12 4146   2.481   4.663   6.378  0.2716  0.3229  0.2741
   57SAPC  H12A 4147   2.546   4.748   6.365  0.7012 -0.0018  0.2873
   57SAPC  H12B 4148   2.386   4.714   6.383  1.6332  3.3826 -1.8657
   57SAPC   C13 4149   2.522   4.695   6.622 -0.1837  1.1726  0.2460
   57SAPC  H13A 4150   2.424   4.737   6.643 -0.3492  0.5214  0.8027
   57SAPC  H13B 4151   2.559   4.645   6.711  2.7650  2.6932 -0.0040
   57SAPC  H13C 4152   2.594   4.768   6.589  0.7383  0.4273  0.5558
   57SAPC   C14 4153   2.415   4.492   6.535  0.1699  0.1322 -0.1742
   57SAPC  H14A 4154   2.317   4.518   6.572 -1.1549 -0.6491 -2.8628
   57SAPC  H14B 4155   2.389   4.427   6.453  0.4824  0.5945 -0.6505
   57SAPC  H14C 4156   2.468   4.438   6.613  1.5519 -2.7693 -2.8834
   57SAPC   C15 4157   2.639   4.522   6.484  0.0388  0.5392 -0.6430
   57SAPC  H15A 4158   2.642   4.472   6.388  1.6954 -2.2826  0.7456
   57SAPC  H15B 4159   2.726   4.585   6.470 -0.4032  1.3364  0.1079
   57SAPC  H15C 4160   2.647   4.447   6.562 -2.2365  2.2458  1.3752
   57SAPC   C11 4161   2.465   4.591   6.244  0.9314  0.5442 -0.4021
   57SAPC  H11A 4162   2.558   4.535   6.221  1.3254  1.1720 -0.3598
   57SAPC  H11B 4163   2.448   4.663   6.161 -2.2411  0.0555 -0.3082
   57SAPC     P 4164   2.217   4.561   6.232  0.1048  0.1822 -0.3341
   57SAPC   O13 4165   2.124   4.449   6.267  0.2023 -0.1463  0.1432
   57SAPC   O14 4166   2.204   4.689   6.302 -0.1707  0.2155  0.4567
   57SAPC   O12 4167   2.355   4.505   6.243  0.2643  0.3738  1.0403
   57SAPC   O11 4168   2.190   4.601   6.084 -0.4996 -0.4595  0.4240
   57SAPC    C1 4169   2.199   4.501   5.975  0.2919 -0.1373 -0.3394
   57SAPC    HA 4170   2.211   4.399   6.018 -1.5896 -0.0848  0.4263
   57SAPC    HB 4171   2.100   4.513   5.927 -0.2316  0.3950  0.8313
   57SAPC    C2 4172   2.288   4.540   5.853 -0.2239 -0.2043  0.2446
   57SAPC    HS 4173   2.392   4.526   5.891 -0.1425  2.5729  1.2291
   57SAPC   O21 4174   2.256   4.671   5.810 -0.1453 -0.7236 -0.2625
   57SAPC   C21 4175   2.323   4.772   5.862  0.6749 -0.1836  0.3221
   57SAPC   O22 4176   2.415   4.761   5.945  0.0318 -0.7403 -0.4502
   57SAPC   C22 4177   2.282   4.905   5.802 -1.0132 -0.0407 -0.1719
   57SAPC   H2R 4178   2.216   4.889   5.714  1.1839 -1.8079 -1.6190
   57SAPC   H2S 4179   2.235   4.969   5.879 -0.1547  1.4233 -0.8310
   57SAPC    C3 4180   2.280   4.442   5.733 -0.0252  0.0246 -0.3180
   57SAPC    HX 4181   2.172   4.424   5.714  0.3005 -0.8816 -1.4464
   57SAPC    HY 4182   2.319   4.344   5.769  0.1844 -0.2814 -1.3585
   57SAPC   O31 4183   2.362   4.488   5.621 -0.1118 -0.1305  0.1311
   57SAPC   C31 4184   2.290   4.548   5.521  0.0849 -0.5654 -0.0366
   57SAPC   O32 4185   2.170   4.548   5.515 -0.1579 -0.0884  0.1311
   57SAPC   C32 4186   2.389   4.620   5.424  0.4652 -0.4667  0.8846
   57SAPC   H2X 4187   2.476   4.552   5.418  0.2977 -0.7435  1.4700
   57SAPC   H2Y 4188   2.413   4.716   5.474 -0.6854  1.4423 -1.9467
   57SAPC   C23 4189   2.404   4.984   5.744  0.1160  0.2843  0.3169
   57SAPC   H3R 4190   2.444   4.930   5.656 -2.2229 -2.0431  0.5681
   57SAPC   H3S 4191   2.483   4.985   5.823 -0.0578  4.3375  0.6781
   57SAPC   C24 4192   2.367   5.121   5.701  0.5605  0.2391  0.4572
   57SAPC   H4R 4193   2.322   5.175   5.788 -0.0832  0.2184  0.1367
   57SAPC   H4S 4194   2.295   5.118   5.617  1.0312  0.7734  0.0208
   57SAPC   C25 4195   2.493   5.193   5.656 -0.7422 -0.3159  0.2083
   57SAPC   H5R 4196   2.572   5.209   5.731 -0.4817 -0.2249 -0.0832
   57SAPC   C26 4197   2.528   5.228   5.528 -0.0400 -0.6910 -0.1508
   57SAPC   H6R 4198   2.622   5.279   5.502 -0.7871  1.8166  1.7012
   57SAPC   C27 4199   2.454   5.184   5.399  0.3653  0.0814  0.1905
   57SAPC   H7R 4200   2.409   5.278   5.360 -1.4427 -0.7717  0.0852
   57SAPC   H7S 4201   2.369   5.115   5.420  0.7318 -0.3088  0.3939
   57SAPC   C28 4202   2.541   5.107   5.301  0.3325  0.5430  0.2258
   57SAPC   H8R 4203   2.577   5.008   5.333  1.1738  0.4633 -0.8823
   57SAPC   C29 4204   2.581   5.143   5.174 -1.5672 -0.4126  0.5015
   57SAPC   H9R 4205   2.641   5.067   5.123 -0.2068  2.1972 -2.0494
   57SAPC  C210 4206   2.543   5.269   5.100 -0.0567  0.8310  0.1794
   57SAPC  H10R 4207   2.640   5.316   5.073  0.9486 -0.7041  0.9598
   57SAPC  H10S 4208   2.504   5.342   5.174  1.9371  0.1193  2.0212
   57SAPC  C211 4209   2.455   5.239   4.986  0.4881  0.3911  0.4140
   57SAPC  H11R 4210   2.349   5.226   5.011  0.9944 -3.3197  1.2298
   57SAPC  C212 4211   2.486   5.237   4.854 -0.6659  0.6050  0.5867
   57SAPC  H12R 4212   2.407   5.229   4.778  0.8386  1.3033 -1.1316
   57SAPC  C213 4213   2.624   5.275   4.813 -0.6348 -0.3088 -0.2346
   57SAPC  H13R 4214   2.696   5.241   4.891  0.6673  1.6098 -0.5207
   57SAPC  H13S 4215   2.622   5.386   4.816 -0.4865 -0.1463 -3.1792
   57SAPC  C214 4216   2.660   5.234   4.674 -0.5887 -0.7881  0.3005
   57SAPC  H14R 4217   2.717   5.140   4.671 -1.3413 -1.2437 -0.0086
   57SAPC  C215 4218   2.624   5.286   4.556  0.4269  0.7386 -0.2605
   57SAPC  H15R 4219   2.671   5.248   4.464  1.0442  1.5968 -0.3101
   57SAPC  C216 4220   2.541   5.409   4.534  0.2212  0.4171 -0.0672
   57SAPC  H16R 4221   2.593   5.486   4.472 -0.6568  1.2623  0.2253
   57SAPC  H16S 4222   2.517   5.465   4.627 -1.1153  1.1907 -0.8487
   57SAPC  C217 4223   2.411   5.386   4.461 -0.1610 -0.2700 -0.1900
   57SAPC  H17R 4224   2.344   5.475   4.466 -3.3174 -2.5023  0.6451
   57SAPC  H17S 4225   2.359   5.299   4.508 -1.1680 -0.7352 -2.0510
   57SAPC  C218 4226   2.432   5.332   4.319  0.4669 -0.0588  0.0008
   57SAPC  H18R 4227   2.498   5.243   4.324 -0.5506 -0.9486 -1.7363
   57SAPC  H18S 4228   2.494   5.397   4.254 -1.4045 -0.4847 -2.3495
   57SAPC  C219 4229   2.304   5.298   4.245 -0.0027  0.1388  0.3517
   57SAPC  H19R 4230   2.245   5.220   4.298  0.4277  1.0691  2.3053
   57SAPC  H19S 4231   2.341   5.247   4.154  1.7761 -0.3099  1.2732
   57SAPC  C220 4232   2.209   5.414   4.213 -0.0029  0.3605  0.3184
   57SAPC  H20R 4233   2.155   5.450   4.302 -0.6099 -2.8069  1.3798
   57SAPC  H20S 4234   2.134   5.363   4.148  0.2341  1.1415 -0.5983
   57SAPC  H20T 4235   2.247   5.499   4.152 -2.3688  0.3930 -1.2501
   57SAPC   C33 4236   2.330   4.641   5.277  0.2814 -0.1967 -1.1104
   57SAPC   H3X 4237   2.257   4.725   5.279 -0.5217 -0.8880 -0.2822
   57SAPC   H3Y 4238   2.281   4.546   5.247 -0.5625 -0.1595  0.1054
   57SAPC   C34 4239   2.441   4.673   5.184  0.4928  0.1864 -0.0444
   57SAPC   H4X 4240   2.514   4.589   5.180  0.5613  0.2660 -0.5544
   57SAPC   H4Y 4241   2.491   4.768   5.212  0.6074  0.5389 -1.3512
   57SAPC   C35 4242   2.394   4.689   5.040  0.7591 -0.6045 -0.1973
   57SAPC   H5X 4243   2.302   4.627   5.030  1.6733 -2.1381  0.5207
   57SAPC   H5Y 4244   2.478   4.656   4.976  0.3849 -0.7828 -0.5958
   57SAPC   C36 4245   2.361   4.837   5.011  0.2984  0.1576 -0.7163
   57SAPC   H6X 4246   2.439   4.905   5.050 -0.1599  0.2673  0.0317
   57SAPC   H6Y 4247   2.265   4.859   5.061  0.2827 -1.6305  0.1189
   57SAPC   C37 4248   2.339   4.853   4.862 -0.7479 -0.0356  0.0060
   57SAPC   H7X 4249   2.278   4.944   4.840  0.9428  0.7761 -1.5088
   57SAPC   H7Y 4250   2.283   4.763   4.829  1.5027 -1.4736 -0.1106
   57SAPC   C38 4251   2.471   4.864   4.780  0.1109 -0.2829 -0.2777
   57SAPC   H8X 4252   2.526   4.768   4.792  0.1561 -0.6566 -2.9129
   57SAPC   H8Y 4253   2.523   4.955   4.817 -1.1794  0.7462 -0.9190
   57SAPC   C39 4254   2.444   4.905   4.629  0.1508 -0.6536 -0.1959
   57SAPC   H9X 4255   2.407   5.010   4.624 -0.3337 -0.8768 -2.3769
   57SAPC   H9Y 4256   2.361   4.850   4.580 -1.6050  0.4621  1.3714
   57SAPC  C310 4257   2.568   4.881   4.542  0.5697 -0.1001  0.6893
   57SAPC  H10X 4258   2.596   4.773   4.542  0.6111 -0.2297 -3.1094
   57SAPC  H10Y 4259   2.650   4.942   4.586 -0.7543  0.0605  3.0998
   57SAPC  C311 4260   2.531   4.918   4.399  0.2402 -0.6463 -0.4880
   57SAPC  H11X 4261   2.626   4.937   4.345  0.4739  0.3229  0.2287
   57SAPC  H11Y 4262   2.477   5.014   4.413  0.7147 -0.6347  1.5580
   57SAPC  C312 4263   2.462   4.801   4.326 -0.2729 -0.3461 -0.0158
   57SAPC  H12X 4264   2.354   4.819   4.348 -0.5882  1.6657 -2.7413
   57SAPC  H12Y 4265   2.507   4.705   4.358  0.0899  0.3259  1.6152
   57SAPC  C313 4266   2.468   4.812   4.174 -0.2700 -0.4583 -0.4826
   57SAPC  H13X 4267   2.421   4.722   4.130 -0.0640 -1.1454  0.6922
   57SAPC  H13Y 4268   2.573   4.814   4.138  0.2633  0.7320  1.0376
   57SAPC  C314 4269   2.392   4.931   4.123  0.1895 -1.3181  0.0005
   57SAPC  H14X 4270   2.472   5.003   4.097 -2.1756  1.1367 -0.9194
   57SAPC  H14Y 4271   2.332   4.969   4.208  1.8174  2.3838 -0.3368
   57SAPC  C315 4272   2.308   4.915   3.996 -0.4839 -0.7821 -0.1920
   57SAPC  H15X 4273   2.250   5.006   3.972 -0.6609 -1.1933 -1.4204
   57SAPC  H15Y 4274   2.223   4.847   4.020 -3.0948  2.0523 -0.8774
   57SAPC  C316 4275   2.380   4.854   3.874 -0.0921  0.4945 -0.4661
   57SAPC  H16X 4276   2.450   4.774   3.905  0.2251  0.2151 -1.8196
   57SAPC  H16Y 4277   2.433   4.941   3.829  1.6576  0.1494  0.8576
   57SAPC  C317 4278   2.291   4.787   3.754 -0.5769  0.1536  0.0718
   57SAPC  H17X 4279   2.200   4.850   3.746  0.1427  1.0673 -1.3424
   57SAPC  H17Y 4280   2.257   4.684   3.782  2.2828 -0.8599  0.1138
   57SAPC  C318 4281   2.368   4.776   3.620 -0.2411 -0.3801  0.1368
   57SAPC  H18X 4282   2.308   4.723   3.544 -2.0792  0.3493  1.0326
   57SAPC  H18Y 4283   2.463   4.719   3.632  0.0083  0.5842  4.2846
   57SAPC  H18Z 4284   2.403   4.872   3.577  1.3401 -1.1424 -0.3440
   58SAPC     N 4285   0.988   0.320   6.794  0.4459 -0.8788 -0.1512
   58SAPC   C12 4286   0.896   0.295   6.668  0.2311  0.5772  0.2485
   58SAPC  H12A 4287   0.841   0.203   6.678 -1.9897  1.8508  0.2966
   58SAPC  H12B 4288   0.963   0.280   6.584  0.3069  3.5107 -0.3259
   58SAPC   C13 4289   1.086   0.429   6.772 -0.7142  0.4920 -0.2237
   58SAPC  H13A 4290   1.053   0.532   6.778  0.5510  0.9588 -0.7453
   58SAPC  H13B 4291   1.164   0.415   6.846  0.7874  0.1918 -1.7928
   58SAPC  H13C 4292   1.128   0.412   6.674 -0.4135 -0.1128  0.0066
   58SAPC   C14 4293   0.894   0.353   6.908 -0.2773  0.9774 -1.0797
   58SAPC  H14A 4294   0.945   0.346   7.003  0.5635  0.7915 -1.5357
   58SAPC  H14B 4295   0.849   0.451   6.901 -1.7412  0.7837  2.8886
   58SAPC  H14C 4296   0.817   0.278   6.911  2.3558 -1.8976  0.6428
   58SAPC   C15 4297   1.049   0.186   6.835  0.2640 -0.2730 -0.3080
   58SAPC  H15A 4298   1.099   0.208   6.928  0.5179 -1.9953 -0.0099
   58SAPC  H15B 4299   0.970   0.113   6.846 -0.2926  0.0247 -2.0793
   58SAPC  H15C 4300   1.125   0.141   6.772  2.5001  2.6671  0.0782
   58SAPC   C11 4301   0.809   0.409   6.617  0.0843  0.2996 -0.7785
   58SAPC  H11A 4302   0.745   0.438   6.703  1.2232 -2.0283  0.9654
   58SAPC  H11B 4303   0.743   0.362   6.541  0.8945 -0.7571 -0.8546
   58SAPC     P 4304   0.859   0.577   6.425 -0.0093 -0.2577 -0.0565
   58SAPC   O13 4305   0.720   0.562   6.386 -0.0225 -0.1860  0.2090
   58SAPC   O14 4306   0.911   0.714   6.413 -0.3863  0.1641  0.1122
   58SAPC   O12 4307   0.883   0.518   6.568  1.1131  0.0865  0.7862
   58SAPC   O11 4308   0.959   0.479   6.347  0.0472  0.1141  0.1509
   58SAPC    C1 4309   1.104   0.498   6.363  0.4044 -0.2506 -0.3461
   58SAPC    HA 4310   1.130   0.598   6.404 -0.8346  0.6636 -1.6639
   58SAPC    HB 4311   1.131   0.420   6.437 -0.3605  0.5800  0.8558
   58SAPC    C2 4312   1.177   0.479   6.229  0.2117 -0.9477 -0.4663
   58SAPC    HS 4313   1.241   0.567   6.213 -0.8478 -0.2021 -0.7201
   58SAPC   O21 4314   1.084   0.455   6.122 -0.7068 -0.6152  0.0613
   58SAPC   C21 4315   1.062   0.564   6.047  0.0554  0.5875 -0.1425
   58SAPC   O22 4316   1.106   0.680   6.065 -0.6936  0.6125 -0.1872
   58SAPC   C22 4317   0.961   0.522   5.937 -0.3360 -0.0148  0.1428
   58SAPC   H2R 4318   0.961   0.414   5.909  2.7442  0.6816 -3.2999
   58SAPC   H2S 4319   0.868   0.556   5.986  0.0268 -0.3730  1.1186
   58SAPC    C3 4320   1.279   0.360   6.215  0.5671 -0.4267 -0.8657
   58SAPC    HX 4321   1.236   0.259   6.231  0.5826 -0.5186 -1.3746
   58SAPC    HY 4322   1.342   0.391   6.302  0.2218 -2.0930  0.0158
   58SAPC   O31 4323   1.352   0.379   6.088 -0.4302  0.9163 -0.2044
   58SAPC   C31 4324   1.314   0.306   5.982  0.2871 -0.1956 -0.0608
   58SAPC   O32 4325   1.245   0.204   5.985 -0.1153 -0.1808  0.4519
   58SAPC   C32 4326   1.365   0.374   5.852  0.3380 -0.3556  1.1659
   58SAPC   H2X 4327   1.474   0.359   5.840  0.4333  1.0144  0.0393
   58SAPC   H2Y 4328   1.353   0.485   5.859  1.7507 -0.0676 -0.4695
   58SAPC   C23 4329   1.005   0.595   5.808  0.4713  0.4222  0.0871
   58SAPC   H3R 4330   1.098   0.558   5.760  0.1698 -0.0832 -0.1116
   58SAPC   H3S 4331   1.026   0.699   5.842  0.2943 -0.5754  3.6136
   58SAPC   C24 4332   0.891   0.599   5.712 -0.2101  0.0418 -0.8957
   58SAPC   H4R 4333   0.818   0.671   5.755 -1.0646 -0.6709 -1.1229
   58SAPC   H4S 4334   0.840   0.500   5.707 -2.8104  1.2730 -0.3571
   58SAPC   C25 4335   0.939   0.642   5.578 -0.2964 -0.2885 -0.4687
   58SAPC   H5R 4336   0.965   0.747   5.561 -0.0737  0.2068  2.3607
   58SAPC   C26 4337   0.957   0.557   5.474 -0.1543 -0.6488  0.4783
   58SAPC   H6R 4338   0.982   0.608   5.380  2.6792 -0.6100  1.1747
   58SAPC   C27 4339   0.946   0.409   5.471  0.3502 -0.0168 -1.0161
   58SAPC   H7R 4340   0.841   0.371   5.468  0.7973 -1.8225  2.2897
   58SAPC   H7S 4341   0.965   0.374   5.574 -0.9279 -0.5857 -0.9575
   58SAPC   C28 4342   1.036   0.340   5.367  1.2114  0.2218 -0.1713
   58SAPC   H8R 4343   1.112   0.276   5.415  1.0098  0.3391  0.3108
   58SAPC   C29 4344   1.012   0.345   5.232 -0.3464  0.0982 -0.6658
   58SAPC   H9R 4345   1.077   0.275   5.177 -0.8054 -2.0177  1.3100
   58SAPC  C210 4346   0.904   0.413   5.160  0.5822 -0.4044  0.0684
   58SAPC  H10R 4347   0.846   0.480   5.226 -1.4023 -1.4165 -0.5639
   58SAPC  H10S 4348   0.832   0.339   5.119 -1.7486 -0.4311  3.8208
   58SAPC  C211 4349   0.959   0.496   5.041  0.2416 -0.1278  0.0344
   58SAPC  H11R 4350   1.019   0.582   5.072 -1.1048  0.7572  0.3038
   58SAPC  C212 4351   0.937   0.477   4.905 -0.3347  0.0172 -0.9158
   58SAPC  H12R 4352   0.983   0.552   4.839 -2.8460  2.9942  0.4607
   58SAPC  C213 4353   0.848   0.371   4.843 -0.4383  0.2985  0.1080
   58SAPC  H13R 4354   0.811   0.309   4.927  1.2402  1.4528  1.7653
   58SAPC  H13S 4355   0.904   0.296   4.782  0.6605  0.4098  0.9564
   58SAPC  C214 4356   0.742   0.421   4.751 -0.3147 -0.0784 -0.1939
   58SAPC  H14R 4357   0.655   0.460   4.807  0.6146 -0.0822  1.2808
   58SAPC  C215 4358   0.753   0.440   4.617  0.2471 -0.0794 -1.0041
   58SAPC  H15R 4359   0.657   0.458   4.566 -1.2861 -1.9969  0.9866
   58SAPC  C216 4360   0.867   0.394   4.530  0.2275 -0.1887  0.1454
   58SAPC  H16R 4361   0.955   0.357   4.586 -1.1256 -2.8366  0.6767
   58SAPC  H16S 4362   0.906   0.478   4.469 -1.1815 -2.3507 -4.1430
   58SAPC  C217 4363   0.844   0.286   4.417  0.3531  0.0682 -0.4434
   58SAPC  H17R 4364   0.802   0.194   4.462 -1.4890  0.6228 -0.9534
   58SAPC  H17S 4365   0.950   0.272   4.386  0.5215  2.1340 -0.9700
   58SAPC  C218 4366   0.766   0.340   4.299  0.5015 -0.8815 -0.0963
   58SAPC  H18R 4367   0.809   0.294   4.207 -1.5543  0.1024 -1.6269
   58SAPC  H18S 4368   0.794   0.447   4.286  1.9792 -1.4179 -1.8731
   58SAPC  C219 4369   0.622   0.317   4.295 -0.4492  0.3668 -0.2394
   58SAPC  H19R 4370   0.576   0.353   4.390  0.7362  0.3873  0.3549
   58SAPC  H19S 4371   0.601   0.208   4.292  0.3941  0.1211  1.3360
   58SAPC  C220 4372   0.543   0.376   4.180 -0.3649 -0.1933  1.0067
   58SAPC  H20R 4373   0.518   0.477   4.217 -0.5931 -0.1367  0.6981
   58SAPC  H20S 4374   0.448   0.323   4.156 -1.6230  2.3900 -0.1380
   58SAPC  H20T 4375   0.609   0.382   4.091 -1.3588  1.5596  0.3545
   58SAPC   C33 4376   1.298   0.319   5.727  0.3403 -0.4667 -0.6507
   58SAPC   H3X 4377   1.189   0.321   5.743  0.6054 -0.8180  1.4594
   58SAPC   H3Y 4378   1.329   0.215   5.704 -1.5893 -0.8620 -1.5889
   58SAPC   C34 4379   1.323   0.416   5.611  0.1767  0.1242  1.1332
   58SAPC   H4X 4380   1.300   0.522   5.637  0.1881  1.6307 -3.9394
   58SAPC   H4Y 4381   1.254   0.388   5.529  0.0511  0.3120  1.1736
   58SAPC   C35 4382   1.465   0.420   5.568 -0.3244  0.2007  0.6960
   58SAPC   H5X 4383   1.504   0.319   5.544 -0.9557 -0.0744  0.7970
   58SAPC   H5Y 4384   1.530   0.465   5.646 -1.5070  2.5517  0.4331
   58SAPC   C36 4385   1.501   0.506   5.444  0.7880 -0.3644 -0.7589
   58SAPC   H6X 4386   1.608   0.517   5.417  0.4875 -1.0519 -2.4069
   58SAPC   H6Y 4387   1.461   0.608   5.461 -1.9009 -1.5054  0.2851
   58SAPC   C37 4388   1.441   0.435   5.323  0.4081  0.3651  0.0447
   58SAPC   H7X 4389   1.332   0.452   5.338  0.0152 -0.8340 -1.2746
   58SAPC   H7Y 4390   1.460   0.327   5.311 -1.8234  0.0388 -1.1853
   58SAPC   C38 4391   1.484   0.507   5.185  0.0709  0.1238 -0.0132
   58SAPC   H8X 4392   1.593   0.492   5.173  0.0081  0.7636 -1.5782
   58SAPC   H8Y 4393   1.458   0.615   5.195  0.9883  0.3179  0.3176
   58SAPC   C39 4394   1.405   0.444   5.071  0.4233  0.3586  0.6302
   58SAPC   H9X 4395   1.295   0.455   5.081  0.4282 -0.4929  2.0068
   58SAPC   H9Y 4396   1.434   0.337   5.060 -0.1371  0.2189  0.4722
   58SAPC  C310 4397   1.435   0.504   4.935  0.1858 -0.0648  0.4421
   58SAPC  H10X 4398   1.542   0.533   4.938  0.2176  0.1970 -1.6617
   58SAPC  H10Y 4399   1.372   0.596   4.935 -1.2291 -0.9496  2.3543
   58SAPC  C311 4400   1.388   0.421   4.807 -0.5298 -0.6659 -0.2761
   58SAPC  H11X 4401   1.295   0.374   4.845  0.5520  0.0844  3.8377
   58SAPC  H11Y 4402   1.454   0.332   4.797  0.8168 -0.2211  3.2005
   58SAPC  C312 4403   1.369   0.497   4.678 -0.0916  0.5053  0.3908
   58SAPC  H12X 4404   1.467   0.546   4.660  0.6165 -1.0423 -0.1536
   58SAPC  H12Y 4405   1.296   0.577   4.704 -1.3439 -0.7321  0.8713
   58SAPC  C313 4406   1.327   0.418   4.550 -0.0538 -0.5638  0.9693
   58SAPC  H13X 4407   1.242   0.347   4.554  0.1787 -0.8958  0.0189
   58SAPC  H13Y 4408   1.418   0.363   4.518 -0.5026  0.4159 -2.4188
   58SAPC  C314 4409   1.296   0.516   4.434 -0.2628 -0.4684 -0.2271
   58SAPC  H14X 4410   1.380   0.588   4.431 -0.3329 -0.3508  0.4461
   58SAPC  H14Y 4411   1.214   0.586   4.460  0.4231 -0.5355  2.3922
   58SAPC  C315 4412   1.283   0.437   4.300  0.6383 -0.6947  0.0622
   58SAPC  H15X 4413   1.205   0.359   4.313  0.2604 -0.3223  0.0530
   58SAPC  H15Y 4414   1.381   0.392   4.274  2.3823  2.1218  1.2710
   58SAPC  C316 4415   1.247   0.514   4.170  0.4479  0.0017 -0.2042
   58SAPC  H16X 4416   1.141   0.549   4.180  1.1065  1.6015  2.1085
   58SAPC  H16Y 4417   1.253   0.435   4.093 -0.4051 -0.4475  0.1725
   58SAPC  C317 4418   1.333   0.630   4.134 -0.4382 -0.0429 -0.3305
   58SAPC  H17X 4419   1.437   0.592   4.147 -0.5158 -0.2285 -0.2376
   58SAPC  H17Y 4420   1.330   0.715   4.206 -1.2671  0.7344 -1.2512
   58SAPC  C318 4421   1.309   0.669   3.994 -0.3819 -1.0293  0.2173
   58SAPC  H18X 4422   1.382   0.748   3.967 -0.5300 -0.7044  0.7512
   58SAPC  H18Y 4423   1.202   0.700   3.988 -0.3423 -1.0426 -0.7394
   58SAPC  H18Z 4424   1.326   0.590   3.918  1.3362  1.0228 -1.6879
   59SAPC     N 4425   6.024   3.074   6.600 -0.4414  0.3954 -0.6685
   59SAPC   C12 4426   6.145   3.099   6.692  0.1795  0.2008 -0.3003
   59SAPC  H12A 4427   6.130   3.187   6.753  2.8267  0.4918  0.0571
   59SAPC  H12B 4428   6.231   3.128   6.634  0.7173  1.3285  1.0121
   59SAPC   C13 4429   6.045   2.959   6.499  0.4953 -0.0638  0.3843
   59SAPC  H13A 4430   5.957   2.957   6.436  0.2961  0.5320  0.6292
   59SAPC  H13B 4431   6.128   2.990   6.437 -1.1020  1.2088 -1.2628
   59SAPC  H13C 4432   6.066   2.862   6.541  1.7613 -1.0659 -2.3455
   59SAPC   C14 4433   5.903   3.046   6.681 -0.4823  0.3752 -0.5345
   59SAPC  H14A 4434   5.924   2.983   6.765 -2.6119 -0.9639 -0.9261
   59SAPC  H14B 4435   5.854   3.132   6.724 -1.0078 -0.7125  1.1150
   59SAPC  H14C 4436   5.832   2.995   6.618  0.0356  0.2153 -1.0002
   59SAPC   C15 4437   5.995   3.190   6.527  0.0052 -0.1626  0.3293
   59SAPC  H15A 4438   5.924   3.177   6.446  0.5220 -1.6285  0.0818
   59SAPC  H15B 4439   5.947   3.260   6.593 -4.1661 -1.4162 -1.0785
   59SAPC  H15C 4440   6.085   3.236   6.489  1.3200  0.7911  4.1189
   59SAPC   C11 4441   6.187   2.980   6.789  0.4152 -0.1079 -0.1307
   59SAPC  H11A 4442   6.097   2.922   6.817  0.4368  0.0309  0.2425
   59SAPC  H11B 4443   6.222   3.033   6.881  0.4130  1.4765 -1.0142
   59SAPC     P 4444   6.433   2.919   6.690  0.2384 -0.4156 -0.0947
   59SAPC   O13 4445   6.528   2.900   6.802  0.2413 -0.0419 -0.1573
   59SAPC   O14 4446   6.467   2.837   6.572 -0.0611  0.1034  0.2196
   59SAPC   O12 4447   6.285   2.895   6.732 -0.6555  0.2705  0.2989
   59SAPC   O11 4448   6.436   3.072   6.651  0.0964  0.4750  0.5952
   59SAPC    C1 4449   6.554   3.154   6.634  0.0260  0.1287  0.4360
   59SAPC    HA 4450   6.547   3.237   6.707 -0.0091 -1.6406  2.5413
   59SAPC    HB 4451   6.652   3.104   6.652  0.5401  0.2433 -1.7387
   59SAPC    C2 4452   6.557   3.215   6.496  0.2968  0.3039  0.7132
   59SAPC    HS 4453   6.470   3.285   6.495  0.1385  0.4560 -4.3284
   59SAPC   O21 4454   6.543   3.110   6.402  0.5006 -0.1802  0.9452
   59SAPC   C21 4455   6.485   3.137   6.287  0.4504 -0.1687  0.5722
   59SAPC   O22 4456   6.428   3.244   6.262 -0.4174 -0.2747 -0.8285
   59SAPC   C22 4457   6.508   3.028   6.180 -0.3107 -0.4676  0.4727
   59SAPC   H2R 4458   6.598   2.965   6.198  0.0805 -0.5174 -1.5070
   59SAPC   H2S 4459   6.421   2.958   6.172  0.1457 -0.8491 -1.5537
   59SAPC    C3 4460   6.689   3.296   6.468  0.2177 -0.3818 -0.3234
   59SAPC    HX 4461   6.780   3.233   6.469  0.5038  0.0295  0.3564
   59SAPC    HY 4462   6.698   3.360   6.558  1.4246 -0.9539 -0.0196
   59SAPC   O31 4463   6.683   3.381   6.351  0.0297  0.2533  0.0622
   59SAPC   C31 4464   6.770   3.360   6.251 -0.1176  0.6884  0.4366
   59SAPC   O32 4465   6.837   3.259   6.237  0.1638  0.4548  0.2652
   59SAPC   C32 4466   6.755   3.472   6.145  0.5371  0.0838  0.0041
   59SAPC   H2X 4467   6.781   3.565   6.200  0.6269  1.3525 -2.0443
   59SAPC   H2Y 4468   6.647   3.483   6.124  0.1696  0.7569  2.0302
   59SAPC   C23 4469   6.534   3.090   6.044 -0.1634  0.0693  0.2821
   59SAPC   H3R 4470   6.591   3.027   5.972  1.3618  3.9650 -2.2419
   59SAPC   H3S 4471   6.600   3.178   6.059  0.7425 -0.0024 -2.7290
   59SAPC   C24 4472   6.408   3.143   5.969  0.5451  0.4485  0.3514
   59SAPC   H4R 4473   6.432   3.203   5.878 -0.2817  2.3399  1.3209
   59SAPC   H4S 4474   6.370   3.222   6.038  0.2021  0.3193  0.3148
   59SAPC   C25 4475   6.305   3.032   5.939 -0.6314  0.4442  0.4183
   59SAPC   H5R 4476   6.231   3.014   6.018  0.3381 -0.2470  1.2009
   59SAPC   C26 4477   6.308   2.960   5.820  0.2923  0.3616 -0.0826
   59SAPC   H6R 4478   6.238   2.877   5.800  1.2604 -0.7256  0.8774
   59SAPC   C27 4479   6.417   2.983   5.712  0.5286  0.4399  0.1355
   59SAPC   H7R 4480   6.453   2.881   5.688 -0.1096  0.0433  0.8175
   59SAPC   H7S 4481   6.498   3.040   5.763 -0.5069  1.8270  0.2948
   59SAPC   C28 4482   6.370   3.061   5.592  0.7893 -0.4317 -0.3871
   59SAPC   H8R 4483   6.287   3.132   5.609 -2.0897 -3.4664 -0.8482
   59SAPC   C29 4484   6.399   3.036   5.465 -0.6720 -0.0854  0.0687
   59SAPC   H9R 4485   6.349   3.094   5.387 -2.0394 -0.0320  0.9597
   59SAPC  C210 4486   6.509   2.938   5.420  0.0568 -0.4570  0.5513
   59SAPC  H10R 4487   6.468   2.836   5.402  0.7927 -0.4561 -1.3272
   59SAPC  H10S 4488   6.582   2.921   5.502 -0.1589 -2.2169  0.4150
   59SAPC  C211 4489   6.577   2.993   5.302  0.4821 -0.3548 -0.3489
   59SAPC  H11R 4490   6.677   3.032   5.326  0.5262 -1.5257  1.5933
   59SAPC  C212 4491   6.537   2.975   5.172 -0.0217 -0.1741  0.8237
   59SAPC  H12R 4492   6.597   3.026   5.095 -1.0366  1.3369  1.0023
   59SAPC  C213 4493   6.406   2.907   5.127  0.1605 -0.4176  0.3887
   59SAPC  H13R 4494   6.354   2.846   5.204  0.2258 -1.4099 -0.3296
   59SAPC  H13S 4495   6.426   2.829   5.050  1.9985 -1.0197  1.4378
   59SAPC  C214 4496   6.333   3.033   5.079  0.2357  0.7621  0.3226
   59SAPC  H14R 4497   6.288   3.101   5.154 -3.3936 -1.2058  0.1198
   59SAPC  C215 4498   6.303   3.054   4.949 -0.2099 -1.2357 -0.6528
   59SAPC  H15R 4499   6.247   3.141   4.913  1.0771 -1.0750 -2.3672
   59SAPC  C216 4500   6.364   2.969   4.843  0.0088 -0.5800 -0.0603
   59SAPC  H16R 4501   6.324   2.866   4.849  0.1247 -0.6111  0.1863
   59SAPC  H16S 4502   6.471   2.963   4.873  0.2816 -1.3531 -1.1043
   59SAPC  C217 4503   6.350   3.027   4.700 -0.2530  0.5982  0.1740
   59SAPC  H17R 4504   6.417   3.115   4.696  2.5533 -1.4072  0.0785
   59SAPC  H17S 4505   6.247   3.063   4.681 -0.8963 -1.5491 -0.6781
   59SAPC  C218 4506   6.387   2.933   4.583  0.2952 -0.4595  0.2671
   59SAPC  H18R 4507   6.396   2.991   4.488  3.9078 -1.3035 -0.0585
   59SAPC  H18S 4508   6.313   2.851   4.581 -0.0112 -0.1815  0.1037
   59SAPC  C219 4509   6.522   2.878   4.600 -0.3615 -0.0041  0.1693
   59SAPC  H19R 4510   6.545   2.825   4.695 -0.5552  0.6141  0.5641
   59SAPC  H19S 4511   6.601   2.955   4.614  0.0381 -0.1235 -1.2898
   59SAPC  C220 4512   6.560   2.787   4.483  0.5754 -0.5231 -0.5906
   59SAPC  H20R 4513   6.650   2.727   4.507  0.0196 -1.1982 -0.1589
   59SAPC  H20S 4514   6.582   2.834   4.385  0.3843 -0.0888 -0.4292
   59SAPC  H20T 4515   6.480   2.712   4.466 -0.2652 -0.3002  1.9030
   59SAPC   C33 4516   6.852   3.463   6.028  0.3415  0.5319 -0.4054
   59SAPC   H3X 4517   6.944   3.404   6.047 -0.3821  0.5451  4.0149
   59SAPC   H3Y 4518   6.889   3.562   5.995  3.1981 -0.7479 -1.4056
   59SAPC   C34 4519   6.777   3.400   5.911  0.1260  0.9033 -0.8712
   59SAPC   H4X 4520   6.742   3.299   5.939  0.6603  0.0703 -3.0608
   59SAPC   H4Y 4521   6.854   3.374   5.836  2.2142 -0.2782  1.5362
   59SAPC   C35 4522   6.657   3.470   5.859 -0.9517  0.1242 -0.4166
   59SAPC   H5X 4523   6.680   3.577   5.837  0.9797  0.0872  1.1910
   59SAPC   H5Y 4524   6.567   3.472   5.923 -0.9056  0.3631 -0.3579
   59SAPC   C36 4525   6.609   3.411   5.724  0.4781  0.1139  0.0443
   59SAPC   H6X 4526   6.502   3.427   5.701  0.9080  1.8146 -0.9790
   59SAPC   H6Y 4527   6.607   3.301   5.718 -0.0377  0.1989 -2.9921
   59SAPC   C37 4528   6.687   3.470   5.609 -1.3300  0.3111  0.0251
   59SAPC   H7X 4529   6.791   3.485   5.646 -2.1448  1.2713  2.0658
   59SAPC   H7Y 4530   6.645   3.566   5.572 -0.8736 -0.2892 -2.2119
   59SAPC   C38 4531   6.688   3.359   5.498  0.1127 -0.2070  0.0015
   59SAPC   H8X 4532   6.585   3.321   5.478  0.0003  0.2123 -0.2261
   59SAPC   H8Y 4533   6.732   3.268   5.546 -1.6423 -0.3677  1.4400
   59SAPC   C39 4534   6.765   3.408   5.375  0.3547 -0.4253 -0.0900
   59SAPC   H9X 4535   6.871   3.399   5.406  0.2911  0.6103  0.4901
   59SAPC   H9Y 4536   6.750   3.518   5.367 -0.6928 -0.6595 -1.8487
   59SAPC  C310 4537   6.737   3.344   5.237  0.2297 -0.3609  0.0024
   59SAPC  H10X 4538   6.743   3.235   5.262  2.5747  0.0260  1.4730
   59SAPC  H10Y 4539   6.813   3.381   5.165  0.5460 -2.1809 -0.6718
   59SAPC  C311 4540   6.606   3.366   5.173  0.6972  0.5987 -0.5243
   59SAPC  H11X 4541   6.528   3.317   5.235 -0.7082  1.3327 -1.6445
   59SAPC  H11Y 4542   6.603   3.309   5.077 -1.7139  1.2145 -0.9071
   59SAPC  C312 4543   6.566   3.515   5.137  0.0156 -0.5093  0.2879
   59SAPC  H12X 4544   6.652   3.584   5.132 -1.5985  1.5404 -0.8972
   59SAPC  H12Y 4545   6.513   3.555   5.227  2.2697  0.1633  1.3849
   59SAPC  C313 4546   6.476   3.515   5.014  0.4125 -0.6139  0.3185
   59SAPC  H13X 4547   6.418   3.608   4.999 -0.3824 -0.8551  1.7158
   59SAPC  H13Y 4548   6.397   3.439   5.031 -0.9113  0.3430 -1.2549
   59SAPC  C314 4549   6.535   3.474   4.884  0.2420 -0.6198 -0.0447
   59SAPC  H14X 4550   6.587   3.376   4.890 -0.1237 -0.9207 -1.4161
   59SAPC  H14Y 4551   6.614   3.548   4.857  0.0570 -0.0005  1.0385
   59SAPC  C315 4552   6.445   3.464   4.765  0.1964 -0.0579 -0.4372
   59SAPC  H15X 4553   6.374   3.548   4.746 -2.0127 -1.2154  2.0799
   59SAPC  H15Y 4554   6.373   3.384   4.795 -0.0215  0.7107  1.1878
   59SAPC  C316 4555   6.518   3.426   4.643 -0.2687  0.6774 -0.2847
   59SAPC  H16X 4556   6.565   3.327   4.663 -0.5148  0.4550 -0.8028
   59SAPC  H16Y 4557   6.608   3.484   4.612 -1.4421  2.0762 -1.1816
   59SAPC  C317 4558   6.421   3.395   4.525 -0.2106 -0.3134  0.6116
   59SAPC  H17X 4559   6.369   3.489   4.495  2.0949  0.1949 -2.1975
   59SAPC  H17Y 4560   6.343   3.321   4.553  0.5172 -2.1661 -1.9301
   59SAPC  C318 4561   6.489   3.350   4.394 -0.2847  0.3185 -0.0483
   59SAPC  H18X 4562   6.408   3.334   4.320 -1.0777  0.3461  0.7882
   59SAPC  H18Y 4563   6.551   3.258   4.403  1.7725  1.4373 -1.9527
   59SAPC  H18Z 4564   6.563   3.422   4.353  0.6531 -2.2415 -3.3006
   60SAPC     N 4565   6.357   3.741   6.488  0.3767 -0.3178 -0.3456
   60SAPC   C12 4566   6.400   3.730   6.346  0.0237 -0.7768  0.1553
   60SAPC  H12A 4567   6.347   3.810   6.297 -1.7091 -0.2995  2.5738
   60SAPC  H12B 4568   6.352   3.641   6.308 -0.5635 -0.4174  0.0360
   60SAPC   C13 4569   6.428   3.640   6.577 -0.2881 -0.8475 -0.2700
   60SAPC  H13A 4570   6.390   3.633   6.678  1.4525  1.4834  0.6134
   60SAPC  H13B 4571   6.425   3.535   6.549 -1.2053 -0.8133 -0.3343
   60SAPC  H13C 4572   6.526   3.679   6.599 -1.8349  2.7762  0.8630
   60SAPC   C14 4573   6.399   3.872   6.554 -0.2961  0.0030 -0.5457
   60SAPC  H14A 4574   6.499   3.899   6.526 -0.3246  1.0077  0.2665
   60SAPC  H14B 4575   6.333   3.949   6.517 -1.3327 -1.2708 -1.4431
   60SAPC  H14C 4576   6.386   3.872   6.661  1.2302 -0.1238 -0.3463
   60SAPC   C15 4577   6.209   3.724   6.490 -0.3035  0.4395 -0.3366
   60SAPC  H15A 4578   6.176   3.736   6.592 -3.2650 -1.5776 -0.9098
   60SAPC  H15B 4579   6.164   3.806   6.435 -0.4591  0.8383  0.3745
   60SAPC  H15C 4580   6.171   3.631   6.453  0.0669 -0.2553  0.9706
   60SAPC   C11 4581   6.551   3.734   6.318 -0.1911  0.4327  0.0146
   60SAPC  H11A 4582   6.566   3.726   6.208  1.2948  1.4818  0.1107
   60SAPC  H11B 4583   6.589   3.640   6.364  0.1833  0.3583 -0.4323
   60SAPC     P 4584   6.636   3.989   6.305 -0.3569  0.6775 -0.1949
   60SAPC   O13 4585   6.503   4.050   6.288  0.1242  0.2011 -0.4786
   60SAPC   O14 4586   6.734   4.066   6.380 -0.3012 -0.2359 -0.1116
   60SAPC   O12 4587   6.623   3.845   6.377 -0.0939 -0.7299  0.5038
   60SAPC   O11 4588   6.691   3.950   6.162 -0.7442 -0.5476  0.1426
   60SAPC    C1 4589   6.816   3.885   6.152 -0.9202  0.4255 -0.2525
   60SAPC    HA 4590   6.845   3.831   6.244 -0.2321  0.0322 -0.6954
   60SAPC    HB 4591   6.809   3.817   6.065 -2.5976 -0.7155  0.7135
   60SAPC    C2 4592   6.929   3.991   6.116  0.0382  0.8165 -0.4390
   60SAPC    HS 4593   6.940   4.068   6.195  0.2091  0.5324 -0.1867
   60SAPC   O21 4594   6.912   4.044   5.981  0.1926  0.2691  0.8149
   60SAPC   C21 4595   6.837   4.152   5.976  0.5912  0.5025  0.3979
   60SAPC   O22 4596   6.788   4.209   6.070  0.6136 -0.2597  0.3835
   60SAPC   C22 4597   6.809   4.181   5.827 -0.0210 -0.3635  0.1455
   60SAPC   H2R 4598   6.911   4.182   5.783  1.1623  0.6972  2.6955
   60SAPC   H2S 4599   6.749   4.094   5.795 -2.4404  0.0669  3.0475
   60SAPC    C3 4600   7.071   3.918   6.123 -0.2852  0.6718  0.7071
   60SAPC    HX 4601   7.059   3.834   6.052 -0.3636 -0.6469  2.2198
   60SAPC    HY 4602   7.074   3.876   6.226  0.1505 -3.7656 -0.9115
   60SAPC   O31 4603   7.186   4.004   6.103  0.1253 -0.1936  0.1069
   60SAPC   C31 4604   7.236   4.004   5.981  0.0914  0.5784  0.9788
   60SAPC   O32 4605   7.212   3.931   5.889 -0.0776 -0.3328 -0.2432
   60SAPC   C32 4606   7.346   4.106   5.974 -0.8051 -0.4442  0.0081
   60SAPC   H2X 4607   7.435   4.086   5.910  1.8149  0.3061  3.1636
   60SAPC   H2Y 4608   7.389   4.126   6.075 -0.9196  3.0017 -0.5076
   60SAPC   C23 4609   6.740   4.319   5.808  0.0854  0.4184 -0.3199
   60SAPC   H3R 4610   6.795   4.404   5.854 -0.6839 -0.4974  2.4194
   60SAPC   H3S 4611   6.635   4.317   5.842  0.1415 -0.2041 -0.1735
   60SAPC   C24 4612   6.731   4.351   5.655 -0.0772  0.9950 -0.7674
   60SAPC   H4R 4613   6.833   4.365   5.612 -0.5691 -1.6391 -3.1092
   60SAPC   H4S 4614   6.674   4.446   5.650 -0.8083  0.6978  0.9896
   60SAPC   C25 4615   6.670   4.244   5.572  0.4937  0.0691  0.1880
   60SAPC   H5R 4616   6.593   4.186   5.625 -1.4042  2.8964  0.7409
   60SAPC   C26 4617   6.675   4.239   5.430 -0.2391 -0.1983 -0.5302
   60SAPC   H6R 4618   6.626   4.154   5.381 -0.4444 -0.6457  0.4186
   60SAPC   C27 4619   6.775   4.315   5.344 -0.1023  0.1046  0.2273
   60SAPC   H7R 4620   6.852   4.252   5.296  2.4106  1.4535  2.2128
   60SAPC   H7S 4621   6.845   4.378   5.403  0.2125  0.1147 -0.1559
   60SAPC   C28 4622   6.702   4.403   5.251 -0.8340  0.3028  0.1681
   60SAPC   H8R 4623   6.690   4.508   5.284  1.5489  0.6002  0.2919
   60SAPC   C29 4624   6.678   4.376   5.123  0.2337 -0.2312 -0.5423
   60SAPC   H9R 4625   6.622   4.455   5.071  0.2010 -0.6811 -1.1943
   60SAPC  C210 4626   6.701   4.249   5.046 -0.0268  0.2739 -0.8594
   60SAPC  H10R 4627   6.724   4.160   5.108  0.6082  0.6011 -0.6197
   60SAPC  H10S 4628   6.800   4.275   5.003  0.2791 -0.3622 -0.5477
   60SAPC  C211 4629   6.600   4.223   4.945  0.5238  0.6030  0.1802
   60SAPC  H11R 4630   6.513   4.164   4.980  0.7495 -2.2351 -3.4270
   60SAPC  C212 4631   6.588   4.266   4.820 -0.4578  0.0953  0.1651
   60SAPC  H12R 4632   6.507   4.227   4.756  0.2123  1.4028 -1.5777
   60SAPC  C213 4633   6.698   4.338   4.747  0.4052  0.1935  0.0405
   60SAPC  H13R 4634   6.743   4.269   4.673  1.1486  1.5648 -0.8234
   60SAPC  H13S 4635   6.783   4.362   4.814 -0.3461  0.0496  1.0727
   60SAPC  C214 4636   6.636   4.453   4.669 -0.4489 -0.3856  0.2234
   60SAPC  H14R 4637   6.561   4.516   4.720  0.3400  0.2712  0.5969
   60SAPC  C215 4638   6.640   4.466   4.537 -0.2556 -0.3025  0.1904
   60SAPC  H15R 4639   6.594   4.553   4.486  0.3512 -0.1550 -0.1160
   60SAPC  C216 4640   6.726   4.385   4.440  0.1759  0.0521 -0.1527
   60SAPC  H16R 4641   6.821   4.356   4.489 -0.6320 -2.0333  0.2630
   60SAPC  H16S 4642   6.750   4.451   4.353  1.1779  0.4954  0.4387
   60SAPC  C217 4643   6.671   4.253   4.372  0.5120  0.0865  0.1769
   60SAPC  H17R 4644   6.677   4.171   4.447  0.3332 -1.2123 -1.1693
   60SAPC  H17S 4645   6.737   4.214   4.292  1.6340 -0.9668  1.5515
   60SAPC  C218 4646   6.529   4.269   4.312 -0.0499  0.1147  0.8486
   60SAPC  H18R 4647   6.523   4.374   4.275 -1.7370  1.3454  4.1934
   60SAPC  H18S 4648   6.447   4.271   4.386  1.4780  0.6285  2.5927
   60SAPC  C219 4649   6.493   4.171   4.195  0.6273  0.3070 -0.2009
   60SAPC  H19R 4650   6.485   4.070   4.239 -0.5131 -0.5984 -2.3389
   60SAPC  H19S 4651   6.576   4.167   4.122 -0.2804  0.0282 -1.2469
   60SAPC  C220 4652   6.362   4.202   4.124  0.2523  0.0530  0.0450
   60SAPC  H20R 4653   6.279   4.194   4.198  3.3347  1.0107  3.9386
   60SAPC  H20S 4654   6.326   4.135   4.043 -0.9021  0.1930  0.4156
   60SAPC  H20T 4655   6.363   4.299   4.070 -0.1530 -0.9370 -1.8287
   60SAPC   C33 4656   7.282   4.245   5.944  0.1315 -0.5073 -0.7206
   60SAPC   H3X 4657   7.359   4.325   5.938 -1.6369  1.4018  0.5841
   60SAPC   H3Y 4658   7.221   4.267   6.034  1.2214 -2.5901  0.5992
   60SAPC   C34 4659   7.184   4.260   5.831  0.1051 -0.3589 -0.1807
   60SAPC   H4X 4660   7.140   4.362   5.830  1.8289  0.5138 -3.3971
   60SAPC   H4Y 4661   7.098   4.190   5.842 -2.0310  2.0419 -0.6361
   60SAPC   C35 4662   7.236   4.222   5.695 -0.4424  0.2072  0.0440
   60SAPC   H5X 4663   7.248   4.111   5.697  2.1212  0.3756 -1.6175
   60SAPC   H5Y 4664   7.337   4.267   5.682 -0.6374  0.8704  0.7605
   60SAPC   C36 4665   7.148   4.263   5.582  0.4370 -0.3306 -0.7817
   60SAPC   H6X 4666   7.133   4.373   5.589  0.8838 -0.2126 -1.5617
   60SAPC   H6Y 4667   7.048   4.216   5.586 -1.3709  2.9513 -2.7152
   60SAPC   C37 4668   7.217   4.242   5.445  0.9866 -0.1267 -0.3765
   60SAPC   H7X 4669   7.236   4.133   5.447 -0.8114 -0.4536  0.2760
   60SAPC   H7Y 4670   7.312   4.295   5.421  0.6066  0.2505 -1.0541
   60SAPC   C38 4671   7.119   4.279   5.330  0.7644  0.4336  0.0564
   60SAPC   H8X 4672   7.059   4.372   5.342 -1.4543 -1.2260  3.3471
   60SAPC   H8Y 4673   7.048   4.195   5.313  0.7684  0.1544  1.3221
   60SAPC   C39 4674   7.192   4.281   5.195 -0.5741 -0.3993  0.1153
   60SAPC   H9X 4675   7.270   4.203   5.201  0.7709  0.9984  1.3456
   60SAPC   H9Y 4676   7.251   4.375   5.197  1.1456 -1.4449  0.1242
   60SAPC  C310 4677   7.110   4.278   5.056  0.4245  0.0437 -0.2828
   60SAPC  H10X 4678   7.059   4.371   5.022 -1.6399 -1.4981 -1.6852
   60SAPC  H10Y 4679   7.036   4.199   5.082  2.3545 -1.7811 -0.0569
   60SAPC  C311 4680   7.203   4.229   4.941  0.3432  0.6487 -0.5681
   60SAPC  H11X 4681   7.145   4.175   4.863 -0.4188 -1.4361  1.3309
   60SAPC  H11Y 4682   7.272   4.150   4.977  0.5561  0.6878 -0.8831
   60SAPC  C312 4683   7.286   4.337   4.877 -0.1352 -0.0815 -0.1818
   60SAPC  H12X 4684   7.377   4.292   4.833  0.1378  2.4269 -2.4738
   60SAPC  H12Y 4685   7.332   4.381   4.968  0.4999 -2.5439  0.7640
   60SAPC  C313 4686   7.205   4.433   4.790 -0.5823  0.1972 -0.2222
   60SAPC  H13X 4687   7.273   4.518   4.768  0.3971 -0.9612 -1.9319
   60SAPC  H13Y 4688   7.118   4.482   4.839 -0.2464  1.7028 -1.0567
   60SAPC  C314 4689   7.149   4.371   4.659  0.3025 -0.0508  0.1283
   60SAPC  H14X 4690   7.079   4.290   4.687 -0.5312  0.0463 -1.5583
   60SAPC  H14Y 4691   7.234   4.338   4.596  2.6989  2.3099  1.8876
   60SAPC  C315 4692   7.064   4.470   4.572 -0.0331  0.9052 -0.1377
   60SAPC  H15X 4693   6.971   4.505   4.621 -0.3438 -0.5022  0.3281
   60SAPC  H15Y 4694   7.018   4.417   4.486 -1.1925  0.7766  0.5447
   60SAPC  C316 4695   7.143   4.587   4.509  0.0217  0.3537  0.2769
   60SAPC  H16X 4696   7.239   4.546   4.471  0.2078  1.3699 -0.3948
   60SAPC  H16Y 4697   7.163   4.655   4.594  1.1719  1.7241 -1.0064
   60SAPC  C317 4698   7.070   4.667   4.404 -0.3557 -0.1595 -0.2533
   60SAPC  H17X 4699   7.124   4.764   4.399  0.2582 -0.5294 -1.0789
   60SAPC  H17Y 4700   6.970   4.698   4.440  0.6326 -0.2019  2.7380
   60SAPC  C318 4701   7.069   4.607   4.256 -0.3567 -0.3826 -0.1426
   60SAPC  H18X 4702   7.177   4.605   4.230 -0.1712 -0.3546  0.5962
   60SAPC  H18Y 4703   7.016   4.684   4.197 -1.6322  0.6603  2.2254
   60SAPC  H18Z 4704   7.029   4.503   4.264 -0.0095 -0.4509  0.9284
   61SAPC     N 4705   5.154   4.877   7.326  0.2978  0.2510  0.0277
   61SAPC   C12 4706   5.267   4.795   7.255  0.4683 -0.2414 -0.0590
   61SAPC  H12A 4707   5.286   4.710   7.319 -0.0937 -0.6214 -0.3876
   61SAPC  H12B 4708   5.348   4.866   7.244  0.0045  0.5985  1.6233
   61SAPC   C13 4709   5.208   4.916   7.464  0.2205 -0.3670  0.1013
   61SAPC  H13A 4710   5.135   4.968   7.525  0.6731  1.2688 -0.6836
   61SAPC  H13B 4711   5.237   4.825   7.515  1.4287 -1.3192 -2.1387
   61SAPC  H13C 4712   5.293   4.981   7.447 -0.7475  1.2184  1.0190
   61SAPC   C14 4713   5.113   4.995   7.249  0.4859 -1.2327 -0.1482
   61SAPC  H14A 4714   5.196   5.063   7.237 -0.3689 -0.0121  0.6118
   61SAPC  H14B 4715   5.079   4.961   7.152 -1.7935  0.9588 -0.2366
   61SAPC  H14C 4716   5.036   5.041   7.310  1.8185  1.3360 -0.2650
   61SAPC   C15 4717   5.032   4.791   7.352 -0.5429 -1.0207 -0.0982
   61SAPC  H15A 4718   5.047   4.714   7.426  2.8805 -2.4090 -2.0213
   61SAPC  H15B 4719   4.949   4.856   7.376 -2.6752 -3.2407 -1.0205
   61SAPC  H15C 4720   4.996   4.741   7.263 -1.7272  0.3941 -0.4507
   61SAPC   C11 4721   5.239   4.727   7.116 -0.3184  0.0651  1.0403
   61SAPC  H11A 4722   5.146   4.666   7.123 -2.0162  1.8448 -2.8310
   61SAPC  H11B 4723   5.322   4.658   7.090 -1.7795 -0.4922 -2.9540
   61SAPC     P 4724   5.323   4.894   6.936  0.3202 -0.3331  0.0523
   61SAPC   O13 4725   5.259   5.023   6.887  0.2100  0.0285  0.4921
   61SAPC   O14 4726   5.445   4.911   7.021 -0.1303  0.0388  0.6935
   61SAPC   O12 4727   5.206   4.812   7.008 -0.1067 -0.0159 -0.0993
   61SAPC   O11 4728   5.359   4.800   6.810 -0.6159  0.4726 -0.2872
   61SAPC    C1 4729   5.261   4.780   6.710 -0.3223  0.1258 -0.3826
   61SAPC    HA 4730   5.222   4.676   6.719  0.5139 -0.0368  1.9763
   61SAPC    HB 4731   5.169   4.840   6.727 -0.3133  0.4075 -1.2938
   61SAPC    C2 4732   5.306   4.815   6.564 -0.7770  0.5446  0.1997
   61SAPC    HS 4733   5.224   4.821   6.489  0.3114  0.0850 -1.0694
   61SAPC   O21 4734   5.401   4.715   6.519  0.1207 -0.5138  0.0629
   61SAPC   C21 4735   5.356   4.595   6.496  0.1451  0.1118  0.1167
   61SAPC   O22 4736   5.241   4.563   6.514  0.6287  0.9151  0.6091
   61SAPC   C22 4737   5.467   4.512   6.423  0.6629 -0.2622 -0.6613
   61SAPC   H2R 4738   5.560   4.537   6.477 -0.7422  1.9403  0.8894
   61SAPC   H2S 4739   5.443   4.404   6.439 -0.0932  0.1398  1.0694
   61SAPC    C3 4740   5.371   4.954   6.568 -0.0695  0.0245  0.9560
   61SAPC    HX 4741   5.453   4.969   6.642  1.9786  0.9893 -1.3414
   61SAPC    HY 4742   5.287   5.024   6.587 -0.0492  0.6991 -1.1567
   61SAPC   O31 4743   5.412   4.988   6.438 -0.5859  0.0990 -0.3291
   61SAPC   C31 4744   5.535   4.973   6.390  0.3581 -1.0871 -1.0096
   61SAPC   O32 4745   5.626   4.938   6.462  0.1298 -0.0427  0.3029
   61SAPC   C32 4746   5.558   5.008   6.244  0.1066 -0.1221  0.0317
   61SAPC   H2X 4747   5.597   5.112   6.235 -0.5073  0.0003 -1.6872
   61SAPC   H2Y 4748   5.453   5.006   6.209 -0.3494 -3.1219  1.2788
   61SAPC   C23 4749   5.476   4.567   6.278  0.5860 -0.2426 -0.2793
   61SAPC   H3R 4750   5.511   4.672   6.271 -1.2718  0.3273 -2.0248
   61SAPC   H3S 4751   5.381   4.563   6.221 -0.2676  0.7759  1.0496
   61SAPC   C24 4752   5.567   4.470   6.199  0.1216 -0.0166 -0.4463
   61SAPC   H4R 4753   5.524   4.369   6.218  2.1564 -0.8996 -0.2668
   61SAPC   H4S 4754   5.665   4.463   6.251  0.3327  2.3599 -0.4195
   61SAPC   C25 4755   5.582   4.487   6.051  0.4312 -0.1212  0.5480
   61SAPC   H5R 4756   5.665   4.552   6.020 -0.7283  1.7034  1.0936
   61SAPC   C26 4757   5.493   4.445   5.957  0.2937 -0.6308  0.7775
   61SAPC   H6R 4758   5.518   4.465   5.852  1.5397  0.4703  1.2556
   61SAPC   C27 4759   5.367   4.368   5.980  0.9100 -0.0072 -0.1279
   61SAPC   H7R 4760   5.279   4.423   5.940  1.3335 -0.0534 -1.1486
   61SAPC   H7S 4761   5.342   4.369   6.088  0.9815 -1.7059 -0.0620
   61SAPC   C28 4762   5.365   4.220   5.945 -0.0548 -0.0969 -0.5314
   61SAPC   H8R 4763   5.364   4.163   6.039  0.4956 -0.7926 -0.9337
   61SAPC   C29 4764   5.385   4.164   5.823  0.5646 -0.2172  0.5643
   61SAPC   H9R 4765   5.413   4.057   5.818 -1.6116 -0.7907 -0.3499
   61SAPC  C210 4766   5.385   4.232   5.685  0.4194 -0.2714  0.9537
   61SAPC  H10R 4767   5.489   4.221   5.648 -0.0505 -0.5120 -0.3321
   61SAPC  H10S 4768   5.365   4.340   5.701 -0.0470 -0.0753 -0.8059
   61SAPC  C211 4769   5.286   4.172   5.597 -0.5885 -0.4431  0.2879
   61SAPC  H11R 4770   5.195   4.139   5.649 -0.7269  0.7983  0.8583
   61SAPC  C212 4771   5.299   4.147   5.461 -0.4459 -0.0150 -0.3287
   61SAPC  H12R 4772   5.212   4.097   5.416 -0.2458 -0.1939 -0.5158
   61SAPC  C213 4773   5.416   4.182   5.372  0.1320  0.0333 -0.2356
   61SAPC  H13R 4774   5.507   4.214   5.427  0.2180  1.5419 -1.1728
   61SAPC  H13S 4775   5.390   4.271   5.311 -2.9584  1.9107  3.4149
   61SAPC  C214 4776   5.433   4.062   5.279  0.6596 -0.7854  0.5043
   61SAPC  H14R 4777   5.524   4.008   5.310  0.5887 -1.3732 -0.2898
   61SAPC  C215 4778   5.370   4.048   5.167 -0.3350 -0.6010  0.5761
   61SAPC  H15R 4779   5.384   3.950   5.119 -0.2414 -0.8274  1.0562
   61SAPC  C216 4780   5.256   4.136   5.113 -0.4285 -0.2358 -0.5668
   61SAPC  H16R 4781   5.303   4.237   5.112 -0.2671 -0.3024 -0.0474
   61SAPC  H16S 4782   5.158   4.128   5.165 -0.3943 -1.9645 -0.7209
   61SAPC  C217 4783   5.236   4.099   4.964 -0.4409  0.1438  0.1720
   61SAPC  H17R 4784   5.148   4.153   4.922 -0.7208  0.9087  1.6671
   61SAPC  H17S 4785   5.215   3.991   4.952 -2.3290  0.6164 -1.2656
   61SAPC  C218 4786   5.351   4.130   4.855 -0.3837 -0.1438 -0.0834
   61SAPC  H18R 4787   5.432   4.054   4.858  1.3376  1.6036  1.9279
   61SAPC  H18S 4788   5.395   4.225   4.893 -3.4275  0.4593  2.2706
   61SAPC  C219 4789   5.290   4.141   4.722 -0.4777 -0.1932  0.3556
   61SAPC  H19R 4790   5.191   4.090   4.713 -0.4296 -0.2449  0.1262
   61SAPC  H19S 4791   5.363   4.101   4.648  2.0438  2.0359  1.4916
   61SAPC  C220 4792   5.276   4.290   4.682 -0.1225  0.6612 -0.8122
   61SAPC  H20R 4793   5.233   4.336   4.773 -0.1590 -0.1589 -0.3996
   61SAPC  H20S 4794   5.213   4.308   4.592 -0.1900  1.2762 -0.6412
   61SAPC  H20T 4795   5.374   4.339   4.666 -0.0728  1.0884  0.6760
   61SAPC   C33 4796   5.650   4.917   6.165  0.1952 -0.5282 -0.7525
   61SAPC   H3X 4797   5.629   4.811   6.191 -1.0051 -0.1210  0.0446
   61SAPC   H3Y 4798   5.758   4.927   6.189  0.4304 -0.5863 -1.7374
   61SAPC   C34 4799   5.651   4.954   6.017  0.2896  0.3356 -0.1044
   61SAPC   H4X 4800   5.714   5.042   5.994 -0.9654  0.9092 -1.5258
   61SAPC   H4Y 4801   5.552   4.974   5.972  0.6079 -0.8161 -1.4005
   61SAPC   C35 4802   5.699   4.836   5.930  0.0001 -0.0104  0.3883
   61SAPC   H5X 4803   5.629   4.750   5.938 -0.2759 -0.0876 -2.1497
   61SAPC   H5Y 4804   5.793   4.793   5.971 -0.6711 -1.9645  0.0026
   61SAPC   C36 4805   5.717   4.868   5.784  0.8553  0.6178 -0.5456
   61SAPC   H6X 4806   5.818   4.912   5.776  0.9952  0.2962 -0.5692
   61SAPC   H6Y 4807   5.648   4.948   5.750 -1.7252 -0.7845  1.0735
   61SAPC   C37 4808   5.701   4.743   5.701  0.0463 -0.3673  0.3778
   61SAPC   H7X 4809   5.595   4.715   5.685  0.5107 -1.8693 -0.3283
   61SAPC   H7Y 4810   5.761   4.663   5.751  1.3808  0.5604  0.3123
   61SAPC   C38 4811   5.752   4.767   5.558 -0.6902  0.7822 -0.1949
   61SAPC   H8X 4812   5.757   4.668   5.506  2.0089  1.3953 -1.2723
   61SAPC   H8Y 4813   5.855   4.807   5.555 -1.0821  2.1353  2.0312
   61SAPC   C39 4814   5.647   4.844   5.473 -0.2664 -0.5540  0.2766
   61SAPC   H9X 4815   5.636   4.938   5.532  0.1233  1.0573 -2.0576
   61SAPC   H9Y 4816   5.549   4.793   5.478 -0.0540 -0.8774  1.4009
   61SAPC  C310 4817   5.679   4.861   5.326  0.1123 -0.0298 -0.7240
   61SAPC  H10X 4818   5.763   4.931   5.308 -0.7895  0.8065 -1.8212
   61SAPC  H10Y 4819   5.590   4.897   5.270  0.7320  0.0794 -1.6735
   61SAPC  C311 4820   5.710   4.734   5.259 -0.2429  0.1464  0.0215
   61SAPC  H11X 4821   5.638   4.657   5.291  0.1317 -0.7922 -1.2991
   61SAPC  H11Y 4822   5.806   4.699   5.301 -0.2653 -1.1454 -0.9480
   61SAPC  C312 4823   5.713   4.746   5.105  0.3962  0.5516 -0.1970
   61SAPC  H12X 4824   5.610   4.743   5.064  0.7120 -2.9919 -1.0237
   61SAPC  H12Y 4825   5.764   4.657   5.062  0.2600  0.6721 -0.6125
   61SAPC  C313 4826   5.788   4.868   5.047 -0.1028 -0.1414  0.4273
   61SAPC  H13X 4827   5.879   4.888   5.108 -1.7451  2.7674  2.1339
   61SAPC  H13Y 4828   5.721   4.956   5.051  0.8228  0.7129 -1.5072
   61SAPC  C314 4829   5.826   4.834   4.897  0.3606  0.0948 -0.0682
   61SAPC  H14X 4830   5.733   4.809   4.841 -1.1831  1.4771  1.7434
   61SAPC  H14Y 4831   5.878   4.736   4.890 -0.3547 -0.2254 -1.1846
   61SAPC  C315 4832   5.907   4.944   4.836  0.2842 -0.2280 -0.4286
   61SAPC  H15X 4833   5.993   4.970   4.900 -0.1795  1.5049 -0.4655
   61SAPC  H15Y 4834   5.852   5.040   4.829  0.6503 -0.0288 -0.5767
   61SAPC  C316 4835   5.949   4.909   4.700 -0.6634 -0.0065  0.3372
   61SAPC  H16X 4836   5.869   4.911   4.622 -0.5089 -0.3766  0.1673
   61SAPC  H16Y 4837   5.994   4.808   4.699  1.2442  0.7790 -1.2771
   61SAPC  C317 4838   6.057   5.019   4.648 -0.1301  0.6850 -0.2830
   61SAPC  H17X 4839   6.130   5.015   4.731  0.9529 -0.3463 -1.2516
   61SAPC  H17Y 4840   6.011   5.120   4.651 -2.1551 -0.1859  1.0670
   61SAPC  C318 4841   6.133   4.979   4.522  0.2361 -0.1165 -0.5105
   61SAPC  H18X 4842   6.190   5.065   4.480 -1.2989  1.9889  1.4249
   61SAPC  H18Y 4843   6.066   4.942   4.441  0.4068  0.1824 -0.7926
   61SAPC  H18Z 4844   6.194   4.888   4.534 -2.3621 -2.1868 -1.8610
   62SAPC     N 4845   3.941   1.220   7.028 -0.0527  0.4204  0.6697
   62SAPC   C12 4846   3.908   1.130   6.913  0.1140  0.1426 -0.0326
   62SAPC  H12A 4847   3.846   1.187   6.845  0.8754 -1.2103 -1.9833
   62SAPC  H12B 4848   3.838   1.054   6.945 -0.4872 -0.4512 -2.5380
   62SAPC   C13 4849   4.043   1.324   6.988  0.2854  0.0831  0.1590
   62SAPC  H13A 4850   4.134   1.276   6.956 -0.4862  0.2411 -2.5758
   62SAPC  H13B 4851   4.012   1.370   6.895  1.7418 -0.8753 -0.8495
   62SAPC  H13C 4852   4.066   1.395   7.067  1.5780 -0.7386  0.5505
   62SAPC   C14 4853   3.822   1.296   7.077 -0.4911  0.7579 -0.2622
   62SAPC  H14A 4854   3.850   1.356   7.162 -0.9428  0.7159 -0.0847
   62SAPC  H14B 4855   3.790   1.369   7.004 -1.8412 -0.4222 -0.9037
   62SAPC  H14C 4856   3.751   1.218   7.100  1.3376 -1.1601 -0.7543
   62SAPC   C15 4857   4.005   1.141   7.133  0.5299  0.2474 -0.4207
   62SAPC  H15A 4858   3.943   1.055   7.156 -0.1900  0.8308 -0.1505
   62SAPC  H15B 4859   4.099   1.107   7.092 -0.3433 -1.3377 -1.2318
   62SAPC  H15C 4860   4.022   1.203   7.219  0.1395  0.1386 -0.2650
   62SAPC   C11 4861   4.019   1.053   6.831  0.4865 -0.3391  0.2893
   62SAPC  H11A 4862   4.066   1.124   6.759 -0.9396  2.1171  1.6555
   62SAPC  H11B 4863   3.971   0.976   6.768 -2.0866  0.1825  1.4897
   62SAPC     P 4864   4.112   0.844   6.963 -0.5628  0.5378 -0.7173
   62SAPC   O13 4865   4.230   0.800   7.044  0.4972  0.7573 -0.1817
   62SAPC   O14 4866   3.979   0.816   7.027  0.1255 -0.1091  0.1704
   62SAPC   O12 4867   4.116   0.993   6.918  0.1735  0.2657  0.2241
   62SAPC   O11 4868   4.111   0.775   6.827  0.7344 -0.6915 -0.0923
   62SAPC    C1 4869   4.225   0.741   6.748 -0.1446  0.1113 -0.3842
   62SAPC    HA 4870   4.318   0.755   6.807 -0.8750  0.3642  0.7352
   62SAPC    HB 4871   4.223   0.634   6.719 -0.9476  0.1265 -0.4205
   62SAPC    C2 4872   4.237   0.823   6.615 -0.8982 -0.3732 -0.0377
   62SAPC    HS 4873   4.229   0.927   6.652 -1.8537 -0.5820  0.3612
   62SAPC   O21 4874   4.132   0.785   6.527 -0.5588 -0.1357  0.1378
   62SAPC   C21 4875   4.076   0.888   6.454  0.1618  0.0709  0.3787
   62SAPC   O22 4876   4.113   1.005   6.459  0.4818  0.7143 -0.4931
   62SAPC   C22 4877   3.946   0.841   6.382 -0.0811 -0.6066 -0.5840
   62SAPC   H2R 4878   3.925   0.737   6.415 -2.3178 -0.2115 -0.5831
   62SAPC   H2S 4879   3.864   0.904   6.422  0.8242 -0.3490  0.9464
   62SAPC    C3 4880   4.369   0.807   6.527 -0.1403 -0.3409 -0.5337
   62SAPC    HX 4881   4.353   0.713   6.471 -1.0335 -1.3163  1.2539
   62SAPC    HY 4882   4.451   0.783   6.599 -1.4425 -1.7215  0.5645
   62SAPC   O31 4883   4.409   0.923   6.454  0.3775 -0.1665 -0.3138
   62SAPC   C31 4884   4.442   0.901   6.333  0.3360 -0.5667  0.2545
   62SAPC   O32 4885   4.443   0.793   6.270  0.3556 -0.7510 -0.4681
   62SAPC   C32 4886   4.478   1.029   6.261  0.2041 -0.0383  0.8246
   62SAPC   H2X 4887   4.528   1.005   6.165 -0.3176 -1.8396  0.9656
   62SAPC   H2Y 4888   4.567   1.070   6.314 -1.6681  4.3306  0.9963
   62SAPC   C23 4889   3.938   0.848   6.229 -1.2395  0.3061  0.4012
   62SAPC   H3R 4890   3.934   0.957   6.207  1.1523  0.3999  0.0593
   62SAPC   H3S 4891   3.845   0.795   6.200 -1.4124 -0.4724  2.2783
   62SAPC   C24 4892   4.059   0.790   6.151 -0.0307 -0.5449 -0.1546
   62SAPC   H4R 4893   4.143   0.860   6.170 -0.2560 -0.9090  2.5759
   62SAPC   H4S 4894   4.041   0.779   6.042  0.0942 -1.3918 -0.0933
   62SAPC   C25 4895   4.101   0.657   6.209 -0.2831 -0.3695 -0.2695
   62SAPC   H5R 4896   4.150   0.671   6.306 -2.9839 -1.0023  1.2994
   62SAPC   C26 4897   4.097   0.537   6.153  0.0828 -0.3816 -0.1983
   62SAPC   H6R 4898   4.122   0.449   6.214 -1.5057  1.2869  3.0718
   62SAPC   C27 4899   4.039   0.511   6.015 -0.2475  0.3993 -0.3010
   62SAPC   H7R 4900   4.109   0.450   5.955 -2.6459 -1.0929 -1.7454
   62SAPC   H7S 4901   4.051   0.604   5.956  1.9870  1.1173  1.1658
   62SAPC   C28 4902   3.889   0.485   5.992 -0.3341 -0.1592 -0.2230
   62SAPC   H8R 4903   3.821   0.544   6.055  0.0445  2.0347 -1.7221
   62SAPC   C29 4904   3.836   0.426   5.880 -1.0460  0.6626 -0.2776
   62SAPC   H9R 4905   3.727   0.428   5.868 -0.7507  0.6348 -3.8695
   62SAPC  C210 4906   3.907   0.362   5.773 -0.0548  0.3766  0.8804
   62SAPC  H10R 4907   4.016   0.349   5.789 -0.0459 -0.0398  0.5122
   62SAPC  H10S 4908   3.905   0.416   5.676  3.2353  0.5058  0.7772
   62SAPC  C211 4909   3.837   0.232   5.749 -0.1610  0.7984  0.5203
   62SAPC  H11R 4910   3.812   0.177   5.841 -0.6060 -1.8596 -1.0553
   62SAPC  C212 4911   3.812   0.163   5.631  0.2116  0.2621 -0.9865
   62SAPC  H12R 4912   3.748   0.074   5.639 -1.0539  1.2640  0.8112
   62SAPC  C213 4913   3.833   0.208   5.494  0.0336 -0.0924  0.0799
   62SAPC  H13R 4914   3.849   0.318   5.493 -0.2410 -0.0404 -1.2818
   62SAPC  H13S 4915   3.738   0.180   5.444  0.0332 -3.4292  1.6530
   62SAPC  C214 4916   3.955   0.129   5.445 -0.7375 -0.3003 -0.5516
   62SAPC  H14R 4917   4.022   0.099   5.527 -2.5343  1.5931  1.7581
   62SAPC  C215 4918   3.996   0.116   5.317 -0.5553  0.6693  0.0701
   62SAPC  H15R 4919   4.081   0.050   5.294 -1.6182 -0.2864 -1.2829
   62SAPC  C216 4920   3.928   0.168   5.196 -0.7744 -0.4161  0.1056
   62SAPC  H16R 4921   3.971   0.267   5.171 -0.4511 -0.4930  0.3574
   62SAPC  H16S 4922   3.820   0.184   5.217 -0.3958  3.1479 -0.0125
   62SAPC  C217 4923   3.942   0.077   5.070  0.5288 -0.2807 -0.3663
   62SAPC  H17R 4924   3.886  -0.017   5.087 -0.5504  0.5060  0.5731
   62SAPC  H17S 4925   4.046   0.063   5.033  0.6132 -0.9487  0.1135
   62SAPC  C218 4926   3.864   0.151   4.955 -0.0756  0.5462 -0.4440
   62SAPC  H18R 4927   3.932   0.238   4.946  2.5994 -1.1502  1.7157
   62SAPC  H18S 4928   3.765   0.191   4.988  0.4117  0.5360  1.1215
   62SAPC  C219 4929   3.854   0.063   4.833  0.0901 -0.2357 -0.4216
   62SAPC  H19R 4930   3.775  -0.010   4.858  1.9396 -1.7568  1.3177
   62SAPC  H19S 4931   3.941   0.003   4.801  0.0205 -0.2415 -0.6020
   62SAPC  C220 4932   3.807   0.144   4.708  0.4775  0.2329 -0.2790
   62SAPC  H20R 4933   3.878   0.225   4.681  1.3535 -0.8869 -1.4391
   62SAPC  H20S 4934   3.706   0.186   4.726  0.8650  1.1687 -0.2286
   62SAPC  H20T 4935   3.817   0.087   4.613  2.9350  0.4037 -0.1873
   62SAPC   C33 4936   4.358   1.117   6.230 -0.3741  0.2016  0.1668
   62SAPC   H3X 4937   4.389   1.218   6.265  4.1943 -0.8122 -0.2891
   62SAPC   H3Y 4938   4.273   1.080   6.291 -0.7913  0.2830 -0.3627
   62SAPC   C34 4939   4.317   1.120   6.086 -0.7117  0.1874  0.1558
   62SAPC   H4X 4940   4.304   1.016   6.051  1.0573 -0.0790  0.2117
   62SAPC   H4Y 4941   4.403   1.163   6.030  0.3257 -0.6024  1.1076
   62SAPC   C35 4942   4.191   1.198   6.045 -0.0807  0.4391 -0.2056
   62SAPC   H5X 4943   4.196   1.289   6.107 -0.4170 -0.1278  0.6625
   62SAPC   H5Y 4944   4.105   1.138   6.080 -0.1634  0.7868  0.1928
   62SAPC   C36 4945   4.184   1.243   5.896 -0.3671  0.2737  0.7893
   62SAPC   H6X 4946   4.185   1.148   5.839  0.1908 -0.6955  2.3420
   62SAPC   H6Y 4947   4.277   1.302   5.887  0.1742 -0.4442  1.5449
   62SAPC   C37 4948   4.065   1.325   5.851 -0.1630  0.1409 -0.1651
   62SAPC   H7X 4949   4.050   1.407   5.925  0.3189 -0.3498  0.4861
   62SAPC   H7Y 4950   3.970   1.268   5.856  0.6359 -1.0716  2.3953
   62SAPC   C38 4951   4.076   1.389   5.712  0.0519  0.0439 -1.2754
   62SAPC   H8X 4952   3.970   1.418   5.693 -0.8797 -2.2544  0.0592
   62SAPC   H8Y 4953   4.120   1.317   5.640 -1.5284 -0.9303 -1.3161
   62SAPC   C39 4954   4.166   1.515   5.712  0.1914  0.9682  0.1247
   62SAPC   H9X 4955   4.263   1.488   5.760 -0.3080 -2.3376 -0.4698
   62SAPC   H9Y 4956   4.121   1.596   5.774 -0.7219  2.1632 -1.9778
   62SAPC  C310 4957   4.198   1.547   5.568 -0.2029 -0.2536 -0.3310
   62SAPC  H10X 4958   4.252   1.457   5.533  0.3807  0.0079 -0.1261
   62SAPC  H10Y 4959   4.273   1.630   5.569  0.3808 -0.7369 -1.6756
   62SAPC  C311 4960   4.094   1.583   5.472 -0.2894  0.3794 -1.1386
   62SAPC  H11X 4961   4.037   1.656   5.534 -1.4889 -2.3209  1.1223
   62SAPC  H11Y 4962   4.036   1.490   5.454  0.1262 -0.8003  2.6350
   62SAPC  C312 4963   4.128   1.640   5.336  0.4934 -0.3396 -0.5598
   62SAPC  H12X 4964   4.203   1.722   5.345 -0.2590  0.1672  1.8283
   62SAPC  H12Y 4965   4.035   1.689   5.301  1.2067  0.5539 -1.2595
   62SAPC  C313 4966   4.171   1.529   5.241  0.1356 -0.0801  0.2292
   62SAPC  H13X 4967   4.092   1.452   5.225  1.8132 -1.7005 -0.7042
   62SAPC  H13Y 4968   4.259   1.483   5.289 -0.2151  0.7857  1.7599
   62SAPC  C314 4969   4.215   1.574   5.095  0.4496  0.0831 -0.1608
   62SAPC  H14X 4970   4.298   1.648   5.087 -0.5531  1.0205 -3.4443
   62SAPC  H14Y 4971   4.123   1.625   5.059 -0.2564  1.0833  2.7489
   62SAPC  C315 4972   4.252   1.452   5.009 -0.4297 -0.5352 -0.1850
   62SAPC  H15X 4973   4.171   1.385   5.045  0.4272 -1.1738  0.6249
   62SAPC  H15Y 4974   4.353   1.410   5.032 -0.6705 -2.0640 -1.6772
   62SAPC  C316 4975   4.234   1.476   4.858  0.0425  0.2467 -0.6114
   62SAPC  H16X 4976   4.127   1.486   4.829 -0.4343 -3.9039 -0.8184
   62SAPC  H16Y 4977   4.280   1.384   4.817 -1.3540 -1.0469  0.6047
   62SAPC  C317 4978   4.315   1.600   4.792 -0.1786  0.2059 -0.2366
   62SAPC  H17X 4979   4.422   1.601   4.823 -0.4775  0.6978  0.8240
   62SAPC  H17Y 4980   4.273   1.695   4.832 -0.6674  0.3154 -0.9768
   62SAPC  C318 4981   4.318   1.597   4.638 -0.9049  0.0149 -0.2713
   62SAPC  H18X 4982   4.370   1.510   4.595 -0.2216  0.3537 -0.1361
   62SAPC  H18Y 4983   4.364   1.682   4.583  1.5250  0.3671  2.1080
   62SAPC  H18Z 4984   4.212   1.613   4.607 -0.8733  0.7809 -0.0178
   63SAPC     N 4985   5.823   5.098   6.751 -0.2862  0.2280 -0.9616
   63SAPC   C12 4986   5.809   5.140   6.600  0.1119 -0.2433  0.0435
   63SAPC  H12A 4987   5.751   5.068   6.544  1.2956 -1.1107 -0.0896
   63SAPC  H12B 4988   5.908   5.144   6.559 -0.1049 -0.0062 -0.4667
   63SAPC   C13 4989   5.691   5.082   6.810 -0.4308  0.2942  0.1326
   63SAPC  H13A 4990   5.706   5.052   6.913  2.0509  1.3978  0.1652
   63SAPC  H13B 4991   5.625   5.167   6.803 -0.2392  0.3337 -1.8699
   63SAPC  H13C 4992   5.642   4.997   6.765  1.0549 -1.3163  1.4135
   63SAPC   C14 4993   5.901   4.975   6.767  0.1873  0.3305  0.4806
   63SAPC  H14A 4994   5.887   4.938   6.868 -1.8700 -2.3425 -0.6423
   63SAPC  H14B 4995   5.861   4.904   6.695 -0.1189  2.9211 -2.0798
   63SAPC  H14C 4996   6.006   4.991   6.748  0.4656 -2.1210 -0.4846
   63SAPC   C15 4997   5.893   5.213   6.831  0.1531  0.4873 -1.1162
   63SAPC  H15A 4998   5.838   5.304   6.814 -0.2832  0.2574 -0.9442
   63SAPC  H15B 4999   5.885   5.195   6.937 -2.0352 -0.4144 -1.3920
   63SAPC  H15C 5000   5.998   5.210   6.806  0.9080 -2.0741  1.7449
   63SAPC   C11 5001   5.742   5.280   6.570 -1.2219 -0.5019 -0.2186
   63SAPC  H11A 5002   5.655   5.311   6.631 -0.7722 -0.1078  0.2318
   63SAPC  H11B 5003   5.704   5.267   6.466 -0.1003 -2.1161 -0.4664
   63SAPC     P 5004   5.964   5.387   6.474 -0.2685  0.1857 -0.1160
   63SAPC   O13 5005   6.024   5.518   6.489  0.0220 -0.0416 -0.2012
   63SAPC   O14 5006   6.050   5.271   6.502  0.1355 -0.8532  0.1825
   63SAPC   O12 5007   5.839   5.382   6.574 -0.3084  0.2915 -0.6611
   63SAPC   O11 5008   5.898   5.378   6.331 -0.8666  0.4070 -0.0916
   63SAPC    C1 5009   5.857   5.495   6.265 -0.2135  0.5579  0.5267
   63SAPC    HA 5010   5.780   5.548   6.325  0.0986 -1.3347  2.7447
   63SAPC    HB 5011   5.946   5.554   6.236 -0.8495  0.6523 -1.3843
   63SAPC    C2 5012   5.795   5.441   6.137  0.1726  0.1825 -0.8129
   63SAPC    HS 5013   5.869   5.372   6.091  0.5334 -0.1814  0.2847
   63SAPC   O21 5014   5.764   5.553   6.048  0.3075  0.5602  0.1443
   63SAPC   C21 5015   5.859   5.580   5.962 -0.5643 -0.7740  0.1117
   63SAPC   O22 5016   5.967   5.525   5.957  0.2051 -0.0335 -0.3858
   63SAPC   C22 5017   5.820   5.689   5.866 -0.3086  0.5649 -0.4246
   63SAPC   H2R 5018   5.733   5.744   5.908  0.3476  1.0738  0.3177
   63SAPC   H2S 5019   5.899   5.767   5.864  0.9495 -0.6872 -1.0969
   63SAPC    C3 5020   5.662   5.356   6.161  0.0670 -0.1413  0.0845
   63SAPC    HX 5021   5.576   5.418   6.194 -1.5049 -0.2541 -3.3465
   63SAPC    HY 5022   5.679   5.293   6.251 -0.2466  2.7729  2.3341
   63SAPC   O31 5023   5.619   5.291   6.038  0.8052 -0.3154  0.3617
   63SAPC   C31 5024   5.484   5.289   6.009  0.6455  0.1433  0.1388
   63SAPC   O32 5025   5.394   5.320   6.082 -0.2248  0.5577  1.0345
   63SAPC   C32 5026   5.466   5.241   5.872 -0.0419 -0.6342 -0.1601
   63SAPC   H2X 5027   5.359   5.218   5.857 -0.3991  0.8209  0.0277
   63SAPC   H2Y 5028   5.526   5.147   5.865  0.0062 -0.7081  1.0849
   63SAPC   C23 5029   5.784   5.636   5.722 -0.7268 -0.3924 -0.9781
   63SAPC   H3R 5030   5.763   5.719   5.651  0.7804  0.4849 -0.4470
   63SAPC   H3S 5031   5.697   5.568   5.734 -1.1985  0.6704  3.4363
   63SAPC   C24 5032   5.882   5.538   5.655 -0.3220  0.3078  0.0396
   63SAPC   H4R 5033   5.842   5.509   5.555  1.2166 -2.0905  0.0393
   63SAPC   H4S 5034   5.887   5.441   5.709 -1.1400 -2.2328 -4.0239
   63SAPC   C25 5035   6.019   5.594   5.625 -0.9125  0.3311  0.2237
   63SAPC   H5R 5036   6.101   5.593   5.699  1.2590  1.2979 -2.0146
   63SAPC   C26 5037   6.062   5.652   5.515 -0.0801  0.7212 -0.0330
   63SAPC   H6R 5038   6.169   5.672   5.513 -0.2088  1.3480 -1.1793
   63SAPC   C27 5039   5.993   5.672   5.387  0.6656  0.2572  0.4312
   63SAPC   H7R 5040   5.991   5.778   5.356 -1.6284 -0.2786 -1.5478
   63SAPC   H7S 5041   5.886   5.641   5.398 -0.1896  1.3865 -3.4522
   63SAPC   C28 5042   6.027   5.602   5.252  0.7617 -0.4475 -0.5709
   63SAPC   H8R 5043   6.058   5.498   5.272  1.3927 -0.2502 -0.4987
   63SAPC   C29 5044   6.039   5.661   5.131 -0.0850  0.6052  0.1459
   63SAPC   H9R 5045   6.094   5.610   5.050 -0.8666 -0.0628  0.0257
   63SAPC  C210 5046   5.997   5.805   5.090 -0.6825  0.5508  0.5204
   63SAPC  H10R 5047   6.090   5.862   5.108  0.2111 -1.0250  1.0665
   63SAPC  H10S 5048   5.924   5.840   5.167 -2.3235 -0.7842 -0.3544
   63SAPC  C211 5049   5.946   5.812   4.947  0.6605 -0.2208  0.1029
   63SAPC  H11R 5050   5.851   5.759   4.932 -0.1666  1.4113 -0.7077
   63SAPC  C212 5051   6.008   5.871   4.840 -0.9163  0.5021  0.6091
   63SAPC  H12R 5052   5.976   5.847   4.738  0.6330  0.1246  0.1896
   63SAPC  C213 5053   6.148   5.931   4.839  1.0972  0.6903 -0.6938
   63SAPC  H13R 5054   6.182   5.977   4.934 -0.0889  0.2093 -0.0144
   63SAPC  H13S 5055   6.139   6.014   4.767 -0.3636  1.4622  0.3393
   63SAPC  C214 5056   6.254   5.835   4.797  0.2024  0.4142  0.2927
   63SAPC  H14R 5057   6.257   5.737   4.847 -0.1624 -0.1910 -0.8506
   63SAPC  C215 5058   6.351   5.862   4.705 -0.5929  0.6375 -0.6723
   63SAPC  H15R 5059   6.410   5.775   4.671  1.6522  0.8251  2.3203
   63SAPC  C216 5060   6.369   5.999   4.637  0.1142  0.1454  0.2669
   63SAPC  H16R 5061   6.469   6.041   4.662  0.9724 -1.6570  0.0510
   63SAPC  H16S 5062   6.306   6.076   4.685 -0.9872 -1.9101  2.3504
   63SAPC  C217 5063   6.355   5.984   4.480  0.5252 -0.9981  0.4805
   63SAPC  H17R 5064   6.389   6.080   4.433  0.7967 -1.6803 -0.7606
   63SAPC  H17S 5065   6.251   5.956   4.454  0.3558 -1.0156  1.1810
   63SAPC  C218 5066   6.441   5.882   4.407  0.2082  0.2887  0.5915
   63SAPC  H18R 5067   6.434   5.775   4.436  0.9005  0.0101 -0.2516
   63SAPC  H18S 5068   6.547   5.911   4.424  0.0808  1.3967 -0.3567
   63SAPC  C219 5069   6.416   5.875   4.258 -0.2828 -0.5314 -0.2647
   63SAPC  H19R 5070   6.428   5.981   4.226 -1.2251  0.1545  1.4878
   63SAPC  H19S 5071   6.307   5.865   4.244 -0.6853 -0.1715  2.1151
   63SAPC  C220 5072   6.506   5.768   4.193  0.1787 -0.6257  0.0671
   63SAPC  H20R 5073   6.503   5.759   4.082  1.8390 -2.6805  0.1317
   63SAPC  H20S 5074   6.484   5.668   4.233 -2.0291 -0.2818 -0.1739
   63SAPC  H20T 5075   6.613   5.799   4.204  0.1458 -0.5226  0.0983
   63SAPC   C33 5076   5.510   5.352   5.768  0.0186 -0.0406  0.8251
   63SAPC   H3X 5077   5.620   5.351   5.759 -0.1605 -1.9040 -2.8892
   63SAPC   H3Y 5078   5.463   5.450   5.794 -0.7687 -0.2066  0.0720
   63SAPC   C34 5079   5.465   5.307   5.621  1.1720 -0.2267  0.0669
   63SAPC   H4X 5080   5.465   5.397   5.557 -1.1936  0.8953  1.5069
   63SAPC   H4Y 5081   5.362   5.265   5.619  1.6130 -1.3123 -0.9321
   63SAPC   C35 5082   5.555   5.215   5.556  0.2597  0.8519  1.1457
   63SAPC   H5X 5083   5.514   5.113   5.570  0.9681  0.3359 -0.2996
   63SAPC   H5Y 5084   5.661   5.213   5.589  0.1772 -0.5902  1.3760
   63SAPC   C36 5085   5.564   5.222   5.406 -0.6744 -0.6587  0.5833
   63SAPC   H6X 5086   5.462   5.204   5.366  0.2670 -3.5001 -0.8363
   63SAPC   H6Y 5087   5.629   5.140   5.368 -0.0082  0.5265 -0.9398
   63SAPC   C37 5088   5.624   5.363   5.348  0.1925  0.5193 -0.7805
   63SAPC   H7X 5089   5.731   5.372   5.377 -0.0564  1.8011 -0.2120
   63SAPC   H7Y 5090   5.562   5.450   5.378 -1.9046 -0.7722 -1.1355
   63SAPC   C38 5091   5.617   5.359   5.190 -0.3779 -0.2692 -0.5216
   63SAPC   H8X 5092   5.528   5.310   5.144 -0.4782  0.6060 -1.2842
   63SAPC   H8Y 5093   5.703   5.312   5.139  0.7951  2.7297 -1.5223
   63SAPC   C39 5094   5.609   5.505   5.138 -0.1570  0.1102  0.2391
   63SAPC   H9X 5095   5.687   5.562   5.193  1.7457 -2.9957  0.9928
   63SAPC   H9Y 5096   5.508   5.548   5.157 -0.4229  0.2669 -1.3666
   63SAPC  C310 5097   5.625   5.511   4.984  0.3059 -0.6332 -0.3566
   63SAPC  H10X 5098   5.582   5.418   4.941 -1.5028  0.6601 -1.5031
   63SAPC  H10Y 5099   5.734   5.513   4.964  0.1929  2.0635 -1.0664
   63SAPC  C311 5100   5.571   5.633   4.911  0.2075 -0.1016  0.3264
   63SAPC  H11X 5101   5.620   5.727   4.944 -0.1122  0.9841 -2.0320
   63SAPC  H11Y 5102   5.461   5.642   4.914  0.3577  3.0299 -0.2627
   63SAPC  C312 5103   5.608   5.630   4.759  0.6601 -0.0109  0.5881
   63SAPC  H12X 5104   5.543   5.553   4.713  3.3876 -2.3973  0.5089
   63SAPC  H12Y 5105   5.713   5.594   4.754  0.1582 -1.2966 -1.9587
   63SAPC  C313 5106   5.572   5.768   4.699 -0.4079  0.6791 -0.0556
   63SAPC  H13X 5107   5.647   5.842   4.735 -1.0011  0.8638  0.8201
   63SAPC  H13Y 5108   5.482   5.808   4.750 -0.0516  0.4079  0.8058
   63SAPC  C314 5109   5.566   5.760   4.545  0.1526  0.2548 -0.0277
   63SAPC  H14X 5110   5.500   5.674   4.519  0.4572 -0.1577  0.5278
   63SAPC  H14Y 5111   5.663   5.735   4.497  0.3586  0.3882  0.3130
   63SAPC  C315 5112   5.509   5.889   4.477  0.5522  0.2472 -0.3412
   63SAPC  H15X 5113   5.566   5.976   4.515 -0.7620  1.2481 -0.5722
   63SAPC  H15Y 5114   5.406   5.899   4.517 -1.3607 -1.9341 -4.1103
   63SAPC  C316 5115   5.496   5.886   4.326  0.0921  0.4535  0.1344
   63SAPC  H16X 5116   5.445   5.790   4.302 -0.3706  0.0231  2.5576
   63SAPC  H16Y 5117   5.598   5.887   4.282 -0.5040  1.2344 -1.3048
   63SAPC  C317 5118   5.411   6.005   4.280  0.9631  0.0934  0.2304
   63SAPC  H17X 5119   5.437   6.107   4.316 -0.0156 -0.3795  2.4305
   63SAPC  H17Y 5120   5.311   5.985   4.325  0.9924 -1.6406 -0.4173
   63SAPC  C318 5121   5.397   6.029   4.134 -0.1027  0.2578 -0.0609
   63SAPC  H18X 5122   5.353   5.938   4.085 -0.8906 -0.9817  2.7625
   63SAPC  H18Y 5123   5.494   6.046   4.083  0.7082  1.6587  1.8519
   63SAPC  H18Z 5124   5.340   6.120   4.106  1.8521  0.6760 -3.1908
   64SAPC     N 5125   6.526   5.963   6.578  0.0889 -0.0734 -0.2827
   64SAPC   C12 5126   6.421   5.903   6.490  0.3495  0.2572 -1.0937
   64SAPC  H12A 5127   6.438   5.800   6.517  0.1914  0.7329  1.0003
   64SAPC  H12B 5128   6.442   5.926   6.386 -2.1970  1.7244 -1.3433
   64SAPC   C13 5129   6.515   6.112   6.590  0.3904  0.3879 -0.0165
   64SAPC  H13A 5130   6.557   6.141   6.685 -0.8455  0.2940  0.5797
   64SAPC  H13B 5131   6.567   6.165   6.511 -1.4376 -0.7031 -2.0836
   64SAPC  H13C 5132   6.416   6.156   6.596  0.7252  1.2203 -0.3897
   64SAPC   C14 5133   6.514   5.899   6.717  0.2718 -0.1939 -0.3378
   64SAPC  H14A 5134   6.593   5.934   6.781 -1.0679  0.3100  1.1113
   64SAPC  H14B 5135   6.415   5.916   6.756 -0.0034 -2.6662  0.2462
   64SAPC  H14C 5136   6.518   5.791   6.705 -1.7458 -0.3277 -0.1878
   64SAPC   C15 5137   6.666   5.933   6.532  0.3204 -0.0326 -0.2250
   64SAPC  H15A 5138   6.742   5.948   6.607  2.3879  2.2464 -2.5626
   64SAPC  H15B 5139   6.674   5.829   6.505 -4.2621 -0.2197 -1.5687
   64SAPC  H15C 5140   6.701   5.990   6.447  1.0088  0.4734  0.3755
   64SAPC   C11 5141   6.265   5.909   6.513  0.1302 -0.2139  0.0527
   64SAPC  H11A 5142   6.253   5.879   6.619  0.5804  0.8493  0.4139
   64SAPC  H11B 5143   6.219   5.832   6.446  0.4181 -0.6316  0.3291
   64SAPC     P 5144   6.200   6.099   6.351  0.0796 -0.0342 -0.0618
   64SAPC   O13 5145   6.077   6.034   6.296 -0.8214 -0.0909  0.6380
   64SAPC   O14 5146   6.216   6.244   6.357  0.0687  0.1338  0.4467
   64SAPC   O12 5147   6.214   6.043   6.499  0.2032  0.1045 -0.2159
   64SAPC   O11 5148   6.326   6.033   6.276  0.2045  0.0161  0.0771
   64SAPC    C1 5149   6.354   6.041   6.143 -0.7304 -1.1313  0.2999
   64SAPC    HA 5150   6.407   5.952   6.102  0.9212  1.2011 -3.1021
   64SAPC    HB 5151   6.260   6.047   6.085  0.7775  0.6323 -2.1436
   64SAPC    C2 5152   6.444   6.160   6.099 -0.6463  0.1170 -0.2662
   64SAPC    HS 5153   6.397   6.253   6.136 -0.4452  0.1434 -0.0766
   64SAPC   O21 5154   6.451   6.168   5.954 -0.2807  0.0776 -0.4519
   64SAPC   C21 5155   6.461   6.296   5.905 -0.5563 -0.1536  0.0387
   64SAPC   O22 5156   6.453   6.398   5.969 -0.1648 -0.1359 -0.1600
   64SAPC   C22 5157   6.476   6.294   5.756  0.1233 -0.7482  0.5659
   64SAPC   H2R 5158   6.557   6.221   5.735  3.2422  2.3357  0.9576
   64SAPC   H2S 5159   6.373   6.272   5.720 -0.0033  0.0242  0.4396
   64SAPC    C3 5160   6.585   6.151   6.175 -0.1411 -0.0859  0.3509
   64SAPC    HX 5161   6.552   6.147   6.281  1.4998 -1.6278  0.8483
   64SAPC    HY 5162   6.652   6.240   6.169  0.5207 -0.3260  3.0181
   64SAPC   O31 5163   6.655   6.025   6.141 -0.2348  0.4412  0.1291
   64SAPC   C31 5164   6.752   6.038   6.044 -0.8020  0.5918  0.1275
   64SAPC   O32 5165   6.778   6.138   5.979  0.2526  0.4895  0.2559
   64SAPC   C32 5166   6.835   5.909   6.044  0.4165  0.4296  0.2115
   64SAPC   H2X 5167   6.765   5.827   6.070 -3.5200  2.9991 -1.3354
   64SAPC   H2Y 5168   6.922   5.917   6.113 -0.0802  0.6547  0.8190
   64SAPC   C23 5169   6.517   6.428   5.701  0.1220  0.1492  0.5328
   64SAPC   H3R 5170   6.455   6.512   5.739  0.6833  1.7586 -1.8796
   64SAPC   H3S 5171   6.504   6.428   5.591  0.0622 -0.1852  0.5393
   64SAPC   C24 5172   6.662   6.482   5.726  0.0009  0.2355  0.1008
   64SAPC   H4R 5173   6.727   6.394   5.705 -1.7960 -0.8114 -1.3963
   64SAPC   H4S 5174   6.672   6.510   5.833 -0.7581  1.1355 -0.0564
   64SAPC   C25 5175   6.699   6.593   5.635 -0.1292  0.5244 -0.2826
   64SAPC   H5R 5176   6.617   6.667   5.639  0.2607  1.0227 -1.2114
   64SAPC   C26 5177   6.802   6.605   5.556  0.0991  0.0740  0.8182
   64SAPC   H6R 5178   6.816   6.690   5.487  0.7083 -0.1399  0.6675
   64SAPC   C27 5179   6.911   6.505   5.533  0.0334 -0.0639  1.0916
   64SAPC   H7R 5180   6.901   6.427   5.612 -0.3181 -0.3763  0.7459
   64SAPC   H7S 5181   7.010   6.554   5.531 -1.1342  2.5715 -2.4436
   64SAPC   C28 5182   6.887   6.420   5.409  0.5254  0.4704 -0.8989
   64SAPC   H8R 5183   6.782   6.389   5.400 -0.2222  2.5356  0.0808
   64SAPC   C29 5184   6.977   6.378   5.320 -1.3478  0.5535 -0.2620
   64SAPC   H9R 5185   6.933   6.340   5.226 -2.3126 -0.3813  0.5361
   64SAPC  C210 5186   7.124   6.410   5.326  0.1160  0.2852  0.0678
   64SAPC  H10R 5187   7.151   6.450   5.426 -1.7662  2.5356 -0.2313
   64SAPC  H10S 5188   7.150   6.494   5.258  0.0549 -0.7105 -1.2189
   64SAPC  C211 5189   7.212   6.296   5.285  0.1546 -0.2015  0.5365
   64SAPC  H11R 5190   7.259   6.244   5.369 -0.8910 -0.8406  0.7349
   64SAPC  C212 5191   7.241   6.252   5.158  0.1392 -0.1017  0.3853
   64SAPC  H12R 5192   7.321   6.177   5.151 -0.0297 -0.2706  0.2498
   64SAPC  C213 5193   7.184   6.306   5.019 -0.0448  0.1813 -0.1780
   64SAPC  H13R 5194   7.109   6.386   5.038 -2.1551 -2.2669  2.6218
   64SAPC  H13S 5195   7.135   6.222   4.965 -1.1122  1.6691 -1.6633
   64SAPC  C214 5196   7.292   6.369   4.940  0.2020  0.0178  0.7954
   64SAPC  H14R 5197   7.346   6.447   4.996 -1.7458  0.4545  2.1903
   64SAPC  C215 5198   7.281   6.378   4.804 -0.7474  1.0112 -0.5521
   64SAPC  H15R 5199   7.369   6.413   4.748  0.2727 -1.2324 -0.4792
   64SAPC  C216 5200   7.185   6.306   4.710  0.5069 -0.3439  0.2853
   64SAPC  H16R 5201   7.109   6.241   4.759  0.0040  1.7536  2.5047
   64SAPC  H16S 5202   7.233   6.233   4.642  0.1322 -2.0030  1.7198
   64SAPC  C217 5203   7.116   6.408   4.615 -0.0401  0.1277  0.6349
   64SAPC  H17R 5204   7.107   6.500   4.678  1.8913  3.0969 -2.9866
   64SAPC  H17S 5205   7.020   6.380   4.568 -0.1145  0.4385  0.5963
   64SAPC  C218 5206   7.213   6.461   4.505 -0.3197  0.1295 -0.0812
   64SAPC  H18R 5207   7.248   6.384   4.432 -0.0454 -1.5702  1.7664
   64SAPC  H18S 5208   7.305   6.487   4.561  0.7913 -0.7030 -1.4400
   64SAPC  C219 5209   7.162   6.579   4.416  0.1868 -0.6546  0.4647
   64SAPC  H19R 5210   7.146   6.679   4.462 -0.5201  0.6802 -2.4613
   64SAPC  H19S 5211   7.063   6.542   4.383 -0.5600 -1.4868  3.3423
   64SAPC  C220 5212   7.253   6.600   4.298  0.1821 -0.2840  0.1128
   64SAPC  H20R 5213   7.227   6.702   4.265 -0.3732  0.5823  2.9238
   64SAPC  H20S 5214   7.253   6.522   4.219 -1.3915 -0.4276  0.2175
   64SAPC  H20T 5215   7.356   6.616   4.336 -0.3283  0.8099  1.1203
   64SAPC   C33 5216   6.903   5.900   5.904 -1.3016  0.0247 -0.3289
   64SAPC   H3X 5217   6.978   5.818   5.913  0.2881  1.4877  0.4138
   64SAPC   H3Y 5218   6.968   5.987   5.881 -0.6295 -0.3430  0.1277
   64SAPC   C34 5219   6.811   5.857   5.789 -0.4314 -0.6738 -0.8767
   64SAPC   H4X 5220   6.731   5.934   5.785  0.0047 -0.1461  0.1782
   64SAPC   H4Y 5221   6.756   5.764   5.815 -0.4426  0.0415  2.0607
   64SAPC   C35 5222   6.885   5.834   5.649  0.0005  0.6658  0.2772
   64SAPC   H5X 5223   6.824   5.791   5.567  0.9071  1.6980 -0.9693
   64SAPC   H5Y 5224   6.955   5.748   5.660  0.6666  1.3836  2.0267
   64SAPC   C36 5225   6.979   5.952   5.603  0.4260  0.3015  0.0029
   64SAPC   H6X 5226   7.057   5.961   5.681 -0.5111  0.6463  0.9235
   64SAPC   H6Y 5227   6.923   6.048   5.600 -0.5966 -0.2465  0.6335
   64SAPC   C37 5228   7.051   5.918   5.477 -0.0583 -0.0745  0.2372
   64SAPC   H7X 5229   7.127   5.842   5.503  1.5334  1.0942 -0.8229
   64SAPC   H7Y 5230   7.096   6.014   5.445 -2.4251  0.4062 -1.9384
   64SAPC   C38 5231   6.976   5.872   5.356 -0.0569  0.6495  0.3148
   64SAPC   H8X 5232   6.886   5.935   5.338 -0.0623  1.6464  3.2541
   64SAPC   H8Y 5233   6.945   5.766   5.367  0.4542  0.5490  0.8549
   64SAPC   C39 5234   7.075   5.863   5.242  0.2580 -0.1402  0.7640
   64SAPC   H9X 5235   7.157   5.797   5.279  0.7736  0.6444  1.0771
   64SAPC   H9Y 5236   7.099   5.970   5.223  0.6463 -0.4921 -0.8276
   64SAPC  C310 5237   7.023   5.812   5.109 -0.7997  0.4174 -0.1953
   64SAPC  H10X 5238   6.953   5.727   5.122 -2.8657  1.9504 -0.7558
   64SAPC  H10Y 5239   7.108   5.781   5.045 -0.4723  2.1118 -0.6331
   64SAPC  C311 5240   6.937   5.923   5.039 -0.0804  0.2236 -0.3605
   64SAPC  H11X 5241   6.999   6.016   5.045  1.5700 -0.8873  0.3894
   64SAPC  H11Y 5242   6.836   5.929   5.086  0.7000 -1.1920  1.6373
   64SAPC  C312 5243   6.924   5.881   4.890  0.2619 -0.6818  0.3665
   64SAPC  H12X 5244   6.853   5.795   4.891  0.5022 -0.8976 -0.4390
   64SAPC  H12Y 5245   7.024   5.852   4.851  1.1696  0.6233  1.6284
   64SAPC  C313 5246   6.865   5.989   4.793 -0.5070 -0.4016 -0.1905
   64SAPC  H13X 5247   6.907   6.088   4.818 -1.5715  0.3698 -1.3106
   64SAPC  H13Y 5248   6.755   5.990   4.808 -0.8199 -0.0519 -2.1996
   64SAPC  C314 5249   6.885   5.965   4.642 -0.5951 -0.2052 -0.5117
   64SAPC  H14X 5250   6.992   5.954   4.619 -0.8813  0.0597 -2.0551
   64SAPC  H14Y 5251   6.841   6.053   4.590 -1.1986 -0.8069 -1.0451
   64SAPC  C315 5252   6.827   5.834   4.582 -0.3921  0.0258 -0.5239
   64SAPC  H15X 5253   6.716   5.824   4.583 -0.2453 -2.3422  1.7070
   64SAPC  H15Y 5254   6.864   5.755   4.651  0.2314  0.6492 -0.1374
   64SAPC  C316 5255   6.894   5.800   4.443 -0.0604 -0.8619  0.0473
   64SAPC  H16X 5256   6.846   5.702   4.419 -1.8989 -0.1822  0.7545
   64SAPC  H16Y 5257   7.004   5.784   4.450  0.2007  1.0372  0.7058
   64SAPC  C317 5258   6.862   5.901   4.334  0.2013  0.9939  0.7965
   64SAPC  H17X 5259   6.758   5.939   4.338 -0.0798  0.0929  3.1507
   64SAPC  H17Y 5260   6.856   5.833   4.246  1.8975  3.7789 -1.6924
   64SAPC  C318 5261   6.975   5.997   4.319  0.4390 -0.0144  0.0201
   64SAPC  H18X 5262   6.981   6.064   4.407  1.2595  0.6286 -0.5076
   64SAPC  H18Y 5263   6.954   6.053   4.225 -0.2799  0.6449  0.5507
   64SAPC  H18Z 5264   7.076   5.951   4.319 -1.0371 -3.5674 -0.9523
   65SAPC     N 5265   0.095   3.650   1.837  0.3246  0.2528 -0.1441
   65SAPC   C12 5266   0.008   3.732   1.923 -0.5715  0.0559 -0.1730
   65SAPC  H12A 5267  -0.022   3.672   2.008 -1.2629 -2.0456 -1.8038
   65SAPC  H12B 5268  -0.083   3.756   1.871 -0.2658 -1.0044 -1.2458
   65SAPC   C13 5269   0.210   3.581   1.917 -0.8482 -0.7595 -0.3016
   65SAPC  H13A 5270   0.177   3.523   2.002  1.1605  0.0904  1.1394
   65SAPC  H13B 5271   0.271   3.514   1.858  0.0360  0.5811 -0.9646
   65SAPC  H13C 5272   0.272   3.660   1.958 -1.9593  0.0188 -0.0809
   65SAPC   C14 5273   0.023   3.534   1.771 -0.2896  0.5776 -0.3861
   65SAPC  H14A 5274   0.002   3.452   1.839  2.7959 -0.0823 -0.0906
   65SAPC  H14B 5275  -0.072   3.556   1.725 -0.9303  2.6958  1.7563
   65SAPC  H14C 5276   0.094   3.495   1.700  2.6607  2.7044  1.1832
   65SAPC   C15 5277   0.155   3.733   1.731 -0.0012  1.0571  0.0809
   65SAPC  H15A 5278   0.087   3.758   1.650 -1.4943 -0.5883  0.7554
   65SAPC  H15B 5279   0.195   3.820   1.781 -1.1126  0.2824  2.4442
   65SAPC  H15C 5280   0.233   3.685   1.674 -1.3685  0.0441 -1.0297
   65SAPC   C11 5281   0.086   3.846   1.993 -0.0556  0.2479  0.6798
   65SAPC  H11A 5282   0.187   3.806   2.013 -1.1083 -2.6530  0.6938
   65SAPC  H11B 5283   0.037   3.877   2.088 -0.8689  1.7764 -0.1857
   65SAPC     P 5284  -0.002   4.072   1.881 -0.2537  0.1154  0.4818
   65SAPC   O13 5285   0.052   4.146   1.768  0.4124 -0.0476 -0.3535
   65SAPC   O14 5286  -0.137   4.014   1.862 -0.0626 -0.0726  0.2493
   65SAPC   O12 5287   0.108   3.962   1.907 -0.0696  0.2829 -0.1479
   65SAPC   O11 5288   0.002   4.157   2.014 -0.6159  0.7075  0.9467
   65SAPC    C1 5289   0.124   4.214   2.061 -0.6194 -0.6028  0.2456
   65SAPC    HA 5290   0.214   4.179   2.007 -0.2487  0.0803  0.4051
   65SAPC    HB 5291   0.130   4.324   2.044 -1.4212 -0.6685 -0.5968
   65SAPC    C2 5292   0.150   4.184   2.211  0.9330 -0.3507  0.0436
   65SAPC    HS 5293   0.164   4.075   2.219  3.9410 -0.0445  0.0228
   65SAPC   O21 5294   0.031   4.224   2.283 -0.1182 -0.3722  0.1316
   65SAPC   C21 5295  -0.046   4.123   2.328  0.9824 -0.0758 -0.1358
   65SAPC   O22 5296  -0.023   4.005   2.323  0.2320 -0.9507 -0.0227
   65SAPC   C22 5297  -0.168   4.190   2.398 -0.0946  0.6839 -0.0279
   65SAPC   H2R 5298  -0.191   4.277   2.332  2.0977  0.5416 -1.0562
   65SAPC   H2S 5299  -0.254   4.119   2.396  0.9674 -0.6611  0.4343
   65SAPC    C3 5300   0.280   4.248   2.260  0.1206  0.5738 -0.2224
   65SAPC    HX 5301   0.278   4.357   2.243  0.8859  0.6087 -0.1363
   65SAPC    HY 5302   0.360   4.217   2.189  1.5109 -0.0749  1.5447
   65SAPC   O31 5303   0.307   4.213   2.393  0.3128  0.5604 -0.1550
   65SAPC   C31 5304   0.264   4.296   2.488  0.2405  0.2111 -0.1398
   65SAPC   O32 5305   0.240   4.414   2.470  0.9896 -0.4925 -0.0006
   65SAPC   C32 5306   0.257   4.226   2.625 -0.4544  0.5964 -0.8081
   65SAPC   H2X 5307   0.361   4.198   2.653 -0.7286  1.7921  1.6589
   65SAPC   H2Y 5308   0.200   4.131   2.614 -0.2200  0.6851 -3.3405
   65SAPC   C23 5309  -0.130   4.239   2.541 -0.0375 -0.1850 -0.8192
   65SAPC   H3R 5310  -0.044   4.309   2.544 -2.7266  3.4088 -1.0557
   65SAPC   H3S 5311  -0.110   4.152   2.607 -0.1018  1.1116  0.9617
   65SAPC   C24 5312  -0.246   4.318   2.609  0.8130 -0.3393  0.5212
   65SAPC   H4R 5313  -0.273   4.395   2.533  0.2172 -1.0424  0.0150
   65SAPC   H4S 5314  -0.193   4.360   2.698  1.7135 -0.0656 -0.1256
   65SAPC   C25 5315  -0.370   4.238   2.638 -0.5661  0.1077  0.2263
   65SAPC   H5R 5316  -0.428   4.221   2.546 -1.2772  1.2651  0.4357
   65SAPC   C26 5317  -0.422   4.214   2.754 -0.4052 -0.3438 -0.6417
   65SAPC   H6R 5318  -0.510   4.151   2.772  0.7962 -2.0789 -0.6132
   65SAPC   C27 5319  -0.355   4.239   2.886  0.3108  0.5909 -0.6300
   65SAPC   H7R 5320  -0.433   4.244   2.966 -0.4426 -1.9933 -1.1182
   65SAPC   H7S 5321  -0.308   4.340   2.886 -1.5420  1.5020 -0.1799
   65SAPC   C28 5322  -0.251   4.134   2.911  0.2367 -0.4328 -0.2148
   65SAPC   H8R 5323  -0.164   4.138   2.844 -1.5500  0.0206 -2.6502
   65SAPC   C29 5324  -0.259   4.037   3.004 -0.0490  0.0386 -0.2414
   65SAPC   H9R 5325  -0.165   3.980   3.015  1.1810  1.6962 -1.6045
   65SAPC  C210 5326  -0.371   4.019   3.104  0.2152  0.1681 -0.1175
   65SAPC  H10R 5327  -0.408   3.919   3.075 -1.4204  1.6677 -3.7191
   65SAPC  H10S 5328  -0.461   4.081   3.086 -1.6142 -1.5012  2.5645
   65SAPC  C211 5329  -0.326   4.039   3.246 -0.1030  0.2550  0.1007
   65SAPC  H11R 5330  -0.268   3.952   3.281  2.3378  2.1335  1.0506
   65SAPC  C212 5331  -0.357   4.135   3.329  0.3263  0.1240  0.1385
   65SAPC  H12R 5332  -0.314   4.119   3.429 -0.7401 -3.7445  0.1354
   65SAPC  C213 5333  -0.451   4.256   3.315 -0.9217 -0.2946  0.8497
   65SAPC  H13R 5334  -0.504   4.258   3.217  1.8346  1.3451 -0.7386
   65SAPC  H13S 5335  -0.392   4.349   3.308 -0.5309 -0.6714 -3.1258
   65SAPC  C214 5336  -0.538   4.289   3.429 -0.3109  0.2585  0.5269
   65SAPC  H14R 5337  -0.645   4.281   3.406 -0.1663  2.0775 -0.9738
   65SAPC  C215 5338  -0.503   4.335   3.557  0.7545 -1.2096  0.7534
   65SAPC  H15R 5339  -0.587   4.361   3.624  0.6075  1.0288 -0.2275
   65SAPC  C216 5340  -0.371   4.347   3.617 -0.4194  0.2785  0.3942
   65SAPC  H16R 5341  -0.324   4.436   3.570  1.6007 -2.0796 -2.4524
   65SAPC  H16S 5342  -0.307   4.259   3.595 -2.4817 -1.2718  0.2947
   65SAPC  C217 5343  -0.377   4.362   3.770 -0.5232 -0.8909 -0.6371
   65SAPC  H17R 5344  -0.428   4.276   3.820 -0.8881 -0.5969 -0.4964
   65SAPC  H17S 5345  -0.441   4.448   3.797  0.8833 -0.3377  1.1270
   65SAPC  C218 5346  -0.236   4.383   3.842  0.5951 -0.4615  0.7077
   65SAPC  H18R 5347  -0.165   4.426   3.767  1.2017  0.3363  1.7143
   65SAPC  H18S 5348  -0.196   4.283   3.868  0.0115 -0.7840  0.3790
   65SAPC  C219 5349  -0.247   4.464   3.964  0.5880 -0.5799 -0.5028
   65SAPC  H19R 5350  -0.306   4.410   4.041 -0.7425  1.7432  0.2208
   65SAPC  H19S 5351  -0.305   4.556   3.939  0.0526 -1.0883 -1.1307
   65SAPC  C220 5352  -0.111   4.501   4.010  0.7780 -0.3745 -0.8111
   65SAPC  H20R 5353  -0.119   4.608   4.037  0.1655 -0.3907 -0.9041
   65SAPC  H20S 5354  -0.048   4.505   3.918 -2.2666  0.0721 -3.0667
   65SAPC  H20T 5355  -0.068   4.450   4.099  0.8441 -0.9809 -1.1831
   65SAPC   C33 5356   0.189   4.313   2.733 -0.1639 -0.0672  0.6815
   65SAPC   H3X 5357   0.080   4.329   2.720 -0.8729 -3.9750  0.4683
   65SAPC   H3Y 5358   0.239   4.412   2.735 -2.0422  1.0017 -1.2845
   65SAPC   C34 5359   0.219   4.241   2.862 -0.1728  0.4909  0.1749
   65SAPC   H4X 5360   0.321   4.197   2.871 -0.3609 -0.6094 -2.1950
   65SAPC   H4Y 5361   0.153   4.152   2.852  0.8630 -0.1201 -1.9405
   65SAPC   C35 5362   0.190   4.328   2.986 -0.1859 -0.5940 -0.7641
   65SAPC   H5X 5363   0.083   4.359   2.987  0.1293  0.5405 -0.5177
   65SAPC   H5Y 5364   0.261   4.413   2.981 -0.9242  0.2202  1.3476
   65SAPC   C36 5365   0.217   4.262   3.115  0.1380 -0.0410 -0.4482
   65SAPC   H6X 5366   0.323   4.229   3.123  0.3406  0.8274  0.7428
   65SAPC   H6Y 5367   0.162   4.167   3.133 -0.9728  0.7699  0.5322
   65SAPC   C37 5368   0.182   4.338   3.249  0.1454 -0.5556 -0.5772
   65SAPC   H7X 5369   0.089   4.397   3.233  0.5979  0.5214  0.6131
   65SAPC   H7Y 5370   0.250   4.424   3.263  0.8145 -1.2411  0.4810
   65SAPC   C38 5371   0.157   4.250   3.375 -0.4373  0.1913  0.0642
   65SAPC   H8X 5372   0.243   4.181   3.390  0.5232  1.2829 -0.2944
   65SAPC   H8Y 5373   0.062   4.194   3.361 -0.8683  1.0518 -0.5330
   65SAPC   C39 5374   0.142   4.312   3.509 -0.7394 -0.1550 -0.4140
   65SAPC   H9X 5375   0.044   4.364   3.510 -0.8826  0.2136 -5.6274
   65SAPC   H9Y 5376   0.221   4.390   3.520 -0.6667 -0.2788 -0.0523
   65SAPC  C310 5377   0.162   4.218   3.632 -0.0143  0.2167  0.4481
   65SAPC  H10X 5378   0.261   4.167   3.629 -0.0016  0.1320  1.7726
   65SAPC  H10Y 5379   0.091   4.134   3.647 -0.2345  0.8254  3.3933
   65SAPC  C311 5380   0.164   4.299   3.764  0.3190 -0.5926 -0.3718
   65SAPC  H11X 5381   0.067   4.346   3.793  2.3177  2.0887  2.6129
   65SAPC  H11Y 5382   0.230   4.388   3.759  1.4157 -1.4367 -1.6985
   65SAPC  C312 5383   0.191   4.201   3.892 -0.0948  0.0372 -0.4793
   65SAPC  H12X 5384   0.274   4.132   3.866  0.1613 -1.0714  2.7394
   65SAPC  H12Y 5385   0.098   4.141   3.900 -2.0295  2.6100 -2.0301
   65SAPC  C313 5386   0.237   4.261   4.026  0.7125  0.5516  0.5301
   65SAPC  H13X 5387   0.249   4.177   4.098  0.0475  1.3269  1.5829
   65SAPC  H13Y 5388   0.173   4.336   4.076  0.2709  1.5423 -1.4165
   65SAPC  C314 5389   0.374   4.328   4.016 -0.0169 -0.3133 -1.0905
   65SAPC  H14X 5390   0.367   4.433   3.980 -2.0292  0.2113  0.6156
   65SAPC  H14Y 5391   0.446   4.283   3.944  0.9668  1.7886 -1.5129
   65SAPC  C315 5392   0.450   4.334   4.155  0.1090 -0.1462 -0.4868
   65SAPC  H15X 5393   0.463   4.228   4.188  2.6142  0.1567 -0.2683
   65SAPC  H15Y 5394   0.390   4.393   4.226  0.1325 -1.7278  0.9140
   65SAPC  C316 5395   0.580   4.406   4.157  0.1444 -0.1646  0.0864
   65SAPC  H16X 5396   0.560   4.513   4.137 -0.9540 -0.3598  0.0821
   65SAPC  H16Y 5397   0.647   4.362   4.079 -1.2807 -3.7033  0.6628
   65SAPC  C317 5398   0.639   4.381   4.299 -0.2317  0.0922 -0.0921
   65SAPC  H17X 5399   0.666   4.275   4.319 -0.5142  0.0884  0.2695
   65SAPC  H17Y 5400   0.568   4.408   4.380 -0.1456  2.7489 -0.8142
   65SAPC  C318 5401   0.746   4.480   4.324 -0.1708  0.3239  0.0947
   65SAPC  H18X 5402   0.774   4.492   4.431 -3.3651 -0.8980  1.1931
   65SAPC  H18Y 5403   0.709   4.583   4.305 -0.7337  0.1525  0.2598
   65SAPC  H18Z 5404   0.845   4.457   4.278 -1.3459 -1.5848 -1.6357
   66SAPC     N 5405   3.611   4.864   1.696  0.1131 -0.2136 -0.1298
   66SAPC   C12 5406   3.756   4.881   1.741  0.7993 -0.8937  0.2195
   66SAPC  H12A 5407   3.786   4.983   1.724  0.1986 -0.7274  0.1732
   66SAPC  H12B 5408   3.818   4.823   1.674  1.0689 -0.1486 -0.1873
   66SAPC   C13 5409   3.592   4.909   1.556 -0.3787  0.2998  0.3375
   66SAPC  H13A 5410   3.652   4.855   1.484  0.2973  0.1311  1.0080
   66SAPC  H13B 5411   3.490   4.889   1.524  0.2440 -3.6516  0.2373
   66SAPC  H13C 5412   3.619   5.010   1.533 -2.8648  0.8037 -0.6986
   66SAPC   C14 5413   3.555   4.720   1.700  0.0024  0.2960 -0.7365
   66SAPC  H14A 5414   3.618   4.652   1.645  0.7962  0.8822 -0.5640
   66SAPC  H14B 5415   3.549   4.679   1.800 -1.2524 -0.6281 -1.1652
   66SAPC  H14C 5416   3.459   4.717   1.651  0.3846 -0.2719 -1.4597
   66SAPC   C15 5417   3.529   4.951   1.791 -0.4967 -0.3201  0.3823
   66SAPC  H15A 5418   3.544   5.055   1.769 -2.3340 -0.0379  0.2821
   66SAPC  H15B 5419   3.423   4.945   1.769 -0.2847  1.3630 -1.3450
   66SAPC  H15C 5420   3.552   4.930   1.895  1.5164  3.0766  0.7593
   66SAPC   C11 5421   3.799   4.851   1.886 -0.8733 -1.1832  0.6071
   66SAPC  H11A 5422   3.720   4.890   1.954 -1.9723 -1.2634 -0.5870
   66SAPC  H11B 5423   3.895   4.900   1.912  0.0229 -3.2005  1.2577
   66SAPC     P 5424   3.734   4.620   2.011 -0.3412  0.0728 -0.2358
   66SAPC   O13 5425   3.621   4.558   1.945 -0.1988 -0.1757  0.7032
   66SAPC   O14 5426   3.834   4.520   2.063  0.0577 -0.2987 -0.4281
   66SAPC   O12 5427   3.810   4.714   1.906  0.0035  0.2075  0.4889
   66SAPC   O11 5428   3.686   4.711   2.130  0.3374  0.2391 -0.1947
   66SAPC    C1 5429   3.764   4.788   2.221  0.4064 -0.7238  0.5268
   66SAPC    HA 5430   3.802   4.875   2.164  0.3674 -0.1065  1.4343
   66SAPC    HB 5431   3.690   4.837   2.288 -2.0687 -0.7157 -2.0014
   66SAPC    C2 5432   3.858   4.721   2.322  0.1874  0.3908 -0.1981
   66SAPC    HS 5433   3.923   4.659   2.256  0.4806  1.9331 -1.4192
   66SAPC   O21 5434   3.773   4.647   2.417  0.1091 -0.1684 -0.5319
   66SAPC   C21 5435   3.840   4.571   2.504 -0.4661 -0.3238 -0.1141
   66SAPC   O22 5436   3.959   4.538   2.497 -0.5213  0.2030  0.1477
   66SAPC   C22 5437   3.730   4.538   2.610  0.0785  0.3145 -0.3243
   66SAPC   H2R 5438   3.666   4.626   2.634 -1.5766 -0.7218 -0.8211
   66SAPC   H2S 5439   3.661   4.467   2.559 -1.8525 -0.5065  3.1111
   66SAPC    C3 5440   3.960   4.818   2.391 -0.0200 -0.1774  0.0950
   66SAPC    HX 5441   4.031   4.845   2.310 -2.1815 -0.2077 -1.9218
   66SAPC    HY 5442   4.022   4.765   2.467  0.2589  0.9982  0.7116
   66SAPC   O31 5443   3.892   4.933   2.440  1.0862  0.0051  0.2146
   66SAPC   C31 5444   3.861   4.936   2.565 -0.1872 -0.3992 -0.0678
   66SAPC   O32 5445   3.889   4.849   2.648  0.0238 -0.2635 -0.0025
   66SAPC   C32 5446   3.797   5.072   2.599 -0.3060 -0.5097  0.0798
   66SAPC   H2X 5447   3.746   5.101   2.504  0.3666 -2.5816 -0.9570
   66SAPC   H2Y 5448   3.880   5.141   2.623  1.2639 -2.1480 -0.4670
   66SAPC   C23 5449   3.782   4.475   2.738 -0.4442 -0.0898 -0.0198
   66SAPC   H3R 5450   3.838   4.380   2.726 -0.2016 -0.1455  1.3970
   66SAPC   H3S 5451   3.692   4.440   2.793 -1.8049  1.0121 -1.4227
   66SAPC   C24 5452   3.852   4.575   2.822 -0.1115 -0.2408  0.4198
   66SAPC   H4R 5453   3.796   4.671   2.832 -1.6931 -0.4315 -4.1206
   66SAPC   H4S 5454   3.941   4.607   2.763  0.4878  0.5978  1.7327
   66SAPC   C25 5455   3.899   4.511   2.945 -0.3162  0.4463  0.2922
   66SAPC   H5R 5456   3.974   4.430   2.942 -1.0428 -0.2305 -2.3947
   66SAPC   C26 5457   3.853   4.546   3.067 -0.2168  0.0067 -0.1634
   66SAPC   H6R 5458   3.894   4.495   3.155  0.3725  2.3841  1.0176
   66SAPC   C27 5459   3.771   4.672   3.108 -0.7565  0.1705 -0.4220
   66SAPC   H7R 5460   3.774   4.746   3.026 -1.2026  1.0566  0.3433
   66SAPC   H7S 5461   3.819   4.708   3.201  1.9157 -3.2998 -0.2626
   66SAPC   C28 5462   3.629   4.650   3.140  0.1228 -0.1300  0.6234
   66SAPC   H8R 5463   3.567   4.639   3.050  2.1491  0.7269 -0.9659
   66SAPC   C29 5464   3.575   4.626   3.267 -0.3956 -0.2202 -0.7367
   66SAPC   H9R 5465   3.466   4.618   3.278 -0.2393  0.4184  2.0959
   66SAPC  C210 5466   3.645   4.631   3.400 -0.0673 -0.2537 -0.7883
   66SAPC  H10R 5467   3.600   4.712   3.460 -1.8514 -1.7107 -0.0587
   66SAPC  H10S 5468   3.755   4.649   3.390  0.1432 -1.7865 -1.6073
   66SAPC  C211 5469   3.609   4.507   3.475 -0.3064 -0.3448 -0.2344
   66SAPC  H11R 5470   3.541   4.438   3.423  1.2336 -2.8254  0.8575
   66SAPC  C212 5471   3.655   4.469   3.599  0.5132 -0.3762 -0.1460
   66SAPC  H12R 5472   3.598   4.397   3.659 -0.7610  1.3433  0.8189
   66SAPC  C213 5473   3.751   4.553   3.691  0.3618  0.2776  1.4850
   66SAPC  H13R 5474   3.821   4.595   3.616 -0.4833 -0.0373  0.4961
   66SAPC  H13S 5475   3.807   4.483   3.756  1.7315 -3.2017 -2.9465
   66SAPC  C214 5476   3.678   4.665   3.771  0.3154 -0.2981 -0.5184
   66SAPC  H14R 5477   3.622   4.731   3.703  3.8129 -0.5625 -3.9714
   66SAPC  C215 5478   3.698   4.689   3.901 -0.2117  0.5980  0.4269
   66SAPC  H15R 5479   3.623   4.751   3.952 -1.1774  0.4016 -0.7205
   66SAPC  C216 5480   3.787   4.604   3.993  0.4699  0.2858  0.3389
   66SAPC  H16R 5481   3.805   4.498   3.965 -0.0283 -0.0064  1.1054
   66SAPC  H16S 5482   3.732   4.593   4.089 -0.9757 -1.3165 -0.6220
   66SAPC  C217 5483   3.926   4.663   4.036 -0.4349  0.4271  1.0139
   66SAPC  H17R 5484   3.924   4.768   4.071  2.3362  0.8252  0.1765
   66SAPC  H17S 5485   3.983   4.675   3.941 -2.5472  3.1194 -0.0395
   66SAPC  C218 5486   4.004   4.582   4.136  0.9192  0.4260  0.4129
   66SAPC  H18R 5487   3.994   4.476   4.103 -0.4942  1.2557 -2.1948
   66SAPC  H18S 5488   3.954   4.584   4.235  1.6563 -0.1175  0.8011
   66SAPC  C219 5489   4.146   4.621   4.158  0.1757  0.5603  0.7357
   66SAPC  H19R 5490   4.151   4.720   4.208  2.0404  1.8570 -1.7548
   66SAPC  H19S 5491   4.206   4.648   4.068  3.2854 -2.6088  1.6272
   66SAPC  C220 5492   4.229   4.502   4.223  0.9859 -0.7146  0.4791
   66SAPC  H20R 5493   4.219   4.517   4.333 -0.6952  1.0970  0.1210
   66SAPC  H20S 5494   4.334   4.533   4.204  0.9114 -1.5772 -1.5982
   66SAPC  H20T 5495   4.207   4.397   4.193 -0.8698 -0.5620  1.1679
   66SAPC   C33 5496   3.694   5.062   2.715  0.4048 -0.1929 -0.6737
   66SAPC   H3X 5497   3.640   4.967   2.696  1.1504 -0.5377 -1.1212
   66SAPC   H3Y 5498   3.624   5.148   2.703  0.8173  0.3990  0.9420
   66SAPC   C34 5499   3.772   5.068   2.848  0.6213  0.5412  0.4786
   66SAPC   H4X 5500   3.839   5.156   2.852  3.4941 -1.1021 -3.8969
   66SAPC   H4Y 5501   3.846   4.984   2.851  0.8563  0.7407  0.3382
   66SAPC   C35 5502   3.687   5.051   2.972  0.2998  0.1440 -0.0697
   66SAPC   H5X 5503   3.638   4.953   2.955  1.5460 -0.4022 -0.6438
   66SAPC   H5Y 5504   3.602   5.124   2.971 -1.2654 -1.5994 -0.7428
   66SAPC   C36 5505   3.775   5.050   3.097  0.3499 -0.4587  0.2585
   66SAPC   H6X 5506   3.820   5.151   3.105 -1.2672  0.3487 -0.4761
   66SAPC   H6Y 5507   3.859   4.978   3.087  0.2461 -0.5980  0.3826
   66SAPC   C37 5508   3.705   5.034   3.234  0.0629 -0.2858  0.7191
   66SAPC   H7X 5509   3.669   4.930   3.252 -0.9923 -0.4754 -1.9420
   66SAPC   H7Y 5510   3.621   5.106   3.240  1.3292  1.2761  0.2253
   66SAPC   C38 5511   3.794   5.071   3.350 -0.2882  0.3358 -0.3784
   66SAPC   H8X 5512   3.845   5.166   3.326 -2.6279  1.2564 -2.0395
   66SAPC   H8Y 5513   3.872   4.994   3.369 -1.1490 -0.1829  1.2981
   66SAPC   C39 5514   3.727   5.083   3.486  0.2804 -0.0553 -0.9686
   66SAPC   H9X 5515   3.711   4.977   3.516  3.2355 -0.6140 -1.0274
   66SAPC   H9Y 5516   3.630   5.135   3.472 -0.9782 -2.0890 -0.2982
   66SAPC  C310 5517   3.811   5.143   3.605 -0.3873 -0.5952  0.2499
   66SAPC  H10X 5518   3.807   5.253   3.590 -0.3257 -0.2672  2.3048
   66SAPC  H10Y 5519   3.918   5.122   3.584  0.7873  4.9656 -0.9969
   66SAPC  C311 5520   3.752   5.109   3.741  0.3769  0.1560 -0.3069
   66SAPC  H11X 5521   3.748   4.998   3.745 -1.1360  0.1884 -0.2996
   66SAPC  H11Y 5522   3.649   5.150   3.751  0.2910 -0.2934  0.8319
   66SAPC  C312 5523   3.843   5.168   3.856 -0.2503 -0.8312 -0.0204
   66SAPC  H12X 5524   3.834   5.279   3.863  0.1413 -0.6517 -1.8106
   66SAPC  H12Y 5525   3.947   5.146   3.826 -0.1470 -2.3279  1.3097
   66SAPC  C313 5526   3.819   5.095   3.994  0.2900 -0.1829  0.1690
   66SAPC  H13X 5527   3.908   5.120   4.056 -0.4587 -2.1323  2.2062
   66SAPC  H13Y 5528   3.829   4.985   3.982  0.5111 -0.2850  1.1587
   66SAPC  C314 5529   3.686   5.134   4.072 -0.0977  0.5914 -0.0292
   66SAPC  H14X 5530   3.594   5.087   4.033 -0.3177  1.9225 -1.2153
   66SAPC  H14Y 5531   3.676   5.244   4.060 -4.3909  0.2707 -0.8225
   66SAPC  C315 5532   3.702   5.103   4.230  0.5449  0.4737  0.7949
   66SAPC  H15X 5533   3.760   5.183   4.279 -0.2320  1.3350  0.3558
   66SAPC  H15Y 5534   3.750   5.004   4.247 -1.8587 -1.6559 -3.1198
   66SAPC  C316 5535   3.563   5.093   4.289 -0.5343  0.0660  0.3151
   66SAPC  H16X 5536   3.582   5.048   4.388 -0.0024 -0.0797  0.1519
   66SAPC  H16Y 5537   3.500   5.029   4.223  1.5042 -0.1085 -1.6149
   66SAPC  C317 5538   3.492   5.227   4.320  0.0263 -0.1384 -0.8256
   66SAPC  H17X 5539   3.529   5.300   4.244 -0.3842 -0.6486 -1.5282
   66SAPC  H17Y 5540   3.518   5.256   4.424 -1.8115 -0.4994 -0.2302
   66SAPC  C318 5541   3.341   5.215   4.302 -0.7538  0.5208 -0.3401
   66SAPC  H18X 5542   3.284   5.306   4.331 -1.9604 -1.0978  2.8176
   66SAPC  H18Y 5543   3.309   5.146   4.383  0.3386 -1.9904 -1.9217
   66SAPC  H18Z 5544   3.317   5.178   4.200 -2.8017 -0.1523  0.3351
   67SAPC     N 5545   5.439   6.610   1.935  0.7543 -0.1423 -0.3072
   67SAPC   C12 5546   5.458   6.531   2.074  0.5738  0.0716 -0.0325
   67SAPC  H12A 5547   5.440   6.597   2.158 -1.0874  1.0407 -1.0901
   67SAPC  H12B 5548   5.560   6.495   2.074  1.9102  3.3018 -2.5536
   67SAPC   C13 5549   5.453   6.519   1.820 -0.0731  0.1551 -0.3268
   67SAPC  H13A 5550   5.551   6.473   1.811  0.3494  1.0929 -0.7271
   67SAPC  H13B 5551   5.379   6.442   1.828  1.1615 -0.9203  1.9988
   67SAPC  H13C 5552   5.429   6.571   1.729 -1.0725 -0.0225 -0.1738
   67SAPC   C14 5553   5.301   6.665   1.935 -0.2714 -0.3454  0.4966
   67SAPC  H14A 5554   5.275   6.693   1.834  0.1503  0.4154  0.5840
   67SAPC  H14B 5555   5.226   6.595   1.967 -1.4125  0.1319 -1.0583
   67SAPC  H14C 5556   5.302   6.751   2.001  2.9057  0.1581 -0.0142
   67SAPC   C15 5557   5.537   6.722   1.937 -0.4176  0.6852  0.0159
   67SAPC  H15A 5558   5.532   6.791   1.855  1.1912  1.5674  0.6116
   67SAPC  H15B 5559   5.542   6.769   2.035  1.9102  0.8352 -0.1021
   67SAPC  H15C 5560   5.638   6.683   1.938 -0.9135 -0.7417  2.2777
   67SAPC   C11 5561   5.369   6.408   2.098  0.4804  0.3467  0.4744
   67SAPC  H11A 5562   5.405   6.357   2.189 -0.4647 -0.3652  0.4730
   67SAPC  H11B 5563   5.385   6.329   2.021  1.2556  0.9510  0.0012
   67SAPC     P 5564   5.108   6.355   2.071 -0.2613 -0.3842 -0.0839
   67SAPC   O13 5565   4.980   6.421   2.076  0.1479 -0.1830 -0.0571
   67SAPC   O14 5566   5.142   6.294   1.940  0.5169 -0.2466 -0.3133
   67SAPC   O12 5567   5.230   6.436   2.109  0.6374  0.5234 -0.0127
   67SAPC   O11 5568   5.107   6.249   2.182 -0.0173  0.4721  1.1571
   67SAPC    C1 5569   5.145   6.273   2.318 -0.2158 -0.6861 -0.0410
   67SAPC    HA 5570   5.184   6.182   2.367  1.0447 -0.2397 -0.1962
   67SAPC    HB 5571   5.218   6.357   2.327 -0.3196 -0.5495 -0.4634
   67SAPC    C2 5572   5.027   6.334   2.398  0.1280  0.4402 -0.3986
   67SAPC    HS 5573   4.998   6.436   2.366 -0.7989  0.5492  0.6969
   67SAPC   O21 5574   5.071   6.335   2.536 -0.0337 -0.0206  0.4841
   67SAPC   C21 5575   5.113   6.450   2.586  0.5220  0.2965  0.3692
   67SAPC   O22 5576   5.132   6.550   2.524  0.2335 -0.3161 -0.1400
   67SAPC   C22 5577   5.143   6.444   2.727 -0.9979  0.5244 -0.2324
   67SAPC   H2R 5578   5.076   6.378   2.785  1.1259 -1.5300  0.0159
   67SAPC   H2S 5579   5.243   6.396   2.731 -0.9211  0.6154 -0.9531
   67SAPC    C3 5580   4.910   6.237   2.391  0.2655 -1.1889 -0.6198
   67SAPC    HX 5581   4.878   6.243   2.285 -3.0869  1.1792  0.3496
   67SAPC    HY 5582   4.826   6.289   2.442  1.4302  1.3096 -1.1300
   67SAPC   O31 5583   4.940   6.101   2.432  0.3637  0.0903 -0.0267
   67SAPC   C31 5584   4.914   6.088   2.564 -0.4780  0.4556  0.0775
   67SAPC   O32 5585   4.878   6.176   2.636 -0.3134 -0.2915  0.2126
   67SAPC   C32 5586   4.930   5.940   2.596  0.0555 -0.1819  0.2021
   67SAPC   H2X 5587   5.033   5.904   2.574 -0.9433 -2.2060 -1.5702
   67SAPC   H2Y 5588   4.864   5.880   2.530 -0.2374  0.3959 -0.0388
   67SAPC   C23 5589   5.163   6.590   2.788 -0.1352  0.5913  0.2774
   67SAPC   H3R 5590   5.075   6.654   2.768 -1.1746 -0.8691  0.0242
   67SAPC   H3S 5591   5.240   6.648   2.732 -0.0956  0.9930  0.7447
   67SAPC   C24 5592   5.190   6.586   2.942 -0.2595 -0.0681  1.0767
   67SAPC   H4R 5593   5.284   6.528   2.948 -0.1957 -0.0785  0.0682
   67SAPC   H4S 5594   5.120   6.526   3.004  0.5442  1.0973  3.2352
   67SAPC   C25 5595   5.198   6.731   2.995 -0.4852  0.2237 -0.1995
   67SAPC   H5R 5596   5.138   6.804   2.938 -1.9080  0.1037  1.0803
   67SAPC   C26 5597   5.282   6.779   3.086 -0.6292  0.4605 -0.8654
   67SAPC   H6R 5598   5.285   6.889   3.092  1.9994  0.3498  1.7155
   67SAPC   C27 5599   5.381   6.708   3.178 -0.0147  0.3426  0.5429
   67SAPC   H7R 5600   5.462   6.782   3.196  3.0744 -2.6520 -0.1370
   67SAPC   H7S 5601   5.422   6.625   3.118 -0.4645  0.7546 -0.3517
   67SAPC   C28 5602   5.330   6.648   3.305  0.8910  0.7323  0.1980
   67SAPC   H8R 5603   5.310   6.540   3.298  1.3358  0.4730  2.3137
   67SAPC   C29 5604   5.292   6.710   3.423  0.1847 -0.5456 -0.0593
   67SAPC   H9R 5605   5.251   6.650   3.505 -2.3552  0.2133 -0.6602
   67SAPC  C210 5606   5.314   6.856   3.445  0.2316 -0.2889  0.3073
   67SAPC  H10R 5607   5.233   6.895   3.510 -1.4067 -2.6616 -0.1847
   67SAPC  H10S 5608   5.312   6.915   3.351  0.6872 -0.7664 -0.0116
   67SAPC  C211 5609   5.449   6.887   3.508  0.2948  0.1705 -0.3339
   67SAPC  H11R 5610   5.527   6.913   3.435 -1.6721  0.2118 -2.5549
   67SAPC  C212 5611   5.478   6.900   3.637  0.8785  0.0343 -0.2073
   67SAPC  H12R 5612   5.582   6.915   3.670  1.5370 -0.7895 -1.8030
   67SAPC  C213 5613   5.379   6.883   3.751 -0.0535 -0.3421  0.3873
   67SAPC  H13R 5614   5.414   6.788   3.798 -1.1942 -1.5340 -1.0649
   67SAPC  H13S 5615   5.278   6.859   3.712 -0.2612 -0.3482  0.9337
   67SAPC  C214 5616   5.359   6.987   3.856  0.3731 -0.2453 -0.3258
   67SAPC  H14R 5617   5.398   6.968   3.957  1.7802  1.9078 -0.3889
   67SAPC  C215 5618   5.305   7.110   3.834  0.5222  0.5898  0.0383
   67SAPC  H15R 5619   5.299   7.187   3.912 -0.6343  0.4467  0.1089
   67SAPC  C216 5620   5.233   7.156   3.705 -0.2707 -0.8489 -0.1022
   67SAPC  H16R 5621   5.254   7.090   3.618 -0.3521 -1.4029  0.2936
   67SAPC  H16S 5622   5.259   7.260   3.678 -0.5134 -1.2755 -2.1565
   67SAPC  C217 5623   5.082   7.141   3.730  0.3260 -0.2440 -0.4630
   67SAPC  H17R 5624   5.048   7.184   3.826 -1.7514  2.0336 -2.0888
   67SAPC  H17S 5625   5.048   7.036   3.718  1.3464 -0.5761 -0.4917
   67SAPC  C218 5626   4.993   7.217   3.630 -0.0404 -0.2339  0.2205
   67SAPC  H18R 5627   4.887   7.203   3.659  0.1264  0.8060  1.4523
   67SAPC  H18S 5628   5.007   7.164   3.534 -0.5354  0.1265 -0.0587
   67SAPC  C219 5629   5.030   7.362   3.614 -0.3289  0.7223 -0.5082
   67SAPC  H19R 5630   5.139   7.372   3.593 -0.0919 -1.7440 -0.7445
   67SAPC  H19S 5631   5.006   7.418   3.707 -0.3532  1.3662 -0.8930
   67SAPC  C220 5632   4.958   7.421   3.492 -0.0371  0.5618  0.0895
   67SAPC  H20R 5633   4.849   7.434   3.504 -0.1471 -1.0997  1.2864
   67SAPC  H20S 5634   4.971   7.349   3.408  1.7514 -1.1701  1.7346
   67SAPC  H20T 5635   5.008   7.518   3.472 -1.7274  1.4757  0.1657
   67SAPC   C33 5636   4.885   5.913   2.745 -1.1032 -0.3168  0.4006
   67SAPC   H3X 5637   4.946   5.980   2.810 -0.0168  1.0328 -1.8622
   67SAPC   H3Y 5638   4.922   5.816   2.784 -0.0343  0.6583  1.9851
   67SAPC   C34 5639   4.739   5.919   2.769 -0.5869 -0.0178  0.5045
   67SAPC   H4X 5640   4.690   5.825   2.736 -0.6631  0.2919 -0.2753
   67SAPC   H4Y 5641   4.707   6.015   2.724 -0.7554 -0.8964 -1.3471
   67SAPC   C35 5642   4.699   5.937   2.915  0.0361  0.6047 -0.4215
   67SAPC   H5X 5643   4.744   5.857   2.978 -1.2298 -0.1013 -0.3759
   67SAPC   H5Y 5644   4.589   5.937   2.929  0.1468  1.0295  0.5452
   67SAPC   C36 5645   4.754   6.072   2.983 -0.5051 -0.4170  0.4332
   67SAPC   H6X 5646   4.701   6.149   2.923 -2.7080 -2.0807  0.1073
   67SAPC   H6Y 5647   4.864   6.073   2.966 -0.7384 -1.1072 -1.2904
   67SAPC   C37 5648   4.694   6.077   3.129 -0.5818 -0.4614 -0.3534
   67SAPC   H7X 5649   4.596   6.026   3.135 -1.0113  0.5225  1.4161
   67SAPC   H7Y 5650   4.680   6.183   3.157  1.0502 -0.7501  1.8005
   67SAPC   C38 5651   4.799   6.017   3.226  0.0726 -0.9106 -0.2669
   67SAPC   H8X 5652   4.896   6.067   3.205 -0.0882 -0.2481  0.5411
   67SAPC   H8Y 5653   4.813   5.907   3.223  0.5338 -0.9543  2.1126
   67SAPC   C39 5654   4.771   6.035   3.379 -0.2521  0.3448 -0.1704
   67SAPC   H9X 5655   4.865   6.028   3.439 -0.1463 -0.9591 -0.4611
   67SAPC   H9Y 5656   4.705   5.953   3.413 -1.2973  0.3746 -2.0033
   67SAPC  C310 5657   4.700   6.171   3.419 -0.3328  0.2217  0.1506
   67SAPC  H10X 5658   4.598   6.162   3.377 -0.7928 -0.2955  1.3344
   67SAPC  H10Y 5659   4.762   6.256   3.384  1.2523 -0.4303  1.2138
   67SAPC  C311 5660   4.695   6.186   3.567  0.3066 -0.3656  0.4772
   67SAPC  H11X 5661   4.800   6.194   3.604  0.8356  0.1435 -1.0457
   67SAPC  H11Y 5662   4.642   6.095   3.603  0.1461 -0.2409  0.5581
   67SAPC  C312 5663   4.613   6.306   3.616  0.5323  1.4958  0.2631
   67SAPC  H12X 5664   4.506   6.286   3.593  0.7109 -1.2967  1.4229
   67SAPC  H12Y 5665   4.651   6.392   3.558  2.6088  0.6950  0.3680
   67SAPC  C313 5666   4.629   6.324   3.761  0.1251  0.4812 -0.1503
   67SAPC  H13X 5667   4.732   6.364   3.775  0.8554 -0.7578 -1.5832
   67SAPC  H13Y 5668   4.620   6.229   3.817  0.7432  0.9715  0.8052
   67SAPC  C314 5669   4.542   6.434   3.822 -0.0874 -0.4800 -0.1964
   67SAPC  H14X 5670   4.435   6.404   3.820 -0.6651  1.2436  1.3378
   67SAPC  H14Y 5671   4.546   6.522   3.755 -0.0214 -0.3047  0.0345
   67SAPC  C315 5672   4.574   6.454   3.971  0.4992  0.7017 -0.7609
   67SAPC  H15X 5673   4.509   6.529   4.020  2.4921  1.7549  0.4144
   67SAPC  H15Y 5674   4.673   6.505   3.972 -0.3563  2.4300 -0.4514
   67SAPC  C316 5675   4.568   6.326   4.056 -0.3076 -0.2835 -0.5582
   67SAPC  H16X 5676   4.658   6.261   4.046 -1.3198 -1.5919 -1.5058
   67SAPC  H16Y 5677   4.490   6.265   4.006 -1.1733  2.3592 -2.6399
   67SAPC  C317 5678   4.530   6.373   4.197 -0.2108  0.3837 -0.2020
   67SAPC  H17X 5679   4.535   6.286   4.265  0.5572 -0.0595 -0.8029
   67SAPC  H17Y 5680   4.428   6.417   4.198 -0.9819 -1.3377  0.6008
   67SAPC  C318 5681   4.627   6.473   4.262 -0.0466 -0.0074 -0.2434
   67SAPC  H18X 5682   4.588   6.512   4.359  1.9895  1.3235  0.0921
   67SAPC  H18Y 5683   4.658   6.564   4.207 -0.6635 -0.6094 -1.6256
   67SAPC  H18Z 5684   4.724   6.432   4.299 -0.2755 -0.2470  0.1053
   68SAPC     N 5685   6.627   1.290   1.996  0.3274 -0.2706  0.2195
   68SAPC   C12 5686   6.766   1.331   2.048 -0.1200 -0.4092  0.0965
   68SAPC  H12A 5687   6.798   1.407   1.978  1.7457  1.6421  2.9465
   68SAPC  H12B 5688   6.831   1.246   2.043  0.1182 -0.1919 -0.7126
   68SAPC   C13 5689   6.531   1.400   1.994  0.7291  0.4478  0.4814
   68SAPC  H13A 5690   6.564   1.479   1.929  4.0609  0.2727  1.7917
   68SAPC  H13B 5691   6.432   1.360   1.975  1.4464 -0.8131 -0.7740
   68SAPC  H13C 5692   6.525   1.443   2.093  0.4217 -0.4006  0.8418
   68SAPC   C14 5693   6.642   1.222   1.863  0.1512  0.1372 -0.2292
   68SAPC  H14A 5694   6.701   1.283   1.797  1.3519  0.0537  0.7192
   68SAPC  H14B 5695   6.697   1.130   1.874 -2.4996 -1.3564  1.7391
   68SAPC  H14C 5696   6.543   1.201   1.827  0.0558 -0.2871  0.2629
   68SAPC   C15 5697   6.565   1.178   2.081 -0.5770 -0.2711 -0.0137
   68SAPC  H15A 5698   6.470   1.147   2.041 -1.2826  0.5940  0.9276
   68SAPC  H15B 5699   6.626   1.090   2.070 -0.8373 -0.3030 -1.3215
   68SAPC  H15C 5700   6.554   1.213   2.183 -0.3480 -0.8981  0.2337
   68SAPC   C11 5701   6.773   1.399   2.190 -0.0698 -0.5389  0.9292
   68SAPC  H11A 5702   6.694   1.477   2.191 -1.2353 -1.6565 -0.2270
   68SAPC  H11B 5703   6.876   1.430   2.217 -1.3933  0.4439  5.6770
   68SAPC     P 5704   6.819   1.172   2.330  0.2425  0.0200  0.1054
   68SAPC   O13 5705   6.721   1.061   2.332 -0.1647 -0.4750  0.2499
   68SAPC   O14 5706   6.939   1.157   2.239  0.8730  0.0101 -0.1443
   68SAPC   O12 5707   6.734   1.304   2.286 -0.6120 -0.5336  0.5372
   68SAPC   O11 5708   6.874   1.185   2.474 -0.5324  0.4850 -0.2377
   68SAPC    C1 5709   6.892   1.308   2.552 -0.0603 -0.3555  1.4609
   68SAPC    HA 5710   6.816   1.383   2.522  1.1692  0.6027  0.6755
   68SAPC    HB 5711   6.869   1.282   2.657  1.9431  0.3409  2.1250
   68SAPC    C2 5712   7.033   1.363   2.563 -0.2068  0.2790  0.8186
   68SAPC    HS 5713   7.062   1.366   2.455  1.3819  0.7300  1.2325
   68SAPC   O21 5714   7.111   1.267   2.628  0.0021  0.2098 -0.3509
   68SAPC   C21 5715   7.249   1.291   2.629 -0.2015  0.1629  0.3875
   68SAPC   O22 5716   7.296   1.387   2.565 -0.1794  0.4335 -0.4180
   68SAPC   C22 5717   7.329   1.181   2.699  0.0493  0.4334 -0.4140
   68SAPC   H2R 5718   7.287   1.162   2.800  0.5338  0.9927 -0.1016
   68SAPC   H2S 5719   7.317   1.091   2.635  0.3952 -1.0774  1.5640
   68SAPC    C3 5720   7.027   1.506   2.624  0.3467 -0.3664 -0.4351
   68SAPC    HX 5721   6.969   1.556   2.544 -1.9459 -0.6374  0.9634
   68SAPC    HY 5722   7.131   1.543   2.634  0.6954 -1.7664  1.7895
   68SAPC   O31 5723   6.973   1.498   2.756  0.0184 -0.2060  0.0177
   68SAPC   C31 5724   6.881   1.591   2.791 -0.7625 -0.1685  0.3774
   68SAPC   O32 5725   6.841   1.684   2.723 -0.6611  0.1005  0.2896
   68SAPC   C32 5726   6.832   1.560   2.929  0.1494  0.1370 -0.1532
   68SAPC   H2X 5727   6.907   1.492   2.975  0.3939  0.5793  0.1123
   68SAPC   H2Y 5728   6.726   1.526   2.922  0.1125  0.2877 -0.3255
   68SAPC   C23 5729   7.479   1.205   2.716  0.5492  0.1439 -0.0280
   68SAPC   H3R 5730   7.498   1.295   2.778  0.4307 -1.3478  2.2808
   68SAPC   H3S 5731   7.528   1.234   2.620  0.1736 -0.4723 -0.4103
   68SAPC   C24 5732   7.536   1.085   2.783 -0.0965  0.2840 -0.0049
   68SAPC   H4R 5733   7.504   1.005   2.713 -1.6841 -0.0490  1.0274
   68SAPC   H4S 5734   7.485   1.061   2.879  2.8403  0.9185  1.8422
   68SAPC   C25 5735   7.685   1.094   2.805 -0.4287  0.4635 -0.0772
   68SAPC   H5R 5736   7.736   1.098   2.707  0.5681 -1.0050  0.3482
   68SAPC   C26 5737   7.753   1.109   2.917  0.3565 -0.3197 -0.2820
   68SAPC   H6R 5738   7.861   1.127   2.919  0.3397 -0.2352  1.1382
   68SAPC   C27 5739   7.696   1.111   3.060  0.9070  0.4700  0.2085
   68SAPC   H7R 5740   7.663   1.008   3.084  0.7363  0.5057  0.1219
   68SAPC   H7S 5741   7.606   1.176   3.058  0.9031  0.5070  1.0394
   68SAPC   C28 5742   7.775   1.172   3.170 -0.1769 -0.2429  0.5951
   68SAPC   H8R 5743   7.776   1.282   3.164 -1.9065 -0.2561 -0.8060
   68SAPC   C29 5744   7.858   1.104   3.251  0.4489  0.0228  0.7690
   68SAPC   H9R 5745   7.928   1.153   3.321  2.2410 -1.5900  0.1747
   68SAPC  C210 5746   7.868   0.957   3.253  0.1102 -0.6426 -0.2092
   68SAPC  H10R 5747   7.970   0.937   3.293  1.3422  0.6773 -2.4469
   68SAPC  H10S 5748   7.876   0.924   3.147  2.2532 -1.9237  0.2933
   68SAPC  C211 5749   7.754   0.901   3.335 -0.4834  0.5618  0.0884
   68SAPC  H11R 5750   7.666   0.967   3.332  0.0312  1.5804  3.1163
   68SAPC  C212 5751   7.756   0.785   3.406  0.1173 -0.4522  0.4764
   68SAPC  H12R 5752   7.670   0.749   3.464 -1.0604  0.7578 -0.4462
   68SAPC  C213 5753   7.881   0.717   3.443  0.3888  0.5502  0.3360
   68SAPC  H13R 5754   7.978   0.763   3.413  1.9083 -3.1342 -0.8986
   68SAPC  H13S 5755   7.879   0.619   3.392  1.6711 -0.4932  2.2004
   68SAPC  C214 5756   7.905   0.668   3.585  0.1793 -0.6423  0.0389
   68SAPC  H14R 5757   7.938   0.563   3.590  0.2290 -0.6488 -0.3910
   68SAPC  C215 5758   7.875   0.717   3.705 -0.2574 -0.6770  0.0693
   68SAPC  H15R 5759   7.888   0.656   3.796  0.7708  1.7496  1.6762
   68SAPC  C216 5760   7.807   0.848   3.724 -0.3801 -0.7004 -0.2375
   68SAPC  H16R 5761   7.697   0.831   3.735 -0.0512 -1.8894  1.7122
   68SAPC  H16S 5762   7.831   0.911   3.636  2.0941 -1.4791 -0.1966
   68SAPC  C217 5763   7.844   0.912   3.857  0.6450  0.0146 -0.6690
   68SAPC  H17R 5764   7.835   0.838   3.939  2.5432 -0.1240 -0.5392
   68SAPC  H17S 5765   7.775   0.995   3.884 -0.3330 -0.4668 -1.6475
   68SAPC  C218 5766   7.986   0.970   3.865 -0.0502 -0.3274  0.1595
   68SAPC  H18R 5767   8.046   0.949   3.773 -1.4737  1.7664 -1.3466
   68SAPC  H18S 5768   8.037   0.930   3.955  3.0061  1.2379 -0.7203
   68SAPC  C219 5769   7.978   1.120   3.881  0.3083 -0.2444 -0.3303
   68SAPC  H19R 5770   7.914   1.131   3.971  1.6179  1.1246  0.4924
   68SAPC  H19S 5771   7.921   1.144   3.789 -1.4226 -0.9273  0.5296
   68SAPC  C220 5772   8.110   1.192   3.886  0.2595  0.6512  0.3504
   68SAPC  H20R 5773   8.185   1.148   3.956  1.3214 -2.0760 -2.3222
   68SAPC  H20S 5774   8.079   1.294   3.917  1.9913  0.5329  2.8475
   68SAPC  H20T 5775   8.154   1.190   3.785 -3.4544 -2.1860 -1.4411
   68SAPC   C33 5776   6.825   1.675   3.030  0.2344  0.0405 -0.8029
   68SAPC   H3X 5777   6.787   1.771   2.989  1.4988  2.0424  2.2953
   68SAPC   H3Y 5778   6.925   1.710   3.064  0.0536  0.5625 -0.7945
   68SAPC   C34 5779   6.738   1.644   3.156  0.1185 -0.3222  0.2244
   68SAPC   H4X 5780   6.754   1.539   3.190 -0.3778  0.0833  1.7844
   68SAPC   H4Y 5781   6.631   1.658   3.129  0.4838  1.6621 -0.3264
   68SAPC   C35 5782   6.767   1.735   3.275 -0.1242 -0.8163 -0.3158
   68SAPC   H5X 5783   6.871   1.719   3.312 -0.5305 -1.1968  0.6891
   68SAPC   H5Y 5784   6.705   1.697   3.359 -0.7068 -1.4905 -1.0388
   68SAPC   C36 5785   6.739   1.879   3.246 -0.6075  0.0864 -0.4855
   68SAPC   H6X 5786   6.635   1.887   3.208 -0.9378 -1.7016 -0.0480
   68SAPC   H6Y 5787   6.815   1.916   3.173 -0.2290  1.1629  0.4310
   68SAPC   C37 5788   6.752   1.965   3.377 -0.5050  0.4262 -0.0933
   68SAPC   H7X 5789   6.705   1.909   3.461  1.2355 -0.1210  0.5525
   68SAPC   H7Y 5790   6.691   2.058   3.367 -0.6629  0.1559 -2.2230
   68SAPC   C38 5791   6.895   1.999   3.417  1.1060 -0.1908 -0.3822
   68SAPC   H8X 5792   6.918   2.072   3.336 -0.3260  1.5993  0.7614
   68SAPC   H8Y 5793   6.952   1.903   3.410 -1.3372 -1.8264  0.6902
   68SAPC   C39 5794   6.908   2.056   3.557  0.2015  0.7465  0.0584
   68SAPC   H9X 5795   7.016   2.071   3.576  0.2099  1.4004 -0.4577
   68SAPC   H9Y 5796   6.887   1.976   3.631  3.1970 -0.0730  0.1733
   68SAPC  C310 5797   6.829   2.184   3.598  0.2054 -0.1918 -0.3646
   68SAPC  H10X 5798   6.720   2.163   3.601  0.0194  0.0155 -3.1165
   68SAPC  H10Y 5799   6.836   2.266   3.524 -0.3408 -0.2193 -0.4500
   68SAPC  C311 5800   6.866   2.242   3.735  0.5421 -0.6354  0.4964
   68SAPC  H11X 5801   6.808   2.334   3.757  0.9892 -0.4567  0.9421
   68SAPC  H11Y 5802   6.971   2.278   3.728  0.4709 -0.2893  1.1465
   68SAPC  C312 5803   6.852   2.150   3.857 -0.2071 -0.2094 -0.5982
   68SAPC  H12X 5804   6.941   2.084   3.857 -0.1351 -0.1289  0.4470
   68SAPC  H12Y 5805   6.762   2.086   3.844 -0.0183 -1.1879  2.1730
   68SAPC  C313 5806   6.840   2.228   3.994  0.0938 -0.6911  0.3509
   68SAPC  H13X 5807   6.828   2.156   4.077 -2.7273 -0.5287  0.1586
   68SAPC  H13Y 5808   6.752   2.295   3.988 -0.7700 -1.6672  1.7001
   68SAPC  C314 5809   6.958   2.322   4.024  0.4215  0.8443  0.0302
   68SAPC  H14X 5810   6.979   2.377   3.930 -0.9492  0.0600 -0.7712
   68SAPC  H14Y 5811   7.043   2.258   4.053 -0.2543  0.6727  1.7558
   68SAPC  C315 5812   6.911   2.421   4.136  0.1696 -0.0958  0.4787
   68SAPC  H15X 5813   6.922   2.360   4.228  2.4440  0.4783  0.6325
   68SAPC  H15Y 5814   6.810   2.465   4.123  0.2182 -0.2074 -0.3888
   68SAPC  C316 5815   7.016   2.537   4.141 -0.5688 -0.1888  0.0014
   68SAPC  H16X 5816   7.026   2.575   4.037 -1.0579  3.3160  1.1137
   68SAPC  H16Y 5817   7.116   2.503   4.176 -1.0641 -1.1558  0.5350
   68SAPC  C317 5818   6.970   2.652   4.225  0.3208 -0.2472  0.2501
   68SAPC  H17X 5819   6.941   2.605   4.321 -0.5864  1.1445  0.7009
   68SAPC  H17Y 5820   6.877   2.695   4.181  1.2176  1.4612 -0.0747
   68SAPC  C318 5821   7.065   2.772   4.240 -0.1572 -0.3833 -0.4175
   68SAPC  H18X 5822   7.165   2.735   4.270 -1.0713 -1.6638  1.1924
   68SAPC  H18Y 5823   7.018   2.842   4.312 -1.2695 -1.7304  0.2106
   68SAPC  H18Z 5824   7.074   2.820   4.140 -2.3788  0.6834 -0.1829
   69SAPC     N 5825   1.366   2.103   2.109 -0.7466 -0.0975 -0.0611
   69SAPC   C12 5826   1.345   2.249   2.082 -0.0441 -0.2528  0.5219
   69SAPC  H12A 5827   1.297   2.269   1.988 -1.7463  0.6631  1.5432
   69SAPC  H12B 5828   1.440   2.297   2.062 -0.0158 -0.6752 -0.3787
   69SAPC   C13 5829   1.243   2.019   2.119 -0.1306 -0.9270  0.4498
   69SAPC  H13A 5830   1.168   2.034   2.043  0.6160  0.9090  0.0391
   69SAPC  H13B 5831   1.279   1.917   2.127  0.3546 -0.7068  1.2886
   69SAPC  H13C 5832   1.195   2.040   2.213  2.8951 -1.0373  2.1657
   69SAPC   C14 5833   1.442   2.044   2.000 -0.7036  0.3259 -0.0714
   69SAPC  H14A 5834   1.535   2.097   1.986 -0.5708  0.5217  1.4271
   69SAPC  H14B 5835   1.462   1.940   2.018 -0.8491  0.2721 -0.2166
   69SAPC  H14C 5836   1.385   2.038   1.908 -0.0150 -2.5127 -0.4077
   69SAPC   C15 5837   1.439   2.084   2.245  0.2231  0.2030  0.0006
   69SAPC  H15A 5838   1.524   2.151   2.249  0.5601 -0.2479  0.4158
   69SAPC  H15B 5839   1.370   2.099   2.326 -0.2928  0.8446 -0.5375
   69SAPC  H15C 5840   1.480   1.985   2.256  0.8327  0.5360  0.8034
   69SAPC   C11 5841   1.261   2.321   2.190  0.7793  0.6287  0.0392
   69SAPC  H11A 5842   1.314   2.312   2.287  0.3282 -2.8555  0.0902
   69SAPC  H11B 5843   1.170   2.260   2.207  0.8286  0.8384  1.1207
   69SAPC     P 5844   1.333   2.574   2.138 -0.0940 -0.3054 -0.1436
   69SAPC   O13 5845   1.464   2.530   2.086  0.4120  0.3328 -0.4432
   69SAPC   O14 5846   1.264   2.685   2.067  0.0355 -0.0816 -0.6620
   69SAPC   O12 5847   1.231   2.455   2.153 -0.3183 -0.4884 -0.3271
   69SAPC   O11 5848   1.366   2.625   2.284  0.1224  0.6496  0.2850
   69SAPC    C1 5849   1.274   2.668   2.387 -0.1272  0.5577  0.2498
   69SAPC    HA 5850   1.189   2.725   2.342 -0.0955 -0.6681 -1.4629
   69SAPC    HB 5851   1.234   2.574   2.430 -2.2093  0.6723 -1.2553
   69SAPC    C2 5852   1.337   2.755   2.501 -0.0849  0.5063  0.4309
   69SAPC    HS 5853   1.354   2.852   2.449 -0.2271  0.2307 -0.1372
   69SAPC   O21 5854   1.463   2.706   2.542 -0.4836  0.5282  0.3402
   69SAPC   C21 5855   1.539   2.784   2.610 -0.1580  0.4694 -0.4803
   69SAPC   O22 5856   1.525   2.906   2.612 -0.2882 -0.6541 -0.8176
   69SAPC   C22 5857   1.652   2.703   2.684 -0.8784 -0.0741  0.3758
   69SAPC   H2R 5858   1.614   2.601   2.706  0.0073 -0.4738  0.0887
   69SAPC   H2S 5859   1.744   2.698   2.621  0.2090 -0.8212  1.9585
   69SAPC    C3 5860   1.233   2.756   2.613 -0.3629 -0.0957  0.0374
   69SAPC    HX 5861   1.268   2.810   2.704 -1.7183 -0.1145  0.5803
   69SAPC    HY 5862   1.233   2.649   2.643 -0.9405  0.0826  0.6879
   69SAPC   O31 5863   1.100   2.793   2.562  0.0748 -0.5066 -0.4295
   69SAPC   C31 5864   1.084   2.927   2.587  0.0848  0.2023 -0.3158
   69SAPC   O32 5865   1.177   3.001   2.619  0.5236  0.0938 -0.1913
   69SAPC   C32 5866   0.948   2.988   2.565  0.6552  0.6016  0.0211
   69SAPC   H2X 5867   0.872   2.908   2.580 -0.3022  1.6418  0.9585
   69SAPC   H2Y 5868   0.936   3.024   2.461 -0.8598 -0.2917 -0.1398
   69SAPC   C23 5869   1.702   2.770   2.819  0.3145  0.5899  0.0615
   69SAPC   H3R 5870   1.727   2.875   2.792  0.3348  0.2378 -1.3983
   69SAPC   H3S 5871   1.796   2.718   2.845  0.8668  1.7481  0.4699
   69SAPC   C24 5872   1.595   2.768   2.922 -0.4816  0.9873  0.0229
   69SAPC   H4R 5873   1.502   2.821   2.891 -1.5176 -1.5073 -1.4039
   69SAPC   H4S 5874   1.623   2.819   3.017 -1.9671  3.1521 -0.6247
   69SAPC   C25 5875   1.560   2.631   2.971  0.2124  1.1584 -0.1992
   69SAPC   H5R 5876   1.472   2.576   2.936  1.0446 -3.0523  3.2952
   69SAPC   C26 5877   1.625   2.565   3.071  0.0695  0.1961 -0.0899
   69SAPC   H6R 5878   1.587   2.467   3.103 -0.9495  0.4497 -0.4799
   69SAPC   C27 5879   1.741   2.616   3.143 -0.6699  0.1175  0.0781
   69SAPC   H7R 5880   1.724   2.709   3.201 -1.9394  0.8710 -1.4260
   69SAPC   H7S 5881   1.812   2.645   3.062  1.4881 -2.6563  0.8314
   69SAPC   C28 5882   1.803   2.509   3.228 -0.2866  0.1832  0.6098
   69SAPC   H8R 5883   1.888   2.457   3.181 -1.6032 -0.5546 -1.0584
   69SAPC   C29 5884   1.773   2.494   3.357 -0.2826 -0.4857 -0.0059
   69SAPC   H9R 5885   1.826   2.411   3.404  0.2476 -2.2219 -3.3357
   69SAPC  C210 5886   1.656   2.565   3.421 -0.1856 -0.5085 -0.2063
   69SAPC  H10R 5887   1.573   2.604   3.358 -1.6343 -0.8806  1.4017
   69SAPC  H10S 5888   1.687   2.662   3.464 -0.0831 -0.8998  0.6143
   69SAPC  C211 5889   1.588   2.473   3.520 -0.0184 -0.0476  0.0424
   69SAPC  H11R 5890   1.573   2.373   3.476  2.7884 -1.3207  1.7364
   69SAPC  C212 5891   1.543   2.497   3.642  0.3855  0.1472 -0.3627
   69SAPC  H12R 5892   1.512   2.414   3.706  0.4253  1.5966  1.6521
   69SAPC  C213 5893   1.563   2.618   3.726 -0.0355 -0.0446 -0.0178
   69SAPC  H13R 5894   1.586   2.702   3.657  0.6516  0.1598  0.4445
   69SAPC  H13S 5895   1.658   2.608   3.782 -0.2317 -0.1991  0.2900
   69SAPC  C214 5896   1.449   2.655   3.821  0.3748 -0.5336  0.4301
   69SAPC  H14R 5897   1.368   2.699   3.762  1.6488  1.2308 -0.0952
   69SAPC  C215 5898   1.453   2.643   3.956 -0.1234 -0.1139  0.5317
   69SAPC  H15R 5899   1.365   2.664   4.018  0.8426  0.2611  1.8060
   69SAPC  C216 5900   1.565   2.589   4.041  0.6003  0.0313  0.8095
   69SAPC  H16R 5901   1.610   2.676   4.093  0.9680 -0.3599  1.1517
   69SAPC  H16S 5902   1.640   2.542   3.973 -1.7321 -0.4640 -1.5961
   69SAPC  C217 5903   1.524   2.485   4.143  0.1521  0.4447 -0.6141
   69SAPC  H17R 5904   1.434   2.521   4.199 -0.1099  0.5270 -1.0778
   69SAPC  H17S 5905   1.594   2.479   4.229  1.5954  0.4024 -1.7737
   69SAPC  C218 5906   1.477   2.349   4.080  0.5649  0.3982 -0.3597
   69SAPC  H18R 5907   1.554   2.286   4.031 -1.5646 -1.5528 -1.4001
   69SAPC  H18S 5908   1.399   2.370   4.004  0.1685 -0.9191 -0.3328
   69SAPC  C219 5909   1.414   2.254   4.183 -0.1441  0.7817 -0.1820
   69SAPC  H19R 5910   1.389   2.165   4.121 -0.1771  0.7026 -0.0554
   69SAPC  H19S 5911   1.322   2.304   4.220 -0.4113 -0.6628  1.1960
   69SAPC  C220 5912   1.506   2.216   4.304  0.0996 -0.0549  0.6119
   69SAPC  H20R 5913   1.462   2.166   4.394 -2.6663 -0.3288 -0.7967
   69SAPC  H20S 5914   1.549   2.305   4.355  2.8839 -0.0203 -1.5203
   69SAPC  H20T 5915   1.593   2.166   4.256 -1.2321 -1.6104 -0.2826
   69SAPC   C33 5916   0.930   3.109   2.663  0.6166  0.0263 -0.2842
   69SAPC   H3X 5917   0.829   3.152   2.643  1.4416  1.6884 -1.0290
   69SAPC   H3Y 5918   1.011   3.182   2.642 -0.5519  1.0873 -1.2695
   69SAPC   C34 5919   0.922   3.067   2.812  0.5544  0.7212 -1.1679
   69SAPC   H4X 5920   1.013   3.024   2.859  0.2615  0.1814 -1.0961
   69SAPC   H4Y 5921   0.846   2.986   2.816  0.4739  0.7354  3.4149
   69SAPC   C35 5922   0.863   3.180   2.894  0.5312  0.1536 -0.7085
   69SAPC   H5X 5923   0.776   3.220   2.839  0.2111  1.8627  0.9338
   69SAPC   H5Y 5924   0.933   3.266   2.900  0.0932  0.4484  0.5596
   69SAPC   C36 5925   0.819   3.144   3.037 -0.1827 -0.3119 -0.0225
   69SAPC   H6X 5926   0.781   3.040   3.048 -2.0226  0.3723  0.4086
   69SAPC   H6Y 5927   0.738   3.218   3.054  1.2579  1.3940 -0.3054
   69SAPC   C37 5928   0.929   3.158   3.151  0.2945 -0.4814  0.5987
   69SAPC   H7X 5929   0.984   3.251   3.126  0.3913 -0.9413 -0.9515
   69SAPC   H7Y 5930   0.999   3.073   3.152  0.2685 -0.5087  1.4317
   69SAPC   C38 5931   0.860   3.168   3.289 -0.1270 -0.0123 -0.1714
   69SAPC   H8X 5932   0.807   3.073   3.311  1.0173 -0.3744  1.1798
   69SAPC   H8Y 5933   0.779   3.244   3.281 -1.3034 -1.1801  0.2759
   69SAPC   C39 5934   0.962   3.196   3.399 -0.3281 -0.2297 -0.4460
   69SAPC   H9X 5935   1.010   3.292   3.370  1.7171 -1.4140 -1.2259
   69SAPC   H9Y 5936   1.047   3.124   3.398 -1.4120 -1.5349 -0.5225
   69SAPC  C310 5937   0.898   3.210   3.544  0.5204 -0.6025  0.0364
   69SAPC  H10X 5938   0.856   3.111   3.568 -1.2317  0.3151  0.9706
   69SAPC  H10Y 5939   0.809   3.274   3.526  0.3090 -1.2360 -1.3010
   69SAPC  C311 5940   0.995   3.257   3.648  0.1593  0.4614  0.3828
   69SAPC  H11X 5941   1.053   3.350   3.627 -0.7568  0.8509 -0.4626
   69SAPC  H11Y 5942   1.069   3.174   3.655 -0.4565 -0.3207 -1.8278
   69SAPC  C312 5943   0.922   3.271   3.777 -0.7708  0.7809 -0.3563
   69SAPC  H12X 5944   0.872   3.368   3.798  0.2347  1.0038  1.2284
   69SAPC  H12Y 5945   0.992   3.263   3.863  0.5491  0.6625 -1.4141
   69SAPC  C313 5946   0.812   3.164   3.808 -0.1338  0.2326 -0.0101
   69SAPC  H13X 5947   0.854   3.064   3.782  1.3205  0.9497 -0.5302
   69SAPC  H13Y 5948   0.722   3.175   3.743 -0.7802  1.1091  1.0119
   69SAPC  C314 5949   0.770   3.156   3.955 -0.0958  0.0474 -0.2728
   69SAPC  H14X 5950   0.849   3.162   4.032 -1.1789 -1.0801  0.9648
   69SAPC  H14Y 5951   0.718   3.058   3.952  1.0743 -0.5869 -1.3997
   69SAPC  C315 5952   0.677   3.277   3.999  0.1627  0.7199 -0.0749
   69SAPC  H15X 5953   0.597   3.300   3.925  0.6986  1.8273 -0.3284
   69SAPC  H15Y 5954   0.735   3.372   3.999 -1.3902  1.7510 -1.8639
   69SAPC  C316 5955   0.605   3.269   4.139  0.0404 -0.4324  0.2042
   69SAPC  H16X 5956   0.553   3.172   4.155 -1.8198  0.7299  1.6851
   69SAPC  H16Y 5957   0.525   3.345   4.143 -1.3385 -1.8913  2.0253
   69SAPC  C317 5958   0.701   3.293   4.255 -0.4583  0.5081 -0.9635
   69SAPC  H17X 5959   0.739   3.397   4.254 -0.1737  0.5731  2.3753
   69SAPC  H17Y 5960   0.790   3.227   4.251 -0.5730  0.2337  0.2750
   69SAPC  C318 5961   0.640   3.281   4.394 -0.3079 -0.0113 -0.6246
   69SAPC  H18X 5962   0.715   3.233   4.460 -0.9426 -0.5759 -0.3010
   69SAPC  H18Y 5963   0.547   3.221   4.392 -0.8400  0.6850  1.1387
   69SAPC  H18Z 5964   0.612   3.372   4.450  1.8470 -0.1104  0.7128
   70SAPC     N 5965   1.207   1.022   1.973  0.2136 -0.2002  0.1157
   70SAPC   C12 5966   1.111   1.060   2.089 -0.6471  0.7411 -0.0220
   70SAPC  H12A 5967   1.137   1.148   2.146 -1.1147 -0.6337  2.4916
   70SAPC  H12B 5968   1.119   0.986   2.168 -3.6771 -0.7177 -0.9414
   70SAPC   C13 5969   1.332   0.972   2.025 -0.3136 -0.2405  0.0825
   70SAPC  H13A 5970   1.401   0.942   1.947 -0.5687  1.8965 -1.0516
   70SAPC  H13B 5971   1.380   1.053   2.079 -0.0376  0.7280 -1.5449
   70SAPC  H13C 5972   1.319   0.886   2.089  0.8992 -1.0714 -0.7384
   70SAPC   C14 5973   1.140   0.918   1.887  0.3611  0.6154  0.4539
   70SAPC  H14A 5974   1.051   0.948   1.834  0.3324 -0.3116 -0.0370
   70SAPC  H14B 5975   1.216   0.888   1.816 -1.2993  2.5467 -2.3365
   70SAPC  H14C 5976   1.102   0.833   1.942 -1.6667  1.3346  0.2538
   70SAPC   C15 5977   1.230   1.135   1.885  0.0070  0.0678  0.1728
   70SAPC  H15A 5978   1.276   1.220   1.933  2.4740 -0.2182 -1.4974
   70SAPC  H15B 5979   1.292   1.100   1.804  3.2097  0.8793  2.0973
   70SAPC  H15C 5980   1.136   1.165   1.840  1.1218 -1.3366 -3.4185
   70SAPC   C11 5981   0.959   1.081   2.060 -0.2638 -0.3219  0.4048
   70SAPC  H11A 5982   0.896   1.079   2.151 -0.0712 -3.8143  0.5771
   70SAPC  H11B 5983   0.921   0.992   2.005 -2.4946 -0.7474  2.4684
   70SAPC     P 5984   0.969   1.341   2.034  0.1935  0.3484 -0.2426
   70SAPC   O13 5985   1.100   1.394   1.988  0.0617  0.1066 -0.6702
   70SAPC   O14 5986   0.855   1.427   1.992 -0.0198 -0.2711  0.3926
   70SAPC   O12 5987   0.941   1.195   1.981 -0.3855 -0.1532  0.2566
   70SAPC   O11 5988   0.979   1.336   2.194 -0.0429  0.0082 -0.7286
   70SAPC    C1 5989   0.855   1.336   2.273  0.5743 -0.6692  0.0647
   70SAPC    HA 5990   0.773   1.279   2.223  1.3936 -0.8575 -1.1133
   70SAPC    HB 5991   0.888   1.275   2.360 -0.2405  1.4691  1.9932
   70SAPC    C2 5992   0.806   1.471   2.328  0.7529 -0.4287 -1.0895
   70SAPC    HS 5993   0.759   1.525   2.243  0.6589  2.6863  0.7844
   70SAPC   O21 5994   0.919   1.552   2.371  0.0859  0.1168  0.1983
   70SAPC   C21 5995   0.897   1.685   2.364  0.1539  0.0710  0.8715
   70SAPC   O22 5996   0.806   1.733   2.304  0.3178 -0.2868 -0.2452
   70SAPC   C22 5997   1.006   1.764   2.429  0.2903  0.4187 -0.5544
   70SAPC   H2R 5998   1.100   1.717   2.392  0.7551  0.3027  0.7423
   70SAPC   H2S 5999   1.014   1.862   2.378  3.9977  0.3288 -0.4502
   70SAPC    C3 6000   0.697   1.451   2.433 -0.2540  0.1168 -0.4120
   70SAPC    HX 6001   0.736   1.370   2.499 -1.2216  0.6712  0.8787
   70SAPC    HY 6002   0.604   1.407   2.390 -0.6284 -1.3140  1.6982
   70SAPC   O31 6003   0.678   1.552   2.530  0.3742  0.3078  0.0927
   70SAPC   C31 6004   0.586   1.640   2.505  0.1577  0.2578 -0.7445
   70SAPC   O32 6005   0.523   1.650   2.401  0.4233  0.3728  0.2927
   70SAPC   C32 6006   0.573   1.731   2.630  0.7913  0.0974  0.1196
   70SAPC   H2X 6007   0.677   1.767   2.638  1.1934 -1.2351  1.3190
   70SAPC   H2Y 6008   0.536   1.666   2.713  1.7964 -0.4040  0.1948
   70SAPC   C23 6009   1.000   1.781   2.581  0.7498 -0.1156  0.9155
   70SAPC   H3R 6010   0.894   1.786   2.612  1.2727  1.0924  2.6627
   70SAPC   H3S 6011   1.052   1.875   2.609  1.0734  0.6074 -1.8420
   70SAPC   C24 6012   1.074   1.671   2.664  0.5381  0.4247  0.3940
   70SAPC   H4R 6013   1.101   1.709   2.765  0.6981  3.5975 -0.7137
   70SAPC   H4S 6014   1.164   1.656   2.601  1.2219  0.2030  1.4002
   70SAPC   C25 6015   1.002   1.536   2.669 -0.3549 -0.4462 -0.3060
   70SAPC   H5R 6016   0.912   1.522   2.608 -1.1224 -0.6643  0.8349
   70SAPC   C26 6017   1.056   1.439   2.752  0.2968  1.0667  0.9227
   70SAPC   H6R 6018   1.002   1.344   2.765 -0.8199  1.6994  1.0488
   70SAPC   C27 6019   1.187   1.462   2.829 -0.1955  0.0582  0.1624
   70SAPC   H7R 6020   1.159   1.497   2.931 -1.5482 -2.1051  0.5878
   70SAPC   H7S 6021   1.252   1.539   2.783  0.1189 -1.4118 -1.9619
   70SAPC   C28 6022   1.256   1.331   2.831  0.0521  0.3624 -0.9996
   70SAPC   H8R 6023   1.282   1.288   2.733 -0.3098  0.8511 -1.3178
   70SAPC   C29 6024   1.272   1.256   2.946 -0.1440  0.8517  0.2820
   70SAPC   H9R 6025   1.331   1.163   2.937 -3.2254 -1.4790  2.0233
   70SAPC  C210 6026   1.238   1.289   3.092 -0.1316 -0.2213 -0.5211
   70SAPC  H10R 6027   1.220   1.192   3.143  0.2698 -1.1745 -2.1247
   70SAPC  H10S 6028   1.144   1.348   3.102  0.0763  0.3621 -1.7939
   70SAPC  C211 6029   1.351   1.372   3.150 -0.0302  0.0588 -0.7286
   70SAPC  H11R 6030   1.437   1.387   3.083  1.0978 -0.0843  0.6637
   70SAPC  C212 6031   1.354   1.422   3.282 -0.7437 -0.5083 -0.0791
   70SAPC  H12R 6032   1.440   1.484   3.309 -1.8339 -0.1629  2.9556
   70SAPC  C213 6033   1.260   1.406   3.392 -0.0561  0.6924 -0.3091
   70SAPC  H13R 6034   1.313   1.433   3.487  2.5560  0.9927 -1.7494
   70SAPC  H13S 6035   1.246   1.296   3.392  2.0271  0.3551 -1.9803
   70SAPC  C214 6036   1.134   1.469   3.380  0.8398  0.1207  0.0402
   70SAPC  H14R 6037   1.133   1.558   3.316 -0.8860  1.2054  1.4790
   70SAPC  C215 6038   1.020   1.435   3.451 -1.0596 -0.2459 -0.3013
   70SAPC  H15R 6039   0.932   1.501   3.457 -1.1572 -0.4915  2.2999
   70SAPC  C216 6040   1.010   1.329   3.556 -0.1609 -1.0679  0.0888
   70SAPC  H16R 6041   1.057   1.362   3.651  2.3188 -0.6021 -1.2300
   70SAPC  H16S 6042   1.070   1.242   3.521  0.9523 -1.2190  2.2177
   70SAPC  C217 6043   0.874   1.264   3.567 -0.4233  0.5208 -1.0684
   70SAPC  H17R 6044   0.881   1.185   3.645 -0.3962  1.4730 -0.0796
   70SAPC  H17S 6045   0.843   1.209   3.476 -1.1326  1.0537 -1.1488
   70SAPC  C218 6046   0.760   1.360   3.604  0.4783 -0.2471 -0.6038
   70SAPC  H18R 6047   0.751   1.443   3.531 -1.4112 -0.5798 -0.7973
   70SAPC  H18S 6048   0.778   1.398   3.707 -0.7951 -1.1535 -0.0045
   70SAPC  C219 6049   0.626   1.284   3.605 -0.0530 -0.5417 -0.1280
   70SAPC  H19R 6050   0.617   1.197   3.673 -0.4764 -1.4313 -1.2887
   70SAPC  H19S 6051   0.611   1.238   3.505 -4.4886  1.2489 -0.5313
   70SAPC  C220 6052   0.502   1.371   3.625 -0.0370  0.3453  0.4662
   70SAPC  H20R 6053   0.509   1.419   3.725  0.2293 -0.0438  0.6368
   70SAPC  H20S 6054   0.411   1.308   3.625  1.1240 -1.4574 -1.2103
   70SAPC  H20T 6055   0.511   1.447   3.544  0.8756  1.0316  1.1862
   70SAPC   C33 6056   0.481   1.851   2.599 -0.2224 -0.0984 -0.1619
   70SAPC   H3X 6057   0.489   1.888   2.495  0.2329 -0.6269 -0.3188
   70SAPC   H3Y 6058   0.499   1.937   2.668  0.1552 -0.3630  0.0724
   70SAPC   C34 6059   0.334   1.814   2.627 -0.0388  0.0707 -0.4701
   70SAPC   H4X 6060   0.310   1.726   2.563  4.5332 -1.5480 -0.3186
   70SAPC   H4Y 6061   0.277   1.907   2.604  0.7756  0.9547  0.9290
   70SAPC   C35 6062   0.298   1.787   2.782  0.7515  1.2330 -0.0268
   70SAPC   H5X 6063   0.324   1.683   2.811  0.0147  1.6342  2.3056
   70SAPC   H5Y 6064   0.188   1.800   2.788  0.8687  1.6925  1.5617
   70SAPC   C36 6065   0.341   1.896   2.876 -0.0642 -0.5227  0.4125
   70SAPC   H6X 6066   0.273   1.983   2.862 -2.7854 -2.4025  1.1633
   70SAPC   H6Y 6067   0.449   1.923   2.873 -0.4793  1.2257  0.2356
   70SAPC   C37 6068   0.322   1.854   3.026 -0.1235  0.5625  0.4319
   70SAPC   H7X 6069   0.222   1.805   3.030 -0.0825  0.0920 -2.1799
   70SAPC   H7Y 6070   0.398   1.776   3.046 -0.1271  0.6218  0.6813
   70SAPC   C38 6071   0.346   1.962   3.118 -0.1047 -0.4008  0.5569
   70SAPC   H8X 6072   0.272   2.044   3.112  1.0201  0.5963 -0.2465
   70SAPC   H8Y 6073   0.441   2.014   3.092 -0.5111 -0.1985 -0.5720
   70SAPC   C39 6074   0.356   1.915   3.262 -0.0832  0.0996 -0.0005
   70SAPC   H9X 6075   0.428   1.831   3.268 -1.2292 -0.9396 -0.4286
   70SAPC   H9Y 6076   0.254   1.878   3.287 -1.0369  3.4878  1.6504
   70SAPC  C310 6077   0.388   2.014   3.371 -0.3460 -0.1527 -0.2029
   70SAPC  H10X 6078   0.332   2.109   3.371 -0.0177  0.0884 -1.9603
   70SAPC  H10Y 6079   0.495   2.042   3.357  0.0984 -1.3369  0.6556
   70SAPC  C311 6080   0.374   1.948   3.508 -0.6457  0.4027  0.6606
   70SAPC  H11X 6081   0.267   1.927   3.527 -0.9536  0.6068 -0.7380
   70SAPC  H11Y 6082   0.402   2.026   3.581  0.2688 -1.8636  2.8737
   70SAPC  C312 6083   0.474   1.820   3.522  0.3182 -0.0932 -0.8172
   70SAPC  H12X 6084   0.433   1.743   3.453  1.5092 -0.2918 -1.3258
   70SAPC  H12Y 6085   0.479   1.788   3.629 -1.3959  0.6908 -0.4507
   70SAPC  C313 6086   0.622   1.845   3.488 -0.1746 -0.2698 -0.3719
   70SAPC  H13X 6087   0.648   1.937   3.545 -1.6465 -0.0532  0.0100
   70SAPC  H13Y 6088   0.633   1.863   3.379 -0.0774 -1.2108 -0.5177
   70SAPC  C314 6089   0.723   1.739   3.536  0.1037 -0.1355 -0.1991
   70SAPC  H14X 6090   0.739   1.654   3.466  0.6631 -1.0709  1.0119
   70SAPC  H14Y 6091   0.689   1.695   3.633  0.7931 -1.1983 -0.4208
   70SAPC  C315 6092   0.863   1.799   3.556 -0.4698 -0.5926 -0.3205
   70SAPC  H15X 6093   0.873   1.893   3.498 -1.6093 -0.2429  0.0208
   70SAPC  H15Y 6094   0.938   1.729   3.512  0.3259  0.6118 -0.9456
   70SAPC  C316 6095   0.892   1.846   3.698 -0.2872  0.1446  0.4687
   70SAPC  H16X 6096   0.816   1.913   3.744 -2.1840 -1.3039 -0.3821
   70SAPC  H16Y 6097   0.972   1.923   3.698 -0.4318  0.2948  0.6993
   70SAPC  C317 6098   0.930   1.732   3.787  0.1980  0.2704  0.1395
   70SAPC  H17X 6099   1.009   1.668   3.743  2.0470  0.4081  2.9847
   70SAPC  H17Y 6100   0.836   1.673   3.794  0.3406 -0.2073 -1.5333
   70SAPC  C318 6101   0.988   1.765   3.915  0.5190  0.1318 -0.8925
   70SAPC  H18X 6102   0.920   1.823   3.980  0.9086  0.6243 -0.9144
   70SAPC  H18Y 6103   1.088   1.814   3.915  0.2354  0.7268 -0.1673
   70SAPC  H18Z 6104   1.014   1.667   3.962  0.3767 -0.0496 -1.1897
   71SAPC     N 6105   3.833   6.729   1.857 -0.3099 -0.3102 -0.3097
   71SAPC   C12 6106   3.892   6.632   1.957 -0.5023 -0.3590 -0.7320
   71SAPC  H12A 6107   3.840   6.538   1.943 -0.9708 -0.4127  1.1993
   71SAPC  H12B 6108   3.868   6.666   2.056 -0.8305 -0.0706 -0.9073
   71SAPC   C13 6109   3.861   6.688   1.715 -0.3518  0.0840  0.4458
   71SAPC  H13A 6110   3.967   6.688   1.694 -0.4260 -0.5630  0.0540
   71SAPC  H13B 6111   3.817   6.594   1.685 -2.8726  1.1578  0.5232
   71SAPC  H13C 6112   3.819   6.766   1.653  0.4041  1.6060  1.7723
   71SAPC   C14 6113   3.685   6.735   1.875  0.3673 -0.1159 -1.2151
   71SAPC  H14A 6114   3.652   6.790   1.962  0.0383 -3.3857  0.9384
   71SAPC  H14B 6115   3.626   6.769   1.791  0.1963 -1.8319 -1.8479
   71SAPC  H14C 6116   3.646   6.636   1.895  3.1964 -0.9228  0.9367
   71SAPC   C15 6117   3.880   6.868   1.861  0.5787  0.0057 -0.1053
   71SAPC  H15A 6118   3.844   6.913   1.952 -2.3362  0.0066 -1.1378
   71SAPC  H15B 6119   3.987   6.878   1.859  0.5280  0.4957 -1.0400
   71SAPC  H15C 6120   3.856   6.940   1.784  0.1331  0.7990  0.7554
   71SAPC   C11 6121   4.048   6.611   1.942  0.0950 -0.4720 -0.5408
   71SAPC  H11A 6122   4.065   6.572   1.840 -0.5206 -1.4580 -0.2815
   71SAPC  H11B 6123   4.077   6.540   2.023  0.2418 -0.6977 -0.7908
   71SAPC     P 6124   4.183   6.773   2.090  0.1881  0.1564  0.5112
   71SAPC   O13 6125   4.310   6.694   2.107  0.6851 -0.2522  0.2064
   71SAPC   O14 6126   4.184   6.921   2.094  0.0426  0.5148 -0.7333
   71SAPC   O12 6127   4.115   6.731   1.956  0.0281  0.7539 -0.5774
   71SAPC   O11 6128   4.088   6.717   2.205  0.6407 -0.4481  0.1866
   71SAPC    C1 6129   4.135   6.634   2.312  0.0748 -0.0376 -0.2381
   71SAPC    HA 6130   4.184   6.542   2.272  2.9512  1.4638 -0.4339
   71SAPC    HB 6131   4.212   6.681   2.376  0.5506 -0.1442 -0.7204
   71SAPC    C2 6132   4.018   6.586   2.397 -0.1728  0.2636 -0.0902
   71SAPC    HS 6133   3.935   6.549   2.333 -2.6615  0.9430  2.5174
   71SAPC   O21 6134   3.970   6.696   2.481 -0.2119  0.0847  0.2255
   71SAPC   C21 6135   3.845   6.687   2.511  0.9356 -0.2795  0.2721
   71SAPC   O22 6136   3.770   6.600   2.472  0.0657 -0.8234  0.3233
   71SAPC   C22 6137   3.808   6.794   2.619  0.1074  0.2091 -0.2178
   71SAPC   H2R 6138   3.867   6.761   2.708 -0.4578  0.6015  0.3110
   71SAPC   H2S 6139   3.836   6.895   2.580  1.1879  0.2246  0.5243
   71SAPC    C3 6140   4.055   6.461   2.494 -0.1314  0.9530  0.4780
   71SAPC    HX 6141   4.080   6.375   2.428  0.3337  0.6913  0.9805
   71SAPC    HY 6142   3.961   6.427   2.540 -0.9751  1.7316 -0.6168
   71SAPC   O31 6143   4.174   6.492   2.574  0.5476 -1.0197  0.2140
   71SAPC   C31 6144   4.146   6.518   2.701  0.6497 -0.7081 -0.1532
   71SAPC   O32 6145   4.031   6.510   2.746  0.2295  0.0055 -0.1151
   71SAPC   C32 6146   4.277   6.556   2.775  0.3753  0.0696 -0.6731
   71SAPC   H2X 6147   4.316   6.651   2.733  0.2122  1.2691  1.7560
   71SAPC   H2Y 6148   4.338   6.467   2.747 -1.9445 -1.4198 -1.2784
   71SAPC   C23 6149   3.662   6.784   2.671 -0.2977 -0.3730 -0.1905
   71SAPC   H3R 6150   3.651   6.689   2.728  2.3357  0.2869  1.5365
   71SAPC   H3S 6151   3.599   6.765   2.581 -0.2266 -0.7607 -0.1623
   71SAPC   C24 6152   3.610   6.909   2.755 -0.4161  0.0927 -0.2589
   71SAPC   H4R 6153   3.673   6.915   2.846 -1.2278 -0.3661  0.3480
   71SAPC   H4S 6154   3.504   6.889   2.781 -0.7469  1.8337 -0.1729
   71SAPC   C25 6155   3.634   7.042   2.684 -0.0639  0.6837  0.4291
   71SAPC   H5R 6156   3.626   7.030   2.575 -1.9238 -0.8041  0.6762
   71SAPC   C26 6157   3.682   7.158   2.746  0.2707  0.1031 -0.4765
   71SAPC   H6R 6158   3.709   7.241   2.678 -2.6146  2.5746  1.1169
   71SAPC   C27 6159   3.701   7.188   2.895  0.2174 -0.2182 -0.4848
   71SAPC   H7R 6160   3.808   7.169   2.920 -0.2771 -2.5656  0.1774
   71SAPC   H7S 6161   3.655   7.112   2.962  1.6526  1.9598  3.2384
   71SAPC   C28 6162   3.663   7.332   2.938  0.4868 -0.6927 -0.2425
   71SAPC   H8R 6163   3.718   7.408   2.881  0.6783  0.0765  0.9344
   71SAPC   C29 6164   3.584   7.369   3.045  0.1705  0.3869 -0.1416
   71SAPC   H9R 6165   3.563   7.477   3.048  1.3847  0.7900 -2.8613
   71SAPC  C210 6166   3.506   7.274   3.131 -0.0483 -0.1368  0.0658
   71SAPC  H10R 6167   3.506   7.170   3.093 -0.9257  0.1814 -0.8734
   71SAPC  H10S 6168   3.399   7.302   3.128  0.4860  2.5258  2.1477
   71SAPC  C211 6169   3.553   7.269   3.273 -0.2135 -0.6722  0.1600
   71SAPC  H11R 6170   3.650   7.317   3.291 -2.0222  3.9008 -0.8637
   71SAPC  C212 6171   3.477   7.238   3.382  0.1281  0.1594 -0.1169
   71SAPC  H12R 6172   3.515   7.235   3.485 -0.8359 -1.6931  0.2274
   71SAPC  C213 6173   3.327   7.212   3.375 -0.6429 -0.2018  0.1245
   71SAPC  H13R 6174   3.282   7.267   3.290  0.5769 -0.2578 -0.5867
   71SAPC  H13S 6175   3.275   7.257   3.462  1.9764  4.1277 -0.2707
   71SAPC  C214 6176   3.300   7.066   3.359  0.8124  0.1762  0.2302
   71SAPC  H14R 6177   3.352   7.015   3.277  1.6050 -1.2883  1.5859
   71SAPC  C215 6178   3.209   6.994   3.433 -0.2655  0.3432  0.9716
   71SAPC  H15R 6179   3.187   6.891   3.401 -2.9027  1.0603  0.2867
   71SAPC  C216 6180   3.128   7.022   3.561 -0.1042  0.2700 -0.4767
   71SAPC  H16R 6181   3.048   6.945   3.569 -0.1938 -0.0734 -3.4354
   71SAPC  H16S 6182   3.089   7.126   3.556 -1.8322 -0.2722  0.5579
   71SAPC  C217 6183   3.235   7.014   3.662 -0.5048 -0.2709  0.1225
   71SAPC  H17R 6184   3.308   7.097   3.671 -0.0885 -0.6509  0.2345
   71SAPC  H17S 6185   3.303   6.928   3.650 -0.1481 -0.0590  0.6073
   71SAPC  C218 6186   3.186   7.002   3.809 -0.3747  0.6336  0.5403
   71SAPC  H18R 6187   3.121   6.912   3.816 -2.9597  2.3934  0.5958
   71SAPC  H18S 6188   3.111   7.080   3.836 -0.4047  1.2674 -1.1954
   71SAPC  C219 6189   3.302   7.006   3.919 -0.0990  0.1482  0.1064
   71SAPC  H19R 6190   3.374   7.086   3.894  0.2681 -0.5428 -1.1246
   71SAPC  H19S 6191   3.370   6.919   3.906  1.1073  1.1425 -0.4966
   71SAPC  C220 6192   3.253   6.993   4.061  0.1401 -0.0853  0.0038
   71SAPC  H20R 6193   3.194   6.900   4.077  0.2592 -0.1967 -0.2063
   71SAPC  H20S 6194   3.190   7.080   4.088  3.2178  1.5014  2.7476
   71SAPC  H20T 6195   3.339   6.988   4.131  1.2127  0.5955 -1.2266
   71SAPC   C33 6196   4.260   6.574   2.922  0.1602 -0.0049 -0.1059
   71SAPC   H3X 6197   4.359   6.581   2.970  0.0368  1.8377 -0.0361
   71SAPC   H3Y 6198   4.203   6.500   2.982 -0.3556  0.9937  0.6699
   71SAPC   C34 6199   4.210   6.717   2.947 -0.1033  0.1660  0.0433
   71SAPC   H4X 6200   4.105   6.723   2.910 -0.2359  1.3900  0.5632
   71SAPC   H4Y 6201   4.268   6.786   2.882  0.6639  0.4214  0.9737
   71SAPC   C35 6202   4.212   6.747   3.097  0.3483 -0.0141 -0.9795
   71SAPC   H5X 6203   4.316   6.744   3.134  0.4004 -0.8986 -1.1674
   71SAPC   H5Y 6204   4.151   6.670   3.150 -1.4693  1.6192 -0.5797
   71SAPC   C36 6205   4.135   6.879   3.124  0.1596 -0.0172 -0.5819
   71SAPC   H6X 6206   4.028   6.875   3.092  0.4385  3.5300 -2.4800
   71SAPC   H6Y 6207   4.186   6.959   3.067 -1.0222  0.7277 -0.6432
   71SAPC   C37 6208   4.132   6.912   3.277 -0.1585 -0.1385  0.4647
   71SAPC   H7X 6209   4.183   7.011   3.276 -0.0180 -0.2097 -0.7973
   71SAPC   H7Y 6210   4.189   6.834   3.332 -2.2804 -1.8420  0.4012
   71SAPC   C38 6211   3.995   6.904   3.347 -0.1623 -0.1796  0.4235
   71SAPC   H8X 6212   3.951   6.804   3.326  0.6022 -0.2525 -0.9259
   71SAPC   H8Y 6213   3.924   6.974   3.299  0.9456  1.8682  1.6723
   71SAPC   C39 6214   3.995   6.949   3.491 -0.2798 -0.0265  0.1335
   71SAPC   H9X 6215   4.082   7.019   3.496  1.8813 -2.3833 -1.6794
   71SAPC   H9Y 6216   4.012   6.868   3.565  0.3821  0.7532  0.8516
   71SAPC  C310 6217   3.876   7.035   3.533  0.1359 -1.0763  0.3423
   71SAPC  H10X 6218   3.779   6.995   3.495  0.3969 -2.6449  1.2652
   71SAPC  H10Y 6219   3.870   7.138   3.492  0.0291 -0.3495  2.1064
   71SAPC  C311 6220   3.868   7.052   3.685 -0.2977 -0.3405  0.3233
   71SAPC  H11X 6221   3.968   7.083   3.720 -0.8200 -2.0205  3.6806
   71SAPC  H11Y 6222   3.860   6.954   3.736  0.8604 -0.2416  0.7216
   71SAPC  C312 6223   3.747   7.142   3.724 -0.3239  0.0127  0.2074
   71SAPC  H12X 6224   3.656   7.086   3.692  0.7761 -0.5302 -2.2549
   71SAPC  H12Y 6225   3.752   7.238   3.669 -3.0364  1.4632  2.2575
   71SAPC  C313 6226   3.753   7.172   3.876 -0.1283  1.2832  0.9186
   71SAPC  H13X 6227   3.687   7.259   3.893 -2.6346 -0.5922  1.3306
   71SAPC  H13Y 6228   3.855   7.197   3.913  0.3107  2.3549 -0.9361
   71SAPC  C314 6229   3.687   7.051   3.949  0.4042 -0.6048 -0.8207
   71SAPC  H14X 6230   3.726   6.955   3.910 -0.7087 -1.9549  1.1882
   71SAPC  H14Y 6231   3.578   7.041   3.930  0.1647  0.4974 -0.1021
   71SAPC  C315 6232   3.702   7.053   4.102 -0.0855  0.5133 -0.2941
   71SAPC  H15X 6233   3.810   7.039   4.123 -0.6528 -1.3221  1.7679
   71SAPC  H15Y 6234   3.646   6.964   4.138 -0.6879  1.6904  1.8780
   71SAPC  C316 6235   3.638   7.177   4.160  0.3943  0.6408 -0.2656
   71SAPC  H16X 6236   3.548   7.204   4.101 -1.1145  0.3610  1.7842
   71SAPC  H16Y 6237   3.707   7.264   4.154  0.7928  0.5326  1.9145
   71SAPC  C317 6238   3.582   7.164   4.305 -0.7800 -0.3016 -0.4273
   71SAPC  H17X 6239   3.486   7.110   4.298  0.3144 -2.7874  1.9287
   71SAPC  H17Y 6240   3.557   7.265   4.344 -0.1124 -0.3626  0.1843
   71SAPC  C318 6241   3.671   7.085   4.402  0.9239 -0.1600  0.4424
   71SAPC  H18X 6242   3.674   6.982   4.359 -0.7662 -0.1811  0.2941
   71SAPC  H18Y 6243   3.621   7.081   4.501  1.0480 -4.7107  0.5333
   71SAPC  H18Z 6244   3.776   7.121   4.401  1.5448 -1.8772 -0.9569
   72SAPC     N 6245   0.443   4.058   1.398 -0.1427  0.7004  0.5397
   72SAPC   C12 6246   0.544   3.944   1.437 -0.2393  0.5370 -0.0024
   72SAPC  H12A 6247   0.613   3.929   1.356  2.1567  1.6735  1.7147
   72SAPC  H12B 6248   0.486   3.853   1.434 -0.1392  0.5010 -0.9380
   72SAPC   C13 6249   0.515   4.189   1.402 -0.7750  0.8700  0.4902
   72SAPC  H13A 6250   0.549   4.209   1.503  1.6952  1.1418 -0.3101
   72SAPC  H13B 6251   0.604   4.176   1.341 -1.5799  1.2964 -0.8143
   72SAPC  H13C 6252   0.461   4.277   1.369  0.0493  1.5325  0.8464
   72SAPC   C14 6253   0.399   4.030   1.258  0.4012  0.3597 -0.3456
   72SAPC  H14A 6254   0.361   3.930   1.238  2.9159 -0.8346  0.4077
   72SAPC  H14B 6255   0.334   4.109   1.222  0.7492  0.7205 -0.1784
   72SAPC  H14C 6256   0.482   4.032   1.189 -0.6046 -1.0865 -1.6886
   72SAPC   C15 6257   0.332   4.068   1.494  1.1594 -0.6347 -0.3923
   72SAPC  H15A 6258   0.374   4.075   1.593 -2.0632 -1.5013  1.1568
   72SAPC  H15B 6259   0.274   4.157   1.477  1.7241 -0.4894 -1.6636
   72SAPC  H15C 6260   0.257   3.990   1.492 -0.5495  0.8171  1.8332
   72SAPC   C11 6261   0.629   3.958   1.570  0.6842 -0.3591  0.5771
   72SAPC  H11A 6262   0.661   3.855   1.595 -1.1565 -0.7883  1.3265
   72SAPC  H11B 6263   0.554   3.983   1.648  1.2457  0.7346  0.7977
   72SAPC     P 6264   0.784   4.138   1.686 -0.4486 -0.1561 -0.4047
   72SAPC   O13 6265   0.907   4.208   1.642 -0.2935  0.0417  0.4026
   72SAPC   O14 6266   0.654   4.209   1.711  1.0243 -0.5601  0.1674
   72SAPC   O12 6267   0.740   4.048   1.566  0.0998  0.0020 -0.0936
   72SAPC   O11 6268   0.819   4.038   1.801 -0.3867  0.4800  0.4241
   72SAPC    C1 6269   0.749   4.018   1.914  0.5334 -0.3854  0.1341
   72SAPC    HA 6270   0.645   3.982   1.895  0.0807 -0.0243  1.7673
   72SAPC    HB 6271   0.785   3.923   1.959 -2.8701 -1.5474  0.7828
   72SAPC    C2 6272   0.746   4.139   2.016  0.7239  0.0072 -1.0208
   72SAPC    HS 6273   0.700   4.224   1.960  0.9253  0.5781 -0.3351
   72SAPC   O21 6274   0.881   4.163   2.063 -0.4913  0.0833 -0.5347
   72SAPC   C21 6275   0.894   4.291   2.112  1.0751  0.0644  0.9731
   72SAPC   O22 6276   0.805   4.368   2.129  0.2819  0.5103  0.2996
   72SAPC   C22 6277   1.036   4.319   2.160  0.6018 -0.1080 -0.4330
   72SAPC   H2R 6278   1.061   4.217   2.196 -1.8895 -0.5764  0.1977
   72SAPC   H2S 6279   1.104   4.341   2.075  1.2151 -1.9249 -0.4537
   72SAPC    C3 6280   0.641   4.103   2.124  0.2963 -0.1762 -0.5391
   72SAPC    HX 6281   0.549   4.070   2.072 -0.4500 -0.5079  0.9463
   72SAPC    HY 6282   0.619   4.201   2.170 -0.1606  0.8102 -2.7359
   72SAPC   O31 6283   0.676   3.996   2.205  0.1844  0.3477  0.3991
   72SAPC   C31 6284   0.656   4.013   2.342 -0.4011 -0.4057  0.3014
   72SAPC   O32 6285   0.643   4.125   2.390  0.0475  0.1831  0.7736
   72SAPC   C32 6286   0.658   3.886   2.419 -0.3288  0.0311  0.1041
   72SAPC   H2X 6287   0.737   3.818   2.380 -0.3657  0.1732 -0.2169
   72SAPC   H2Y 6288   0.560   3.838   2.398  0.0163 -0.0390 -1.4751
   72SAPC   C23 6289   1.058   4.433   2.261 -0.3806 -0.1814  0.5111
   72SAPC   H3R 6290   1.012   4.416   2.361 -2.3077  0.9341 -0.1385
   72SAPC   H3S 6291   1.017   4.529   2.225 -1.3715 -0.9762 -0.5677
   72SAPC   C24 6292   1.207   4.454   2.294 -0.0099  0.0441  0.4452
   72SAPC   H4R 6293   1.212   4.563   2.316 -0.1717 -0.2503  2.0101
   72SAPC   H4S 6294   1.255   4.433   2.196 -0.8140  0.8696 -0.1481
   72SAPC   C25 6295   1.262   4.354   2.393  0.2638  0.6418 -0.1814
   72SAPC   H5R 6296   1.312   4.266   2.351 -0.0287  0.2818  0.2098
   72SAPC   C26 6297   1.266   4.361   2.534 -0.0361  0.0484 -0.3753
   72SAPC   H6R 6298   1.329   4.290   2.590  2.3336  0.4994 -2.2860
   72SAPC   C27 6299   1.213   4.483   2.608 -0.1746 -0.3882 -0.5000
   72SAPC   H7R 6300   1.157   4.461   2.702  0.2693  2.1946  0.4472
   72SAPC   H7S 6301   1.144   4.549   2.551 -0.9785  0.8182  1.7476
   72SAPC   C28 6302   1.336   4.569   2.641  0.8031  0.6951  0.3642
   72SAPC   H8R 6303   1.367   4.634   2.558  0.9976 -1.4533 -1.3730
   72SAPC   C29 6304   1.394   4.588   2.761  0.1990 -0.0702  0.4393
   72SAPC   H9R 6305   1.468   4.670   2.767 -0.9661  0.9871  0.7524
   72SAPC  C210 6306   1.362   4.517   2.894 -0.1609  0.1358  0.4904
   72SAPC  H10R 6307   1.398   4.413   2.878  1.3053  0.9624 -2.1396
   72SAPC  H10S 6308   1.251   4.518   2.906 -0.0496 -2.0189  2.2775
   72SAPC  C211 6309   1.427   4.589   3.017  0.4765  0.3778  0.2767
   72SAPC  H11R 6310   1.405   4.697   3.008 -0.2336  0.0878 -2.6781
   72SAPC  C212 6311   1.509   4.538   3.101 -0.1012  0.1170 -0.6169
   72SAPC  H12R 6312   1.560   4.612   3.164  0.1542  0.3229 -1.0699
   72SAPC  C213 6313   1.553   4.398   3.120  0.3968  0.6989 -0.3048
   72SAPC  H13R 6314   1.493   4.329   3.057 -0.4944 -0.7203  1.9672
   72SAPC  H13S 6315   1.526   4.369   3.224  2.5465  0.5678  0.2655
   72SAPC  C214 6316   1.702   4.387   3.087  0.0846 -0.1326  0.2987
   72SAPC  H14R 6317   1.710   4.395   2.978 -2.2534  0.8635  0.1469
   72SAPC  C215 6318   1.803   4.361   3.168  0.3547  0.1414 -0.1694
   72SAPC  H15R 6319   1.909   4.357   3.141 -0.1754  0.5540 -2.5313
   72SAPC  C216 6320   1.791   4.340   3.317 -0.2815  0.9269 -0.6251
   72SAPC  H16R 6321   1.747   4.240   3.334  1.8507 -0.1999 -1.3230
   72SAPC  H16S 6322   1.739   4.425   3.367  1.4758  1.5501  0.2280
   72SAPC  C217 6323   1.930   4.327   3.391  0.2937  0.3416 -0.3644
   72SAPC  H17R 6324   1.989   4.250   3.337 -2.2071 -0.7976 -1.6320
   72SAPC  H17S 6325   1.927   4.302   3.499  2.5712 -0.5048 -0.4374
   72SAPC  C218 6326   2.011   4.462   3.393 -0.4269 -0.2862 -0.0568
   72SAPC  H18R 6327   1.940   4.538   3.434  0.2394  0.9145 -1.0530
   72SAPC  H18S 6328   2.036   4.489   3.288 -0.4113 -0.1445 -0.0171
   72SAPC  C219 6329   2.134   4.455   3.482  0.7593 -0.5424  0.8448
   72SAPC  H19R 6330   2.107   4.412   3.581 -3.8299  1.0539  0.5117
   72SAPC  H19S 6331   2.162   4.561   3.497  0.6357 -0.5044  0.8081
   72SAPC  C220 6332   2.247   4.370   3.424  0.3643 -0.2338  0.0202
   72SAPC  H20R 6333   2.336   4.381   3.489  0.6794  1.4362 -0.6378
   72SAPC  H20S 6334   2.280   4.408   3.325  0.5825 -2.1342 -0.6710
   72SAPC  H20T 6335   2.214   4.265   3.409  0.8119 -0.2423 -0.9414
   72SAPC   C33 6336   0.672   3.906   2.574 -0.0854  0.2044 -0.0833
   72SAPC   H3X 6337   0.744   3.986   2.601 -1.5235  2.1928 -1.8020
   72SAPC   H3Y 6338   0.696   3.804   2.611  0.7104  0.1095 -0.8433
   72SAPC   C34 6339   0.535   3.948   2.639  0.0286 -0.0083  0.0241
   72SAPC   H4X 6340   0.482   3.852   2.660  1.2748 -0.4851  1.1640
   72SAPC   H4Y 6341   0.476   4.008   2.567 -0.7787  0.1754  0.8259
   72SAPC   C35 6342   0.548   4.013   2.774 -0.0081 -0.1390  0.0493
   72SAPC   H5X 6343   0.450   4.027   2.825 -1.0505 -4.3456 -0.4509
   72SAPC   H5Y 6344   0.598   4.112   2.780  2.2298 -1.0591 -1.9395
   72SAPC   C36 6345   0.631   3.928   2.872 -0.5501 -0.8019 -0.0239
   72SAPC   H6X 6346   0.740   3.921   2.851 -0.1790  0.6103  1.3433
   72SAPC   H6Y 6347   0.581   3.829   2.874  1.1881 -1.7270  1.3049
   72SAPC   C37 6348   0.606   3.974   3.013  0.1355 -0.5130  0.6481
   72SAPC   H7X 6349   0.497   3.989   3.029 -0.4207 -2.6243 -0.7831
   72SAPC   H7Y 6350   0.660   4.067   3.039  1.0145 -1.4141  2.2481
   72SAPC   C38 6351   0.658   3.873   3.120 -0.6714 -0.3587 -0.0548
   72SAPC   H8X 6352   0.767   3.849   3.114 -0.0994  2.2020 -0.9744
   72SAPC   H8Y 6353   0.608   3.776   3.100  1.4441 -1.4450 -0.3508
   72SAPC   C39 6354   0.635   3.917   3.266 -0.5499  0.2164  0.4495
   72SAPC   H9X 6355   0.713   3.996   3.275  0.4827 -0.6274 -0.6705
   72SAPC   H9Y 6356   0.656   3.820   3.315 -3.0292  0.0710  1.3803
   72SAPC  C310 6357   0.493   3.972   3.306 -0.9597  0.3637  0.6830
   72SAPC  H10X 6358   0.417   3.894   3.283  0.9686 -1.2825 -0.4569
   72SAPC  H10Y 6359   0.470   4.055   3.236  0.8921 -1.0319 -1.7354
   72SAPC  C311 6360   0.482   4.022   3.449 -0.4180  0.2607  0.4697
   72SAPC  H11X 6361   0.431   4.121   3.447  0.4301  0.6924 -1.2308
   72SAPC  H11Y 6362   0.588   4.046   3.475 -0.2781  1.2886 -0.9160
   72SAPC  C312 6363   0.434   3.921   3.548  0.7479 -0.5751  0.1495
   72SAPC  H12X 6364   0.475   3.821   3.521  1.3750 -0.1582 -0.5011
   72SAPC  H12Y 6365   0.327   3.907   3.520  0.3539  0.4556  1.0514
   72SAPC  C313 6366   0.448   3.951   3.694 -0.4132  0.4834 -0.3538
   72SAPC  H13X 6367   0.367   3.898   3.748  0.7610  1.4490  2.5881
   72SAPC  H13Y 6368   0.427   4.059   3.713 -2.7996 -0.1243  0.9571
   72SAPC  C314 6369   0.586   3.925   3.754  0.2446  0.5451  0.8167
   72SAPC  H14X 6370   0.669   3.948   3.683  0.2102 -0.8191  0.3054
   72SAPC  H14Y 6371   0.581   3.817   3.779  1.1609 -0.1095 -1.5662
   72SAPC  C315 6372   0.601   4.013   3.878  0.2442  0.4040  0.0176
   72SAPC  H15X 6373   0.580   4.118   3.849 -0.3964  0.0740 -0.7626
   72SAPC  H15Y 6374   0.710   4.015   3.903  0.4745 -1.6594 -0.5952
   72SAPC  C316 6375   0.520   3.968   4.003 -0.2177 -0.5156  0.0646
   72SAPC  H16X 6376   0.413   3.947   3.979  0.1187 -1.7044 -0.4922
   72SAPC  H16Y 6377   0.521   4.062   4.062 -0.2652 -0.3503 -0.2007
   72SAPC  C317 6378   0.590   3.848   4.072  0.6948  0.1749 -0.1830
   72SAPC  H17X 6379   0.598   3.770   3.994  2.3829  1.9488 -1.9007
   72SAPC  H17Y 6380   0.523   3.826   4.158  0.8032  0.6459  0.0279
   72SAPC  C318 6381   0.740   3.862   4.115 -0.7442 -0.5054 -0.4015
   72SAPC  H18X 6382   0.736   3.931   4.202 -2.5545 -1.2341  0.1618
   72SAPC  H18Y 6383   0.816   3.889   4.039 -1.3118  2.8377  0.0624
   72SAPC  H18Z 6384   0.772   3.760   4.145  2.2323  0.4985  0.1540
   73SLPC     N 6385   1.865   2.700   6.448  0.1327 -0.6950 -0.0642
   73SLPC   C13 6386   1.831   2.661   6.310  0.1820  0.2392  0.3019
   73SLPC  H13A 6387   1.911   2.605   6.264  0.3142  0.8608 -0.2463
   73SLPC  H13B 6388   1.744   2.598   6.307  1.9043 -2.2910  0.7829
   73SLPC  H13C 6389   1.815   2.754   6.256 -0.9581 -0.2489 -0.2357
   73SLPC   C14 6390   1.905   2.585   6.527  0.1237 -0.0309 -0.0577
   73SLPC  H14A 6391   1.928   2.613   6.628 -0.7257 -0.2873  0.2151
   73SLPC  H14B 6392   1.827   2.510   6.525  1.6156 -1.7098  1.0751
   73SLPC  H14C 6393   1.996   2.537   6.494  1.1662  1.3890  0.6555
   73SLPC   C15 6394   1.738   2.762   6.501  0.3491 -0.5264  0.2191
   73SLPC  H15A 6395   1.755   2.780   6.606  2.2289 -1.2112  0.0697
   73SLPC  H15B 6396   1.715   2.855   6.451  0.9225  0.0619  1.0246
   73SLPC  H15C 6397   1.646   2.707   6.508  0.2144 -0.1352  1.8705
   73SLPC   C12 6398   1.974   2.808   6.451  0.0292  0.0165  0.6372
   73SLPC  H12A 6399   1.996   2.800   6.557  0.0485  1.4809  0.7724
   73SLPC  H12B 6400   1.926   2.899   6.419 -0.1394  0.0510  0.9800
   73SLPC   C11 6401   2.100   2.784   6.369 -0.5296 -0.0591 -0.1151
   73SLPC  H11A 6402   2.164   2.875   6.373 -0.3670 -0.2105  1.3814
   73SLPC  H11B 6403   2.090   2.783   6.259  0.6284  0.7998 -0.2580
   73SLPC     P 6404   2.273   2.674   6.533 -0.1026  0.2563  0.2498
   73SLPC   O13 6405   2.239   2.788   6.624  0.1180 -0.9408  0.3569
   73SLPC   O14 6406   2.276   2.534   6.595  0.0790 -0.8522 -0.1466
   73SLPC   O12 6407   2.178   2.667   6.406 -0.0242 -0.0291 -0.7980
   73SLPC   O11 6408   2.415   2.709   6.474  0.0755 -0.2655 -0.2017
   73SLPC    C1 6409   2.439   2.775   6.347  0.0797  0.6444 -0.1736
   73SLPC    HA 6410   2.370   2.859   6.323  1.6166  1.6800 -1.1352
   73SLPC    HB 6411   2.538   2.824   6.355  0.6188 -0.6619  3.7086
   73SLPC    C2 6412   2.431   2.673   6.227 -0.4953 -0.1901 -0.1768
   73SLPC    HS 6413   2.327   2.632   6.230 -0.4590 -0.3256 -0.7753
   73SLPC   O21 6414   2.534   2.572   6.248  0.4669 -0.5029 -0.1560
   73SLPC   C21 6415   2.527   2.452   6.200  0.6421 -1.0798  0.8111
   73SLPC   O22 6416   2.425   2.393   6.175  0.6387  0.3057  0.2455
   73SLPC   C22 6417   2.661   2.397   6.191  0.5935  0.3443  0.1761
   73SLPC   H2R 6418   2.689   2.365   6.293 -0.6485  0.0827  0.4586
   73SLPC   H2S 6419   2.648   2.301   6.137  2.3734 -0.2805  0.8013
   73SLPC    C3 6420   2.439   2.752   6.089 -0.2694  0.0755 -0.4372
   73SLPC    HX 6421   2.534   2.806   6.109 -1.5175  2.1856  0.0716
   73SLPC    HY 6422   2.362   2.831   6.079  0.1916  0.5533 -0.2259
   73SLPC   O31 6423   2.450   2.678   5.973  0.2401  0.3246  0.0749
   73SLPC   C31 6424   2.344   2.624   5.927 -0.4470  0.3300 -0.8174
   73SLPC   O32 6425   2.229   2.646   5.963 -0.2083  0.3584 -0.0352
   73SLPC   C32 6426   2.375   2.519   5.825  0.3407  0.2118 -0.5777
   73SLPC   H2X 6427   2.350   2.418   5.864 -0.5095  0.8609  0.6244
   73SLPC   H2Y 6428   2.482   2.515   5.796  0.1620 -2.2053 -1.1232
   73SLPC   C23 6429   2.767   2.488   6.131  0.0941  0.4492 -0.2518
   73SLPC   H3R 6430   2.867   2.446   6.157  0.4358  2.0475  1.1625
   73SLPC   H3S 6431   2.762   2.583   6.188  1.3310  1.3205 -1.5416
   73SLPC   C24 6432   2.752   2.501   5.980 -0.3334 -0.2114 -0.2087
   73SLPC   H4R 6433   2.651   2.526   5.940 -0.6534 -2.8739 -1.2750
   73SLPC   H4S 6434   2.775   2.407   5.924  0.2805  1.3880 -2.8523
   73SLPC   C25 6435   2.847   2.617   5.930 -0.3903  0.1025  0.2001
   73SLPC   H5R 6436   2.930   2.621   6.003 -2.0737  1.9888  2.1520
   73SLPC   H5S 6437   2.793   2.713   5.949 -0.8236 -0.2372  0.7208
   73SLPC   C26 6438   2.892   2.622   5.786 -0.2004 -0.7562  0.1454
   73SLPC   H6R 6439   2.941   2.524   5.769  1.9298  0.2478  0.1945
   73SLPC   H6S 6440   2.972   2.697   5.774  0.9493 -1.5156  2.5203
   73SLPC   C27 6441   2.782   2.652   5.688 -0.0959  0.6020 -0.7503
   73SLPC   H7R 6442   2.743   2.752   5.719 -0.6582  0.6685 -1.6312
   73SLPC   H7S 6443   2.697   2.581   5.693 -1.0314  1.7710  2.8664
   73SLPC   C28 6444   2.824   2.666   5.538 -0.6745  0.2607  0.3212
   73SLPC   H8R 6445   2.860   2.569   5.496 -0.4115  0.7705 -0.6624
   73SLPC   H8S 6446   2.908   2.739   5.540  2.0425 -2.6295 -0.1033
   73SLPC   C29 6447   2.707   2.712   5.453  0.5883  0.7975 -0.0628
   73SLPC   H9R 6448   2.653   2.793   5.504  0.2657  0.2329  0.5046
   73SLPC  C210 6449   2.659   2.645   5.344  1.1443  0.8488 -0.1887
   73SLPC  H10R 6450   2.561   2.679   5.309  0.0211 -0.3099  1.6658
   73SLPC  C211 6451   2.729   2.530   5.268  0.4859  0.2555  0.4874
   73SLPC  H11R 6452   2.704   2.431   5.314  1.5541 -0.2744 -0.0332
   73SLPC  H11S 6453   2.839   2.515   5.262  0.0741 -3.6048 -0.1086
   73SLPC  C212 6454   2.684   2.522   5.122  0.6486 -0.7458 -0.3909
   73SLPC  H12R 6455   2.766   2.560   5.059  0.0173  1.9236  0.2462
   73SLPC  C213 6456   2.577   2.465   5.067  0.1204 -0.8551  0.3199
   73SLPC  H13R 6457   2.565   2.482   4.959  2.2734  1.0879  0.3126
   73SLPC  C214 6458   2.461   2.390   5.133 -0.4509  0.0876 -0.5259
   73SLPC  H14R 6459   2.478   2.361   5.239 -1.2218 -3.7381 -1.3012
   73SLPC  H14S 6460   2.440   2.295   5.080  0.0848 -1.1392  1.3544
   73SLPC  C215 6461   2.338   2.483   5.143  0.3663  0.4903 -0.2015
   73SLPC  H15R 6462   2.289   2.498   5.044 -0.2023  1.1301  0.1695
   73SLPC  H15S 6463   2.374   2.583   5.174  0.6922  0.6184 -0.9780
   73SLPC  C216 6464   2.218   2.429   5.222  1.3043  0.3055  0.3931
   73SLPC  H16R 6465   2.138   2.503   5.240 -0.0151 -0.8860 -0.3204
   73SLPC  H16S 6466   2.257   2.399   5.322 -0.3092 -0.6408  0.7818
   73SLPC  C217 6467   2.155   2.299   5.153  0.3909 -0.2854  0.3776
   73SLPC  H17R 6468   2.233   2.225   5.127  0.8439  0.8300 -1.5622
   73SLPC  H17S 6469   2.117   2.347   5.061 -0.6258  1.4716  1.6503
   73SLPC  C218 6470   2.042   2.220   5.216  0.6154  0.4814 -0.0371
   73SLPC  H18R 6471   2.067   2.156   5.302 -0.8335 -0.9285 -0.6190
   73SLPC  H18S 6472   1.988   2.156   5.143  0.5058 -1.4605  1.6611
   73SLPC  H18T 6473   1.966   2.290   5.258 -0.3352 -1.6087  1.8871
   73SLPC   C33 6474   2.289   2.551   5.702  0.0788 -0.0899  0.5483
   73SLPC   H3X 6475   2.181   2.533   5.717 -0.2511 -0.0478 -1.4863
   73SLPC   H3Y 6476   2.319   2.472   5.629  0.9336  1.2147 -0.5687
   73SLPC   C34 6477   2.329   2.681   5.638  0.4530  0.1714  0.7178
   73SLPC   H4X 6478   2.437   2.701   5.649  1.6548 -4.7388  0.3975
   73SLPC   H4Y 6479   2.275   2.762   5.691  1.0591  0.4579  0.9029
   73SLPC   C35 6480   2.288   2.686   5.493  0.5110  0.2999  0.0655
   73SLPC   H5X 6481   2.188   2.643   5.472 -0.2107  1.3378  1.2997
   73SLPC   H5Y 6482   2.360   2.624   5.434  0.1263 -0.0026 -0.0880
   73SLPC   C36 6483   2.303   2.827   5.436  0.7624  0.2148  0.3998
   73SLPC   H6X 6484   2.408   2.863   5.425  0.3556  1.7709  1.3881
   73SLPC   H6Y 6485   2.255   2.900   5.504 -0.5794  0.9185 -1.2391
   73SLPC   C37 6486   2.230   2.835   5.295 -0.1672 -0.9717  0.1031
   73SLPC   H7X 6487   2.121   2.813   5.299 -0.4788  0.5135  0.2005
   73SLPC   H7Y 6488   2.267   2.743   5.243  2.3706 -0.6936  1.2613
   73SLPC   C38 6489   2.268   2.958   5.212  0.9833 -0.4479  0.4339
   73SLPC   H8X 6490   2.379   2.953   5.201  1.1536 -2.9783  2.3715
   73SLPC   H8Y 6491   2.241   3.053   5.262 -2.9248 -0.8346 -0.6652
   73SLPC   C39 6492   2.206   2.964   5.071  0.3186  0.0447  0.3412
   73SLPC   H9X 6493   2.240   3.057   5.020  3.1708 -0.5908  0.9009
   73SLPC   H9Y 6494   2.098   2.970   5.095  0.6175 -0.3627  1.8947
   73SLPC  C310 6495   2.228   2.847   4.981  0.1854  0.1217  0.1453
   73SLPC  H10X 6496   2.158   2.842   4.895 -1.0946 -1.1378  1.2079
   73SLPC  H10Y 6497   2.231   2.753   5.041  1.5220  0.5565  0.7998
   73SLPC  C311 6498   2.367   2.859   4.915 -0.1856 -0.8258 -0.9534
   73SLPC  H11X 6499   2.443   2.875   4.995 -0.5470  0.1433 -0.7928
   73SLPC  H11Y 6500   2.367   2.940   4.839 -1.3330 -0.6218 -0.7498
   73SLPC  C312 6501   2.401   2.741   4.827 -0.4489 -0.8113 -0.1211
   73SLPC  H12X 6502   2.320   2.735   4.751 -1.5178 -1.7037  1.0434
   73SLPC  H12Y 6503   2.392   2.646   4.884  1.0112 -0.8047  0.1593
   73SLPC  C313 6504   2.534   2.765   4.760  0.6194 -0.0803 -0.6241
   73SLPC  H13X 6505   2.611   2.777   4.839 -2.3061  0.0926  2.3945
   73SLPC  H13Y 6506   2.532   2.858   4.698  0.3120 -0.0437 -0.5605
   73SLPC  C314 6507   2.576   2.657   4.661  0.8413 -0.0870  0.6766
   73SLPC  H14X 6508   2.491   2.640   4.592  0.9776  2.4406 -0.2341
   73SLPC  H14Y 6509   2.592   2.562   4.715 -3.6159 -1.9547 -0.8526
   73SLPC  C315 6510   2.697   2.694   4.573 -0.1501  0.2140  0.1298
   73SLPC  H15X 6511   2.777   2.733   4.640 -0.8132  2.8873 -0.5103
   73SLPC  H15Y 6512   2.656   2.781   4.518 -1.9776 -1.4304 -1.2443
   73SLPC  C316 6513   2.752   2.581   4.497 -0.0950  0.1193 -0.1143
   73SLPC  H16X 6514   2.665   2.540   4.442 -0.7888 -2.0770  2.3964
   73SLPC  H16Y 6515   2.799   2.514   4.572  1.1988 -0.5895 -1.4992
   73SLPC  C317 6516   2.856   2.634   4.395 -0.0459  0.5359  0.6476
   73SLPC  H17X 6517   2.942   2.677   4.451 -0.2941  1.4815  0.3249
   73SLPC  H17Y 6518   2.817   2.723   4.340 -0.1482  3.0237  4.3853
   73SLPC  C318 6519   2.889   2.525   4.294  0.1729 -0.8919  0.0780
   73SLPC  H18X 6520   2.793   2.500   4.244 -0.5007  0.0065  0.9086
   73SLPC  H18Y 6521   2.941   2.434   4.332 -0.6516 -1.1535  0.5868
   73SLPC  H18Z 6522   2.939   2.577   4.209 -0.3106 -0.5252  0.0129
   74SLPC     N 6523   6.015   2.071   6.762 -0.9419  0.4726  0.3376
   74SLPC   C13 6524   6.089   1.943   6.779 -0.2696 -0.2922 -0.0308
   74SLPC  H13A 6525   6.075   1.871   6.700  2.3721 -0.8197 -0.0933
   74SLPC  H13B 6526   6.194   1.964   6.767 -0.3379 -0.8198 -1.9853
   74SLPC  H13C 6527   6.069   1.892   6.872  3.0964 -0.7525  0.5348
   74SLPC   C14 6528   6.052   2.130   6.632  0.1443 -0.0008 -0.1551
   74SLPC  H14A 6529   6.006   2.077   6.550  1.2296  0.4747 -1.1041
   74SLPC  H14B 6530   6.007   2.228   6.627 -1.0814 -0.6055 -2.6569
   74SLPC  H14C 6531   6.158   2.147   6.621 -0.3720  2.5884 -2.2563
   74SLPC   C15 6532   6.067   2.154   6.868  1.2034 -0.4111  0.3879
   74SLPC  H15A 6533   6.036   2.258   6.866 -0.4575 -0.8660  0.7507
   74SLPC  H15B 6534   6.050   2.124   6.970 -0.9963 -0.6877 -0.0147
   74SLPC  H15C 6535   6.174   2.168   6.860  1.1877 -1.1578 -1.7184
   74SLPC   C12 6536   5.864   2.037   6.770 -0.0521 -0.0725 -0.0225
   74SLPC  H12A 6537   5.838   1.988   6.863 -0.3623  0.4857  0.1886
   74SLPC  H12B 6538   5.836   1.969   6.691  1.9250 -1.1177  0.1084
   74SLPC   C11 6539   5.772   2.164   6.757  0.4528 -0.2034  0.2260
   74SLPC  H11A 6540   5.820   2.237   6.827 -1.1732  2.8368 -1.6324
   74SLPC  H11B 6541   5.670   2.139   6.791 -1.2362  2.1588 -2.6811
   74SLPC     P 6542   5.699   2.157   6.511 -0.0456 -0.0538 -0.0158
   74SLPC   O13 6543   5.806   2.079   6.444  0.6461 -0.5741  0.3813
   74SLPC   O14 6544   5.576   2.078   6.543 -0.1534  0.3978  0.1627
   74SLPC   O12 6545   5.764   2.237   6.633 -0.0963 -0.3310  0.1892
   74SLPC   O11 6546   5.658   2.281   6.426 -0.3606  0.0872  0.5644
   74SLPC    C1 6547   5.765   2.375   6.387  0.7706  0.2324  0.1512
   74SLPC    HA 6548   5.767   2.456   6.462  1.1452  2.4871 -2.1745
   74SLPC    HB 6549   5.863   2.331   6.359  0.6836 -1.1521  1.8501
   74SLPC    C2 6550   5.715   2.442   6.267 -0.3330 -0.3848  0.6349
   74SLPC    HS 6551   5.618   2.490   6.294 -1.1722 -1.4719 -0.3327
   74SLPC   O21 6552   5.693   2.346   6.164 -0.3082  0.2267  0.4562
   74SLPC   C21 6553   5.598   2.372   6.074  0.1569  0.0841  0.4237
   74SLPC   O22 6554   5.506   2.450   6.097  0.1000  0.2727 -0.2171
   74SLPC   C22 6555   5.639   2.305   5.940 -0.7868  0.1821 -0.1458
   74SLPC   H2R 6556   5.709   2.373   5.888  0.2533 -0.8981 -0.2135
   74SLPC   H2S 6557   5.699   2.220   5.981  0.1750  2.3105  3.2713
   74SLPC    C3 6558   5.820   2.536   6.210  0.9702 -0.2337 -0.1110
   74SLPC    HX 6559   5.916   2.482   6.201  0.7598 -0.3184 -2.2362
   74SLPC    HY 6560   5.838   2.615   6.287 -0.6818 -0.7429  0.8584
   74SLPC   O31 6561   5.763   2.594   6.090  0.0558 -0.6043  0.4328
   74SLPC   C31 6562   5.842   2.686   6.042 -0.0884 -0.3662 -0.5791
   74SLPC   O32 6563   5.953   2.711   6.086 -0.4312  0.3998  0.1586
   74SLPC   C32 6564   5.774   2.778   5.941 -0.3509  0.0134  0.1512
   74SLPC   H2X 6565   5.734   2.867   5.994  1.7066  0.7916  0.5144
   74SLPC   H2Y 6566   5.703   2.714   5.885  1.3955 -0.2626 -1.8685
   74SLPC   C23 6567   5.519   2.264   5.851  0.4891 -0.6564  0.0062
   74SLPC   H3R 6568   5.437   2.222   5.913 -0.4056  0.1981 -0.5732
   74SLPC   H3S 6569   5.558   2.186   5.782  0.7912 -0.9977  0.5567
   74SLPC   C24 6570   5.466   2.367   5.760 -0.6029 -0.1475  0.0527
   74SLPC   H4R 6571   5.549   2.410   5.700 -1.4787  0.5674 -0.6862
   74SLPC   H4S 6572   5.412   2.441   5.824 -0.7576 -1.7658  1.8825
   74SLPC   C25 6573   5.349   2.328   5.669  0.1385 -0.1169 -0.3685
   74SLPC   H5R 6574   5.341   2.400   5.585 -0.7495 -0.2399 -0.3948
   74SLPC   H5S 6575   5.255   2.328   5.728  0.4721 -0.0548  0.1738
   74SLPC   C26 6576   5.364   2.193   5.600  1.0225  0.8881 -0.3740
   74SLPC   H6R 6577   5.374   2.114   5.678 -0.1359 -0.2785 -1.3638
   74SLPC   H6S 6578   5.467   2.176   5.561  0.5167  1.1460 -1.8785
   74SLPC   C27 6579   5.256   2.159   5.492  1.0623 -0.6876 -0.4042
   74SLPC   H7R 6580   5.159   2.186   5.540 -0.5630  1.2005 -4.2763
   74SLPC   H7S 6581   5.258   2.048   5.486  2.9766 -0.8680  1.9431
   74SLPC   C28 6582   5.266   2.235   5.359 -0.2047  0.1141 -0.8166
   74SLPC   H8R 6583   5.269   2.344   5.379 -1.4731  0.6170 -3.0802
   74SLPC   H8S 6584   5.165   2.208   5.322 -0.6449 -3.3127  2.2990
   74SLPC   C29 6585   5.377   2.182   5.274 -0.2026 -0.3999 -0.6229
   74SLPC   H9R 6586   5.468   2.146   5.325 -1.8270 -0.8564  2.1608
   74SLPC  C210 6587   5.375   2.180   5.138  0.4464  0.2343 -0.6584
   74SLPC  H10R 6588   5.464   2.145   5.085  1.1694 -0.7067  1.1068
   74SLPC  C211 6589   5.256   2.218   5.053  0.2417  0.4178  0.6298
   74SLPC  H11R 6590   5.302   2.248   4.957  2.5563  0.7379  1.7692
   74SLPC  H11S 6591   5.206   2.304   5.103 -0.3016  0.0293  0.7720
   74SLPC  C212 6592   5.150   2.111   5.014 -0.3440 -0.1486 -0.1399
   74SLPC  H12R 6593   5.151   2.025   5.082  0.0710 -1.0619 -1.2583
   74SLPC  C213 6594   5.063   2.120   4.911  0.3123 -0.0230  0.6522
   74SLPC  H13R 6595   4.986   2.042   4.903  0.9739 -0.5096 -2.5483
   74SLPC  C214 6596   5.061   2.235   4.816  0.3522  0.1023 -0.2382
   74SLPC  H14R 6597   5.150   2.301   4.818  0.3532  0.1323 -0.8975
   74SLPC  H14S 6598   4.965   2.291   4.824 -0.1993 -0.6662 -1.2029
   74SLPC  C215 6599   5.063   2.174   4.669  0.1808  0.1117  0.6685
   74SLPC  H15R 6600   4.983   2.098   4.662  1.8170 -1.5586 -1.0191
   74SLPC  H15S 6601   5.160   2.122   4.653  0.0737 -0.0855  0.6597
   74SLPC  C216 6602   5.051   2.275   4.557 -0.3699  0.1732  0.0416
   74SLPC  H16R 6603   5.148   2.324   4.532  0.4395 -1.2463  0.3088
   74SLPC  H16S 6604   4.980   2.352   4.593 -1.0336  0.2092 -1.2887
   74SLPC  C217 6605   4.995   2.224   4.427 -0.9896 -0.0891 -0.4323
   74SLPC  H17R 6606   4.912   2.154   4.454  0.3531 -1.6638 -0.1890
   74SLPC  H17S 6607   5.070   2.164   4.370  1.8490  1.1178  1.8064
   74SLPC  C218 6608   4.925   2.324   4.336  0.1633  0.0768  1.2109
   74SLPC  H18R 6609   4.839   2.381   4.377 -0.5298  0.8906 -1.2357
   74SLPC  H18S 6610   4.885   2.261   4.255 -0.3249 -0.0712  1.5648
   74SLPC  H18T 6611   4.991   2.395   4.280 -3.3055  0.4160 -2.9469
   74SLPC   C33 6612   5.858   2.808   5.821 -0.4260 -0.3746  0.0715
   74SLPC   H3X 6613   5.930   2.886   5.853 -2.3072  2.1046 -1.3263
   74SLPC   H3Y 6614   5.804   2.875   5.750 -0.8376 -0.7629  0.0133
   74SLPC   C34 6615   5.913   2.689   5.742 -0.2794 -0.0349 -0.5208
   74SLPC   H4X 6616   5.831   2.623   5.708  0.4475 -0.9653 -0.5078
   74SLPC   H4Y 6617   5.981   2.634   5.810  0.3156  0.5723 -0.6110
   74SLPC   C35 6618   5.986   2.728   5.615 -0.4866 -0.1941 -0.0440
   74SLPC   H5X 6619   6.038   2.634   5.585  1.3173  0.2816  1.3972
   74SLPC   H5Y 6620   6.068   2.801   5.631  1.3843 -2.7448  3.2711
   74SLPC   C36 6621   5.908   2.776   5.503  0.5138 -0.5240 -0.3976
   74SLPC   H6X 6622   5.859   2.869   5.537 -1.3422 -1.1408 -1.1851
   74SLPC   H6Y 6623   5.835   2.696   5.475  1.0045 -0.8079 -0.8801
   74SLPC   C37 6624   5.995   2.803   5.378 -0.2319  0.4997  0.2082
   74SLPC   H7X 6625   6.051   2.713   5.345 -1.7564 -0.1729 -0.6511
   74SLPC   H7Y 6626   6.062   2.888   5.402 -0.5806  0.4646  1.3576
   74SLPC   C38 6627   5.907   2.839   5.262  0.1822 -0.1415  0.8175
   74SLPC   H8X 6628   5.825   2.908   5.291 -0.8232 -1.1862  0.5846
   74SLPC   H8Y 6629   5.864   2.745   5.220  1.0699 -0.0794 -0.2663
   74SLPC   C39 6630   5.992   2.906   5.152  0.6421 -0.7594 -0.0358
   74SLPC   H9X 6631   6.053   2.832   5.097 -2.1429 -2.5354 -0.9473
   74SLPC   H9Y 6632   6.064   2.983   5.188  0.8525 -0.1121 -1.7198
   74SLPC  C310 6633   5.891   2.968   5.055 -0.0758  0.4725  0.7581
   74SLPC  H10X 6634   5.861   3.070   5.089  1.2501  1.5040 -0.9775
   74SLPC  H10Y 6635   5.799   2.908   5.035  0.5713 -0.6233  1.0139
   74SLPC  C311 6636   5.950   2.988   4.913  0.4745 -0.6750  0.5817
   74SLPC  H11X 6637   5.989   2.889   4.880  0.7661 -1.0341  1.9300
   74SLPC  H11Y 6638   6.035   3.058   4.918 -0.5308  0.9471 -2.6162
   74SLPC  C312 6639   5.844   3.048   4.819 -0.1287 -0.5896 -0.5564
   74SLPC  H12X 6640   5.808   3.143   4.863  2.3555  0.9579 -1.6444
   74SLPC  H12Y 6641   5.755   2.982   4.820 -0.2556 -0.4214 -0.8362
   74SLPC  C313 6642   5.891   3.068   4.678  0.2541 -0.2294  0.7067
   74SLPC  H13X 6643   5.980   3.136   4.674  0.7576 -0.8964  0.4043
   74SLPC  H13Y 6644   5.805   3.119   4.630  0.2632  1.0352  1.9816
   74SLPC  C314 6645   5.924   2.926   4.615 -0.0027 -0.2015 -0.5030
   74SLPC  H14X 6646   6.018   2.883   4.655 -0.1099 -1.7543 -1.8396
   74SLPC  H14Y 6647   5.946   2.941   4.508 -0.7354 -0.0015 -0.6355
   74SLPC  C315 6648   5.814   2.821   4.620  0.6087  0.1528 -0.3964
   74SLPC  H15X 6649   5.800   2.796   4.728  1.8067  0.2060 -0.2186
   74SLPC  H15Y 6650   5.845   2.731   4.564  2.0933  1.6146 -2.0638
   74SLPC  C316 6651   5.678   2.881   4.569 -0.1235  0.4908  0.8640
   74SLPC  H16X 6652   5.692   2.922   4.467  0.6067 -0.9170  0.3744
   74SLPC  H16Y 6653   5.648   2.962   4.640  0.2921 -0.1728  1.8134
   74SLPC  C317 6654   5.558   2.778   4.555  0.0960  0.2678  0.3294
   74SLPC  H17X 6655   5.458   2.825   4.539  0.0882  0.0084 -0.4057
   74SLPC  H17Y 6656   5.560   2.715   4.647  0.1947 -2.5252 -1.4501
   74SLPC  C318 6657   5.579   2.670   4.446  0.5218  0.5113  0.1318
   74SLPC  H18X 6658   5.647   2.592   4.486 -0.0547  0.1030  0.3236
   74SLPC  H18Y 6659   5.616   2.720   4.353  1.0718  0.0896  0.1136
   74SLPC  H18Z 6660   5.487   2.611   4.432  0.5850  0.6093 -0.7830
   75SLPC     N 6661   3.608   6.520   6.842 -0.3658  0.0824  0.1290
   75SLPC   C13 6662   3.677   6.645   6.897 -0.7132  0.1552  0.2839
   75SLPC  H13A 6663   3.609   6.729   6.906 -2.8086 -1.6070  2.0879
   75SLPC  H13B 6664   3.707   6.622   6.998 -0.1259 -0.8746 -0.1199
   75SLPC  H13C 6665   3.758   6.676   6.833 -1.0694  1.6995  0.5403
   75SLPC   C14 6666   3.515   6.458   6.942 -0.1789 -0.1258 -0.6269
   75SLPC  H14A 6667   3.568   6.428   7.031  0.3921  1.6049 -0.3451
   75SLPC  H14B 6668   3.439   6.528   6.975 -1.3192 -0.2880 -2.7130
   75SLPC  H14C 6669   3.459   6.382   6.890 -1.1986  0.9602 -1.1708
   75SLPC   C15 6670   3.711   6.416   6.800 -0.6288  0.5507  0.0986
   75SLPC  H15A 6671   3.673   6.336   6.739  2.8676 -2.2989  1.2728
   75SLPC  H15B 6672   3.775   6.460   6.725 -1.3671  0.2568 -0.7269
   75SLPC  H15C 6673   3.769   6.367   6.877 -0.5480 -0.3395 -0.5125
   75SLPC   C12 6674   3.538   6.560   6.716 -0.0981  0.6612  0.7902
   75SLPC  H12A 6675   3.502   6.470   6.669  1.3407 -0.0104  0.9281
   75SLPC  H12B 6676   3.614   6.603   6.652  1.0695 -1.0669  0.9535
   75SLPC   C11 6677   3.411   6.651   6.715 -0.1108  0.1773  0.3985
   75SLPC  H11A 6678   3.388   6.696   6.616  0.6316 -0.5999 -0.1466
   75SLPC  H11B 6679   3.438   6.738   6.778  0.3867  0.4568 -0.1935
   75SLPC     P 6680   3.189   6.492   6.692  0.3242 -0.2536  0.0718
   75SLPC   O13 6681   3.176   6.371   6.772 -0.3570 -0.2819  0.4074
   75SLPC   O14 6682   3.063   6.569   6.667 -0.0806  0.4152 -0.3179
   75SLPC   O12 6683   3.292   6.583   6.767 -0.4119 -0.1365 -0.1169
   75SLPC   O11 6684   3.260   6.463   6.558  0.0952  1.1421  0.0330
   75SLPC    C1 6685   3.220   6.347   6.480  0.0756 -0.2007  0.5547
   75SLPC    HA 6686   3.309   6.283   6.463  0.7905  0.8215  0.3673
   75SLPC    HB 6687   3.148   6.280   6.532 -0.4570  1.3332  1.9051
   75SLPC    C2 6688   3.160   6.381   6.343 -0.1036 -0.0327  0.1762
   75SLPC    HS 6689   3.131   6.290   6.287 -3.3949  1.9288 -1.6371
   75SLPC   O21 6690   3.257   6.474   6.274 -0.1629  0.6158 -0.5137
   75SLPC   C21 6691   3.365   6.421   6.218  0.5782  0.2070 -0.2453
   75SLPC   O22 6692   3.399   6.305   6.229  0.7720  0.5668  0.0034
   75SLPC   C22 6693   3.419   6.524   6.114 -0.3097 -0.4204  0.4155
   75SLPC   H2R 6694   3.351   6.612   6.109 -0.3507 -0.5130 -1.1925
   75SLPC   H2S 6695   3.522   6.556   6.141 -0.7129 -0.0716  1.6018
   75SLPC    C3 6696   3.023   6.451   6.349 -0.0589 -0.2385 -0.4857
   75SLPC    HX 6697   3.033   6.548   6.402 -0.5411 -0.3436 -0.1992
   75SLPC    HY 6698   2.960   6.384   6.411  1.7081  0.5135  2.2973
   75SLPC   O31 6699   2.977   6.463   6.214 -0.1380 -0.9831 -1.0813
   75SLPC   C31 6700   2.984   6.588   6.162 -0.0012  0.2891  0.5124
   75SLPC   O32 6701   3.034   6.685   6.218  0.3136  0.1159 -0.0734
   75SLPC   C32 6702   2.916   6.590   6.032 -0.5751  0.3539  0.0946
   75SLPC   H2X 6703   2.824   6.528   6.042  0.8835 -1.9486 -0.0303
   75SLPC   H2Y 6704   2.983   6.543   5.956 -1.3117 -2.4508  1.0527
   75SLPC   C23 6705   3.414   6.473   5.965  0.0583  0.5383  0.8428
   75SLPC   H3R 6706   3.445   6.367   5.951 -0.6850  0.6683 -2.8725
   75SLPC   H3S 6707   3.485   6.528   5.900 -0.9813 -1.7383 -2.5198
   75SLPC   C24 6708   3.281   6.503   5.896 -0.3079  0.4060  0.4352
   75SLPC   H4R 6709   3.265   6.613   5.910  0.6028  0.5711  0.2374
   75SLPC   H4S 6710   3.197   6.447   5.942 -2.3868  0.5908 -2.7852
   75SLPC   C25 6711   3.274   6.479   5.746 -0.3719 -0.3609  0.1884
   75SLPC   H5R 6712   3.255   6.371   5.727  1.4487 -0.9998  1.6561
   75SLPC   H5S 6713   3.376   6.499   5.705 -0.3236 -0.5776  0.2018
   75SLPC   C26 6714   3.172   6.577   5.676 -0.0379  0.1856 -0.2007
   75SLPC   H6R 6715   3.200   6.683   5.695  0.3736 -0.4460  3.3040
   75SLPC   H6S 6716   3.071   6.561   5.720 -0.9682  4.0015 -0.6217
   75SLPC   C27 6717   3.155   6.550   5.526  0.5678  0.1529 -0.0170
   75SLPC   H7R 6718   3.243   6.568   5.462  2.2583  0.5448  2.2979
   75SLPC   H7S 6719   3.080   6.630   5.505  0.8391  0.7755  1.2763
   75SLPC   C28 6720   3.082   6.415   5.487 -0.0047  0.1442  0.0683
   75SLPC   H8R 6721   3.017   6.396   5.575 -1.7908 -0.4405 -1.3185
   75SLPC   H8S 6722   3.170   6.348   5.490  0.2392  0.3574 -1.4103
   75SLPC   C29 6723   3.003   6.414   5.360  0.3163  0.2112 -0.9390
   75SLPC   H9R 6724   2.917   6.483   5.347 -0.0418  0.0332  0.2869
   75SLPC  C210 6725   3.021   6.337   5.258  0.5633 -0.4032 -0.3591
   75SLPC  H10R 6726   2.962   6.345   5.165  1.9651 -0.6050 -1.3032
   75SLPC  C211 6727   3.120   6.217   5.261  0.4175 -0.9907  0.0175
   75SLPC  H11R 6728   3.063   6.135   5.213 -1.9184  0.5288  0.0467
   75SLPC  H11S 6729   3.135   6.179   5.364  0.2574 -1.4920 -0.1400
   75SLPC  C212 6730   3.255   6.245   5.209  0.6540  0.0069 -0.3308
   75SLPC  H12R 6731   3.308   6.328   5.259 -1.5029  1.6164 -0.6026
   75SLPC  C213 6732   3.322   6.163   5.126 -0.6237 -0.4877 -0.1349
   75SLPC  H13R 6733   3.426   6.183   5.097 -0.2436  1.5645  2.3145
   75SLPC  C214 6734   3.269   6.050   5.056 -0.0727 -0.2198  0.4622
   75SLPC  H14R 6735   3.160   6.032   5.069 -0.2974  0.5009 -0.2501
   75SLPC  H14S 6736   3.322   5.957   5.081  0.4494 -0.0858 -0.1222
   75SLPC  C215 6737   3.286   6.067   4.905  0.2317  0.5634 -0.3324
   75SLPC  H15R 6738   3.395   6.057   4.885  0.5653  0.2992  1.4236
   75SLPC  H15S 6739   3.246   6.167   4.877 -2.5044 -0.4236 -0.2884
   75SLPC  C216 6740   3.199   5.962   4.824  0.0674  0.2308 -0.1304
   75SLPC  H16R 6741   3.097   5.972   4.866  0.6996 -0.9148  1.8351
   75SLPC  H16S 6742   3.235   5.861   4.852 -0.2133 -0.3400 -1.7551
   75SLPC  C217 6743   3.215   5.982   4.673  0.0214 -0.0860 -0.4440
   75SLPC  H17R 6744   3.323   5.967   4.649 -0.1474  0.1995 -1.4147
   75SLPC  H17S 6745   3.175   6.084   4.657 -2.6473 -0.8414  0.8125
   75SLPC  C218 6746   3.126   5.876   4.599 -0.2546 -0.1677  0.2947
   75SLPC  H18R 6747   3.130   5.903   4.492  1.6022  0.4853  0.4999
   75SLPC  H18S 6748   3.019   5.882   4.630 -0.3115  0.4378  0.0089
   75SLPC  H18T 6749   3.174   5.776   4.594  1.9922  0.7879  1.3150
   75SLPC   C33 6750   2.888   6.731   5.983 -0.4733 -0.0173 -0.7459
   75SLPC   H3X 6751   2.983   6.784   5.960  1.9707 -3.7331 -0.1304
   75SLPC   H3Y 6752   2.824   6.777   6.062  0.3038  1.2822 -0.8454
   75SLPC   C34 6753   2.804   6.729   5.855 -0.4739 -0.3234 -0.4990
   75SLPC   H4X 6754   2.707   6.683   5.882  0.0522 -1.2314 -0.0776
   75SLPC   H4Y 6755   2.865   6.665   5.787  3.0634  0.6606  1.4666
   75SLPC   C35 6756   2.774   6.873   5.808  0.2114 -0.1123 -0.1026
   75SLPC   H5X 6757   2.870   6.926   5.794  2.3086 -3.4071  0.6525
   75SLPC   H5Y 6758   2.706   6.930   5.876 -0.1804 -0.5195 -0.1475
   75SLPC   C36 6759   2.698   6.877   5.671 -0.3871  0.1602  0.2755
   75SLPC   H6X 6760   2.702   6.985   5.644  2.1998 -0.4606 -2.3808
   75SLPC   H6Y 6761   2.590   6.856   5.664 -0.4625  0.9651 -1.5518
   75SLPC   C37 6762   2.781   6.815   5.557 -0.2223 -0.5555 -0.6569
   75SLPC   H7X 6763   2.785   6.705   5.566  1.6087 -0.5370 -0.8808
   75SLPC   H7Y 6764   2.877   6.870   5.570 -2.3145  3.4859 -0.6031
   75SLPC   C38 6765   2.733   6.861   5.418  0.0773 -0.1506 -0.0205
   75SLPC   H8X 6766   2.769   6.965   5.403 -1.1572  0.1497 -1.0837
   75SLPC   H8Y 6767   2.623   6.866   5.405  0.1256  2.8503  0.1082
   75SLPC   C39 6768   2.770   6.762   5.311  0.4646 -0.2107  0.3391
   75SLPC   H9X 6769   2.702   6.778   5.224 -0.7875  2.2493  1.6655
   75SLPC   H9Y 6770   2.761   6.658   5.349 -1.9073  0.7358  2.6021
   75SLPC  C310 6771   2.911   6.789   5.255  0.0319 -0.3916 -0.2003
   75SLPC  H10X 6772   2.992   6.757   5.325  1.4145  0.5588 -1.3231
   75SLPC  H10Y 6773   2.924   6.892   5.218 -1.0240  0.3848  1.4687
   75SLPC  C311 6774   2.938   6.699   5.133  0.0437 -0.0396 -0.3949
   75SLPC  H11X 6775   2.867   6.735   5.055  0.3789 -0.0301 -0.6987
   75SLPC  H11Y 6776   2.904   6.595   5.156 -1.3435  0.7492  1.3864
   75SLPC  C312 6777   3.086   6.707   5.084 -0.4557  0.5402  0.2454
   75SLPC  H12X 6778   3.157   6.685   5.167 -1.6449  0.6553  1.3296
   75SLPC  H12Y 6779   3.103   6.808   5.041  1.8718  0.0838  0.0000
   75SLPC  C313 6780   3.116   6.600   4.978 -0.3094 -0.6841  0.6922
   75SLPC  H13X 6781   3.110   6.497   5.018 -1.3708 -0.4683  1.1247
   75SLPC  H13Y 6782   3.220   6.629   4.949 -0.6654 -0.4093 -0.3518
   75SLPC  C314 6783   3.043   6.612   4.846  0.5106 -0.3046 -0.1020
   75SLPC  H14X 6784   3.054   6.705   4.787 -2.4982 -0.5738 -1.2437
   75SLPC  H14Y 6785   2.936   6.605   4.876  0.6513  1.4980  0.9312
   75SLPC  C315 6786   3.096   6.509   4.739 -0.0186  0.5692  0.2150
   75SLPC  H15X 6787   3.203   6.514   4.709 -0.5706 -0.5856 -2.2305
   75SLPC  H15Y 6788   3.049   6.546   4.645  0.7571 -0.5239 -0.6327
   75SLPC  C316 6789   3.062   6.360   4.766  1.0613  0.2028 -0.0171
   75SLPC  H16X 6790   3.127   6.323   4.848  2.7984  0.8884 -1.0541
   75SLPC  H16Y 6791   3.093   6.300   4.678 -0.1100  0.8215 -0.8862
   75SLPC  C317 6792   2.905   6.327   4.787 -1.2744 -0.5659  0.2916
   75SLPC  H17X 6793   2.852   6.383   4.706  1.0277  1.9956  0.4405
   75SLPC  H17Y 6794   2.869   6.360   4.887 -0.1426 -0.1639  0.5751
   75SLPC  C318 6795   2.880   6.176   4.780  0.6994 -0.3669 -0.9380
   75SLPC  H18X 6796   2.925   6.129   4.690  1.1184  1.0411 -1.4813
   75SLPC  H18Y 6797   2.775   6.142   4.793  1.7294 -3.4638  0.3881
   75SLPC  H18Z 6798   2.928   6.131   4.870  1.4147  2.4248  0.1739
   76SLPC     N 6799   3.591   0.517   7.277  0.0901  0.3256  0.5752
   76SLPC   C13 6800   3.674   0.624   7.223 -0.5557 -0.1583 -0.1107
   76SLPC  H13A 6801   3.773   0.589   7.197 -1.1101 -2.5446  0.7705
   76SLPC  H13B 6802   3.632   0.656   7.129  0.1714 -0.6256 -0.6079
   76SLPC  H13C 6803   3.682   0.712   7.286 -2.4841 -1.1559  1.6321
   76SLPC   C14 6804   3.469   0.555   7.342 -0.4398 -0.5992 -0.6346
   76SLPC  H14A 6805   3.483   0.624   7.423 -1.0250 -0.3121 -0.7721
   76SLPC  H14B 6806   3.407   0.609   7.271 -0.8731  1.5519  1.2555
   76SLPC  H14C 6807   3.414   0.472   7.382 -0.9625 -0.3551 -0.8363
   76SLPC   C15 6808   3.679   0.443   7.378  0.6260  0.4504 -0.7077
   76SLPC  H15A 6809   3.731   0.514   7.441 -0.9524  1.7924 -0.8571
   76SLPC  H15B 6810   3.624   0.369   7.434 -1.1091  0.5603 -2.2139
   76SLPC  H15C 6811   3.747   0.391   7.312  0.1143  1.5912 -2.1873
   76SLPC   C12 6812   3.557   0.408   7.174  0.1556  0.2370 -0.7738
   76SLPC  H12A 6813   3.511   0.321   7.219  1.1871 -0.9847 -1.9914
   76SLPC  H12B 6814   3.646   0.373   7.124 -0.2899 -3.5994  0.7567
   76SLPC   C11 6815   3.473   0.443   7.056  0.6992 -0.5718  0.6548
   76SLPC  H11A 6816   3.369   0.473   7.081  1.1373 -0.4667  2.5000
   76SLPC  H11B 6817   3.464   0.346   7.002 -3.0204 -2.0220  3.4839
   76SLPC     P 6818   3.637   0.515   6.860 -0.1615  0.1697 -0.0204
   76SLPC   O13 6819   3.714   0.641   6.839 -0.5990 -0.1596 -0.1647
   76SLPC   O14 6820   3.711   0.392   6.890 -0.1745 -0.1907 -0.2096
   76SLPC   O12 6821   3.532   0.545   6.975 -0.2390  0.0914 -0.2749
   76SLPC   O11 6822   3.552   0.492   6.724 -0.2041 -0.1794 -0.5432
   76SLPC    C1 6823   3.617   0.429   6.617  0.7730 -0.2421  0.0222
   76SLPC    HA 6824   3.719   0.390   6.640  0.8149 -0.2204 -0.1234
   76SLPC    HB 6825   3.561   0.339   6.585 -0.1731 -0.3114  1.7417
   76SLPC    C2 6826   3.626   0.533   6.504  0.1082 -0.4547 -0.0828
   76SLPC    HS 6827   3.660   0.624   6.558 -1.3724 -2.2908  4.4615
   76SLPC   O21 6828   3.490   0.559   6.457 -0.2838  0.3348 -0.5821
   76SLPC   C21 6829   3.476   0.674   6.388 -0.2219  0.3659 -0.0672
   76SLPC   O22 6830   3.571   0.753   6.370 -0.0273 -0.3078  0.5248
   76SLPC   C22 6831   3.338   0.688   6.332 -0.2944  0.3924  0.5573
   76SLPC   H2R 6832   3.273   0.598   6.344  0.3663 -0.0702  0.6943
   76SLPC   H2S 6833   3.285   0.773   6.379 -1.3755  0.1669 -0.2065
   76SLPC    C3 6834   3.715   0.489   6.390  0.3888 -0.1254 -0.4121
   76SLPC    HX 6835   3.820   0.476   6.425  0.4538  0.6103 -0.3296
   76SLPC    HY 6836   3.721   0.568   6.313 -2.2289  0.5665 -0.0047
   76SLPC   O31 6837   3.653   0.384   6.316 -0.6856 -0.0633  0.1660
   76SLPC   C31 6838   3.716   0.268   6.311  0.5498  0.2558 -0.8379
   76SLPC   O32 6839   3.808   0.246   6.383 -0.1661  0.1560 -0.4148
   76SLPC   C32 6840   3.668   0.178   6.194  0.5141 -0.1876 -0.2981
   76SLPC   H2X 6841   3.738   0.203   6.111  2.2500  0.5888  1.3365
   76SLPC   H2Y 6842   3.565   0.198   6.159 -0.3783 -2.0579  1.0766
   76SLPC   C23 6843   3.347   0.719   6.177  0.0894  0.7454  0.4983
   76SLPC   H3R 6844   3.436   0.779   6.148  1.0287 -0.1270  1.5007
   76SLPC   H3S 6845   3.259   0.773   6.135 -1.6360 -1.1064  1.5782
   76SLPC   C24 6846   3.375   0.597   6.091  0.2510  0.4925 -0.0163
   76SLPC   H4R 6847   3.296   0.527   6.127 -0.4635  0.5883 -1.3179
   76SLPC   H4S 6848   3.471   0.550   6.120 -0.3683 -0.2408  0.9223
   76SLPC   C25 6849   3.342   0.622   5.941 -0.1752 -0.7740 -0.8023
   76SLPC   H5R 6850   3.270   0.705   5.927  0.6469  0.5061  1.9274
   76SLPC   H5S 6851   3.311   0.526   5.894 -1.6947 -1.6011  1.6495
   76SLPC   C26 6852   3.474   0.660   5.872 -0.7603 -0.0437  0.0052
   76SLPC   H6R 6853   3.560   0.591   5.885  1.1369  2.1342 -0.2023
   76SLPC   H6S 6854   3.508   0.759   5.910 -0.0368 -0.0739 -0.5523
   76SLPC   C27 6855   3.443   0.676   5.723  0.6027 -0.3963  0.2685
   76SLPC   H7R 6856   3.515   0.748   5.677  1.4174 -0.3436  1.5815
   76SLPC   H7S 6857   3.342   0.723   5.721  0.4864 -0.5533  1.5976
   76SLPC   C28 6858   3.448   0.543   5.636 -0.1026  0.3940 -0.0122
   76SLPC   H8R 6859   3.383   0.462   5.676  1.4915 -0.9085  0.0240
   76SLPC   H8S 6860   3.551   0.504   5.649  0.0692  1.6133  3.1527
   76SLPC   C29 6861   3.412   0.580   5.499  0.5946  0.4231  0.2162
   76SLPC   H9R 6862   3.314   0.624   5.476  0.8756  0.7501 -0.3744
   76SLPC  C210 6863   3.498   0.553   5.394 -0.3167 -0.1732 -0.3958
   76SLPC  H10R 6864   3.472   0.591   5.295  1.8490  1.7760 -0.3091
   76SLPC  C211 6865   3.633   0.487   5.391 -0.0091 -0.0507 -0.6634
   76SLPC  H11R 6866   3.608   0.399   5.328 -2.4813  0.3964 -0.4270
   76SLPC  H11S 6867   3.662   0.450   5.491  2.0324  3.9130  0.4036
   76SLPC  C212 6868   3.747   0.575   5.355 -0.6371  0.3270  0.2219
   76SLPC  H12R 6869   3.792   0.641   5.430 -2.1318  1.4802  0.1542
   76SLPC  C213 6870   3.809   0.582   5.235  0.2133  0.3913  0.4243
   76SLPC  H13R 6871   3.884   0.662   5.220  1.8625 -1.0998  0.4441
   76SLPC  C214 6872   3.767   0.505   5.107  0.3644 -0.1092  0.1592
   76SLPC  H14R 6873   3.682   0.438   5.133  0.4542  0.3417  1.7514
   76SLPC  H14S 6874   3.850   0.447   5.062  1.4109 -0.0613  1.9060
   76SLPC  C215 6875   3.704   0.610   5.011  0.2211  0.1152 -0.5140
   76SLPC  H15R 6876   3.757   0.708   5.003  1.7704 -0.5852  0.6770
   76SLPC  H15S 6877   3.612   0.641   5.063  1.5781  2.6259  0.5806
   76SLPC  C216 6878   3.675   0.560   4.869  0.5448 -0.3898 -0.3944
   76SLPC  H16R 6879   3.611   0.470   4.862 -1.8422  1.1690  0.1538
   76SLPC  H16S 6880   3.774   0.532   4.828  1.2188 -0.7253  1.3864
   76SLPC  C217 6881   3.620   0.679   4.784  0.2651 -0.4805 -0.7293
   76SLPC  H17R 6882   3.693   0.762   4.778  1.3137 -1.2229  0.9264
   76SLPC  H17S 6883   3.535   0.725   4.840  2.3097  2.6666  0.0605
   76SLPC  C218 6884   3.578   0.644   4.641 -0.4461  0.1421  0.0829
   76SLPC  H18R 6885   3.665   0.623   4.575 -1.1942 -0.9170 -0.5835
   76SLPC  H18S 6886   3.524   0.730   4.596  2.1091  0.7866 -1.9844
   76SLPC  H18T 6887   3.516   0.553   4.637  1.0799 -0.9520  0.4239
   76SLPC   C33 6888   3.656   0.028   6.214  0.3703  0.7248 -0.0094
   76SLPC   H3X 6889   3.552  -0.002   6.189  1.2085 -1.5959 -1.0229
   76SLPC   H3Y 6890   3.678  -0.011   6.316 -2.2710 -1.7152 -0.2328
   76SLPC   C34 6891   3.732  -0.047   6.101  0.1295  0.0376  0.5441
   76SLPC   H4X 6892   3.740  -0.153   6.132  0.1899  0.3883  1.7827
   76SLPC   H4Y 6893   3.831  -0.000   6.087  1.5747 -2.2437  2.3857
   76SLPC   C35 6894   3.652  -0.046   5.975 -0.7658  0.0909 -0.6578
   76SLPC   H5X 6895   3.646   0.051   5.921 -2.0181 -0.1722 -1.0471
   76SLPC   H5Y 6896   3.549  -0.084   5.995  0.3348 -3.2209 -0.6920
   76SLPC   C36 6897   3.701  -0.146   5.865 -0.3427  0.4752 -0.1558
   76SLPC   H6X 6898   3.727  -0.247   5.903  2.0806  1.5701  1.3604
   76SLPC   H6Y 6899   3.794  -0.106   5.818 -0.9759  3.1440  0.6953
   76SLPC   C37 6900   3.601  -0.163   5.753 -0.0142  0.1873 -0.7479
   76SLPC   H7X 6901   3.605  -0.060   5.710  1.1240 -0.5435 -2.5213
   76SLPC   H7Y 6902   3.504  -0.193   5.797  0.1804 -0.4970 -0.7803
   76SLPC   C38 6903   3.629  -0.256   5.634 -0.8414 -0.6481 -0.1242
   76SLPC   H8X 6904   3.604  -0.361   5.659 -1.6658 -0.6912 -1.0449
   76SLPC   H8Y 6905   3.734  -0.250   5.599 -1.6113  2.1134 -2.3400
   76SLPC   C39 6906   3.560  -0.214   5.504 -0.0993  0.1151 -0.0800
   76SLPC   H9X 6907   3.589  -0.110   5.480  1.0899 -0.1253  0.2646
   76SLPC   H9Y 6908   3.451  -0.230   5.521  0.2937 -1.9075  0.8318
   76SLPC  C310 6909   3.596  -0.310   5.388 -0.4352  0.3085  0.1638
   76SLPC  H10X 6910   3.524  -0.395   5.396  0.7168 -0.5948  1.2552
   76SLPC  H10Y 6911   3.701  -0.343   5.401 -0.2209  1.5541  1.8811
   76SLPC  C311 6912   3.573  -0.251   5.248  0.2662  0.3230 -0.0610
   76SLPC  H11X 6913   3.645  -0.170   5.222 -1.3417  0.8734 -3.2834
   76SLPC  H11Y 6914   3.478  -0.193   5.244  0.2533  0.5575  2.1540
   76SLPC  C312 6915   3.578  -0.349   5.129  0.1297  0.5594 -0.2840
   76SLPC  H12X 6916   3.530  -0.440   5.169  1.7482 -0.2794 -0.1703
   76SLPC  H12Y 6917   3.685  -0.364   5.100  0.2564  1.1006 -0.1197
   76SLPC  C313 6918   3.502  -0.306   5.003 -0.9875 -0.0943 -0.6086
   76SLPC  H13X 6919   3.545  -0.212   4.961  0.8420 -0.2760  0.7444
   76SLPC  H13Y 6920   3.402  -0.273   5.039 -0.1559  1.4529  0.3979
   76SLPC  C314 6921   3.494  -0.420   4.903 -0.4016  0.3284 -0.3559
   76SLPC  H14X 6922   3.429  -0.376   4.824  2.0830  2.0388 -1.6012
   76SLPC  H14Y 6923   3.443  -0.502   4.958  1.2538 -1.2580 -1.0613
   76SLPC  C315 6924   3.620  -0.479   4.850  0.0531 -0.5074 -0.0942
   76SLPC  H15X 6925   3.692  -0.504   4.930 -0.4532  0.1534  0.5824
   76SLPC  H15Y 6926   3.669  -0.410   4.779 -0.0733  0.4287  0.7122
   76SLPC  C316 6927   3.583  -0.601   4.765  0.9934  0.8852  0.4649
   76SLPC  H16X 6928   3.498  -0.568   4.701  0.0224  1.1807  1.8436
   76SLPC  H16Y 6929   3.550  -0.674   4.841 -0.8805  2.6871  1.5072
   76SLPC  C317 6930   3.700  -0.636   4.677  0.3363  0.0032 -0.5234
   76SLPC  H17X 6931   3.792  -0.642   4.739  1.4506  1.2264 -1.9733
   76SLPC  H17Y 6932   3.721  -0.543   4.619  3.0988 -0.6431 -0.7163
   76SLPC  C318 6933   3.674  -0.751   4.578 -0.2203 -0.8171  0.2618
   76SLPC  H18X 6934   3.676  -0.853   4.623  0.2739 -1.0079 -0.1916
   76SLPC  H18Y 6935   3.751  -0.761   4.499 -0.1097 -0.7733  0.3627
   76SLPC  H18Z 6936   3.569  -0.740   4.544  0.2991  0.3320 -1.0574
   77SLPC     N 6937   4.211   2.098   7.163  0.2313 -0.8971  0.4207
   77SLPC   C13 6938   4.216   2.079   7.305 -0.2329 -0.2699  0.9066
   77SLPC  H13A 6939   4.119   2.097   7.348 -0.0573 -0.6494  1.4762
   77SLPC  H13B 6940   4.227   1.974   7.326  0.0032 -0.5522 -0.5786
   77SLPC  H13C 6941   4.287   2.139   7.362  0.3827 -0.1587  0.0451
   77SLPC   C14 6942   4.159   2.238   7.134  0.3241  0.0790 -0.1637
   77SLPC  H14A 6943   4.201   2.314   7.198 -0.2251  0.8486 -0.7005
   77SLPC  H14B 6944   4.183   2.264   7.033  1.0775  0.4901  0.1151
   77SLPC  H14C 6945   4.051   2.251   7.138  0.4279  1.6230 -1.4591
   77SLPC   C15 6946   4.113   1.995   7.107 -0.2853  0.0175 -0.1410
   77SLPC  H15A 6947   4.106   1.999   6.999 -0.8436  2.4635 -0.0871
   77SLPC  H15B 6948   4.144   1.903   7.154 -2.1270 -1.0344 -0.8556
   77SLPC  H15C 6949   4.012   2.009   7.145 -0.5374 -2.2041  0.1352
   77SLPC   C12 6950   4.344   2.087   7.094  0.5468 -0.1575  0.0768
   77SLPC  H12A 6951   4.393   1.992   7.102  0.5305 -0.3408 -1.5980
   77SLPC  H12B 6952   4.414   2.157   7.138  1.9280 -0.9271 -0.8377
   77SLPC   C11 6953   4.344   2.122   6.947 -0.1677 -0.3801  0.4689
   77SLPC  H11A 6954   4.254   2.083   6.894  2.0088 -0.7958 -3.3112
   77SLPC  H11B 6955   4.430   2.068   6.900 -1.0517  0.5821 -2.4615
   77SLPC     P 6956   4.497   2.328   6.899 -0.2256  0.1143 -0.0989
   77SLPC   O13 6957   4.497   2.472   6.907 -0.0746 -0.1120 -0.2478
   77SLPC   O14 6958   4.594   2.258   6.989  0.5741 -0.0779  0.0215
   77SLPC   O12 6959   4.356   2.264   6.921 -0.5191 -0.6148  0.2547
   77SLPC   O11 6960   4.541   2.285   6.755 -0.8640  0.1509  0.4810
   77SLPC    C1 6961   4.444   2.263   6.652 -0.5103 -0.8855 -0.0535
   77SLPC    HA 6962   4.406   2.160   6.662  0.1102 -1.1020  0.1370
   77SLPC    HB 6963   4.361   2.336   6.639  1.8229  1.4535 -3.6428
   77SLPC    C2 6964   4.504   2.245   6.511 -0.7441 -0.1149 -0.2955
   77SLPC    HS 6965   4.589   2.174   6.522 -0.3712  0.4742  0.6733
   77SLPC   O21 6966   4.550   2.362   6.449 -0.2688 -0.3819  0.8448
   77SLPC   C21 6967   4.641   2.357   6.359  0.1889 -0.5804 -0.5873
   77SLPC   O22 6968   4.717   2.265   6.339  0.0172 -0.3849  0.6571
   77SLPC   C22 6969   4.650   2.496   6.300  0.4563 -0.2595 -1.0003
   77SLPC   H2R 6970   4.578   2.572   6.336  0.4820 -0.4142 -0.6141
   77SLPC   H2S 6971   4.747   2.531   6.340  0.1753  0.0983 -0.6257
   77SLPC    C3 6972   4.398   2.175   6.423 -0.5111  0.7737  0.1042
   77SLPC    HX 6973   4.322   2.256   6.428 -0.2573  1.1509 -1.4114
   77SLPC    HY 6974   4.356   2.087   6.476 -1.3382  0.8246 -0.4551
   77SLPC   O31 6975   4.432   2.149   6.283 -0.0225 -1.0753 -0.1914
   77SLPC   C31 6976   4.500   2.038   6.270 -0.2991 -0.2882 -0.1901
   77SLPC   O32 6977   4.535   1.960   6.351  0.2500 -0.4503 -0.5271
   77SLPC   C32 6978   4.525   2.019   6.121 -0.0336 -1.0301  0.1875
   77SLPC   H2X 6979   4.447   2.073   6.064  1.4684 -2.1717 -3.2082
   77SLPC   H2Y 6980   4.507   1.912   6.098  1.1844 -0.9361 -1.3416
   77SLPC   C23 6981   4.652   2.504   6.146  0.0844 -0.2385  0.2621
   77SLPC   H3R 6982   4.743   2.455   6.106  2.0399  3.3039 -0.0204
   77SLPC   H3S 6983   4.654   2.609   6.110 -2.4427  0.7211  2.5508
   77SLPC   C24 6984   4.532   2.437   6.081 -0.1259 -0.9995  0.2373
   77SLPC   H4R 6985   4.445   2.500   6.110  2.0501  1.0664  2.8363
   77SLPC   H4S 6986   4.533   2.331   6.115  2.9247 -1.6459 -1.5491
   77SLPC   C25 6987   4.539   2.417   5.928  0.4427  0.1479 -0.4665
   77SLPC   H5R 6988   4.473   2.335   5.893  0.0573  0.2991 -0.0976
   77SLPC   H5S 6989   4.646   2.398   5.905  0.6959  0.1397  0.6763
   77SLPC   C26 6990   4.512   2.554   5.857  0.2928  0.2416 -0.0878
   77SLPC   H6R 6991   4.578   2.628   5.908 -1.5399 -1.0566  4.6550
   77SLPC   H6S 6992   4.406   2.587   5.863  0.4000  0.4207  0.9696
   77SLPC   C27 6993   4.529   2.547   5.692 -0.2278  0.1610 -1.0570
   77SLPC   H7R 6994   4.617   2.484   5.670  0.7936  1.2556 -0.2584
   77SLPC   H7S 6995   4.549   2.652   5.662 -1.4312  0.5006 -0.7335
   77SLPC   C28 6996   4.406   2.501   5.620  0.0354  1.0108  0.8851
   77SLPC   H8R 6997   4.341   2.586   5.593  0.2947 -0.1195 -4.4299
   77SLPC   H8S 6998   4.348   2.427   5.679  0.0454 -0.6039 -1.0248
   77SLPC   C29 6999   4.445   2.413   5.499  1.0693  0.0578 -0.1070
   77SLPC   H9R 7000   4.536   2.351   5.510  0.4483 -0.8704 -0.0447
   77SLPC  C210 7001   4.397   2.428   5.378 -0.2875  0.0071  0.5055
   77SLPC  H10R 7002   4.438   2.353   5.309  2.3729  0.3042  1.5975
   77SLPC  C211 7003   4.304   2.533   5.331  0.2326 -0.1596  0.0280
   77SLPC  H11R 7004   4.255   2.595   5.410 -1.2494 -1.7302  0.3974
   77SLPC  H11S 7005   4.227   2.486   5.266  1.4002  0.4679 -1.8751
   77SLPC  C212 7006   4.388   2.632   5.252  0.0210 -0.5868  1.0108
   77SLPC  H12R 7007   4.496   2.626   5.268  0.3630  2.2212  0.1632
   77SLPC  C213 7008   4.327   2.731   5.179 -0.0609  0.6156 -0.3878
   77SLPC  H13R 7009   4.380   2.801   5.113 -0.0779  0.7985 -0.2101
   77SLPC  C214 7010   4.177   2.741   5.165  0.3078 -0.2463 -0.3481
   77SLPC  H14R 7011   4.146   2.848   5.175  0.0277 -0.3195 -0.4127
   77SLPC  H14S 7012   4.124   2.689   5.248 -0.6115  1.2486  0.0422
   77SLPC  C215 7013   4.133   2.691   5.023 -0.1407 -0.2285  0.1885
   77SLPC  H15R 7014   4.023   2.697   5.009  0.1908  0.3451 -2.7901
   77SLPC  H15S 7015   4.172   2.587   5.022  2.1278  0.5619  0.3157
   77SLPC  C216 7016   4.199   2.769   4.907 -0.7461  0.3901  0.5883
   77SLPC  H16R 7017   4.191   2.702   4.819 -2.2931  1.3595 -0.0430
   77SLPC  H16S 7018   4.306   2.774   4.936  0.5588 -2.6721 -2.9470
   77SLPC  C217 7019   4.152   2.912   4.895  0.0951  0.2376  0.1259
   77SLPC  H17R 7020   4.167   2.974   4.986 -1.7220  0.3089  0.4195
   77SLPC  H17S 7021   4.041   2.901   4.890  0.4475 -4.8733 -1.6163
   77SLPC  C218 7022   4.194   2.985   4.768 -0.0150  0.1534 -0.5677
   77SLPC  H18R 7023   4.192   2.910   4.685  0.0352 -0.0975 -0.3440
   77SLPC  H18S 7024   4.295   3.030   4.772 -0.7944  1.9629 -0.2888
   77SLPC  H18T 7025   4.124   3.063   4.734  1.6001  3.4995  3.0505
   77SLPC   C33 7026   4.677   2.066   6.080 -0.1545 -0.5314  0.4561
   77SLPC   H3X 7027   4.759   2.005   6.124 -1.2999 -3.4207 -1.1535
   77SLPC   H3Y 7028   4.684   2.172   6.114  2.5314  0.2318 -2.0370
   77SLPC   C34 7029   4.703   2.060   5.925 -0.1021 -1.1911 -0.3688
   77SLPC   H4X 7030   4.640   2.135   5.872 -0.6637 -2.2662 -1.2636
   77SLPC   H4Y 7031   4.681   1.955   5.897 -0.4661 -1.2748  0.1956
   77SLPC   C35 7032   4.837   2.092   5.876 -0.2228  0.7164 -0.3086
   77SLPC   H5X 7033   4.901   2.103   5.966 -1.0597 -0.3492  0.4460
   77SLPC   H5Y 7034   4.825   2.194   5.835 -3.3410  0.0509 -1.3310
   77SLPC   C36 7035   4.892   1.991   5.777  0.9985  0.5211 -0.5353
   77SLPC   H6X 7036   4.862   1.893   5.821  0.4547  1.7654  2.0493
   77SLPC   H6Y 7037   5.000   2.009   5.762  0.5124  3.9229 -0.6571
   77SLPC   C37 7038   4.818   1.990   5.644  1.0016  0.4923  0.7375
   77SLPC   H7X 7039   4.708   1.975   5.651  0.6671  1.0079 -2.1670
   77SLPC   H7Y 7040   4.855   1.902   5.588  0.2999 -0.7866  2.1883
   77SLPC   C38 7041   4.864   2.098   5.548 -0.7798 -0.2926  0.2996
   77SLPC   H8X 7042   4.960   2.075   5.498 -0.1189  3.0185 -0.1951
   77SLPC   H8Y 7043   4.875   2.190   5.610 -0.1197  0.9627 -1.6106
   77SLPC   C39 7044   4.762   2.107   5.436  0.3009  0.0962 -0.2404
   77SLPC   H9X 7045   4.668   2.157   5.468 -0.4326 -1.3046 -0.0778
   77SLPC   H9Y 7046   4.747   2.008   5.386  0.4266  0.5157 -1.1327
   77SLPC  C310 7047   4.810   2.204   5.317  0.0649 -0.5359 -0.1727
   77SLPC  H10X 7048   4.907   2.158   5.290  0.1908 -0.0487 -0.5642
   77SLPC  H10Y 7049   4.840   2.303   5.360 -0.7256 -0.5891  0.5248
   77SLPC  C311 7050   4.702   2.219   5.210  0.2305 -1.1630  0.4835
   77SLPC  H11X 7051   4.606   2.260   5.248 -1.9288 -1.1991 -4.2762
   77SLPC  H11Y 7052   4.679   2.117   5.172  0.1844 -0.8042 -0.4635
   77SLPC  C312 7053   4.745   2.304   5.091  0.0118 -0.2923  0.7040
   77SLPC  H12X 7054   4.852   2.276   5.087 -0.2601 -1.4268  0.9039
   77SLPC  H12Y 7055   4.737   2.412   5.117  0.0171  0.3164 -1.5609
   77SLPC  C313 7056   4.671   2.280   4.956  0.2617 -0.5824  0.1944
   77SLPC  H13X 7057   4.685   2.175   4.921 -2.6146 -0.8970 -0.2671
   77SLPC  H13Y 7058   4.708   2.354   4.882 -1.0025 -0.2567 -0.1431
   77SLPC  C314 7059   4.519   2.307   4.970  0.0608 -0.5660  0.1148
   77SLPC  H14X 7060   4.514   2.407   5.019  1.7527 -1.0647  1.4055
   77SLPC  H14Y 7061   4.481   2.236   5.047 -1.0031 -0.1524 -0.0103
   77SLPC  C315 7062   4.438   2.294   4.834  0.8271 -0.3698 -0.1134
   77SLPC  H15X 7063   4.507   2.344   4.762  0.1102  2.6483  1.1292
   77SLPC  H15Y 7064   4.349   2.360   4.847  2.7589  2.9216 -2.0305
   77SLPC  C316 7065   4.410   2.145   4.800 -0.1462 -0.0088 -0.2866
   77SLPC  H16X 7066   4.351   2.112   4.888  0.4276 -0.1318  0.0602
   77SLPC  H16Y 7067   4.502   2.085   4.782 -0.4634 -0.3665 -0.7294
   77SLPC  C317 7068   4.338   2.110   4.669 -0.4527  0.5569  0.1071
   77SLPC  H17X 7069   4.387   2.161   4.583 -1.4460  0.8041 -0.3255
   77SLPC  H17Y 7070   4.237   2.156   4.671 -0.0496  1.5413 -0.8533
   77SLPC  C318 7071   4.325   1.961   4.634 -0.0713  0.0332 -0.4445
   77SLPC  H18X 7072   4.292   1.901   4.722  4.5584 -0.0206  1.5679
   77SLPC  H18Y 7073   4.419   1.909   4.606 -0.0219 -1.0897  1.6207
   77SLPC  H18Z 7074   4.253   1.947   4.551 -0.2004 -1.4369 -0.1086
   78SLPC     N 7075   5.392   0.242   6.311 -0.4335 -0.1955  0.0999
   78SLPC   C13 7076   5.476   0.238   6.438  0.2475  0.0356 -0.3314
   78SLPC  H13A 7077   5.446   0.153   6.498 -0.5274  1.7928  1.9490
   78SLPC  H13B 7078   5.574   0.202   6.411  1.1594  0.4292  2.2051
   78SLPC  H13C 7079   5.471   0.332   6.490 -1.9709  0.4282 -1.1548
   78SLPC   C14 7080   5.429   0.374   6.246 -0.2465 -0.0657 -0.3508
   78SLPC  H14A 7081   5.397   0.386   6.143 -3.9581  0.5221  0.7172
   78SLPC  H14B 7082   5.390   0.459   6.299  1.0720  0.3436 -0.0081
   78SLPC  H14C 7083   5.535   0.384   6.262 -0.3738  1.4796 -0.3885
   78SLPC   C15 7084   5.244   0.241   6.357  0.1628  0.7090 -0.4242
   78SLPC  H15A 7085   5.224   0.142   6.396  0.8517 -0.9381 -3.8834
   78SLPC  H15B 7086   5.219   0.322   6.424  2.1352  1.9432 -1.0950
   78SLPC  H15C 7087   5.179   0.240   6.271  0.8146 -1.5738 -0.9606
   78SLPC   C12 7088   5.425   0.123   6.222 -0.5551  0.4495  0.2631
   78SLPC  H12A 7089   5.345   0.109   6.152 -0.4395  0.6646  0.0895
   78SLPC  H12B 7090   5.424   0.034   6.284  2.0135 -0.3893 -0.7291
   78SLPC   C11 7091   5.563   0.130   6.139  1.3638 -0.6126  0.1557
   78SLPC  H11A 7092   5.548   0.200   6.054  1.0039 -1.0168 -0.1192
   78SLPC  H11B 7093   5.581   0.028   6.098 -0.4580  0.5108 -3.8604
   78SLPC     P 7094   5.812   0.200   6.162  0.0770  0.1286 -0.1299
   78SLPC   O13 7095   5.835   0.337   6.207 -0.1747  0.3808 -0.3514
   78SLPC   O14 7096   5.915   0.103   6.210  0.4509  0.6622 -0.0242
   78SLPC   O12 7097   5.669   0.163   6.220 -1.0437 -0.2764  0.0229
   78SLPC   O11 7098   5.802   0.201   6.009 -0.6212 -0.1389  0.2813
   78SLPC    C1 7099   5.751   0.312   5.940  0.4844 -0.0618  0.1939
   78SLPC    HA 7100   5.674   0.270   5.871  0.4488 -0.8378  0.6842
   78SLPC    HB 7101   5.697   0.389   5.999 -0.1860  0.7213 -1.3791
   78SLPC    C2 7102   5.856   0.393   5.866 -0.0190  0.1665  0.0146
   78SLPC    HS 7103   5.804   0.459   5.794 -0.2470 -1.6188 -1.5400
   78SLPC   O21 7104   5.950   0.320   5.789 -0.5575  0.0644  0.3290
   78SLPC   C21 7105   5.901   0.286   5.672  0.3145 -0.6096  0.6456
   78SLPC   O22 7106   5.783   0.307   5.636  0.1736 -0.0681 -1.2169
   78SLPC   C22 7107   5.994   0.200   5.590  0.2323 -0.2412 -0.3441
   78SLPC   H2R 7108   6.083   0.262   5.566  0.1988  0.0321  0.2295
   78SLPC   H2S 7109   6.032   0.116   5.652  1.8763  0.4677 -0.3371
   78SLPC    C3 7110   5.938   0.477   5.971  0.7263 -0.4953  0.7821
   78SLPC    HX 7111   6.008   0.417   6.032  0.6916  1.3058  2.7183
   78SLPC    HY 7112   5.870   0.536   6.037  2.4647  0.2091  2.0150
   78SLPC   O31 7113   6.012   0.574   5.896 -0.7346 -0.4777 -0.1190
   78SLPC   C31 7114   6.096   0.652   5.968  1.1745  0.2548 -0.3739
   78SLPC   O32 7115   6.089   0.664   6.090 -0.1727 -0.1842  0.5259
   78SLPC   C32 7116   6.212   0.704   5.892  0.2840  0.8057 -0.1327
   78SLPC   H2X 7117   6.264   0.614   5.855 -1.5535 -0.3950  0.0554
   78SLPC   H2Y 7118   6.278   0.759   5.962  0.4262 -0.4173  0.7253
   78SLPC   C23 7119   5.920   0.143   5.465 -0.1022  0.5231 -0.4170
   78SLPC   H3R 7120   5.813   0.120   5.484 -0.4928  2.0886 -0.5831
   78SLPC   H3S 7121   5.978   0.051   5.442  2.4752  0.6358  4.3354
   78SLPC   C24 7122   5.924   0.239   5.349 -0.1575  0.7777  0.6357
   78SLPC   H4R 7123   6.030   0.254   5.319 -0.3601 -0.5419 -0.8252
   78SLPC   H4S 7124   5.882   0.338   5.377  1.0134  1.4704  0.0086
   78SLPC   C25 7125   5.861   0.185   5.224  0.1017 -0.7161  1.1776
   78SLPC   H5R 7126   5.754   0.163   5.244 -0.1711 -0.1404  0.4100
   78SLPC   H5S 7127   5.902   0.084   5.206 -1.1962 -1.2420  1.0633
   78SLPC   C26 7128   5.878   0.282   5.114 -0.0635  0.7092  0.0784
   78SLPC   H6R 7129   5.985   0.309   5.107  0.3097  0.6667  3.6934
   78SLPC   H6S 7130   5.817   0.370   5.144 -1.7891 -0.0987 -0.8839
   78SLPC   C27 7131   5.834   0.216   4.987 -0.4263 -0.2092  0.5349
   78SLPC   H7R 7132   5.725   0.198   4.981 -0.2007 -1.8811  1.1597
   78SLPC   H7S 7133   5.886   0.119   4.977 -2.1503 -1.0673 -0.4980
   78SLPC   C28 7134   5.898   0.281   4.862 -0.3980  0.3329 -0.9120
   78SLPC   H8R 7135   5.880   0.196   4.793  0.0782  0.2042 -0.8824
   78SLPC   H8S 7136   6.005   0.297   4.886 -0.5377  0.4419 -0.3316
   78SLPC   C29 7137   5.817   0.391   4.804 -0.4098  0.2505 -0.1199
   78SLPC   H9R 7138   5.708   0.381   4.810 -0.3503 -1.1008 -0.9255
   78SLPC  C210 7139   5.874   0.483   4.719 -0.2412 -0.9655 -0.2686
   78SLPC  H10R 7140   5.810   0.559   4.672  2.1936 -0.2299 -2.6365
   78SLPC  C211 7141   6.017   0.511   4.682  0.0200  0.1609 -0.1385
   78SLPC  H11R 7142   6.038   0.470   4.581  0.6038  0.3068 -0.0819
   78SLPC  H11S 7143   6.078   0.452   4.754  0.8495  0.0687 -0.8893
   78SLPC  C212 7144   6.066   0.655   4.680 -0.3481 -0.0824 -0.5712
   78SLPC  H12R 7145   6.077   0.707   4.584 -1.5328 -0.5357 -0.9635
   78SLPC  C213 7146   6.121   0.723   4.789 -0.7432  0.2716  0.6588
   78SLPC  H13R 7147   6.165   0.822   4.771 -0.9382  0.1797 -0.4181
   78SLPC  C214 7148   6.130   0.670   4.929 -0.0445 -0.6813  0.4861
   78SLPC  H14R 7149   6.226   0.614   4.928 -2.0385 -4.4085  0.4328
   78SLPC  H14S 7150   6.051   0.597   4.957 -1.7672  1.4695  1.5550
   78SLPC  C215 7151   6.122   0.782   5.036  0.1309  0.3942 -0.2653
   78SLPC  H15R 7152   6.028   0.837   5.012 -0.3462 -1.0479 -1.9172
   78SLPC  H15S 7153   6.207   0.852   5.049 -0.2507  0.7530  0.3830
   78SLPC  C216 7154   6.095   0.732   5.179  0.5130  0.3886 -0.5300
   78SLPC  H16R 7155   5.993   0.690   5.189  0.9291 -0.7887 -1.0704
   78SLPC  H16S 7156   6.096   0.828   5.235 -0.9916  0.3423 -0.3773
   78SLPC  C217 7157   6.194   0.637   5.248 -0.0005 -0.7102 -0.4978
   78SLPC  H17R 7158   6.295   0.670   5.216  0.2073 -0.8755 -0.0254
   78SLPC  H17S 7159   6.190   0.534   5.206  1.7428 -0.9893 -0.0421
   78SLPC  C218 7160   6.178   0.636   5.399  0.0994 -0.1347  0.1152
   78SLPC  H18R 7161   6.205   0.737   5.438  0.1505 -0.1377  0.0876
   78SLPC  H18S 7162   6.244   0.560   5.445  1.3487  1.5528  1.2310
   78SLPC  H18T 7163   6.074   0.623   5.436 -0.0819 -0.8316 -0.6097
   78SLPC   C33 7164   6.192   0.792   5.765 -0.2043 -0.3558  0.2945
   78SLPC   H3X 7165   6.093   0.773   5.719 -0.0482  1.1319 -0.6803
   78SLPC   H3Y 7166   6.262   0.758   5.687  1.8568  0.8484  1.5343
   78SLPC   C34 7167   6.197   0.942   5.798 -0.1756  0.2915 -0.6089
   78SLPC   H4X 7168   6.302   0.965   5.827 -0.6302 -0.3531  1.7424
   78SLPC   H4Y 7169   6.134   0.948   5.889 -2.6405 -0.7216 -2.1415
   78SLPC   C35 7170   6.147   1.040   5.694  0.4935 -0.3118  1.3618
   78SLPC   H5X 7171   6.085   1.117   5.744  0.3135 -0.1413  0.8763
   78SLPC   H5Y 7172   6.076   0.987   5.628  1.0741  1.4573 -0.7868
   78SLPC   C36 7173   6.264   1.099   5.598  0.4781 -0.0446  0.3930
   78SLPC   H6X 7174   6.336   1.019   5.570  0.9912  0.6485 -0.3235
   78SLPC   H6Y 7175   6.319   1.177   5.655  1.3295 -0.0678 -0.3666
   78SLPC   C37 7176   6.215   1.186   5.481  1.1735 -0.3762  0.4100
   78SLPC   H7X 7177   6.303   1.231   5.431  1.6808 -2.0725 -0.2921
   78SLPC   H7Y 7178   6.147   1.268   5.511  0.4558  0.1384 -2.3337
   78SLPC   C38 7179   6.136   1.123   5.363 -1.2224  0.7625 -0.8918
   78SLPC   H8X 7180   6.034   1.085   5.387 -1.1158  0.4998 -0.8464
   78SLPC   H8Y 7181   6.197   1.039   5.324 -0.8962  0.8124 -0.4828
   78SLPC   C39 7182   6.123   1.214   5.244  0.1367  0.5087  0.7985
   78SLPC   H9X 7183   6.228   1.231   5.212  0.6494 -1.3153  1.3615
   78SLPC   H9Y 7184   6.070   1.310   5.260  0.3440  1.5662 -3.5826
   78SLPC  C310 7185   6.038   1.146   5.134  0.1972 -0.0905 -0.4582
   78SLPC  H10X 7186   5.945   1.100   5.173  0.3004 -0.7885 -1.0061
   78SLPC  H10Y 7187   6.086   1.055   5.092 -0.6268 -2.0681  2.5661
   78SLPC  C311 7188   6.008   1.240   5.018 -0.4708  0.1256 -0.0180
   78SLPC  H11X 7189   6.102   1.255   4.961 -1.6366  0.8310 -1.8532
   78SLPC  H11Y 7190   5.988   1.345   5.048 -0.0046  0.0656  0.5139
   78SLPC  C312 7191   5.917   1.184   4.913  0.4623  0.4544  0.3857
   78SLPC  H12X 7192   5.833   1.130   4.961 -0.0365  1.0699  0.2094
   78SLPC  H12Y 7193   5.971   1.118   4.841  0.1302  0.6480 -0.0451
   78SLPC  C313 7194   5.856   1.294   4.825  0.3298  0.2540 -0.4767
   78SLPC  H13X 7195   5.949   1.345   4.790  0.8509 -1.4349 -1.6883
   78SLPC  H13Y 7196   5.782   1.355   4.881 -2.6020 -0.4427 -3.2889
   78SLPC  C314 7197   5.784   1.237   4.701  0.1550  0.2055 -0.2698
   78SLPC  H14X 7198   5.728   1.145   4.729 -0.3960  0.1010 -1.6219
   78SLPC  H14Y 7199   5.852   1.207   4.618 -1.2141 -0.3097 -1.2507
   78SLPC  C315 7200   5.686   1.333   4.633 -0.0059  0.2913  0.6513
   78SLPC  H15X 7201   5.605   1.383   4.690 -0.6592 -0.5065  0.4528
   78SLPC  H15Y 7202   5.644   1.290   4.540 -0.0190 -1.3861  1.4054
   78SLPC  C316 7203   5.764   1.462   4.585  0.1433 -0.1452  1.2662
   78SLPC  H16X 7204   5.838   1.439   4.506 -1.1854 -0.9893  0.2233
   78SLPC  H16Y 7205   5.820   1.490   4.677  0.1781  1.1026  0.8762
   78SLPC  C317 7206   5.668   1.577   4.545  0.0098  0.6899  0.1632
   78SLPC  H17X 7207   5.607   1.602   4.634  0.4618 -2.4447  1.4920
   78SLPC  H17Y 7208   5.600   1.544   4.463 -1.3262  0.4104  1.3556
   78SLPC  C318 7209   5.748   1.701   4.506  0.7219  0.4542 -0.2190
   78SLPC  H18X 7210   5.808   1.732   4.594 -0.4143  0.1112  0.7071
   78SLPC  H18Y 7211   5.672   1.774   4.471 -0.4262 -1.4103 -1.8524
   78SLPC  H18Z 7212   5.809   1.680   4.416 -0.7653 -0.8842 -0.9581
   79SLPC     N 7213   6.378   0.925   6.342  0.0014  0.1730 -0.2871
   79SLPC   C13 7214   6.256   0.855   6.282  0.3424  0.0447 -0.7801
   79SLPC  H13A 7215   6.284   0.762   6.234  1.4847  0.3122 -0.6386
   79SLPC  H13B 7216   6.204   0.814   6.368  2.9147 -2.3217 -0.2175
   79SLPC  H13C 7217   6.199   0.923   6.221 -1.4260 -0.9829 -0.3878
   79SLPC   C14 7218   6.480   0.950   6.229  0.0730 -0.3223 -0.5386
   79SLPC  H14A 7219   6.562   1.007   6.267 -0.9796  1.8809 -1.4235
   79SLPC  H14B 7220   6.504   0.862   6.171  1.3700 -1.7535  1.9874
   79SLPC  H14C 7221   6.430   1.021   6.165 -0.7433 -0.4580 -0.0719
   79SLPC   C15 7222   6.441   0.843   6.456 -0.3023 -0.0402 -0.0604
   79SLPC  H15A 7223   6.536   0.892   6.471 -0.6433  0.8837 -0.8069
   79SLPC  H15B 7224   6.371   0.850   6.539  0.3447  2.2553  0.3525
   79SLPC  H15C 7225   6.462   0.739   6.440 -0.3588 -0.5263  2.5489
   79SLPC   C12 7226   6.342   1.062   6.409 -0.3503  0.2916 -0.4817
   79SLPC  H12A 7227   6.434   1.092   6.455  0.1502 -0.5699 -0.8973
   79SLPC  H12B 7228   6.275   1.042   6.492  0.4728 -0.2602  0.0656
   79SLPC   C11 7229   6.279   1.172   6.328  0.3400 -0.7783  0.1123
   79SLPC  H11A 7230   6.346   1.206   6.246  0.7987  0.6665  1.0505
   79SLPC  H11B 7231   6.277   1.264   6.390 -1.1574 -1.0258  0.4764
   79SLPC     P 7232   6.021   1.123   6.375 -0.3103 -0.2273  0.1821
   79SLPC   O13 7233   5.928   1.029   6.318  0.5107  0.2313  0.4836
   79SLPC   O14 7234   6.069   1.099   6.511  0.2240  0.5102 -0.1238
   79SLPC   O12 7235   6.144   1.146   6.278  0.2329 -0.3337  0.4672
   79SLPC   O11 7236   5.948   1.263   6.384  0.0317 -0.2281 -0.1477
   79SLPC    C1 7237   5.973   1.373   6.291 -0.0370 -0.3088  0.2162
   79SLPC    HA 7238   6.019   1.450   6.356 -0.9041 -1.1918  1.9557
   79SLPC    HB 7239   6.038   1.352   6.203  0.1693  0.8448  0.0843
   79SLPC    C2 7240   5.850   1.445   6.232 -0.4403 -0.4452 -1.1040
   79SLPC    HS 7241   5.798   1.483   6.323  0.9902  0.4702 -0.6418
   79SLPC   O21 7242   5.782   1.348   6.155 -0.6864 -0.6589  0.1448
   79SLPC   C21 7243   5.654   1.363   6.122  0.4399 -0.0756  0.3406
   79SLPC   O22 7244   5.581   1.447   6.172  0.5026  0.2641  0.0948
   79SLPC   C22 7245   5.623   1.275   6.002 -0.8818  0.0956 -0.1521
   79SLPC   H2R 7246   5.579   1.187   6.053  1.6185 -1.7371 -0.9529
   79SLPC   H2S 7247   5.565   1.339   5.932  1.8812  2.9899 -0.0171
   79SLPC    C3 7248   5.878   1.580   6.150 -0.6463 -0.0187  0.2264
   79SLPC    HX 7249   5.935   1.660   6.202 -0.8750 -0.1910  0.7494
   79SLPC    HY 7250   5.785   1.636   6.124  2.4406  4.3658 -3.0760
   79SLPC   O31 7251   5.941   1.538   6.021 -0.5794  0.3784  0.3526
   79SLPC   C31 7252   6.064   1.581   6.004 -0.4361  0.4451  0.6776
   79SLPC   O32 7253   6.132   1.646   6.080 -0.5693  0.5323  0.0798
   79SLPC   C32 7254   6.100   1.535   5.861  0.6096 -0.6537  0.0611
   79SLPC   H2X 7255   6.006   1.526   5.803 -0.5901 -1.4111  2.0091
   79SLPC   H2Y 7256   6.156   1.438   5.866  1.6694 -0.3070 -2.9522
   79SLPC   C23 7257   5.751   1.226   5.914  0.2052 -0.2076 -0.4903
   79SLPC   H3R 7258   5.820   1.165   5.977  2.3531  2.0653 -0.4769
   79SLPC   H3S 7259   5.811   1.313   5.880 -0.7567  0.4519 -0.5327
   79SLPC   C24 7260   5.703   1.141   5.800  0.6388 -0.4348 -0.5929
   79SLPC   H4R 7261   5.628   1.067   5.837 -0.9330  1.5396  0.3529
   79SLPC   H4S 7262   5.785   1.090   5.745  0.0035 -2.4091  0.2133
   79SLPC   C25 7263   5.632   1.224   5.690 -0.2758  0.7443  0.3700
   79SLPC   H5R 7264   5.710   1.275   5.630 -1.9989  0.6063 -2.1038
   79SLPC   H5S 7265   5.589   1.319   5.729  1.4639  2.3086 -1.3478
   79SLPC   C26 7266   5.531   1.150   5.605  0.2857  0.8510 -0.4813
   79SLPC   H6R 7267   5.440   1.145   5.667  0.2985 -1.7626 -0.5542
   79SLPC   H6S 7268   5.574   1.050   5.579 -0.9137  0.3682 -0.6750
   79SLPC   C27 7269   5.494   1.228   5.474  0.0997 -0.0735  0.4024
   79SLPC   H7R 7270   5.593   1.257   5.433 -0.0122  0.2229  0.3366
   79SLPC   H7S 7271   5.452   1.322   5.516  0.3029  0.8995 -1.4329
   79SLPC   C28 7272   5.411   1.142   5.382 -0.1681 -0.4957 -0.1526
   79SLPC   H8R 7273   5.348   1.083   5.451 -0.1348 -1.4229 -0.8890
   79SLPC   H8S 7274   5.469   1.065   5.326 -0.6452  1.0961 -3.0619
   79SLPC   C29 7275   5.311   1.207   5.295 -0.0643 -0.4015 -0.5786
   79SLPC   H9R 7276   5.274   1.307   5.323 -0.2356 -1.1721  2.2648
   79SLPC  C210 7277   5.244   1.164   5.191  1.1035 -0.4553  0.7291
   79SLPC  H10R 7278   5.167   1.223   5.140 -0.3961 -3.6313 -0.9542
   79SLPC  C211 7279   5.269   1.035   5.119  0.5567  0.0422 -0.3710
   79SLPC  H11R 7280   5.172   0.995   5.082  0.3113 -0.2126  0.5196
   79SLPC  H11S 7281   5.320   0.957   5.179 -2.0626 -1.3848  0.1473
   79SLPC  C212 7282   5.356   1.068   5.002 -0.1401 -0.2347  0.1092
   79SLPC  H12R 7283   5.463   1.082   5.024  0.4318  0.2053 -2.6115
   79SLPC  C213 7284   5.324   1.084   4.873 -0.4068 -0.1797 -0.1174
   79SLPC  H13R 7285   5.403   1.119   4.804 -1.6752  2.4979 -0.3261
   79SLPC  C214 7286   5.187   1.085   4.811 -0.5905 -0.5498 -0.5716
   79SLPC  H14R 7287   5.183   1.185   4.761 -0.1610  0.6315  1.6220
   79SLPC  H14S 7288   5.116   1.089   4.896  1.1847  0.7338  0.9459
   79SLPC  C215 7289   5.152   0.967   4.716  0.5047  0.1824 -0.6141
   79SLPC  H15R 7290   5.144   0.876   4.779 -1.0191  1.2220  0.7995
   79SLPC  H15S 7291   5.230   0.945   4.641 -0.9744 -2.6831 -1.4602
   79SLPC  C216 7292   5.013   0.983   4.654 -0.2890 -0.5247 -0.4041
   79SLPC  H16R 7293   5.013   1.076   4.594 -1.1127 -0.6127 -0.5465
   79SLPC  H16S 7294   4.929   0.997   4.725  0.1254 -1.0718  0.2071
   79SLPC  C217 7295   4.965   0.869   4.573 -0.2111  0.0737  0.2024
   79SLPC  H17R 7296   4.957   0.778   4.637  2.9391 -0.3370  0.1593
   79SLPC  H17S 7297   5.030   0.835   4.489 -0.4208 -1.8333  0.7545
   79SLPC  C218 7298   4.822   0.875   4.513 -0.3962 -0.3404 -0.1316
   79SLPC  H18R 7299   4.791   0.792   4.445 -2.1369 -1.2815  1.7072
   79SLPC  H18S 7300   4.815   0.969   4.455  0.1117 -0.0524  0.2621
   79SLPC  H18T 7301   4.758   0.889   4.603 -0.1578 -4.4105  0.8861
   79SLPC   C33 7302   6.194   1.639   5.798 -0.0877  0.1512  0.3182
   79SLPC   H3X 7303   6.282   1.645   5.865  0.1325  0.2636  0.0213
   79SLPC   H3Y 7304   6.151   1.741   5.801 -0.7212 -0.1357  1.0487
   79SLPC   C34 7305   6.231   1.612   5.645 -0.2664  0.1943  0.3637
   79SLPC   H4X 7306   6.292   1.519   5.644 -3.9237 -2.4828  1.1861
   79SLPC   H4Y 7307   6.297   1.696   5.617 -0.6513 -0.1037 -1.5769
   79SLPC   C35 7308   6.116   1.611   5.559  1.2275 -0.2072 -0.7168
   79SLPC   H5X 7309   6.044   1.693   5.584 -0.4633 -2.3133  1.8204
   79SLPC   H5Y 7310   6.066   1.512   5.567  1.8958 -0.4182  2.1232
   79SLPC   C36 7311   6.149   1.621   5.409  0.1218  0.3943  0.3201
   79SLPC   H6X 7312   6.218   1.537   5.389  2.6953  2.2324  0.9357
   79SLPC   H6Y 7313   6.209   1.714   5.401  0.8525  0.0623  1.6848
   79SLPC   C37 7314   6.034   1.622   5.300 -0.2003  0.1828 -0.1913
   79SLPC   H7X 7315   5.985   1.720   5.320  1.2573  0.6162  1.4811
   79SLPC   H7Y 7316   5.966   1.535   5.315  1.5585 -1.1769  0.1603
   79SLPC   C38 7317   6.084   1.622   5.157 -0.0330 -0.4307  0.1855
   79SLPC   H8X 7318   6.113   1.522   5.121  1.5727  0.0242  0.1506
   79SLPC   H8Y 7319   6.184   1.670   5.163 -0.7005  1.0235  0.1755
   79SLPC   C39 7320   5.995   1.688   5.047  0.8301 -0.5768 -0.4001
   79SLPC   H9X 7321   5.970   1.786   5.094 -0.1124  0.6337 -3.2244
   79SLPC   H9Y 7322   5.897   1.639   5.025  0.0514  0.8453 -0.2340
   79SLPC  C310 7323   6.076   1.715   4.923  0.0775  0.4383 -0.3593
   79SLPC  H10X 7324   6.168   1.764   4.961  0.8791 -1.2455 -0.0406
   79SLPC  H10Y 7325   6.022   1.786   4.856  1.2057 -0.1934 -1.9928
   79SLPC  C311 7326   6.095   1.587   4.842 -0.5423 -0.4104 -0.0104
   79SLPC  H11X 7327   5.991   1.548   4.837 -0.1383 -1.6744  0.7953
   79SLPC  H11Y 7328   6.153   1.509   4.897  3.0730  0.7484 -1.8308
   79SLPC  C312 7329   6.166   1.609   4.706  0.8000 -0.5405 -0.5950
   79SLPC  H12X 7330   6.271   1.641   4.721  0.0586  1.6609  0.2737
   79SLPC  H12Y 7331   6.115   1.694   4.657 -2.8328 -1.9657  0.3658
   79SLPC  C313 7332   6.162   1.492   4.612 -0.4090 -0.3072 -0.3592
   79SLPC  H13X 7333   6.154   1.525   4.506 -0.7513  1.3457  0.1526
   79SLPC  H13Y 7334   6.062   1.443   4.613 -0.3230 -0.4767 -0.0995
   79SLPC  C314 7335   6.261   1.378   4.638 -0.1476 -0.6111  0.0855
   79SLPC  H14X 7336   6.235   1.355   4.743 -0.9339  1.6304  0.4201
   79SLPC  H14Y 7337   6.362   1.424   4.647 -1.1086  1.7833 -0.6166
   79SLPC  C315 7338   6.271   1.262   4.544  0.7461  0.4052 -0.3006
   79SLPC  H15X 7339   6.355   1.196   4.577 -0.4613 -1.7139 -1.2602
   79SLPC  H15Y 7340   6.294   1.282   4.438  2.1331 -1.1689 -0.3401
   79SLPC  C316 7341   6.141   1.176   4.544 -0.9166 -0.1314  0.0943
   79SLPC  H16X 7342   6.056   1.247   4.533 -0.0473  0.7278 -1.4001
   79SLPC  H16Y 7343   6.139   1.126   4.644  0.3720  2.2841  1.4210
   79SLPC  C317 7344   6.143   1.072   4.432  0.0117 -0.2096 -0.5375
   79SLPC  H17X 7345   6.223   1.002   4.463  1.6196  1.5940 -0.4987
   79SLPC  H17Y 7346   6.164   1.127   4.338  1.2700  0.7505  0.2770
   79SLPC  C318 7347   6.015   0.988   4.419  0.0489 -0.1410  0.2968
   79SLPC  H18X 7348   6.039   0.895   4.364 -1.4062 -0.5320  0.2615
   79SLPC  H18Y 7349   5.936   1.032   4.353 -1.2010 -0.5605  1.4529
   79SLPC  H18Z 7350   5.976   0.956   4.518 -0.3940  1.7827  0.7869
   80SLPC     N 7351   6.135   3.997   7.036 -0.1075 -0.0275  0.2514
   80SLPC   C13 7352   6.198   4.121   7.080 -0.5615  0.2189  0.2955
   80SLPC  H13A 7353   6.304   4.121   7.098 -0.2804  1.2963 -1.1483
   80SLPC  H13B 7354   6.177   4.197   7.006 -0.9526  0.4841  0.6717
   80SLPC  H13C 7355   6.150   4.158   7.169 -1.1134  1.9382 -0.6555
   80SLPC   C14 7356   5.988   3.987   7.080 -0.6073 -0.0801  0.3368
   80SLPC  H14A 7357   5.939   4.080   7.055  0.5231  1.1202  2.3389
   80SLPC  H14B 7358   5.933   3.912   7.026 -1.5656  0.8241  0.0305
   80SLPC  H14C 7359   5.995   3.965   7.185  1.3134  1.1511  0.5198
   80SLPC   C15 7360   6.207   3.874   7.092 -0.2387  0.2954 -0.1028
   80SLPC  H15A 7361   6.299   3.851   7.040 -2.0772 -2.5368 -2.3956
   80SLPC  H15B 7362   6.229   3.871   7.198 -0.8738 -1.4882  0.0090
   80SLPC  H15C 7363   6.141   3.789   7.081  0.2505 -0.3619  1.7389
   80SLPC   C12 7364   6.148   3.983   6.883 -0.5880 -0.3630 -0.1422
   80SLPC  H12A 7365   6.103   3.890   6.849 -1.1878 -1.1295  2.5300
   80SLPC  H12B 7366   6.249   3.985   6.845 -1.9359  1.6571 -4.2547
   80SLPC   C11 7367   6.092   4.105   6.796  0.0810 -0.5846 -0.4147
   80SLPC  H11A 7368   6.108   4.086   6.688 -0.5647  0.4270 -0.7035
   80SLPC  H11B 7369   6.164   4.188   6.812  2.5710 -2.5858 -0.7378
   80SLPC     P 7370   5.836   4.119   6.734  0.0760 -0.2521 -0.1674
   80SLPC   O13 7371   5.784   3.982   6.754 -0.8286 -0.2765 -0.3787
   80SLPC   O14 7372   5.739   4.231   6.756 -0.1246 -0.4085 -0.3293
   80SLPC   O12 7373   5.958   4.135   6.833  0.5037  0.3281 -0.6912
   80SLPC   O11 7374   5.899   4.116   6.589 -0.1273 -0.3063  0.1396
   80SLPC    C1 7375   5.948   4.238   6.541 -0.0964  0.5323  0.0922
   80SLPC    HA 7376   5.921   4.329   6.600 -1.3489 -0.0365  0.4341
   80SLPC    HB 7377   6.059   4.234   6.540 -0.0918 -0.0722  0.9994
   80SLPC    C2 7378   5.889   4.268   6.394  0.4455  0.3082  0.3260
   80SLPC    HS 7379   5.806   4.339   6.414  0.5887  0.4881  0.2861
   80SLPC   O21 7380   5.850   4.151   6.323  0.5523 -0.3031 -0.3052
   80SLPC   C21 7381   5.717   4.122   6.332  0.3808 -0.8488 -0.8223
   80SLPC   O22 7382   5.633   4.187   6.391  0.0078 -0.1397  0.5446
   80SLPC   C22 7383   5.685   3.990   6.269  0.3970  0.1946  0.5975
   80SLPC   H2R 7384   5.717   3.913   6.343  2.0257  1.2417  1.0379
   80SLPC   H2S 7385   5.574   3.992   6.264  0.4406  1.5387 -0.1440
   80SLPC    C3 7386   5.982   4.350   6.298  0.5233  0.1576  0.6672
   80SLPC    HX 7387   6.080   4.298   6.288  2.1285  2.6114  2.3524
   80SLPC    HY 7388   6.008   4.451   6.336  1.4551  1.1754 -2.3693
   80SLPC   O31 7389   5.924   4.370   6.166  0.4006 -0.0202  0.4534
   80SLPC   C31 7390   6.009   4.439   6.086  0.2261 -0.0008 -0.1725
   80SLPC   O32 7391   6.128   4.462   6.112  0.4013 -0.0415 -0.3111
   80SLPC   C32 7392   5.940   4.470   5.945 -0.4757  0.2205  0.2286
   80SLPC   H2X 7393   5.977   4.571   5.919 -1.0661  0.3800 -0.0085
   80SLPC   H2Y 7394   5.832   4.488   5.965 -0.4242 -0.7602  1.5343
   80SLPC   C23 7395   5.733   3.948   6.118  0.3520 -0.2451  0.6612
   80SLPC   H3R 7396   5.686   3.849   6.096 -1.9913  0.5358  1.8418
   80SLPC   H3S 7397   5.844   3.948   6.112  0.2730  0.9256 -2.3526
   80SLPC   C24 7398   5.684   4.043   6.004  0.1519  0.2989  0.5905
   80SLPC   H4R 7399   5.711   4.147   6.033  0.7997  0.4709 -0.5844
   80SLPC   H4S 7400   5.573   4.040   6.005  0.1565  0.1287  0.8253
   80SLPC   C25 7401   5.738   4.006   5.863 -1.1092 -0.1366 -1.4894
   80SLPC   H5R 7402   5.842   4.045   5.856 -0.8586 -0.7144 -1.1217
   80SLPC   H5S 7403   5.686   4.053   5.778 -3.8034 -0.1048  0.0703
   80SLPC   C26 7404   5.749   3.854   5.848 -0.0790  0.6119 -0.5655
   80SLPC   H6R 7405   5.657   3.803   5.886  1.6893 -0.8724  2.0458
   80SLPC   H6S 7406   5.831   3.814   5.911 -1.4959 -0.9681  0.3849
   80SLPC   C27 7407   5.790   3.799   5.708  0.4645 -0.1921 -0.0013
   80SLPC   H7R 7408   5.806   3.689   5.720  1.7672 -0.0278 -0.0826
   80SLPC   H7S 7409   5.890   3.844   5.693 -0.3459  1.4991 -0.6264
   80SLPC   C28 7410   5.695   3.837   5.595  0.1628  0.6666  0.0628
   80SLPC   H8R 7411   5.624   3.910   5.638 -0.1414 -0.1709  1.0203
   80SLPC   H8S 7412   5.634   3.746   5.572  0.0556  0.6468  0.4206
   80SLPC   C29 7413   5.752   3.911   5.478 -0.1496  0.4031  0.3905
   80SLPC   H9R 7414   5.784   4.013   5.505  0.6919  0.4802 -0.8162
   80SLPC  C210 7415   5.755   3.876   5.343 -0.1654  0.6251 -0.0348
   80SLPC  H10R 7416   5.803   3.939   5.267  0.0641 -0.8299 -1.1290
   80SLPC  C211 7417   5.717   3.741   5.290  0.7744 -0.0113 -0.0625
   80SLPC  H11R 7418   5.757   3.665   5.361 -3.3594 -2.0521  0.3655
   80SLPC  H11S 7419   5.767   3.722   5.193  1.2776 -1.2119  0.4092
   80SLPC  C212 7420   5.562   3.720   5.298 -0.2144 -0.2409  0.4160
   80SLPC  H12R 7421   5.513   3.722   5.396 -0.0480 -1.5089  0.5517
   80SLPC  C213 7422   5.490   3.679   5.192 -0.1970  0.0619  0.1498
   80SLPC  H13R 7423   5.381   3.665   5.205  0.1400 -0.0803  3.4835
   80SLPC  C214 7424   5.527   3.655   5.051  0.0404 -0.5844  0.5108
   80SLPC  H14R 7425   5.460   3.597   4.985  0.2225 -0.1718 -0.0496
   80SLPC  H14S 7426   5.617   3.590   5.059  1.6392  1.1424 -2.0211
   80SLPC  C215 7427   5.573   3.770   4.963  0.3634  0.2370 -0.4815
   80SLPC  H15R 7428   5.651   3.826   5.018 -0.2597  1.6026 -0.9529
   80SLPC  H15S 7429   5.489   3.842   4.951  1.4168  1.5324 -0.1780
   80SLPC  C216 7430   5.644   3.727   4.838  0.7835 -0.4722 -0.4068
   80SLPC  H16R 7431   5.572   3.674   4.771  0.7893  0.5212 -1.2084
   80SLPC  H16S 7432   5.723   3.653   4.860  0.6839 -0.7725 -1.0357
   80SLPC  C217 7433   5.699   3.847   4.755  0.3073  0.4464  0.7285
   80SLPC  H17R 7434   5.627   3.932   4.767  0.8871  0.7970  1.8668
   80SLPC  H17S 7435   5.701   3.813   4.649  1.7371 -1.1254  1.2173
   80SLPC  C218 7436   5.839   3.893   4.802  0.1727 -0.1576  0.2860
   80SLPC  H18R 7437   5.889   3.971   4.741  0.6290 -0.7741 -0.1345
   80SLPC  H18S 7438   5.914   3.812   4.800  1.6066  1.1069  0.8039
   80SLPC  H18T 7439   5.837   3.929   4.908 -0.0486  1.0567 -0.1133
   80SLPC   C33 7440   5.943   4.360   5.845 -0.2299 -0.2067  0.0437
   80SLPC   H3X 7441   5.919   4.263   5.894 -2.1030  0.1051 -0.1802
   80SLPC   H3Y 7442   6.052   4.352   5.824  0.0359  4.4022 -1.2434
   80SLPC   C34 7443   5.854   4.385   5.720 -0.3444 -0.0196 -0.2715
   80SLPC   H4X 7444   5.868   4.488   5.679  0.6700 -0.5175 -1.2339
   80SLPC   H4Y 7445   5.747   4.370   5.745 -0.2046 -0.3513  0.1492
   80SLPC   C35 7446   5.891   4.300   5.600  1.0684 -0.1025 -0.0323
   80SLPC   H5X 7447   5.861   4.196   5.627 -0.9139 -0.4509 -2.9720
   80SLPC   H5Y 7448   5.994   4.312   5.559  0.6923  3.7609 -0.1411
   80SLPC   C36 7449   5.799   4.352   5.484 -0.7471  0.3999 -0.1394
   80SLPC   H6X 7450   5.825   4.457   5.459  0.9016 -0.3483 -1.7872
   80SLPC   H6Y 7451   5.694   4.351   5.518 -0.8687  1.0517 -0.4823
   80SLPC   C37 7452   5.808   4.288   5.342  0.0707 -0.3195  0.5232
   80SLPC   H7X 7453   5.777   4.181   5.339  1.3629 -0.7094 -1.1145
   80SLPC   H7Y 7454   5.917   4.298   5.321  0.3084  0.7038  2.1084
   80SLPC   C38 7455   5.733   4.376   5.241 -0.3355 -0.1307  0.3361
   80SLPC   H8X 7456   5.790   4.472   5.240  0.8383 -0.8084  0.5052
   80SLPC   H8Y 7457   5.632   4.397   5.282 -0.7889 -0.9123 -0.3427
   80SLPC   C39 7458   5.703   4.305   5.111 -0.3813  0.9496 -0.6133
   80SLPC   H9X 7459   5.598   4.329   5.083 -0.8668 -0.8213 -0.4320
   80SLPC   H9Y 7460   5.716   4.195   5.122  1.1380  0.8493 -2.8615
   80SLPC  C310 7461   5.802   4.345   4.995  0.0408 -0.6103 -0.6123
   80SLPC  H10X 7462   5.903   4.313   5.029 -0.7918  0.2757  3.1133
   80SLPC  H10Y 7463   5.809   4.456   4.991  2.0470 -0.6763  0.0250
   80SLPC  C311 7464   5.763   4.276   4.868 -0.6316 -0.4172 -0.3181
   80SLPC  H11X 7465   5.662   4.314   4.840 -0.3615  0.9720  0.5085
   80SLPC  H11Y 7466   5.765   4.167   4.892 -1.4487 -0.4758 -0.4862
   80SLPC  C312 7467   5.854   4.307   4.745 -0.2449  0.7209  0.8399
   80SLPC  H12X 7468   5.822   4.238   4.664 -0.7455  2.2585 -0.3268
   80SLPC  H12Y 7469   5.955   4.269   4.770 -1.2410 -2.4095  0.5172
   80SLPC  C313 7470   5.848   4.450   4.691 -0.8546 -0.1382 -0.6283
   80SLPC  H13X 7471   5.918   4.454   4.605 -0.0227  0.9101  0.0747
   80SLPC  H13Y 7472   5.868   4.532   4.763 -1.8510  2.6164 -3.2794
   80SLPC  C314 7473   5.717   4.493   4.624  0.3343 -0.5583  0.2934
   80SLPC  H14X 7474   5.639   4.506   4.702  1.5908 -0.9444  1.6366
   80SLPC  H14Y 7475   5.690   4.419   4.545  1.1940 -2.4112  1.6677
   80SLPC  C315 7476   5.754   4.634   4.565 -0.8662  0.4073  0.3427
   80SLPC  H15X 7477   5.823   4.609   4.482 -1.7316  1.3099 -0.6956
   80SLPC  H15Y 7478   5.813   4.690   4.640 -1.8735  1.4257  0.4051
   80SLPC  C316 7479   5.624   4.707   4.518 -0.8915  0.1423  0.2329
   80SLPC  H16X 7480   5.573   4.747   4.608  0.7030 -0.8502  1.6459
   80SLPC  H16Y 7481   5.548   4.638   4.475 -1.2518  0.9439 -0.4254
   80SLPC  C317 7482   5.647   4.833   4.433  0.0476 -0.1092 -0.6673
   80SLPC  H17X 7483   5.676   4.918   4.498  1.9329  0.4294 -2.1002
   80SLPC  H17Y 7484   5.547   4.852   4.388 -0.0174  3.2400  0.6283
   80SLPC  C318 7485   5.746   4.812   4.320 -0.0680  0.1044  0.5020
   80SLPC  H18X 7486   5.740   4.902   4.254  2.0588 -0.7306 -0.9209
   80SLPC  H18Y 7487   5.717   4.730   4.251  3.2112 -0.2081 -0.6480
   80SLPC  H18Z 7488   5.850   4.799   4.356 -0.1051 -0.3569  0.4531
   81SLPC     N 7489   1.841   1.108   2.311  0.3939  0.3882  0.1561
   81SLPC   C13 7490   1.879   1.042   2.447  0.4575 -0.4001 -0.0342
   81SLPC  H13A 7491   1.844   0.939   2.450 -0.2075 -0.1702  0.3592
   81SLPC  H13B 7492   1.987   1.046   2.448  0.4121  1.7503  0.6377
   81SLPC  H13C 7493   1.845   1.093   2.536  0.1821  0.2234 -0.4937
   81SLPC   C14 7494   1.690   1.111   2.304  0.3296 -0.1727 -0.4721
   81SLPC  H14A 7495   1.657   1.176   2.384 -1.0009 -0.4875 -0.7535
   81SLPC  H14B 7496   1.651   1.160   2.217 -0.7853  1.3644  0.8382
   81SLPC  H14C 7497   1.650   1.011   2.310 -1.5345  0.5021 -1.1986
   81SLPC   C15 7498   1.899   1.029   2.204 -0.1982 -0.3609  0.3192
   81SLPC  H15A 7499   1.898   1.082   2.110  0.5509 -0.5258  0.2136
   81SLPC  H15B 7500   1.999   0.996   2.226 -0.3668 -0.0471  1.6312
   81SLPC  H15C 7501   1.844   0.937   2.196 -0.4241 -0.4689  2.4945
   81SLPC   C12 7502   1.889   1.248   2.298 -0.8308 -0.0391 -0.3015
   81SLPC  H12A 7503   1.871   1.303   2.390  0.7489 -0.4895  0.3148
   81SLPC  H12B 7504   1.834   1.295   2.218 -0.6675  0.1809 -0.2866
   81SLPC   C11 7505   2.043   1.265   2.269 -0.1915  0.1026  0.5532
   81SLPC  H11A 7506   2.067   1.373   2.262 -1.2383  0.2585 -1.5641
   81SLPC  H11B 7507   2.059   1.222   2.168 -2.3245  1.7973 -0.6079
   81SLPC     P 7508   2.157   1.260   2.495  0.2949  0.1231 -0.1791
   81SLPC   O13 7509   2.302   1.292   2.489 -0.6712 -0.0079  0.1991
   81SLPC   O14 7510   2.067   1.375   2.528  0.7294 -0.4392  0.2008
   81SLPC   O12 7511   2.121   1.189   2.355 -0.5064  0.4068  0.4401
   81SLPC   O11 7512   2.141   1.137   2.589 -0.2632 -0.3232 -1.8212
   81SLPC    C1 7513   2.087   1.155   2.720 -0.8591  1.1280 -0.1139
   81SLPC    HA 7514   2.143   1.230   2.779  0.9398  1.9751 -2.7220
   81SLPC    HB 7515   1.980   1.182   2.736 -1.1685 -1.2028  2.4349
   81SLPC    C2 7516   2.112   1.024   2.795 -0.5331 -0.0757 -0.3774
   81SLPC    HS 7517   2.077   0.943   2.727 -0.8566  0.9454 -1.4496
   81SLPC   O21 7518   2.037   1.025   2.918 -0.3491 -0.2636  0.3604
   81SLPC   C21 7519   1.903   1.006   2.909 -0.2079  0.5340  0.1161
   81SLPC   O22 7520   1.838   0.977   2.810 -0.0685  0.4601  0.5867
   81SLPC   C22 7521   1.834   1.003   3.052  0.8770 -0.1342  0.3203
   81SLPC   H2R 7522   1.837   0.894   3.073  1.4639  0.1525  1.8451
   81SLPC   H2S 7523   1.899   1.056   3.125 -1.1823  0.7955  1.5806
   81SLPC    C3 7524   2.268   0.997   2.817  0.5848  0.7322  0.7487
   81SLPC    HX 7525   2.311   1.100   2.817 -2.4274  2.1406 -1.4080
   81SLPC    HY 7526   2.313   0.954   2.725  1.5201 -0.2526  1.6416
   81SLPC   O31 7527   2.309   0.926   2.930  0.0398  0.4357  0.1134
   81SLPC   C31 7528   2.278   0.796   2.923  0.4392  0.2600 -0.2074
   81SLPC   O32 7529   2.246   0.735   2.820 -0.1367  0.2864 -0.4153
   81SLPC   C32 7530   2.282   0.738   3.067  0.4860 -1.0377  0.5029
   81SLPC   H2X 7531   2.389   0.733   3.095  1.1805 -0.5843 -1.8729
   81SLPC   H2Y 7532   2.239   0.636   3.055  0.3181 -0.8016 -1.0920
   81SLPC   C23 7533   1.691   1.069   3.055  0.2793 -0.1911  0.1176
   81SLPC   H3R 7534   1.664   1.092   3.160 -1.4030  2.0395 -0.7387
   81SLPC   H3S 7535   1.628   0.991   3.007 -0.3806 -0.3596  1.2210
   81SLPC   C24 7536   1.681   1.203   2.990 -0.5474 -0.0128  1.0284
   81SLPC   H4R 7537   1.578   1.241   3.004 -0.9936 -1.2723  1.2733
   81SLPC   H4S 7538   1.700   1.186   2.882 -0.8235 -0.7991  1.1011
   81SLPC   C25 7539   1.789   1.313   3.034  0.1180  0.3895 -1.0207
   81SLPC   H5R 7540   1.889   1.274   3.008 -0.4493 -1.8900 -0.0338
   81SLPC   H5S 7541   1.774   1.334   3.142 -0.5193 -0.6408 -0.8942
   81SLPC   C26 7542   1.771   1.444   2.957  1.1842  0.0631  0.4008
   81SLPC   H6R 7543   1.702   1.516   3.007  0.8396  0.9234 -1.2377
   81SLPC   H6S 7544   1.727   1.420   2.858  2.1417  1.0418 -0.2879
   81SLPC   C27 7545   1.898   1.523   2.933 -0.5267 -0.5313  0.3840
   81SLPC   H7R 7546   1.874   1.599   2.855 -0.4643 -1.4127 -0.5092
   81SLPC   H7S 7547   1.976   1.458   2.887  2.0722  2.1274  0.7440
   81SLPC   C28 7548   1.968   1.583   3.061  0.3445 -0.1471  0.5251
   81SLPC   H8R 7549   2.068   1.622   3.033  0.4070 -0.4241  0.3623
   81SLPC   H8S 7550   1.979   1.501   3.136 -1.5585 -1.1507 -0.2423
   81SLPC   C29 7551   1.891   1.701   3.121 -1.1305 -0.0105  0.7918
   81SLPC   H9R 7552   1.892   1.789   3.054  2.4793  0.5656  1.4011
   81SLPC  C210 7553   1.834   1.705   3.239  0.0892  0.0686 -0.5873
   81SLPC  H10R 7554   1.785   1.800   3.263 -2.2564 -1.3329  0.4579
   81SLPC  C211 7555   1.824   1.608   3.356 -0.1356 -0.3063  0.1238
   81SLPC  H11R 7556   1.864   1.508   3.328  0.9743  0.2180 -0.2213
   81SLPC  H11S 7557   1.716   1.590   3.375  0.1877 -0.1823  2.3917
   81SLPC  C212 7558   1.879   1.667   3.488 -0.1963  0.1652 -0.1753
   81SLPC  H12R 7559   1.923   1.767   3.485  1.6631 -0.6292 -0.6037
   81SLPC  C213 7560   1.850   1.626   3.611 -0.1828 -0.0167  0.8203
   81SLPC  H13R 7561   1.912   1.674   3.689  2.7284  0.9634 -1.9119
   81SLPC  C214 7562   1.759   1.501   3.647  0.4448 -0.0866 -0.0334
   81SLPC  H14R 7563   1.793   1.451   3.740 -1.4681 -2.2590 -0.4156
   81SLPC  H14S 7564   1.761   1.419   3.572 -1.1811  0.1439 -0.3462
   81SLPC  C215 7565   1.615   1.553   3.678  0.0309 -0.2507 -0.5379
   81SLPC  H15R 7566   1.559   1.597   3.593 -0.3875  0.9214  0.3082
   81SLPC  H15S 7567   1.626   1.637   3.750 -1.2679 -1.8869  1.6843
   81SLPC  C216 7568   1.529   1.454   3.751 -0.4681  0.1895 -1.1707
   81SLPC  H16R 7569   1.580   1.419   3.844  2.3382 -0.5039 -2.8787
   81SLPC  H16S 7570   1.517   1.370   3.679  1.7154  1.6717 -3.4281
   81SLPC  C217 7571   1.399   1.517   3.800  0.7728  0.0511  0.3120
   81SLPC  H17R 7572   1.333   1.436   3.838 -0.4875  0.7170 -0.3894
   81SLPC  H17S 7573   1.342   1.555   3.713  2.0812  2.3487  0.3962
   81SLPC  C218 7574   1.390   1.621   3.907  0.5742  0.5612  0.3689
   81SLPC  H18R 7575   1.442   1.593   4.001 -0.8977  3.8832  2.3389
   81SLPC  H18S 7576   1.285   1.639   3.936 -0.3533  0.0667 -2.3231
   81SLPC  H18T 7577   1.429   1.722   3.880  0.0560  0.7895  0.4663
   81SLPC   C33 7578   2.190   0.823   3.163  0.1445  0.1653  0.1418
   81SLPC   H3X 7579   2.091   0.814   3.113  1.1116 -0.5971 -1.7449
   81SLPC   H3Y 7580   2.218   0.930   3.159 -3.1271  1.1035 -0.0234
   81SLPC   C34 7581   2.205   0.765   3.301 -0.1559 -0.6477 -0.2645
   81SLPC   H4X 7582   2.305   0.783   3.346 -0.8020  1.6186  0.3840
   81SLPC   H4Y 7583   2.182   0.657   3.313  2.8712 -1.5743 -1.8199
   81SLPC   C35 7584   2.111   0.842   3.395  0.8853  0.9812 -0.1502
   81SLPC   H5X 7585   2.011   0.833   3.348  0.0159 -2.1814  2.0048
   81SLPC   H5Y 7586   2.137   0.950   3.395  0.8669  0.9996  1.0527
   81SLPC   C36 7587   2.098   0.790   3.537  0.0474  0.1556  0.0955
   81SLPC   H6X 7588   2.063   0.686   3.523  0.2623  0.1787 -0.6667
   81SLPC   H6Y 7589   2.025   0.843   3.601  0.1327 -1.4785  1.6159
   81SLPC   C37 7590   2.227   0.790   3.629 -0.3949 -0.3726  0.3028
   81SLPC   H7X 7591   2.193   0.799   3.735  1.1537  0.6951  0.7513
   81SLPC   H7Y 7592   2.286   0.883   3.615 -2.5804  0.7583 -2.2703
   81SLPC   C38 7593   2.323   0.666   3.620 -0.5185  0.3757 -0.0149
   81SLPC   H8X 7594   2.402   0.689   3.546  0.3346 -0.5940  0.5674
   81SLPC   H8Y 7595   2.275   0.572   3.585  1.5439 -0.6911 -0.0974
   81SLPC   C39 7596   2.376   0.618   3.756 -0.2530 -0.9883  0.0150
   81SLPC   H9X 7597   2.285   0.601   3.818 -0.2596  2.4542  1.1342
   81SLPC   H9Y 7598   2.433   0.699   3.806  0.2050 -1.4413  0.2447
   81SLPC  C310 7599   2.461   0.497   3.753 -0.4607 -0.1019  0.2440
   81SLPC  H10X 7600   2.417   0.414   3.695 -0.1279 -0.6338  0.7336
   81SLPC  H10Y 7601   2.459   0.456   3.856  0.4826  0.9973  0.7352
   81SLPC  C311 7602   2.612   0.512   3.702  0.3352 -0.4062 -0.4632
   81SLPC  H11X 7603   2.647   0.601   3.758 -5.0474  2.1835 -0.6057
   81SLPC  H11Y 7604   2.616   0.529   3.592  1.0646  2.2986 -0.0969
   81SLPC  C312 7605   2.705   0.395   3.728 -0.4583 -0.3237  0.4467
   81SLPC  H12X 7606   2.646   0.305   3.698 -2.2920  0.9460  0.0546
   81SLPC  H12Y 7607   2.715   0.368   3.835  1.5373  0.1864  0.4265
   81SLPC  C313 7608   2.845   0.406   3.665 -0.0772  0.0946  0.2977
   81SLPC  H13X 7609   2.841   0.385   3.556  0.7022 -0.3315  0.3468
   81SLPC  H13Y 7610   2.894   0.323   3.721 -1.0128  0.1064  1.1636
   81SLPC  C314 7611   2.919   0.537   3.675 -0.7221 -0.2259 -0.2589
   81SLPC  H14X 7612   2.918   0.569   3.781 -0.9489  1.9316 -0.8676
   81SLPC  H14Y 7613   2.866   0.614   3.615  0.9085  0.0029 -1.4487
   81SLPC  C315 7614   3.059   0.516   3.625 -0.0385  0.1361  0.3259
   81SLPC  H15X 7615   3.051   0.486   3.518  1.1645  0.9207 -0.0100
   81SLPC  H15Y 7616   3.108   0.436   3.684  0.7413  0.1746 -0.2418
   81SLPC  C316 7617   3.129   0.658   3.612 -0.4639  0.3701  0.0061
   81SLPC  H16X 7618   3.184   0.700   3.698 -1.1278  0.5351  0.3600
   81SLPC  H16Y 7619   3.058   0.737   3.578 -0.3541  1.5384  2.3112
   81SLPC  C317 7620   3.232   0.656   3.492  0.7400 -0.6716 -0.5656
   81SLPC  H17X 7621   3.314   0.584   3.508  2.1978  0.9761 -0.2559
   81SLPC  H17Y 7622   3.285   0.754   3.483  0.5098 -0.6965 -2.7496
   81SLPC  C318 7623   3.167   0.649   3.345  0.2039 -0.2959 -0.8941
   81SLPC  H18X 7624   3.101   0.736   3.322 -2.0462 -2.3991 -2.9911
   81SLPC  H18Y 7625   3.117   0.552   3.329 -0.7724  0.3576 -1.9604
   81SLPC  H18Z 7626   3.251   0.661   3.272  1.0247 -3.8157 -0.6897
   82SLPC     N 7627   2.861   1.358   2.142 -0.4821 -0.0525  0.4827
   82SLPC   C13 7628   2.787   1.226   2.158 -0.2894  0.4851  0.8041
   82SLPC  H13A 7629   2.788   1.161   2.072  1.5759  1.5095  0.0010
   82SLPC  H13B 7630   2.825   1.169   2.242  0.4354 -1.9152 -1.0383
   82SLPC  H13C 7631   2.687   1.255   2.189  0.2439  2.8858  0.4370
   82SLPC   C14 7632   2.822   1.430   2.015  0.2632 -0.2978 -0.0718
   82SLPC  H14A 7633   2.850   1.398   1.915 -0.8662  0.6882 -0.7372
   82SLPC  H14B 7634   2.717   1.453   2.008  0.0376 -1.2268  0.1181
   82SLPC  H14C 7635   2.857   1.532   2.012  1.6472 -0.7742 -1.4338
   82SLPC   C15 7636   3.011   1.344   2.149  0.0815  0.3157 -0.2737
   82SLPC  H15A 7637   3.038   1.291   2.240  0.8230  2.4372  0.8178
   82SLPC  H15B 7638   3.050   1.296   2.060  1.6334 -0.6567  0.8808
   82SLPC  H15C 7639   3.061   1.440   2.149  2.5891 -0.8732 -1.9241
   82SLPC   C12 7640   2.806   1.442   2.261 -0.1763  0.1607 -0.1974
   82SLPC  H12A 7641   2.702   1.416   2.278  0.1552  0.1519  2.1667
   82SLPC  H12B 7642   2.818   1.545   2.233 -0.4266  0.4922  0.8541
   82SLPC   C11 7643   2.885   1.425   2.394  0.3453  0.4613  0.7123
   82SLPC  H11A 7644   2.881   1.317   2.418 -1.1635 -0.3486 -2.6380
   82SLPC  H11B 7645   2.831   1.473   2.479 -0.0378  1.5411 -0.1117
   82SLPC     P 7646   3.051   1.639   2.395  0.1184 -0.0208  0.0760
   82SLPC   O13 7647   3.190   1.656   2.349 -0.2102 -0.6246 -0.8223
   82SLPC   O14 7648   2.949   1.712   2.320  0.3723 -0.7656 -0.1308
   82SLPC   O12 7649   3.021   1.480   2.389  0.2524 -0.1750  0.3283
   82SLPC   O11 7650   3.029   1.672   2.546  0.3925 -0.2818  0.6539
   82SLPC    C1 7651   3.069   1.585   2.655  0.0744  0.0507  0.2002
   82SLPC    HA 7652   2.988   1.511   2.671  0.8097 -0.3224  2.6479
   82SLPC    HB 7653   3.157   1.522   2.629  0.5568  0.3168  1.1369
   82SLPC    C2 7654   3.106   1.659   2.784  0.2602  0.1021 -0.2353
   82SLPC    HS 7655   3.017   1.713   2.822  0.4490  0.0642  0.2600
   82SLPC   O21 7656   3.220   1.739   2.767 -0.0790 -0.0195  0.4695
   82SLPC   C21 7657   3.216   1.865   2.798 -0.6079  0.4189  0.2813
   82SLPC   O22 7658   3.120   1.928   2.838 -0.2971  0.1614  0.0760
   82SLPC   C22 7659   3.350   1.929   2.746  0.9439 -0.1801 -0.0763
   82SLPC   H2R 7660   3.360   1.923   2.635  1.9227 -0.0913 -0.0029
   82SLPC   H2S 7661   3.334   2.036   2.771  4.4654  0.3220  0.5585
   82SLPC    C3 7662   3.141   1.558   2.893  0.8728  0.8532 -0.2649
   82SLPC    HX 7663   3.227   1.496   2.860 -0.9218 -3.0862  1.8487
   82SLPC    HY 7664   3.058   1.487   2.911 -0.7559  2.3202 -1.6443
   82SLPC   O31 7665   3.175   1.636   3.013 -0.3413 -0.3856 -0.2497
   82SLPC   C31 7666   3.082   1.661   3.104  0.1785 -0.6595  0.7759
   82SLPC   O32 7667   2.962   1.629   3.088  0.0523 -0.2092 -0.4483
   82SLPC   C32 7668   3.146   1.717   3.235  0.2740  0.0987  0.6478
   82SLPC   H2X 7669   3.136   1.827   3.222 -0.0231  0.0162  0.1528
   82SLPC   H2Y 7670   3.254   1.694   3.228 -0.0151 -0.9906 -0.6895
   82SLPC   C23 7671   3.471   1.866   2.812  0.1036 -1.0439  0.1974
   82SLPC   H3R 7672   3.557   1.923   2.772 -0.8691  0.2162 -0.1545
   82SLPC   H3S 7673   3.485   1.759   2.785  0.2516 -1.3272  1.3115
   82SLPC   C24 7674   3.450   1.873   2.964 -0.8992 -0.4663 -0.6267
   82SLPC   H4R 7675   3.367   1.811   3.002  0.5449 -1.9436  0.2403
   82SLPC   H4S 7676   3.446   1.980   2.993  0.0060 -0.1294 -1.6513
   82SLPC   C25 7677   3.574   1.818   3.028  0.1621  0.8425  0.1831
   82SLPC   H5R 7678   3.653   1.892   3.002  0.3562  1.2907  1.9337
   82SLPC   H5S 7679   3.599   1.715   2.996 -1.2043  0.6793 -0.4211
   82SLPC   C26 7680   3.554   1.821   3.183  1.1110 -0.8566  0.3073
   82SLPC   H6R 7681   3.473   1.750   3.211  0.3614 -0.3905 -0.6367
   82SLPC   H6S 7682   3.528   1.924   3.215  0.3085 -0.7893 -0.5362
   82SLPC   C27 7683   3.692   1.786   3.244  0.2551  0.4042  0.0100
   82SLPC   H7R 7684   3.763   1.862   3.205  3.0303 -2.3914 -0.7626
   82SLPC   H7S 7685   3.719   1.685   3.207 -0.7797 -0.8127  2.3813
   82SLPC   C28 7686   3.690   1.790   3.398  0.0377 -0.7030  0.1892
   82SLPC   H8R 7687   3.620   1.713   3.436 -2.2300  1.7074  1.2282
   82SLPC   H8S 7688   3.643   1.884   3.434 -3.1587 -0.9229 -2.8082
   82SLPC   C29 7689   3.832   1.779   3.435 -0.3799  0.2399  0.9170
   82SLPC   H9R 7690   3.900   1.826   3.363 -3.1090 -0.3109 -2.2418
   82SLPC  C210 7691   3.887   1.701   3.531  0.2477  0.0337 -0.1697
   82SLPC  H10R 7692   3.996   1.697   3.540  0.1161 -1.2729  1.1481
   82SLPC  C211 7693   3.818   1.615   3.633  0.0211  0.7134  0.3133
   82SLPC  H11R 7694   3.887   1.538   3.676 -2.5198 -2.6206 -1.0828
   82SLPC  H11S 7695   3.739   1.553   3.585 -0.9261  1.0428  1.4056
   82SLPC  C212 7696   3.756   1.702   3.744  0.1499 -0.5327  0.2177
   82SLPC  H12R 7697   3.702   1.793   3.713  2.4539  0.5390 -0.9337
   82SLPC  C213 7698   3.751   1.671   3.874 -0.3200 -0.0518 -0.3429
   82SLPC  H13R 7699   3.716   1.743   3.950  1.1801  1.5462 -1.0847
   82SLPC  C214 7700   3.812   1.545   3.929 -0.0566 -0.5899  0.3841
   82SLPC  H14R 7701   3.841   1.470   3.854 -0.6496  0.6149 -1.1041
   82SLPC  H14S 7702   3.744   1.491   3.999 -0.5571 -0.4888 -0.0162
   82SLPC  C215 7703   3.935   1.573   4.020  0.4839  0.0235 -0.7029
   82SLPC  H15R 7704   3.915   1.670   4.071 -1.6435 -0.0513 -1.2767
   82SLPC  H15S 7705   4.022   1.591   3.954  0.4096 -0.8734 -1.0592
   82SLPC  C216 7706   3.949   1.472   4.137  0.4894  0.4645  0.1965
   82SLPC  H16R 7707   3.952   1.370   4.095 -1.1281 -0.3062  1.7949
   82SLPC  H16S 7708   3.859   1.468   4.203  0.7846 -1.2646  0.5346
   82SLPC  C217 7709   4.064   1.507   4.230  0.5336 -0.5767 -0.4081
   82SLPC  H17R 7710   4.158   1.509   4.172 -0.4104 -2.8581 -2.1991
   82SLPC  H17S 7711   4.079   1.424   4.302  0.3680 -0.1836  0.0851
   82SLPC  C218 7712   4.046   1.639   4.301 -0.6104 -0.0069  0.2793
   82SLPC  H18R 7713   4.133   1.652   4.369 -0.0519 -1.1467 -0.1977
   82SLPC  H18S 7714   3.956   1.631   4.365 -0.9720 -0.0630 -0.2296
   82SLPC  H18T 7715   4.045   1.727   4.232  1.7978 -0.4950 -0.4478
   82SLPC   C33 7716   3.082   1.666   3.369  0.9167  0.4339  0.0669
   82SLPC   H3X 7717   3.089   1.555   3.370  1.0971  0.4454  0.1898
   82SLPC   H3Y 7718   2.978   1.704   3.368  1.6553  2.8044  2.1093
   82SLPC   C34 7719   3.169   1.722   3.485 -0.3530  0.2615  0.2904
   82SLPC   H4X 7720   3.166   1.832   3.478 -0.6905  0.2539  0.3289
   82SLPC   H4Y 7721   3.273   1.687   3.465 -0.7507  0.0262 -1.6347
   82SLPC   C35 7722   3.123   1.682   3.630  0.5614 -0.6388  0.6708
   82SLPC   H5X 7723   3.214   1.702   3.692  0.5988  0.2988  0.3266
   82SLPC   H5Y 7724   3.122   1.572   3.621  1.4534 -0.4901 -2.5760
   82SLPC   C36 7725   2.993   1.732   3.690 -0.1057 -0.3071 -0.2581
   82SLPC   H6X 7726   2.907   1.687   3.636 -0.0775 -0.7185  0.0330
   82SLPC   H6Y 7727   2.982   1.840   3.666  0.5701 -0.4073 -1.0626
   82SLPC   C37 7728   2.982   1.706   3.838  0.4657  0.7363  0.0196
   82SLPC   H7X 7729   2.878   1.733   3.868  1.0611  0.1449  2.8663
   82SLPC   H7Y 7730   3.052   1.766   3.900  1.8084  0.3653 -1.0838
   82SLPC   C38 7731   2.981   1.557   3.875 -0.0093  0.0348  0.7039
   82SLPC   H8X 7732   3.082   1.512   3.865 -0.2144 -0.0910 -1.1626
   82SLPC   H8Y 7733   2.912   1.500   3.808  0.2749  0.5161 -0.0083
   82SLPC   C39 7734   2.947   1.542   4.020 -0.0200 -0.7790 -0.7020
   82SLPC   H9X 7735   2.839   1.559   4.039 -1.0428 -1.7902 -4.6763
   82SLPC   H9Y 7736   3.009   1.611   4.081 -1.4643 -0.3162  0.3107
   82SLPC  C310 7737   2.972   1.402   4.068  0.3805  0.9633 -0.5711
   82SLPC  H10X 7738   3.074   1.373   4.036  0.0139  0.4318 -1.2933
   82SLPC  H10Y 7739   2.898   1.341   4.012  0.2434  1.0059 -0.4352
   82SLPC  C311 7740   2.948   1.389   4.227  0.2293 -0.1790  0.0416
   82SLPC  H11X 7741   2.944   1.279   4.239 -1.0023 -0.2376 -0.7095
   82SLPC  H11Y 7742   2.843   1.421   4.242  0.2754 -0.6974  1.5584
   82SLPC  C312 7743   3.049   1.463   4.316 -0.3352  0.2359  0.4156
   82SLPC  H12X 7744   3.066   1.566   4.280  1.5438 -0.2696 -0.2480
   82SLPC  H12Y 7745   3.144   1.407   4.329 -0.9705 -0.4617  2.4949
   82SLPC  C313 7746   2.984   1.465   4.457 -0.2904 -0.0483 -0.1475
   82SLPC  H13X 7747   2.969   1.361   4.492 -2.2728  0.1387 -0.3359
   82SLPC  H13Y 7748   2.877   1.489   4.439 -0.1079  1.6384  0.8204
   82SLPC  C314 7749   3.040   1.548   4.579 -0.3434 -0.3867 -0.2825
   82SLPC  H14X 7750   2.961   1.553   4.657 -0.3835 -0.3234 -0.3278
   82SLPC  H14Y 7751   3.067   1.653   4.555  0.0496  0.0541  1.8296
   82SLPC  C315 7752   3.151   1.466   4.649  0.3971  0.2897  0.4794
   82SLPC  H15X 7753   3.236   1.462   4.577  0.2536 -2.6289  0.3675
   82SLPC  H15Y 7754   3.112   1.367   4.679  2.3040 -0.7301 -0.2284
   82SLPC  C316 7755   3.201   1.541   4.774 -0.5578  0.2161 -0.3171
   82SLPC  H16X 7756   3.226   1.646   4.748 -0.4991  0.1953 -0.3450
   82SLPC  H16Y 7757   3.295   1.485   4.795 -0.8955 -0.2752 -0.0955
   82SLPC  C317 7758   3.118   1.513   4.905  0.0535 -0.1560 -0.2520
   82SLPC  H17X 7759   3.114   1.402   4.912 -0.1081 -0.3229 -2.3337
   82SLPC  H17Y 7760   3.013   1.547   4.891 -0.3367 -1.3877 -0.4614
   82SLPC  C318 7761   3.174   1.574   5.034 -0.1945  0.8179  0.0498
   82SLPC  H18X 7762   3.102   1.568   5.118  1.1665 -2.3448  1.1029
   82SLPC  H18Y 7763   3.208   1.680   5.024  0.3236  0.6501  0.0296
   82SLPC  H18Z 7764   3.270   1.530   5.066 -1.1966 -2.8819 -1.5465
   83SLPC     N 7765   6.140   6.101   1.869  0.0920 -0.0638  0.7109
   83SLPC   C13 7766   6.012   6.028   1.836 -0.0675 -0.3748 -0.1767
   83SLPC  H13A 7767   5.963   6.001   1.929 -0.0510  1.8564  0.5604
   83SLPC  H13B 7768   5.928   6.094   1.819  0.2703 -0.2111 -1.2226
   83SLPC  H13C 7769   6.008   5.954   1.758 -2.1587  0.0616 -0.5592
   83SLPC   C14 7770   6.196   6.137   1.733  0.2371 -0.6265 -0.1250
   83SLPC  H14A 7771   6.232   6.045   1.691  1.4589 -0.7704  1.1567
   83SLPC  H14B 7772   6.129   6.193   1.669  0.0364  3.0512  2.8883
   83SLPC  H14C 7773   6.281   6.203   1.749  1.1092 -1.2652 -1.9336
   83SLPC   C15 7774   6.236   6.007   1.931 -0.3205  0.2963 -0.1917
   83SLPC  H15A 7775   6.187   5.974   2.022 -1.1101 -1.5003 -1.2235
   83SLPC  H15B 7776   6.254   5.921   1.869  3.0969 -0.6310  1.8191
   83SLPC  H15C 7777   6.332   6.052   1.950 -0.9315  1.9683 -0.9163
   83SLPC   C12 7778   6.130   6.228   1.957  0.3340 -0.2488  0.8619
   83SLPC  H12A 7779   6.226   6.274   1.974 -0.7387  2.9053 -0.7419
   83SLPC  H12B 7780   6.102   6.196   2.056  0.0030 -0.3733  0.7293
   83SLPC   C11 7781   6.034   6.341   1.917 -0.1178  0.5285  0.6128
   83SLPC  H11A 7782   6.070   6.383   1.821 -1.5872  0.2874 -0.0699
   83SLPC  H11B 7783   6.043   6.426   1.988  0.6625  0.1522  0.9723
   83SLPC     P 7784   5.774   6.310   1.980  0.3220 -0.2906 -0.0765
   83SLPC   O13 7785   5.740   6.448   1.999  0.0547 -0.3501  0.0059
   83SLPC   O14 7786   5.666   6.221   1.932 -0.0079 -0.9184  0.8777
   83SLPC   O12 7787   5.898   6.307   1.884  0.2164  0.2880 -0.1608
   83SLPC   O11 7788   5.835   6.253   2.111  0.1244 -0.2160 -0.7158
   83SLPC    C1 7789   5.763   6.170   2.210  0.6258  0.0873 -0.0602
   83SLPC    HA 7790   5.652   6.180   2.207  0.6217 -0.2266 -2.1744
   83SLPC    HB 7791   5.798   6.065   2.203 -0.0854 -0.1312 -0.4010
   83SLPC    C2 7792   5.793   6.215   2.353  0.4194  0.5573  0.0000
   83SLPC    HS 7793   5.755   6.139   2.425  0.2377 -0.4652 -1.1361
   83SLPC   O21 7794   5.745   6.351   2.375 -0.4459  0.0929 -0.4779
   83SLPC   C21 7795   5.620   6.343   2.425  0.0910 -0.3081  0.3660
   83SLPC   O22 7796   5.552   6.240   2.433  0.0044 -0.4754 -0.0030
   83SLPC   C22 7797   5.563   6.482   2.462  0.2658 -0.0202 -0.9854
   83SLPC   H2R 7798   5.651   6.549   2.458  0.9087 -0.8827 -2.1072
   83SLPC   H2S 7799   5.489   6.512   2.385  0.8877 -0.1890 -1.6595
   83SLPC    C3 7800   5.943   6.227   2.368 -0.1876  0.3183 -0.0264
   83SLPC    HX 7801   5.990   6.280   2.282  0.0857  1.2310  0.6714
   83SLPC    HY 7802   5.986   6.124   2.359  0.7180  0.5923  0.9791
   83SLPC   O31 7803   5.983   6.281   2.493 -0.3514  0.0265  0.3435
   83SLPC   C31 7804   5.993   6.415   2.500 -0.0103 -0.2094 -0.0061
   83SLPC   O32 7805   5.964   6.494   2.413  0.6256 -0.2791 -0.5407
   83SLPC   C32 7806   6.067   6.465   2.626  0.1604 -0.6036  0.3718
   83SLPC   H2X 7807   6.170   6.470   2.583 -0.3846 -0.2600 -0.9368
   83SLPC   H2Y 7808   6.057   6.395   2.711  0.7015  0.0389  0.9779
   83SLPC   C23 7809   5.487   6.480   2.603 -0.0591  0.3084  0.9951
   83SLPC   H3R 7810   5.401   6.414   2.580  0.8489 -0.9111  1.0373
   83SLPC   H3S 7811   5.444   6.579   2.628  0.5558  1.5199 -2.2010
   83SLPC   C24 7812   5.553   6.409   2.716 -0.3088 -0.1158  0.0010
   83SLPC   H4R 7813   5.592   6.309   2.687 -1.9865 -0.0826 -2.6763
   83SLPC   H4S 7814   5.472   6.395   2.792 -1.2300  1.8679 -0.5488
   83SLPC   C25 7815   5.668   6.485   2.774  0.3691  0.2916  0.2153
   83SLPC   H5R 7816   5.642   6.593   2.767 -0.0806  0.1706  0.0285
   83SLPC   H5S 7817   5.744   6.450   2.701 -1.1363 -0.9394 -0.8081
   83SLPC   C26 7818   5.709   6.448   2.907 -0.3148 -1.1081 -0.0003
   83SLPC   H6R 7819   5.809   6.492   2.925 -0.4509 -0.8066  0.0188
   83SLPC   H6S 7820   5.741   6.342   2.912  0.1070 -0.9768  0.1394
   83SLPC   C27 7821   5.626   6.472   3.028 -0.5271  0.2803 -0.1321
   83SLPC   H7R 7822   5.524   6.430   3.018  0.4320 -1.7907 -2.0248
   83SLPC   H7S 7823   5.625   6.583   3.040  2.1134  0.4999 -1.2143
   83SLPC   C28 7824   5.682   6.397   3.157  1.0068  0.4651 -0.1822
   83SLPC   H8R 7825   5.703   6.292   3.127 -1.7241 -1.0006  2.3991
   83SLPC   H8S 7826   5.609   6.395   3.241  0.7710  0.6876 -0.3802
   83SLPC   C29 7827   5.808   6.453   3.221 -0.0437  0.2693  0.1365
   83SLPC   H9R 7828   5.879   6.500   3.151  0.5368  0.5522  0.9042
   83SLPC  C210 7829   5.843   6.428   3.347 -0.2554  0.1120 -0.4282
   83SLPC  H10R 7830   5.938   6.469   3.384  0.3246 -0.3430 -1.3716
   83SLPC  C211 7831   5.756   6.375   3.461 -0.4107  0.4096  0.0243
   83SLPC  H11R 7832   5.823   6.333   3.539 -2.1077 -0.4498  1.0919
   83SLPC  H11S 7833   5.696   6.288   3.426 -0.3749  0.1375  0.6325
   83SLPC  C212 7834   5.664   6.484   3.515 -0.2373  0.4863 -0.9994
   83SLPC  H12R 7835   5.580   6.513   3.450 -0.8279  0.5910 -0.1969
   83SLPC  C213 7836   5.677   6.561   3.623 -0.4305  0.0001  0.0725
   83SLPC  H13R 7837   5.593   6.628   3.648  0.2128  1.1136 -0.6771
   83SLPC  C214 7838   5.786   6.556   3.726 -0.4373  1.0748 -0.2007
   83SLPC  H14R 7839   5.862   6.635   3.710  1.0273 -0.4105 -0.8305
   83SLPC  H14S 7840   5.843   6.462   3.715  1.0621  1.9569 -0.2070
   83SLPC  C215 7841   5.759   6.555   3.874 -0.7906  0.5227 -0.2031
   83SLPC  H15R 7842   5.852   6.531   3.931  0.0919  1.4411 -1.1984
   83SLPC  H15S 7843   5.693   6.473   3.907  2.2493 -1.1031  2.4306
   83SLPC  C216 7844   5.714   6.690   3.932  0.5040  0.0851  0.1760
   83SLPC  H16R 7845   5.641   6.735   3.861  0.4775  0.9303  0.7144
   83SLPC  H16S 7846   5.806   6.754   3.931  1.5222 -1.2222 -3.0988
   83SLPC  C217 7847   5.660   6.690   4.078  0.4830  0.5162 -0.3597
   83SLPC  H17R 7848   5.667   6.794   4.115 -2.5475  0.2768  1.2098
   83SLPC  H17S 7849   5.725   6.630   4.145 -1.9198 -0.8437  0.8801
   83SLPC  C218 7850   5.511   6.642   4.082  0.2718 -0.2732 -0.5438
   83SLPC  H18R 7851   5.497   6.590   4.179  0.7258  1.7547  0.6635
   83SLPC  H18S 7852   5.482   6.575   3.998 -0.4705 -1.3061  0.4971
   83SLPC  H18T 7853   5.452   6.735   4.071  0.4181 -0.1632 -0.4010
   83SLPC   C33 7854   6.026   6.607   2.679 -0.4835  0.2297 -0.2872
   83SLPC   H3X 7855   5.926   6.597   2.727 -0.8810 -0.7148 -1.2911
   83SLPC   H3Y 7856   6.027   6.684   2.598 -0.8705 -0.0445 -0.5575
   83SLPC   C34 7857   6.119   6.673   2.787  0.2844  0.4485  0.1997
   83SLPC   H4X 7858   6.083   6.775   2.811  0.2828  0.0706  1.8907
   83SLPC   H4Y 7859   6.220   6.676   2.739  1.1888  1.4534  2.0394
   83SLPC   C35 7860   6.113   6.587   2.915 -0.0480  0.0109  0.0036
   83SLPC   H5X 7861   6.143   6.481   2.903 -0.7371 -0.5751  2.8887
   83SLPC   H5Y 7862   6.004   6.587   2.933 -0.0588 -0.3770 -0.0557
   83SLPC   C36 7863   6.193   6.656   3.033  0.2726  0.8969  0.1651
   83SLPC   H6X 7864   6.174   6.765   3.038  0.0179  0.8535  0.1579
   83SLPC   H6Y 7865   6.299   6.640   3.004 -0.2309 -0.0804 -1.2802
   83SLPC   C37 7866   6.172   6.588   3.165 -0.2657  0.7752  0.1750
   83SLPC   H7X 7867   6.204   6.483   3.149  0.8859  1.2502 -0.7785
   83SLPC   H7Y 7868   6.063   6.599   3.183  0.3959  2.3662  3.9369
   83SLPC   C38 7869   6.242   6.658   3.279 -0.0418  0.3268  0.5592
   83SLPC   H8X 7870   6.200   6.760   3.294 -1.7822 -0.0381 -1.3855
   83SLPC   H8Y 7871   6.351   6.666   3.261 -0.0099  0.3505  0.7589
   83SLPC   C39 7872   6.214   6.602   3.419  0.2170  0.5513 -0.2675
   83SLPC   H9X 7873   6.243   6.494   3.421  0.3060  0.5796 -0.0463
   83SLPC   H9Y 7874   6.104   6.612   3.430 -0.0080 -0.1730 -1.5771
   83SLPC  C310 7875   6.276   6.678   3.531 -0.5310  0.1589 -0.3870
   83SLPC  H10X 7876   6.216   6.769   3.550 -3.0762 -1.7137  1.1461
   83SLPC  H10Y 7877   6.384   6.695   3.508  0.3213 -1.5624  1.8833
   83SLPC  C311 7878   6.277   6.602   3.668 -0.6262 -0.1188  0.2867
   83SLPC  H11X 7879   6.300   6.686   3.737  1.4005  1.0098 -1.6431
   83SLPC  H11Y 7880   6.358   6.526   3.670 -1.8200 -1.4578 -0.6456
   83SLPC  C312 7881   6.145   6.542   3.709 -0.1164  0.6283 -0.5957
   83SLPC  H12X 7882   6.106   6.479   3.626 -2.3043  0.8857  0.1907
   83SLPC  H12Y 7883   6.072   6.626   3.702 -2.4479 -1.1515  1.1486
   83SLPC  C313 7884   6.139   6.472   3.842  0.9456  0.2190 -0.1434
   83SLPC  H13X 7885   6.218   6.394   3.847  0.8887  0.1168 -0.8152
   83SLPC  H13Y 7886   6.042   6.419   3.849  0.5474  0.9237 -0.2280
   83SLPC  C314 7887   6.144   6.554   3.968  0.0633 -0.1539 -0.7709
   83SLPC  H14X 7888   6.089   6.511   4.054  1.9605 -0.8159  0.1640
   83SLPC  H14Y 7889   6.089   6.648   3.948  0.6707  0.0428 -1.5650
   83SLPC  C315 7890   6.280   6.607   4.006  0.5586 -0.6711  0.2462
   83SLPC  H15X 7891   6.298   6.714   3.981 -1.1068 -0.0823  1.3872
   83SLPC  H15Y 7892   6.352   6.542   3.952 -0.6377 -0.4507 -1.7001
   83SLPC  C316 7893   6.309   6.577   4.159  0.6706 -0.1458  0.3795
   83SLPC  H16X 7894   6.283   6.470   4.174  1.4080 -0.2450  1.0234
   83SLPC  H16Y 7895   6.234   6.633   4.218  0.6359 -1.2332  1.4213
   83SLPC  C317 7896   6.449   6.604   4.212  0.0622 -0.1893 -0.6609
   83SLPC  H17X 7897   6.467   6.710   4.183 -1.5341  0.2807 -0.0416
   83SLPC  H17Y 7898   6.526   6.544   4.159 -0.9643 -0.9526 -1.3411
   83SLPC  C318 7899   6.464   6.576   4.361  0.0290 -0.4124  0.4064
   83SLPC  H18X 7900   6.412   6.654   4.421  3.0834  0.3233  2.2638
   83SLPC  H18Y 7901   6.574   6.583   4.374  0.2418  0.5383 -1.5443
   83SLPC  H18Z 7902   6.423   6.474   4.378 -1.3305 -0.0555 -0.4905
   84SLPC     N 7903   4.547   5.260   2.175 -1.1294 -0.6009  0.0895
   84SLPC   C13 7904   4.599   5.250   2.037  0.2141  0.0934  0.2711
   84SLPC  H13A 7905   4.698   5.208   2.030  0.2112 -0.3386  2.2241
   84SLPC  H13B 7906   4.543   5.189   1.967  0.6647 -0.1297  0.1003
   84SLPC  H13C 7907   4.601   5.349   1.994  0.1180 -0.1668 -0.3446
   84SLPC   C14 7908   4.636   5.354   2.248  1.0865 -0.3048 -0.1226
   84SLPC  H14A 7909   4.738   5.342   2.213  1.0868 -0.2165 -0.1547
   84SLPC  H14B 7910   4.609   5.455   2.221 -1.5686 -1.0797 -0.5982
   84SLPC  H14C 7911   4.628   5.349   2.355 -0.6467  1.5662 -0.1173
   84SLPC   C15 7912   4.530   5.134   2.232 -0.2738  0.4162 -0.9562
   84SLPC  H15A 7913   4.518   5.133   2.339 -2.2290  4.0091 -0.9991
   84SLPC  H15B 7914   4.439   5.093   2.191 -0.7663 -1.0780  1.4802
   84SLPC  H15C 7915   4.610   5.069   2.198  0.6169  1.2538 -0.5155
   84SLPC   C12 7916   4.408   5.326   2.171  0.1113  0.0780 -0.1983
   84SLPC  H12A 7917   4.420   5.428   2.139 -0.1904  0.4911  0.9709
   84SLPC  H12B 7918   4.368   5.330   2.271 -0.0370  0.7119 -0.2787
   84SLPC   C11 7919   4.295   5.265   2.082 -0.4956  0.0518 -0.6960
   84SLPC  H11A 7920   4.325   5.242   1.978 -2.0057 -1.8885 -0.7531
   84SLPC  H11B 7921   4.214   5.340   2.093 -0.2012  0.1739  0.9300
   84SLPC     P 7922   4.128   5.074   2.111  0.3588 -0.0132  0.1191
   84SLPC   O13 7923   4.042   5.156   2.022 -0.1323  0.1392 -0.2507
   84SLPC   O14 7924   4.155   4.933   2.068 -0.0882 -0.0269 -0.0930
   84SLPC   O12 7925   4.262   5.143   2.133  0.2395 -0.3494 -0.6516
   84SLPC   O11 7926   4.060   5.072   2.247  0.2271  0.1010  0.7487
   84SLPC    C1 7927   4.066   5.179   2.343  0.3399 -0.2385  0.1691
   84SLPC    HA 7928   4.080   5.273   2.284  1.9337 -0.2407  0.4991
   84SLPC    HB 7929   3.965   5.174   2.388  0.4050 -0.5986  0.2753
   84SLPC    C2 7930   4.182   5.174   2.450 -0.0285 -0.6308  0.7076
   84SLPC    HS 7931   4.273   5.185   2.387 -0.6908  2.6724  0.1127
   84SLPC   O21 7932   4.177   5.060   2.538 -0.1203 -0.3004 -0.1063
   84SLPC   C21 7933   4.282   4.989   2.537 -0.6152 -0.2782  0.0363
   84SLPC   O22 7934   4.387   5.020   2.486 -0.1045 -0.8910  0.0718
   84SLPC   C22 7935   4.264   4.866   2.619  0.2355  0.2892  0.1765
   84SLPC   H2R 7936   4.204   4.794   2.560 -1.0563 -0.3060  2.1213
   84SLPC   H2S 7937   4.359   4.821   2.655  0.9643  0.7454 -1.1309
   84SLPC    C3 7938   4.172   5.306   2.539  0.7692  0.4462 -0.1582
   84SLPC    HX 7939   4.076   5.292   2.593  0.8403  3.5349  0.9425
   84SLPC    HY 7940   4.163   5.394   2.472  0.1362  0.9053  0.5231
   84SLPC   O31 7941   4.278   5.312   2.640  0.3631 -0.4421 -0.9453
   84SLPC   C31 7942   4.404   5.328   2.597  0.1409 -0.5692 -0.0982
   84SLPC   O32 7943   4.433   5.348   2.480 -0.5119 -0.0310 -0.2586
   84SLPC   C32 7944   4.497   5.334   2.715  0.3928 -0.0168 -0.3779
   84SLPC   H2X 7945   4.586   5.279   2.677  0.2672 -0.4522 -0.0464
   84SLPC   H2Y 7946   4.451   5.269   2.792 -0.0454 -1.7891 -2.0444
   84SLPC   C23 7947   4.172   4.894   2.747  1.0027 -0.5298  0.2961
   84SLPC   H3R 7948   4.135   4.795   2.781 -1.4199  0.1031 -0.2937
   84SLPC   H3S 7949   4.080   4.954   2.727  1.1729 -0.5235 -0.5104
   84SLPC   C24 7950   4.244   4.964   2.872 -0.2757  0.0552  0.0919
   84SLPC   H4R 7951   4.291   5.056   2.830  1.2072  0.1889  1.9298
   84SLPC   H4S 7952   4.331   4.897   2.893  0.7395  0.9153 -1.2110
   84SLPC   C25 7953   4.156   5.007   2.990  0.7119 -0.0801  0.5078
   84SLPC   H5R 7954   4.124   4.914   3.041 -1.9374  0.2900 -0.3377
   84SLPC   H5S 7955   4.061   5.053   2.954  1.3446 -0.0928 -1.2629
   84SLPC   C26 7956   4.219   5.092   3.099 -0.2542 -1.0414  0.2399
   84SLPC   H6R 7957   4.253   5.192   3.065 -1.0960 -0.3635  1.2880
   84SLPC   H6S 7958   4.309   5.041   3.141 -0.8887 -2.5656 -0.1902
   84SLPC   C27 7959   4.118   5.117   3.216 -1.0566 -0.6035 -0.4645
   84SLPC   H7R 7960   4.063   5.023   3.238 -0.8677 -0.6279 -0.0844
   84SLPC   H7S 7961   4.042   5.193   3.187  1.9135  3.1599  0.7331
   84SLPC   C28 7962   4.186   5.163   3.350  0.8262  0.3495 -0.6201
   84SLPC   H8R 7963   4.258   5.087   3.388  1.9485  0.7269 -1.9144
   84SLPC   H8S 7964   4.108   5.167   3.430 -0.0459 -0.0823 -1.4302
   84SLPC   C29 7965   4.263   5.292   3.332 -0.3895 -0.0915 -0.4323
   84SLPC   H9R 7966   4.215   5.373   3.276  1.0822  1.7537  0.8370
   84SLPC  C210 7967   4.389   5.326   3.378  0.5624 -0.0610  0.2415
   84SLPC  H10R 7968   4.432   5.418   3.335 -0.1721 -0.0856 -0.5788
   84SLPC  C211 7969   4.465   5.233   3.473  0.9956  0.4197  0.7610
   84SLPC  H11R 7970   4.516   5.154   3.414 -0.9028  1.4480 -2.5056
   84SLPC  H11S 7971   4.402   5.180   3.547  2.0857 -2.7389 -0.4296
   84SLPC  C212 7972   4.571   5.309   3.550  0.5008 -0.5013 -0.0962
   84SLPC  H12R 7973   4.665   5.318   3.493  0.4285  0.0261 -0.1369
   84SLPC  C213 7974   4.577   5.372   3.669 -0.2535  0.6908 -0.8038
   84SLPC  H13R 7975   4.671   5.412   3.708  0.4303 -1.9626  0.5562
   84SLPC  C214 7976   4.471   5.372   3.774  0.1005  0.2682 -0.6671
   84SLPC  H14R 7977   4.374   5.330   3.739  0.1234 -1.0025  0.7183
   84SLPC  H14S 7978   4.457   5.476   3.810  0.0520 -0.3109  1.0953
   84SLPC  C215 7979   4.480   5.281   3.900 -0.0533  0.2592  0.4672
   84SLPC  H15R 7980   4.430   5.183   3.886 -0.4857  0.7214 -1.5280
   84SLPC  H15S 7981   4.415   5.338   3.970 -0.2119  2.3369 -1.2734
   84SLPC  C216 7982   4.605   5.304   3.983  0.0686 -0.0337  0.5733
   84SLPC  H16R 7983   4.680   5.255   3.917  0.2458  0.8269  0.1255
   84SLPC  H16S 7984   4.603   5.247   4.079  0.5790  0.3933  0.8456
   84SLPC  C217 7985   4.655   5.444   4.016  0.0699 -0.5618 -0.1231
   84SLPC  H17R 7986   4.598   5.487   4.101  0.9668 -1.2481  0.8694
   84SLPC  H17S 7987   4.643   5.512   3.929  0.2298 -1.5929 -0.9686
   84SLPC  C218 7988   4.806   5.451   4.053 -0.3905 -1.3139  0.6003
   84SLPC  H18R 7989   4.870   5.389   3.987 -0.5457 -1.9407  1.0335
   84SLPC  H18S 7990   4.834   5.445   4.160  1.4815 -1.4349  0.1372
   84SLPC  H18T 7991   4.837   5.555   4.029  0.6035 -1.6003  0.6214
   84SLPC   C33 7992   4.547   5.472   2.755  0.1366  0.7834  0.4110
   84SLPC   H3X 7993   4.463   5.535   2.792  1.1007  1.0173  2.3266
   84SLPC   H3Y 7994   4.585   5.531   2.668 -0.7963  2.0214  0.8180
   84SLPC   C34 7995   4.662   5.477   2.851 -0.3833 -0.0554  0.1825
   84SLPC   H4X 7996   4.725   5.568   2.843  0.4488 -0.5826  0.6267
   84SLPC   H4Y 7997   4.730   5.389   2.840  0.8138  1.0657 -2.0543
   84SLPC   C35 7998   4.607   5.484   2.996 -0.7466 -0.1102 -0.1622
   84SLPC   H5X 7999   4.535   5.400   3.005 -1.5216  0.5567 -0.0221
   84SLPC   H5Y 8000   4.548   5.575   3.019 -2.6219 -1.7240  1.8210
   84SLPC   C36 8001   4.718   5.497   3.106 -0.3387 -0.7147  0.5852
   84SLPC   H6X 8002   4.774   5.590   3.083  0.0208 -1.3210 -1.1772
   84SLPC   H6Y 8003   4.781   5.409   3.079 -2.9635 -2.3804 -0.5819
   84SLPC   C37 8004   4.670   5.484   3.251 -0.0089 -0.6244  0.7789
   84SLPC   H7X 8005   4.606   5.397   3.276 -0.7038 -0.6773 -1.0426
   84SLPC   H7Y 8006   4.608   5.575   3.267 -2.5550 -2.1823  0.4087
   84SLPC   C38 8007   4.787   5.497   3.346  0.5015  0.4789 -0.3479
   84SLPC   H8X 8008   4.882   5.511   3.290  1.6980 -1.7075  0.9807
   84SLPC   H8Y 8009   4.808   5.402   3.400 -0.4446  1.0495  1.0994
   84SLPC   C39 8010   4.769   5.608   3.448 -0.3426 -0.7698  0.2082
   84SLPC   H9X 8011   4.679   5.591   3.511  0.4873 -0.5990  1.4856
   84SLPC   H9Y 8012   4.759   5.709   3.402  0.7810 -0.6182  0.2645
   84SLPC  C310 8013   4.880   5.619   3.551 -0.5188 -0.1641 -1.2945
   84SLPC  H10X 8014   4.972   5.611   3.490  0.0196  1.5545 -0.7697
   84SLPC  H10Y 8015   4.884   5.539   3.628 -2.7491  2.9037  2.3959
   84SLPC  C311 8016   4.871   5.745   3.641  0.1336  0.1365 -0.0495
   84SLPC  H11X 8017   4.817   5.704   3.729  0.5260 -1.7010 -0.6217
   84SLPC  H11Y 8018   4.829   5.839   3.598 -0.5180  0.1454  0.5870
   84SLPC  C312 8019   5.012   5.781   3.701 -0.3410 -0.5261  0.4989
   84SLPC  H12X 8020   5.084   5.839   3.639 -0.6640  0.2933  0.8775
   84SLPC  H12Y 8021   5.064   5.683   3.712  1.5090  0.3505  0.0526
   84SLPC  C313 8022   5.005   5.854   3.841  0.1944 -0.4287 -0.5909
   84SLPC  H13X 8023   5.106   5.864   3.885  0.6035 -0.6998 -1.4398
   84SLPC  H13Y 8024   4.934   5.805   3.911 -0.2248  1.0851  0.0798
   84SLPC  C314 8025   4.952   6.001   3.834 -0.5297  0.3082 -0.2778
   84SLPC  H14X 8026   4.858   6.012   3.777 -0.6301  1.0613  0.0245
   84SLPC  H14Y 8027   5.027   6.066   3.783  0.5695 -1.4447 -0.9930
   84SLPC  C315 8028   4.924   6.051   3.977 -0.2378  0.7427  0.3741
   84SLPC  H15X 8029   4.850   5.980   4.020  0.0255  1.1054  1.4432
   84SLPC  H15Y 8030   4.863   6.143   3.966 -0.9131  0.3417  0.6665
   84SLPC  C316 8031   5.046   6.073   4.065  0.8208 -0.2268 -0.4754
   84SLPC  H16X 8032   5.138   6.100   4.008  0.3050  1.9007 -0.3798
   84SLPC  H16Y 8033   5.070   5.990   4.135 -0.1630  0.4729  0.7207
   84SLPC  C317 8034   5.003   6.191   4.166  0.3532 -0.0282  0.1809
   84SLPC  H17X 8035   4.933   6.141   4.236  2.3098 -2.1401  0.7552
   84SLPC  H17Y 8036   4.939   6.265   4.115  0.6605  0.1127 -0.0029
   84SLPC  C318 8037   5.112   6.251   4.248 -0.0932  0.1957 -0.4374
   84SLPC  H18X 8038   5.181   6.183   4.302  0.9410  1.3419 -0.2704
   84SLPC  H18Y 8039   5.068   6.322   4.321  2.5422  1.1560  0.3359
   84SLPC  H18Z 8040   5.177   6.313   4.183  0.0715  2.9934  2.1486
   85SLPC     N 8041   3.593   1.851   1.955 -0.8458  0.5930 -0.8287
   85SLPC   C13 8042   3.692   1.823   1.845  0.5487  0.4479 -0.2656
   85SLPC  H13A 8043   3.729   1.905   1.785  0.1467  0.4055 -0.5716
   85SLPC  H13B 8044   3.775   1.771   1.890  2.4991  0.7636 -3.1787
   85SLPC  H13C 8045   3.645   1.748   1.783 -0.5038  2.6096 -2.2090
   85SLPC   C14 8046   3.480   1.910   1.883  0.2268  0.1649 -0.4741
   85SLPC  H14A 8047   3.494   2.012   1.851  0.8914  0.0636 -0.5147
   85SLPC  H14B 8048   3.465   1.854   1.792  0.4498  0.7063 -0.8464
   85SLPC  H14C 8049   3.384   1.905   1.933 -0.4660  1.7429 -1.5737
   85SLPC   C15 8050   3.649   1.952   2.059  0.3902 -0.2145  0.7285
   85SLPC  H15A 8051   3.680   2.040   2.005  1.6720 -0.2473  1.3583
   85SLPC  H15B 8052   3.586   1.993   2.136  0.8983 -0.6598  1.4010
   85SLPC  H15C 8053   3.739   1.912   2.104  1.6646  1.5519 -0.1612
   85SLPC   C12 8054   3.555   1.731   2.045  0.0562  0.4089 -0.3188
   85SLPC  H12A 8055   3.507   1.665   1.974  0.5294 -0.4224  0.1276
   85SLPC  H12B 8056   3.482   1.759   2.119 -0.9290  0.0348 -1.1201
   85SLPC   C11 8057   3.665   1.652   2.122 -0.1834 -0.1862 -0.1417
   85SLPC  H11A 8058   3.616   1.572   2.181  0.9542  0.1441  1.2829
   85SLPC  H11B 8059   3.711   1.727   2.190  0.6007 -1.4783  0.7759
   85SLPC     P 8060   3.922   1.624   2.079 -0.2322  0.0567  0.2737
   85SLPC   O13 8061   4.008   1.509   2.044  0.0614 -0.1716 -0.1000
   85SLPC   O14 8062   3.966   1.757   2.030 -0.2341 -0.6729 -0.4829
   85SLPC   O12 8063   3.771   1.598   2.033  0.2066  0.6917 -0.2960
   85SLPC   O11 8064   3.913   1.622   2.237 -0.5958  0.1711 -1.0787
   85SLPC    C1 8065   3.881   1.507   2.307  0.0221  0.0440  1.0161
   85SLPC    HA 8066   3.816   1.444   2.243  2.3192 -0.2362 -1.2337
   85SLPC    HB 8067   3.976   1.452   2.320  0.2884  0.1397 -0.3263
   85SLPC    C2 8068   3.802   1.542   2.436 -0.0446 -0.0070 -0.1729
   85SLPC    HS 8069   3.713   1.598   2.402  0.3536  0.2740 -0.7703
   85SLPC   O21 8070   3.887   1.624   2.521  0.8260 -0.0745  0.0944
   85SLPC   C21 8071   3.817   1.706   2.599  0.9407 -0.1322 -0.0086
   85SLPC   O22 8072   3.695   1.697   2.612  0.2253 -0.3410  0.3793
   85SLPC   C22 8073   3.917   1.801   2.666 -0.5636 -0.1000 -0.3237
   85SLPC   H2R 8074   4.020   1.760   2.667 -0.5474 -0.2939  2.9052
   85SLPC   H2S 8075   3.918   1.905   2.628 -0.0694  0.9363  2.2740
   85SLPC    C3 8076   3.755   1.411   2.498  0.0061 -0.5100 -0.7919
   85SLPC    HX 8077   3.847   1.349   2.500  0.4339  0.0993 -0.9773
   85SLPC    HY 8078   3.694   1.360   2.422  0.8328 -1.1708 -1.0244
   85SLPC   O31 8079   3.691   1.403   2.629  0.1292 -0.0375  0.1757
   85SLPC   C31 8080   3.563   1.428   2.640  0.1779  0.0497  0.1440
   85SLPC   O32 8081   3.491   1.471   2.552  0.0971 -0.8872 -0.4935
   85SLPC   C32 8082   3.511   1.420   2.781 -0.3533  0.2970 -0.1687
   85SLPC   H2X 8083   3.424   1.352   2.772 -0.5375  0.6281 -0.9696
   85SLPC   H2Y 8084   3.475   1.524   2.801  0.0682  0.9195 -2.3391
   85SLPC   C23 8085   3.899   1.826   2.823 -0.8244  0.4916  0.3988
   85SLPC   H3R 8086   3.896   1.729   2.876  2.6625 -1.0087 -1.8075
   85SLPC   H3S 8087   3.805   1.881   2.846  0.0306  1.9090  0.6118
   85SLPC   C24 8088   4.016   1.910   2.877 -0.2851  0.4012 -0.1431
   85SLPC   H4R 8089   4.040   1.995   2.809 -0.7096 -1.0840 -2.2564
   85SLPC   H4S 8090   4.106   1.848   2.853  0.2703  1.3424 -0.5821
   85SLPC   C25 8091   4.015   1.940   3.028  0.1637 -0.8214  0.8225
   85SLPC   H5R 8092   4.083   2.023   3.058  0.9248 -1.1548  0.0470
   85SLPC   H5S 8093   3.916   1.984   3.050  0.5867  0.8929 -0.4982
   85SLPC   C26 8094   4.041   1.821   3.121 -0.1647  0.2055 -0.2435
   85SLPC   H6R 8095   3.957   1.751   3.104 -0.9845  0.8485  1.0415
   85SLPC   H6S 8096   4.044   1.873   3.219  1.2214  1.1862 -0.7679
   85SLPC   C27 8097   4.189   1.769   3.106 -0.1207  0.2006 -0.7103
   85SLPC   H7R 8098   4.257   1.857   3.113 -0.7085  0.5860  0.4237
   85SLPC   H7S 8099   4.192   1.710   3.012  2.4605 -1.3095  0.2105
   85SLPC   C28 8100   4.232   1.673   3.219  0.5325  0.5525  0.3932
   85SLPC   H8R 8101   4.149   1.599   3.226  0.0297  0.8270 -1.8854
   85SLPC   H8S 8102   4.231   1.725   3.317 -1.6632  0.6926  0.3510
   85SLPC   C29 8103   4.363   1.610   3.195  0.4481 -0.4914  0.4945
   85SLPC   H9R 8104   4.368   1.559   3.097  1.4745  0.0291  0.2662
   85SLPC  C210 8105   4.479   1.614   3.272 -0.2931 -0.3666  1.1217
   85SLPC  H10R 8106   4.569   1.582   3.218 -0.4323  0.8872  0.0969
   85SLPC  C211 8107   4.497   1.687   3.403  0.6036 -0.1794 -0.7473
   85SLPC  H11R 8108   4.438   1.777   3.431  0.2305 -0.8583  0.7352
   85SLPC  H11S 8109   4.602   1.725   3.408  0.2882  0.6503 -0.1460
   85SLPC  C212 8110   4.467   1.581   3.510  0.1288  0.3974  0.8007
   85SLPC  H12R 8111   4.385   1.514   3.479 -0.3007  1.1300  0.3249
   85SLPC  C213 8112   4.529   1.561   3.625  0.1806  0.1783  0.0617
   85SLPC  H13R 8113   4.498   1.481   3.694  1.0973  1.0481  1.5195
   85SLPC  C214 8114   4.647   1.632   3.689  0.2535 -0.2156  0.7270
   85SLPC  H14R 8115   4.667   1.727   3.634 -1.1623  1.2112  2.5161
   85SLPC  H14S 8116   4.744   1.579   3.698  1.0868  0.6376 -2.1256
   85SLPC  C215 8117   4.604   1.679   3.828  0.2084 -0.6705 -0.2626
   85SLPC  H15R 8118   4.502   1.724   3.825 -0.8011 -2.7621  0.1184
   85SLPC  H15S 8119   4.670   1.757   3.869  2.2632 -2.0432 -0.8113
   85SLPC  C216 8120   4.602   1.570   3.941  0.0075  0.3409 -0.3709
   85SLPC  H16R 8121   4.703   1.530   3.965  0.0721 -0.0310 -1.2463
   85SLPC  H16S 8122   4.549   1.484   3.895 -0.6001  1.0396 -0.9961
   85SLPC  C217 8123   4.524   1.590   4.079  0.7366 -0.7315  0.1515
   85SLPC  H17R 8124   4.424   1.628   4.047  0.5672 -0.4865  0.9528
   85SLPC  H17S 8125   4.578   1.672   4.131  2.6972 -0.3163 -2.3255
   85SLPC  C218 8126   4.519   1.469   4.171 -0.1122  0.0456 -0.5192
   85SLPC  H18R 8127   4.615   1.438   4.217 -0.5495 -1.6774 -0.6937
   85SLPC  H18S 8128   4.486   1.380   4.114 -1.0382  0.2743 -0.3545
   85SLPC  H18T 8129   4.460   1.498   4.261  2.1001  1.6422  0.5241
   85SLPC   C33 8130   3.620   1.399   2.887 -0.2997 -0.4019  1.0283
   85SLPC   H3X 8131   3.675   1.492   2.911 -2.3803  0.7395  1.6223
   85SLPC   H3Y 8132   3.699   1.332   2.847  1.4618  1.8265  0.5776
   85SLPC   C34 8133   3.562   1.353   3.019 -0.3914  0.5981 -0.6645
   85SLPC   H4X 8134   3.643   1.331   3.092 -0.5547  0.1046 -0.6295
   85SLPC   H4Y 8135   3.492   1.267   3.012 -0.1467  0.3207  0.2249
   85SLPC   C35 8136   3.481   1.466   3.092  0.6319 -0.7000  0.3314
   85SLPC   H5X 8137   3.404   1.505   3.023  1.5441 -0.0021 -0.3210
   85SLPC   H5Y 8138   3.545   1.550   3.126 -0.4255 -0.6149  2.2830
   85SLPC   C36 8139   3.409   1.419   3.222  0.4698 -0.1372  0.2982
   85SLPC   H6X 8140   3.386   1.310   3.213 -1.3160  0.1950  0.5510
   85SLPC   H6Y 8141   3.321   1.486   3.234  0.7214  0.7081 -2.0813
   85SLPC   C37 8142   3.486   1.450   3.349  0.0835  0.2522 -0.5170
   85SLPC   H7X 8143   3.500   1.560   3.346 -0.2867  0.3631  0.9203
   85SLPC   H7Y 8144   3.585   1.401   3.352  0.3554  0.7631  2.2760
   85SLPC   C38 8145   3.407   1.417   3.473  0.3293  0.2267 -1.0777
   85SLPC   H8X 8146   3.408   1.307   3.483  4.7052  0.2282  1.2212
   85SLPC   H8Y 8147   3.306   1.459   3.493  0.0660 -0.8258 -0.0806
   85SLPC   C39 8148   3.486   1.448   3.601 -0.3612  0.5003 -0.0504
   85SLPC   H9X 8149   3.501   1.558   3.610  0.3289  0.4718 -0.7534
   85SLPC   H9Y 8150   3.588   1.408   3.585  0.7146  1.4281  3.5178
   85SLPC  C310 8151   3.413   1.398   3.725  0.1975 -0.7125 -0.1481
   85SLPC  H10X 8152   3.410   1.288   3.734 -3.9663 -0.5858  2.8046
   85SLPC  H10Y 8153   3.303   1.414   3.723  0.1571 -0.6499  1.6332
   85SLPC  C311 8154   3.478   1.461   3.859  0.2786 -0.4580  0.8105
   85SLPC  H11X 8155   3.512   1.564   3.835 -0.0337 -0.7716 -1.0700
   85SLPC  H11Y 8156   3.559   1.397   3.900  2.6939  1.2007 -1.0562
   85SLPC  C312 8157   3.373   1.479   3.971 -0.0544 -0.5823  0.3108
   85SLPC  H12X 8158   3.319   1.384   3.989 -0.6603 -0.2096  0.4714
   85SLPC  H12Y 8159   3.289   1.546   3.945 -0.2020 -0.6989  0.4866
   85SLPC  C313 8160   3.422   1.531   4.106 -0.5528 -0.0678 -0.5912
   85SLPC  H13X 8161   3.328   1.547   4.163  0.6117  0.4005  1.2800
   85SLPC  H13Y 8162   3.486   1.619   4.084 -0.9261  0.9478  2.0953
   85SLPC  C314 8163   3.508   1.432   4.181  0.0988  0.0526  0.4948
   85SLPC  H14X 8164   3.601   1.401   4.127  1.2051 -0.4548  2.5822
   85SLPC  H14Y 8165   3.444   1.342   4.187 -0.3028  0.3563  0.7957
   85SLPC  C315 8166   3.567   1.495   4.309  0.4770  0.8852 -0.2609
   85SLPC  H15X 8167   3.490   1.529   4.382  0.4175 -2.6775  1.6101
   85SLPC  H15Y 8168   3.633   1.580   4.285 -0.0983  1.1773 -0.8396
   85SLPC  C316 8169   3.660   1.396   4.378 -0.3275 -0.9128 -0.1417
   85SLPC  H16X 8170   3.726   1.355   4.298  1.2841 -1.8741  1.5892
   85SLPC  H16Y 8171   3.599   1.315   4.423 -0.5564 -0.1467  0.9770
   85SLPC  C317 8172   3.746   1.449   4.493  0.6062 -0.4881 -0.6336
   85SLPC  H17X 8173   3.682   1.471   4.581  1.4543  1.0646 -0.3699
   85SLPC  H17Y 8174   3.789   1.543   4.450  0.2874 -0.1040 -0.1273
   85SLPC  C318 8175   3.855   1.350   4.541  0.5925 -0.1675  0.3826
   85SLPC  H18X 8176   3.892   1.289   4.457 -1.6820 -0.1081 -0.7456
   85SLPC  H18Y 8177   3.814   1.282   4.619 -0.7886  1.7895  1.4527
   85SLPC  H18Z 8178   3.940   1.411   4.579  1.4238 -0.6432 -0.6632
   86SLPC     N 8179   4.003   1.151   1.882 -0.1282  0.1732 -0.7562
   86SLPC   C13 8180   3.895   1.235   1.823 -0.7285 -0.3892  0.4323
   86SLPC  H13A 8181   3.915   1.337   1.850 -1.3685 -0.3435  0.7353
   86SLPC  H13B 8182   3.903   1.230   1.715  2.5929  1.0742  0.4806
   86SLPC  H13C 8183   3.807   1.181   1.853  0.3376 -1.5201  1.6737
   86SLPC   C14 8184   4.129   1.181   1.808  0.2850 -0.0079 -0.0898
   86SLPC  H14A 8185   4.120   1.156   1.704 -1.5761 -1.4962  0.3544
   86SLPC  H14B 8186   4.159   1.284   1.804  0.1019  0.0276 -0.5486
   86SLPC  H14C 8187   4.204   1.121   1.857 -0.5373  0.4069  1.7677
   86SLPC   C15 8188   3.964   1.005   1.856 -0.8322 -0.4340 -0.7214
   86SLPC  H15A 8189   4.038   0.955   1.916  0.4410  1.1195 -0.9425
   86SLPC  H15B 8190   3.862   0.975   1.876 -0.6881 -1.1221 -0.9936
   86SLPC  H15C 8191   3.978   0.985   1.750  0.4419 -2.0375 -0.2922
   86SLPC   C12 8192   4.029   1.171   2.029  0.1486  0.1229  0.3074
   86SLPC  H12A 8193   4.090   1.260   2.039  2.8468 -1.2584 -2.2803
   86SLPC  H12B 8194   4.084   1.087   2.067  1.0911  0.3927 -0.4302
   86SLPC   C11 8195   3.900   1.176   2.131 -0.7797 -0.7539  0.0578
   86SLPC  H11A 8196   3.830   1.253   2.091 -1.0589 -0.5030  0.9928
   86SLPC  H11B 8197   3.940   1.208   2.230  3.1277  1.2445 -1.9520
   86SLPC     P 8198   3.859   0.924   2.205 -0.1990  0.4011  0.2881
   86SLPC   O13 8199   3.771   0.816   2.152  0.1978  0.0955 -0.5542
   86SLPC   O14 8200   4.007   0.905   2.194  0.1792 -0.1659  0.2453
   86SLPC   O12 8201   3.821   1.064   2.139  0.0703  0.4182 -1.0082
   86SLPC   O11 8202   3.820   0.927   2.352  0.5649 -0.4685  0.6973
   86SLPC    C1 8203   3.758   1.051   2.408 -1.0414 -0.0589  0.7083
   86SLPC    HA 8204   3.837   1.128   2.418  1.6636 -2.6301  0.3885
   86SLPC    HB 8205   3.675   1.094   2.347 -0.6193 -1.9330 -1.3440
   86SLPC    C2 8206   3.686   1.024   2.543 -0.0081 -0.3217 -0.3349
   86SLPC    HS 8207   3.672   1.113   2.608 -1.4153 -1.0097  0.3428
   86SLPC   O21 8208   3.753   0.919   2.614  0.3795  0.0781 -0.7638
   86SLPC   C21 8209   3.878   0.932   2.643  0.7657 -0.2339  0.2972
   86SLPC   O22 8210   3.942   1.036   2.629 -0.3396 -0.0504  0.4053
   86SLPC   C22 8211   3.933   0.803   2.700  0.4992 -1.0555 -0.7168
   86SLPC   H2R 8212   3.924   0.718   2.630 -0.3657 -0.1711 -1.7148
   86SLPC   H2S 8213   4.042   0.815   2.716  0.3241  1.3311 -0.9006
   86SLPC    C3 8214   3.539   0.987   2.518  0.5663  0.6027  0.0682
   86SLPC    HX 8215   3.543   0.898   2.451  2.8015 -0.5095  1.5187
   86SLPC    HY 8216   3.494   1.063   2.452 -1.3668 -0.0925  0.5102
   86SLPC   O31 8217   3.452   0.935   2.634 -0.3941 -0.3947  0.0501
   86SLPC   C31 8218   3.368   1.032   2.674 -0.8530 -0.3451  0.2287
   86SLPC   O32 8219   3.369   1.145   2.627 -0.5094  0.1225 -0.9105
   86SLPC   C32 8220   3.263   0.981   2.778  0.7943  0.8268  0.4360
   86SLPC   H2X 8221   3.295   0.888   2.828  2.0664  0.1293 -1.5663
   86SLPC   H2Y 8222   3.176   0.953   2.716  2.5947 -0.6269 -1.5924
   86SLPC   C23 8223   3.870   0.773   2.836  0.1063  0.1808 -0.0793
   86SLPC   H3R 8224   3.907   0.675   2.871 -0.9839 -0.5570 -0.9055
   86SLPC   H3S 8225   3.759   0.766   2.831  0.2081 -1.4650 -0.9735
   86SLPC   C24 8226   3.911   0.873   2.942  0.1589  0.4974  0.0138
   86SLPC   H4R 8227   4.011   0.918   2.929  0.9893 -0.1714  3.1521
   86SLPC   H4S 8228   3.905   0.825   3.043 -1.4228  0.2041 -0.1857
   86SLPC   C25 8229   3.822   0.994   2.960  0.1651 -0.5561 -0.5995
   86SLPC   H5R 8230   3.831   1.071   2.881  1.9650 -0.6872 -0.5666
   86SLPC   H5S 8231   3.855   1.039   3.056 -0.7300  0.0141 -0.5489
   86SLPC   C26 8232   3.668   0.966   2.976  0.3316 -1.1249  0.4348
   86SLPC   H6R 8233   3.632   0.933   2.877 -1.5244  2.0933 -0.1259
   86SLPC   H6S 8234   3.612   1.062   2.982  0.8501 -0.8056  0.2644
   86SLPC   C27 8235   3.631   0.869   3.086  0.8107  0.0818  0.1146
   86SLPC   H7R 8236   3.694   0.896   3.174 -1.3717  0.4925  1.6582
   86SLPC   H7S 8237   3.659   0.770   3.043 -0.8149  0.7935 -2.8331
   86SLPC   C28 8238   3.479   0.867   3.124  0.1764 -0.2759 -0.2065
   86SLPC   H8R 8239   3.488   0.789   3.203  1.5865  0.7261  0.6826
   86SLPC   H8S 8240   3.418   0.827   3.041  1.0914  1.5300 -1.8205
   86SLPC   C29 8241   3.429   0.993   3.188  0.3304  0.0309 -0.2153
   86SLPC   H9R 8242   3.413   1.074   3.115  2.1996 -0.1726 -0.8987
   86SLPC  C210 8243   3.429   1.026   3.319 -0.4186  0.0576 -0.2575
   86SLPC  H10R 8244   3.393   1.126   3.345  0.3662  0.1743  0.4131
   86SLPC  C211 8245   3.474   0.943   3.438 -0.6355 -0.1792 -0.5750
   86SLPC  H11R 8246   3.456   0.835   3.418  2.7639 -1.0982  0.6276
   86SLPC  H11S 8247   3.408   0.960   3.526 -0.5470  0.3611 -0.6077
   86SLPC  C212 8248   3.623   0.949   3.480  0.0533 -0.6251  0.3151
   86SLPC  H12R 8249   3.692   0.896   3.413 -0.0623  0.3692 -0.6246
   86SLPC  C213 8250   3.673   1.003   3.591  0.1426  0.2452  0.5070
   86SLPC  H13R 8251   3.782   1.017   3.599  0.4265  0.1170 -2.2517
   86SLPC  C214 8252   3.600   1.065   3.704 -0.3519 -1.0944  0.0576
   86SLPC  H14R 8253   3.493   1.035   3.710 -0.7866  0.5938  2.0494
   86SLPC  H14S 8254   3.611   1.175   3.694  0.0810 -1.2619 -1.6123
   86SLPC  C215 8255   3.664   1.031   3.837  0.5557  0.0767  0.2368
   86SLPC  H15R 8256   3.674   0.925   3.867 -2.3057 -0.2187  0.4428
   86SLPC  H15S 8257   3.597   1.078   3.912  2.0742  3.4130 -0.2735
   86SLPC  C216 8258   3.795   1.112   3.866  1.3106 -0.9933  1.1963
   86SLPC  H16R 8259   3.759   1.216   3.879 -1.4968 -1.7649  0.2727
   86SLPC  H16S 8260   3.870   1.097   3.785 -0.5655 -0.8712 -0.6573
   86SLPC  C217 8261   3.852   1.082   4.006  0.2997 -0.1929  0.1203
   86SLPC  H17R 8262   3.939   1.152   4.010  0.0256  0.1185  0.9270
   86SLPC  H17S 8263   3.874   0.973   4.013 -2.6186 -1.1492 -3.0187
   86SLPC  C218 8264   3.762   1.132   4.121  0.6942  0.9601 -0.1970
   86SLPC  H18R 8265   3.821   1.124   4.215 -2.9103  2.0904  2.3419
   86SLPC  H18S 8266   3.673   1.067   4.132  0.8180  0.3656 -2.1834
   86SLPC  H18T 8267   3.730   1.237   4.108 -3.1962  0.4314  3.2070
   86SLPC   C33 8268   3.234   1.089   2.876  0.2087  0.6484  0.1262
   86SLPC   H3X 8269   3.178   1.164   2.817  0.4612 -1.1025 -2.5365
   86SLPC   H3Y 8270   3.327   1.125   2.924  1.5185 -1.3884 -0.7247
   86SLPC   C34 8271   3.149   1.043   2.995  0.0997 -0.2033  1.0621
   86SLPC   H4X 8272   3.187   0.947   3.038 -0.8383 -0.6040  1.0082
   86SLPC   H4Y 8273   3.045   1.047   2.957  0.3604  0.8755  0.4409
   86SLPC   C35 8274   3.137   1.151   3.100 -0.2551  0.3668 -0.0758
   86SLPC   H5X 8275   3.105   1.250   3.062  0.9149  0.7677 -0.0457
   86SLPC   H5Y 8276   3.223   1.176   3.166 -0.9758  0.7561  0.7414
   86SLPC   C36 8277   3.022   1.114   3.200 -0.6013 -0.4668 -0.7392
   86SLPC   H6X 8278   3.054   1.029   3.264  0.9877 -0.0618 -0.9535
   86SLPC   H6Y 8279   2.949   1.062   3.133  0.2125 -4.6008  1.2304
   86SLPC   C37 8280   2.952   1.235   3.276 -0.3119  0.1379  0.3577
   86SLPC   H7X 8281   2.845   1.204   3.278 -0.2711  0.0055  0.6773
   86SLPC   H7Y 8282   2.958   1.321   3.207  1.6285 -1.0450 -1.0549
   86SLPC   C38 8283   3.015   1.270   3.410 -0.1869 -0.0137 -0.0114
   86SLPC   H8X 8284   2.936   1.335   3.453  0.4626  0.1617  0.9493
   86SLPC   H8Y 8285   3.110   1.325   3.390 -0.3935  0.3906  0.1234
   86SLPC   C39 8286   3.054   1.154   3.502 -0.5775  0.6516  0.4759
   86SLPC   H9X 8287   3.143   1.105   3.458  1.2975  1.9414  2.6007
   86SLPC   H9Y 8288   2.969   1.084   3.519 -1.0940  0.6789 -1.7616
   86SLPC  C310 8289   3.109   1.196   3.643  0.7141 -0.3493 -0.1261
   86SLPC  H10X 8290   3.033   1.252   3.702  1.6829  0.5764  0.2640
   86SLPC  H10Y 8291   3.196   1.263   3.628  0.8387 -0.6516 -0.7766
   86SLPC  C311 8292   3.153   1.078   3.727  0.9502 -0.0098  0.1442
   86SLPC  H11X 8293   3.236   1.022   3.678 -0.6093 -1.2529 -1.1952
   86SLPC  H11Y 8294   3.073   1.001   3.731  0.1532  0.7279 -0.9093
   86SLPC  C312 8295   3.202   1.111   3.869  0.3896 -0.0441 -0.5301
   86SLPC  H12X 8296   3.137   1.184   3.921  0.1352 -0.8003  0.2328
   86SLPC  H12Y 8297   3.285   1.182   3.850 -0.6179  1.3912  0.2382
   86SLPC  C313 8298   3.226   0.985   3.953 -0.4288 -0.1042 -0.1286
   86SLPC  H13X 8299   3.288   1.013   4.040  2.2292 -0.1835 -1.8665
   86SLPC  H13Y 8300   3.292   0.917   3.894 -1.2696  0.2321 -1.4970
   86SLPC  C314 8301   3.112   0.901   4.008  0.4987 -0.5684 -0.0479
   86SLPC  H14X 8302   3.027   0.920   3.939 -0.1425 -0.0109  0.8886
   86SLPC  H14Y 8303   3.084   0.942   4.107 -1.2135  0.4700 -0.9108
   86SLPC  C315 8304   3.133   0.754   3.993 -0.0929  0.1187 -0.5939
   86SLPC  H15X 8305   3.194   0.722   3.906  0.9229 -1.7005  0.7229
   86SLPC  H15Y 8306   3.032   0.707   3.984 -1.2618  2.4082 -0.2332
   86SLPC  C316 8307   3.211   0.691   4.101 -0.3054  0.1199 -0.2000
   86SLPC  H16X 8308   3.163   0.703   4.200  0.0985 -0.7648  0.1109
   86SLPC  H16Y 8309   3.311   0.739   4.104 -1.5804  2.9334  1.4443
   86SLPC  C317 8310   3.237   0.540   4.081  0.4115 -0.2684 -0.6966
   86SLPC  H17X 8311   3.272   0.518   3.978  1.3358 -1.9627 -0.0648
   86SLPC  H17Y 8312   3.144   0.478   4.074  1.4225 -1.8286 -0.7007
   86SLPC  C318 8313   3.331   0.486   4.183  0.0741 -0.2454 -0.2589
   86SLPC  H18X 8314   3.429   0.537   4.183  0.4310 -0.9000  0.8019
   86SLPC  H18Y 8315   3.336   0.375   4.177 -0.5747 -0.4028  1.3962
   86SLPC  H18Z 8316   3.282   0.497   4.282  2.8800  1.1691  1.0799
   87SLPC     N 8317   3.662   5.688   1.845  0.3077  0.8882  0.1673
   87SLPC   C13 8318   3.787   5.650   1.774  0.7619  0.7746 -0.5849
   87SLPC  H13A 8319   3.775   5.544   1.760 -3.6327  0.9748  0.1571
   87SLPC  H13B 8320   3.801   5.701   1.680 -0.5333 -1.4312 -2.0718
   87SLPC  H13C 8321   3.867   5.658   1.846 -0.2480 -1.4557  0.8936
   87SLPC   C14 8322   3.645   5.595   1.964  0.3019  0.1364 -0.3888
   87SLPC  H14A 8323   3.686   5.496   1.953  0.2837  0.0465  0.3052
   87SLPC  H14B 8324   3.700   5.641   2.044  0.6500 -0.2001 -0.4368
   87SLPC  H14C 8325   3.542   5.591   1.997  0.3696 -1.5141 -0.2750
   87SLPC   C15 8326   3.557   5.666   1.738 -0.0833  0.4574  0.7022
   87SLPC  H15A 8327   3.464   5.646   1.790 -1.0695 -2.4807 -1.9224
   87SLPC  H15B 8328   3.542   5.746   1.668 -1.3316  0.6966  1.2052
   87SLPC  H15C 8329   3.580   5.570   1.696 -3.3889  0.6494 -1.9649
   87SLPC   C12 8330   3.657   5.825   1.901  0.0485  0.1755  0.6715
   87SLPC  H12A 8331   3.551   5.839   1.914 -0.3369 -0.8529 -1.1463
   87SLPC  H12B 8332   3.682   5.891   1.820  1.3285 -0.6821  0.3379
   87SLPC   C11 8333   3.744   5.856   2.024 -0.3515 -0.5151 -0.0243
   87SLPC  H11A 8334   3.691   5.810   2.110 -0.3381 -1.4365 -0.4976
   87SLPC  H11B 8335   3.729   5.966   2.031 -1.5922 -0.6697 -0.0066
   87SLPC     P 8336   3.989   5.910   1.952 -0.1927 -0.0178 -0.0424
   87SLPC   O13 8337   4.119   5.852   1.985 -0.7257 -0.1013  0.0118
   87SLPC   O14 8338   3.979   5.936   1.805  0.7640 -0.5334  0.1510
   87SLPC   O12 8339   3.874   5.816   2.001  0.3219 -0.0975 -0.5234
   87SLPC   O11 8340   3.965   6.047   2.028 -0.4327  0.3659  0.7388
   87SLPC    C1 8341   3.925   6.066   2.166 -0.6372 -0.7022 -0.2553
   87SLPC    HA 8342   3.862   6.156   2.178 -0.0133 -0.3542  0.4865
   87SLPC    HB 8343   3.858   5.987   2.206 -1.5153 -0.2961 -0.8807
   87SLPC    C2 8344   4.052   6.077   2.259 -0.8156 -0.1900 -0.1262
   87SLPC    HS 8345   4.103   5.978   2.252 -1.8144 -0.8301  1.0996
   87SLPC   O21 8346   4.005   6.121   2.392  0.1124  0.5465  0.4989
   87SLPC   C21 8347   4.044   6.045   2.490 -0.6914 -0.9098  0.4875
   87SLPC   O22 8348   4.120   5.947   2.485  0.0784 -0.0400  0.1577
   87SLPC   C22 8349   3.988   6.113   2.615 -0.6776  0.8246  0.4615
   87SLPC   H2R 8350   4.028   6.217   2.619  1.3593  0.0747  0.4830
   87SLPC   H2S 8351   3.879   6.123   2.596 -0.7870  3.3641  1.9150
   87SLPC    C3 8352   4.142   6.187   2.202 -0.1356  0.5982  0.6816
   87SLPC    HX 8353   4.069   6.270   2.193 -1.2588 -0.5647 -2.3397
   87SLPC    HY 8354   4.166   6.177   2.094 -1.2849  2.6162  0.1943
   87SLPC   O31 8355   4.259   6.230   2.284 -0.1084 -0.0620  0.3165
   87SLPC   C31 8356   4.371   6.164   2.249 -0.3270  0.1023  0.2248
   87SLPC   O32 8357   4.386   6.093   2.155 -0.1947  0.6082  0.0697
   87SLPC   C32 8358   4.492   6.214   2.331  0.4990  0.0846  0.1869
   87SLPC   H2X 8359   4.457   6.309   2.376  0.4708  0.1898 -0.0557
   87SLPC   H2Y 8360   4.577   6.240   2.265  1.4490 -0.7897  1.0224
   87SLPC   C23 8361   4.020   6.022   2.737  0.5000  0.2021 -0.2151
   87SLPC   H3R 8362   4.127   5.995   2.749  0.7646  0.9679 -0.7618
   87SLPC   H3S 8363   3.973   5.923   2.723 -0.4821  0.2981  2.0010
   87SLPC   C24 8364   3.975   6.085   2.868  0.3789  0.3108 -0.2396
   87SLPC   H4R 8365   3.872   6.125   2.858  0.4472  0.3686 -0.7541
   87SLPC   H4S 8366   4.047   6.169   2.876 -0.2404  0.7842  0.4072
   87SLPC   C25 8367   3.987   5.992   2.994 -0.0811  0.5731  1.0409
   87SLPC   H5R 8368   4.088   5.950   3.014 -0.5431 -1.7182 -0.9724
   87SLPC   H5S 8369   3.904   5.920   2.975 -0.9567  2.3344 -2.8622
   87SLPC   C26 8370   3.952   6.068   3.119  1.0537 -0.5907 -0.6446
   87SLPC   H6R 8371   3.843   6.091   3.119  1.1357 -0.1102 -1.7728
   87SLPC   H6S 8372   4.011   6.162   3.112  1.1362 -0.5387  0.5332
   87SLPC   C27 8373   3.975   5.993   3.247 -0.0216  0.8208 -0.1219
   87SLPC   H7R 8374   4.061   5.923   3.252 -1.9230 -1.7146 -0.8737
   87SLPC   H7S 8375   3.884   5.929   3.255 -0.8419  1.9478 -0.0845
   87SLPC   C28 8376   3.956   6.078   3.371  0.0116  0.4468 -0.3944
   87SLPC   H8R 8377   3.852   6.117   3.368  0.2114  1.2359  1.4536
   87SLPC   H8S 8378   4.021   6.167   3.366 -1.1467  1.3007 -0.6329
   87SLPC   C29 8379   3.986   5.993   3.496 -0.4446 -0.6291 -0.3454
   87SLPC   H9R 8380   3.966   5.887   3.476  0.7293 -1.4572  2.4293
   87SLPC  C210 8381   4.045   6.029   3.612  0.0344  0.3839  0.5405
   87SLPC  H10R 8382   4.048   5.955   3.693 -1.3557 -0.8092 -0.4398
   87SLPC  C211 8383   4.084   6.168   3.651 -0.0998  0.3280 -0.4093
   87SLPC  H11R 8384   4.002   6.217   3.709  1.2003  1.6393  0.3666
   87SLPC  H11S 8385   4.078   6.224   3.555  1.7069  0.4873 -0.4586
   87SLPC  C212 8386   4.223   6.176   3.711 -0.5509 -0.2441  0.3386
   87SLPC  H12R 8387   4.301   6.173   3.634 -1.2788 -2.9879 -0.4034
   87SLPC  C213 8388   4.263   6.198   3.836  0.2570 -0.4373 -0.5702
   87SLPC  H13R 8389   4.372   6.205   3.847  0.1548  2.4081 -0.8448
   87SLPC  C214 8390   4.168   6.199   3.956  0.3298  0.7519  0.8757
   87SLPC  H14R 8391   4.173   6.100   4.007  1.5019  0.5900  0.4737
   87SLPC  H14S 8392   4.062   6.201   3.925  0.3810 -3.6462 -0.2243
   87SLPC  C215 8393   4.189   6.304   4.070  0.5467  0.3599  0.2894
   87SLPC  H15R 8394   4.178   6.404   4.024  0.1013 -0.6449 -1.9477
   87SLPC  H15S 8395   4.294   6.288   4.103 -0.5536 -4.9678  2.2219
   87SLPC  C216 8396   4.098   6.289   4.191  0.0816  0.5491  0.0605
   87SLPC  H16R 8397   4.114   6.374   4.261  1.4993  0.8887 -0.6415
   87SLPC  H16S 8398   4.119   6.194   4.244  0.0277  0.2231 -0.4957
   87SLPC  C217 8399   3.948   6.304   4.154  0.2891  0.5369  0.3209
   87SLPC  H17R 8400   3.899   6.218   4.103  0.3291  0.6901  0.0270
   87SLPC  H17S 8401   3.943   6.394   4.090 -0.5671 -0.9573 -1.8262
   87SLPC  C218 8402   3.862   6.328   4.286 -0.3451  0.3098 -0.1881
   87SLPC  H18R 8403   3.931   6.381   4.354 -0.7259  0.0603  0.4001
   87SLPC  H18S 8404   3.845   6.227   4.328 -2.1569 -0.3574 -2.3207
   87SLPC  H18T 8405   3.770   6.389   4.268  0.2772  1.1212 -0.6894
   87SLPC   C33 8406   4.542   6.114   2.444  0.1783 -1.0102  0.1874
   87SLPC   H3X 8407   4.643   6.140   2.481  0.9369  1.0472 -2.9836
   87SLPC   H3Y 8408   4.566   6.016   2.397  3.0565 -0.1068 -0.4216
   87SLPC   C34 8409   4.441   6.093   2.557  0.0972  0.3165  0.4795
   87SLPC   H4X 8410   4.464   5.986   2.576 -0.1964 -0.3438 -2.3180
   87SLPC   H4Y 8411   4.338   6.094   2.516 -0.7350  0.3245  2.4817
   87SLPC   C35 8412   4.455   6.189   2.671 -0.1977  0.7824 -0.0794
   87SLPC   H5X 8413   4.442   6.293   2.635 -0.1302  1.3999  1.5965
   87SLPC   H5Y 8414   4.561   6.187   2.705 -0.1554  3.2617  0.1175
   87SLPC   C36 8415   4.359   6.166   2.786  0.3599 -0.0322  0.2416
   87SLPC   H6X 8416   4.326   6.060   2.783  0.7626 -0.1291 -1.4364
   87SLPC   H6Y 8417   4.269   6.221   2.751  0.0975 -0.2834  0.5134
   87SLPC   C37 8418   4.403   6.227   2.913  0.1285 -0.1042  0.0680
   87SLPC   H7X 8419   4.416   6.337   2.904  1.6044 -0.1556  1.2047
   87SLPC   H7Y 8420   4.496   6.171   2.939  1.7800  2.3082 -0.2578
   87SLPC   C38 8421   4.302   6.208   3.026  0.4502 -0.4171 -0.9827
   87SLPC   H8X 8422   4.281   6.100   3.038 -1.3497  0.0036  0.1220
   87SLPC   H8Y 8423   4.209   6.261   2.996  2.0816  2.2646 -1.7576
   87SLPC   C39 8424   4.356   6.249   3.165 -0.0285 -0.7577 -0.1624
   87SLPC   H9X 8425   4.463   6.271   3.148  0.4282 -3.3079 -1.0267
   87SLPC   H9Y 8426   4.357   6.166   3.239 -3.6290 -0.9464 -0.1187
   87SLPC  C310 8427   4.281   6.362   3.238  0.7326  0.6994  0.0998
   87SLPC  H10X 8428   4.175   6.343   3.265  0.4302  1.4769 -0.4963
   87SLPC  H10Y 8429   4.281   6.454   3.175  1.0968  1.1638  0.7722
   87SLPC  C311 8430   4.355   6.406   3.367 -0.0660 -0.8346  0.7070
   87SLPC  H11X 8431   4.458   6.446   3.354 -0.5382  0.0428 -0.4032
   87SLPC  H11Y 8432   4.374   6.324   3.440  0.2193 -1.4704 -0.0621
   87SLPC  C312 8433   4.271   6.513   3.440 -0.3614  0.1148  0.7644
   87SLPC  H12X 8434   4.171   6.466   3.432  0.0814 -0.5140 -2.5006
   87SLPC  H12Y 8435   4.275   6.606   3.379  2.5261 -0.2945  0.1709
   87SLPC  C313 8436   4.323   6.542   3.574 -0.6441  0.2423 -0.7299
   87SLPC  H13X 8437   4.415   6.605   3.567 -0.9510  0.6856 -0.7747
   87SLPC  H13Y 8438   4.354   6.451   3.630  2.1329  0.2732 -2.0284
   87SLPC  C314 8439   4.224   6.624   3.661  0.0800 -0.4042 -0.0174
   87SLPC  H14X 8440   4.135   6.561   3.682  0.0368  0.0948  1.3888
   87SLPC  H14Y 8441   4.184   6.718   3.617 -1.3050 -0.4107  1.1599
   87SLPC  C315 8442   4.287   6.666   3.792 -0.3832  0.1816 -0.0974
   87SLPC  H15X 8443   4.380   6.726   3.789  0.6265 -1.3302 -0.5163
   87SLPC  H15Y 8444   4.310   6.572   3.848  0.0153  0.9419  1.0469
   87SLPC  C316 8445   4.184   6.752   3.878  0.2083  0.6163 -0.0071
   87SLPC  H16X 8446   4.101   6.682   3.903  0.0206  1.4030  1.7016
   87SLPC  H16Y 8447   4.149   6.837   3.816 -0.0583 -0.8493 -1.9825
   87SLPC  C317 8448   4.246   6.805   4.009  0.0083 -0.2063 -0.5953
   87SLPC  H17X 8449   4.182   6.884   4.053  0.6545 -0.0026 -0.0074
   87SLPC  H17Y 8450   4.348   6.848   4.000  0.5819 -0.8023  2.3139
   87SLPC  C318 8451   4.260   6.686   4.106  0.7856 -0.7763 -0.3610
   87SLPC  H18X 8452   4.300   6.604   4.043 -0.5347 -0.8247 -1.1824
   87SLPC  H18Y 8453   4.163   6.654   4.151  0.9869 -0.9990 -0.0871
   87SLPC  H18Z 8454   4.319   6.717   4.195 -1.1911  0.2467  0.6847
   88SLPC     N 8455   5.102   2.839   1.908  0.0568 -0.1619  0.1979
   88SLPC   C13 8456   5.164   2.971   1.893 -0.2713 -0.0510 -0.2642
   88SLPC  H13A 8457   5.262   2.961   1.850  0.2942  0.4037  0.8780
   88SLPC  H13B 8458   5.095   3.032   1.836  0.6163  1.0563 -0.1871
   88SLPC  H13C 8459   5.164   3.025   1.987 -1.3455 -0.9735  0.2991
   88SLPC   C14 8460   5.184   2.743   1.988  0.0679 -0.0102 -0.2343
   88SLPC  H14A 8461   5.130   2.650   1.986  0.0033  0.0331 -2.0386
   88SLPC  H14B 8462   5.282   2.717   1.950 -0.0283 -0.9812  0.1636
   88SLPC  H14C 8463   5.184   2.755   2.096  0.9281 -4.1951  0.4042
   88SLPC   C15 8464   5.081   2.789   1.769  0.0452 -0.9642 -0.9191
   88SLPC  H15A 8465   5.022   2.859   1.711 -1.2439 -2.3263 -1.2985
   88SLPC  H15B 8466   5.174   2.775   1.716  0.1534  0.7434 -1.2503
   88SLPC  H15C 8467   5.016   2.703   1.768 -1.9753  0.4115  1.2903
   88SLPC   C12 8468   4.969   2.852   1.987 -0.2307  0.6523 -0.5401
   88SLPC  H12A 8469   4.988   2.860   2.093  1.5643  0.2086 -0.7947
   88SLPC  H12B 8470   4.919   2.758   1.973  1.0173 -0.0954 -0.1441
   88SLPC   C11 8471   4.867   2.949   1.934 -0.1400 -0.7284  0.2087
   88SLPC  H11A 8472   4.764   2.935   1.973 -0.6423  1.3545 -0.2316
   88SLPC  H11B 8473   4.847   2.937   1.826 -0.2950 -0.2440  0.1794
   88SLPC     P 8474   4.869   3.162   2.081 -0.0514  0.2317 -0.5351
   88SLPC   O13 8475   4.968   3.275   2.094 -0.1204 -0.4734  0.7448
   88SLPC   O14 8476   4.729   3.213   2.063 -0.3785  0.0562 -0.5704
   88SLPC   O12 8477   4.904   3.085   1.951 -0.4570  0.0890 -0.0339
   88SLPC   O11 8478   4.878   3.061   2.205 -0.1697  0.5554 -0.2796
   88SLPC    C1 8479   4.785   3.055   2.311  0.0000 -0.0545 -0.6526
   88SLPC    HA 8480   4.680   3.057   2.276 -1.5104 -0.4885  3.3503
   88SLPC    HB 8481   4.772   2.955   2.358 -2.1632 -0.4792 -2.0103
   88SLPC    C2 8482   4.813   3.164   2.417  0.1840 -0.5748  0.2639
   88SLPC    HS 8483   4.851   3.254   2.365 -0.8215 -1.1426 -1.5402
   88SLPC   O21 8484   4.908   3.105   2.515  0.2658 -0.6811 -0.1789
   88SLPC   C21 8485   5.012   3.181   2.543 -0.0936 -0.5450  0.3276
   88SLPC   O22 8486   5.053   3.281   2.477 -0.5338 -0.2386  0.0279
   88SLPC   C22 8487   5.087   3.130   2.669 -0.1934  0.0500  0.8614
   88SLPC   H2R 8488   5.075   3.019   2.666  1.3165 -0.1169 -0.1539
   88SLPC   H2S 8489   5.193   3.161   2.661  0.0038 -0.8833 -0.4885
   88SLPC    C3 8490   4.679   3.193   2.489 -0.0798 -0.5310 -0.4197
   88SLPC    HX 8491   4.636   3.097   2.523 -1.0184 -0.3149 -0.9649
   88SLPC    HY 8492   4.613   3.245   2.417 -1.0256  0.9047  1.3883
   88SLPC   O31 8493   4.709   3.273   2.611  0.3590 -0.5778 -0.1142
   88SLPC   C31 8494   4.723   3.407   2.599  0.1725  0.5081 -0.2120
   88SLPC   O32 8495   4.725   3.468   2.493 -0.2833 -0.0909  0.4080
   88SLPC   C32 8496   4.760   3.464   2.732  0.1219 -1.2495  0.2546
   88SLPC   H2X 8497   4.747   3.573   2.747 -0.4815 -1.2862 -0.0055
   88SLPC   H2Y 8498   4.871   3.459   2.739  0.1251  0.0889  1.8570
   88SLPC   C23 8499   5.020   3.182   2.794 -0.6822  0.0729  0.2309
   88SLPC   H3R 8500   4.924   3.127   2.807  0.2228 -1.7486 -0.3874
   88SLPC   H3S 8501   4.997   3.290   2.800  1.2859  0.4611  2.3208
   88SLPC   C24 8502   5.112   3.155   2.922  0.0060 -0.9791  0.2966
   88SLPC   H4R 8503   5.204   3.217   2.912  0.7955 -1.9291  1.5339
   88SLPC   H4S 8504   5.154   3.053   2.926  2.8831  0.1383  1.1223
   88SLPC   C25 8505   5.039   3.191   3.056 -0.2907 -0.1032  0.1744
   88SLPC   H5R 8506   4.943   3.134   3.057  0.1727 -1.0790 -2.2565
   88SLPC   H5S 8507   5.013   3.298   3.066  1.7867  0.2578  2.7928
   88SLPC   C26 8508   5.120   3.154   3.187  0.2180 -0.7570  0.2811
   88SLPC   H6R 8509   5.209   3.220   3.192 -1.0510  0.9932  0.7479
   88SLPC   H6S 8510   5.167   3.053   3.181  2.3880  0.0366  2.2272
   88SLPC   C27 8511   5.038   3.177   3.316 -0.3968 -0.7924 -0.1813
   88SLPC   H7R 8512   4.995   3.279   3.310  1.2476 -0.0085  0.5910
   88SLPC   H7S 8513   5.097   3.179   3.411  0.0125  0.5371 -0.4462
   88SLPC   C28 8514   4.926   3.071   3.337  0.0303  0.8363 -0.2272
   88SLPC   H8R 8515   4.973   2.971   3.330 -0.3441  0.6158  0.3750
   88SLPC   H8S 8516   4.857   3.078   3.251  1.7365  0.7160 -1.6646
   88SLPC   C29 8517   4.857   3.092   3.473 -0.0190  0.2698 -0.0534
   88SLPC   H9R 8518   4.770   3.160   3.466  1.4247  2.2213  0.1357
   88SLPC  C210 8519   4.890   3.044   3.590  0.0238 -0.3084 -0.1325
   88SLPC  H10R 8520   4.819   3.074   3.669  0.0767 -0.3126 -0.0830
   88SLPC  C211 8521   5.001   2.948   3.641 -0.4507 -0.3472  0.3640
   88SLPC  H11R 8522   5.022   2.877   3.559 -0.5391 -2.4220  2.0431
   88SLPC  H11S 8523   4.971   2.875   3.719  0.4170  0.2647  1.2911
   88SLPC  C212 8524   5.117   3.031   3.691 -0.6409 -0.3735 -0.3224
   88SLPC  H12R 8525   5.142   3.114   3.624  3.3771 -2.1847 -1.3739
   88SLPC  C213 8526   5.207   3.014   3.790  0.1912 -0.4305  0.7715
   88SLPC  H13R 8527   5.283   3.093   3.803  1.2535 -1.1452 -0.8597
   88SLPC  C214 8528   5.209   2.908   3.895 -0.0487  1.0860 -0.4263
   88SLPC  H14R 8529   5.285   2.834   3.861 -0.1611  2.4002 -3.8473
   88SLPC  H14S 8530   5.110   2.857   3.895  0.6165 -0.2513 -0.0391
   88SLPC  C215 8531   5.247   2.956   4.034 -0.1410 -0.2728  0.6870
   88SLPC  H15R 8532   5.170   3.035   4.050 -1.3848 -1.7127  2.2248
   88SLPC  H15S 8533   5.354   2.987   4.032  0.5109 -2.3433  1.0943
   88SLPC  C216 8534   5.223   2.859   4.141 -0.0613  0.2096 -0.2685
   88SLPC  H16R 8535   5.300   2.779   4.138 -0.7960 -0.5499  0.4075
   88SLPC  H16S 8536   5.122   2.813   4.129 -1.4332  2.8415  0.3163
   88SLPC  C217 8537   5.241   2.915   4.284  0.4012  0.5164 -0.2057
   88SLPC  H17R 8538   5.198   3.016   4.303  1.5777  0.8644  0.7253
   88SLPC  H17S 8539   5.349   2.922   4.309  0.7017 -0.6376 -1.0663
   88SLPC  C218 8540   5.177   2.822   4.391 -0.2489 -0.0767  0.2223
   88SLPC  H18R 8541   5.183   2.872   4.489 -1.7328  0.8817 -0.1507
   88SLPC  H18S 8542   5.240   2.733   4.411 -0.5420 -0.2805  0.2543
   88SLPC  H18T 8543   5.073   2.795   4.361 -1.7675  1.8010  3.3296
   88SLPC   C33 8544   4.712   3.392   2.858  0.3431  0.0376 -0.0090
   88SLPC   H3X 8545   4.784   3.308   2.871 -0.6974 -0.7377  0.9976
   88SLPC   H3Y 8546   4.610   3.350   2.849  0.2210  0.6015 -1.5982
   88SLPC   C34 8547   4.723   3.483   2.988 -0.0117  0.2841 -0.3498
   88SLPC   H4X 8548   4.660   3.574   2.991  1.0118  0.9920  2.1756
   88SLPC   H4Y 8549   4.828   3.518   2.995 -0.0010  0.4981 -1.3726
   88SLPC   C35 8550   4.684   3.402   3.114 -0.0563 -0.2162  0.7010
   88SLPC   H5X 8551   4.757   3.332   3.159  1.4148  0.2965 -0.7567
   88SLPC   H5Y 8552   4.595   3.342   3.084 -0.4006  1.1114 -1.1116
   88SLPC   C36 8553   4.657   3.492   3.233  0.4618  0.0575 -0.0664
   88SLPC   H6X 8554   4.568   3.553   3.209  0.9372  0.4178 -0.9476
   88SLPC   H6Y 8555   4.735   3.571   3.243 -0.4608  1.2724 -1.9852
   88SLPC   C37 8556   4.620   3.429   3.368 -0.5912  0.1063  0.3273
   88SLPC   H7X 8557   4.639   3.320   3.368  0.2014  0.2366  0.1060
   88SLPC   H7Y 8558   4.513   3.444   3.394 -1.2887 -0.3936 -2.0466
   88SLPC   C38 8559   4.693   3.500   3.480 -0.2441 -0.4154 -0.8207
   88SLPC   H8X 8560   4.655   3.459   3.576  0.7540  1.6747  0.5528
   88SLPC   H8Y 8561   4.668   3.608   3.483  0.5899 -0.2135 -0.7563
   88SLPC   C39 8562   4.851   3.474   3.489  0.0797  0.0760 -0.6238
   88SLPC   H9X 8563   4.888   3.524   3.397 -0.7730  1.3680 -0.2835
   88SLPC   H9Y 8564   4.867   3.364   3.478 -1.8440 -0.3096 -0.0638
   88SLPC  C310 8565   4.920   3.533   3.616  0.8232 -0.7936 -0.8757
   88SLPC  H10X 8566   4.890   3.640   3.617 -1.2448 -1.3198  0.4625
   88SLPC  H10Y 8567   5.029   3.532   3.600  0.8429 -1.2907 -0.7250
   88SLPC  C311 8568   4.890   3.465   3.748  0.3049 -0.1097 -0.2375
   88SLPC  H11X 8569   4.914   3.357   3.739  0.4972  0.0062 -1.3017
   88SLPC  H11Y 8570   4.781   3.473   3.768  0.1586  0.7828 -1.2635
   88SLPC  C312 8571   4.963   3.523   3.872  0.2468  0.3886  0.2234
   88SLPC  H12X 8572   4.962   3.633   3.859  0.9686  0.4497  0.6379
   88SLPC  H12Y 8573   5.070   3.495   3.882  0.6858  1.0792 -1.9435
   88SLPC  C313 8574   4.889   3.473   3.999 -0.2994  0.1646  0.1328
   88SLPC  H13X 8575   4.782   3.504   3.996 -0.4389 -0.2411  0.8952
   88SLPC  H13Y 8576   4.930   3.531   4.084 -0.5156  1.6238 -0.7246
   88SLPC  C314 8577   4.902   3.318   4.011  0.2365 -0.1623  0.8199
   88SLPC  H14X 8578   5.008   3.287   4.014  0.2663 -0.6588 -2.2268
   88SLPC  H14Y 8579   4.854   3.270   3.923 -0.4298  0.1989  0.9797
   88SLPC  C315 8580   4.834   3.275   4.138 -0.3478 -0.3274 -0.9096
   88SLPC  H15X 8581   4.724   3.276   4.125 -0.6242 -5.0571 -0.6178
   88SLPC  H15Y 8582   4.874   3.340   4.219  1.1994 -1.4018 -0.7598
   88SLPC  C316 8583   4.865   3.129   4.179  0.1189  0.2171  0.1514
   88SLPC  H16X 8584   4.814   3.102   4.274 -0.7210 -2.4422 -0.9597
   88SLPC  H16Y 8585   4.972   3.126   4.212 -0.1268  0.7403  1.0269
   88SLPC  C317 8586   4.852   3.020   4.066  0.0524 -0.0875 -0.2477
   88SLPC  H17X 8587   4.883   2.921   4.106  2.0179  0.3014 -0.7113
   88SLPC  H17Y 8588   4.932   3.027   3.990 -1.6572  1.1566 -2.0315
   88SLPC  C318 8589   4.710   3.007   3.992 -0.6236 -0.1405 -0.5121
   88SLPC  H18X 8590   4.673   3.104   3.953 -1.7761 -0.2696  0.2088
   88SLPC  H18Y 8591   4.636   2.970   4.066  0.1435  0.5143  0.6253
   88SLPC  H18Z 8592   4.720   2.938   3.905  6.1993 -1.9657  1.0979
   89SAPE     N 8593   5.050   1.988   6.547 -0.4296 -0.0063 -0.3154
   89SAPE   HN1 8594   5.005   2.081   6.556 -0.7065  0.0353 -1.7932
   89SAPE   HN2 8595   5.135   1.996   6.487 -1.0343  0.5462 -1.1396
   89SAPE   HN3 8596   4.994   1.915   6.498  0.4908 -2.0831  1.5470
   89SAPE   C12 8597   5.085   1.917   6.682 -0.2417  0.4301  0.4628
   89SAPE  H12A 8598   4.998   1.919   6.751 -0.5404  0.4648  0.0860
   89SAPE  H12B 8599   5.153   1.986   6.736  0.9204  2.1569 -2.9643
   89SAPE   C11 8600   5.135   1.776   6.647 -0.1305  0.3332 -0.0835
   89SAPE  H11A 8601   5.054   1.712   6.606 -0.3478  1.2832 -1.2153
   89SAPE  H11B 8602   5.142   1.740   6.752 -0.2168  2.4674  0.6992
   89SAPE     P 8603   5.331   1.634   6.548  0.3600 -0.3612 -0.2204
   89SAPE   O13 8604   5.479   1.643   6.559 -0.3794  0.1802 -0.4001
   89SAPE   O14 8605   5.274   1.531   6.638  0.7286  0.2898  0.9628
   89SAPE   O12 8606   5.258   1.770   6.577 -0.1354 -0.2757  0.4199
   89SAPE   O11 8607   5.301   1.593   6.404  0.0762 -0.2676  0.5037
   89SAPE    C1 8608   5.181   1.633   6.339 -0.1740 -0.4686  0.3826
   89SAPE    HA 8609   5.091   1.624   6.404 -0.9529  0.7712 -0.4753
   89SAPE    HB 8610   5.188   1.741   6.314 -0.8362 -0.4742  0.1499
   89SAPE    C2 8611   5.147   1.550   6.211  0.5723 -0.3820  0.6250
   89SAPE    HS 8612   5.074   1.610   6.152  1.3879 -0.3957 -0.4219
   89SAPE   O21 8613   5.092   1.420   6.248  0.2626 -0.1862 -0.5122
   89SAPE   C21 8614   4.965   1.423   6.293  0.0212  0.0424  0.0526
   89SAPE   O22 8615   4.901   1.525   6.303  0.0736  0.3864 -0.0494
   89SAPE   C22 8616   4.920   1.287   6.349 -0.0114  0.6304 -0.2619
   89SAPE   H2R 8617   5.015   1.239   6.377  0.0365  1.3032  0.7796
   89SAPE   H2S 8618   4.870   1.310   6.446 -2.6580  1.5742 -1.7328
   89SAPE    C3 8619   5.277   1.532   6.132  0.2902  0.4352 -0.4398
   89SAPE    HX 8620   5.344   1.474   6.199  0.0454  1.4941  0.7572
   89SAPE    HY 8621   5.324   1.631   6.115 -0.5188  0.9835  0.3512
   89SAPE   O31 8622   5.260   1.450   6.014 -0.9320 -0.1777  0.1427
   89SAPE   C31 8623   5.196   1.496   5.908 -0.0397  0.4740  0.3271
   89SAPE   O32 8624   5.135   1.603   5.910 -0.0614  0.2716  0.4498
   89SAPE   C32 8625   5.219   1.404   5.785 -0.4607 -0.3858 -0.1213
   89SAPE   H2X 8626   5.190   1.300   5.813 -0.1253 -0.2434  0.7726
   89SAPE   H2Y 8627   5.327   1.413   5.761 -1.1224  1.5015 -2.9743
   89SAPE   C23 8628   4.826   1.190   6.272  0.3849 -0.4525 -0.1414
   89SAPE   H3R 8629   4.722   1.227   6.265 -0.1289 -0.9333  3.1154
   89SAPE   H3S 8630   4.819   1.094   6.329 -2.2378 -1.3668 -1.8484
   89SAPE   C24 8631   4.879   1.142   6.132 -0.3813 -0.2250 -0.5210
   89SAPE   H4R 8632   4.805   1.065   6.101 -3.1837  2.1185 -0.1385
   89SAPE   H4S 8633   4.973   1.088   6.156 -1.2205 -1.7585 -0.5583
   89SAPE   C25 8634   4.894   1.255   6.027 -0.3888 -0.1190 -0.0476
   89SAPE   H5R 8635   4.993   1.302   6.020  0.1915 -1.0853  1.3208
   89SAPE   C26 8636   4.793   1.324   5.973  0.1967  0.3428 -0.0839
   89SAPE   H6R 8637   4.816   1.402   5.899 -2.4535  0.2185 -1.1636
   89SAPE   C27 8638   4.645   1.311   6.000 -0.5820  0.0393  0.1494
   89SAPE   H7R 8639   4.628   1.210   6.043  0.3097  0.3600  1.3310
   89SAPE   H7S 8640   4.584   1.310   5.907 -0.4720 -1.3884  0.0779
   89SAPE   C28 8641   4.585   1.416   6.089  0.2040 -0.2179 -0.2881
   89SAPE   H8R 8642   4.587   1.392   6.197 -1.3018 -1.0846 -0.4270
   89SAPE   C29 8643   4.538   1.532   6.043  0.0320  0.1152 -0.7199
   89SAPE   H9R 8644   4.502   1.597   6.124 -0.3048 -2.6378  1.4454
   89SAPE  C210 8645   4.535   1.587   5.902  0.1543 -0.3221 -0.3125
   89SAPE  H10R 8646   4.457   1.666   5.893 -0.3138 -0.3886  2.4588
   89SAPE  H10S 8647   4.498   1.516   5.825 -2.0931  2.6648 -2.2422
   89SAPE  C211 8648   4.666   1.645   5.857 -0.1238 -0.1645  0.1566
   89SAPE  H11R 8649   4.719   1.699   5.938  0.1496  1.2861 -0.9349
   89SAPE  C212 8650   4.726   1.636   5.737  0.3658  0.1443  0.4118
   89SAPE  H12R 8651   4.822   1.689   5.729  1.2246 -1.4236  0.0309
   89SAPE  C213 8652   4.689   1.563   5.606  0.1245 -0.1035 -0.2368
   89SAPE  H13R 8653   4.680   1.456   5.631  1.0605  0.1464  1.3415
   89SAPE  H13S 8654   4.777   1.582   5.539 -0.4247  1.3976 -0.5884
   89SAPE  C214 8655   4.563   1.597   5.531 -0.2177  0.4859 -0.2737
   89SAPE  H14R 8656   4.476   1.584   5.597  1.9193 -0.0251  2.6611
   89SAPE  C215 8657   4.545   1.632   5.404 -0.5004 -0.3820  0.0133
   89SAPE  H15R 8658   4.441   1.644   5.370 -0.6670  1.6179  1.1212
   89SAPE  C216 8659   4.656   1.654   5.300  0.1958 -0.4099 -0.4589
   89SAPE  H16R 8660   4.754   1.620   5.338 -0.5290 -0.2531  1.6700
   89SAPE  H16S 8661   4.672   1.764   5.294  1.0153 -0.5592 -1.1003
   89SAPE  C217 8662   4.627   1.586   5.168  0.2133 -0.2726  0.4086
   89SAPE  H17R 8663   4.524   1.615   5.138  1.1099  1.3386 -1.3513
   89SAPE  H17S 8664   4.645   1.476   5.175 -0.7069 -0.6152 -1.7512
   89SAPE  C218 8665   4.722   1.621   5.063 -0.0422  0.5195  0.0572
   89SAPE  H18R 8666   4.721   1.529   5.000 -2.4716  0.5274 -0.0050
   89SAPE  H18S 8667   4.826   1.628   5.101 -0.4443 -0.9781  1.5185
   89SAPE  C219 8668   4.678   1.751   4.999  1.2626 -0.4997  0.0732
   89SAPE  H19R 8669   4.671   1.833   5.073 -1.5767 -0.8956  0.3601
   89SAPE  H19S 8670   4.575   1.740   4.958  1.1042  0.7170  0.1114
   89SAPE  C220 8671   4.775   1.803   4.894  0.7437 -0.6109  0.4326
   89SAPE  H20R 8672   4.725   1.890   4.845  1.0196 -0.2406  0.8012
   89SAPE  H20S 8673   4.786   1.721   4.820  0.2391 -1.2821  1.0763
   89SAPE  H20T 8674   4.868   1.830   4.948  0.7037  1.1063 -0.2839
   89SAPE   C33 8675   5.136   1.441   5.659 -0.4996 -0.2069  0.0360
   89SAPE   H3X 8676   5.181   1.533   5.617 -0.5452  0.2130  0.8913
   89SAPE   H3Y 8677   5.033   1.467   5.692 -0.4326 -1.2367  1.1173
   89SAPE   C34 8678   5.104   1.325   5.568 -0.2488 -0.1279 -0.0323
   89SAPE   H4X 8679   5.057   1.243   5.626  1.1149  0.0941  1.4660
   89SAPE   H4Y 8680   5.197   1.283   5.524 -0.8680 -0.2400 -1.2958
   89SAPE   C35 8681   5.013   1.371   5.454 -0.4894  0.3059 -0.4799
   89SAPE   H5X 8682   5.073   1.439   5.389 -0.8354  0.2718 -0.8419
   89SAPE   H5Y 8683   4.921   1.419   5.493 -1.5508 -1.3513 -0.8484
   89SAPE   C36 8684   4.957   1.251   5.376 -0.1191 -0.1962 -0.8974
   89SAPE   H6X 8685   4.891   1.187   5.437 -2.9784  2.4361 -0.9714
   89SAPE   H6Y 8686   5.044   1.185   5.356  1.2803  1.5648 -0.8874
   89SAPE   C37 8687   4.908   1.294   5.237 -0.2044 -0.3689  0.1847
   89SAPE   H7X 8688   4.998   1.341   5.192 -0.7570 -0.1445 -0.7124
   89SAPE   H7Y 8689   4.822   1.364   5.240 -0.5056 -0.7506  0.6816
   89SAPE   C38 8690   4.851   1.191   5.144  0.3153  0.7660  0.5647
   89SAPE   H8X 8691   4.914   1.100   5.133 -0.2775  0.3828  0.3463
   89SAPE   H8Y 8692   4.852   1.233   5.041 -0.4047 -0.5372  0.0079
   89SAPE   C39 8693   4.704   1.163   5.163 -0.2717  0.5077 -0.9799
   89SAPE   H9X 8694   4.654   1.255   5.200  1.0115  0.6210  0.6059
   89SAPE   H9Y 8695   4.701   1.091   5.248  1.8913  1.3385 -0.1304
   89SAPE  C310 8696   4.633   1.108   5.043  1.4024 -0.2531  0.2971
   89SAPE  H10X 8697   4.678   1.014   5.005 -0.5051 -1.0036 -0.2075
   89SAPE  H10Y 8698   4.636   1.185   4.963 -2.1174 -0.7740 -0.5046
   89SAPE  C311 8699   4.486   1.091   5.076  0.0393 -0.2273 -0.2718
   89SAPE  H11X 8700   4.445   1.188   5.111 -0.0242  0.0636 -1.1287
   89SAPE  H11Y 8701   4.471   1.012   5.153  0.8393 -2.7529 -2.5486
   89SAPE  C312 8702   4.396   1.065   4.950  0.1086 -0.9434 -0.0963
   89SAPE  H12X 8703   4.426   0.972   4.899  0.4425 -0.6562 -0.4351
   89SAPE  H12Y 8704   4.395   1.159   4.891 -2.6366 -1.3002 -0.7431
   89SAPE  C313 8705   4.247   1.043   4.994  0.4861  0.1905 -0.5865
   89SAPE  H13X 8706   4.211   1.144   5.021  3.0261  1.4218 -1.5379
   89SAPE  H13Y 8707   4.233   0.984   5.087 -1.2862 -0.3651 -1.1619
   89SAPE  C314 8708   4.162   0.980   4.886 -0.2436 -0.1898 -0.0105
   89SAPE  H14X 8709   4.203   0.881   4.854 -0.8435  0.1674 -2.0138
   89SAPE  H14Y 8710   4.168   1.048   4.799 -0.4552 -0.0625  0.0731
   89SAPE  C315 8711   4.012   0.960   4.933 -0.3820 -0.7091 -0.7935
   89SAPE  H15X 8712   4.020   0.899   5.025  0.2721 -1.8552 -1.5788
   89SAPE  H15Y 8713   3.964   0.883   4.870 -1.1935 -0.3444 -0.6326
   89SAPE  C316 8714   3.920   1.078   4.916  0.5668 -0.0664  0.1016
   89SAPE  H16X 8715   3.933   1.112   4.811 -1.1815  3.8278  0.9693
   89SAPE  H16Y 8716   3.941   1.155   4.994 -0.8831 -1.5653  2.0646
   89SAPE  C317 8717   3.777   1.035   4.922  0.4665  0.2511  0.0541
   89SAPE  H17X 8718   3.767   0.943   4.861  0.2263 -0.3033  0.9081
   89SAPE  H17Y 8719   3.706   1.117   4.898 -0.7248 -0.3582  1.3493
   89SAPE  C318 8720   3.741   1.002   5.070 -0.5855  0.0999 -0.0437
   89SAPE  H18X 8721   3.763   1.099   5.120  1.3262  0.3425 -1.2679
   89SAPE  H18Y 8722   3.808   0.926   5.117 -0.7490 -0.1935 -0.2814
   89SAPE  H18Z 8723   3.633   0.977   5.073 -0.6886  0.4507 -0.6323
   90SAPE     N 8724   3.603   5.713   6.382 -0.3309  0.2898 -0.2917
   90SAPE   HN1 8725   3.689   5.771   6.367 -0.3685  0.5811  0.5612
   90SAPE   HN2 8726   3.630   5.623   6.427 -2.8810 -0.6515 -0.5007
   90SAPE   HN3 8727   3.571   5.686   6.287  0.1324  1.2208 -0.7240
   90SAPE   C12 8728   3.498   5.776   6.465  0.7400 -0.8997 -0.3914
   90SAPE  H12A 8729   3.558   5.848   6.525  2.0577 -0.7308 -1.8399
   90SAPE  H12B 8730   3.451   5.697   6.528  0.1532  0.2907  0.7263
   90SAPE   C11 8731   3.390   5.850   6.380  0.1170 -0.6175 -0.1365
   90SAPE  H11A 8732   3.332   5.773   6.323 -0.2796  0.3382 -1.0523
   90SAPE  H11B 8733   3.444   5.907   6.302 -0.0105 -1.9363 -1.2356
   90SAPE     P 8734   3.181   5.885   6.526 -0.0552 -0.2214  0.2991
   90SAPE   O13 8735   3.218   5.759   6.593 -0.3989  0.0892 -0.1879
   90SAPE   O14 8736   3.108   5.991   6.606  0.7677  0.2081  0.1760
   90SAPE   O12 8737   3.316   5.942   6.460  0.2840 -0.4013  0.2243
   90SAPE   O11 8738   3.099   5.855   6.397  0.0728 -0.0791  0.2174
   90SAPE    C1 8739   3.059   5.969   6.319 -0.0118 -0.1525 -0.3907
   90SAPE    HA 8740   2.949   5.960   6.305  0.1706 -0.1318 -2.0210
   90SAPE    HB 8741   3.072   6.072   6.357 -0.5818 -0.2018 -0.0468
   90SAPE    C2 8742   3.129   5.953   6.186 -0.0994 -0.2730 -0.0495
   90SAPE    HS 8743   3.237   5.977   6.196 -0.6030  3.0790 -1.3334
   90SAPE   O21 8744   3.065   6.050   6.096 -0.1729 -0.0015  0.1918
   90SAPE   C21 8745   3.130   6.060   5.983 -0.6869 -0.6761  0.4056
   90SAPE   O22 8746   3.241   6.015   5.958 -0.3909 -0.0561  0.0212
   90SAPE   C22 8747   3.059   6.144   5.885  0.0824 -0.2830 -0.0236
   90SAPE   H2R 8748   2.956   6.154   5.926  0.9719  0.6731  2.1882
   90SAPE   H2S 8749   3.103   6.246   5.891 -0.1490 -0.1396 -0.7150
   90SAPE    C3 8750   3.123   5.807   6.131 -0.3190  0.6726  0.4057
   90SAPE    HX 8751   3.139   5.733   6.212 -0.1553 -1.5961 -1.5866
   90SAPE    HY 8752   3.209   5.794   6.061  0.3358  0.4421  1.2437
   90SAPE   O31 8753   2.993   5.766   6.082 -0.4866  0.0961 -0.3599
   90SAPE   C31 8754   3.003   5.667   5.995  0.0840 -0.3610  0.3280
   90SAPE   O32 8755   3.102   5.628   5.941 -0.4347  0.1163  0.3847
   90SAPE   C32 8756   2.858   5.619   5.965 -0.7206  0.1522 -0.9627
   90SAPE   H2X 8757   2.803   5.712   5.936  1.5569  1.8819 -0.0545
   90SAPE   H2Y 8758   2.830   5.576   6.063  4.3946  1.2437  1.2974
   90SAPE   C23 8759   3.071   6.093   5.746  0.0583  0.1616 -0.0125
   90SAPE   H3R 8760   3.173   6.057   5.721  0.3093  0.4710  0.5529
   90SAPE   H3S 8761   3.054   6.181   5.681  3.5099  1.3210  0.4905
   90SAPE   C24 8762   2.966   5.980   5.728  0.1044  0.1221  0.5456
   90SAPE   H4R 8763   2.863   6.020   5.742  0.0495  0.1989 -0.0570
   90SAPE   H4S 8764   2.979   5.894   5.796  1.2696 -1.2227 -1.2824
   90SAPE   C25 8765   2.979   5.918   5.593 -0.5688 -0.4796 -0.3000
   90SAPE   H5R 8766   3.054   5.840   5.575 -1.8120 -2.2248  1.6815
   90SAPE   C26 8767   2.893   5.943   5.486 -0.2138 -0.1728  0.5663
   90SAPE   H6R 8768   2.899   5.880   5.396  0.8615  0.9812 -0.2011
   90SAPE   C27 8769   2.775   6.043   5.478  0.5686 -0.0490 -0.1680
   90SAPE   H7R 8770   2.786   6.098   5.382  0.1287 -1.3801 -1.0092
   90SAPE   H7S 8771   2.800   6.121   5.552  0.7477 -1.1301  0.9439
   90SAPE   C28 8772   2.639   5.980   5.515  0.0039 -0.7424 -0.2403
   90SAPE   H8R 8773   2.616   5.977   5.622 -1.3104 -0.7298 -0.4934
   90SAPE   C29 8774   2.542   5.944   5.427  0.3538 -0.8494 -0.6563
   90SAPE   H9R 8775   2.439   5.918   5.455 -1.8217  1.8836 -5.0654
   90SAPE  C210 8776   2.549   5.954   5.274  0.0751 -0.6199 -0.0605
   90SAPE  H10R 8777   2.651   5.985   5.243  0.3505 -0.9801  0.4611
   90SAPE  H10S 8778   2.483   6.038   5.243  2.7271  2.4674  1.9819
   90SAPE  C211 8779   2.513   5.836   5.193 -0.1955  0.0788  0.1960
   90SAPE  H11R 8780   2.420   5.791   5.231 -0.4885  1.7103  1.5330
   90SAPE  C212 8781   2.563   5.803   5.073  0.0067 -0.8290  0.9574
   90SAPE  H12R 8782   2.528   5.708   5.030  0.1912  0.1325 -1.4994
   90SAPE  C213 8783   2.683   5.867   5.007  0.2813 -0.2011 -0.5577
   90SAPE  H13R 8784   2.697   5.973   5.038  2.4222 -0.1578 -1.4743
   90SAPE  H13S 8785   2.667   5.862   4.897  0.2462 -2.5354 -0.4980
   90SAPE  C214 8786   2.815   5.803   5.044  0.4980  0.1705  0.4953
   90SAPE  H14R 8787   2.873   5.851   5.125  2.3165 -0.4287 -0.4159
   90SAPE  C215 8788   2.871   5.691   4.987 -0.3031 -0.4587  0.2311
   90SAPE  H15R 8789   2.974   5.665   5.015  1.5014  4.4454 -0.7564
   90SAPE  C216 8790   2.813   5.611   4.869 -0.4218 -0.4501 -0.1327
   90SAPE  H16R 8791   2.710   5.641   4.837 -0.8035 -1.4065  0.1673
   90SAPE  H16S 8792   2.796   5.507   4.904 -1.7799 -0.2381 -0.1053
   90SAPE  C217 8793   2.898   5.593   4.745 -0.5395 -0.0060 -0.1207
   90SAPE  H17R 8794   2.986   5.527   4.756  0.2105  1.2652  1.9798
   90SAPE  H17S 8795   2.936   5.693   4.716 -0.0286 -0.5207 -1.3175
   90SAPE  C218 8796   2.820   5.542   4.619 -0.9356 -0.3917  0.2338
   90SAPE  H18R 8797   2.711   5.564   4.626 -0.6070  0.9741  2.0553
   90SAPE  H18S 8798   2.828   5.432   4.616 -0.6370 -0.3829 -2.9344
   90SAPE  C219 8799   2.897   5.580   4.491  0.2423 -0.2671  0.0876
   90SAPE  H19R 8800   2.915   5.690   4.488  0.7823 -0.3489  0.1035
   90SAPE  H19S 8801   2.833   5.567   4.401 -1.2406 -1.3762  1.2556
   90SAPE  C220 8802   3.034   5.500   4.477  0.2780 -0.7194 -0.4169
   90SAPE  H20R 8803   3.006   5.398   4.444  0.7157 -1.0885  0.3393
   90SAPE  H20S 8804   3.087   5.493   4.575  1.2023  1.5127 -0.7023
   90SAPE  H20T 8805   3.103   5.541   4.400 -1.0761  2.9713  0.1061
   90SAPE   C33 8806   2.853   5.509   5.862 -0.3627 -0.0324  0.5031
   90SAPE   H3X 8807   2.899   5.413   5.894  2.1575  0.8059 -0.3253
   90SAPE   H3Y 8808   2.920   5.547   5.781 -1.6619  1.9126  0.2623
   90SAPE   C34 8809   2.707   5.491   5.824  0.2847  0.1855  0.4812
   90SAPE   H4X 8810   2.641   5.500   5.914 -0.9386  1.5387 -0.5179
   90SAPE   H4Y 8811   2.683   5.390   5.784 -1.8480 -0.7191  3.5751
   90SAPE   C35 8812   2.645   5.596   5.737 -0.3380 -0.3058  0.1687
   90SAPE   H5X 8813   2.637   5.687   5.800  0.3162 -0.9267  1.1566
   90SAPE   H5Y 8814   2.541   5.564   5.713 -0.1885 -1.3915  0.9245
   90SAPE   C36 8815   2.728   5.640   5.614  0.1222 -0.3200 -0.0991
   90SAPE   H6X 8816   2.820   5.687   5.655  1.5846 -1.9214 -1.4141
   90SAPE   H6Y 8817   2.674   5.720   5.558  0.3878 -0.9344 -1.2707
   90SAPE   C37 8818   2.767   5.527   5.521 -0.3260  0.1812  0.1431
   90SAPE   H7X 8819   2.683   5.474   5.470 -1.8805  0.1761  2.5052
   90SAPE   H7Y 8820   2.833   5.458   5.578 -2.3019 -1.1574  0.9232
   90SAPE   C38 8821   2.869   5.555   5.401 -0.0838  0.1316 -0.3668
   90SAPE   H8X 8822   2.961   5.591   5.452  0.4224  1.1788 -1.9459
   90SAPE   H8Y 8823   2.828   5.641   5.344 -3.5722 -0.3405  1.1382
   90SAPE   C39 8824   2.900   5.434   5.317 -0.0983 -0.0388  0.2223
   90SAPE   H9X 8825   2.818   5.412   5.245  0.0477  0.2296 -0.0287
   90SAPE   H9Y 8826   2.901   5.343   5.381 -2.2156 -0.1367  0.1665
   90SAPE  C310 8827   3.044   5.440   5.250 -0.0869 -0.0234 -0.5613
   90SAPE  H10X 8828   3.093   5.518   5.312 -0.6765 -0.6487  0.7159
   90SAPE  H10Y 8829   3.038   5.472   5.144 -4.5908 -0.7788 -0.7251
   90SAPE  C311 8830   3.123   5.316   5.251 -0.4315 -0.2783  0.0254
   90SAPE  H11X 8831   3.126   5.281   5.356 -0.5025  0.3395  0.2398
   90SAPE  H11Y 8832   3.225   5.348   5.223 -0.2476 -0.5677  0.3585
   90SAPE  C312 8833   3.067   5.207   5.160 -0.2331 -0.0143  0.1706
   90SAPE  H12X 8834   2.966   5.192   5.204 -1.6527  2.6466 -1.9020
   90SAPE  H12Y 8835   3.125   5.114   5.181 -2.2142 -1.2018  0.6566
   90SAPE  C313 8836   3.067   5.249   5.005 -0.8510  0.4494 -0.5895
   90SAPE  H13X 8837   3.169   5.289   4.988 -0.1136 -1.1943 -0.2266
   90SAPE  H13Y 8838   2.994   5.327   4.974 -0.9658  0.6036  0.0538
   90SAPE  C314 8839   3.043   5.131   4.909 -0.5585  0.9211 -0.4296
   90SAPE  H14X 8840   2.944   5.086   4.934 -1.6246  2.1177 -2.2608
   90SAPE  H14Y 8841   3.123   5.057   4.932 -0.6443  1.1180  0.5718
   90SAPE  C315 8842   3.032   5.162   4.761  0.6929 -0.2555 -0.1360
   90SAPE  H15X 8843   3.130   5.200   4.726 -0.2214  0.6662 -1.8305
   90SAPE  H15Y 8844   2.950   5.233   4.738  0.1589 -1.1287 -1.0305
   90SAPE  C316 8845   3.010   5.043   4.673 -0.2644 -0.2522 -0.1898
   90SAPE  H16X 8846   2.921   4.986   4.709 -0.0120 -0.5012  0.0387
   90SAPE  H16Y 8847   3.095   4.977   4.698 -0.5517 -1.0733 -1.3130
   90SAPE  C317 8848   3.001   5.067   4.522  0.3301  0.2485 -0.2991
   90SAPE  H17X 8849   3.094   5.117   4.487 -0.7777  1.0215 -2.3257
   90SAPE  H17Y 8850   2.913   5.136   4.530  1.4112  1.5117  1.5662
   90SAPE  C318 8851   2.963   4.949   4.420 -0.0088 -0.0907  0.0990
   90SAPE  H18X 8852   2.853   4.937   4.414  0.0459 -0.9058  0.5861
   90SAPE  H18Y 8853   3.005   4.854   4.460 -0.8244  0.0968  1.4478
   90SAPE  H18Z 8854   3.005   4.962   4.318 -1.7623 -1.6450 -0.8676
   91SAPE     N 8855   0.196   1.162   6.452  0.2429 -0.1654  0.0974
   91SAPE   HN1 8856   0.102   1.118   6.452 -1.4053  3.0326  1.0305
   91SAPE   HN2 8857   0.210   1.214   6.363 -0.3866  1.5672  0.9553
   91SAPE   HN3 8858   0.268   1.088   6.440 -0.7296 -0.9091 -1.5376
   91SAPE   C12 8859   0.217   1.244   6.578  0.9487 -0.0950 -0.3861
   91SAPE  H12A 8860   0.163   1.182   6.653  3.2053 -3.1003 -1.0331
   91SAPE  H12B 8861   0.180   1.348   6.568 -0.0570 -0.0351  2.8129
   91SAPE   C11 8862   0.366   1.239   6.616  0.6482  0.2141 -0.4889
   91SAPE  H11A 8863   0.404   1.136   6.630  0.5205  0.3734  1.1404
   91SAPE  H11B 8864   0.368   1.287   6.715 -4.0602  1.3781 -0.6868
   91SAPE     P 8865   0.595   1.343   6.545  0.2172 -0.0870 -0.2996
   91SAPE   O13 8866   0.611   1.446   6.655 -0.2780 -0.2292  0.4595
   91SAPE   O14 8867   0.656   1.213   6.555 -0.4191 -0.3214  0.0384
   91SAPE   O12 8868   0.443   1.313   6.517 -0.2922  0.4476 -0.2181
   91SAPE   O11 8869   0.637   1.401   6.409  0.3096  0.0057  0.4306
   91SAPE    C1 8870   0.589   1.375   6.276  0.9387 -0.1740  0.6032
   91SAPE    HA 8871   0.672   1.373   6.201 -0.3895 -0.9397 -0.9037
   91SAPE    HB 8872   0.541   1.276   6.267 -1.2283  0.8575  0.1767
   91SAPE    C2 8873   0.468   1.476   6.235  0.2166  0.3361 -0.0128
   91SAPE    HS 8874   0.408   1.487   6.328  0.2496  1.0292 -0.0649
   91SAPE   O21 8875   0.395   1.441   6.113  0.0730  0.3340  0.4169
   91SAPE   C21 8876   0.301   1.346   6.141 -0.6324  0.0416  1.0295
   91SAPE   O22 8877   0.260   1.318   6.253  0.0859 -0.5238 -0.3292
   91SAPE   C22 8878   0.246   1.287   6.006  0.4091  0.0987 -0.2455
   91SAPE   H2R 8879   0.244   1.368   5.930  0.4362 -1.1798 -1.6509
   91SAPE   H2S 8880   0.324   1.213   5.978 -0.2663 -0.9531  0.5958
   91SAPE    C3 8881   0.531   1.620   6.219 -0.5658 -0.3348  0.5321
   91SAPE    HX 8882   0.623   1.601   6.159 -0.3149  1.7854  0.1767
   91SAPE    HY 8883   0.551   1.660   6.321 -0.8096 -1.8976  1.2119
   91SAPE   O31 8884   0.439   1.716   6.154  0.0215  0.1791  0.0339
   91SAPE   C31 8885   0.485   1.809   6.068 -0.0345  0.1178 -0.2256
   91SAPE   O32 8886   0.604   1.828   6.049  0.3752 -0.0303 -0.4832
   91SAPE   C32 8887   0.357   1.874   6.006 -0.6729 -1.0105 -0.5237
   91SAPE   H2X 8888   0.381   1.977   5.974  1.2442 -0.1490  3.2529
   91SAPE   H2Y 8889   0.284   1.888   6.088  0.5833 -0.6527  0.5599
   91SAPE   C23 8890   0.104   1.229   6.010  0.1107  0.8844 -0.2635
   91SAPE   H3R 8891   0.045   1.310   6.058  1.6018  1.1691  1.1570
   91SAPE   H3S 8892   0.100   1.137   6.072 -0.5187  1.1079  0.0367
   91SAPE   C24 8893   0.053   1.188   5.868 -0.5391 -0.3238  0.6924
   91SAPE   H4R 8894   0.057   1.277   5.802  1.0669 -1.2051 -0.4992
   91SAPE   H4S 8895  -0.053   1.158   5.879 -0.0500 -3.1852 -1.1329
   91SAPE   C25 8896   0.144   1.072   5.821 -0.3004 -0.2447 -0.8730
   91SAPE   H5R 8897   0.146   0.985   5.887 -0.6347  0.5294  0.1832
   91SAPE   C26 8898   0.231   1.073   5.718 -0.0839 -0.2253  0.5260
   91SAPE   H6R 8899   0.290   0.983   5.698 -1.9775 -1.0233 -1.8928
   91SAPE   C27 8900   0.264   1.186   5.622 -0.2655  0.5987 -0.3261
   91SAPE   H7R 8901   0.364   1.165   5.578 -1.3210 -2.6967 -1.4261
   91SAPE   H7S 8902   0.268   1.281   5.680  1.0014  0.1858  0.2999
   91SAPE   C28 8903   0.166   1.184   5.512  0.4791 -0.2182 -0.5424
   91SAPE   H8R 8904   0.073   1.234   5.542  0.4994 -0.8641  0.6628
   91SAPE   C29 8905   0.186   1.138   5.390  1.4429  0.4438 -0.0884
   91SAPE   H9R 8906   0.106   1.140   5.314 -2.5690 -5.7635  3.1770
   91SAPE  C210 8907   0.298   1.064   5.339 -0.4230  0.3337  0.1053
   91SAPE  H10R 8908   0.268   0.974   5.281 -0.1791  1.3728 -1.6847
   91SAPE  H10S 8909   0.354   1.035   5.430  1.2409  1.4465 -0.5256
   91SAPE  C211 8910   0.387   1.164   5.261 -0.0009  0.3424  0.0344
   91SAPE  H11R 8911   0.415   1.256   5.314 -0.7442  0.2039  0.6858
   91SAPE  C212 8912   0.404   1.159   5.127 -0.2183  0.5447 -0.3482
   91SAPE  H12R 8913   0.476   1.228   5.080  0.8152 -2.0120 -2.8524
   91SAPE  C213 8914   0.358   1.058   5.025 -1.1519 -0.0335 -0.3078
   91SAPE  H13R 8915   0.265   1.003   5.051 -2.0734  0.5909 -2.0736
   91SAPE  H13S 8916   0.441   0.987   5.010  1.8877  2.4012  3.1736
   91SAPE  C214 8917   0.323   1.124   4.896 -0.2535  0.0629 -0.2201
   91SAPE  H14R 8918   0.393   1.092   4.818  1.3565 -0.0126  1.2127
   91SAPE  C215 8919   0.214   1.195   4.870 -0.0656  0.1059  0.4031
   91SAPE  H15R 8920   0.205   1.239   4.770  1.4156 -0.4177  0.0139
   91SAPE  C216 8921   0.111   1.243   4.960  0.6947 -0.3561  0.2135
   91SAPE  H16R 8922   0.151   1.285   5.054 -3.6414 -0.2939  2.2352
   91SAPE  H16S 8923   0.052   1.153   4.987 -1.3947  0.5380 -1.1088
   91SAPE  C217 8924   0.022   1.356   4.897 -0.7544  0.0659  0.2473
   91SAPE  H17R 8925   0.075   1.436   4.841  0.5802 -0.6151  0.5110
   91SAPE  H17S 8926  -0.015   1.411   4.986  0.6699  1.6902 -0.1048
   91SAPE  C218 8927  -0.091   1.303   4.813  0.1389 -0.6194 -0.4766
   91SAPE  H18R 8928  -0.177   1.374   4.806  1.1289  0.7079  0.4170
   91SAPE  H18S 8929  -0.127   1.209   4.862 -0.2959 -0.5841 -0.7177
   91SAPE  C219 8930  -0.053   1.276   4.664  0.2816 -0.3343  0.3756
   91SAPE  H19R 8931   0.041   1.219   4.666  1.9928  2.2804 -0.1619
   91SAPE  H19S 8932  -0.021   1.374   4.621 -0.1457  0.3943  1.6722
   91SAPE  C220 8933  -0.168   1.215   4.575 -0.6775  0.0370  0.1747
   91SAPE  H20R 8934  -0.263   1.273   4.578 -2.6119 -2.9624  1.9927
   91SAPE  H20S 8935  -0.197   1.113   4.607  1.2209 -0.2004  1.2557
   91SAPE  H20T 8936  -0.119   1.212   4.475  1.3674 -0.1033  1.1227
   91SAPE   C33 8937   0.293   1.788   5.898 -0.5206  0.1556  0.3277
   91SAPE   H3X 8938   0.191   1.819   5.867 -1.4633 -1.6128  1.4989
   91SAPE   H3Y 8939   0.303   1.682   5.930 -1.1170 -0.2275 -0.6970
   91SAPE   C34 8940   0.380   1.793   5.758 -0.0348  0.1001 -1.0085
   91SAPE   H4X 8941   0.479   1.745   5.770  0.5070  1.6229  1.0703
   91SAPE   H4Y 8942   0.393   1.898   5.723  1.1792  0.5562  0.7025
   91SAPE   C35 8943   0.313   1.709   5.651  0.4247 -0.4165 -0.0603
   91SAPE   H5X 8944   0.204   1.730   5.654  0.0980 -2.0172  2.1591
   91SAPE   H5Y 8945   0.331   1.600   5.657  1.2716 -0.4233 -2.0459
   91SAPE   C36 8946   0.357   1.755   5.518 -0.0929  0.3627 -1.1396
   91SAPE   H6X 8947   0.465   1.781   5.530 -0.7287  2.1437  2.0155
   91SAPE   H6Y 8948   0.312   1.855   5.498  1.8922  1.7240  0.6930
   91SAPE   C37 8949   0.318   1.659   5.406 -0.5935 -1.0211 -0.3071
   91SAPE   H7X 8950   0.209   1.639   5.412 -0.3930 -2.2571 -0.3733
   91SAPE   H7Y 8951   0.377   1.565   5.407  1.3638  0.1494 -0.5804
   91SAPE   C38 8952   0.346   1.713   5.269  0.1983 -0.1463  0.1677
   91SAPE   H8X 8953   0.446   1.758   5.256  0.6470 -0.8067  1.2169
   91SAPE   H8Y 8954   0.274   1.796   5.251  0.7259  1.2916  3.9569
   91SAPE   C39 8955   0.324   1.606   5.159  0.8697  0.3977 -0.0445
   91SAPE   H9X 8956   0.235   1.540   5.166  1.4833 -0.5482 -0.9111
   91SAPE   H9Y 8957   0.409   1.537   5.179  0.9544  1.1714  2.7663
   91SAPE  C310 8958   0.339   1.665   5.022 -0.0400  0.3738 -0.5318
   91SAPE  H10X 8959   0.424   1.735   5.034 -0.8581  0.9248  2.8677
   91SAPE  H10Y 8960   0.252   1.726   4.990 -0.6173 -0.7306 -1.1251
   91SAPE  C311 8961   0.372   1.550   4.919 -0.6747  0.2983 -1.2615
   91SAPE  H11X 8962   0.321   1.459   4.955 -1.1163  0.7461 -0.7363
   91SAPE  H11Y 8963   0.481   1.534   4.906 -0.5545  0.0278 -0.0119
   91SAPE  C312 8964   0.316   1.568   4.779  0.1789 -0.4567  0.3337
   91SAPE  H12X 8965   0.214   1.610   4.774  0.9408  1.4304 -0.4926
   91SAPE  H12Y 8966   0.310   1.469   4.730 -0.1552 -0.2289 -0.0937
   91SAPE  C313 8967   0.396   1.675   4.693 -0.0311  0.2430 -0.0848
   91SAPE  H13X 8968   0.401   1.773   4.744 -0.7123  0.5005 -0.5131
   91SAPE  H13Y 8969   0.329   1.680   4.605 -0.3867 -1.3339  0.0509
   91SAPE  C314 8970   0.537   1.641   4.659  0.1188  0.1450 -0.0638
   91SAPE  H14X 8971   0.548   1.550   4.595 -0.8386  0.2175 -0.3436
   91SAPE  H14Y 8972   0.599   1.610   4.746  0.3748 -0.2690 -0.3838
   91SAPE  C315 8973   0.620   1.756   4.589 -0.1872 -0.4200 -0.1279
   91SAPE  H15X 8974   0.720   1.711   4.573 -0.3344 -0.5205 -0.7955
   91SAPE  H15Y 8975   0.639   1.837   4.662  0.8520 -1.2945  0.5878
   91SAPE  C316 8976   0.558   1.805   4.457 -1.1370 -0.2905  0.8259
   91SAPE  H16X 8977   0.486   1.880   4.497 -0.8410 -2.0069  5.0777
   91SAPE  H16Y 8978   0.507   1.723   4.402  0.1625 -1.0254  0.6747
   91SAPE  C317 8979   0.659   1.882   4.362  0.4022  0.2594 -0.0844
   91SAPE  H17X 8980   0.610   1.904   4.265 -1.3243  3.0567  1.2727
   91SAPE  H17Y 8981   0.746   1.816   4.342  1.1428  0.9890  0.6309
   91SAPE  C318 8982   0.722   2.007   4.421 -0.0776  0.5471 -0.6424
   91SAPE  H18X 8983   0.768   1.988   4.521 -0.0003  0.4646 -0.6931
   91SAPE  H18Y 8984   0.645   2.085   4.436 -0.6898 -0.2575  0.6119
   91SAPE  H18Z 8985   0.811   2.046   4.367 -0.1969  1.5318 -0.1521
   92SAPE     N 8986   0.597   3.253   6.836 -0.3858  0.3949  0.0498
   92SAPE   HN1 8987   0.695   3.237   6.804  0.1308  2.3892  0.5046
   92SAPE   HN2 8988   0.578   3.352   6.810  0.0841  0.5532  0.3041
   92SAPE   HN3 8989   0.591   3.234   6.938 -0.3499 -1.9506 -0.3169
   92SAPE   C12 8990   0.501   3.157   6.775  1.0063  0.4688  1.2310
   92SAPE  H12A 8991   0.400   3.199   6.756  0.9751 -0.0589  0.1779
   92SAPE  H12B 8992   0.494   3.075   6.850  0.2172  0.3479  1.0332
   92SAPE   C11 8993   0.558   3.106   6.638  0.3102 -0.0620 -0.2092
   92SAPE  H11A 8994   0.571   3.182   6.557  0.3522 -0.8478 -0.9487
   92SAPE  H11B 8995   0.483   3.036   6.596 -0.7612  0.4239  0.8375
   92SAPE     P 8996   0.732   2.921   6.593  0.3451  0.0277  0.0265
   92SAPE   O13 8997   0.869   2.894   6.639  0.7441  0.1702  0.4139
   92SAPE   O14 8998   0.629   2.817   6.598 -0.2018 -0.1885  0.3738
   92SAPE   O12 8999   0.686   3.052   6.668  0.0069  0.1305  0.1614
   92SAPE   O11 9000   0.746   2.965   6.441  0.1603 -0.1289 -0.0237
   92SAPE    C1 9001   0.803   3.089   6.403 -0.0757 -0.1685 -0.4859
   92SAPE    HA 9002   0.757   3.176   6.454 -0.4058 -0.7240  0.1804
   92SAPE    HB 9003   0.911   3.088   6.426  0.5157  2.0517 -2.7687
   92SAPE    C2 9004   0.788   3.099   6.250 -0.4940  0.2809 -0.3501
   92SAPE    HS 9005   0.679   3.119   6.241 -0.3446  1.4921  0.3681
   92SAPE   O21 9006   0.820   2.973   6.186 -0.8622  0.6868  0.1142
   92SAPE   C21 9007   0.763   2.949   6.069 -0.2783  0.0714 -0.4537
   92SAPE   O22 9008   0.692   3.022   6.000 -0.2399  0.3836  0.4287
   92SAPE   C22 9009   0.804   2.811   6.020  0.3333 -0.2263 -0.4977
   92SAPE   H2R 9010   0.774   2.736   6.096  2.8812 -2.3753 -1.4425
   92SAPE   H2S 9011   0.748   2.800   5.925  0.2289  0.8970 -0.5874
   92SAPE    C3 9012   0.884   3.207   6.208 -0.2432  0.3631  0.5579
   92SAPE    HX 9013   0.984   3.185   6.251  0.6987  1.8929 -0.7279
   92SAPE    HY 9014   0.841   3.297   6.257 -1.8963 -1.2564  2.2591
   92SAPE   O31 9015   0.894   3.229   6.065 -0.4544  0.1955  0.1277
   92SAPE   C31 9016   0.793   3.294   6.014  0.0332 -0.0757  0.4848
   92SAPE   O32 9017   0.712   3.369   6.069 -0.2178  0.6398  0.1764
   92SAPE   C32 9018   0.809   3.289   5.858 -0.0410 -0.0340 -0.3910
   92SAPE   H2X 9019   0.866   3.195   5.842 -2.1778 -1.8094  1.6920
   92SAPE   H2Y 9020   0.875   3.375   5.831 -3.0217  2.6588  0.3191
   92SAPE   C23 9021   0.948   2.807   5.973 -0.2689 -0.5811  0.1041
   92SAPE   H3R 9022   0.969   2.701   5.945  2.2745 -0.6601  1.9370
   92SAPE   H3S 9023   1.005   2.828   6.065 -0.7042  0.1885  0.2025
   92SAPE   C24 9024   0.996   2.901   5.858 -0.9371  0.5754  0.6600
   92SAPE   H4R 9025   1.106   2.902   5.844 -0.8839 -2.2806  0.3308
   92SAPE   H4S 9026   0.968   3.006   5.879  0.0922  0.3020  3.8956
   92SAPE   C25 9027   0.933   2.850   5.731 -0.8968  0.6434 -0.6612
   92SAPE   H5R 9028   0.823   2.845   5.734 -0.8819 -0.5072  2.3668
   92SAPE   C26 9029   0.990   2.841   5.607 -0.1580  0.6125  0.3452
   92SAPE   H6R 9030   0.926   2.804   5.526  2.1775 -0.5143 -1.0906
   92SAPE   C27 9031   1.136   2.859   5.561  0.0119  0.6822 -0.6321
   92SAPE   H7R 9032   1.214   2.870   5.639  1.1852  1.5329 -1.8974
   92SAPE   H7S 9033   1.137   2.951   5.499 -0.3403  0.2685 -1.2687
   92SAPE   C28 9034   1.172   2.743   5.467  0.1301 -0.1887  0.7146
   92SAPE   H8R 9035   1.199   2.650   5.517  1.9586 -1.5573 -2.5482
   92SAPE   C29 9036   1.155   2.738   5.334  0.9225  0.0756  0.7267
   92SAPE   H9R 9037   1.174   2.645   5.279 -1.2505  0.2741 -0.4708
   92SAPE  C210 9038   1.086   2.851   5.250 -0.4426  0.1022 -1.2304
   92SAPE  H10R 9039   1.064   2.944   5.308  0.7289  0.0453 -0.6584
   92SAPE  H10S 9040   0.987   2.810   5.222  0.1055 -1.3517 -1.1028
   92SAPE  C211 9041   1.146   2.886   5.120  0.5389  0.6562  0.0922
   92SAPE  H11R 9042   1.250   2.859   5.099  0.9427  0.9004  1.6400
   92SAPE  C212 9043   1.088   2.957   5.022  0.5248 -0.0082  0.4475
   92SAPE  H12R 9044   1.143   2.993   4.934  3.9194 -1.7820  1.6531
   92SAPE  C213 9045   0.945   3.002   5.021  0.1699  0.3073 -0.0810
   92SAPE  H13R 9046   0.910   3.058   5.111 -0.1040  0.8376 -0.5061
   92SAPE  H13S 9047   0.882   2.910   5.018 -0.2157  0.5746 -3.6275
   92SAPE  C214 9048   0.921   3.091   4.901  0.6536 -0.2721  0.6068
   92SAPE  H14R 9049   0.992   3.174   4.888 -1.0568  0.9426 -1.7083
   92SAPE  C215 9050   0.821   3.089   4.812  0.2339  0.1883 -0.9329
   92SAPE  H15R 9051   0.835   3.147   4.720  0.9605 -0.9966 -1.6031
   92SAPE  C216 9052   0.710   2.987   4.812 -0.2245 -0.3293  0.6186
   92SAPE  H16R 9053   0.623   3.028   4.869 -0.9284 -0.3681 -0.4029
   92SAPE  H16S 9054   0.754   2.893   4.850  1.6684  0.5447  0.6779
   92SAPE  C217 9055   0.664   2.976   4.663 -0.0920  0.5722  0.0407
   92SAPE  H17R 9056   0.645   3.078   4.624  0.3349  0.0625 -1.6175
   92SAPE  H17S 9057   0.559   2.941   4.664 -0.6160  2.0959  1.8768
   92SAPE  C218 9058   0.761   2.894   4.577 -0.3584  0.0065 -0.0899
   92SAPE  H18R 9059   0.783   2.799   4.629  0.6848  0.1744 -0.1978
   92SAPE  H18S 9060   0.852   2.958   4.567 -1.9016  2.2108 -0.8978
   92SAPE  C219 9061   0.703   2.855   4.442  0.0368  1.0355 -0.0252
   92SAPE  H19R 9062   0.787   2.817   4.380  1.6540  1.9285  1.5348
   92SAPE  H19S 9063   0.669   2.945   4.387  1.3852  2.4084  1.2738
   92SAPE  C220 9064   0.586   2.754   4.459 -0.3313 -0.0155  0.0439
   92SAPE  H20R 9065   0.502   2.796   4.518 -0.3489  1.5591 -1.0266
   92SAPE  H20S 9066   0.616   2.662   4.513  1.6648 -0.3836 -1.5244
   92SAPE  H20T 9067   0.557   2.735   4.353 -0.0794 -0.7263  0.1019
   92SAPE   C33 9068   0.685   3.283   5.769 -0.1779  0.3893  0.0692
   92SAPE   H3X 9069   0.617   3.366   5.798  1.0753  0.6296  2.5238
   92SAPE   H3Y 9070   0.627   3.189   5.785  0.3697  0.5299  3.6883
   92SAPE   C34 9071   0.729   3.289   5.620  0.1318 -0.6184  0.6912
   92SAPE   H4X 9072   0.778   3.196   5.583 -1.2681 -0.6780 -1.1653
   92SAPE   H4Y 9073   0.805   3.371   5.617 -1.5079  1.0554  2.3665
   92SAPE   C35 9074   0.607   3.304   5.522 -0.5247 -0.2853  0.3999
   92SAPE   H5X 9075   0.574   3.410   5.531  2.5564  0.8081  0.0520
   92SAPE   H5Y 9076   0.527   3.236   5.559  1.2420 -2.2771  0.7394
   92SAPE   C36 9077   0.652   3.279   5.380 -0.3441  0.5886  0.5595
   92SAPE   H6X 9078   0.719   3.190   5.383  0.9836  1.5790  0.8307
   92SAPE   H6Y 9079   0.694   3.371   5.334 -1.7914  0.8794 -0.2575
   92SAPE   C37 9080   0.535   3.253   5.281 -0.3183 -0.9134  0.2178
   92SAPE   H7X 9081   0.441   3.302   5.314  0.4174 -0.2983  1.4865
   92SAPE   H7Y 9082   0.526   3.142   5.273  0.3507 -0.9680  0.1410
   92SAPE   C38 9083   0.562   3.299   5.130  0.1113  0.1089 -0.0100
   92SAPE   H8X 9084   0.647   3.239   5.090 -1.5454 -1.0600 -1.9532
   92SAPE   H8Y 9085   0.592   3.406   5.128  1.7781 -0.3358 -1.5019
   92SAPE   C39 9086   0.432   3.285   5.040  0.8948 -0.6608  0.0872
   92SAPE   H9X 9087   0.352   3.359   5.065 -1.3084 -2.0457 -2.3816
   92SAPE   H9Y 9088   0.379   3.188   5.055  1.9997 -1.7429 -2.4622
   92SAPE  C310 9089   0.451   3.295   4.892  0.0154 -0.3475  0.2006
   92SAPE  H10X 9090   0.355   3.286   4.837  0.6408  0.4975 -1.0782
   92SAPE  H10Y 9091   0.510   3.210   4.851 -2.4352 -1.8220 -0.4469
   92SAPE  C311 9092   0.507   3.431   4.863 -0.3399 -0.1756 -0.4217
   92SAPE  H11X 9093   0.614   3.437   4.893 -0.9006  0.6348  1.5734
   92SAPE  H11Y 9094   0.451   3.503   4.926  1.1751  1.8976 -1.3353
   92SAPE  C312 9095   0.472   3.470   4.722  0.1366 -0.3909  0.5693
   92SAPE  H12X 9096   0.365   3.446   4.709 -0.3338  0.9140  1.8053
   92SAPE  H12Y 9097   0.528   3.408   4.649  1.4736  0.9318  0.4130
   92SAPE  C313 9098   0.489   3.624   4.686  0.2061 -0.4930 -0.7422
   92SAPE  H13X 9099   0.592   3.665   4.681 -0.0789  0.1849 -1.1429
   92SAPE  H13Y 9100   0.445   3.688   4.765  2.7068 -1.9833  2.0610
   92SAPE  C314 9101   0.422   3.648   4.554 -0.5959 -0.2516 -0.5178
   92SAPE  H14X 9102   0.315   3.615   4.554 -0.4349 -0.9974  1.7435
   92SAPE  H14Y 9103   0.474   3.585   4.480  0.1959  0.5141 -0.6275
   92SAPE  C315 9104   0.430   3.796   4.506  0.2579 -0.3808 -0.7663
   92SAPE  H15X 9105   0.403   3.802   4.399  0.8634  2.5278 -0.8404
   92SAPE  H15Y 9106   0.528   3.846   4.525 -0.2790 -0.0892  1.6218
   92SAPE  C316 9107   0.317   3.878   4.569 -0.2423  0.9067  0.4202
   92SAPE  H16X 9108   0.342   3.906   4.674  0.3410  1.8133  0.0426
   92SAPE  H16Y 9109   0.216   3.834   4.555 -0.1942  0.8864  0.1406
   92SAPE  C317 9110   0.283   4.008   4.497 -0.1300 -0.3603  0.1941
   92SAPE  H17X 9111   0.361   4.085   4.512  4.3719 -4.5548  0.6313
   92SAPE  H17Y 9112   0.197   4.046   4.556 -0.0540  1.7427 -0.9675
   92SAPE  C318 9113   0.250   3.997   4.349  0.0044 -1.0284  0.3893
   92SAPE  H18X 9114   0.202   4.093   4.322 -1.8675 -2.2178 -0.7648
   92SAPE  H18Y 9115   0.180   3.913   4.330 -1.0201  0.3581 -2.5711
   92SAPE  H18Z 9116   0.344   3.989   4.290 -0.3123 -0.0824 -0.2525
   93SAPE     N 9117   4.022   5.117   6.366 -0.3192 -0.4070 -0.5921
   93SAPE   HN1 9118   3.925   5.092   6.393 -0.6902  1.2094 -0.2766
   93SAPE   HN2 9119   4.081   5.052   6.422  1.7411  3.6837  2.5120
   93SAPE   HN3 9120   4.038   5.211   6.409 -2.0059  0.6238 -2.0854
   93SAPE   C12 9121   4.067   5.136   6.227 -0.0628  0.2499  0.4017
   93SAPE  H12A 9122   4.064   5.039   6.172 -0.3752  0.6547 -0.3221
   93SAPE  H12B 9123   4.171   5.174   6.227 -0.5280  1.5985  1.0829
   93SAPE   C11 9124   3.975   5.247   6.163  0.1464  0.1843  0.5149
   93SAPE  H11A 9125   3.881   5.192   6.183  1.0215 -1.1481  1.1178
   93SAPE  H11B 9126   3.997   5.251   6.054 -0.1308 -1.2654  0.3844
   93SAPE     P 9127   3.826   5.453   6.232  0.2686  0.2064  0.5340
   93SAPE   O13 9128   3.715   5.375   6.292  0.5544  0.3285 -0.6351
   93SAPE   O14 9129   3.849   5.588   6.279  0.1191 -0.4664 -0.4262
   93SAPE   O12 9130   3.971   5.373   6.234 -0.2289 -0.0030 -0.1381
   93SAPE   O11 9131   3.797   5.469   6.078  0.5083 -0.4607  0.3872
   93SAPE    C1 9132   3.875   5.575   6.009  0.0311  0.8317  0.1916
   93SAPE    HA 9133   3.871   5.675   6.056 -0.8053  1.8011 -1.8326
   93SAPE    HB 9134   3.980   5.548   5.982  0.6299  1.7455  1.5063
   93SAPE    C2 9135   3.821   5.603   5.865  0.0491  0.6698 -0.7244
   93SAPE    HS 9136   3.873   5.689   5.818 -1.7097  0.6581 -2.8378
   93SAPE   O21 9137   3.681   5.648   5.871 -0.2528  0.1666 -0.0180
   93SAPE   C21 9138   3.666   5.781   5.884  0.2072 -0.0842 -0.6540
   93SAPE   O22 9139   3.755   5.859   5.915  0.3944 -0.7411 -0.9370
   93SAPE   C22 9140   3.527   5.823   5.837 -0.3230 -0.1440 -0.3474
   93SAPE   H2R 9141   3.461   5.822   5.927 -0.8427 -2.3275 -0.6873
   93SAPE   H2S 9142   3.533   5.921   5.785  0.5964 -0.0464 -0.0879
   93SAPE    C3 9143   3.849   5.474   5.781  0.2617 -0.7243  0.2530
   93SAPE    HX 9144   3.796   5.384   5.821  0.1337 -0.8141 -0.1137
   93SAPE    HY 9145   3.957   5.451   5.770 -0.0327 -1.1374 -2.4868
   93SAPE   O31 9146   3.791   5.487   5.648 -0.0304 -0.4783 -0.7727
   93SAPE   C31 9147   3.858   5.553   5.554 -0.2307 -0.2316  0.0277
   93SAPE   O32 9148   3.965   5.613   5.573 -0.3440  0.0233 -0.6062
   93SAPE   C32 9149   3.778   5.545   5.419  0.2703 -0.0037  0.8295
   93SAPE   H2X 9150   3.676   5.585   5.439  0.3992  0.9424 -0.3041
   93SAPE   H2Y 9151   3.769   5.436   5.400 -2.0651 -0.1276  2.2902
   93SAPE   C23 9152   3.448   5.729   5.739  0.0731 -0.0861  0.0341
   93SAPE   H3R 9153   3.405   5.647   5.800 -0.1946 -0.7884 -1.0745
   93SAPE   H3S 9154   3.500   5.686   5.651 -1.7913 -1.2160 -0.5603
   93SAPE   C24 9155   3.321   5.801   5.681 -0.1168  0.3938 -0.0662
   93SAPE   H4R 9156   3.259   5.837   5.766 -2.4819  0.2903 -1.6601
   93SAPE   H4S 9157   3.249   5.725   5.643 -0.4171 -0.1508  1.5088
   93SAPE   C25 9158   3.350   5.906   5.577 -0.2120  0.3786  0.4911
   93SAPE   H5R 9159   3.349   6.011   5.611 -1.4198  0.4967  0.1210
   93SAPE   C26 9160   3.389   5.887   5.447  0.6137  0.0504 -0.0664
   93SAPE   H6R 9161   3.403   5.978   5.387  1.6662  0.6022  0.9776
   93SAPE   C27 9162   3.399   5.749   5.387 -0.3756 -0.9565 -0.7934
   93SAPE   H7R 9163   3.408   5.663   5.457 -0.5461 -1.0884 -0.9284
   93SAPE   H7S 9164   3.494   5.739   5.330 -0.1565 -2.0697 -0.2740
   93SAPE   C28 9165   3.285   5.718   5.299 -0.6351 -0.6675  0.0793
   93SAPE   H8R 9166   3.189   5.745   5.345 -0.2153  0.0601  0.5511
   93SAPE   C29 9167   3.289   5.673   5.173  0.3315 -0.1824  0.2987
   93SAPE   H9R 9168   3.191   5.669   5.124  0.0678  0.8151  0.7140
   93SAPE  C210 9169   3.411   5.641   5.090  0.7404 -0.4135  0.3343
   93SAPE  H10R 9170   3.480   5.586   5.157  0.6592  0.9847  1.6211
   93SAPE  H10S 9171   3.451   5.737   5.049 -0.6415 -1.2107 -3.2392
   93SAPE  C211 9172   3.363   5.567   4.969 -0.4864  0.0975  1.0122
   93SAPE  H11R 9173   3.312   5.475   5.003  2.4760 -0.9659  3.0262
   93SAPE  C212 9174   3.379   5.598   4.837  0.0155 -0.2399  0.5246
   93SAPE  H12R 9175   3.343   5.523   4.765  1.0812  0.0108 -0.2918
   93SAPE  C213 9176   3.456   5.710   4.767  0.2049 -0.0827 -0.1877
   93SAPE  H13R 9177   3.487   5.777   4.850 -0.3546 -1.8660  1.5467
   93SAPE  H13S 9178   3.387   5.768   4.702 -0.0320  0.8984  0.9014
   93SAPE  C214 9179   3.571   5.646   4.692  0.2171 -0.0733  0.3631
   93SAPE  H14R 9180   3.655   5.596   4.743  2.1861  0.0413 -2.5228
   93SAPE  C215 9181   3.585   5.655   4.559  0.3877  0.3793  0.4704
   93SAPE  H15R 9182   3.669   5.601   4.512  0.1850  0.9324 -0.5539
   93SAPE  C216 9183   3.488   5.723   4.466  0.0139 -0.0055  0.2719
   93SAPE  H16R 9184   3.541   5.779   4.386 -1.1736 -0.2844 -0.7306
   93SAPE  H16S 9185   3.420   5.801   4.505  0.6433  1.8563 -2.1361
   93SAPE  C217 9186   3.403   5.616   4.395 -0.9272  0.6055 -0.0073
   93SAPE  H17R 9187   3.331   5.582   4.473  1.2642 -1.9581  1.0861
   93SAPE  H17S 9188   3.468   5.536   4.355  0.1668 -0.1780  3.0430
   93SAPE  C218 9189   3.334   5.674   4.268 -0.3485 -0.3686 -0.3835
   93SAPE  H18R 9190   3.297   5.775   4.297  0.8892  0.3609 -1.2169
   93SAPE  H18S 9191   3.255   5.604   4.235 -1.4223  0.6587 -0.0796
   93SAPE  C219 9192   3.429   5.694   4.140  0.5372 -0.2413 -1.1682
   93SAPE  H19R 9193   3.461   5.589   4.125  0.7129 -0.5409  0.9261
   93SAPE  H19S 9194   3.528   5.741   4.159  0.5900 -0.3419 -1.1977
   93SAPE  C220 9195   3.346   5.729   4.019  0.0918  0.0927  0.8615
   93SAPE  H20R 9196   3.411   5.762   3.935 -0.4579  3.0336  1.4877
   93SAPE  H20S 9197   3.291   5.824   4.037  1.0327  0.6276  1.0260
   93SAPE  H20T 9198   3.264   5.659   3.993 -1.6007  3.1488 -3.0316
   93SAPE   C33 9199   3.855   5.632   5.313  0.9235 -0.4471 -0.1656
   93SAPE   H3X 9200   3.946   5.576   5.283  0.8279 -0.8071  0.2097
   93SAPE   H3Y 9201   3.897   5.726   5.356  2.6646 -1.2933  0.0759
   93SAPE   C34 9202   3.763   5.673   5.201 -0.0229  0.4099  0.1489
   93SAPE   H4X 9203   3.676   5.732   5.236  1.7794  3.6493 -0.4131
   93SAPE   H4Y 9204   3.725   5.577   5.161  1.8491 -0.2304 -0.1956
   93SAPE   C35 9205   3.834   5.756   5.094  0.0598 -0.1194 -0.3837
   93SAPE   H5X 9206   3.927   5.704   5.063  0.9772  0.6836  0.9033
   93SAPE   H5Y 9207   3.875   5.852   5.133 -0.0421  0.4834 -1.7066
   93SAPE   C36 9208   3.745   5.779   4.971 -0.0720 -0.1830 -0.1244
   93SAPE   H6X 9209   3.657   5.842   4.998 -1.8558 -1.0036 -3.5141
   93SAPE   H6Y 9210   3.702   5.684   4.931 -1.0149  0.6201 -1.0765
   93SAPE   C37 9211   3.824   5.843   4.858  0.9851 -0.1731 -0.4291
   93SAPE   H7X 9212   3.859   5.944   4.890  0.7044 -0.7071  1.7774
   93SAPE   H7Y 9213   3.760   5.859   4.768  1.2297  1.0668 -0.3967
   93SAPE   C38 9214   3.941   5.763   4.802 -0.9356 -0.1591 -0.5273
   93SAPE   H8X 9215   3.910   5.657   4.784 -0.8004  0.1219 -2.7825
   93SAPE   H8Y 9216   4.020   5.755   4.879 -2.0635 -0.0141  0.6624
   93SAPE   C39 9217   4.000   5.833   4.669 -0.0974  0.3890 -0.6098
   93SAPE   H9X 9218   4.018   5.941   4.689 -1.0697  0.6301 -0.9663
   93SAPE   H9Y 9219   3.915   5.819   4.598 -0.4681  0.9052 -0.2800
   93SAPE  C310 9220   4.131   5.781   4.610 -0.0634  0.5853 -0.0624
   93SAPE  H10X 9221   4.134   5.808   4.502  0.2319 -2.1586 -0.8244
   93SAPE  H10Y 9222   4.114   5.671   4.614 -0.4384  0.6625  0.5922
   93SAPE  C311 9223   4.256   5.824   4.679 -0.4950 -0.4355  0.0381
   93SAPE  H11X 9224   4.221   5.870   4.775 -0.3763 -1.6596  0.6861
   93SAPE  H11Y 9225   4.308   5.897   4.613 -0.3803  0.1682  0.7710
   93SAPE  C312 9226   4.352   5.706   4.703  0.2591 -0.3269 -1.0242
   93SAPE  H12X 9227   4.298   5.622   4.752  1.9657 -0.6942  0.3333
   93SAPE  H12Y 9228   4.426   5.732   4.782 -0.6501 -1.5321  0.2853
   93SAPE  C313 9229   4.421   5.657   4.579  0.6515  0.5965  1.1966
   93SAPE  H13X 9230   4.478   5.737   4.528  0.9272 -0.5304 -0.3393
   93SAPE  H13Y 9231   4.342   5.626   4.507 -1.5747 -0.6798  3.9943
   93SAPE  C314 9232   4.515   5.534   4.612 -0.3842  0.7651  0.3843
   93SAPE  H14X 9233   4.456   5.453   4.660  0.5005 -0.4405 -0.5013
   93SAPE  H14Y 9234   4.587   5.581   4.683  0.7897 -0.9704  0.3842
   93SAPE  C315 9235   4.583   5.482   4.489 -0.0472 -0.5241  0.2134
   93SAPE  H15X 9236   4.631   5.570   4.439 -2.4147  0.1617 -1.0057
   93SAPE  H15Y 9237   4.497   5.451   4.426  0.6359  1.3831 -1.7789
   93SAPE  C316 9238   4.683   5.367   4.509  0.3127 -0.4529  0.8626
   93SAPE  H16X 9239   4.630   5.298   4.578 -1.2947 -0.4027 -0.2719
   93SAPE  H16Y 9240   4.764   5.416   4.567 -2.3919  2.6847  2.3323
   93SAPE  C317 9241   4.732   5.294   4.380  0.7372  0.4127 -0.9083
   93SAPE  H17X 9242   4.835   5.262   4.405  0.8981  1.8284  0.4706
   93SAPE  H17Y 9243   4.724   5.383   4.313  0.4764  2.7443  2.0129
   93SAPE  C318 9244   4.652   5.176   4.333 -0.0189  0.1079 -0.1627
   93SAPE  H18X 9245   4.549   5.211   4.310  1.6217  3.4341 -3.3673
   93SAPE  H18Y 9246   4.646   5.085   4.397 -1.2361  0.0055 -0.3863
   93SAPE  H18Z 9247   4.693   5.143   4.235 -0.3844 -1.0351  0.0500
   94SAPE     N 9248   3.290   4.059   6.282  0.6549  0.0993 -0.3802
   94SAPE   HN1 9249   3.300   4.005   6.193  0.9061  0.4550 -0.5718
   94SAPE   HN2 9250   3.378   4.101   6.316  1.8792 -1.9905 -0.7939
   94SAPE   HN3 9251   3.271   3.978   6.345  0.1403 -0.0016 -0.6573
   94SAPE   C12 9252   3.169   4.142   6.259  0.6266  0.1193  0.9557
   94SAPE  H12A 9253   3.182   4.200   6.165  2.3340 -1.1118  0.3837
   94SAPE  H12B 9254   3.159   4.217   6.340  1.6266  1.2768  0.0410
   94SAPE   C11 9255   3.051   4.049   6.250  0.1109  0.2441  0.0192
   94SAPE  H11A 9256   3.051   3.975   6.168 -3.3139  0.8474 -0.6742
   94SAPE  H11B 9257   2.969   4.117   6.221  0.4342  1.0731  0.9863
   94SAPE     P 9258   2.888   3.936   6.411 -0.0293  0.4453 -0.3307
   94SAPE   O13 9259   2.887   3.835   6.512 -0.2736  0.2055 -0.4165
   94SAPE   O14 9260   2.803   4.053   6.435  0.2018  0.1260  0.1305
   94SAPE   O12 9261   3.034   3.971   6.376  0.3861  0.0101  0.4461
   94SAPE   O11 9262   2.837   3.875   6.276 -0.5278 -0.2182  0.4711
   94SAPE    C1 9263   2.847   3.734   6.249  0.2333 -0.2711 -0.0257
   94SAPE    HA 9264   2.881   3.683   6.341  0.2892 -0.3130 -0.0692
   94SAPE    HB 9265   2.752   3.685   6.219  0.2051  0.4101 -1.1210
   94SAPE    C2 9266   2.951   3.690   6.148 -0.4613  0.6434  0.0653
   94SAPE    HS 9267   3.046   3.734   6.185  0.9443 -2.0585 -0.0713
   94SAPE   O21 9268   2.906   3.745   6.021 -0.2404  0.5963  0.7741
   94SAPE   C21 9269   2.995   3.777   5.925  0.1082 -0.1895  0.1336
   94SAPE   O22 9270   3.116   3.767   5.933  0.6195 -0.1676  0.0029
   94SAPE   C22 9271   2.924   3.822   5.800 -0.1283 -0.3639 -1.2963
   94SAPE   H2R 9272   2.821   3.782   5.808 -1.4624  2.9187 -0.0644
   94SAPE   H2S 9273   2.897   3.930   5.803 -1.8710 -0.7590 -1.5986
   94SAPE    C3 9274   2.966   3.536   6.130  0.1673  0.5275 -0.7806
   94SAPE    HX 9275   2.878   3.496   6.075  0.3089  2.4927 -2.5934
   94SAPE    HY 9276   2.961   3.492   6.231 -0.6693 -0.6570 -1.3252
   94SAPE   O31 9277   3.083   3.483   6.069  0.3063 -0.3117 -0.5565
   94SAPE   C31 9278   3.194   3.480   6.140  0.1167 -0.0757 -0.6908
   94SAPE   O32 9279   3.197   3.500   6.260  0.2083 -0.6222 -0.6957
   94SAPE   C32 9280   3.307   3.434   6.046  0.1200  0.2935  0.5427
   94SAPE   H2X 9281   3.337   3.525   5.989 -0.1881  0.1579  0.1595
   94SAPE   H2Y 9282   3.263   3.362   5.974  1.4342  0.8394 -0.8767
   94SAPE   C23 9283   2.989   3.799   5.667 -0.1446  0.1214  0.0283
   94SAPE   H3R 9284   3.078   3.864   5.651  0.6327 -0.1838  2.6233
   94SAPE   H3S 9285   2.922   3.836   5.587 -3.8991 -0.5504  2.6410
   94SAPE   C24 9286   3.041   3.659   5.631 -0.0063 -0.6625 -0.8514
   94SAPE   H4R 9287   3.113   3.633   5.711 -0.5066 -1.3935 -0.6318
   94SAPE   H4S 9288   3.113   3.677   5.549  0.6316 -0.7370 -0.3135
   94SAPE   C25 9289   2.943   3.551   5.603 -0.8858 -0.8432  0.2676
   94SAPE   H5R 9290   2.935   3.473   5.681  1.8247 -1.5771 -0.0967
   94SAPE   C26 9291   2.876   3.541   5.490 -0.0704  0.3300 -0.1007
   94SAPE   H6R 9292   2.823   3.447   5.468  0.9415  0.6063 -4.5874
   94SAPE   C27 9293   2.868   3.637   5.371  0.3939  0.0158  0.0796
   94SAPE   H7R 9294   2.970   3.623   5.329  0.3967  1.2454 -0.3378
   94SAPE   H7S 9295   2.872   3.745   5.396  0.9546  0.0149 -0.0002
   94SAPE   C28 9296   2.759   3.603   5.278  0.1624 -0.3276  0.0247
   94SAPE   H8R 9297   2.688   3.522   5.302 -0.6664 -0.0586 -1.3890
   94SAPE   C29 9298   2.726   3.681   5.175 -0.8542  0.2371  0.2497
   94SAPE   H9R 9299   2.635   3.668   5.114  0.4058  0.7281 -1.8570
   94SAPE  C210 9300   2.804   3.808   5.131  0.1730 -0.3175  0.0395
   94SAPE  H10R 9301   2.906   3.781   5.097  0.0173  0.5295 -1.1638
   94SAPE  H10S 9302   2.819   3.885   5.210 -0.6772  2.6090 -2.4359
   94SAPE  C211 9303   2.744   3.864   5.003 -0.5022  0.2226  0.1672
   94SAPE  H11R 9304   2.760   3.802   4.913 -1.0621 -1.5010  1.2106
   94SAPE  C212 9305   2.694   3.985   4.987 -0.4793  0.0529 -0.1973
   94SAPE  H12R 9306   2.657   4.035   4.897 -0.9969  2.2563  1.1581
   94SAPE  C213 9307   2.667   4.087   5.100  0.5268  0.6973  0.5870
   94SAPE  H13R 9308   2.653   4.184   5.049 -0.5132  0.1612 -0.1991
   94SAPE  H13S 9309   2.757   4.092   5.165  0.7714 -1.8452  0.5505
   94SAPE  C214 9310   2.551   4.061   5.191  0.4166 -0.2483 -0.0338
   94SAPE  H14R 9311   2.466   4.001   5.156  0.8022  0.4281 -2.2590
   94SAPE  C215 9312   2.549   4.101   5.318 -0.4519 -0.1036 -0.1357
   94SAPE  H15R 9313   2.451   4.098   5.367 -0.2109  3.8902  0.9515
   94SAPE  C216 9314   2.656   4.178   5.396  0.4138 -0.2996  0.5076
   94SAPE  H16R 9315   2.613   4.251   5.468 -1.1562  0.7278 -1.3790
   94SAPE  H16S 9316   2.724   4.231   5.326 -1.8285  0.1730 -1.4165
   94SAPE  C217 9317   2.740   4.081   5.481  0.9706 -0.2131 -0.3788
   94SAPE  H17R 9318   2.825   4.129   5.533  0.8208 -0.1393 -0.2055
   94SAPE  H17S 9319   2.802   4.016   5.414  1.8456  1.5034 -1.2884
   94SAPE  C218 9320   2.661   3.982   5.570 -0.3935 -0.2132  0.1898
   94SAPE  H18R 9321   2.739   3.928   5.629 -0.1177  0.5259  0.5242
   94SAPE  H18S 9322   2.601   3.907   5.515 -0.7453  1.2520 -1.5001
   94SAPE  C219 9323   2.567   4.059   5.671  0.2868  0.1566  0.4213
   94SAPE  H19R 9324   2.521   3.976   5.729 -0.4442 -0.1860 -0.6087
   94SAPE  H19S 9325   2.480   4.099   5.614 -0.4213 -2.6835 -0.6576
   94SAPE  C220 9326   2.640   4.171   5.747  0.6422  0.1471  0.1314
   94SAPE  H20R 9327   2.589   4.193   5.843  0.3739  0.6926 -0.1306
   94SAPE  H20S 9328   2.666   4.264   5.692  3.9505  0.2671  1.6475
   94SAPE  H20T 9329   2.742   4.139   5.778  0.7595  1.0350  0.6823
   94SAPE   C33 9330   3.433   3.369   6.114  1.1585 -0.0738 -0.5621
   94SAPE   H3X 9331   3.404   3.266   6.144  0.3443  0.2999 -0.0321
   94SAPE   H3Y 9332   3.439   3.413   6.216 -1.0956  1.7857 -1.1501
   94SAPE   C34 9333   3.555   3.376   6.025  0.1253 -0.1158 -0.2303
   94SAPE   H4X 9334   3.650   3.356   6.079 -0.1313 -0.6602  0.0297
   94SAPE   H4Y 9335   3.572   3.482   5.996  0.5087  0.2190  1.1353
   94SAPE   C35 9336   3.548   3.279   5.904  0.3663 -0.8423  0.0679
   94SAPE   H5X 9337   3.631   3.303   5.835  2.1039 -0.3473  2.2258
   94SAPE   H5Y 9338   3.454   3.292   5.848 -0.8494  0.7524  2.2957
   94SAPE   C36 9339   3.555   3.129   5.951 -0.5416  0.8388  0.2781
   94SAPE   H6X 9340   3.459   3.104   6.001 -2.1535  0.9159 -2.5831
   94SAPE   H6Y 9341   3.635   3.119   6.028  0.4622 -1.4173 -0.9786
   94SAPE   C37 9342   3.592   3.028   5.836  0.5280 -0.2466 -0.4839
   94SAPE   H7X 9343   3.510   3.013   5.763  0.8835  1.8166 -1.3713
   94SAPE   H7Y 9344   3.600   2.929   5.886 -3.3794 -0.4026  0.1241
   94SAPE   C38 9345   3.728   3.059   5.767  0.2568  0.3141 -0.0403
   94SAPE   H8X 9346   3.789   2.968   5.782  0.9349  0.7688  0.0148
   94SAPE   H8Y 9347   3.780   3.135   5.829  0.0504 -0.6609  1.3912
   94SAPE   C39 9348   3.699   3.117   5.624  0.0963  0.2413 -0.1839
   94SAPE   H9X 9349   3.631   3.202   5.641  0.8612  0.9165 -0.4510
   94SAPE   H9Y 9350   3.645   3.033   5.575  0.7522 -0.6429  0.5633
   94SAPE  C310 9351   3.820   3.171   5.562 -0.2555 -0.1121  0.0523
   94SAPE  H10X 9352   3.896   3.095   5.534 -1.0428 -0.7447 -0.4060
   94SAPE  H10Y 9353   3.866   3.234   5.641  0.1434 -0.2153 -0.0969
   94SAPE  C311 9354   3.791   3.245   5.440  0.8179 -0.0596  1.2927
   94SAPE  H11X 9355   3.846   3.342   5.441 -0.9910  1.0159  0.7966
   94SAPE  H11Y 9356   3.686   3.282   5.442  0.9484  0.2937  1.8133
   94SAPE  C312 9357   3.816   3.168   5.314 -0.1401  0.2016  0.3108
   94SAPE  H12X 9358   3.755   3.075   5.306 -0.6317  0.6428 -1.5975
   94SAPE  H12Y 9359   3.922   3.135   5.323 -0.6854 -2.0858 -0.7705
   94SAPE  C313 9360   3.796   3.272   5.204  0.8165 -0.4410 -0.0447
   94SAPE  H13X 9361   3.876   3.349   5.205  1.2983 -0.9148  1.3080
   94SAPE  H13Y 9362   3.698   3.320   5.225  0.9664 -0.5216  0.9145
   94SAPE  C314 9363   3.790   3.211   5.066  0.0565  0.3334  0.7110
   94SAPE  H14X 9364   3.698   3.149   5.057  0.3848 -0.3636  1.9230
   94SAPE  H14Y 9365   3.879   3.146   5.051  0.2770  0.3252  1.9573
   94SAPE  C315 9366   3.773   3.317   4.960 -0.0295 -0.2682  0.8096
   94SAPE  H15X 9367   3.856   3.390   4.971 -0.0188 -0.3459  1.2515
   94SAPE  H15Y 9368   3.676   3.370   4.960  0.4609  0.6582  0.2561
   94SAPE  C316 9369   3.783   3.257   4.816 -0.5273 -0.4196  0.4286
   94SAPE  H16X 9370   3.708   3.176   4.803 -0.0049 -0.7745 -0.4853
   94SAPE  H16Y 9371   3.881   3.213   4.789 -0.6556  0.4603 -1.6420
   94SAPE  C317 9372   3.762   3.367   4.720  0.8478 -0.1067  0.1069
   94SAPE  H17X 9373   3.826   3.457   4.717 -0.3689  0.7709 -1.0059
   94SAPE  H17Y 9374   3.657   3.402   4.731  0.3642 -0.7689 -1.8711
   94SAPE  C318 9375   3.768   3.305   4.577  0.1683 -0.2460  0.0853
   94SAPE  H18X 9376   3.733   3.385   4.509  2.0603  0.1805 -0.4537
   94SAPE  H18Y 9377   3.702   3.216   4.567 -0.1823 -0.1092  1.0321
   94SAPE  H18Z 9378   3.872   3.278   4.550  0.5507  0.3815  0.8711
   95SAPE     N 9379   6.719   2.779   6.445  0.1283  0.0701  0.1279
   95SAPE   HN1 9380   6.631   2.825   6.475 -1.4282 -2.6137 -0.0686
   95SAPE   HN2 9381   6.771   2.786   6.536 -2.2072  1.7838  1.4407
   95SAPE   HN3 9382   6.779   2.835   6.381  1.5323 -0.9191  0.5260
   95SAPE   C12 9383   6.725   2.640   6.384 -0.4266  0.1607  0.1301
   95SAPE  H12A 9384   6.706   2.654   6.275  2.0809 -2.1941 -0.6909
   95SAPE  H12B 9385   6.644   2.575   6.424  2.8097 -4.3331  0.1107
   95SAPE   C11 9386   6.858   2.570   6.400 -0.2557 -1.3574  1.0357
   95SAPE  H11A 9387   6.929   2.636   6.344  1.1817 -3.2869  0.4594
   95SAPE  H11B 9388   6.846   2.472   6.348  1.0561 -0.8020 -0.4065
   95SAPE     P 9389   7.053   2.501   6.565  0.3620 -0.1016 -0.4378
   95SAPE   O13 9390   7.118   2.599   6.650 -0.4005  0.0486  0.2019
   95SAPE   O14 9391   7.033   2.363   6.622  0.1991 -0.1441 -0.4492
   95SAPE   O12 9392   6.908   2.545   6.527  0.4651 -0.0970 -0.6363
   95SAPE   O11 9393   7.132   2.492   6.434 -0.4639  0.0443  0.0285
   95SAPE    C1 9394   7.205   2.373   6.388  0.0973 -0.3017  0.0570
   95SAPE    HA 9395   7.308   2.367   6.430 -0.2136  0.3636  0.9469
   95SAPE    HB 9396   7.160   2.277   6.422 -1.2892 -0.0324 -0.9555
   95SAPE    C2 9397   7.218   2.359   6.238 -0.8255  0.1834  0.6486
   95SAPE    HS 9398   7.236   2.253   6.210  1.5452  0.6485  0.2099
   95SAPE   O21 9399   7.330   2.435   6.188  0.4924 -0.0524  0.2018
   95SAPE   C21 9400   7.399   2.386   6.083  0.3485  1.1418  0.6270
   95SAPE   O22 9401   7.363   2.277   6.032 -0.2972  0.8455 -0.4720
   95SAPE   C22 9402   7.520   2.472   6.044 -0.5129 -0.0838 -0.2052
   95SAPE   H2R 9403   7.515   2.557   6.115  0.8580 -0.7062  0.6911
   95SAPE   H2S 9404   7.606   2.409   6.074 -1.1906 -2.6214 -3.0799
   95SAPE    C3 9405   7.092   2.396   6.148  0.3050  0.3366  0.1937
   95SAPE    HX 9406   7.071   2.504   6.165  2.1324  0.7850 -0.1613
   95SAPE    HY 9407   7.010   2.337   6.192  0.6323  2.1510  3.6158
   95SAPE   O31 9408   7.105   2.378   6.008  0.0604  0.3589  0.2834
   95SAPE   C31 9409   7.058   2.258   5.961  0.9479  0.1488 -0.2916
   95SAPE   O32 9410   6.992   2.182   6.031  0.1350  0.5270 -0.2001
   95SAPE   C32 9411   7.087   2.241   5.817  0.0567 -0.2894  0.6049
   95SAPE   H2X 9412   7.188   2.200   5.799 -0.3315 -0.5409 -1.2276
   95SAPE   H2Y 9413   7.070   2.340   5.768 -2.8595 -0.7880  0.4139
   95SAPE   C23 9414   7.528   2.503   5.898  0.0169  0.0766 -0.2358
   95SAPE   H3R 9415   7.552   2.408   5.845 -1.1815  0.1968 -1.0458
   95SAPE   H3S 9416   7.600   2.584   5.875  0.7978 -0.5103  0.1053
   95SAPE   C24 9417   7.393   2.555   5.847  0.7123  0.1244 -0.5007
   95SAPE   H4R 9418   7.327   2.467   5.851  1.9983 -0.8402  0.2261
   95SAPE   H4S 9419   7.407   2.575   5.738 -1.8297  0.7416 -0.7770
   95SAPE   C25 9420   7.351   2.678   5.925  0.3619  0.0896  0.4410
   95SAPE   H5R 9421   7.333   2.677   6.034 -0.4321  0.9435  0.3280
   95SAPE   C26 9422   7.318   2.800   5.872  0.0203  0.1346  0.0697
   95SAPE   H6R 9423   7.285   2.881   5.938 -1.8689 -0.3956 -0.1534
   95SAPE   C27 9424   7.329   2.831   5.722  0.4772  0.0724 -0.8781
   95SAPE   H7R 9425   7.243   2.887   5.680 -0.5749  0.5580  1.7103
   95SAPE   H7S 9426   7.334   2.743   5.656 -0.2085  1.2130 -2.5121
   95SAPE   C28 9427   7.451   2.908   5.697 -0.4717 -0.1366 -1.0009
   95SAPE   H8R 9428   7.505   2.952   5.783  0.7157 -1.5546 -0.9850
   95SAPE   C29 9429   7.504   2.929   5.575  0.3833 -0.3176  0.1420
   95SAPE   H9R 9430   7.601   2.981   5.574  0.6605 -0.8261 -0.1719
   95SAPE  C210 9431   7.428   2.868   5.454  0.1309  0.1156 -1.0442
   95SAPE  H10R 9432   7.332   2.922   5.442 -0.6877 -0.7263  1.2096
   95SAPE  H10S 9433   7.412   2.761   5.477  0.7514  0.0113 -1.0663
   95SAPE  C211 9434   7.504   2.880   5.327 -0.0537 -0.4224  0.2903
   95SAPE  H11R 9435   7.612   2.901   5.337 -0.3093  2.3382 -1.6275
   95SAPE  C212 9436   7.450   2.859   5.206  0.0433 -1.3102 -0.2022
   95SAPE  H12R 9437   7.522   2.874   5.124  0.4930 -0.3881  0.3466
   95SAPE  C213 9438   7.310   2.810   5.176 -0.0198  0.1402  0.6683
   95SAPE  H13R 9439   7.275   2.873   5.092  3.5291 -0.1529 -1.2293
   95SAPE  H13S 9440   7.242   2.830   5.261  0.0605  4.7484 -0.1034
   95SAPE  C214 9441   7.304   2.664   5.151  0.2385 -0.2963  0.0976
   95SAPE  H14R 9442   7.299   2.601   5.240  0.8311 -0.2672  0.1595
   95SAPE  C215 9443   7.291   2.592   5.036  0.1027 -0.3579 -0.3235
   95SAPE  H15R 9444   7.278   2.485   5.058 -1.2774  0.0082  0.8536
   95SAPE  C216 9445   7.280   2.645   4.895 -0.1733 -0.4607 -0.0488
   95SAPE  H16R 9446   7.314   2.568   4.823 -0.3457 -0.0865 -0.5381
   95SAPE  H16S 9447   7.351   2.724   4.864 -0.8768 -0.7988 -2.8216
   95SAPE  C217 9448   7.132   2.683   4.865 -0.4650  0.0485 -0.3544
   95SAPE  H17R 9449   7.098   2.745   4.951 -0.7880  0.6564 -0.9111
   95SAPE  H17S 9450   7.071   2.591   4.871 -1.0429  0.3728 -1.0775
   95SAPE  C218 9451   7.108   2.739   4.725  0.3331  0.4994  0.3165
   95SAPE  H18R 9452   6.999   2.728   4.705  0.8000 -0.7754 -1.7738
   95SAPE  H18S 9453   7.168   2.684   4.650  0.7716 -1.1448  1.8160
   95SAPE  C219 9454   7.158   2.883   4.718  0.3865 -0.6769  0.0239
   95SAPE  H19R 9455   7.266   2.893   4.740  0.2072 -0.8016  1.0174
   95SAPE  H19S 9456   7.109   2.947   4.794 -0.6263 -2.2323  0.7223
   95SAPE  C220 9457   7.122   2.947   4.588  0.6896  0.5628  0.2267
   95SAPE  H20R 9458   7.162   3.050   4.571  1.7276 -0.0068 -0.9761
   95SAPE  H20S 9459   7.011   2.938   4.591  0.3245  4.0880  1.5099
   95SAPE  H20T 9460   7.144   2.886   4.497 -1.6181  0.3289 -0.2414
   95SAPE   C33 9461   6.995   2.129   5.759  0.7512 -0.2622 -0.2456
   95SAPE   H3X 9462   6.894   2.166   5.789  1.4480  0.4876  1.2653
   95SAPE   H3Y 9463   7.022   2.037   5.815 -0.9517 -0.2856  0.6268
   95SAPE   C34 9464   7.009   2.099   5.607 -0.1017 -0.2924 -0.1500
   95SAPE   H4X 9465   7.116   2.076   5.591 -0.4531 -0.5306 -2.7218
   95SAPE   H4Y 9466   6.980   2.194   5.557  2.8748  0.6575 -0.2247
   95SAPE   C35 9467   6.915   1.984   5.552 -0.4683 -0.3403 -0.3600
   95SAPE   H5X 9468   6.814   2.009   5.591 -0.2156  2.7981 -1.4636
   95SAPE   H5Y 9469   6.938   1.883   5.593  1.8180 -0.1915 -1.1626
   95SAPE   C36 9470   6.903   1.981   5.403 -0.2623 -0.1151 -0.0374
   95SAPE   H6X 9471   7.000   1.963   5.353 -0.2962 -1.1798  0.2641
   95SAPE   H6Y 9472   6.884   2.086   5.372 -1.3231 -0.2512  0.1168
   95SAPE   C37 9473   6.808   1.884   5.344  0.5803 -0.1704 -0.7914
   95SAPE   H7X 9474   6.703   1.918   5.338 -0.9278 -3.7944  1.6775
   95SAPE   H7Y 9475   6.827   1.789   5.400  0.2060 -0.2633 -0.8187
   95SAPE   C38 9476   6.841   1.853   5.197  0.0196  0.3095  0.0267
   95SAPE   H8X 9477   6.764   1.780   5.166 -0.2365 -0.4742  2.3108
   95SAPE   H8Y 9478   6.945   1.814   5.193 -0.2951 -0.5410 -0.0524
   95SAPE   C39 9479   6.836   1.979   5.113  0.3111 -0.4495  0.6725
   95SAPE   H9X 9480   6.923   2.046   5.126  0.1678 -0.1690  0.1999
   95SAPE   H9Y 9481   6.747   2.038   5.143  1.4183  0.6331  1.9400
   95SAPE  C310 9482   6.833   1.949   4.955  0.2022 -0.0114 -0.0204
   95SAPE  H10X 9483   6.728   1.916   4.940 -0.0464  0.8300 -0.1564
   95SAPE  H10Y 9484   6.900   1.866   4.923 -2.0595 -1.9725  0.1116
   95SAPE  C311 9485   6.852   2.069   4.869  0.2353  0.6908 -0.2926
   95SAPE  H11X 9486   6.949   2.114   4.900 -0.2971  1.3458  0.4599
   95SAPE  H11Y 9487   6.778   2.152   4.871  0.0402  0.5198 -0.4297
   95SAPE  C312 9488   6.865   2.026   4.722 -0.0052  0.5726  0.5495
   95SAPE  H12X 9489   6.881   2.117   4.660  2.3663  0.1658  0.4829
   95SAPE  H12Y 9490   6.771   1.978   4.688 -0.0848 -0.7157  2.4287
   95SAPE  C313 9491   6.976   1.920   4.699 -0.5878 -0.0198  0.6519
   95SAPE  H13X 9492   6.958   1.812   4.719  2.0685 -0.5173  0.7657
   95SAPE  H13Y 9493   7.069   1.949   4.752 -0.5693 -0.0470  0.6337
   95SAPE  C314 9494   7.019   1.923   4.550  0.3955  0.6078  0.2802
   95SAPE  H14X 9495   7.102   1.850   4.536 -2.3776 -2.0455 -5.6987
   95SAPE  H14Y 9496   7.062   2.018   4.514  1.2479  0.4132  0.7629
   95SAPE  C315 9497   6.909   1.890   4.447  0.5671  0.0272 -0.1904
   95SAPE  H15X 9498   6.829   1.966   4.451  1.4020  0.9362 -0.3095
   95SAPE  H15Y 9499   6.883   1.784   4.471 -0.3895  0.4381  0.6312
   95SAPE  C316 9500   6.965   1.896   4.309 -0.3479 -0.2329 -0.0066
   95SAPE  H16X 9501   7.062   1.841   4.310 -0.2269 -0.0217 -0.0351
   95SAPE  H16Y 9502   6.990   2.004   4.295 -0.8104 -0.2940 -1.5491
   95SAPE  C317 9503   6.881   1.837   4.191 -0.3313  0.1939 -0.0780
   95SAPE  H17X 9504   6.916   1.733   4.171  1.8470  0.9528 -0.5291
   95SAPE  H17Y 9505   6.890   1.896   4.097  1.1215  2.3741  1.3598
   95SAPE  C318 9506   6.733   1.823   4.219  0.6705  0.0248 -0.0187
   95SAPE  H18X 9507   6.686   1.780   4.129  1.0244 -2.4334  0.8945
   95SAPE  H18Y 9508   6.693   1.926   4.236  3.1155  1.3523 -1.6742
   95SAPE  H18Z 9509   6.722   1.748   4.300 -0.2098 -0.9160 -0.9983
   96SAPE     N 9510   1.456   5.240   6.042  0.6298  0.2137  0.6167
   96SAPE   HN1 9511   1.537   5.257   6.106  2.0858 -1.5283 -0.6419
   96SAPE   HN2 9512   1.360   5.252   6.078 -0.1917  1.7396 -1.8663
   96SAPE   HN3 9513   1.470   5.144   6.004  0.9232  0.3323  0.4228
   96SAPE   C12 9514   1.480   5.324   5.923 -0.3294  0.0693  0.4246
   96SAPE  H12A 9515   1.478   5.430   5.957  1.0180  0.6342 -1.1127
   96SAPE  H12B 9516   1.388   5.316   5.861 -1.0930  0.0978  1.5275
   96SAPE   C11 9517   1.611   5.283   5.843  0.3801 -0.2395  0.6883
   96SAPE  H11A 9518   1.626   5.350   5.756  0.7029 -0.1777  0.7891
   96SAPE  H11B 9519   1.584   5.188   5.792 -0.7212  1.2234 -1.6296
   96SAPE     P 9520   1.799   5.130   5.951  0.3014 -0.1716 -0.0553
   96SAPE   O13 9521   1.925   5.138   6.029 -0.9141 -0.2374  0.3869
   96SAPE   O14 9522   1.701   5.037   6.005  0.7517  0.5831  0.4226
   96SAPE   O12 9523   1.733   5.273   5.926  0.0376 -0.2430  0.0222
   96SAPE   O11 9524   1.824   5.077   5.806 -0.0879  0.0877 -0.6647
   96SAPE    C1 9525   1.921   5.153   5.724 -0.0824  1.1796  0.2926
   96SAPE    HA 9526   1.977   5.232   5.778 -2.2654 -0.2946  5.2032
   96SAPE    HB 9527   2.005   5.083   5.702  0.6130  1.8934  0.6522
   96SAPE    C2 9528   1.859   5.190   5.583 -0.7029  0.4114  0.1986
   96SAPE    HS 9529   1.757   5.230   5.604 -2.1519 -1.4232 -2.7272
   96SAPE   O21 9530   1.859   5.058   5.513 -0.7944 -1.0335  0.2274
   96SAPE   C21 9531   1.734   5.009   5.504  0.9732  0.0563 -0.5276
   96SAPE   O22 9532   1.637   5.061   5.553 -0.2327 -0.2887 -0.5792
   96SAPE   C22 9533   1.740   4.892   5.411 -0.1112  0.9512  0.0325
   96SAPE   H2R 9534   1.790   4.909   5.313 -1.2106 -1.5599 -1.0560
   96SAPE   H2S 9535   1.792   4.811   5.466 -1.4961  2.3220  3.6605
   96SAPE    C3 9536   1.947   5.295   5.504  0.7133 -0.1972 -0.9051
   96SAPE    HX 9537   2.049   5.250   5.507  0.5204 -0.6987 -1.6183
   96SAPE    HY 9538   1.937   5.392   5.557 -1.5786 -0.6528 -0.3908
   96SAPE   O31 9539   1.914   5.337   5.374  0.7419 -0.5820 -0.0779
   96SAPE   C31 9540   1.964   5.260   5.277  0.2075 -0.2809  0.2395
   96SAPE   O32 9541   2.022   5.154   5.303  0.3603 -0.1054 -0.2038
   96SAPE   C32 9542   1.950   5.316   5.128  0.1734 -0.7966 -0.2365
   96SAPE   H2X 9543   1.973   5.424   5.143 -0.6383 -0.5360 -0.7827
   96SAPE   H2Y 9544   1.841   5.301   5.110  0.5314 -1.0253 -2.4901
   96SAPE   C23 9545   1.603   4.832   5.376  0.0112  0.4660 -0.2555
   96SAPE   H3R 9546   1.551   4.919   5.331 -0.6464  1.0225  1.5114
   96SAPE   H3S 9547   1.551   4.808   5.471 -0.5937 -1.4428 -1.0192
   96SAPE   C24 9548   1.611   4.704   5.283 -0.0425  0.3225  0.0383
   96SAPE   H4R 9549   1.677   4.734   5.199  1.5242  1.4790  1.6091
   96SAPE   H4S 9550   1.506   4.689   5.249  0.1991  2.0292 -1.6056
   96SAPE   C25 9551   1.671   4.591   5.360  0.5408  0.4272 -0.5434
   96SAPE   H5R 9552   1.639   4.574   5.464 -1.1507  0.0686 -1.0985
   96SAPE   C26 9553   1.790   4.527   5.324 -0.3460 -1.1126  0.3272
   96SAPE   H6R 9554   1.826   4.445   5.389  0.5172 -1.5120 -0.6303
   96SAPE   C27 9555   1.874   4.539   5.198 -0.5644 -0.1503  0.3557
   96SAPE   H7R 9556   1.807   4.551   5.110 -1.1917  1.1765  0.9812
   96SAPE   H7S 9557   1.942   4.457   5.170  0.0535  0.8201 -1.0698
   96SAPE   C28 9558   1.955   4.671   5.199  0.8546  0.0281  0.3697
   96SAPE   H8R 9559   1.976   4.707   5.300 -1.1497 -2.2573  1.7291
   96SAPE   C29 9560   2.008   4.731   5.091 -0.0486  0.6291 -0.0678
   96SAPE   H9R 9561   2.059   4.828   5.095 -0.5332  0.8954 -0.2216
   96SAPE  C210 9562   1.995   4.693   4.942  0.9852  0.2188  0.1720
   96SAPE  H10R 9563   2.068   4.751   4.882  0.9857 -2.7496 -2.9993
   96SAPE  H10S 9564   1.894   4.731   4.914  0.6380  0.6844  1.9272
   96SAPE  C211 9565   2.012   4.548   4.904  0.4812  0.2710 -1.0619
   96SAPE  H11R 9566   2.028   4.477   4.987  1.6413  1.5426 -0.1528
   96SAPE  C212 9567   2.015   4.502   4.777 -0.4612  0.6093 -0.1107
   96SAPE  H12R 9568   2.046   4.398   4.759 -0.3751  0.5664  0.2882
   96SAPE  C213 9569   2.000   4.579   4.654  0.1062  0.2777  0.8503
   96SAPE  H13R 9570   1.955   4.676   4.683 -0.2757 -0.0294  1.2860
   96SAPE  H13S 9571   1.930   4.537   4.578  0.8929  2.7812 -1.4237
   96SAPE  C214 9572   2.131   4.596   4.588  0.4766 -0.5518  0.1251
   96SAPE  H14R 9573   2.189   4.684   4.618  2.0869 -0.9915 -1.5213
   96SAPE  C215 9574   2.194   4.515   4.497  0.1519  0.5751 -0.3282
   96SAPE  H15R 9575   2.286   4.549   4.448  0.9467 -0.8631  0.1025
   96SAPE  C216 9576   2.143   4.385   4.440 -0.6569 -0.4274  0.1270
   96SAPE  H16R 9577   2.049   4.353   4.491 -0.8593 -2.0487 -1.1700
   96SAPE  H16S 9578   2.226   4.314   4.456 -0.1052  0.6336  2.4068
   96SAPE  C217 9579   2.116   4.381   4.292 -0.0110  0.4706  0.6680
   96SAPE  H17R 9580   2.032   4.441   4.250 -0.6518 -2.5007 -2.8615
   96SAPE  H17S 9581   2.083   4.277   4.272 -0.9831  0.9404 -0.2346
   96SAPE  C218 9582   2.244   4.397   4.205  0.6680  0.3172 -0.0524
   96SAPE  H18R 9583   2.323   4.320   4.218  0.3057 -0.3498 -1.5154
   96SAPE  H18S 9584   2.300   4.493   4.215 -1.6133  1.5950  1.1773
   96SAPE  C219 9585   2.223   4.391   4.054  0.7208 -0.7264  0.0934
   96SAPE  H19R 9586   2.140   4.461   4.032 -2.1443 -4.2086 -1.0514
   96SAPE  H19S 9587   2.185   4.298   4.007  0.7889 -1.1596  0.8752
   96SAPE  C220 9588   2.342   4.444   3.984 -0.2573  0.2786  0.9399
   96SAPE  H20R 9589   2.423   4.369   3.990  0.6827  1.1077 -0.5815
   96SAPE  H20S 9590   2.374   4.546   4.016 -0.0963  0.7291 -0.5452
   96SAPE  H20T 9591   2.311   4.469   3.880 -0.0418  0.0344  0.8153
   96SAPE   C33 9592   2.023   5.232   5.023 -0.1582  0.1398 -0.3389
   96SAPE   H3X 9593   1.987   5.128   5.038  0.1772  0.2043  1.0810
   96SAPE   H3Y 9594   2.131   5.256   5.034 -0.8919  3.7810  0.2327
   96SAPE   C34 9595   1.983   5.266   4.874 -0.1173 -0.2105 -0.1772
   96SAPE   H4X 9596   1.955   5.371   4.850 -0.4943 -0.6860 -1.9610
   96SAPE   H4Y 9597   1.892   5.203   4.863 -2.0986  2.5028 -0.4082
   96SAPE   C35 9598   2.090   5.228   4.775  0.4663 -0.3765  0.3299
   96SAPE   H5X 9599   2.177   5.182   4.826 -1.5943 -1.5545  3.0830
   96SAPE   H5Y 9600   2.116   5.316   4.712 -0.3064 -0.2144  0.2219
   96SAPE   C36 9601   2.051   5.116   4.674 -0.1203 -0.5693 -0.2550
   96SAPE   H6X 9602   2.020   5.030   4.737  0.2321  1.4322  2.8550
   96SAPE   H6Y 9603   2.128   5.090   4.599  1.2782  0.4175  0.7870
   96SAPE   C37 9604   1.929   5.149   4.585 -0.3049  0.3636  0.0786
   96SAPE   H7X 9605   1.945   5.246   4.533  0.2135  0.3925  0.2943
   96SAPE   H7Y 9606   1.837   5.174   4.642  0.9825  1.2410  1.8671
   96SAPE   C38 9607   1.876   5.026   4.494  0.4086  0.2764  0.7331
   96SAPE   H8X 9608   1.789   5.069   4.439 -0.5151 -1.9219  0.3701
   96SAPE   H8Y 9609   1.839   4.944   4.559 -0.6519 -0.7005 -1.0343
   96SAPE   C39 9610   1.981   4.958   4.397  0.1661  0.2990 -0.2161
   96SAPE   H9X 9611   2.058   4.914   4.463 -1.2001 -0.7027  0.7794
   96SAPE   H9Y 9612   2.042   5.038   4.351  1.4027  0.1898  1.1601
   96SAPE  C310 9613   1.920   4.854   4.306  0.6168  0.2248 -0.6161
   96SAPE  H10X 9614   1.826   4.889   4.258  0.6242 -0.4411 -1.1399
   96SAPE  H10Y 9615   1.899   4.758   4.358  2.2705 -0.7238 -1.5975
   96SAPE  C311 9616   2.011   4.814   4.189  0.0651 -0.1358 -1.0961
   96SAPE  H11X 9617   2.090   4.748   4.231  1.5574  1.9130 -0.4982
   96SAPE  H11Y 9618   2.065   4.909   4.166 -0.7861  1.4937  2.8735
   96SAPE  C312 9619   1.950   4.767   4.064 -0.3835  0.4279  0.1934
   96SAPE  H12X 9620   1.898   4.672   4.090  0.5357  0.4393  2.2700
   96SAPE  H12Y 9621   2.035   4.733   4.001  0.9288  1.9991  1.0624
   96SAPE  C313 9622   1.857   4.864   3.992  0.6023 -0.0209 -0.7502
   96SAPE  H13X 9623   1.905   4.964   3.977 -1.3542  1.2281  0.8362
   96SAPE  H13Y 9624   1.775   4.872   4.066  1.9999 -0.0069  0.8468
   96SAPE  C314 9625   1.801   4.811   3.866  0.0832  0.8214 -0.2587
   96SAPE  H14X 9626   1.712   4.867   3.830 -1.4439 -0.5835  1.1428
   96SAPE  H14Y 9627   1.770   4.705   3.878  3.2431 -0.6869 -3.3204
   96SAPE  C315 9628   1.906   4.818   3.754  0.8703 -0.1640 -0.0680
   96SAPE  H15X 9629   2.002   4.788   3.801  1.7778  1.0120 -1.1409
   96SAPE  H15Y 9630   1.925   4.921   3.717  0.0427 -0.3471 -1.0232
   96SAPE  C316 9631   1.862   4.737   3.635 -0.0044 -0.5027  0.0254
   96SAPE  H16X 9632   1.839   4.637   3.677  0.3874 -0.6768 -0.1707
   96SAPE  H16Y 9633   1.949   4.733   3.567 -0.0700  1.8328 -0.2678
   96SAPE  C317 9634   1.738   4.784   3.558 -0.2360  0.7097 -1.0386
   96SAPE  H17X 9635   1.764   4.887   3.526  1.1588  0.8743  0.5087
   96SAPE  H17Y 9636   1.658   4.792   3.634 -0.5521  3.1747 -1.5591
   96SAPE  C318 9637   1.694   4.709   3.431 -0.2238  0.2827 -0.1421
   96SAPE  H18X 9638   1.655   4.609   3.456  2.9693 -0.6572  1.7569
   96SAPE  H18Y 9639   1.776   4.693   3.358  0.6683  4.0316 -0.1879
   96SAPE  H18Z 9640   1.618   4.756   3.365  1.1251  1.3493 -0.9986
   97SAPE     N 9641   3.766   2.922   6.612 -0.2292 -0.1827 -0.3162
   97SAPE   HN1 9642   3.851   2.953   6.561  0.5143 -0.4059  0.7489
   97SAPE   HN2 9643   3.734   2.827   6.586  0.6589 -0.6324  0.1905
   97SAPE   HN3 9644   3.693   2.989   6.581 -0.4830 -1.7854 -3.5679
   97SAPE   C12 9645   3.774   2.920   6.765  0.4552 -0.8417 -0.7188
   97SAPE  H12A 9646   3.670   2.933   6.801 -0.1959 -1.4601 -2.3091
   97SAPE  H12B 9647   3.831   3.012   6.792 -0.5311  0.2434 -2.2274
   97SAPE   C11 9648   3.832   2.796   6.825  0.2207 -0.2291 -0.7529
   97SAPE  H11A 9649   3.758   2.718   6.797 -0.0220  0.1867 -1.2966
   97SAPE  H11B 9650   3.832   2.813   6.935 -0.9056  2.3154 -1.0544
   97SAPE     P 9651   4.081   2.712   6.841 -0.2690  0.1309  0.0926
   97SAPE   O13 9652   4.189   2.813   6.853  0.1376 -0.3188  0.2292
   97SAPE   O14 9653   4.034   2.652   6.968  0.1952 -0.1035 -0.8796
   97SAPE   O12 9654   3.957   2.767   6.765 -0.2009 -0.2371  0.0674
   97SAPE   O11 9655   4.127   2.596   6.748 -0.7787  0.1355  0.2744
   97SAPE    C1 9656   4.213   2.614   6.625  0.0713 -0.1742  0.0744
   97SAPE    HA 9657   4.266   2.712   6.622 -1.5754  0.7575 -2.8232
   97SAPE    HB 9658   4.298   2.542   6.628  0.0365 -0.2266 -0.1579
   97SAPE    C2 9659   4.131   2.589   6.503  0.2652 -0.8226 -0.2278
   97SAPE    HS 9660   4.052   2.666   6.508  1.3036  0.3255 -0.9301
   97SAPE   O21 9661   4.076   2.458   6.508  0.3295 -0.1169  0.6124
   97SAPE   C21 9662   3.957   2.450   6.448 -0.1242 -0.1360  0.8517
   97SAPE   O22 9663   3.893   2.539   6.396 -0.3913 -0.7445  0.4339
   97SAPE   C22 9664   3.915   2.309   6.448 -0.1519 -0.0181  0.4479
   97SAPE   H2R 9665   3.982   2.253   6.380 -0.0526  0.0917  0.4553
   97SAPE   H2S 9666   3.928   2.278   6.554 -3.2945 -0.0711  0.9393
   97SAPE    C3 9667   4.219   2.606   6.376  0.5519  0.4610  0.5876
   97SAPE    HX 9668   4.296   2.527   6.367  0.1477  0.2468 -1.5405
   97SAPE    HY 9669   4.279   2.700   6.369  0.9174  0.1392 -1.0196
   97SAPE   O31 9670   4.146   2.583   6.258  0.0553 -0.3104  0.3259
   97SAPE   C31 9671   4.089   2.696   6.214 -0.0296  0.1082  0.7619
   97SAPE   O32 9672   4.074   2.796   6.284  0.8145  0.6543  0.2548
   97SAPE   C32 9673   4.032   2.664   6.078 -0.1780 -0.2358  0.1299
   97SAPE   H2X 9674   3.990   2.759   6.038 -1.3260  0.4083  2.6772
   97SAPE   H2Y 9675   3.947   2.594   6.067 -0.0513 -0.0833 -2.8252
   97SAPE   C23 9676   3.765   2.301   6.399  0.0349 -0.3940  0.5493
   97SAPE   H3R 9677   3.702   2.378   6.449  0.5934  0.0042  0.6460
   97SAPE   H3S 9678   3.741   2.200   6.440 -1.2043 -1.2053 -1.9326
   97SAPE   C24 9679   3.742   2.286   6.247 -0.5658 -0.1637  0.1764
   97SAPE   H4R 9680   3.813   2.206   6.218 -0.1795  0.2304  0.0089
   97SAPE   H4S 9681   3.795   2.375   6.206  0.0743  0.8193  2.9245
   97SAPE   C25 9682   3.603   2.264   6.192 -0.2371  0.0198  0.5469
   97SAPE   H5R 9683   3.539   2.348   6.223  2.2897  2.8403 -1.3866
   97SAPE   C26 9684   3.566   2.168   6.104 -0.7390  0.2093  0.0199
   97SAPE   H6R 9685   3.461   2.161   6.074 -0.0919 -1.9365 -2.1119
   97SAPE   C27 9686   3.659   2.090   6.014  0.5824 -0.0579  0.5047
   97SAPE   H7R 9687   3.737   2.031   6.067  0.3392 -0.2888  0.6096
   97SAPE   H7S 9688   3.704   2.161   5.942 -1.2207  2.7895  1.9824
   97SAPE   C28 9689   3.581   1.978   5.944 -0.2956 -0.2698  0.3899
   97SAPE   H8R 9690   3.552   1.899   6.014 -0.0597 -2.3049 -1.6977
   97SAPE   C29 9691   3.568   1.963   5.812 -0.3161 -0.4004 -0.2549
   97SAPE   H9R 9692   3.502   1.883   5.777 -2.3765  0.4561  1.4403
   97SAPE  C210 9693   3.602   2.059   5.699  0.2985 -0.3098  0.1643
   97SAPE  H10R 9694   3.636   2.157   5.739  1.9969 -0.6226 -0.4044
   97SAPE  H10S 9695   3.508   2.078   5.644  0.4983 -1.0643 -0.4577
   97SAPE  C211 9696   3.704   2.013   5.595  0.3808 -0.6593 -0.2144
   97SAPE  H11R 9697   3.803   2.006   5.643  0.2626  0.9892  0.3630
   97SAPE  C212 9698   3.698   1.976   5.468 -0.0311  0.2030 -0.1236
   97SAPE  H12R 9699   3.787   1.939   5.415 -0.2468  0.3974 -0.6291
   97SAPE  C213 9700   3.587   2.012   5.368  0.3229 -0.0921  0.2961
   97SAPE  H13R 9701   3.613   2.098   5.303 -0.6078  0.7540  1.0077
   97SAPE  H13S 9702   3.499   2.049   5.425  0.6962  0.2483  0.6615
   97SAPE  C214 9703   3.551   1.890   5.283 -1.1770  0.4584  0.4505
   97SAPE  H14R 9704   3.635   1.821   5.267  0.2929  1.7501  2.3148
   97SAPE  C215 9705   3.434   1.858   5.233  0.0219  0.2414  0.6970
   97SAPE  H15R 9706   3.432   1.773   5.164 -1.3895  0.7135  0.1231
   97SAPE  C216 9707   3.309   1.941   5.251  0.2743 -0.6958 -0.4403
   97SAPE  H16R 9708   3.253   1.965   5.157  0.1038 -1.1599 -0.4618
   97SAPE  H16S 9709   3.328   2.035   5.308  0.3245 -1.2136  0.4067
   97SAPE  C217 9710   3.216   1.848   5.345 -0.2215 -0.2449 -0.7683
   97SAPE  H17R 9711   3.200   1.754   5.288  1.4253 -1.5575  0.7651
   97SAPE  H17S 9712   3.122   1.905   5.358 -1.8806 -2.5483 -1.9910
   97SAPE  C218 9713   3.263   1.829   5.489 -0.1170 -0.6080 -0.3416
   97SAPE  H18R 9714   3.272   1.930   5.533 -0.2362 -0.1473 -1.3528
   97SAPE  H18S 9715   3.367   1.791   5.499  0.6560  1.7478  1.1172
   97SAPE  C219 9716   3.183   1.729   5.572 -0.2917 -0.4367  0.1268
   97SAPE  H19R 9717   3.169   1.632   5.521  1.9333 -0.4762 -0.4886
   97SAPE  H19S 9718   3.081   1.772   5.589 -1.0789 -1.9041 -0.6771
   97SAPE  C220 9719   3.247   1.700   5.713  0.0835  0.3119  0.5526
   97SAPE  H20R 9720   3.355   1.673   5.712  0.7018  2.5407  0.9735
   97SAPE  H20S 9721   3.188   1.615   5.752  0.5186 -0.1528  0.2162
   97SAPE  H20T 9722   3.241   1.792   5.775  1.4597  1.4076 -0.8525
   97SAPE   C33 9723   4.146   2.631   5.975  1.1542  0.1399 -0.7255
   97SAPE   H3X 9724   4.173   2.524   5.985 -0.6136 -0.3075 -0.3985
   97SAPE   H3Y 9725   4.236   2.696   5.987  1.6173 -0.2184 -2.0937
   97SAPE   C34 9726   4.089   2.655   5.830  0.7641 -0.0852  0.8124
   97SAPE   H4X 9727   3.990   2.605   5.826  0.8367 -0.4335  2.6540
   97SAPE   H4Y 9728   4.155   2.599   5.760  1.6443 -0.2282  1.7451
   97SAPE   C35 9729   4.082   2.808   5.787 -0.1088 -0.1786 -0.1162
   97SAPE   H5X 9730   4.167   2.845   5.848 -0.4361  0.9820 -0.3477
   97SAPE   H5Y 9731   3.999   2.867   5.833  0.9466  0.1054  1.5324
   97SAPE   C36 9732   4.103   2.837   5.639 -0.1024 -0.2389 -0.3744
   97SAPE   H6X 9733   4.006   2.813   5.589 -0.8984  0.5251  0.7528
   97SAPE   H6Y 9734   4.186   2.772   5.603  0.4928 -0.2923  1.0472
   97SAPE   C37 9735   4.162   2.966   5.600  0.6728 -0.5409 -0.3470
   97SAPE   H7X 9736   4.243   2.992   5.671  0.9642  2.9864 -1.7642
   97SAPE   H7Y 9737   4.083   3.045   5.600 -0.4907 -1.6749 -1.0717
   97SAPE   C38 9738   4.213   2.969   5.460  1.0367 -0.1143  0.3305
   97SAPE   H8X 9739   4.134   2.919   5.400  2.0643 -0.7448 -0.5292
   97SAPE   H8Y 9740   4.309   2.916   5.444  0.8188 -0.7121  0.9230
   97SAPE   C39 9741   4.212   3.117   5.418  0.4290 -0.2168  0.4277
   97SAPE   H9X 9742   4.301   3.168   5.461  1.2637 -1.8439  0.7047
   97SAPE   H9Y 9743   4.121   3.172   5.451  1.4063  0.5552  1.9071
   97SAPE  C310 9744   4.211   3.131   5.265  0.0881  0.1226 -0.1599
   97SAPE  H10X 9745   4.120   3.077   5.232 -1.2051  2.1577 -0.0477
   97SAPE  H10Y 9746   4.307   3.086   5.231  0.4204  1.9584 -1.8502
   97SAPE  C311 9747   4.212   3.269   5.214 -0.1442  0.2109  0.1874
   97SAPE  H11X 9748   4.307   3.319   5.246 -0.0446 -0.4571  0.9851
   97SAPE  H11Y 9749   4.138   3.332   5.269  0.6974 -0.7549  2.5963
   97SAPE  C312 9750   4.204   3.278   5.061  0.3812  0.2124  0.0129
   97SAPE  H12X 9751   4.122   3.214   5.022 -0.5588  0.7867  1.0038
   97SAPE  H12Y 9752   4.305   3.253   5.022  0.6229  0.2248  0.6235
   97SAPE  C313 9753   4.166   3.417   5.017 -0.5276  0.9192 -0.0092
   97SAPE  H13X 9754   4.240   3.493   5.051  0.3316 -0.4407  1.2540
   97SAPE  H13Y 9755   4.065   3.435   5.058 -0.6309 -0.6738  0.5099
   97SAPE  C314 9756   4.145   3.431   4.865 -0.3505 -0.3389 -0.5566
   97SAPE  H14X 9757   4.085   3.518   4.830  1.9219  2.1951  1.4053
   97SAPE  H14Y 9758   4.087   3.340   4.841 -0.2161 -0.1162 -1.8107
   97SAPE  C315 9759   4.276   3.449   4.787 -0.3676  0.3996 -0.0087
   97SAPE  H15X 9760   4.350   3.373   4.822 -1.5299 -1.3434 -1.1457
   97SAPE  H15Y 9761   4.316   3.547   4.818  0.6535  0.2370 -0.7836
   97SAPE  C316 9762   4.262   3.440   4.633  0.7026 -1.0493  0.1645
   97SAPE  H16X 9763   4.356   3.483   4.591 -0.1256 -0.4936 -1.1562
   97SAPE  H16Y 9764   4.177   3.506   4.610  0.9836  0.4907  3.0351
   97SAPE  C317 9765   4.226   3.304   4.585 -0.2919  0.6702 -0.6775
   97SAPE  H17X 9766   4.124   3.274   4.617  0.5309 -1.7617 -0.1726
   97SAPE  H17Y 9767   4.291   3.225   4.628 -0.7745 -0.6293 -2.2319
   97SAPE  C318 9768   4.242   3.283   4.432 -0.0746  1.0156  0.1397
   97SAPE  H18X 9769   4.190   3.359   4.369 -1.1749  1.4336  1.4831
   97SAPE  H18Y 9770   4.208   3.181   4.404  0.3508  1.1193 -0.7636
   97SAPE  H18Z 9771   4.349   3.276   4.406 -0.1743 -1.3480  0.1409
   98SAPE     N 9772   0.922   0.927   6.246 -0.4283  0.3622  0.6602
   98SAPE   HN1 9773   0.912   0.842   6.306 -1.1261  1.2048  1.7775
   98SAPE   HN2 9774   0.898   0.894   6.151  1.1132 -0.7460  0.6094
   98SAPE   HN3 9775   1.023   0.951   6.243 -0.7476  1.7351  0.2562
   98SAPE   C12 9776   0.855   1.053   6.294  0.4945  0.2225  0.1835
   98SAPE  H12A 9777   0.852   1.061   6.404 -1.3954 -0.6298  0.2374
   98SAPE  H12B 9778   0.749   1.047   6.259  0.5464 -0.7430  0.1598
   98SAPE   C11 9779   0.918   1.170   6.228 -0.3497 -0.0950  0.0243
   98SAPE  H11A 9780   0.845   1.253   6.220  0.3088  0.3863 -1.2120
   98SAPE  H11B 9781   0.933   1.138   6.123  0.4567  1.9054 -0.5106
   98SAPE     P 9782   1.134   1.324   6.242  0.2800  0.2411  0.0652
   98SAPE   O13 9783   1.088   1.450   6.302  0.6510  0.2623  0.0779
   98SAPE   O14 9784   1.276   1.293   6.277  0.2064  1.1551  0.0257
   98SAPE   O12 9785   1.037   1.205   6.290  0.0120 -0.4982  0.3356
   98SAPE   O11 9786   1.125   1.326   6.088  0.3067 -0.7284  0.5097
   98SAPE    C1 9787   1.030   1.416   6.019  0.7116  0.1849 -0.4232
   98SAPE    HA 9788   0.987   1.366   5.930  1.6046  0.7361 -1.1837
   98SAPE    HB 9789   0.942   1.442   6.081  3.0431  1.1539  2.7647
   98SAPE    C2 9790   1.092   1.543   5.973  0.4890 -0.1399  0.7679
   98SAPE    HS 9791   1.150   1.577   6.061  3.2262 -0.8258 -0.6773
   98SAPE   O21 9792   0.989   1.634   5.945 -0.4432  0.0330  0.1911
   98SAPE   C21 9793   1.012   1.760   5.923 -0.2047  0.1630  0.4250
   98SAPE   O22 9794   1.114   1.819   5.954 -0.3424  0.3132  0.0951
   98SAPE   C22 9795   0.905   1.811   5.825  0.2162 -0.4022 -0.6598
   98SAPE   H2R 9796   0.878   1.736   5.748  0.9995 -0.5294 -0.8177
   98SAPE   H2S 9797   0.813   1.837   5.882 -0.8307  1.1678 -2.9328
   98SAPE    C3 9798   1.193   1.523   5.859  0.3894 -0.6745 -0.4555
   98SAPE    HX 9799   1.267   1.444   5.880  1.3428  0.1392 -0.6717
   98SAPE    HY 9800   1.252   1.617   5.854 -1.5598  0.6288 -0.2296
   98SAPE   O31 9801   1.120   1.507   5.733 -0.4406 -0.6743  0.1424
   98SAPE   C31 9802   1.198   1.481   5.628 -0.1769 -0.1267 -0.0921
   98SAPE   O32 9803   1.320   1.468   5.636 -0.0462 -0.1180  0.1384
   98SAPE   C32 9804   1.116   1.469   5.495 -0.4064 -0.0154  0.3318
   98SAPE   H2X 9805   1.045   1.554   5.498 -1.8973 -1.2132 -0.1521
   98SAPE   H2Y 9806   1.052   1.379   5.498 -0.0953 -0.2487  0.0315
   98SAPE   C23 9807   0.945   1.953   5.769 -0.0598 -0.0202 -0.4165
   98SAPE   H3R 9808   1.023   1.932   5.693 -0.9405 -0.2124 -1.3011
   98SAPE   H3S 9809   0.979   2.017   5.853  0.5720 -3.2637  2.0025
   98SAPE   C24 9810   0.842   2.035   5.690 -0.3694  0.2948  0.4607
   98SAPE   H4R 9811   0.806   1.976   5.603  0.9995  1.4238 -0.9422
   98SAPE   H4S 9812   0.901   2.120   5.649 -1.8274  2.3087  2.3437
   98SAPE   C25 9813   0.718   2.067   5.765  0.1842  0.3355  0.3142
   98SAPE   H5R 9814   0.717   2.046   5.873 -1.5686 -0.7359  0.1213
   98SAPE   C26 9815   0.615   2.144   5.722 -0.3201  0.5578 -0.1018
   98SAPE   H6R 9816   0.528   2.160   5.787  0.4438 -1.0545  1.3897
   98SAPE   C27 9817   0.606   2.201   5.585  0.0402  0.7323  0.1996
   98SAPE   H7R 9818   0.619   2.118   5.512  3.5361  1.2347  0.0923
   98SAPE   H7S 9819   0.698   2.262   5.576  0.0050  0.6619 -0.6857
   98SAPE   C28 9820   0.489   2.291   5.557 -0.0420 -0.2367 -0.1424
   98SAPE   H8R 9821   0.491   2.377   5.626  2.7233  1.1364 -1.7469
   98SAPE   C29 9822   0.397   2.270   5.463  0.0097 -0.9620 -0.3290
   98SAPE   H9R 9823   0.312   2.340   5.461  1.1379  0.4779  0.0163
   98SAPE  C210 9824   0.393   2.165   5.366  0.4093  0.7121  0.5056
   98SAPE  H10R 9825   0.297   2.184   5.313  0.7859  1.2054 -0.0056
   98SAPE  H10S 9826   0.376   2.072   5.425 -0.2687  0.8351  0.5113
   98SAPE  C211 9827   0.508   2.152   5.270  0.2129  0.1379  0.2904
   98SAPE  H11R 9828   0.605   2.179   5.315  0.4975  3.0226 -1.8261
   98SAPE  C212 9829   0.510   2.096   5.147  0.8044 -0.0642 -0.3056
   98SAPE  H12R 9830   0.606   2.103   5.093 -1.0338  1.2358 -3.7060
   98SAPE  C213 9831   0.388   2.054   5.063  0.0180  0.0435 -0.1071
   98SAPE  H13R 9832   0.317   2.139   5.054 -0.1723  0.0523  1.1795
   98SAPE  H13S 9833   0.339   1.969   5.116  3.2479 -1.2925  0.9461
   98SAPE  C214 9834   0.431   2.006   4.925  0.0869 -0.4490 -0.2778
   98SAPE  H14R 9835   0.477   1.907   4.913 -0.8773 -1.1021  1.1154
   98SAPE  C215 9836   0.447   2.089   4.821 -0.0957  0.2096 -0.2474
   98SAPE  H15R 9837   0.487   2.047   4.727  0.4485  2.1223 -0.9027
   98SAPE  C216 9838   0.422   2.237   4.812 -0.0147 -0.0153 -0.1223
   98SAPE  H16R 9839   0.520   2.282   4.786 -0.2502  0.9372  0.5998
   98SAPE  H16S 9840   0.400   2.275   4.914  1.4687  3.3669 -0.9391
   98SAPE  C217 9841   0.319   2.295   4.710  0.2164 -0.3268 -0.4277
   98SAPE  H17R 9842   0.292   2.399   4.735  0.6332 -0.1155 -0.8240
   98SAPE  H17S 9843   0.228   2.231   4.715  0.8645 -1.2757 -0.3084
   98SAPE  C218 9844   0.386   2.301   4.574 -0.1091 -0.6648  0.3110
   98SAPE  H18R 9845   0.423   2.197   4.562  0.9930 -0.5305  2.2017
   98SAPE  H18S 9846   0.470   2.373   4.570 -1.1100  0.4972 -0.9870
   98SAPE  C219 9847   0.285   2.329   4.460 -0.4793  0.2585 -0.0583
   98SAPE  H19R 9848   0.269   2.439   4.455 -1.8647  0.0619 -0.2947
   98SAPE  H19S 9849   0.191   2.278   4.489 -0.2488  0.1796  0.5577
   98SAPE  C220 9850   0.343   2.285   4.326  0.2622  0.0871  0.4516
   98SAPE  H20R 9851   0.281   2.293   4.235  1.9489 -0.4765 -0.7939
   98SAPE  H20S 9852   0.367   2.177   4.328 -2.0442 -0.4728  1.0316
   98SAPE  H20T 9853   0.442   2.329   4.302  1.5010 -3.3944 -1.4358
   98SAPE   C33 9854   1.206   1.474   5.375  0.1484 -0.0199  0.5778
   98SAPE   H3X 9855   1.249   1.372   5.367  0.8298  0.0833  2.3703
   98SAPE   H3Y 9856   1.295   1.539   5.391  0.8662 -0.5932 -0.9033
   98SAPE   C34 9857   1.147   1.489   5.244  0.2254  0.1906 -0.0818
   98SAPE   H4X 9858   1.225   1.460   5.170  1.9966 -1.8314  2.4185
   98SAPE   H4Y 9859   1.127   1.595   5.217 -0.5871  0.3159  0.9472
   98SAPE   C35 9860   1.020   1.416   5.215  0.2680 -0.4439 -0.3301
   98SAPE   H5X 9861   0.940   1.441   5.288  2.7112  0.1433  2.2933
   98SAPE   H5Y 9862   1.034   1.307   5.223 -0.5427 -0.7878 -2.7068
   98SAPE   C36 9863   0.965   1.437   5.066  0.3400  0.4378  0.7315
   98SAPE   H6X 9864   1.041   1.400   4.994  0.7389  0.3641  1.1842
   98SAPE   H6Y 9865   0.936   1.544   5.056 -0.4814  0.0740 -1.4013
   98SAPE   C37 9866   0.832   1.363   5.031 -0.8917  0.4235 -0.5786
   98SAPE   H7X 9867   0.760   1.396   5.109 -0.6039 -0.0519 -0.1070
   98SAPE   H7Y 9868   0.856   1.256   5.050  0.1939  0.8555  0.6206
   98SAPE   C38 9869   0.780   1.387   4.899 -0.7872  0.4317  0.7669
   98SAPE   H8X 9870   0.758   1.495   4.880  1.7347  0.8324 -0.2187
   98SAPE   H8Y 9871   0.679   1.341   4.886 -0.3736 -0.2530 -0.1647
   98SAPE   C39 9872   0.861   1.327   4.780 -0.4450 -0.0373  0.2158
   98SAPE   H9X 9873   0.861   1.217   4.792 -2.5562 -0.0042  0.9564
   98SAPE   H9Y 9874   0.965   1.366   4.782 -0.5540  0.3401 -0.8202
   98SAPE  C310 9875   0.794   1.367   4.644  0.3029 -0.3360 -0.4505
   98SAPE  H10X 9876   0.812   1.474   4.622  2.1110 -1.0194 -2.6556
   98SAPE  H10Y 9877   0.685   1.346   4.636  0.0090  1.1827 -0.8844
   98SAPE  C311 9878   0.875   1.307   4.532 -0.8779 -0.5570  0.1023
   98SAPE  H11X 9879   0.897   1.199   4.547 -1.1085 -0.5995  0.1494
   98SAPE  H11Y 9880   0.965   1.371   4.518 -1.6650  1.1936  2.3877
   98SAPE  C312 9881   0.798   1.323   4.403 -0.6591 -0.1913  0.6376
   98SAPE  H12X 9882   0.749   1.423   4.397 -0.9221 -0.3284  0.4638
   98SAPE  H12Y 9883   0.710   1.255   4.404 -1.0565  0.0987 -2.8539
   98SAPE  C313 9884   0.881   1.306   4.275  0.0686 -0.0957 -0.2307
   98SAPE  H13X 9885   0.942   1.397   4.256  1.0316 -0.8679 -0.8856
   98SAPE  H13Y 9886   0.817   1.306   4.185 -0.5712  0.6868  0.2058
   98SAPE  C314 9887   0.968   1.180   4.273  0.2845  0.0223 -0.1652
   98SAPE  H14X 9888   1.033   1.183   4.363 -1.7133 -0.3538  1.3472
   98SAPE  H14Y 9889   1.029   1.172   4.181  0.4048 -2.1633  0.0526
   98SAPE  C315 9890   0.881   1.049   4.295  0.4373  0.3807 -0.4924
   98SAPE  H15X 9891   0.799   1.047   4.220 -1.7701  1.1369  1.7756
   98SAPE  H15Y 9892   0.837   1.061   4.396 -0.7971  1.9780 -1.1672
   98SAPE  C316 9893   0.975   0.929   4.276  0.7322  0.3841 -0.1437
   98SAPE  H16X 9894   1.067   0.954   4.331  0.2173 -1.7757  1.8476
   98SAPE  H16Y 9895   0.994   0.926   4.166  0.8492  0.6324 -0.1306
   98SAPE  C317 9896   0.918   0.801   4.332 -0.0376  0.2417  0.5161
   98SAPE  H17X 9897   0.902   0.812   4.442 -2.1225 -0.8307  0.3511
   98SAPE  H17Y 9898   0.997   0.726   4.311 -0.3615  0.6387 -2.4842
   98SAPE  C318 9899   0.789   0.751   4.277  0.0920 -0.1105  0.2169
   98SAPE  H18X 9900   0.821   0.716   4.177  1.7889 -0.2762  0.7936
   98SAPE  H18Y 9901   0.717   0.834   4.266 -1.2412 -0.7396  3.1542
   98SAPE  H18Z 9902   0.745   0.660   4.323  0.5063  0.7197  2.3692
   99SAPE     N 9903   2.646   3.152   6.943  0.5732  0.0791 -0.3160
   99SAPE   HN1 9904   2.711   3.121   6.868 -1.0195  1.8839 -2.5997
   99SAPE   HN2 9905   2.562   3.204   6.910 -0.3376 -1.7240 -0.9540
   99SAPE   HN3 9906   2.708   3.218   6.995  1.2719 -0.5134 -0.3766
   99SAPE   C12 9907   2.601   3.034   7.026 -0.0105 -0.1761 -0.3472
   99SAPE  H12A 9908   2.529   2.982   6.959 -2.7074  1.0399  1.4185
   99SAPE  H12B 9909   2.548   3.074   7.115  2.2798 -1.1139  1.5586
   99SAPE   C11 9910   2.725   2.958   7.078 -0.2839  0.0303 -0.5881
   99SAPE  H11A 9911   2.689   2.865   7.127  1.8046  0.2227  1.4989
   99SAPE  H11B 9912   2.775   3.022   7.154  0.4919 -2.4774  1.1574
   99SAPE     P 9913   2.925   2.818   6.973 -0.2087  0.2232  0.1339
   99SAPE   O13 9914   3.061   2.875   6.951  0.3448 -0.4107 -0.6813
   99SAPE   O14 9915   2.897   2.728   7.092 -0.1952 -0.0176  0.4138
   99SAPE   O12 9916   2.817   2.936   6.977 -0.0923  0.3982  0.2669
   99SAPE   O11 9917   2.895   2.729   6.848  0.7179 -0.3475  0.2440
   99SAPE    C1 9918   2.845   2.788   6.721  0.3065 -0.2137 -0.0394
   99SAPE    HA 9919   2.734   2.798   6.722  0.4635  2.0543  0.0054
   99SAPE    HB 9920   2.884   2.891   6.702 -0.9734  0.1942 -0.5538
   99SAPE    C2 9921   2.872   2.698   6.598 -0.1478  0.0863  0.4118
   99SAPE    HS 9922   2.818   2.601   6.605  1.3495 -0.8768 -0.7391
   99SAPE   O21 9923   3.012   2.674   6.594 -0.1167  0.1239 -0.0526
   99SAPE   C21 9924   3.054   2.595   6.493 -0.9565  0.5217 -0.5958
   99SAPE   O22 9925   2.983   2.527   6.414 -0.1935  0.2019  0.2967
   99SAPE   C22 9926   3.204   2.608   6.484 -0.6809  0.0076 -0.4452
   99SAPE   H2R 9927   3.214   2.706   6.433  0.2522  0.0834 -0.1319
   99SAPE   H2S 9928   3.247   2.612   6.586  0.5703 -0.4505 -0.9461
   99SAPE    C3 9929   2.822   2.763   6.463 -0.5140 -0.2699 -0.3452
   99SAPE    HX 9930   2.731   2.820   6.493  0.3892  0.6277  0.7645
   99SAPE    HY 9931   2.789   2.681   6.395 -1.2671 -0.8301  0.6616
   99SAPE   O31 9932   2.929   2.845   6.413 -0.1464 -0.5485  0.5368
   99SAPE   C31 9933   2.889   2.920   6.303  0.1257  0.0486 -0.6447
   99SAPE   O32 9934   2.775   2.926   6.265 -0.4378 -0.2805  0.3391
   99SAPE   C32 9935   3.011   2.975   6.228 -0.1214  0.1177 -0.4033
   99SAPE   H2X 9936   3.102   2.914   6.248 -0.3406 -0.1301 -0.1529
   99SAPE   H2Y 9937   3.037   3.076   6.266 -2.1735  0.0102  1.5497
   99SAPE   C23 9938   3.276   2.504   6.394  0.4599 -0.5878  0.2741
   99SAPE   H3R 9939   3.242   2.404   6.430  0.0538 -0.7189 -0.4490
   99SAPE   H3S 9940   3.386   2.506   6.401  0.4271 -1.2334  1.1573
   99SAPE   C24 9941   3.236   2.503   6.238  0.6229 -0.4740 -0.5023
   99SAPE   H4R 9942   3.132   2.470   6.218  0.0802  0.9971 -0.2111
   99SAPE   H4S 9943   3.297   2.437   6.173 -0.0816  0.5614 -2.2633
   99SAPE   C25 9944   3.250   2.640   6.177 -0.3698  0.1611  0.0423
   99SAPE   H5R 9945   3.154   2.695   6.179 -1.1279 -1.1270  2.4484
   99SAPE   C26 9946   3.360   2.699   6.131 -0.7032 -0.5959 -0.4041
   99SAPE   H6R 9947   3.372   2.806   6.109 -1.1137  0.0019  1.9304
   99SAPE   C27 9948   3.497   2.634   6.141 -0.4317 -0.2215  0.0105
   99SAPE   H7R 9949   3.489   2.527   6.114  3.0158 -0.5010 -0.3079
   99SAPE   H7S 9950   3.531   2.651   6.245 -5.6546  0.4726  1.9456
   99SAPE   C28 9951   3.595   2.697   6.041 -0.1719  0.2371 -0.6779
   99SAPE   H8R 9952   3.669   2.771   6.073  1.6302 -1.3155 -1.0493
   99SAPE   C29 9953   3.599   2.656   5.907 -0.1570  0.6823  0.4164
   99SAPE   H9R 9954   3.671   2.706   5.841  0.8638  0.2612  1.1820
   99SAPE  C210 9955   3.523   2.556   5.826 -0.2781 -0.1662 -0.1260
   99SAPE  H10R 9956   3.462   2.508   5.906  0.1710  1.0026  0.9400
   99SAPE  H10S 9957   3.582   2.473   5.782 -1.2250 -0.2517 -1.2805
   99SAPE  C211 9958   3.443   2.605   5.713 -0.5131 -0.5508  0.0801
   99SAPE  H11R 9959   3.336   2.623   5.732 -0.1918  1.3977  0.2660
   99SAPE  C212 9960   3.494   2.635   5.590  0.0634  0.3266 -0.2469
   99SAPE  H12R 9961   3.422   2.674   5.516 -1.7827 -0.6628  0.9323
   99SAPE  C213 9962   3.633   2.614   5.537  0.0184 -0.0806  0.5210
   99SAPE  H13R 9963   3.638   2.528   5.467  0.5488  0.7312 -0.4689
   99SAPE  H13S 9964   3.697   2.575   5.618  0.2390 -0.5328  0.1296
   99SAPE  C214 9965   3.697   2.737   5.487 -0.1052 -0.2656  0.4078
   99SAPE  H14R 9966   3.731   2.806   5.566  0.3833  1.1873 -0.9987
   99SAPE  C215 9967   3.720   2.774   5.356 -0.2867 -0.2523 -0.2795
   99SAPE  H15R 9968   3.747   2.878   5.336 -3.0977  0.3573 -1.4303
   99SAPE  C216 9969   3.694   2.691   5.240 -0.7554  0.0817  0.2194
   99SAPE  H16R 9970   3.628   2.603   5.256 -1.6962  0.8703  0.7252
   99SAPE  H16S 9971   3.794   2.667   5.197 -0.5867  0.4333  0.4132
   99SAPE  C217 9972   3.612   2.767   5.135  0.9176  0.1487  0.3264
   99SAPE  H17R 9973   3.657   2.868   5.120  1.0899 -0.0715 -0.6635
   99SAPE  H17S 9974   3.509   2.781   5.177  1.1342 -2.6787  2.0568
   99SAPE  C218 9975   3.609   2.683   5.007 -0.2707 -0.2129  0.1272
   99SAPE  H18R 9976   3.566   2.584   5.034 -0.1100  0.1910  2.0490
   99SAPE  H18S 9977   3.713   2.665   4.972  0.3402  3.1390 -0.0940
   99SAPE  C219 9978   3.533   2.751   4.889  0.1029 -0.1044  0.2246
   99SAPE  H19R 9979   3.426   2.744   4.918  0.2636 -0.2460  0.7846
   99SAPE  H19S 9980   3.559   2.679   4.808  0.7417 -0.1198  0.4427
   99SAPE  C220 9981   3.562   2.895   4.856 -0.1896 -0.2028  0.2870
   99SAPE  H20R 9982   3.667   2.888   4.819 -0.1595 -5.5989  0.5931
   99SAPE  H20S 9983   3.551   2.972   4.935 -3.1628  1.1787 -1.3224
   99SAPE  H20T 9984   3.502   2.929   4.769  0.9050 -2.5479 -1.5041
   99SAPE   C33 9985   2.987   2.972   6.070  0.2280 -0.7521  0.0775
   99SAPE   H3X 9986   2.907   3.043   6.043  0.6163 -1.0587 -1.9853
   99SAPE   H3Y 9987   2.973   2.867   6.037  2.3129 -1.2575  0.6345
   99SAPE   C34 9988   3.115   3.018   6.005  0.4223  0.6743  0.4787
   99SAPE   H4X 9989   3.199   2.952   6.037  0.2852  1.1521  1.8814
   99SAPE   H4Y 9990   3.143   3.120   6.037  3.0941  0.0663  0.3696
   99SAPE   C35 9991   3.107   3.017   5.856  0.0316 -0.7333 -0.1474
   99SAPE   H5X 9992   3.035   3.094   5.823  0.0660 -0.6080  0.0720
   99SAPE   H5Y 9993   3.075   2.918   5.816  1.1030 -0.6528 -1.2875
   99SAPE   C36 9994   3.249   3.036   5.800  0.0904  0.1912  0.5640
   99SAPE   H6X 9995   3.319   2.959   5.840 -0.1319 -0.5886 -0.4995
   99SAPE   H6Y 9996   3.278   3.141   5.823 -4.4245  2.0594 -1.1150
   99SAPE   C37 9997   3.248   3.028   5.644 -0.1394 -0.3125  0.6241
   99SAPE   H7X 9998   3.236   2.922   5.612 -0.8902 -0.2894  0.8046
   99SAPE   H7Y 9999   3.348   3.063   5.612 -0.6699  0.3081 -0.3722
   99SAPE   C3810000   3.147   3.126   5.570  0.0716 -0.4363  0.6045
   99SAPE   H8X10001   3.159   3.220   5.627  2.3142  0.1443 -0.6777
   99SAPE   H8Y10002   3.041   3.093   5.576 -0.4876  1.3291  1.0899
   99SAPE   C3910003   3.188   3.151   5.419  0.7452  0.3766  0.4451
   99SAPE   H9X10004   3.298   3.149   5.406  0.5204 -1.5210 -1.8616
   99SAPE   H9Y10005   3.161   3.252   5.382 -0.0616 -0.5697 -1.7623
   99SAPE  C31010006   3.122   3.050   5.323  0.4182  0.1902  0.6165
   99SAPE  H10X10007   3.017   3.057   5.360  0.6690  2.0680  1.0722
   99SAPE  H10Y10008   3.161   2.948   5.342  0.9674 -0.0126 -1.4471
   99SAPE  C31110009   3.134   3.086   5.176  0.0761 -0.2919 -0.2280
   99SAPE  H11X10010   3.236   3.061   5.140  0.5579  1.6956 -0.3901
   99SAPE  H11Y10011   3.132   3.197   5.167  0.4917 -0.2595  0.0384
   99SAPE  C31210012   3.041   3.008   5.083 -0.2189 -0.0882  0.9420
   99SAPE  H12X10013   3.072   3.038   4.980  0.7942  1.1985  1.5968
   99SAPE  H12Y10014   2.943   3.045   5.122  1.3273  0.2983  4.8439
   99SAPE  C31310015   3.051   2.851   5.098  0.3810 -0.1765  0.4152
   99SAPE  H13X10016   2.998   2.816   5.189  0.4105 -0.6860  0.2400
   99SAPE  H13Y10017   3.155   2.832   5.131 -0.6949  0.5089  4.7725
   99SAPE  C31410018   2.993   2.767   4.989 -0.0098 -0.0283 -0.5454
   99SAPE  H14X10019   2.896   2.799   4.945 -1.3275 -1.8449  0.8959
   99SAPE  H14Y10020   2.984   2.662   5.022  0.4886 -1.1728 -3.6933
   99SAPE  C31510021   3.090   2.756   4.870 -0.2617  0.1747  0.0950
   99SAPE  H15X10022   3.190   2.757   4.918 -0.0537  0.9565 -0.3278
   99SAPE  H15Y10023   3.083   2.849   4.809  0.0898  0.1563  0.0260
   99SAPE  C31610024   3.078   2.631   4.783 -0.7277  0.1795  0.5876
   99SAPE  H16X10025   2.973   2.622   4.749 -0.6668 -1.2410  0.7255
   99SAPE  H16Y10026   3.105   2.542   4.843  0.1823  0.7171  1.0107
   99SAPE  C31710027   3.179   2.632   4.668  0.0853  0.7225 -0.2128
   99SAPE  H17X10028   3.284   2.647   4.699 -0.2787  0.6610  1.1087
   99SAPE  H17Y10029   3.153   2.716   4.600  2.0057  0.3085 -1.5325
   99SAPE  C31810030   3.164   2.503   4.580  0.1858 -0.5089 -0.0826
   99SAPE  H18X10031   3.059   2.495   4.545 -0.0365 -1.5460  0.7567
   99SAPE  H18Y10032   3.188   2.407   4.631 -0.6135 -1.8101 -2.0180
   99SAPE  H18Z10033   3.234   2.521   4.496 -0.0749  2.0108  0.1738
  100SAPE     N10034   3.467   1.931   6.594  0.1379 -0.4787  0.4428
  100SAPE   HN110035   3.493   1.907   6.693  0.1320 -0.9209  0.3411
  100SAPE   HN210036   3.485   2.032   6.582  0.4184 -0.7636 -1.8369
  100SAPE   HN310037   3.365   1.912   6.583  0.0700  0.2567 -0.2514
  100SAPE   C1210038   3.532   1.849   6.486 -0.4126  0.1524 -0.5412
  100SAPE  H12A10039   3.459   1.836   6.404 -1.4619  3.4210 -0.3063
  100SAPE  H12B10040   3.559   1.753   6.534  1.2012  1.0417  0.4495
  100SAPE   C1110041   3.665   1.911   6.440  0.0651  0.4671 -0.3622
  100SAPE  H11A10042   3.641   2.012   6.400 -1.4573  1.3318  2.4395
  100SAPE  H11B10043   3.707   1.845   6.361  0.1790 -0.7993  0.7144
  100SAPE     P10044   3.873   1.818   6.572  0.5161 -0.3409  0.0379
  100SAPE   O1310045   3.996   1.880   6.521 -0.0812  0.5238  0.5622
  100SAPE   O1410046   3.873   1.777   6.716 -0.7805  0.0164  0.5888
  100SAPE   O1210047   3.763   1.926   6.545  0.3426 -0.2939  0.1581
  100SAPE   O1110048   3.830   1.689   6.492 -0.3052 -0.0737  0.8097
  100SAPE    C110049   3.931   1.603   6.444  0.2044  0.5968  0.4490
  100SAPE    HA10050   4.035   1.613   6.481  0.0512 -0.8822  1.3688
  100SAPE    HB10051   3.909   1.504   6.490  2.1753  0.4431  1.1535
  100SAPE    C210052   3.923   1.612   6.283 -0.4217 -0.1999 -0.4103
  100SAPE    HS10053   4.015   1.566   6.241 -0.3721 -0.1600 -0.3476
  100SAPE   O2110054   3.903   1.746   6.235 -0.4511 -0.6238 -0.3168
  100SAPE   C2110055   4.021   1.803   6.247  0.5869 -0.3254 -0.3718
  100SAPE   O2210056   4.127   1.749   6.275  0.0714 -0.6773 -0.0104
  100SAPE   C2210057   4.000   1.954   6.193 -0.9510  0.5364 -0.2388
  100SAPE   H2R10058   3.932   1.945   6.106 -1.4286  1.1301  0.0708
  100SAPE   H2S10059   3.946   2.016   6.268  1.3347  3.8860 -1.1220
  100SAPE    C310060   3.805   1.521   6.238 -0.6862  1.0320 -0.9769
  100SAPE    HX10061   3.714   1.570   6.278  0.0400  2.1358 -0.6229
  100SAPE    HY10062   3.802   1.421   6.285 -0.0335  0.9354 -1.1323
  100SAPE   O3110063   3.809   1.513   6.101  0.2096 -0.3501  0.5725
  100SAPE   C3110064   3.712   1.573   6.030  0.0829 -0.3488  0.0362
  100SAPE   O3210065   3.611   1.626   6.078  0.1943  0.3033 -0.2886
  100SAPE   C3210066   3.742   1.570   5.887  0.3202 -0.1178  0.0019
  100SAPE   H2X10067   3.791   1.473   5.863  0.0012  0.2758 -2.4859
  100SAPE   H2Y10068   3.818   1.649   5.869  1.6542 -0.9934  1.5250
  100SAPE   C2310069   4.141   2.012   6.166 -0.1311 -0.7326  0.4467
  100SAPE   H3R10070   4.208   1.936   6.121 -0.3665  0.2606 -1.6883
  100SAPE   H3S10071   4.191   2.052   6.256  0.5544  0.4153 -0.4218
  100SAPE   C2410072   4.128   2.130   6.066 -0.7197  0.5556 -0.0157
  100SAPE   H4R10073   4.225   2.185   6.064 -1.8052  2.6053  0.5669
  100SAPE   H4S10074   4.049   2.202   6.098 -1.5836  0.1035 -1.0866
  100SAPE   C2510075   4.079   2.099   5.927 -0.6847  0.1570  0.3101
  100SAPE   H5R10076   3.970   2.085   5.926 -0.5639 -0.8649 -0.2368
  100SAPE   C2610077   4.141   2.081   5.810  0.5527 -0.6263 -0.2721
  100SAPE   H6R10078   4.074   2.056   5.726 -0.0966  1.4852 -0.4407
  100SAPE   C2710079   4.286   2.103   5.789 -0.1636  0.1324 -1.0672
  100SAPE   H7R10080   4.338   2.118   5.886  0.1887 -3.9136 -0.4537
  100SAPE   H7S10081   4.294   2.190   5.721 -0.2376 -0.9199 -2.4693
  100SAPE   C2810082   4.369   1.982   5.729  0.3984 -0.1913  0.5931
  100SAPE   H8R10083   4.431   1.925   5.800  0.1917 -1.9054 -0.5664
  100SAPE   C2910084   4.397   1.971   5.596 -0.3425  0.2577  0.3194
  100SAPE   H9R10085   4.464   1.890   5.566 -2.0055 -0.7149 -0.9603
  100SAPE  C21010086   4.321   2.049   5.489 -0.3912  0.3377  0.1606
  100SAPE  H10R10087   4.336   2.158   5.500  0.1290  0.4527 -1.4123
  100SAPE  H10S10088   4.211   2.032   5.489 -0.5250  0.8076 -2.4610
  100SAPE  C21110089   4.376   2.016   5.352 -0.5718  0.0440  0.6711
  100SAPE  H11R10090   4.480   1.978   5.356 -1.4493 -2.4548  2.2883
  100SAPE  C21210091   4.306   2.004   5.239  0.6545  0.1344  0.0207
  100SAPE  H12R10092   4.355   1.972   5.146 -0.4469  0.1512 -0.5889
  100SAPE  C21310093   4.163   2.057   5.216 -0.0175  0.3372 -0.0598
  100SAPE  H13R10094   4.108   2.073   5.311 -1.9590 -0.4626 -0.9907
  100SAPE  H13S10095   4.105   1.987   5.152 -1.1894  2.2876 -1.2260
  100SAPE  C21410096   4.158   2.193   5.153  0.4611 -0.1775  0.1900
  100SAPE  H14R10097   4.231   2.222   5.076 -1.3320 -1.5682 -2.1580
  100SAPE  C21510098   4.059   2.283   5.172  0.2945  0.9010  0.5602
  100SAPE  H15R10099   4.062   2.376   5.115 -1.8903  1.1859  0.8356
  100SAPE  C21610100   3.927   2.261   5.244 -0.0501  0.4461 -0.5867
  100SAPE  H16R10101   3.902   2.156   5.268  1.8129  0.1881  0.4043
  100SAPE  H16S10102   3.838   2.289   5.183 -0.7365  0.5242  0.4234
  100SAPE  C21710103   3.923   2.351   5.373 -0.1196 -0.0358  0.1980
  100SAPE  H17R10104   3.814   2.360   5.396 -0.2818 -0.7696 -0.2481
  100SAPE  H17S10105   3.964   2.452   5.351 -0.8399  0.6140  1.7035
  100SAPE  C21810106   3.997   2.301   5.500 -0.5390  0.7220  0.4726
  100SAPE  H18R10107   4.108   2.298   5.488 -0.6821  0.1638 -0.8855
  100SAPE  H18S10108   3.959   2.198   5.513 -0.7215  0.8661  1.1279
  100SAPE  C21910109   3.975   2.392   5.617  0.2936  0.0984 -0.1276
  100SAPE  H19R10110   3.956   2.496   5.583 -1.3733 -0.5422 -1.3321
  100SAPE  H19S10111   4.077   2.394   5.661  0.6274  0.3002 -0.9005
  100SAPE  C22010112   3.871   2.331   5.718 -0.2170 -0.0050  0.5655
  100SAPE  H20R10113   3.888   2.222   5.727 -0.6898 -0.2999 -1.5433
  100SAPE  H20S10114   3.769   2.350   5.679 -1.3908 -1.6682  2.6165
  100SAPE  H20T10115   3.886   2.377   5.818  0.9137 -1.8435  1.2864
  100SAPE   C3310116   3.622   1.586   5.793 -0.4405  0.6582 -0.2014
  100SAPE   H3X10117   3.568   1.680   5.814  0.9634  2.0370 -2.4388
  100SAPE   H3Y10118   3.562   1.493   5.803 -1.0944  1.0086 -0.8766
  100SAPE   C3410119   3.665   1.585   5.646  0.3331 -0.2580  1.4723
  100SAPE   H4X10120   3.774   1.565   5.647  0.1947 -1.0577  1.1420
  100SAPE   H4Y10121   3.661   1.689   5.606  1.4459 -1.0199 -0.7468
  100SAPE   C3510122   3.580   1.498   5.550  0.0822  0.1930 -0.1350
  100SAPE   H5X10123   3.475   1.534   5.559  0.2592  0.2838  2.4697
  100SAPE   H5Y10124   3.578   1.394   5.590 -0.6045  0.4971  0.6673
  100SAPE   C3610125   3.643   1.502   5.411  0.3860 -0.7222 -0.8803
  100SAPE   H6X10126   3.748   1.480   5.440 -0.0319 -1.8329 -0.0965
  100SAPE   H6Y10127   3.627   1.603   5.369  0.7547 -0.4131 -0.2867
  100SAPE   C3710128   3.586   1.386   5.328 -0.7083 -1.6139 -0.0834
  100SAPE   H7X10129   3.478   1.405   5.308 -0.3211  0.7362 -0.1255
  100SAPE   H7Y10130   3.588   1.291   5.386  0.3426 -0.5837  1.6243
  100SAPE   C3810131   3.673   1.374   5.203 -0.3271 -0.0491 -0.2909
  100SAPE   H8X10132   3.661   1.279   5.145 -0.3778  0.2598 -0.7976
  100SAPE   H8Y10133   3.780   1.392   5.223  0.4712 -1.4455 -2.8270
  100SAPE   C3910134   3.628   1.481   5.101  1.2784  0.5878 -0.8820
  100SAPE   H9X10135   3.655   1.580   5.144  1.7262  0.1792 -0.2155
  100SAPE   H9Y10136   3.521   1.472   5.073  0.7854  0.2387  0.9990
  100SAPE  C31010137   3.710   1.458   4.973  0.0663  0.1578  0.0709
  100SAPE  H10X10138   3.667   1.377   4.911  0.5976 -0.6266  0.7029
  100SAPE  H10Y10139   3.816   1.430   4.993  0.2224  0.2285 -0.6350
  100SAPE  C31110140   3.717   1.580   4.875 -0.1088 -0.0787 -0.2778
  100SAPE  H11X10141   3.615   1.625   4.872  0.3411  1.0512  0.4971
  100SAPE  H11Y10142   3.740   1.555   4.769 -0.1527 -1.9071  0.1245
  100SAPE  C31210143   3.805   1.694   4.931  0.2884  1.0139 -0.2299
  100SAPE  H12X10144   3.909   1.655   4.928 -0.2196 -0.3665 -1.0074
  100SAPE  H12Y10145   3.781   1.714   5.037 -1.2952 -1.5133 -0.0187
  100SAPE  C31310146   3.793   1.811   4.841 -0.4632  0.1261 -0.2712
  100SAPE  H13X10147   3.686   1.834   4.860 -0.9571 -1.6705 -0.6275
  100SAPE  H13Y10148   3.816   1.780   4.737 -0.4915 -3.4514  0.6516
  100SAPE  C31410149   3.871   1.930   4.880  0.0897 -0.3019  0.2813
  100SAPE  H14X10150   3.980   1.909   4.882  0.1700  0.1103  0.2689
  100SAPE  H14Y10151   3.851   1.967   4.983 -3.7365  3.4949 -1.5291
  100SAPE  C31510152   3.847   2.052   4.788 -0.0992 -0.3901 -0.1465
  100SAPE  H15X10153   3.738   2.062   4.769  0.0642  1.1860 -0.3922
  100SAPE  H15Y10154   3.903   2.026   4.696 -0.9590 -0.5481 -0.6352
  100SAPE  C31610155   3.913   2.174   4.850 -0.9353 -0.0276 -0.4697
  100SAPE  H16X10156   4.011   2.148   4.896 -0.9464 -0.7705 -0.8437
  100SAPE  H16Y10157   3.849   2.220   4.928  0.4898 -1.4523  1.6479
  100SAPE  C31710158   3.943   2.289   4.747  0.1130  0.0939 -0.1289
  100SAPE  H17X10159   3.850   2.324   4.698  0.7771  1.3164 -0.5712
  100SAPE  H17Y10160   4.013   2.249   4.670  1.1937  1.8256 -0.1159
  100SAPE  C31810161   4.009   2.414   4.814  0.6220 -0.2953 -0.1643
  100SAPE  H18X10162   4.108   2.396   4.859 -0.0856 -2.0261  0.7885
  100SAPE  H18Y10163   3.939   2.449   4.893  0.6112 -2.9648  1.0860
  100SAPE  H18Z10164   4.027   2.493   4.737  0.4482  0.1154  0.2133
  101SAPE     N10165   3.719   4.174   6.656 -0.6028  0.4827 -0.3064
  101SAPE   HN110166   3.653   4.254   6.646  0.0261  0.8048 -2.3335
  101SAPE   HN210167   3.745   4.156   6.755 -4.0996 -1.0996  0.4852
  101SAPE   HN310168   3.800   4.209   6.600 -0.3296  0.2473 -0.0624
  101SAPE   C1210169   3.652   4.054   6.589 -0.4324 -1.3021  0.0830
  101SAPE  H12A10170   3.557   4.030   6.643 -1.0686  0.6858 -0.0587
  101SAPE  H12B10171   3.715   3.963   6.589  0.1063 -0.9394 -0.8252
  101SAPE   C1110172   3.616   4.074   6.437  0.3787  0.0547  0.2214
  101SAPE  H11A10173   3.592   3.970   6.406  2.2784 -0.5744  0.6813
  101SAPE  H11B10174   3.711   4.101   6.387  0.4430 -1.6440 -0.6593
  101SAPE     P10175   3.516   4.318   6.405 -0.4803  0.4531 -0.0869
  101SAPE   O1310176   3.379   4.362   6.389 -0.3051  0.1170 -0.1393
  101SAPE   O1410177   3.581   4.358   6.530 -0.1657 -0.1694  0.3290
  101SAPE   O1210178   3.506   4.160   6.415  0.0561  0.1281  0.1536
  101SAPE   O1110179   3.604   4.333   6.280  0.1228  0.5112  0.8902
  101SAPE    C110180   3.699   4.442   6.275  0.2183 -0.5556 -0.0535
  101SAPE    HA10181   3.752   4.467   6.369  0.1859  0.2748 -0.2412
  101SAPE    HB10182   3.780   4.415   6.203 -1.1354  1.2856 -2.4412
  101SAPE    C210183   3.635   4.575   6.215  0.3029 -0.3890  0.2496
  101SAPE    HS10184   3.549   4.607   6.278 -0.6162  0.8778 -1.5719
  101SAPE   O2110185   3.606   4.541   6.080 -0.4066  0.5368 -0.7339
  101SAPE   C2110186   3.507   4.600   6.022 -0.1475 -0.2742 -0.3792
  101SAPE   O2210187   3.426   4.671   6.081 -0.0522 -0.4806  0.1753
  101SAPE   C2210188   3.504   4.577   5.870 -0.4789  0.2669  0.5084
  101SAPE   H2R10189   3.610   4.555   5.847 -0.2056  2.2997 -0.3925
  101SAPE   H2S10190   3.438   4.492   5.842  0.5514 -0.3192 -0.1737
  101SAPE    C310191   3.741   4.688   6.213 -0.6206 -0.2401  0.7101
  101SAPE    HX10192   3.752   4.719   6.319 -0.0334  1.3250  0.2214
  101SAPE    HY10193   3.705   4.772   6.149  3.1413  0.4159 -0.8066
  101SAPE   O3110194   3.868   4.640   6.161  0.2413  0.1932  0.4774
  101SAPE   C3110195   3.965   4.722   6.192  0.4439  0.5708 -0.3551
  101SAPE   O3210196   3.958   4.819   6.267 -0.0479 -0.4591  0.7527
  101SAPE   C3210197   4.092   4.667   6.140 -0.7139  0.8160  0.6143
  101SAPE   H2X10198   4.069   4.586   6.067 -1.8299 -0.2521  2.0812
  101SAPE   H2Y10199   4.157   4.625   6.220 -0.1513  0.9790  0.2545
  101SAPE   C2310200   3.446   4.698   5.788 -0.2785  0.6754  0.7568
  101SAPE   H3R10201   3.460   4.796   5.838  0.2464  0.7591  0.4514
  101SAPE   H3S10202   3.337   4.677   5.788 -0.2937  0.7551  0.7176
  101SAPE   C2410203   3.505   4.697   5.642  0.1628 -0.0110 -0.8973
  101SAPE   H4R10204   3.451   4.782   5.597  1.4163  2.4175  1.8551
  101SAPE   H4S10205   3.488   4.600   5.591  1.2634  0.7184 -2.7377
  101SAPE   C2510206   3.650   4.741   5.640  1.2756  0.7566  0.0198
  101SAPE   H5R10207   3.715   4.727   5.728  2.5948 -1.0065 -1.1809
  101SAPE   C2610208   3.700   4.822   5.546  0.1504 -0.4148 -0.5080
  101SAPE   H6R10209   3.803   4.858   5.559 -0.5796  0.7757  3.2397
  101SAPE   C2710210   3.632   4.887   5.437  0.4044 -0.0905  1.5409
  101SAPE   H7R10211   3.629   4.992   5.473 -0.6543  1.6760 -3.0087
  101SAPE   H7S10212   3.529   4.854   5.412  0.8749 -0.1927 -0.3703
  101SAPE   C2810213   3.706   4.909   5.303 -0.5617  0.4938  0.3587
  101SAPE   H8R10214   3.757   5.006   5.291  0.3060 -0.0770 -0.7734
  101SAPE   C2910215   3.726   4.815   5.210  0.4468 -0.5207  0.1742
  101SAPE   H9R10216   3.759   4.850   5.111 -3.4841  1.0518 -0.7978
  101SAPE  C21010217   3.674   4.674   5.218  1.2429  0.2623  0.3037
  101SAPE  H10R10218   3.577   4.669   5.163  1.0207  0.5513  0.6569
  101SAPE  H10S10219   3.652   4.649   5.324  0.9079  1.6207  0.5755
  101SAPE  C21110220   3.760   4.581   5.145  0.0537  0.1607 -0.4524
  101SAPE  H11R10221   3.844   4.544   5.206  0.6977  1.0956 -0.7499
  101SAPE  C21210222   3.760   4.526   5.014 -0.6830  0.0611 -0.8690
  101SAPE  H12R10223   3.839   4.457   4.981 -1.2022 -0.5864 -0.7790
  101SAPE  C21310224   3.657   4.558   4.913 -0.3398  0.0889  0.3403
  101SAPE  H13R10225   3.713   4.583   4.820  4.0638  0.0871  2.7481
  101SAPE  H13S10226   3.598   4.645   4.950 -0.9559 -0.9544  1.8873
  101SAPE  C21410227   3.553   4.450   4.894 -0.0569 -0.7115  0.5709
  101SAPE  H14R10228   3.503   4.420   4.988 -0.6229  1.5141  1.0458
  101SAPE  C21510229   3.503   4.402   4.780  0.3054  0.1396 -0.2436
  101SAPE  H15R10230   3.430   4.320   4.791 -0.2084  0.6110 -0.1428
  101SAPE  C21610231   3.560   4.415   4.638 -0.9670 -0.0825 -0.0715
  101SAPE  H16R10232   3.668   4.392   4.630 -0.3842  2.1599  0.6127
  101SAPE  H16S10233   3.545   4.518   4.598 -0.6825  1.5710  3.6432
  101SAPE  C21710234   3.487   4.314   4.545 -0.0129 -0.7568 -0.3932
  101SAPE  H17R10235   3.515   4.344   4.442  2.2617 -1.0279  0.1012
  101SAPE  H17S10236   3.378   4.334   4.554  0.0944  0.7577 -1.9448
  101SAPE  C21810237   3.513   4.169   4.578 -0.2406  0.1553  0.1853
  101SAPE  H18R10238   3.535   4.148   4.685 -4.4108 -1.4452  0.9217
  101SAPE  H18S10239   3.591   4.126   4.511 -0.9033  0.1349 -0.5790
  101SAPE  C21910240   3.390   4.087   4.566 -0.2834  0.2634  0.0221
  101SAPE  H19R10241   3.320   4.121   4.645 -0.6383 -0.7268  0.1499
  101SAPE  H19S10242   3.411   3.984   4.603  3.1573  1.5640  2.2233
  101SAPE  C22010243   3.320   4.088   4.428  0.6738  0.2660  0.2941
  101SAPE  H20R10244   3.214   4.064   4.451  0.6370 -0.7478 -0.8513
  101SAPE  H20S10245   3.354   4.026   4.343  0.8929  1.0776 -0.2246
  101SAPE  H20T10246   3.314   4.193   4.391  0.0890  0.3246  0.5373
  101SAPE   C3310247   4.178   4.777   6.069  0.5495  0.2984  0.1551
  101SAPE   H3X10248   4.280   4.736   6.049  0.3399  1.3233 -3.9480
  101SAPE   H3Y10249   4.188   4.860   6.142 -2.5900  2.2353 -1.3786
  101SAPE   C3410250   4.113   4.821   5.939 -0.2485  0.2365  1.5609
  101SAPE   H4X10251   4.136   4.924   5.903  0.1700 -1.0416 -2.2201
  101SAPE   H4Y10252   4.003   4.820   5.960 -1.0635 -0.4882 -2.0679
  101SAPE   C3510253   4.140   4.734   5.816  0.1714 -0.1235 -0.4257
  101SAPE   H5X10254   4.112   4.630   5.842  0.9590 -0.6571 -1.6135
  101SAPE   H5Y10255   4.249   4.738   5.794  0.3417 -0.4802  0.3136
  101SAPE   C3610256   4.074   4.791   5.682 -0.0286 -0.3690 -0.3549
  101SAPE   H6X10257   4.113   4.895   5.677 -0.8730  0.2224  2.7826
  101SAPE   H6Y10258   3.965   4.804   5.702  0.4540  1.8654  1.2491
  101SAPE   C3710259   4.115   4.716   5.556  0.3511 -0.7036  0.2301
  101SAPE   H7X10260   4.080   4.611   5.551 -2.0417  0.0555 -0.3264
  101SAPE   H7Y10261   4.223   4.693   5.562  0.4789 -0.4241 -0.7383
  101SAPE   C3810262   4.073   4.789   5.429  0.0876  0.7123 -0.7812
  101SAPE   H8X10263   4.117   4.891   5.438 -0.5567  0.8144  2.6288
  101SAPE   H8Y10264   3.963   4.792   5.411 -0.1977 -0.0288  0.6732
  101SAPE   C3910265   4.146   4.727   5.311  0.4989  0.2829  0.0032
  101SAPE   H9X10266   4.120   4.620   5.303 -2.8201  1.1068 -1.7435
  101SAPE   H9Y10267   4.256   4.731   5.328  0.3644 -0.7808  1.3170
  101SAPE  C31010268   4.105   4.775   5.169 -0.7297  0.1590  0.7603
  101SAPE  H10X10269   3.996   4.791   5.178 -1.0691 -0.3176 -1.9034
  101SAPE  H10Y10270   4.116   4.692   5.096  2.9622  0.0424  1.2460
  101SAPE  C31110271   4.169   4.899   5.108 -0.0272 -0.5836 -0.1032
  101SAPE  H11X10272   4.276   4.867   5.105  0.9678  1.8976  2.9449
  101SAPE  H11Y10273   4.175   4.982   5.182 -1.3022 -1.0958  0.5982
  101SAPE  C31210274   4.111   4.956   4.974 -0.1941  0.5441 -0.5995
  101SAPE  H12X10275   4.003   4.976   4.986  0.3687  3.1413  0.7910
  101SAPE  H12Y10276   4.131   4.879   4.896  1.2936 -0.6897  0.9333
  101SAPE  C31310277   4.181   5.080   4.922 -0.1014 -1.2926 -0.7783
  101SAPE  H13X10278   4.288   5.050   4.932 -0.2182 -1.4901 -0.0637
  101SAPE  H13Y10279   4.150   5.162   4.990  0.3567 -2.1248  0.4627
  101SAPE  C31410280   4.155   5.105   4.781 -0.0893 -0.8296 -0.2486
  101SAPE  H14X10281   4.044   5.107   4.774 -0.0671 -0.2666 -0.4514
  101SAPE  H14Y10282   4.197   5.023   4.719 -0.8843 -0.2672 -1.5818
  101SAPE  C31510283   4.221   5.225   4.716 -0.6864 -0.4734 -0.3802
  101SAPE  H15X10284   4.332   5.215   4.714 -0.6757 -1.5406  1.7858
  101SAPE  H15Y10285   4.202   5.303   4.793  0.0798 -0.0570 -0.5990
  101SAPE  C31610286   4.157   5.281   4.594 -0.7471  0.0768  0.0070
  101SAPE  H16X10287   4.187   5.228   4.501 -1.3024 -1.7329  0.7975
  101SAPE  H16Y10288   4.190   5.386   4.579  2.9894 -1.1159 -1.2410
  101SAPE  C31710289   4.010   5.291   4.599 -0.4858 -0.1505 -0.3222
  101SAPE  H17X10290   3.989   5.359   4.684  0.4314 -0.5284  0.2205
  101SAPE  H17Y10291   3.970   5.188   4.610  0.3243 -0.4779 -0.3584
  101SAPE  C31810292   3.962   5.342   4.462  0.0736 -0.0057  0.9388
  101SAPE  H18X10293   4.016   5.437   4.441  1.4599 -0.8384  0.5466
  101SAPE  H18Y10294   3.851   5.347   4.464 -0.0345 -0.5305 -1.4732
  101SAPE  H18Z10295   3.986   5.262   4.389 -0.5951  0.3492  0.3253
  102SAPE     N10296   6.014   0.521   6.322 -0.3805 -0.0076  0.0626
  102SAPE   HN110297   5.958   0.599   6.361 -0.1254 -0.5214  1.5335
  102SAPE   HN210298   6.066   0.553   6.238 -1.0584 -0.3743 -0.5025
  102SAPE   HN310299   5.953   0.443   6.290 -0.5661  0.4944 -0.8186
  102SAPE   C1210300   6.120   0.459   6.418  0.9147  0.2119 -0.2623
  102SAPE  H12A10301   6.065   0.387   6.482  1.2202 -0.8811 -1.1951
  102SAPE  H12B10302   6.157   0.549   6.472 -0.0791  1.2064 -1.1564
  102SAPE   C1110303   6.229   0.392   6.345  0.1418  0.4638  0.2092
  102SAPE  H11A10304   6.191   0.308   6.283  3.0598 -0.7890 -0.0713
  102SAPE  H11B10305   6.296   0.347   6.421  1.3504  0.7237 -0.6715
  102SAPE     P10306   6.440   0.495   6.225  0.4661 -0.1738 -0.2517
  102SAPE   O1310307   6.454   0.604   6.126 -0.0207  0.8693  0.0031
  102SAPE   O1410308   6.517   0.503   6.352  0.1736 -0.1897  0.1036
  102SAPE   O1210309   6.288   0.480   6.253 -0.1580 -0.1908  0.3466
  102SAPE   O1110310   6.457   0.357   6.158  0.2355 -0.3946 -0.4024
  102SAPE    C110311   6.411   0.324   6.027  0.6306 -1.1711  0.2579
  102SAPE    HA10312   6.368   0.222   6.024 -0.1701 -0.8759  1.1959
  102SAPE    HB10313   6.318   0.378   6.001  1.2355 -1.3751 -2.5579
  102SAPE    C210314   6.516   0.333   5.921  0.3790 -0.1126  0.2555
  102SAPE    HS10315   6.535   0.442   5.911 -1.2445  0.3023  1.2159
  102SAPE   O2110316   6.485   0.269   5.798  0.2485 -0.7447  0.4550
  102SAPE   C2110317   6.402   0.327   5.716  0.5362 -0.1513  0.1280
  102SAPE   O2210318   6.338   0.430   5.744  0.4471  0.3695  0.5752
  102SAPE   C2210319   6.379   0.247   5.589 -0.1378  0.6146  0.7560
  102SAPE   H2R10320   6.296   0.175   5.607  0.9416 -0.6943  0.7121
  102SAPE   H2S10321   6.337   0.314   5.511 -1.8777 -1.0776  0.1587
  102SAPE    C310322   6.650   0.266   5.966  0.0220  0.3155 -0.1597
  102SAPE    HX10323   6.621   0.160   5.981  0.0350  0.7329  3.7086
  102SAPE    HY10324   6.683   0.305   6.064  0.0225 -3.7468  1.6427
  102SAPE   O3110325   6.753   0.304   5.865 -0.0444 -0.1189 -0.3776
  102SAPE   C3110326   6.799   0.194   5.799 -0.2835 -0.5146  0.3533
  102SAPE   O3210327   6.762   0.080   5.814 -0.4746  0.5541  0.2055
  102SAPE   C3210328   6.909   0.240   5.703 -0.2086  0.2411 -0.3018
  102SAPE   H2X10329   6.985   0.301   5.755  1.2343 -1.2249 -0.6100
  102SAPE   H2Y10330   6.871   0.301   5.618  3.5425  4.1560  0.4999
  102SAPE   C2310331   6.505   0.171   5.536 -0.2917 -0.4532  1.1691
  102SAPE   H3R10332   6.511   0.081   5.602 -1.6579 -1.4725 -0.0380
  102SAPE   H3S10333   6.593   0.237   5.553 -1.6793  2.2793 -1.4334
  102SAPE   C2410334   6.487   0.116   5.397 -0.4840  0.8047 -0.1568
  102SAPE   H4R10335   6.564   0.038   5.376 -0.5004  1.0289 -1.0740
  102SAPE   H4S10336   6.509   0.204   5.333 -0.6869  1.0782  0.1507
  102SAPE   C2510337   6.355   0.049   5.386  0.7928  0.3897  0.5929
  102SAPE   H5R10338   6.313  -0.011   5.468  0.5976  1.2148  1.1051
  102SAPE   C2610339   6.266   0.079   5.286  0.7356 -0.6037 -0.7653
  102SAPE   H6R10340   6.171   0.025   5.281  1.2327 -1.6577  0.6467
  102SAPE   C2710341   6.286   0.181   5.174  0.0303  0.0915  0.2339
  102SAPE   H7R10342   6.338   0.271   5.211  1.1786 -0.7304  0.6658
  102SAPE   H7S10343   6.192   0.224   5.132  1.0220  1.1207 -1.0182
  102SAPE   C2810344   6.376   0.128   5.064  0.2972  0.2810 -0.2209
  102SAPE   H8R10345   6.416   0.027   5.081  0.2981  0.2320 -0.4992
  102SAPE   C2910346   6.396   0.191   4.950  0.5208  0.2819  0.3329
  102SAPE   H9R10347   6.471   0.152   4.880 -0.1122  0.8897 -0.6987
  102SAPE  C21010348   6.340   0.332   4.917 -0.6562  0.2813  0.1558
  102SAPE  H10R10349   6.369   0.401   4.999  1.6147  1.2498 -1.3481
  102SAPE  H10S10350   6.229   0.325   4.921 -0.6586 -3.3729 -1.9198
  102SAPE  C21110351   6.383   0.394   4.783 -0.5181 -0.7729  0.3538
  102SAPE  H11R10352   6.431   0.490   4.804  0.0194 -1.1084  0.6913
  102SAPE  C21210353   6.379   0.345   4.659 -0.2215 -0.3910 -0.2919
  102SAPE  H12R10354   6.405   0.408   4.572  0.8550  1.6383  1.3901
  102SAPE  C21310355   6.325   0.204   4.623  0.2264 -0.6560 -0.0303
  102SAPE  H13R10356   6.315   0.136   4.711  1.2840  0.8800  1.3416
  102SAPE  H13S10357   6.401   0.154   4.559 -1.0642 -1.0459 -1.2967
  102SAPE  C21410358   6.197   0.202   4.542  0.3791  0.7567 -0.0203
  102SAPE  H14R10359   6.138   0.295   4.541 -1.3076 -0.1241  2.9453
  102SAPE  C21510360   6.156   0.098   4.459 -0.3250 -0.4779  0.5523
  102SAPE  H15R10361   6.061   0.106   4.404 -1.8368 -0.0966  3.0436
  102SAPE  C21610362   6.223  -0.038   4.449 -0.5609 -0.1494 -0.4083
  102SAPE  H16R10363   6.313  -0.039   4.515 -0.0748  1.2141 -1.0025
  102SAPE  H16S10364   6.261  -0.061   4.346  2.0685 -0.4875  0.5553
  102SAPE  C21710365   6.134  -0.159   4.489  0.0300 -0.5032  0.0352
  102SAPE  H17R10366   6.189  -0.255   4.478  1.9700  0.6645 -1.0879
  102SAPE  H17S10367   6.055  -0.163   4.411 -0.5785  0.3569  0.5975
  102SAPE  C21810368   6.057  -0.147   4.625  0.0068 -0.3108 -0.1296
  102SAPE  H18R10369   5.984  -0.228   4.647 -1.5570  0.8176 -1.0713
  102SAPE  H18S10370   5.986  -0.064   4.611 -0.2004 -0.1171  1.8357
  102SAPE  C21910371   6.143  -0.123   4.748  0.0069  0.0111 -0.2954
  102SAPE  H19R10372   6.226  -0.053   4.726  1.3915 -1.2710  0.6487
  102SAPE  H19S10373   6.204  -0.214   4.766  1.7792  1.4315  1.2761
  102SAPE  C22010374   6.077  -0.083   4.881  0.1773  0.0278 -0.5178
  102SAPE  H20R10375   6.154  -0.036   4.946  0.2324 -2.1595  1.1302
  102SAPE  H20S10376   6.041  -0.169   4.941  2.0193 -0.7901 -0.5362
  102SAPE  H20T10377   6.002  -0.006   4.852  0.6008 -0.2802 -2.5218
  102SAPE   C3310378   6.991   0.116   5.646  0.0787  0.3383 -0.3899
  102SAPE   H3X10379   7.001   0.041   5.728 -0.1788  0.4791 -0.2291
  102SAPE   H3Y10380   7.084   0.154   5.598  0.9200 -0.7801  0.3057
  102SAPE   C3410381   6.918   0.047   5.522 -0.5899 -0.1453  0.4397
  102SAPE   H4X10382   6.820   0.004   5.551 -1.9158  2.8016  0.7839
  102SAPE   H4Y10383   6.986  -0.032   5.485 -1.9161 -0.7486 -0.8075
  102SAPE   C3510384   6.892   0.153   5.413 -0.5116  0.1856  0.7218
  102SAPE   H5X10385   6.990   0.203   5.403 -1.3142  1.9429  1.3493
  102SAPE   H5Y10386   6.811   0.227   5.431  0.7962  1.6622  0.6491
  102SAPE   C3610387   6.871   0.091   5.270 -0.0919 -0.6050  0.2064
  102SAPE   H6X10388   6.777   0.032   5.270 -0.0085 -1.0299 -3.9071
  102SAPE   H6Y10389   6.955   0.021   5.252  0.7986  0.4079  0.3233
  102SAPE   C3710390   6.854   0.203   5.163 -0.6753 -0.1031 -0.7356
  102SAPE   H7X10391   6.955   0.251   5.161 -0.9437  0.8868  2.9425
  102SAPE   H7Y10392   6.779   0.271   5.207  0.5318  1.7834 -1.4741
  102SAPE   C3810393   6.813   0.153   5.021 -0.0133 -0.4704  0.1357
  102SAPE   H8X10394   6.714   0.103   5.033 -0.3201  0.2433  0.6588
  102SAPE   H8Y10395   6.889   0.082   4.983  1.6501  1.9363 -1.3318
  102SAPE   C3910396   6.810   0.263   4.914 -0.0360 -0.5797 -0.0548
  102SAPE   H9X10397   6.906   0.315   4.894  0.7911 -1.7175  0.8662
  102SAPE   H9Y10398   6.729   0.328   4.955 -0.4127 -1.0099 -0.1150
  102SAPE  C31010399   6.772   0.203   4.778  0.2310  0.7215  0.1285
  102SAPE  H10X10400   6.675   0.149   4.783  0.5903 -0.1543 -1.6534
  102SAPE  H10Y10401   6.846   0.130   4.741 -4.1177 -2.5352 -3.1822
  102SAPE  C31110402   6.745   0.300   4.658 -0.9017  0.1913 -0.1322
  102SAPE  H11X10403   6.834   0.367   4.660 -0.5074 -0.3125  1.9431
  102SAPE  H11Y10404   6.666   0.374   4.682 -1.0880 -0.4505  1.3716
  102SAPE  C31210405   6.715   0.219   4.533 -0.7276 -0.0441  0.1053
  102SAPE  H12X10406   6.609   0.186   4.533 -0.2070 -1.9708  2.5875
  102SAPE  H12Y10407   6.790   0.137   4.528 -0.8871 -0.2816  1.3270
  102SAPE  C31310408   6.723   0.308   4.412  0.8470 -0.1340  0.2303
  102SAPE  H13X10409   6.824   0.351   4.399  0.3499  0.4812 -2.1506
  102SAPE  H13Y10410   6.645   0.388   4.413  0.3012 -0.4956 -3.1535
  102SAPE  C31410411   6.681   0.235   4.283 -0.1389  0.2779 -0.4121
  102SAPE  H14X10412   6.735   0.139   4.279 -1.9459 -0.8228  0.4810
  102SAPE  H14Y10413   6.717   0.293   4.195 -1.2233  4.1916  1.4964
  102SAPE  C31510414   6.531   0.214   4.264  0.3232  0.3196 -0.0284
  102SAPE  H15X10415   6.493   0.154   4.349 -4.1603  2.1625 -0.4762
  102SAPE  H15Y10416   6.514   0.147   4.176 -0.2534  0.8632 -0.3327
  102SAPE  C31610417   6.440   0.346   4.256 -0.4755  0.7484 -0.0462
  102SAPE  H16X10418   6.455   0.418   4.339  1.0415  0.0095  0.3549
  102SAPE  H16Y10419   6.333   0.320   4.251 -0.2930  0.1859 -1.8232
  102SAPE  C31710420   6.473   0.432   4.132  0.2004  0.2151  0.4223
  102SAPE  H17X10421   6.583   0.451   4.128  0.2968 -0.4648 -0.7610
  102SAPE  H17Y10422   6.423   0.530   4.147 -0.4864 -0.5450  3.7046
  102SAPE  C31810423   6.420   0.370   3.996 -0.0494  0.2976 -0.8107
  102SAPE  H18X10424   6.310   0.349   3.996  0.3541 -2.5335 -3.0186
  102SAPE  H18Y10425   6.457   0.268   3.972  2.5929  1.0706 -0.2557
  102SAPE  H18Z10426   6.433   0.437   3.908  0.2039  0.9504 -0.2794
  103SAPE     N10427   5.661   0.608   2.212  0.4217  0.3973 -0.1293
  103SAPE   HN110428   5.729   0.581   2.286  1.3920 -0.3287 -1.2575
  103SAPE   HN210429   5.565   0.626   2.246 -1.0105 -4.0226 -1.1229
  103SAPE   HN310430   5.659   0.527   2.147  2.3725 -0.7550  1.1263
  103SAPE   C1210431   5.713   0.735   2.145 -0.4090  0.1116 -0.0800
  103SAPE  H12A10432   5.718   0.813   2.224 -1.1098  1.8171 -1.6385
  103SAPE  H12B10433   5.630   0.763   2.076  0.3049  2.0002 -0.2083
  103SAPE   C1110434   5.842   0.687   2.071 -0.1739 -0.0831  0.0262
  103SAPE  H11A10435   5.875   0.767   2.001  0.6774 -0.2962  0.1767
  103SAPE  H11B10436   5.795   0.612   2.004 -1.3468 -1.1512  1.9620
  103SAPE     P10437   6.077   0.723   2.197 -0.1246 -0.2127  0.0239
  103SAPE   O1310438   6.186   0.637   2.251  0.2140 -0.1645  0.2361
  103SAPE   O1410439   6.118   0.812   2.082  0.1589  0.0977  0.2642
  103SAPE   O1210440   5.950   0.635   2.153 -0.2677  0.5196 -0.3446
  103SAPE   O1110441   6.014   0.814   2.312  0.0334  0.0460  0.3029
  103SAPE    C110442   6.097   0.925   2.358 -0.2648  0.2060  0.1587
  103SAPE    HA10443   6.089   0.945   2.467 -0.5464 -0.3417  0.2372
  103SAPE    HB10444   6.204   0.898   2.348 -0.3651 -0.4703  0.8393
  103SAPE    C210445   6.069   1.059   2.283 -0.2758  0.0086  0.4520
  103SAPE    HS10446   6.119   1.059   2.184 -0.5017  0.1285  0.3361
  103SAPE   O2110447   6.125   1.169   2.358 -0.0543  0.5332 -0.2218
  103SAPE   C2110448   6.256   1.176   2.373  0.6514 -0.3828 -0.3359
  103SAPE   O2210449   6.336   1.115   2.306 -0.3107 -0.0318  0.1563
  103SAPE   C2210450   6.285   1.289   2.474  0.1899  0.5210 -0.5004
  103SAPE   H2R10451   6.281   1.378   2.408 -2.3981  0.7410 -0.1235
  103SAPE   H2S10452   6.194   1.295   2.537 -0.1567  0.3389 -0.9793
  103SAPE    C310453   5.921   1.094   2.263 -0.1216  0.3073 -0.9128
  103SAPE    HX10454   5.880   0.998   2.225 -1.8322  0.3570  0.6841
  103SAPE    HY10455   5.921   1.179   2.190  1.4993  2.3131  1.2640
  103SAPE   O3110456   5.851   1.120   2.389 -0.0430  0.0299  0.2531
  103SAPE   C3110457   5.719   1.121   2.389 -0.5049 -0.8497  0.0805
  103SAPE   O3210458   5.643   1.125   2.292 -1.0063  0.1454  0.0175
  103SAPE   C3210459   5.663   1.124   2.533 -0.6019  1.1656 -0.3388
  103SAPE   H2X10460   5.746   1.149   2.602  0.3156 -0.9774 -0.5775
  103SAPE   H2Y10461   5.633   1.017   2.542 -0.2713  1.2116  1.5841
  103SAPE   C2310462   6.420   1.266   2.554  0.8887  0.5283 -0.1570
  103SAPE   H3R10463   6.444   1.366   2.596  0.5644  0.4578  0.1952
  103SAPE   H3S10464   6.504   1.245   2.484 -0.2150  1.1552 -1.7499
  103SAPE   C2410465   6.414   1.162   2.669 -0.4121 -0.2241 -0.3364
  103SAPE   H4R10466   6.516   1.147   2.709 -0.6561 -1.5678 -0.1775
  103SAPE   H4S10467   6.381   1.061   2.636  0.5398 -0.4152 -0.7192
  103SAPE   C2510468   6.316   1.211   2.775  0.0758 -0.0644 -0.2559
  103SAPE   H5R10469   6.344   1.313   2.806 -1.8428 -0.0152  1.5046
  103SAPE   C2610470   6.210   1.144   2.815  0.5861  0.0598  0.3747
  103SAPE   H6R10471   6.149   1.178   2.900 -0.8512 -0.5739 -0.3798
  103SAPE   C2710472   6.156   1.013   2.759  0.3370 -0.0602 -0.4051
  103SAPE   H7R10473   6.188   0.925   2.817  0.1208  0.0490 -0.1151
  103SAPE   H7S10474   6.203   0.989   2.662  1.2622  0.6899 -0.1525
  103SAPE   C2810475   6.006   1.002   2.749  0.1006 -0.2391 -0.1029
  103SAPE   H8R10476   5.958   0.996   2.650 -0.5315  1.2196  0.0823
  103SAPE   C2910477   5.924   0.974   2.853 -0.2411 -0.3735  0.2177
  103SAPE   H9R10478   5.816   0.967   2.829 -0.2836  1.5955 -0.3514
  103SAPE  C21010479   5.942   0.975   3.000 -0.4578  0.3160 -0.0150
  103SAPE  H10R10480   6.050   0.981   3.027 -0.3144  2.5557 -0.8710
  103SAPE  H10S10481   5.895   0.885   3.045 -0.4169  0.7236  0.8833
  103SAPE  C21110482   5.884   1.098   3.061 -0.8754  0.0078 -0.5441
  103SAPE  H11R10483   5.837   1.171   2.993 -0.7887  0.1804 -0.4161
  103SAPE  C21210484   5.887   1.130   3.194 -1.1044 -0.1199 -0.6207
  103SAPE  H12R10485   5.833   1.220   3.228 -0.1412  0.0970  0.3885
  103SAPE  C21310486   5.948   1.039   3.301  0.1717  0.4800 -0.0804
  103SAPE  H13R10487   6.017   1.099   3.365  1.1838  0.9915 -1.5916
  103SAPE  H13S10488   6.010   0.959   3.256 -0.8108 -0.9272  0.9955
  103SAPE  C21410489   5.841   0.979   3.390  0.0522 -0.3295  0.0515
  103SAPE  H14R10490   5.761   0.938   3.327  0.6272  1.8840 -2.3182
  103SAPE  C21510491   5.835   0.975   3.524  0.3571  0.7357  0.2406
  103SAPE  H15R10492   5.751   0.923   3.573  1.2564 -1.4978 -0.4601
  103SAPE  C21610493   5.947   1.014   3.612 -0.4067 -0.4080  0.0024
  103SAPE  H16R10494   5.950   1.124   3.627  0.6415 -0.5349  0.8752
  103SAPE  H16S10495   6.047   0.984   3.573  0.6118  0.7458  1.6118
  103SAPE  C21710496   5.941   0.976   3.751  0.0260 -0.0798 -0.1667
  103SAPE  H17R10497   6.032   0.995   3.810 -0.1018  0.6696 -0.2047
  103SAPE  H17S10498   5.927   0.866   3.743  1.1319 -0.0969 -2.7668
  103SAPE  C21810499   5.828   1.028   3.844  0.0308 -0.1610 -0.7879
  103SAPE  H18R10500   5.735   1.008   3.786 -0.4286 -1.4686  0.3291
  103SAPE  H18S10501   5.831   1.138   3.856  0.3769 -0.4560  2.8882
  103SAPE  C21910502   5.818   0.956   3.983 -0.6071  0.7482  0.4775
  103SAPE  H19R10503   5.919   0.958   4.031 -0.1272  2.1272 -0.5107
  103SAPE  H19S10504   5.795   0.848   3.970  2.8643 -0.1783  0.8759
  103SAPE  C22010505   5.720   1.032   4.069  0.4689  0.0221  0.2382
  103SAPE  H20R10506   5.718   0.981   4.167 -0.8976  0.7945  0.6497
  103SAPE  H20S10507   5.620   1.060   4.029  1.3739  0.3931 -1.9162
  103SAPE  H20T10508   5.764   1.132   4.089 -0.0449 -0.2992  3.5102
  103SAPE   C3310509   5.543   1.213   2.548  0.4060  0.3689 -0.5681
  103SAPE   H3X10510   5.456   1.159   2.505 -0.2984  1.4120 -0.4922
  103SAPE   H3Y10511   5.550   1.303   2.483  1.3042  1.4258  0.9217
  103SAPE   C3410512   5.495   1.245   2.691  0.2600  0.1185  0.3827
  103SAPE   H4X10513   5.526   1.157   2.752  0.9957 -0.5287 -0.8801
  103SAPE   H4Y10514   5.385   1.251   2.682  0.3670 -1.2314 -2.9058
  103SAPE   C3510515   5.564   1.371   2.744  0.1444 -1.1535  0.3955
  103SAPE   H5X10516   5.542   1.459   2.680  1.2101 -1.3462 -0.2681
  103SAPE   H5Y10517   5.674   1.358   2.751  0.2358  0.0945  1.5068
  103SAPE   C3610518   5.502   1.413   2.876  0.2006  0.7769  0.4213
  103SAPE   H6X10519   5.405   1.457   2.846  0.9319  2.0916 -0.0828
  103SAPE   H6Y10520   5.566   1.495   2.915 -0.5489  1.5670 -0.0031
  103SAPE   C3710521   5.510   1.300   2.977 -0.4966 -0.0630 -0.2101
  103SAPE   H7X10522   5.607   1.248   2.959 -1.2537 -1.6389  0.1487
  103SAPE   H7Y10523   5.434   1.226   2.945 -0.4683  0.0332 -0.5009
  103SAPE   C3810524   5.489   1.345   3.126  0.3987  0.2950 -0.3142
  103SAPE   H8X10525   5.387   1.390   3.124 -0.7145 -1.9024  1.2965
  103SAPE   H8Y10526   5.570   1.415   3.151  0.6660  0.2370 -0.9935
  103SAPE   C3910527   5.501   1.231   3.229 -0.2491 -0.3532 -0.0638
  103SAPE   H9X10528   5.593   1.168   3.223  0.3222 -0.0772  3.5474
  103SAPE   H9Y10529   5.413   1.167   3.208 -1.9771  0.9467  2.6349
  103SAPE  C31010530   5.481   1.285   3.367  0.3936 -0.3983 -0.4568
  103SAPE  H10X10531   5.378   1.327   3.366  0.7089  0.4259 -2.0663
  103SAPE  H10Y10532   5.561   1.359   3.388 -0.0502 -0.4092  1.3946
  103SAPE  C31110533   5.475   1.166   3.467 -0.8410 -0.4139  0.5403
  103SAPE  H11X10534   5.574   1.121   3.491 -0.4787 -0.6431 -1.2793
  103SAPE  H11Y10535   5.412   1.081   3.433  1.4619 -1.7736 -0.5311
  103SAPE  C31210536   5.420   1.216   3.604  0.9561 -0.6680  0.1717
  103SAPE  H12X10537   5.406   1.123   3.665  0.2588 -1.4507 -1.1447
  103SAPE  H12Y10538   5.321   1.265   3.610  2.4813  2.5119  3.7331
  103SAPE  C31310539   5.506   1.312   3.685 -0.3676  0.5571 -0.0355
  103SAPE  H13X10540   5.547   1.396   3.626 -0.3516  0.3204 -0.3632
  103SAPE  H13Y10541   5.592   1.247   3.713 -1.4091 -0.6966  0.4178
  103SAPE  C31410542   5.448   1.372   3.811  0.2321  0.4996 -0.4687
  103SAPE  H14X10543   5.388   1.457   3.772 -1.0433 -0.3977 -0.5136
  103SAPE  H14Y10544   5.534   1.406   3.873  0.7498 -2.8126  0.8746
  103SAPE  C31510545   5.362   1.269   3.893  0.6806 -0.7372 -0.3655
  103SAPE  H15X10546   5.416   1.172   3.899 -0.5337 -1.4379 -0.4166
  103SAPE  H15Y10547   5.264   1.264   3.841  1.3464 -1.2983 -1.6085
  103SAPE  C31610548   5.329   1.312   4.034  0.6212  0.4845 -0.1682
  103SAPE  H16X10549   5.288   1.415   4.035 -0.0403  0.3030 -2.7588
  103SAPE  H16Y10550   5.427   1.315   4.086 -0.7555  1.4397  2.5536
  103SAPE  C31710551   5.236   1.220   4.115  0.0762  0.1627  0.6806
  103SAPE  H17X10552   5.142   1.217   4.056 -0.2672 -0.3766  1.2488
  103SAPE  H17Y10553   5.210   1.263   4.214  1.0553  1.5551  0.3665
  103SAPE  C31810554   5.287   1.075   4.147  0.3725 -1.0379  0.2895
  103SAPE  H18X10555   5.354   1.069   4.235  0.9407 -1.2199 -0.1448
  103SAPE  H18Y10556   5.347   1.028   4.066 -1.9216 -2.6047 -0.6087
  103SAPE  H18Z10557   5.201   1.012   4.177  0.1257  0.7312  3.6159
  104SAPE     N10558   5.642   5.950   1.880 -0.2392  0.4604  0.2186
  104SAPE   HN110559   5.656   5.894   1.794 -1.2040  0.6170 -0.0538
  104SAPE   HN210560   5.654   6.049   1.850  0.9846  0.3693  0.3547
  104SAPE   HN310561   5.720   5.911   1.937  1.4100  1.6868 -1.0811
  104SAPE   C1210562   5.505   5.923   1.939  0.7269 -0.1203  0.3832
  104SAPE  H12A10563   5.432   5.937   1.857  1.2339 -2.0481 -0.4655
  104SAPE  H12B10564   5.496   5.998   2.020  0.4255 -0.2932  0.5112
  104SAPE   C1110565   5.499   5.781   1.995 -0.6216  0.5685  0.4201
  104SAPE  H11A10566   5.421   5.776   2.074 -2.2039 -0.3682 -1.1110
  104SAPE  H11B10567   5.593   5.749   2.043  0.8993  1.0543 -2.0386
  104SAPE     P10568   5.368   5.591   1.857  0.2540  0.0652 -0.1627
  104SAPE   O1310569   5.242   5.657   1.820 -0.1879  0.0411  0.4508
  104SAPE   O1410570   5.423   5.492   1.760  0.3681 -0.4865 -0.1301
  104SAPE   O1210571   5.483   5.700   1.888 -0.4231  0.1115  0.6896
  104SAPE   O1110572   5.365   5.523   2.004  0.3755 -0.1469 -0.1650
  104SAPE    C110573   5.329   5.383   2.018  0.5018 -0.5995  0.0130
  104SAPE    HA10574   5.270   5.344   1.933 -1.2698  0.3480  0.7706
  104SAPE    HB10575   5.426   5.328   2.018  2.6438  2.8531  0.9172
  104SAPE    C210576   5.257   5.356   2.147 -0.3002  0.4410 -0.5587
  104SAPE    HS10577   5.156   5.401   2.141  0.0140  1.4629  1.0481
  104SAPE   O2110578   5.333   5.421   2.253  0.3985 -0.0439 -0.2674
  104SAPE   C2110579   5.262   5.461   2.360 -0.2943  0.7784  0.2953
  104SAPE   O2210580   5.141   5.451   2.372 -0.3323  0.1402  0.7701
  104SAPE   C2210581   5.367   5.501   2.464  0.6379  0.6072  0.1982
  104SAPE   H2R10582   5.412   5.404   2.494  1.6190  0.5463 -1.3176
  104SAPE   H2S10583   5.460   5.550   2.427 -0.5475  1.4112 -1.9361
  104SAPE    C310584   5.242   5.196   2.172 -0.0985  0.3708  0.5903
  104SAPE    HX10585   5.343   5.151   2.163  0.2665  0.8733  1.9359
  104SAPE    HY10586   5.188   5.145   2.089  2.7002 -1.7408 -0.0853
  104SAPE   O3110587   5.184   5.161   2.300  0.4842 -0.7841  0.3143
  104SAPE   C3110588   5.261   5.113   2.399  0.5476  0.4254  0.1343
  104SAPE   O3210589   5.383   5.120   2.403  0.2648 -0.3370  0.4844
  104SAPE   C3210590   5.174   5.049   2.506  0.4591  0.2091 -0.2227
  104SAPE   H2X10591   5.126   4.955   2.471 -1.6761  1.7396 -1.6478
  104SAPE   H2Y10592   5.081   5.107   2.528  0.7469  0.5306  0.1637
  104SAPE   C2310593   5.310   5.587   2.579 -0.6966  0.0095 -0.1673
  104SAPE   H3R10594   5.255   5.518   2.647 -0.8258 -0.3914 -0.6802
  104SAPE   H3S10595   5.236   5.661   2.540  0.6772  2.0091  0.8461
  104SAPE   C2410596   5.412   5.657   2.662 -0.0285 -0.2587 -0.2435
  104SAPE   H4R10597   5.495   5.590   2.692  0.3964 -0.3994 -1.6432
  104SAPE   H4S10598   5.360   5.672   2.759 -1.8712  0.4549 -1.2914
  104SAPE   C2510599   5.460   5.789   2.590  0.1480 -0.6532 -0.3088
  104SAPE   H5R10600   5.478   5.787   2.482  2.1302  2.2279 -0.1503
  104SAPE   C2610601   5.446   5.922   2.631 -0.1790  0.5385 -0.1615
  104SAPE   H6R10602   5.492   6.004   2.574 -0.0584  0.9497  0.5162
  104SAPE   C2710603   5.388   5.968   2.762 -0.5729  0.0842 -0.0218
  104SAPE   H7R10604   5.451   5.928   2.845 -0.4249 -1.0385 -0.6564
  104SAPE   H7S10605   5.286   5.927   2.775  0.2159 -1.6876  0.9745
  104SAPE   C2810606   5.371   6.115   2.786  0.0962  0.5970  0.5396
  104SAPE   H8R10607   5.402   6.173   2.697 -1.3558  0.0678 -0.3342
  104SAPE   C2910608   5.335   6.172   2.899  0.2492 -0.5663 -0.5584
  104SAPE   H9R10609   5.328   6.281   2.899 -1.2023 -0.6072 -2.2339
  104SAPE  C21010610   5.301   6.098   3.022 -0.0308  0.1702 -0.8108
  104SAPE  H10R10611   5.329   5.990   3.022 -0.3151  0.0230  1.9786
  104SAPE  H10S10612   5.191   6.102   3.035  0.0764 -2.6286  2.1349
  104SAPE  C21110613   5.374   6.166   3.137 -0.1837  0.0278 -0.6076
  104SAPE  H11R10614   5.481   6.143   3.136 -0.1629  0.0501 -2.3142
  104SAPE  C21210615   5.329   6.232   3.245  0.1068  0.2775 -0.4428
  104SAPE  H12R10616   5.409   6.285   3.299  1.4255 -1.5056 -0.5455
  104SAPE  C21310617   5.185   6.253   3.290 -0.3106  0.7598 -0.1143
  104SAPE  H13R10618   5.122   6.229   3.201  3.8728  4.9048 -4.8645
  104SAPE  H13S10619   5.164   6.361   3.298 -1.7997  0.6089 -1.4391
  104SAPE  C21410620   5.144   6.187   3.423  0.0784  1.0348  0.2968
  104SAPE  H14R10621   5.100   6.086   3.417  1.7788  0.2957 -0.3919
  104SAPE  C21510622   5.144   6.240   3.541  0.2491  0.2285  0.0752
  104SAPE  H15R10623   5.115   6.174   3.624  1.5717 -1.6611 -0.8890
  104SAPE  C21610624   5.209   6.372   3.573  0.0439  0.3364 -0.5777
  104SAPE  H16R10625   5.136   6.454   3.583 -0.8334 -0.6172  1.2944
  104SAPE  H16S10626   5.281   6.391   3.490  0.9970 -0.6884 -0.0230
  104SAPE  C21710627   5.288   6.378   3.705  0.5785 -0.8683  0.2359
  104SAPE  H17R10628   5.220   6.367   3.792  1.2106 -2.1635  0.5897
  104SAPE  H17S10629   5.341   6.476   3.707 -0.3998 -0.3259  0.3315
  104SAPE  C21810630   5.380   6.256   3.715  0.3179  0.3210 -0.3458
  104SAPE  H18R10631   5.429   6.227   3.620  1.7011 -0.1823  0.4859
  104SAPE  H18S10632   5.314   6.175   3.754  1.9451 -0.4105  1.0476
  104SAPE  C21910633   5.490   6.277   3.829  0.0223 -0.4740  0.9492
  104SAPE  H19R10634   5.442   6.278   3.929 -1.1325 -0.4273  0.4021
  104SAPE  H19S10635   5.527   6.381   3.814 -2.1631  0.2238  0.0321
  104SAPE  C22010636   5.600   6.170   3.819 -0.1351 -0.5177  0.8470
  104SAPE  H20R10637   5.679   6.198   3.891  0.3047 -0.8495  0.5031
  104SAPE  H20S10638   5.625   6.152   3.712 -2.6904 -0.2332  0.1437
  104SAPE  H20T10639   5.563   6.067   3.841 -2.4511  0.1746  0.4784
  104SAPE   C3310640   5.246   5.017   2.640 -0.3839  0.5005  0.6153
  104SAPE   H3X10641   5.344   4.967   2.625 -0.0089  1.0772  1.0895
  104SAPE   H3Y10642   5.181   4.939   2.686  2.0265 -2.6919 -0.9316
  104SAPE   C3410643   5.245   5.145   2.729  0.4150  0.1261  0.4249
  104SAPE   H4X10644   5.148   5.198   2.722 -0.4500 -1.3565  0.6442
  104SAPE   H4Y10645   5.333   5.210   2.709 -0.2804  0.9741  0.0818
  104SAPE   C3510646   5.239   5.109   2.884 -0.7023 -0.7356  0.1412
  104SAPE   H5X10647   5.333   5.055   2.911 -1.1057 -1.5497 -0.0412
  104SAPE   H5Y10648   5.150   5.044   2.901 -1.5668  0.1988 -0.6697
  104SAPE   C3610649   5.237   5.231   2.972  0.3825  0.7652 -0.0137
  104SAPE   H6X10650   5.136   5.278   2.967 -1.3901 -2.6041  1.1780
  104SAPE   H6Y10651   5.312   5.309   2.946 -0.9797  1.2498 -2.8894
  104SAPE   C3710652   5.257   5.192   3.119  0.1557 -0.0885  0.6937
  104SAPE   H7X10653   5.352   5.136   3.128 -0.5711 -1.3808  0.4324
  104SAPE   H7Y10654   5.165   5.135   3.142  0.2202 -0.5866 -0.2473
  104SAPE   C3810655   5.255   5.316   3.207  0.1994  0.4653  0.5365
  104SAPE   H8X10656   5.162   5.377   3.208  1.0398  1.7899  0.4328
  104SAPE   H8Y10657   5.341   5.379   3.175  0.8130 -1.0557 -1.0033
  104SAPE   C3910658   5.272   5.286   3.359  0.0907 -0.2125 -0.2821
  104SAPE   H9X10659   5.374   5.242   3.365  0.2119 -0.1380 -1.6145
  104SAPE   H9Y10660   5.197   5.208   3.387  2.0470 -1.8943  0.5579
  104SAPE  C31010661   5.254   5.414   3.439  0.7350 -0.8001 -0.3450
  104SAPE  H10X10662   5.150   5.450   3.420  1.0446  0.3624  0.0889
  104SAPE  H10Y10663   5.328   5.485   3.395 -0.0837 -0.7123 -1.6422
  104SAPE  C31110664   5.272   5.403   3.593 -0.3994  0.4426  0.1435
  104SAPE  H11X10665   5.253   5.504   3.636 -1.1142  0.2073  0.3981
  104SAPE  H11Y10666   5.380   5.390   3.613 -0.7627 -0.0839  1.9074
  104SAPE  C31210667   5.186   5.292   3.664  0.1712 -0.5776  1.2807
  104SAPE  H12X10668   5.200   5.199   3.605 -0.7248 -0.2006  0.4439
  104SAPE  H12Y10669   5.080   5.322   3.652  0.8688  1.7288  0.2262
  104SAPE  C31310670   5.219   5.276   3.805  0.1514  0.5334  0.5335
  104SAPE  H13X10671   5.222   5.377   3.853  2.1856  2.1683 -2.6952
  104SAPE  H13Y10672   5.317   5.229   3.824 -1.0398 -1.4205  2.2987
  104SAPE  C31410673   5.121   5.185   3.882  0.3573  0.0095 -0.9075
  104SAPE  H14X10674   5.110   5.090   3.826 -0.6237 -0.7247  0.4468
  104SAPE  H14Y10675   5.024   5.236   3.865  0.1766  0.4740  1.1560
  104SAPE  C31510676   5.166   5.164   4.032  0.8801  0.0076 -0.2106
  104SAPE  H15X10677   5.191   5.266   4.067  0.1727  0.6316 -1.4327
  104SAPE  H15Y10678   5.265   5.113   4.038  1.4464  1.2114  1.3137
  104SAPE  C31610679   5.073   5.088   4.131 -0.4025 -0.0312  0.6773
  104SAPE  H16X10680   5.027   4.995   4.091  1.2782  0.5887 -3.0379
  104SAPE  H16Y10681   4.990   5.162   4.141 -1.0600 -0.5059 -0.9002
  104SAPE  C31710682   5.144   5.042   4.262  0.2146 -0.1787  0.1575
  104SAPE  H17X10683   5.069   4.993   4.328  1.1755 -0.6558  0.9100
  104SAPE  H17Y10684   5.187   5.128   4.316 -0.4439 -1.6851  3.3160
  104SAPE  C31810685   5.253   4.940   4.237 -0.5610 -0.2990 -0.0558
  104SAPE  H18X10686   5.303   4.907   4.331  0.3931  1.2696  0.0283
  104SAPE  H18Y10687   5.338   4.969   4.173 -2.3038 -1.4228 -3.0582
  104SAPE  H18Z10688   5.214   4.847   4.192  2.5154 -1.3189 -0.8126
  105SAPE     N10689   3.961   3.345   1.823 -0.5615 -0.6467  0.3284
  105SAPE   HN110690   3.875   3.315   1.773 -0.2690  1.2002 -1.4334
  105SAPE   HN210691   3.979   3.440   1.784 -3.3744  0.0516  0.4807
  105SAPE   HN310692   4.025   3.269   1.792 -0.3201  0.3832 -1.8882
  105SAPE   C1210693   3.925   3.341   1.972  0.2637  0.1347 -0.0134
  105SAPE  H12A10694   3.900   3.235   1.992  0.8566  0.0136  0.0864
  105SAPE  H12B10695   3.843   3.412   1.997 -0.6092 -1.1609  0.9577
  105SAPE   C1110696   4.049   3.377   2.059 -0.7742  0.2076  0.5449
  105SAPE  H11A10697   4.118   3.291   2.066 -1.8982 -0.7103  0.5048
  105SAPE  H11B10698   4.012   3.386   2.163 -0.9856 -1.2817  0.6140
  105SAPE     P10699   4.261   3.530   2.052 -0.4424 -0.6102  0.2806
  105SAPE   O1310700   4.357   3.424   2.023  0.3630  0.4593  0.3013
  105SAPE   O1410701   4.279   3.659   1.990 -0.5188 -0.1868 -0.1109
  105SAPE   O1210702   4.116   3.498   2.012  0.0309  0.3293  0.3555
  105SAPE   O1110703   4.245   3.532   2.212  0.0878 -0.0012 -0.1439
  105SAPE    C110704   4.206   3.646   2.288  0.2631 -0.6402 -0.2317
  105SAPE    HA10705   4.119   3.697   2.241  0.0995 -1.0973 -0.4227
  105SAPE    HB10706   4.178   3.614   2.390 -0.1143 -0.1559 -0.1777
  105SAPE    C210707   4.314   3.754   2.303  0.6515  0.4507  0.2227
  105SAPE    HS10708   4.364   3.753   2.204  1.0891 -0.3165  0.4438
  105SAPE   O2110709   4.408   3.714   2.399  0.5648 -0.0293 -0.3095
  105SAPE   C2110710   4.520   3.783   2.414 -0.1667 -0.1580 -0.9703
  105SAPE   O2210711   4.554   3.876   2.348  0.0293  0.1327  0.1806
  105SAPE   C2210712   4.588   3.742   2.552 -0.9425  0.0586  0.1652
  105SAPE   H2R10713   4.539   3.657   2.605  0.3514 -0.1287  1.1041
  105SAPE   H2S10714   4.686   3.699   2.523 -0.5410  0.0124  1.5153
  105SAPE    C310715   4.253   3.898   2.332 -0.2319 -0.0832  0.3133
  105SAPE    HX10716   4.185   3.913   2.246 -0.2058  0.2316  0.3446
  105SAPE    HY10717   4.337   3.970   2.346  1.8942 -2.6715  1.7412
  105SAPE   O3110718   4.180   3.903   2.458 -0.4667  0.9345  0.4656
  105SAPE   C3110719   4.114   4.021   2.469 -1.0329 -0.1531  0.7921
  105SAPE   O3210720   4.132   4.122   2.409  0.8813 -0.0239  0.5431
  105SAPE   C3210721   4.023   4.006   2.585 -0.0912 -0.0524 -0.0549
  105SAPE   H2X10722   4.073   3.944   2.662 -0.6246 -0.6412 -0.1758
  105SAPE   H2Y10723   3.929   3.962   2.546  0.5183 -0.0838 -1.5409
  105SAPE   C2310724   4.598   3.871   2.646  0.4450 -0.0618  0.3442
  105SAPE   H3R10725   4.673   3.938   2.600  1.0182 -0.7581  0.2570
  105SAPE   H3S10726   4.629   3.842   2.749  1.5594 -0.4573 -0.0844
  105SAPE   C2410727   4.470   3.951   2.678  0.2441 -0.1289 -0.6986
  105SAPE   H4R10728   4.427   4.003   2.591  0.4261 -1.7954 -1.8299
  105SAPE   H4S10729   4.486   4.030   2.755  0.1501 -0.5456 -0.2441
  105SAPE   C2510730   4.364   3.846   2.728 -0.1922  0.2128 -0.1081
  105SAPE   H5R10731   4.334   3.778   2.646  0.5674  1.0306 -1.0925
  105SAPE   C2610732   4.313   3.817   2.854  0.1664  0.2808 -0.1768
  105SAPE   H6R10733   4.239   3.735   2.855 -0.3738  0.7592  0.3663
  105SAPE   C2710734   4.356   3.888   2.982  0.1707 -0.2392  0.2810
  105SAPE   H7R10735   4.273   3.876   3.054  0.6457  0.1158  0.8986
  105SAPE   H7S10736   4.361   3.994   2.949 -2.7648 -0.9222 -2.8808
  105SAPE   C2810737   4.488   3.844   3.040 -0.7967 -0.5807 -0.1996
  105SAPE   H8R10738   4.542   3.775   2.974 -0.1355 -0.0280 -0.2456
  105SAPE   C2910739   4.538   3.889   3.156 -0.7667 -0.5054  0.1473
  105SAPE   H9R10740   4.631   3.839   3.189 -0.6702  0.5146  1.5188
  105SAPE  C21010741   4.479   3.992   3.246 -0.1432 -0.4709  0.0745
  105SAPE  H10R10742   4.400   4.049   3.192  1.0486  1.0219 -0.1502
  105SAPE  H10S10743   4.554   4.067   3.276  0.0156 -0.4653 -0.3214
  105SAPE  C21110744   4.421   3.922   3.368 -0.6321  0.0154 -0.2514
  105SAPE  H11R10745   4.329   3.864   3.348 -0.3370  0.2452 -2.5746
  105SAPE  C21210746   4.457   3.933   3.497 -0.0287  1.4050  0.0777
  105SAPE  H12R10747   4.391   3.881   3.568 -2.2229  2.8731 -0.7914
  105SAPE  C21310748   4.569   4.020   3.552 -0.3195  0.3825 -0.2629
  105SAPE  H13R10749   4.543   4.076   3.645  2.4763 -1.7610  2.0404
  105SAPE  H13S10750   4.587   4.105   3.483 -2.2928  1.3608  0.3442
  105SAPE  C21410751   4.691   3.934   3.580  0.5911 -0.2908  0.2427
  105SAPE  H14R10752   4.755   3.926   3.490  3.6445  2.9920  1.8762
  105SAPE  C21510753   4.717   3.870   3.693  0.2643 -0.0194 -0.3729
  105SAPE  H15R10754   4.815   3.823   3.709 -0.9226 -2.6295 -0.2612
  105SAPE  C21610755   4.631   3.862   3.823  0.1299 -0.8483  1.0329
  105SAPE  H16R10756   4.529   3.902   3.806  0.6139 -0.0447 -0.1480
  105SAPE  H16S10757   4.689   3.907   3.907  1.0836 -0.1698  0.0384
  105SAPE  C21710758   4.598   3.713   3.852 -0.1039  0.0933  0.3389
  105SAPE  H17R10759   4.691   3.654   3.848  0.9580  1.6475  1.0527
  105SAPE  H17S10760   4.537   3.663   3.774  1.7475 -1.2547 -0.3087
  105SAPE  C21810761   4.533   3.697   3.983  1.0501 -0.1018  0.4445
  105SAPE  H18R10762   4.462   3.779   4.006  0.3756 -0.6269  0.2863
  105SAPE  H18S10763   4.609   3.695   4.064 -0.9213  0.5440  2.4074
  105SAPE  C21910764   4.466   3.558   4.001  0.5276  0.1530 -0.5908
  105SAPE  H19R10765   4.540   3.475   3.999  0.3154 -0.1273  1.2974
  105SAPE  H19S10766   4.393   3.538   3.920  1.6271 -0.5413 -1.4428
  105SAPE  C22010767   4.389   3.556   4.134  0.1480  0.4792 -0.4022
  105SAPE  H20R10768   4.465   3.558   4.215 -1.2835  0.0649  0.9790
  105SAPE  H20S10769   4.319   3.470   4.140 -0.0313  0.7146  1.0599
  105SAPE  H20T10770   4.327   3.648   4.135  0.4662  0.6975 -0.4485
  105SAPE   C3310771   3.997   4.148   2.649  1.4325 -0.5602 -0.1967
  105SAPE   H3X10772   3.897   4.123   2.690  1.5620 -1.7137 -0.5267
  105SAPE   H3Y10773   3.987   4.237   2.583  1.5425  0.7362  1.4812
  105SAPE   C3410774   4.085   4.197   2.769  0.5688 -0.3326  0.6423
  105SAPE   H4X10775   4.096   4.307   2.758  1.7532 -0.4175  0.8207
  105SAPE   H4Y10776   4.183   4.146   2.759  0.3956 -0.9299  1.8014
  105SAPE   C3510777   4.021   4.157   2.902 -0.5559  0.5293 -0.4439
  105SAPE   H5X10778   4.011   4.046   2.903 -0.8569  0.5574  0.4574
  105SAPE   H5Y10779   3.922   4.205   2.916  0.0130  1.1609  1.7765
  105SAPE   C3610780   4.116   4.191   3.021 -0.9352  0.2629  0.3260
  105SAPE   H6X10781   4.182   4.279   3.001 -1.2155  0.1278 -1.3941
  105SAPE   H6Y10782   4.191   4.109   3.022  0.3541  1.3641  2.9848
  105SAPE   C3710783   4.062   4.212   3.160  0.7592 -0.2278  1.0108
  105SAPE   H7X10784   4.014   4.121   3.200 -0.2382 -0.2570 -0.2014
  105SAPE   H7Y10785   3.987   4.293   3.154  0.3735 -0.4429  2.5601
  105SAPE   C3810786   4.166   4.259   3.252  0.4929  0.4413  0.0109
  105SAPE   H8X10787   4.243   4.330   3.214  2.2031 -0.5230  1.5318
  105SAPE   H8Y10788   4.215   4.164   3.281 -1.8749  0.0049  2.9861
  105SAPE   C3910789   4.102   4.323   3.375  0.2008 -0.2063  1.1402
  105SAPE   H9X10790   4.020   4.259   3.414  1.5646 -2.0451  1.1221
  105SAPE   H9Y10791   4.051   4.418   3.348  1.2596 -0.2567 -1.2630
  105SAPE  C31010792   4.205   4.342   3.483  0.4566  0.1977  0.3235
  105SAPE  H10X10793   4.279   4.422   3.461  0.4024  0.0263 -0.5054
  105SAPE  H10Y10794   4.259   4.244   3.482 -1.5457 -0.9560 -0.1300
  105SAPE  C31110795   4.128   4.379   3.614  0.5956 -0.1184  1.0732
  105SAPE  H11X10796   4.048   4.303   3.625 -1.8959  2.1557 -0.3001
  105SAPE  H11Y10797   4.078   4.473   3.582  1.2138 -0.0077  0.3986
  105SAPE  C31210798   4.213   4.390   3.738 -0.5131  0.0600 -0.4273
  105SAPE  H12X10799   4.231   4.290   3.783  0.4122  0.0187 -0.8687
  105SAPE  H12Y10800   4.165   4.447   3.820  2.7471  4.0321 -0.9775
  105SAPE  C31310801   4.353   4.447   3.710 -0.2151  0.3635 -0.2391
  105SAPE  H13X10802   4.345   4.538   3.647  0.6015  0.6276  0.0265
  105SAPE  H13Y10803   4.414   4.366   3.663  0.7461  0.4830  0.7624
  105SAPE  C31410804   4.435   4.478   3.841 -0.2866  0.5565  0.3034
  105SAPE  H14X10805   4.357   4.504   3.915 -0.6714  1.9975 -0.5569
  105SAPE  H14Y10806   4.496   4.571   3.830 -2.0854  2.0033  1.9057
  105SAPE  C31510807   4.521   4.361   3.894  0.8261  0.1538  0.3008
  105SAPE  H15X10808   4.617   4.361   3.839 -0.3404  0.0038 -1.8253
  105SAPE  H15Y10809   4.474   4.263   3.873  1.1039 -0.3007  1.6586
  105SAPE  C31610810   4.552   4.374   4.039 -0.3162  0.0672 -0.2870
  105SAPE  H16X10811   4.457   4.387   4.095  0.9665 -0.6940  2.2501
  105SAPE  H16Y10812   4.609   4.468   4.056 -0.7967  0.5428 -1.2328
  105SAPE  C31710813   4.637   4.253   4.086  0.0196  1.2898 -0.3456
  105SAPE  H17X10814   4.667   4.262   4.192 -0.5373  1.1892 -0.1781
  105SAPE  H17Y10815   4.740   4.243   4.044  1.1617 -0.9630  2.6453
  105SAPE  C31810816   4.562   4.116   4.064  0.1055  0.3213 -0.5157
  105SAPE  H18X10817   4.463   4.112   4.113 -0.0306  0.5084 -0.7704
  105SAPE  H18Y10818   4.631   4.039   4.105  0.0076  0.9144  0.8047
  105SAPE  H18Z10819   4.549   4.092   3.956  2.8655  0.8935 -1.0695
  106SAPE     N10820   2.135   3.437   1.747  0.4920 -0.3645  0.2863
  106SAPE   HN110821   2.073   3.454   1.829 -0.0041  0.1870 -0.1853
  106SAPE   HN210822   2.139   3.532   1.705 -0.2253  0.4758  2.0042
  106SAPE   HN310823   2.093   3.371   1.679  3.1241 -1.5413 -0.3227
  106SAPE   C1210824   2.271   3.378   1.786 -0.5036  0.2593 -0.4282
  106SAPE  H12A10825   2.321   3.448   1.855  0.8107 -0.0361 -1.0479
  106SAPE  H12B10826   2.327   3.367   1.690 -1.2085 -0.4494 -0.7810
  106SAPE   C1110827   2.255   3.234   1.842 -0.3699  0.3419 -0.3966
  106SAPE  H11A10828   2.344   3.227   1.907  2.0163  2.4077 -3.1706
  106SAPE  H11B10829   2.261   3.173   1.749 -2.1015  0.1614 -0.4168
  106SAPE     P10830   2.082   3.095   1.986 -0.5891 -0.2293  0.1228
  106SAPE   O1310831   1.936   3.106   2.020 -0.0550 -0.2502  0.0389
  106SAPE   O1410832   2.125   2.978   1.905 -0.2325  0.4943  0.2924
  106SAPE   O1210833   2.126   3.226   1.909 -0.0879  0.5710  0.4229
  106SAPE   O1110834   2.166   3.103   2.119 -0.1450  0.4535  0.5162
  106SAPE    C110835   2.172   3.220   2.189 -0.1779 -0.2758  0.3255
  106SAPE    HA10836   2.174   3.303   2.115 -1.1391 -1.1917 -0.7519
  106SAPE    HB10837   2.077   3.231   2.246 -0.5641 -2.2565  0.1375
  106SAPE    C210838   2.301   3.241   2.279 -0.8714 -0.1434 -0.6202
  106SAPE    HS10839   2.396   3.232   2.221  0.4227  2.7618  0.8570
  106SAPE   O2110840   2.294   3.149   2.390  0.0969  0.2220  0.5302
  106SAPE   C2110841   2.415   3.133   2.445  0.1392  0.5848 -0.1436
  106SAPE   O2210842   2.516   3.183   2.403  0.0068  1.0438  0.3101
  106SAPE   C2210843   2.399   3.054   2.578  0.0458  0.2857  0.1587
  106SAPE   H2R10844   2.327   3.116   2.634 -0.1401 -0.4323  0.7259
  106SAPE   H2S10845   2.346   2.965   2.538  1.4039 -0.2452 -0.5213
  106SAPE    C310846   2.304   3.386   2.337  0.1642 -0.3297  0.2307
  106SAPE    HX10847   2.307   3.454   2.250  0.0690 -0.8171 -0.1548
  106SAPE    HY10848   2.397   3.397   2.397  0.4873  0.4380 -0.4031
  106SAPE   O3110849   2.175   3.416   2.406 -0.1780  0.0962  0.0382
  106SAPE   C3110850   2.190   3.408   2.535 -0.0897 -0.2884  0.3045
  106SAPE   O3210851   2.300   3.410   2.594  0.5760 -0.2446 -0.2926
  106SAPE   C3210852   2.045   3.402   2.597 -0.5898 -0.0877  0.0967
  106SAPE   H2X10853   1.984   3.322   2.549 -1.1910 -0.2843  1.1485
  106SAPE   H2Y10854   1.995   3.499   2.577  2.5857  1.2060 -2.3068
  106SAPE   C2310855   2.516   2.992   2.655 -0.4127  0.1500  1.0706
  106SAPE   H3R10856   2.587   2.936   2.591  0.3796 -1.8773  3.5394
  106SAPE   H3S10857   2.480   2.923   2.735  2.1306 -1.8169  0.6211
  106SAPE   C2410858   2.605   3.104   2.721 -0.2285  0.5419 -0.5179
  106SAPE   H4R10859   2.677   3.129   2.640 -0.5382  0.6125 -0.7747
  106SAPE   H4S10860   2.668   3.056   2.799  1.0814 -1.3317 -2.6206
  106SAPE   C2510861   2.538   3.234   2.768 -0.1658 -1.2996  0.3390
  106SAPE   H5R10862   2.494   3.307   2.699  0.2368 -0.3373  1.0742
  106SAPE   C2610863   2.516   3.271   2.897 -0.1784 -0.1241 -0.6385
  106SAPE   H6R10864   2.464   3.366   2.920  1.8032  0.4633  1.8943
  106SAPE   C2710865   2.545   3.184   3.012  0.9168  0.9301 -0.1140
  106SAPE   H7R10866   2.630   3.116   2.989  0.7611  0.3933  0.8310
  106SAPE   H7S10867   2.454   3.125   3.036  1.4761  0.3408  0.6142
  106SAPE   C2810868   2.589   3.274   3.121 -0.3075  0.4150 -0.2184
  106SAPE   H8R10869   2.645   3.360   3.083  0.3389  0.0040 -0.1948
  106SAPE   C2910870   2.552   3.261   3.251 -0.2595 -0.2614 -0.3534
  106SAPE   H9R10871   2.596   3.325   3.330  2.1398 -1.0803 -0.9380
  106SAPE  C21010872   2.461   3.159   3.307 -0.4624  0.8166 -0.4460
  106SAPE  H10R10873   2.418   3.100   3.224  0.6252 -1.2672  0.4055
  106SAPE  H10S10874   2.380   3.213   3.361 -1.1319  0.6908 -1.3144
  106SAPE  C21110875   2.529   3.062   3.408 -0.2520 -0.7539  0.0743
  106SAPE  H11R10876   2.587   2.981   3.360 -2.0361 -1.6156 -0.7054
  106SAPE  C21210877   2.515   3.061   3.545  0.4794  0.3900 -0.2209
  106SAPE  H12R10878   2.587   3.000   3.602  0.5248  2.8106  2.5660
  106SAPE  C21310879   2.431   3.150   3.631 -0.5048 -0.0507 -0.3003
  106SAPE  H13R10880   2.360   3.207   3.567  0.3125  0.3615 -0.8529
  106SAPE  H13S10881   2.495   3.233   3.667  2.2043 -0.7892 -2.9969
  106SAPE  C21410882   2.353   3.077   3.740  0.3656  0.0914 -0.0661
  106SAPE  H14R10883   2.274   3.009   3.708  1.0870 -0.9917  0.3790
  106SAPE  C21510884   2.388   3.091   3.869 -0.4808  0.3506  0.2312
  106SAPE  H15R10885   2.323   3.041   3.943 -1.7770  0.3094 -0.9077
  106SAPE  C21610886   2.498   3.175   3.937  0.9176 -0.4128  0.5596
  106SAPE  H16R10887   2.550   3.247   3.869  0.8963  0.7973  1.7796
  106SAPE  H16S10888   2.580   3.103   3.961  0.8238  0.2758  3.2820
  106SAPE  C21710889   2.431   3.243   4.052 -1.2959 -0.3011  0.4319
  106SAPE  H17R10890   2.395   3.166   4.124  0.0675 -2.6586 -1.2902
  106SAPE  H17S10891   2.351   3.308   4.010 -0.3298 -0.2509 -1.4195
  106SAPE  C21810892   2.537   3.333   4.114 -0.6159 -0.6804  0.3415
  106SAPE  H18R10893   2.607   3.367   4.035 -0.8569 -2.2222 -0.5795
  106SAPE  H18S10894   2.598   3.262   4.175 -0.1646 -2.1402 -1.6957
  106SAPE  C21910895   2.497   3.450   4.206 -0.0528 -0.1185 -0.3344
  106SAPE  H19R10896   2.462   3.528   4.135  0.8538 -0.8664 -1.6344
  106SAPE  H19S10897   2.594   3.484   4.248 -0.6545  0.9823  0.2295
  106SAPE  C22010898   2.395   3.420   4.319  0.1099 -0.2345 -0.2312
  106SAPE  H20R10899   2.427   3.339   4.389 -0.6802  1.3611  2.0885
  106SAPE  H20S10900   2.300   3.380   4.277  0.6755 -2.0297  0.0937
  106SAPE  H20T10901   2.385   3.514   4.377  0.1785  0.5993 -1.5380
  106SAPE   C3310902   2.056   3.370   2.750 -0.3147  0.3592 -0.4146
  106SAPE   H3X10903   1.963   3.415   2.790 -0.0040  2.0477 -1.4898
  106SAPE   H3Y10904   2.139   3.426   2.799  1.8839 -2.4361 -0.7016
  106SAPE   C3410905   2.063   3.221   2.787 -0.2605  0.7961 -0.4513
  106SAPE   H4X10906   2.153   3.165   2.754  1.3015  2.5278  0.6627
  106SAPE   H4Y10907   1.969   3.183   2.741 -1.7164  1.1125  2.0627
  106SAPE   C3510908   2.050   3.207   2.935 -0.1944  0.2322 -0.0608
  106SAPE   H5X10909   1.947   3.242   2.960 -0.8890 -0.1463 -2.1998
  106SAPE   H5Y10910   2.129   3.263   2.990 -2.1870  2.9618  0.2597
  106SAPE   C3610911   2.052   3.057   2.985 -0.3157  0.3966  0.3277
  106SAPE   H6X10912   2.144   3.002   2.960 -0.0553  0.2704  1.4991
  106SAPE   H6Y10913   1.967   2.997   2.945 -1.6380  2.1598  0.3560
  106SAPE   C3710914   2.042   3.052   3.141  0.7039 -0.1446 -0.3280
  106SAPE   H7X10915   1.969   3.126   3.178 -0.8608 -1.0830 -1.4232
  106SAPE   H7Y10916   2.148   3.075   3.167  0.7798 -0.2160 -0.5755
  106SAPE   C3810917   1.995   2.924   3.202 -0.0736  0.0571 -0.5437
  106SAPE   H8X10918   2.055   2.836   3.169 -0.8259 -0.5930 -0.2271
  106SAPE   H8Y10919   1.890   2.890   3.188  0.6668 -2.4413 -0.4932
  106SAPE   C3910920   2.012   2.933   3.355  0.2554  0.4764 -0.4813
  106SAPE   H9X10921   1.954   3.019   3.394  0.5269 -0.0735  1.1762
  106SAPE   H9Y10922   2.117   2.956   3.382  0.2015 -0.0407  0.1910
  106SAPE  C31010923   1.966   2.805   3.416  1.0172 -0.6848 -0.0296
  106SAPE  H10X10924   1.987   2.727   3.340  1.1011 -1.1277  0.4424
  106SAPE  H10Y10925   1.856   2.794   3.427  0.9540  1.2536  2.2449
  106SAPE  C31110926   2.012   2.768   3.567  0.2930  0.1440 -0.0502
  106SAPE  H11X10927   2.050   2.863   3.611  1.2781  0.0649 -0.7012
  106SAPE  H11Y10928   2.095   2.697   3.545 -0.2570  0.1814 -2.4098
  106SAPE  C31210929   1.907   2.691   3.654 -0.0132 -0.2008  0.4424
  106SAPE  H12X10930   1.882   2.597   3.601  0.1862  0.3536 -0.6624
  106SAPE  H12Y10931   1.820   2.760   3.662  1.1686  2.3052 -4.5813
  106SAPE  C31310932   1.966   2.645   3.797 -0.3986  0.4807  0.1206
  106SAPE  H13X10933   2.057   2.587   3.772 -0.5386  0.2092  0.2433
  106SAPE  H13Y10934   1.891   2.581   3.847 -0.6098  0.4299 -0.2566
  106SAPE  C31410935   2.021   2.765   3.883 -0.0953  0.2592 -0.0433
  106SAPE  H14X10936   2.097   2.828   3.832  0.9275 -0.2857  0.7606
  106SAPE  H14Y10937   2.085   2.713   3.957  1.1465  0.7602 -0.7431
  106SAPE  C31510938   1.920   2.845   3.952  0.3232 -0.8382 -0.5341
  106SAPE  H15X10939   1.854   2.775   4.007  1.1101 -0.7090  0.6061
  106SAPE  H15Y10940   1.849   2.882   3.875 -0.4971 -2.6108 -0.6866
  106SAPE  C31610941   1.976   2.963   4.038  0.8512 -0.7944 -0.3119
  106SAPE  H16X10942   1.896   3.000   4.105  1.4198 -0.6992  0.3251
  106SAPE  H16Y10943   2.014   3.054   3.986  1.3608 -0.7093  0.2064
  106SAPE  C31710944   2.092   2.928   4.129 -0.0466 -0.3239  0.2388
  106SAPE  H17X10945   2.121   3.028   4.166  1.2123 -0.1447 -1.1511
  106SAPE  H17Y10946   2.181   2.884   4.079  0.6482 -0.0851  1.2341
  106SAPE  C31810947   2.059   2.839   4.251  0.7558  0.3841 -0.1318
  106SAPE  H18X10948   1.982   2.889   4.313  0.7924  1.3370 -0.8202
  106SAPE  H18Y10949   2.149   2.845   4.315  1.3655  3.3285 -1.1144
  106SAPE  H18Z10950   2.036   2.732   4.231  0.6724  0.6099 -1.3617
  107SAPE     N10951   2.099   1.654   2.557 -0.5721  0.0703  0.5238
  107SAPE   HN110952   2.096   1.552   2.539  1.0605  0.3498 -1.7572
  107SAPE   HN210953   2.150   1.669   2.646 -0.1909  1.5366  0.0881
  107SAPE   HN310954   2.002   1.688   2.573 -1.4867 -2.8575  1.8774
  107SAPE   C1210955   2.146   1.710   2.427  0.2055  0.0907 -0.4357
  107SAPE  H12A10956   2.150   1.821   2.432 -1.8510  0.2310 -0.8515
  107SAPE  H12B10957   2.081   1.679   2.342  1.0569  0.2265 -1.1583
  107SAPE   C1110958   2.283   1.653   2.392  0.4615 -0.2023 -0.2759
  107SAPE  H11A10959   2.296   1.643   2.282 -1.7277  1.2026 -0.7133
  107SAPE  H11B10960   2.296   1.548   2.428  1.6759  0.0428  0.0538
  107SAPE     P10961   2.536   1.718   2.424 -0.2055  0.3999  0.3409
  107SAPE   O1310962   2.540   1.609   2.316 -0.8707 -0.3691 -0.0137
  107SAPE   O1410963   2.611   1.846   2.398  0.2083  0.2858  0.6798
  107SAPE   O1210964   2.385   1.742   2.443  0.9246 -0.2324  0.4059
  107SAPE   O1110965   2.568   1.659   2.564 -0.0526 -0.0538  0.1123
  107SAPE    C110966   2.510   1.552   2.633  0.0572  0.4786  0.0893
  107SAPE    HA10967   2.402   1.548   2.609 -0.1063  2.7527  0.2601
  107SAPE    HB10968   2.539   1.452   2.594 -0.0702 -0.2911  1.8388
  107SAPE    C210969   2.509   1.564   2.787  0.2086  0.8861 -0.2855
  107SAPE    HS10970   2.448   1.480   2.828  0.1639  1.8330  1.7150
  107SAPE   O2110971   2.442   1.684   2.841  0.0367  0.2707 -0.1399
  107SAPE   C2110972   2.309   1.694   2.835 -0.7611  0.1626 -0.5388
  107SAPE   O2210973   2.234   1.608   2.795 -0.5244  0.2071 -0.1800
  107SAPE   C2210974   2.260   1.823   2.886 -0.2147 -1.0557  0.0160
  107SAPE   H2R10975   2.284   1.900   2.808  0.5760 -1.3537 -0.0450
  107SAPE   H2S10976   2.151   1.815   2.904 -0.6266  1.4236 -0.9323
  107SAPE    C310977   2.652   1.551   2.845  0.0881  0.2891  0.8024
  107SAPE    HX10978   2.713   1.628   2.794 -0.0860 -0.7917 -1.1368
  107SAPE    HY10979   2.694   1.453   2.814  1.6145  1.4033 -0.8386
  107SAPE   O3110980   2.639   1.559   2.985 -0.3502  0.6639  0.4809
  107SAPE   C3110981   2.673   1.671   3.035 -0.2367 -0.6898 -0.3758
  107SAPE   O3210982   2.697   1.779   2.979 -0.5398 -0.0508 -0.3921
  107SAPE   C3210983   2.675   1.659   3.197  0.2913 -0.1647  0.7057
  107SAPE   H2X10984   2.761   1.597   3.228 -0.7072 -2.5896 -1.0902
  107SAPE   H2Y10985   2.578   1.609   3.218 -0.0541 -0.2542 -0.9111
  107SAPE   C2310986   2.309   1.855   3.027 -0.6365  0.1490  0.2636
  107SAPE   H3R10987   2.420   1.857   3.021 -0.6769  1.1162 -0.3745
  107SAPE   H3S10988   2.279   1.771   3.092 -0.8569  0.4533  0.5570
  107SAPE   C2410989   2.257   1.988   3.083  0.7388 -0.5934 -0.2038
  107SAPE   H4R10990   2.146   1.983   3.076  0.7386  1.1013 -3.1278
  107SAPE   H4S10991   2.292   2.060   3.006 -1.7284 -1.2361 -2.0714
  107SAPE   C2510992   2.315   2.029   3.210  0.1866  0.3191 -0.5626
  107SAPE   H5R10993   2.402   2.096   3.200  1.6554 -1.8090 -3.0547
  107SAPE   C2610994   2.282   1.996   3.337  0.2888 -0.3424 -0.6100
  107SAPE   H6R10995   2.346   2.030   3.419 -0.3770  0.4368 -0.3960
  107SAPE   C2710996   2.170   1.903   3.385 -0.9339 -0.0969  0.5190
  107SAPE   H7R10997   2.111   1.867   3.297  1.0040 -3.7297  0.5133
  107SAPE   H7S10998   2.095   1.959   3.444 -1.6790  0.1331 -0.6153
  107SAPE   C2810999   2.228   1.789   3.459 -0.3949 -0.2710 -0.4212
  107SAPE   H8R11000   2.268   1.719   3.384  0.0363  1.2995 -1.7146
  107SAPE   C2911001   2.241   1.764   3.588  0.4966  0.7467 -0.6663
  107SAPE   H9R11002   2.289   1.669   3.616 -2.3879 -0.2640  1.3062
  107SAPE  C21011003   2.189   1.846   3.707 -0.0992  0.1066  0.1449
  107SAPE  H10R11004   2.094   1.890   3.670  0.0160 -1.0368 -1.6432
  107SAPE  H10S11005   2.256   1.933   3.726 -0.6224  0.5269  0.0670
  107SAPE  C21111006   2.146   1.764   3.833 -0.1393 -0.5709  0.1524
  107SAPE  H11R11007   2.146   1.655   3.821 -0.9189 -0.5807  0.1925
  107SAPE  C21211008   2.109   1.817   3.952 -0.3864  0.4208 -0.1142
  107SAPE  H12R11009   2.094   1.754   4.041  2.5877 -0.4267 -0.1072
  107SAPE  C21311010   2.108   1.960   3.992  0.1741  0.3172  0.6197
  107SAPE  H13R11011   2.015   1.991   4.045  0.3693  0.5315  0.8449
  107SAPE  H13S11012   2.093   2.026   3.903 -1.3934  0.6575  1.1060
  107SAPE  C21411013   2.227   2.010   4.067 -0.4549  0.3510 -0.0439
  107SAPE  H14R11014   2.304   2.063   4.009 -0.7164  1.1711  0.3323
  107SAPE  C21511015   2.255   1.988   4.196 -0.1700  0.4867  0.1231
  107SAPE  H15R11016   2.343   2.031   4.246  0.4970 -1.6403  0.8586
  107SAPE  C21611017   2.165   1.913   4.296 -0.4949 -0.1764 -0.0942
  107SAPE  H16R11018   2.091   1.852   4.240 -1.3893  2.7771 -2.4207
  107SAPE  H16S11019   2.105   1.984   4.357  1.6214  0.4244  1.4206
  107SAPE  C21711020   2.254   1.827   4.397  0.0352  0.4266  0.1645
  107SAPE  H17R11021   2.304   1.742   4.346 -1.3910 -0.4013  0.0857
  107SAPE  H17S11022   2.185   1.777   4.468  1.0469  2.4210  2.7396
  107SAPE  C21811023   2.345   1.902   4.487 -0.3988  0.0691 -0.1014
  107SAPE  H18R11024   2.279   1.959   4.556  1.0447  1.3927  0.2167
  107SAPE  H18S11025   2.409   1.969   4.426 -1.9028  2.0096  0.3610
  107SAPE  C21911026   2.430   1.818   4.574 -0.8329  0.4711 -0.4073
  107SAPE  H19R11027   2.493   1.880   4.641 -0.2926 -0.2574 -0.2254
  107SAPE  H19S11028   2.495   1.761   4.504  1.5903  2.4691  0.0618
  107SAPE  C22011029   2.364   1.709   4.664  0.0225 -0.0706 -0.5097
  107SAPE  H20R11030   2.440   1.662   4.729 -1.6816 -2.6425 -0.2152
  107SAPE  H20S11031   2.316   1.625   4.610  0.2831 -0.5660  0.0247
  107SAPE  H20T11032   2.283   1.748   4.730 -1.0288 -3.0759  0.1289
  107SAPE   C3311033   2.698   1.793   3.260 -0.4901 -0.1888 -0.0230
  107SAPE   H3X11034   2.620   1.863   3.223  0.4190  0.0468 -1.5921
  107SAPE   H3Y11035   2.795   1.840   3.232  0.0410 -1.7108 -0.8420
  107SAPE   C3411036   2.686   1.788   3.414 -0.2080 -0.2823 -0.2278
  107SAPE   H4X11037   2.768   1.724   3.452  1.0120  1.7401  0.6905
  107SAPE   H4Y11038   2.588   1.747   3.446 -0.8311  1.7567  0.6601
  107SAPE   C3511039   2.704   1.932   3.470  0.4309  0.2302  0.0138
  107SAPE   H5X11040   2.674   2.008   3.395 -1.6630 -1.2385 -0.7421
  107SAPE   H5Y11041   2.814   1.941   3.484  0.5313 -2.7184  2.1141
  107SAPE   C3611042   2.633   1.976   3.601 -0.1334  0.1035 -0.1451
  107SAPE   H6X11043   2.538   1.920   3.613  0.2320 -0.5766 -0.3774
  107SAPE   H6Y11044   2.607   2.084   3.589  0.3984  0.2513 -0.0049
  107SAPE   C3711045   2.723   1.970   3.722  0.3486 -0.5397 -0.4505
  107SAPE   H7X11046   2.798   2.052   3.719  1.2805 -1.2985  0.9059
  107SAPE   H7Y11047   2.771   1.870   3.720  0.2660 -0.5682 -1.8044
  107SAPE   C3811048   2.638   1.987   3.852  0.5352 -0.2386  0.7797
  107SAPE   H8X11049   2.547   1.924   3.850  1.6384 -1.8845 -0.9235
  107SAPE   H8Y11050   2.592   2.088   3.846 -2.0298 -1.4376 -1.8888
  107SAPE   C3911051   2.723   1.986   3.978  0.4948  0.5730 -0.4686
  107SAPE   H9X11052   2.804   2.061   3.964  0.1813  0.7507 -1.4202
  107SAPE   H9Y11053   2.769   1.885   3.984  0.9665  0.8417  0.8724
  107SAPE  C31011054   2.651   2.022   4.106  0.3687  0.2630  0.0507
  107SAPE  H10X11055   2.708   2.004   4.199  0.0853 -0.6644  0.0528
  107SAPE  H10Y11056   2.551   1.973   4.112 -0.2889  1.7391  2.1686
  107SAPE  C31111057   2.605   2.167   4.097 -0.4968  0.4243 -0.3418
  107SAPE  H11X11058   2.495   2.176   4.110 -0.2373  3.0216  0.6613
  107SAPE  H11Y11059   2.640   2.220   4.005 -0.6328 -0.4073 -0.8807
  107SAPE  C31211060   2.665   2.258   4.206 -0.1156 -0.5784  0.0476
  107SAPE  H12X11061   2.638   2.364   4.183  1.3152 -0.6344 -2.2829
  107SAPE  H12Y11062   2.776   2.249   4.202 -0.1955 -1.9047  0.3966
  107SAPE  C31311063   2.608   2.223   4.341  0.1532 -0.6745  0.1514
  107SAPE  H13X11064   2.678   2.249   4.423  1.0951  0.6775 -1.0342
  107SAPE  H13Y11065   2.595   2.114   4.355  1.3570 -0.8525 -0.0784
  107SAPE  C31411066   2.471   2.290   4.362 -0.3303  0.2315  0.3669
  107SAPE  H14X11067   2.398   2.256   4.285 -0.0856  0.3849  0.0648
  107SAPE  H14Y11068   2.485   2.400   4.353 -4.6711  0.8735 -1.1054
  107SAPE  C31511069   2.420   2.278   4.502  0.2584  0.2923 -0.0211
  107SAPE  H15X11070   2.496   2.296   4.580  0.9590 -2.8647  0.1512
  107SAPE  H15Y11071   2.395   2.171   4.521  2.3568 -0.1935  0.1702
  107SAPE  C31611072   2.309   2.381   4.537 -0.3244  0.6415  0.0913
  107SAPE  H16X11073   2.239   2.373   4.451 -0.0391 -1.7238  0.0174
  107SAPE  H16Y11074   2.348   2.484   4.553 -0.3012  0.5376  0.7366
  107SAPE  C31711075   2.243   2.343   4.669  0.3041  0.3909 -0.5261
  107SAPE  H17X11076   2.194   2.243   4.661  0.5642  0.0219  1.8853
  107SAPE  H17Y11077   2.161   2.413   4.696 -1.6499 -2.1769  0.7358
  107SAPE  C31811078   2.335   2.338   4.788 -0.1797 -0.7040  0.1234
  107SAPE  H18X11079   2.279   2.333   4.884  0.1612 -1.3932  0.2922
  107SAPE  H18Y11080   2.393   2.432   4.800 -0.5741 -0.4976  0.4631
  107SAPE  H18Z11081   2.398   2.247   4.777  0.6610 -0.3592  1.6911
  108SAPE     N11082   3.209   0.611   2.213  0.1024 -0.1886  0.6047
  108SAPE   HN111083   3.106   0.615   2.198 -0.1086  0.4083  1.9822
  108SAPE   HN211084   3.249   0.575   2.125 -2.5203  0.9899 -1.2263
  108SAPE   HN311085   3.225   0.552   2.297  3.0845 -1.0142 -0.4280
  108SAPE   C1211086   3.253   0.754   2.247  0.4294  0.0024 -0.0517
  108SAPE  H12A11087   3.249   0.821   2.158 -1.4381 -0.7944 -0.6159
  108SAPE  H12B11088   3.359   0.737   2.277 -0.4448 -1.5733  2.4694
  108SAPE   C1111089   3.174   0.826   2.359 -0.1078  0.2477 -0.3230
  108SAPE  H11A11090   3.229   0.912   2.403  0.8402  0.0754 -1.1498
  108SAPE  H11B11091   3.164   0.745   2.435  0.1377  0.4914 -0.0291
  108SAPE     P11092   2.945   0.941   2.388 -0.0043 -0.1668 -0.0720
  108SAPE   O1311093   3.006   1.070   2.429  0.4950 -0.0851  0.2125
  108SAPE   O1411094   2.819   0.945   2.320  0.6112  0.7914  0.1343
  108SAPE   O1211095   3.049   0.875   2.295 -0.9030  0.0611  0.0298
  108SAPE   O1111096   2.937   0.848   2.510  0.3699 -0.1012 -0.4131
  108SAPE    C111097   2.927   0.912   2.642 -0.3514 -1.0134  0.0075
  108SAPE    HA11098   2.961   0.836   2.715  0.3640 -0.6236  0.0907
  108SAPE    HB11099   2.992   1.001   2.657 -1.1094 -0.9289  3.8767
  108SAPE    C211100   2.781   0.941   2.676 -0.0005  0.1422 -0.0109
  108SAPE    HS11101   2.726   0.998   2.599 -1.6900 -0.8195  0.4121
  108SAPE   O2111102   2.769   1.010   2.805  0.0941  0.2189  0.1714
  108SAPE   C2111103   2.650   1.066   2.834 -0.3034  0.6481  0.2384
  108SAPE   O2211104   2.557   1.071   2.755 -0.9994  0.0680  0.7123
  108SAPE   C2211105   2.630   1.071   2.987 -0.6151 -0.4370  0.5128
  108SAPE   H2R11106   2.537   1.012   3.002 -0.9484  0.1497  0.7818
  108SAPE   H2S11107   2.708   1.012   3.040  0.7218  0.7930 -0.0187
  108SAPE    C311108   2.699   0.815   2.676 -0.2296 -0.3400  0.1242
  108SAPE    HX11109   2.723   0.772   2.576 -1.1306  2.1028 -1.2277
  108SAPE    HY11110   2.591   0.834   2.686 -0.6587 -2.0632 -0.8103
  108SAPE   O3111111   2.752   0.712   2.764 -0.1116  0.3935 -0.4939
  108SAPE   C3111112   2.684   0.702   2.875  0.1820 -0.0739 -0.4800
  108SAPE   O3211113   2.578   0.763   2.896 -0.4131 -0.2041  0.3974
  108SAPE   C3211114   2.753   0.609   2.970  0.5984  0.9356  0.5835
  108SAPE   H2X11115   2.846   0.656   3.012  0.8888  0.3502  0.6000
  108SAPE   H2Y11116   2.780   0.513   2.922 -0.6266 -0.1885  2.0669
  108SAPE   C2311117   2.616   1.221   3.046  0.2771 -0.2561 -0.3513
  108SAPE   H3R11118   2.545   1.281   2.985  0.4275  1.6952  1.3007
  108SAPE   H3S11119   2.715   1.272   3.043  1.1830 -1.7971  1.1571
  108SAPE   C2411120   2.552   1.223   3.185  0.0868  0.3187  0.2458
  108SAPE   H4R11121   2.555   1.325   3.231 -0.5700  0.6175 -0.3579
  108SAPE   H4S11122   2.621   1.156   3.242  2.2842  1.0604 -1.4181
  108SAPE   C2511123   2.412   1.168   3.188  0.4398 -0.0638 -0.0293
  108SAPE   H5R11124   2.389   1.070   3.145  2.0450 -0.4948  0.0304
  108SAPE   C2611125   2.303   1.236   3.237 -0.2964  0.0645  0.6221
  108SAPE   H6R11126   2.205   1.193   3.214  0.0947 -1.4143  1.5902
  108SAPE   C2711127   2.302   1.375   3.295  0.4427 -0.3097  0.3710
  108SAPE   H7R11128   2.296   1.451   3.214  1.2891 -1.5067 -0.8709
  108SAPE   H7S11129   2.402   1.395   3.339  0.5328 -0.4503  0.2303
  108SAPE   C2811130   2.176   1.414   3.379  0.5482 -0.4956 -0.1879
  108SAPE   H8R11131   2.113   1.496   3.342 -0.3057  0.2865  2.7733
  108SAPE   C2911132   2.135   1.370   3.502  0.1329  0.2181  0.0491
  108SAPE   H9R11133   2.040   1.410   3.542  0.7221  0.4411  1.2760
  108SAPE  C21011134   2.201   1.250   3.570  0.4671 -0.2939  0.7834
  108SAPE  H10R11135   2.277   1.291   3.640  0.8791 -0.5999  0.5164
  108SAPE  H10S11136   2.255   1.194   3.491 -0.6298 -0.1820 -0.0767
  108SAPE  C21111137   2.104   1.153   3.646 -1.0344  0.0132  0.2102
  108SAPE  H11R11138   2.046   1.079   3.589  1.1724  0.7863 -3.3151
  108SAPE  C21211139   2.077   1.169   3.778 -0.3107 -0.0795 -0.1342
  108SAPE  H12R11140   1.999   1.110   3.828 -0.8582  0.8622  0.1611
  108SAPE  C21311141   2.125   1.283   3.870  0.3205 -0.0193 -0.2042
  108SAPE  H13R11142   2.061   1.368   3.841 -1.3520 -0.9805  0.5453
  108SAPE  H13S11143   2.230   1.320   3.870  0.6089 -0.7502 -1.8249
  108SAPE  C21411144   2.113   1.250   4.017 -0.3626 -0.4831  0.1949
  108SAPE  H14R11145   2.162   1.157   4.047 -0.5766 -0.7003 -0.1216
  108SAPE  C21511146   2.041   1.318   4.111  0.5360 -0.0598  0.1464
  108SAPE  H15R11147   2.039   1.278   4.213 -0.8174  0.2843  0.2828
  108SAPE  C21611148   1.984   1.452   4.100  1.0372 -0.1477  0.5022
  108SAPE  H16R11149   1.879   1.466   4.068  0.8199 -0.0307  1.2463
  108SAPE  H16S11150   2.040   1.519   4.031  1.5524  1.5031  2.4299
  108SAPE  C21711151   2.002   1.518   4.242 -0.4962  0.1665 -0.8890
  108SAPE  H17R11152   1.983   1.627   4.231  2.0032  0.8084  0.2566
  108SAPE  H17S11153   2.109   1.513   4.271 -0.3733 -1.1946 -1.5016
  108SAPE  C21811154   1.905   1.476   4.349 -0.3898  0.3098 -0.3287
  108SAPE  H18R11155   1.910   1.365   4.360 -1.6232  0.4008  1.7778
  108SAPE  H18S11156   1.803   1.501   4.314 -0.0856  2.7275  0.3337
  108SAPE  C21911157   1.924   1.546   4.481  0.6425  0.0001  0.2538
  108SAPE  H19R11158   1.884   1.650   4.478  0.4730 -0.0600  0.3691
  108SAPE  H19S11159   2.030   1.554   4.512  0.1837 -0.8463  2.1758
  108SAPE  C22011160   1.864   1.481   4.610  0.3486 -0.0578  0.9751
  108SAPE  H20R11161   1.896   1.377   4.630 -0.5607 -0.4647  0.3727
  108SAPE  H20S11162   1.753   1.485   4.607  0.3273  1.4638  2.4541
  108SAPE  H20T11163   1.884   1.538   4.703 -1.1287  0.9937  0.6957
  108SAPE   C3311164   2.670   0.572   3.103  0.0824  0.8411  0.4303
  108SAPE   H3X11165   2.736   0.492   3.144 -1.0494 -0.3848 -0.0563
  108SAPE   H3Y11166   2.572   0.532   3.069  1.0341 -0.5197 -0.8548
  108SAPE   C3411167   2.663   0.682   3.211  0.0881 -0.5644 -0.1696
  108SAPE   H4X11168   2.598   0.644   3.293 -0.3208  1.7732  0.6456
  108SAPE   H4Y11169   2.600   0.763   3.169 -0.9684 -1.1797  0.1940
  108SAPE   C3511170   2.793   0.742   3.264  0.3856  0.5464  0.2600
  108SAPE   H5X11171   2.871   0.665   3.243 -0.7646 -1.0418  1.5882
  108SAPE   H5Y11172   2.825   0.826   3.199  2.6040 -2.1270 -2.4051
  108SAPE   C3611173   2.780   0.781   3.408  0.4455  0.0928 -0.4102
  108SAPE   H6X11174   2.873   0.781   3.469 -0.7093 -1.8723  1.5330
  108SAPE   H6Y11175   2.711   0.704   3.451  1.4397 -0.0117  1.0771
  108SAPE   C3711176   2.720   0.923   3.423  0.3851  0.0175 -0.8943
  108SAPE   H7X11177   2.644   0.940   3.344 -0.1889  1.3503 -0.0962
  108SAPE   H7Y11178   2.798   1.002   3.416  0.1761  0.3725  0.5166
  108SAPE   C3811179   2.658   0.948   3.570  0.3309 -0.3652 -0.5568
  108SAPE   H8X11180   2.740   0.953   3.645 -0.6475 -1.2888  0.5969
  108SAPE   H8Y11181   2.595   0.857   3.579  0.2109 -1.0282 -5.3550
  108SAPE   C3911182   2.579   1.076   3.589  0.0367 -0.1973 -0.1461
  108SAPE   H9X11183   2.501   1.074   3.668  1.4643 -0.8585  1.3204
  108SAPE   H9Y11184   2.519   1.096   3.498 -1.5865  0.1326  0.9432
  108SAPE  C31011185   2.659   1.202   3.622 -0.6745  0.0492 -0.2051
  108SAPE  H10X11186   2.737   1.198   3.544 -1.0020  1.5349 -0.6482
  108SAPE  H10Y11187   2.706   1.194   3.722 -2.3250  0.2490  0.6335
  108SAPE  C31111188   2.585   1.330   3.602  0.0040 -0.1374 -0.0003
  108SAPE  H11X11189   2.495   1.320   3.667  1.1948 -0.7178  1.6000
  108SAPE  H11Y11190   2.552   1.347   3.497 -1.3283  1.0718  0.5720
  108SAPE  C31211191   2.657   1.457   3.657  0.3126  0.2949 -0.2053
  108SAPE  H12X11192   2.740   1.472   3.584 -0.8559 -0.8956 -1.8470
  108SAPE  H12Y11193   2.700   1.430   3.756 -0.9134 -0.0120  0.2587
  108SAPE  C31311194   2.562   1.580   3.664  0.0258  0.2504  0.0696
  108SAPE  H13X11195   2.485   1.579   3.584 -0.0390 -0.5122  0.1396
  108SAPE  H13Y11196   2.630   1.668   3.658  0.9914 -0.5543 -1.1790
  108SAPE  C31411197   2.481   1.582   3.796 -0.3690 -0.5581 -0.0145
  108SAPE  H14X11198   2.421   1.490   3.777 -0.6943 -0.1444 -1.0682
  108SAPE  H14Y11199   2.405   1.663   3.794 -0.3639 -0.5241  0.7152
  108SAPE  C31511200   2.545   1.581   3.928 -0.5308  0.0962 -0.0713
  108SAPE  H15X11201   2.621   1.663   3.931  0.1818 -0.4845 -1.4570
  108SAPE  H15Y11202   2.592   1.481   3.939 -1.1255 -0.2649 -0.7312
  108SAPE  C31611203   2.453   1.603   4.041 -0.1249 -0.0032  0.9989
  108SAPE  H16X11204   2.362   1.549   4.008  1.6266 -1.5089 -1.7120
  108SAPE  H16Y11205   2.421   1.709   4.052  2.3160  0.8385  0.7145
  108SAPE  C31711206   2.516   1.564   4.175 -0.1716  0.2628 -0.1361
  108SAPE  H17X11207   2.588   1.480   4.158 -0.1190  0.1580  0.5954
  108SAPE  H17Y11208   2.439   1.532   4.248 -1.1895  1.2228 -0.7563
  108SAPE  C31811209   2.599   1.673   4.237 -0.0355 -0.0654 -0.1832
  108SAPE  H18X11210   2.616   1.669   4.346 -2.6660  0.0393  0.3136
  108SAPE  H18Y11211   2.546   1.769   4.221 -0.9532 -0.3552  0.9439
  108SAPE  H18Z11212   2.701   1.683   4.196 -0.4374  0.4632 -1.0893
  109SAPE     N11213   1.752   4.966   1.779 -0.3209  0.2222  0.1451
  109SAPE   HN111214   1.691   5.047   1.801 -0.0021  0.7960 -1.0118
  109SAPE   HN211215   1.833   5.015   1.738 -0.0513 -1.4610 -1.4788
  109SAPE   HN311216   1.698   4.906   1.714 -0.1421  1.6259 -1.3484
  109SAPE   C1211217   1.798   4.882   1.901  0.0599 -0.1091  0.1763
  109SAPE  H12A11218   1.854   4.795   1.859  1.1914  0.1022  1.2102
  109SAPE  H12B11219   1.708   4.840   1.952 -1.5242 -0.1817 -2.4594
  109SAPE   C1111220   1.898   4.969   1.978  0.5001 -0.3664 -0.3439
  109SAPE  H11A11221   1.930   4.919   2.072 -0.3923  0.2562  0.3086
  109SAPE  H11B11222   1.832   5.053   2.010 -1.5778 -2.1625  0.2982
  109SAPE     P11223   2.095   5.134   1.939  0.2626  0.1195  0.2413
  109SAPE   O1311224   2.227   5.118   1.876  0.5495  0.2477  0.0637
  109SAPE   O1411225   2.019   5.255   1.911 -1.1333  0.1710  0.2046
  109SAPE   O1211226   2.015   5.001   1.900 -0.6555 -0.7433 -0.2191
  109SAPE   O1111227   2.110   5.116   2.093 -0.0042 -0.3790 -0.1659
  109SAPE    C111228   2.198   5.198   2.165  0.1622 -0.5894 -0.1579
  109SAPE    HA11229   2.260   5.143   2.239 -1.4002  0.2752  1.8828
  109SAPE    HB11230   2.275   5.242   2.097 -0.5133  2.2478  0.7774
  109SAPE    C211231   2.127   5.300   2.248 -0.0968  0.0805  0.0749
  109SAPE    HS11232   2.084   5.390   2.198  1.8130  0.2097 -1.4129
  109SAPE   O2111233   2.213   5.343   2.353 -1.1150  0.0821 -0.3190
  109SAPE   C2111234   2.292   5.449   2.319  0.3638  0.6438 -0.7291
  109SAPE   O2211235   2.306   5.499   2.213  0.2128 -0.5455  0.6127
  109SAPE   C2211236   2.390   5.480   2.436 -0.0687  0.4655  0.1540
  109SAPE   H2R11237   2.372   5.427   2.532 -1.0425 -0.9160 -0.7626
  109SAPE   H2S11238   2.478   5.458   2.371 -1.7661 -0.3073 -1.9906
  109SAPE    C311239   2.006   5.218   2.311  0.5405 -1.0153  0.1286
  109SAPE    HX11240   2.046   5.117   2.332  2.6255  0.1647  2.2257
  109SAPE    HY11241   1.929   5.214   2.230 -0.5579  2.0663  0.8797
  109SAPE   O3111242   1.947   5.273   2.430  0.1306  0.5892  0.4227
  109SAPE   C3111243   1.875   5.382   2.417 -0.0884  0.8627 -0.7948
  109SAPE   O3211244   1.851   5.442   2.314 -0.3646  0.2711  0.5185
  109SAPE   C3211245   1.809   5.411   2.548  0.4839 -1.1385  0.0494
  109SAPE   H2X11246   1.813   5.522   2.554 -0.0832 -0.9703 -1.8135
  109SAPE   H2Y11247   1.870   5.384   2.636  2.7595  2.6921 -0.1199
  109SAPE   C2311248   2.394   5.629   2.476  0.6335  0.6601 -0.2048
  109SAPE   H3R11249   2.413   5.689   2.384  1.6769 -1.7334 -1.6600
  109SAPE   H3S11250   2.464   5.641   2.561 -0.6917 -2.5977  1.5466
  109SAPE   C2411251   2.252   5.656   2.529  0.3062  0.5834  0.1669
  109SAPE   H4R11252   2.233   5.591   2.618 -2.0263 -1.0320 -1.4005
  109SAPE   H4S11253   2.173   5.620   2.459  1.1281 -1.1106  0.0547
  109SAPE   C2511254   2.229   5.800   2.560 -0.4325  0.1543 -0.2832
  109SAPE   H5R11255   2.184   5.867   2.484 -1.6777 -0.5508 -0.2032
  109SAPE   C2611256   2.237   5.855   2.686 -0.5250 -0.5322  0.3818
  109SAPE   H6R11257   2.211   5.960   2.702 -0.7784 -0.4712 -0.3911
  109SAPE   C2711258   2.283   5.790   2.814 -0.3772  0.5887 -0.2417
  109SAPE   H7R11259   2.345   5.701   2.796  1.3727  1.4530  1.1755
  109SAPE   H7S11260   2.191   5.750   2.863  2.1468 -3.2267  1.8935
  109SAPE   C2811261   2.358   5.875   2.911  0.2751 -0.6101 -0.4171
  109SAPE   H8R11262   2.380   5.979   2.884 -1.7023 -0.0777 -0.1396
  109SAPE   C2911263   2.393   5.835   3.039  0.4572 -0.0990  0.0465
  109SAPE   H9R11264   2.427   5.916   3.105 -2.0440  0.4123  0.7880
  109SAPE  C21011265   2.360   5.695   3.091  0.1646  0.5257  0.3732
  109SAPE  H10R11266   2.308   5.633   3.015  0.4398  0.9795 -0.1897
  109SAPE  H10S11267   2.288   5.709   3.175  0.7256 -0.4815  1.0576
  109SAPE  C21111268   2.474   5.613   3.152 -0.5135  0.3204  0.8130
  109SAPE  H11R11269   2.524   5.561   3.069  0.1490  0.9846  0.7887
  109SAPE  C21211270   2.523   5.614   3.276 -0.4115  0.5022  0.0095
  109SAPE  H12R11271   2.618   5.560   3.290  1.1760  2.5862 -1.8666
  109SAPE  C21311272   2.478   5.696   3.393  0.3107  0.1857  0.2668
  109SAPE  H13R11273   2.415   5.635   3.461  0.4867 -0.0978  0.1783
  109SAPE  H13S11274   2.407   5.776   3.365  1.3854  1.3463  0.7706
  109SAPE  C21411275   2.594   5.746   3.478  0.0903  0.1659 -0.5638
  109SAPE  H14R11276   2.627   5.660   3.538 -1.3975 -1.2430 -1.6769
  109SAPE  C21511277   2.630   5.875   3.504  0.1632  0.2661 -0.1019
  109SAPE  H15R11278   2.714   5.886   3.574  0.7215 -0.7818 -0.5705
  109SAPE  C21611279   2.580   6.001   3.438 -0.3600  0.9535 -0.4516
  109SAPE  H16R11280   2.522   5.963   3.352  1.8575 -0.8053 -1.2699
  109SAPE  H16S11281   2.657   6.067   3.393  0.6659  0.0862 -0.0147
  109SAPE  C21711282   2.482   6.074   3.533  0.0712  0.3183  0.1650
  109SAPE  H17R11283   2.453   6.173   3.491 -0.6947  0.6496  1.4027
  109SAPE  H17S11284   2.531   6.104   3.628  0.6756  0.5374 -0.2124
  109SAPE  C21811285   2.353   6.002   3.578  0.3285 -0.3863 -0.4674
  109SAPE  H18R11286   2.372   5.905   3.629  2.2309 -0.1726 -0.6991
  109SAPE  H18S11287   2.294   6.000   3.484 -1.2479  1.5622  0.4123
  109SAPE  C21911288   2.280   6.092   3.679  0.0689  0.5559 -0.3004
  109SAPE  H19R11289   2.249   6.191   3.638  1.7773  1.0361 -0.4944
  109SAPE  H19S11290   2.340   6.109   3.771 -3.1695 -0.7804  2.2416
  109SAPE  C22011291   2.156   6.011   3.732 -0.4940 -0.0569  0.3242
  109SAPE  H20R11292   2.107   6.069   3.813 -1.2088 -1.4286  0.9230
  109SAPE  H20S11293   2.191   5.913   3.772  1.4729 -0.4274 -2.0237
  109SAPE  H20T11294   2.086   5.983   3.650  1.0207 -1.0655 -0.6854
  109SAPE   C3311295   1.660   5.364   2.568 -0.0487 -0.1258  0.7764
  109SAPE   H3X11296   1.607   5.347   2.472  0.7259 -0.7090  0.4422
  109SAPE   H3Y11297   1.615   5.443   2.631 -0.0029 -0.2949  1.0243
  109SAPE   C3411298   1.657   5.234   2.644  0.4016  0.6510 -0.0761
  109SAPE   H4X11299   1.698   5.251   2.746 -4.2399  1.0711  1.9719
  109SAPE   H4Y11300   1.731   5.162   2.604  0.8519  1.1706 -0.1952
  109SAPE   C3511301   1.515   5.169   2.672  0.1056 -0.5268  0.0906
  109SAPE   H5X11302   1.464   5.170   2.573 -2.3325  0.0969  1.2703
  109SAPE   H5Y11303   1.460   5.241   2.736  0.2482 -0.2964 -0.0459
  109SAPE   C3611304   1.512   5.034   2.742  0.1954  0.2483 -0.2185
  109SAPE   H6X11305   1.558   4.968   2.665 -2.1405  0.1835 -1.6472
  109SAPE   H6Y11306   1.413   4.987   2.761 -1.2008  2.1197 -2.3692
  109SAPE   C3711307   1.597   5.010   2.871 -0.3998 -0.8172 -0.8243
  109SAPE   H7X11308   1.699   5.053   2.860 -0.9676  0.8992  0.2888
  109SAPE   H7Y11309   1.606   4.900   2.883  0.1585 -0.6326  0.6593
  109SAPE   C3811310   1.536   5.081   2.997  0.0871 -0.0103 -0.0114
  109SAPE   H8X11311   1.429   5.058   3.013  0.3525 -0.7351  0.8379
  109SAPE   H8Y11312   1.554   5.190   2.985  2.3027 -0.3399 -0.1441
  109SAPE   C3911313   1.624   5.037   3.123  0.7497  0.0813 -0.1231
  109SAPE   H9X11314   1.734   5.053   3.116  1.5533 -2.6773  3.2521
  109SAPE   H9Y11315   1.605   4.928   3.137  1.4765  0.1392  1.5719
  109SAPE  C31011316   1.570   5.100   3.255 -0.6338  0.2550 -0.2516
  109SAPE  H10X11317   1.604   5.043   3.344 -0.0287  0.0442 -0.6072
  109SAPE  H10Y11318   1.460   5.113   3.250 -1.0026 -2.0826  0.6482
  109SAPE  C31111319   1.642   5.232   3.268 -0.3062  0.4184 -0.1154
  109SAPE  H11X11320   1.627   5.294   3.177 -1.7325 -0.9604 -0.8688
  109SAPE  H11Y11321   1.751   5.215   3.258 -0.8151 -2.7262 -1.5154
  109SAPE  C31211322   1.605   5.307   3.397 -0.1924 -0.4212 -0.2766
  109SAPE  H12X11323   1.497   5.324   3.417  0.0512 -2.3327  3.5022
  109SAPE  H12Y11324   1.654   5.407   3.398  2.9411 -1.7708 -2.1643
  109SAPE  C31311325   1.648   5.228   3.521  0.5524  0.2813 -0.3854
  109SAPE  H13X11326   1.748   5.184   3.502  0.6176  0.0468  0.4713
  109SAPE  H13Y11327   1.576   5.150   3.556  1.1097  0.4567  1.1998
  109SAPE  C31411328   1.660   5.321   3.643 -0.3473  0.3793 -1.3067
  109SAPE  H14X11329   1.560   5.352   3.681 -0.8584 -1.8691 -0.6892
  109SAPE  H14Y11330   1.703   5.415   3.602 -0.0742 -0.3727 -2.8162
  109SAPE  C31511331   1.751   5.270   3.760 -0.2816 -0.5309 -0.3701
  109SAPE  H15X11332   1.848   5.231   3.720  0.3975 -0.3058  1.0250
  109SAPE  H15Y11333   1.693   5.187   3.806 -0.0071  0.5084  1.9831
  109SAPE  C31611334   1.779   5.376   3.869  0.3983  0.2424  0.4026
  109SAPE  H16X11335   1.683   5.431   3.880  0.0526  0.5551 -3.0273
  109SAPE  H16Y11336   1.851   5.446   3.822  0.8628 -0.2558  0.3742
  109SAPE  C31711337   1.834   5.316   3.994  0.3592 -0.6233  0.1397
  109SAPE  H17X11338   1.870   5.393   4.066 -0.6459 -1.7336  1.9145
  109SAPE  H17Y11339   1.927   5.260   3.973 -0.3110 -1.1550 -1.5455
  109SAPE  C31811340   1.736   5.232   4.081 -0.6768  0.7086 -0.2930
  109SAPE  H18X11341   1.775   5.130   4.102 -1.4928  0.3915 -0.2680
  109SAPE  H18Y11342   1.648   5.192   4.025 -0.4696 -0.4021  0.1386
  109SAPE  H18Z11343   1.701   5.285   4.173  0.3336  1.3302 -0.2601
  110SAPE     N11344   0.252   6.759   2.144  0.0837 -0.8225  0.0689
  110SAPE   HN111345   0.260   6.658   2.168  0.8989 -0.7536  0.1090
  110SAPE   HN211346   0.313   6.783   2.064 -0.6327 -0.8484 -0.4930
  110SAPE   HN311347   0.284   6.821   2.222  3.7152 -0.2108 -1.7299
  110SAPE   C1211348   0.118   6.800   2.103 -0.2633  0.2781 -0.1547
  110SAPE  H12A11349   0.043   6.736   2.155  0.1947 -0.5706 -0.5095
  110SAPE  H12B11350   0.111   6.782   1.993  1.0537  0.5655 -0.3034
  110SAPE   C1111351   0.093   6.942   2.135 -0.9427 -0.0005  0.0178
  110SAPE  H11A11352   0.107   6.971   2.241  0.5764  2.9429 -0.8900
  110SAPE  H11B11353  -0.010   6.963   2.097 -1.0520 -2.4552 -1.2211
  110SAPE     P11354   0.280   7.128   2.090 -0.1602  0.2411 -0.0058
  110SAPE   O1311355   0.388   7.113   1.986 -0.3826 -0.5756 -0.4817
  110SAPE   O1411356   0.212   7.260   2.102  0.3204 -0.4731 -0.6661
  110SAPE   O1211357   0.171   7.023   2.051  0.1757  0.0075  0.2514
  110SAPE   O1111358   0.336   7.071   2.225  0.3191  0.6501  0.2826
  110SAPE    C111359   0.425   7.146   2.320  1.2027 -0.6135  0.3416
  110SAPE    HA11360   0.436   7.252   2.287 -0.3637 -0.6852 -0.5480
  110SAPE    HB11361   0.361   7.163   2.409 -0.1141  0.6672 -0.7863
  110SAPE    C211362   0.560   7.084   2.344 -0.7595  0.5377  0.1173
  110SAPE    HS11363   0.631   7.111   2.263  1.7649 -3.5672  0.6823
  110SAPE   O2111364   0.546   6.936   2.341 -0.5391 -0.2326  0.8448
  110SAPE   C2111365   0.666   6.867   2.339 -0.3055 -0.2638  0.7768
  110SAPE   O2211366   0.775   6.922   2.337 -0.2091  0.3899 -0.1693
  110SAPE   C2211367   0.633   6.718   2.308 -0.0826 -0.7549 -0.7402
  110SAPE   H2R11368   0.553   6.693   2.380  0.7330  0.9967  0.8864
  110SAPE   H2S11369   0.593   6.711   2.204 -1.2946 -0.0152 -0.3415
  110SAPE    C311370   0.633   7.139   2.476 -0.4847  0.6594 -0.1763
  110SAPE    HX11371   0.743   7.124   2.472 -0.4537  1.0598 -1.3074
  110SAPE    HY11372   0.610   7.248   2.471  1.3522  1.0704 -0.7476
  110SAPE   O3111373   0.590   7.074   2.594 -0.2756 -0.6107 -0.4573
  110SAPE   C3111374   0.522   7.150   2.681  0.2753 -0.0677 -0.4044
  110SAPE   O3211375   0.484   7.267   2.671 -0.3030 -0.3632 -0.1944
  110SAPE   C3211376   0.493   7.064   2.805  0.6590 -0.4525  0.1087
  110SAPE   H2X11377   0.569   7.092   2.881 -0.1635  0.2714  0.6755
  110SAPE   H2Y11378   0.517   6.956   2.791  0.4781 -0.5637  0.6277
  110SAPE   C2311379   0.760   6.622   2.320  0.8926 -0.0606 -0.2163
  110SAPE   H3R11380   0.849   6.682   2.293  1.1057 -0.6425 -0.8655
  110SAPE   H3S11381   0.753   6.536   2.249  1.1432 -0.8603  0.7027
  110SAPE   C2411382   0.770   6.554   2.456  0.4643 -0.5464  0.3358
  110SAPE   H4R11383   0.850   6.477   2.451  1.4523  0.3868  1.0742
  110SAPE   H4S11384   0.676   6.500   2.481 -1.3533  1.7460 -1.0676
  110SAPE   C2511385   0.825   6.657   2.555 -0.2963 -0.6378 -0.0236
  110SAPE   H5R11386   0.926   6.692   2.532 -0.0282 -1.6553 -0.4749
  110SAPE   C2611387   0.761   6.712   2.666  0.0904  0.1345 -0.4193
  110SAPE   H6R11388   0.814   6.787   2.727 -0.2976 -0.1715  0.3061
  110SAPE   C2711389   0.621   6.672   2.714 -0.2208 -0.1383 -0.0190
  110SAPE   H7R11390   0.560   6.615   2.640  1.8006 -1.7406 -0.5552
  110SAPE   H7S11391   0.565   6.764   2.742  1.5635  0.0808  3.3719
  110SAPE   C2811392   0.636   6.572   2.830 -0.2488  0.3609 -0.3683
  110SAPE   H8R11393   0.673   6.473   2.800 -1.7411 -0.9533  1.8470
  110SAPE   C2911394   0.626   6.602   2.962  0.2847 -0.3203  0.1451
  110SAPE   H9R11395   0.625   6.521   3.037 -0.0387 -0.5790 -0.1305
  110SAPE  C21011396   0.583   6.731   3.023 -0.3487 -0.2837 -0.4415
  110SAPE  H10R11397   0.478   6.749   2.991 -0.8830  1.0974  1.8483
  110SAPE  H10S11398   0.648   6.808   2.978 -0.3011 -0.6643 -1.0341
  110SAPE  C21111399   0.596   6.739   3.174 -0.2502  0.1610  0.4295
  110SAPE  H11R11400   0.673   6.808   3.211  0.9389  0.5315 -2.4689
  110SAPE  C21211401   0.518   6.695   3.273  0.7598  0.3855 -0.3316
  110SAPE  H12R11402   0.543   6.723   3.377 -2.8637  0.8906  0.5422
  110SAPE  C21311403   0.382   6.618   3.264 -0.0818 -0.1285 -0.0022
  110SAPE  H13R11404   0.395   6.508   3.280 -1.1360  0.0095  2.2793
  110SAPE  H13S11405   0.342   6.640   3.163 -0.8765 -1.2896  0.0338
  110SAPE  C21411406   0.282   6.676   3.361 -0.4668  0.9295  0.0089
  110SAPE  H14R11407   0.204   6.742   3.321 -0.7088  0.4754 -0.2850
  110SAPE  C21511408   0.282   6.642   3.490  0.4207  0.6390 -0.3535
  110SAPE  H15R11409   0.197   6.686   3.544 -0.7454  0.9785 -2.3630
  110SAPE  C21611410   0.380   6.553   3.566  0.8899  0.2637  0.0465
  110SAPE  H16R11411   0.449   6.495   3.502 -1.3060 -3.0268  0.4206
  110SAPE  H16S11412   0.329   6.471   3.622 -0.7416  1.4389  0.3606
  110SAPE  C21711413   0.455   6.624   3.677 -0.4438 -0.1538  0.8717
  110SAPE  H17R11414   0.495   6.715   3.628 -0.9574 -0.8847 -1.0147
  110SAPE  H17S11415   0.549   6.568   3.694 -0.9146 -0.8444  1.2622
  110SAPE  C21811416   0.366   6.657   3.796  0.5076  0.5190  0.2593
  110SAPE  H18R11417   0.335   6.564   3.850  1.7589  0.4986  0.9746
  110SAPE  H18S11418   0.270   6.702   3.761 -0.5160 -1.3414  0.5135
  110SAPE  C21911419   0.438   6.732   3.900 -0.1777  0.3517 -0.1879
  110SAPE  H19R11420   0.544   6.703   3.913  0.4166  2.0751 -0.9005
  110SAPE  H19S11421   0.382   6.727   3.996  0.3926  0.4694  0.1511
  110SAPE  C22011422   0.422   6.876   3.861  0.1596 -0.4370  0.1132
  110SAPE  H20R11423   0.452   6.934   3.951 -0.5113 -2.9462  2.0752
  110SAPE  H20S11424   0.320   6.901   3.827  0.3803  0.0905 -0.1737
  110SAPE  H20T11425   0.494   6.894   3.778 -0.4128  2.6655  0.1674
  110SAPE   C3311426   0.363   7.087   2.885 -0.0888  0.2879  0.0702
  110SAPE   H3X11427   0.277   7.109   2.819  2.1111 -0.4631 -3.2925
  110SAPE   H3Y11428   0.371   7.187   2.934  1.2443  0.1427  0.1875
  110SAPE   C3411429   0.350   6.965   2.973  0.1595 -0.2607 -0.7824
  110SAPE   H4X11430   0.445   6.943   3.025 -0.4981 -0.9123  0.1852
  110SAPE   H4Y11431   0.321   6.885   2.901  0.9090  0.8899 -2.4414
  110SAPE   C3511432   0.243   6.982   3.082 -0.5207  0.0635  0.3605
  110SAPE   H5X11433   0.237   6.884   3.134  1.9169  0.9589  2.5234
  110SAPE   H5Y11434   0.147   7.017   3.038  1.1242  1.1147 -2.6870
  110SAPE   C3611435   0.288   7.091   3.177  0.2853 -0.0711 -0.0810
  110SAPE   H6X11436   0.267   7.187   3.125  0.2357 -0.3538 -0.5926
  110SAPE   H6Y11437   0.396   7.095   3.199  0.3110  3.6991 -0.1528
  110SAPE   C3711438   0.217   7.091   3.313  0.0840 -0.0241  0.3702
  110SAPE   H7X11439   0.261   7.002   3.362  0.9732 -0.1216 -0.5486
  110SAPE   H7Y11440   0.107   7.078   3.313 -0.0474  0.9920  1.2034
  110SAPE   C3811441   0.248   7.208   3.406  0.0685 -0.3145 -0.1802
  110SAPE   H8X11442   0.219   7.298   3.347 -0.2705 -1.9974 -2.7372
  110SAPE   H8Y11443   0.359   7.209   3.419 -0.1382  0.6927  1.8484
  110SAPE   C3911444   0.176   7.210   3.538 -0.6896 -0.5158 -0.5610
  110SAPE   H9X11445   0.197   7.111   3.585  2.0605 -0.4088 -1.3682
  110SAPE   H9Y11446   0.070   7.241   3.533 -0.3660  1.5348  2.7199
  110SAPE  C31011447   0.248   7.313   3.639 -0.0853  0.2830  0.8256
  110SAPE  H10X11448   0.230   7.417   3.604  2.6814 -0.0541 -2.0350
  110SAPE  H10Y11449   0.357   7.301   3.627 -0.1057 -0.0630  0.9643
  110SAPE  C31111450   0.213   7.289   3.787 -0.3102 -0.3046  0.1109
  110SAPE  H11X11451   0.252   7.191   3.820 -0.6463 -0.2343  0.7397
  110SAPE  H11Y11452   0.103   7.293   3.807 -0.1034 -1.1221  1.4775
  110SAPE  C31211453   0.283   7.397   3.873  0.3249 -0.1074  0.1110
  110SAPE  H12X11454   0.390   7.420   3.852  0.1288  0.8545  0.0952
  110SAPE  H12Y11455   0.277   7.356   3.976  1.4454  0.4668  0.4211
  110SAPE  C31311456   0.210   7.532   3.887 -0.0054  0.9054  0.1124
  110SAPE  H13X11457   0.102   7.515   3.909  0.1294 -1.5093 -0.8481
  110SAPE  H13Y11458   0.216   7.591   3.793 -1.3170  1.4259  0.3346
  110SAPE  C31411459   0.283   7.606   3.991 -0.2616  0.4117  0.1769
  110SAPE  H14X11460   0.317   7.543   4.076  1.7648  1.9496  0.5813
  110SAPE  H14Y11461   0.213   7.681   4.033  0.2690  1.7952 -1.2914
  110SAPE  C31511462   0.393   7.691   3.929 -0.5033  0.3476 -0.2038
  110SAPE  H15X11463   0.371   7.767   3.850 -0.4949 -0.8772 -1.4184
  110SAPE  H15Y11464   0.469   7.621   3.889  0.6484  0.6942  1.2906
  110SAPE  C31611465   0.461   7.761   4.047 -0.1030 -0.1251  0.1720
  110SAPE  H16X11466   0.479   7.683   4.124 -1.8196 -1.7959 -1.0275
  110SAPE  H16Y11467   0.392   7.839   4.086  0.0462  0.1070 -0.0250
  110SAPE  C31711468   0.587   7.834   4.001 -0.3669  0.6196  0.1828
  110SAPE  H17X11469   0.654   7.772   3.938  1.0033  1.4381  0.7949
  110SAPE  H17Y11470   0.637   7.868   4.094  0.1219 -1.0967  0.5748
  110SAPE  C31811471   0.566   7.968   3.930  0.7615 -0.3888  0.4920
  110SAPE  H18X11472   0.664   8.021   3.934  0.5177  0.0209  1.8161
  110SAPE  H18Y11473   0.485   8.024   3.980  0.0436  0.3775 -1.4538
  110SAPE  H18Z11474   0.540   7.949   3.824 -2.0488  2.0073  0.6405
  111SAPE     N11475   0.661   3.337   1.765 -0.3737 -0.3071 -0.1111
  111SAPE   HN111476   0.562   3.305   1.772  0.0793 -1.3991  4.1354
  111SAPE   HN211477   0.664   3.440   1.752 -2.9665 -0.1920 -0.3953
  111SAPE   HN311478   0.705   3.299   1.679 -0.9247 -1.3733  0.0533
  111SAPE   C1211479   0.727   3.294   1.891 -0.6224  0.4897  0.0946
  111SAPE  H12A11480   0.830   3.262   1.865 -0.6998  0.8763 -0.7249
  111SAPE  H12B11481   0.682   3.203   1.936 -1.1095  1.6809  2.1759
  111SAPE   C1111482   0.746   3.402   1.998  0.0863  0.6222 -0.0482
  111SAPE  H11A11483   0.821   3.361   2.069  0.4177  3.0160  1.0590
  111SAPE  H11B11484   0.650   3.412   2.052 -1.5254  0.1413 -2.6445
  111SAPE     P11485   0.941   3.551   1.937 -0.0690  0.4579 -0.2666
  111SAPE   O1311486   1.017   3.425   1.945 -0.1621 -0.1671  0.4052
  111SAPE   O1411487   0.957   3.641   1.818 -0.5347 -0.3881 -0.3625
  111SAPE   O1211488   0.784   3.531   1.943 -0.2204  0.1362 -0.2422
  111SAPE   O1111489   0.963   3.639   2.064 -0.1757  0.2677 -0.3671
  111SAPE    C111490   1.073   3.683   2.143 -0.4086  0.0060  0.2346
  111SAPE    HA11491   1.135   3.597   2.176 -1.8529 -0.8704  0.7623
  111SAPE    HB11492   1.137   3.747   2.079 -2.0253  2.3094  0.7864
  111SAPE    C211493   1.033   3.767   2.271 -0.7340  0.5697  0.3173
  111SAPE    HS11494   1.122   3.773   2.337 -0.0334 -0.0262 -0.5470
  111SAPE   O2111495   0.918   3.703   2.332 -0.4963  0.6135  0.4716
  111SAPE   C2111496   0.958   3.591   2.394  0.3320 -0.0036 -0.3629
  111SAPE   O2211497   1.069   3.562   2.424  0.2138 -0.0395 -0.1175
  111SAPE   C2211498   0.835   3.517   2.432  0.6555  0.5752  0.4819
  111SAPE   H2R11499   0.875   3.443   2.505 -0.3756 -1.6757 -1.1166
  111SAPE   H2S11500   0.762   3.581   2.487 -2.1969 -2.8327  1.0335
  111SAPE    C311501   0.991   3.914   2.233 -0.1001 -0.1986 -0.5144
  111SAPE    HX11502   0.898   3.903   2.173 -1.3858  0.6389  1.2748
  111SAPE    HY11503   1.061   3.956   2.157 -1.3541  0.0845 -1.5474
  111SAPE   O3111504   0.963   3.988   2.354 -0.6085 -0.4144 -0.3013
  111SAPE   C3111505   1.079   4.026   2.410 -0.0933  0.5868 -0.4611
  111SAPE   O3211506   1.190   4.015   2.364  0.2073 -0.5005  0.2073
  111SAPE   C3211507   1.047   4.090   2.542  0.7417 -0.0783 -0.5258
  111SAPE   H2X11508   0.947   4.053   2.573  0.0332  0.8002 -1.6866
  111SAPE   H2Y11509   1.040   4.199   2.523 -1.8419 -0.2332 -0.9009
  111SAPE   C2311510   0.757   3.439   2.329  0.1215  0.1036 -0.7387
  111SAPE   H3R11511   0.819   3.352   2.297  0.9243 -0.0793  1.1733
  111SAPE   H3S11512   0.742   3.505   2.241 -0.6854  1.6028  0.4622
  111SAPE   C2411513   0.619   3.394   2.371  0.6141  0.7707 -0.0307
  111SAPE   H4R11514   0.559   3.343   2.292  2.3686  0.5619 -1.2967
  111SAPE   H4S11515   0.557   3.482   2.400  0.0303  0.6610 -0.8987
  111SAPE   C2511516   0.624   3.292   2.483 -0.2429 -0.5394  0.0189
  111SAPE   H5R11517   0.660   3.191   2.458  1.7680  0.4815 -1.5477
  111SAPE   C2611518   0.593   3.330   2.612  0.0449  0.1667 -0.3780
  111SAPE   H6R11519   0.623   3.260   2.691 -2.3315  1.0007  1.3709
  111SAPE   C2711520   0.550   3.457   2.669 -0.3385  0.0639 -1.1338
  111SAPE   H7R11521   0.446   3.436   2.703 -0.0021  1.2841  0.7875
  111SAPE   H7S11522   0.552   3.543   2.597 -1.9074 -1.1808 -2.7702
  111SAPE   C2811523   0.629   3.498   2.786 -0.0864 -0.0922 -0.0128
  111SAPE   H8R11524   0.724   3.549   2.766 -0.2863 -0.2210 -1.3448
  111SAPE   C2911525   0.590   3.508   2.916  0.3522  0.1601 -0.3809
  111SAPE   H9R11526   0.669   3.535   2.988  0.1306 -1.9715  0.7352
  111SAPE  C21011527   0.455   3.474   2.972 -1.1393 -0.1044  0.0086
  111SAPE  H10R11528   0.442   3.373   3.016 -0.9394 -0.2229 -0.2017
  111SAPE  H10S11529   0.377   3.484   2.893 -0.0366  2.8943 -0.8331
  111SAPE  C21111530   0.411   3.573   3.078 -0.1271 -0.4117 -0.0435
  111SAPE  H11R11531   0.375   3.672   3.045 -1.0953  1.2654  5.1606
  111SAPE  C21211532   0.428   3.571   3.215  1.2290  0.1392  0.4823
  111SAPE  H12R11533   0.412   3.656   3.282  0.2197 -1.6797  2.6880
  111SAPE  C21311534   0.481   3.457   3.304  0.3606 -0.0446  0.9856
  111SAPE  H13R11535   0.526   3.378   3.240  0.7276  0.7736  0.2098
  111SAPE  H13S11536   0.404   3.396   3.356  1.2121 -2.3258 -0.2849
  111SAPE  C21411537   0.598   3.499   3.387 -0.0296 -0.5970 -0.6520
  111SAPE  H14R11538   0.692   3.524   3.336  0.4924 -0.6177  0.2781
  111SAPE  C21511539   0.607   3.504   3.521  0.4269  0.0714  0.2798
  111SAPE  H15R11540   0.699   3.541   3.568 -0.5040  1.8669  0.7493
  111SAPE  C21611541   0.501   3.462   3.621 -0.2936 -0.1484  0.6100
  111SAPE  H16R11542   0.523   3.362   3.664  0.2931 -0.8265 -1.1454
  111SAPE  H16S11543   0.398   3.471   3.579  0.6316  2.3646 -1.3841
  111SAPE  C21711544   0.473   3.559   3.728 -0.0784  0.7092 -0.1108
  111SAPE  H17R11545   0.459   3.659   3.682 -2.7390 -0.0971 -1.2465
  111SAPE  H17S11546   0.563   3.560   3.793 -0.8253 -0.6626  0.9908
  111SAPE  C21811547   0.352   3.523   3.817  0.0495  0.1338  0.1296
  111SAPE  H18R11548   0.360   3.420   3.855 -1.3063 -0.0500 -0.0234
  111SAPE  H18S11549   0.263   3.535   3.750  0.1593 -0.9720 -0.2391
  111SAPE  C21911550   0.344   3.618   3.931  0.6348 -0.7339 -0.4000
  111SAPE  H19R11551   0.331   3.722   3.896 -2.2211 -1.2259 -1.0901
  111SAPE  H19S11552   0.429   3.602   4.001  1.3593 -3.7207 -1.8201
  111SAPE  C22011553   0.218   3.596   4.014 -0.0982  0.5010  0.0202
  111SAPE  H20R11554   0.219   3.488   4.041  1.0787  0.6305  0.5748
  111SAPE  H20S11555   0.125   3.631   3.965 -0.1237  0.7382  0.2361
  111SAPE  H20T11556   0.230   3.639   4.116  2.9088 -0.1191  0.0252
  111SAPE   C3311557   1.157   4.063   2.652 -0.6768 -0.1168 -0.3431
  111SAPE   H3X11558   1.133   4.127   2.739  1.1657  0.4318 -0.1908
  111SAPE   H3Y11559   1.248   4.112   2.611  0.6736 -0.5013  2.0219
  111SAPE   C3411560   1.179   3.919   2.696 -0.1231  0.4984 -0.1903
  111SAPE   H4X11561   1.248   3.918   2.783 -2.4776  1.3823  1.7992
  111SAPE   H4Y11562   1.220   3.856   2.615 -0.0125  0.5892 -0.2063
  111SAPE   C3511563   1.049   3.842   2.747 -0.0502  0.0956  0.4738
  111SAPE   H5X11564   0.966   3.834   2.675 -0.2335 -0.3761  0.7320
  111SAPE   H5Y11565   1.019   3.893   2.841  2.1910 -1.1279  1.9637
  111SAPE   C3611566   1.076   3.702   2.806 -0.6867 -0.3504  0.1927
  111SAPE   H6X11567   1.184   3.693   2.829 -0.2037  1.8812 -0.8841
  111SAPE   H6Y11568   1.056   3.631   2.723 -3.1206  0.3608  0.0949
  111SAPE   C3711569   0.990   3.661   2.920  0.0644 -0.2768 -0.0031
  111SAPE   H7X11570   0.954   3.556   2.908  0.2293 -0.4110  0.6701
  111SAPE   H7Y11571   0.901   3.727   2.924  1.3677  1.5168  0.0472
  111SAPE   C3811572   1.065   3.669   3.058  0.3263 -0.5489  0.0025
  111SAPE   H8X11573   1.096   3.774   3.074 -0.5183 -0.4519  1.1358
  111SAPE   H8Y11574   1.155   3.610   3.033  0.2466 -0.5863 -0.1997
  111SAPE   C3911575   0.985   3.613   3.177 -0.6124 -0.1105 -0.9290
  111SAPE   H9X11576   0.976   3.503   3.161 -3.6125  0.0151 -0.7075
  111SAPE   H9Y11577   0.881   3.651   3.172 -0.5325  0.1668 -0.4711
  111SAPE  C31011578   1.060   3.646   3.307 -0.0434  0.2500  0.1927
  111SAPE  H10X11579   1.116   3.741   3.297 -0.8469  0.4900 -2.9409
  111SAPE  H10Y11580   1.131   3.564   3.328 -0.6409 -0.2388  0.3533
  111SAPE  C31111581   0.965   3.648   3.423  0.6156 -0.4327 -0.4660
  111SAPE  H11X11582   0.934   3.547   3.457 -0.6115  0.3092  0.7439
  111SAPE  H11Y11583   0.871   3.700   3.394  0.7446  1.2217  1.7860
  111SAPE  C31211584   1.028   3.720   3.550 -0.1809  0.0476 -0.0296
  111SAPE  H12X11585   1.135   3.700   3.570  0.2962  0.1044 -2.2737
  111SAPE  H12Y11586   0.973   3.677   3.636  1.7743 -2.1809  0.2379
  111SAPE  C31311587   1.004   3.869   3.550 -0.0382 -0.0515  0.1246
  111SAPE  H13X11588   0.897   3.875   3.520 -0.0924 -0.0912  0.3073
  111SAPE  H13Y11589   1.080   3.927   3.493  0.5562  0.5801  1.5000
  111SAPE  C31411590   0.995   3.941   3.689 -0.1140  0.0030  0.1483
  111SAPE  H14X11591   1.091   3.920   3.740  2.0725  0.5372 -3.3985
  111SAPE  H14Y11592   0.929   3.893   3.764 -0.6681  1.6702  0.7800
  111SAPE  C31511593   0.955   4.089   3.685 -0.6025  0.1306  0.7265
  111SAPE  H15X11594   0.846   4.097   3.665 -0.6599  0.2903  1.0968
  111SAPE  H15Y11595   1.016   4.138   3.607  1.3201 -0.6213  1.6982
  111SAPE  C31611596   0.981   4.162   3.815  0.0119  0.0710 -0.4200
  111SAPE  H16X11597   1.090   4.178   3.820  0.5036 -2.5037 -1.3567
  111SAPE  H16Y11598   0.943   4.098   3.898 -1.8402  1.4142 -0.1741
  111SAPE  C31711599   0.917   4.303   3.816  0.2326  0.6435  0.8123
  111SAPE  H17X11600   0.923   4.352   3.915 -0.4490  2.6223 -0.0698
  111SAPE  H17Y11601   0.808   4.285   3.798  0.5838 -1.6526  0.6549
  111SAPE  C31811602   0.987   4.408   3.728 -0.6110 -0.0714  1.0241
  111SAPE  H18X11603   0.957   4.375   3.626  1.9659 -0.9369  0.4917
  111SAPE  H18Y11604   1.098   4.411   3.730 -0.5449 -0.0569 -1.0888
  111SAPE  H18Z11605   0.944   4.510   3.740 -2.2460 -0.4993 -0.7737
  112SAPE     N11606   2.876   3.003   2.346 -0.1850 -1.1147  0.0405
  112SAPE   HN111607   2.960   2.942   2.336 -0.2844 -1.0517 -1.3644
  112SAPE   HN211608   2.892   3.086   2.406 -2.4077  0.0787 -0.9186
  112SAPE   HN311609   2.801   2.945   2.389  0.3362 -2.0060 -0.2045
  112SAPE   C1211610   2.829   3.057   2.208  0.1289  0.0141  0.3968
  112SAPE  H12A11611   2.746   3.124   2.239 -1.6479 -2.7852  2.1041
  112SAPE  H12B11612   2.792   2.970   2.150  1.8108 -1.1146  0.9470
  112SAPE   C1111613   2.944   3.139   2.130  0.1448  0.2112 -0.7083
  112SAPE  H11A11614   2.908   3.149   2.025 -0.4700 -2.9261 -0.8990
  112SAPE  H11B11615   3.035   3.077   2.119  0.0393 -0.0233 -0.2925
  112SAPE     P11616   2.957   3.395   2.124  0.5464 -0.4902 -0.2061
  112SAPE   O1311617   3.020   3.389   1.993 -1.0386  0.4079  0.2543
  112SAPE   O1411618   2.810   3.428   2.114 -0.1674  0.2349 -0.5255
  112SAPE   O1211619   2.982   3.258   2.197 -0.2882 -0.0885 -0.1012
  112SAPE   O1111620   3.034   3.501   2.203  0.2558  0.1945 -0.2595
  112SAPE    C111621   3.018   3.501   2.350  0.1011  0.5357 -0.5767
  112SAPE    HA11622   3.035   3.397   2.386  0.1538  0.5066 -0.6863
  112SAPE    HB11623   3.100   3.561   2.395  0.1047  1.1853 -1.4330
  112SAPE    C211624   2.885   3.565   2.403 -0.2174  0.4870 -0.3001
  112SAPE    HS11625   2.821   3.574   2.313 -0.1035  1.0435 -0.3352
  112SAPE   O2111626   2.903   3.697   2.459 -0.2351 -0.0377 -0.3748
  112SAPE   C2111627   2.801   3.779   2.440  0.0210 -0.1904  0.6648
  112SAPE   O2211628   2.703   3.756   2.365 -1.0467  0.4776 -0.0929
  112SAPE   C2211629   2.819   3.903   2.525 -0.6356 -0.4886 -0.0547
  112SAPE   H2R11630   2.906   3.891   2.593 -1.1335 -0.6807  0.5615
  112SAPE   H2S11631   2.840   3.980   2.447 -2.0738 -0.6889 -0.6825
  112SAPE    C311632   2.803   3.475   2.499  0.1945  0.6465  0.0194
  112SAPE    HX11633   2.763   3.392   2.436  2.5093 -0.3032 -0.2943
  112SAPE    HY11634   2.713   3.525   2.539 -1.4568 -0.7302 -1.7508
  112SAPE   O3111635   2.870   3.436   2.618 -0.3441 -0.2338  0.3418
  112SAPE   C3111636   2.913   3.313   2.624  0.5651  0.6506  0.3059
  112SAPE   O3211637   2.896   3.227   2.536  0.3812  0.1279 -0.0632
  112SAPE   C3211638   2.987   3.284   2.749  0.7864 -0.2040 -0.1545
  112SAPE   H2X11639   3.044   3.379   2.757 -0.7257  0.6733  0.6449
  112SAPE   H2Y11640   3.069   3.211   2.729  2.6882  1.7934  0.0256
  112SAPE   C2311641   2.693   3.926   2.606 -0.3085  0.2202  0.5436
  112SAPE   H3R11642   2.617   3.963   2.534  2.5979  3.1601 -1.2522
  112SAPE   H3S11643   2.693   3.994   2.694  0.8250 -0.7586  1.3349
  112SAPE   C2411644   2.634   3.797   2.671  1.0298  0.1295 -0.3089
  112SAPE   H4R11645   2.591   3.725   2.598  1.6216  0.5189 -1.0507
  112SAPE   H4S11646   2.547   3.825   2.734  1.6307  1.8230 -0.1762
  112SAPE   C2511647   2.734   3.721   2.752 -0.2957 -0.0132 -0.2493
  112SAPE   H5R11648   2.812   3.671   2.692 -1.0887 -1.6606  0.0496
  112SAPE   C2611649   2.749   3.705   2.882  0.0238  0.5598 -0.1331
  112SAPE   H6R11650   2.828   3.635   2.910 -0.9046 -0.5502 -0.2141
  112SAPE   C2711651   2.656   3.755   2.988 -0.5188  0.1279 -0.2529
  112SAPE   H7R11652   2.571   3.684   2.996 -0.5626 -0.1918 -2.8549
  112SAPE   H7S11653   2.613   3.851   2.952 -0.0504  0.8020  0.9229
  112SAPE   C2811654   2.721   3.795   3.122 -0.0252 -0.5683  0.0978
  112SAPE   H8R11655   2.792   3.878   3.106  0.1777 -0.3299  2.0356
  112SAPE   C2911656   2.702   3.747   3.248  0.6359  0.3302 -0.0495
  112SAPE   H9R11657   2.753   3.791   3.335 -0.2802 -0.1971  0.7800
  112SAPE  C21011658   2.612   3.631   3.291 -0.1979  0.5057 -0.0164
  112SAPE  H10R11659   2.660   3.561   3.362  0.4540  1.9859  1.0582
  112SAPE  H10S11660   2.577   3.577   3.200 -3.5546  0.9998  0.8653
  112SAPE  C21111661   2.495   3.693   3.360 -0.3458 -0.7534 -0.9423
  112SAPE  H11R11662   2.426   3.740   3.289  1.3560 -0.1435 -2.2686
  112SAPE  C21211663   2.461   3.700   3.490  0.2871 -0.4330  0.3260
  112SAPE  H12R11664   2.378   3.764   3.525 -0.4147 -0.9109 -0.4504
  112SAPE  C21311665   2.537   3.635   3.599 -1.0108  0.3363  0.3710
  112SAPE  H13R11666   2.627   3.695   3.623 -0.3022 -0.1026 -1.0489
  112SAPE  H13S11667   2.584   3.540   3.565  0.0255  0.8682  0.2776
  112SAPE  C21411668   2.456   3.608   3.717 -0.0181 -0.3749 -0.2354
  112SAPE  H14R11669   2.402   3.513   3.702 -2.9392  1.2494 -0.6752
  112SAPE  C21511670   2.447   3.680   3.830  0.4928 -0.2288 -0.0152
  112SAPE  H15R11671   2.373   3.651   3.906  0.5141 -0.5137 -0.1029
  112SAPE  C21611672   2.512   3.812   3.853  0.5924  0.3385 -0.3135
  112SAPE  H16R11673   2.528   3.874   3.762  0.6406  0.7214 -0.0445
  112SAPE  H16S11674   2.613   3.780   3.887  1.2842  2.7626  0.1155
  112SAPE  C21711675   2.452   3.888   3.969 -0.4238 -0.5903  0.6645
  112SAPE  H17R11676   2.432   3.829   4.061  0.6918 -2.7774 -0.4276
  112SAPE  H17S11677   2.358   3.941   3.940  0.8191  1.1470 -0.3380
  112SAPE  C21811678   2.549   3.996   4.014  0.0446 -0.2890 -0.7424
  112SAPE  H18R11679   2.593   4.054   3.930  1.1019 -0.8594 -0.5988
  112SAPE  H18S11680   2.640   3.946   4.055  0.7190  2.8023  1.8730
  112SAPE  C21911681   2.492   4.096   4.106  0.9398 -0.2015 -0.7418
  112SAPE  H19R11682   2.443   4.043   4.191  0.4418 -0.7505 -1.3544
  112SAPE  H19S11683   2.417   4.157   4.051 -1.3056 -2.0546  0.0602
  112SAPE  C22011684   2.598   4.187   4.171 -0.0152 -0.1100  0.0549
  112SAPE  H20R11685   2.559   4.258   4.247  2.9972  1.6953  0.0885
  112SAPE  H20S11686   2.642   4.250   4.091 -2.4937  0.2176 -1.1275
  112SAPE  H20T11687   2.672   4.125   4.225 -0.0625  0.2387  0.5227
  112SAPE   C3311688   2.905   3.278   2.879 -0.0794 -0.1804 -0.3213
  112SAPE   H3X11689   2.847   3.183   2.873 -2.9224  1.3414  0.9136
  112SAPE   H3Y11690   2.824   3.353   2.886 -1.3569 -1.3343 -1.9278
  112SAPE   C3411691   2.990   3.278   3.008 -0.4900  0.4506  0.7956
  112SAPE   H4X11692   3.054   3.187   3.012  1.1659  1.5014 -0.4212
  112SAPE   H4Y11693   2.913   3.278   3.088 -1.5689  2.0385 -0.1986
  112SAPE   C3511694   3.075   3.404   3.023  0.1524 -0.0774  0.0124
  112SAPE   H5X11695   3.013   3.483   2.976  1.2657  0.6027 -0.3383
  112SAPE   H5Y11696   3.168   3.383   2.966  0.8353  0.4637  0.9083
  112SAPE   C3611697   3.097   3.448   3.173 -0.1736  0.4915 -0.3425
  112SAPE   H6X11698   3.179   3.521   3.185  3.1965 -2.9536 -0.2884
  112SAPE   H6Y11699   3.122   3.363   3.240 -1.0097  0.9462  0.5630
  112SAPE   C3711700   2.981   3.527   3.238  0.1782  0.0207 -0.3822
  112SAPE   H7X11701   2.890   3.516   3.176 -0.0540 -0.2717  0.0063
  112SAPE   H7Y11702   3.014   3.633   3.244  1.3525 -0.3368 -0.1428
  112SAPE   C3811703   2.939   3.487   3.380  0.2505 -0.0320 -0.0941
  112SAPE   H8X11704   2.858   3.554   3.416  1.2892  2.4968 -2.1652
  112SAPE   H8Y11705   3.014   3.507   3.460 -1.6708 -0.0574  1.8077
  112SAPE   C3911706   2.916   3.343   3.419  0.8053  0.3844 -0.2035
  112SAPE   H9X11707   3.000   3.270   3.416  1.0450  0.6754 -0.8301
  112SAPE   H9Y11708   2.836   3.303   3.352  0.7132 -2.0306  1.2445
  112SAPE  C31011709   2.850   3.326   3.561  0.1409  0.4965  0.2212
  112SAPE  H10X11710   2.797   3.229   3.555  0.1714  0.5470 -1.2398
  112SAPE  H10Y11711   2.771   3.404   3.570 -0.9769 -0.5339 -0.3696
  112SAPE  C31111712   2.944   3.337   3.682  0.3455 -0.4519 -0.4578
  112SAPE  H11X11713   2.993   3.435   3.670 -0.3427 -0.2365 -1.7041
  112SAPE  H11Y11714   3.012   3.253   3.708 -0.4755 -0.6205  1.3043
  112SAPE  C31211715   2.876   3.356   3.815  0.2783  0.4884  0.5237
  112SAPE  H12X11716   2.839   3.259   3.853 -0.7585  0.1422 -1.2547
  112SAPE  H12Y11717   2.787   3.422   3.811  0.4701  0.8007  1.2211
  112SAPE  C31311718   2.976   3.422   3.913 -0.0661  0.2679  0.4511
  112SAPE  H13X11719   2.996   3.526   3.882  0.1573 -0.5208 -2.2682
  112SAPE  H13Y11720   3.073   3.368   3.914 -0.4391 -0.4236  1.6516
  112SAPE  C31411721   2.933   3.419   4.058  0.4051  0.3700  0.6137
  112SAPE  H14X11722   2.894   3.322   4.097  3.4446 -0.3114  2.2727
  112SAPE  H14Y11723   2.859   3.501   4.054  0.1948  0.2373  1.4583
  112SAPE  C31511724   3.035   3.484   4.157  0.1148  0.6015 -0.1476
  112SAPE  H15X11725   3.127   3.422   4.163 -0.4645 -0.4453 -1.7806
  112SAPE  H15Y11726   2.983   3.479   4.255 -1.9109  0.5692 -1.1860
  112SAPE  C31611727   3.070   3.624   4.114  0.4881  0.4498 -0.1860
  112SAPE  H16X11728   2.983   3.693   4.116  1.7058  2.0078  1.6035
  112SAPE  H16Y11729   3.114   3.624   4.012 -1.5710  1.7484 -1.1515
  112SAPE  C31711730   3.183   3.681   4.206  0.1978  0.6580  0.3256
  112SAPE  H17X11731   3.276   3.626   4.181  0.0979 -0.9185  3.0645
  112SAPE  H17Y11732   3.157   3.658   4.312 -1.1782  0.9798  0.0785
  112SAPE  C31811733   3.197   3.828   4.188  0.8282 -1.4173 -0.7450
  112SAPE  H18X11734   3.106   3.879   4.227  1.2546 -1.8059  0.8473
  112SAPE  H18Y11735   3.222   3.870   4.088  2.0750  2.8978  1.1361
  112SAPE  H18Z11736   3.283   3.862   4.251  1.3887 -1.5313 -1.4358
  113SAPE     N11737   5.057   1.512   2.156  0.3208  0.1731  0.0822
  113SAPE   HN111738   4.976   1.554   2.106  0.5006  2.0206  1.2054
  113SAPE   HN211739   5.115   1.580   2.211  0.8091  0.1372 -0.3800
  113SAPE   HN311740   5.122   1.471   2.086 -0.6430  2.2434 -2.1768
  113SAPE   C1211741   5.003   1.408   2.245  0.3474 -0.1566 -0.4534
  113SAPE  H12A11742   5.075   1.363   2.316 -2.1573 -1.4685  1.4020
  113SAPE  H12B11743   4.955   1.332   2.180 -0.5299  0.2354 -0.2700
  113SAPE   C1111744   4.896   1.471   2.342  0.3675 -0.2491 -0.3126
  113SAPE  H11A11745   4.947   1.524   2.425 -0.4031  1.6476 -1.0042
  113SAPE  H11B11746   4.839   1.396   2.401  0.1167  0.8671  0.9224
  113SAPE     P11747   4.656   1.554   2.314  0.4257 -0.8051 -0.5922
  113SAPE   O1311748   4.591   1.676   2.254 -0.0640  0.3921 -0.3068
  113SAPE   O1411749   4.605   1.424   2.266  0.1485 -0.3180  0.7539
  113SAPE   O1211750   4.811   1.566   2.277  0.2492 -0.4509  0.2402
  113SAPE   O1111751   4.635   1.562   2.473  0.0324  0.7564  0.5587
  113SAPE    C111752   4.593   1.446   2.551  0.1053 -0.4452  0.5264
  113SAPE    HA11753   4.560   1.359   2.489 -0.7004  0.4240 -0.3124
  113SAPE    HB11754   4.687   1.410   2.598  2.3968  1.6264 -2.1326
  113SAPE    C211755   4.481   1.487   2.644 -1.2608 -0.6681  0.0025
  113SAPE    HS11756   4.402   1.521   2.573 -1.2609 -0.5861  0.0418
  113SAPE   O2111757   4.536   1.585   2.738  0.2334  0.1996  0.1221
  113SAPE   C2111758   4.444   1.690   2.758 -0.1065 -0.1269 -0.2781
  113SAPE   O2211759   4.336   1.695   2.702  0.2237 -0.1454  0.2696
  113SAPE   C2211760   4.488   1.800   2.856 -0.1613  0.0007 -0.8801
  113SAPE   H2R11761   4.499   1.754   2.956  1.2708  0.8431 -0.6216
  113SAPE   H2S11762   4.590   1.822   2.818 -0.1545  0.3788 -0.6528
  113SAPE    C311763   4.413   1.373   2.720 -0.8623 -0.6680 -0.3119
  113SAPE    HX11764   4.490   1.334   2.789 -0.4405 -1.0151 -0.9626
  113SAPE    HY11765   4.389   1.293   2.646  0.8058 -0.2550 -1.3655
  113SAPE   O3111766   4.306   1.419   2.797  0.0800 -0.2917 -0.2575
  113SAPE   C3111767   4.194   1.437   2.731  0.8602  0.0639 -0.0185
  113SAPE   O3211768   4.181   1.419   2.611  0.7936 -0.1112 -0.2923
  113SAPE   C3211769   4.089   1.489   2.827 -0.3978 -0.6627 -0.0152
  113SAPE   H2X11770   3.997   1.495   2.765  0.5668 -1.3115 -1.5810
  113SAPE   H2Y11771   4.121   1.588   2.867  0.9115 -0.2148 -2.0186
  113SAPE   C2311772   4.410   1.939   2.853 -0.2425 -0.4501  0.0625
  113SAPE   H3R11773   4.302   1.924   2.874 -0.1074 -0.6205  0.6639
  113SAPE   H3S11774   4.408   1.972   2.747 -0.6764  0.5235  0.3668
  113SAPE   C2411775   4.461   2.038   2.958  0.2510 -0.4434  0.3138
  113SAPE   H4R11776   4.561   2.075   2.928 -1.3886  2.1090 -2.6241
  113SAPE   H4S11777   4.473   1.979   3.051 -0.5314 -1.3649 -0.1501
  113SAPE   C2511778   4.366   2.160   2.966 -0.1496  0.4587  0.4307
  113SAPE   H5R11779   4.356   2.221   2.876  1.0309 -0.7458 -0.5605
  113SAPE   C2611780   4.297   2.198   3.076 -0.8063 -0.3091 -0.9058
  113SAPE   H6R11781   4.231   2.287   3.080 -0.8060 -0.3470  0.1492
  113SAPE   C2711782   4.314   2.137   3.209  0.2056 -0.6828 -0.4980
  113SAPE   H7R11783   4.305   2.027   3.205  1.2993 -0.7706 -1.0810
  113SAPE   H7S11784   4.225   2.155   3.273  1.2648 -1.3123  1.2438
  113SAPE   C2811785   4.433   2.174   3.290  0.0027 -0.1428  0.1398
  113SAPE   H8R11786   4.515   2.217   3.231 -2.5010  1.9848 -2.0643
  113SAPE   C2911787   4.430   2.178   3.419 -0.3889 -1.0862 -0.3358
  113SAPE   H9R11788   4.520   2.214   3.472 -0.9442  0.1840 -0.2177
  113SAPE  C21011789   4.321   2.134   3.514 -0.7297  0.9416  0.2216
  113SAPE  H10R11790   4.246   2.068   3.465  0.2401 -2.7213  3.2151
  113SAPE  H10S11791   4.275   2.217   3.571 -2.8157  0.0930 -0.1004
  113SAPE  C21111792   4.381   2.031   3.604 -1.3211  0.4456  0.0883
  113SAPE  H11R11793   4.398   1.936   3.552 -0.6482  1.2477 -1.2213
  113SAPE  C21211794   4.400   2.044   3.741  0.6007  0.3576  0.3800
  113SAPE  H12R11795   4.425   1.953   3.798 -1.7907  0.0053  1.0037
  113SAPE  C21311796   4.365   2.163   3.832 -0.1743  0.1601 -0.0059
  113SAPE  H13R11797   4.317   2.123   3.924 -1.7966 -1.3484 -1.4295
  113SAPE  H13S11798   4.284   2.225   3.788 -0.3819 -0.3386 -0.3325
  113SAPE  C21411799   4.483   2.245   3.863  0.1687  0.1949  0.6132
  113SAPE  H14R11800   4.514   2.322   3.791 -0.5098 -0.1097 -0.0173
  113SAPE  C21511801   4.582   2.203   3.946  0.7238 -0.4465 -0.5303
  113SAPE  H15R11802   4.673   2.260   3.969  1.6585 -0.9699 -2.6824
  113SAPE  C21611803   4.567   2.077   4.030  0.4701  0.1629 -0.3959
  113SAPE  H16R11804   4.666   2.027   4.034  0.4943  0.1822  4.1428
  113SAPE  H16S11805   4.490   2.005   3.995 -0.2973  0.9512 -0.3946
  113SAPE  C21711806   4.535   2.121   4.171 -0.4141  0.1342 -0.1045
  113SAPE  H17R11807   4.431   2.161   4.178  0.2875  2.0536  0.1220
  113SAPE  H17S11808   4.593   2.198   4.227  0.1455  0.4605 -1.1188
  113SAPE  C21811809   4.538   1.996   4.273  0.1395 -0.2540  0.0680
  113SAPE  H18R11810   4.512   1.911   4.207 -1.1886  0.5848 -0.5264
  113SAPE  H18S11811   4.459   2.014   4.349 -0.9006 -0.7128 -0.8806
  113SAPE  C21911812   4.675   1.968   4.345 -0.2983 -0.3972  0.3007
  113SAPE  H19R11813   4.659   1.878   4.409 -0.0794  0.1700  1.1763
  113SAPE  H19S11814   4.696   2.064   4.397 -3.2859  0.5501 -0.0788
  113SAPE  C22011815   4.791   1.921   4.254 -0.4522  0.3071  0.7645
  113SAPE  H20R11816   4.755   1.830   4.203  0.1265  0.0576  0.7869
  113SAPE  H20S11817   4.879   1.900   4.319  0.7545 -0.6365 -1.0616
  113SAPE  H20T11818   4.825   1.986   4.170 -1.2239 -2.0098 -1.4796
  113SAPE   C3311819   4.067   1.384   2.939 -0.2788 -0.4182  0.2988
  113SAPE   H3X11820   4.164   1.354   2.983 -0.4110  0.2208  1.0472
  113SAPE   H3Y11821   4.038   1.285   2.898 -1.4287  0.1963 -0.4050
  113SAPE   C3411822   3.979   1.434   3.056  0.8440 -0.0579 -0.0458
  113SAPE   H4X11823   3.873   1.414   3.028  0.1569  0.9947  1.6801
  113SAPE   H4Y11824   4.007   1.540   3.075  3.5710 -1.0018  1.8147
  113SAPE   C3511825   4.003   1.353   3.183  0.0016 -0.0439 -0.3205
  113SAPE   H5X11826   4.110   1.369   3.208 -0.3826  0.4135  1.1395
  113SAPE   H5Y11827   3.995   1.247   3.151  0.3174 -0.1335 -0.1016
  113SAPE   C3611828   3.906   1.379   3.293  0.3583 -0.1612 -0.3478
  113SAPE   H6X11829   3.807   1.347   3.255  0.6355  0.6048 -1.7832
  113SAPE   H6Y11830   3.924   1.487   3.312 -0.4464 -0.2933  1.3836
  113SAPE   C3711831   3.941   1.315   3.428 -0.9361  0.2969 -0.1034
  113SAPE   H7X11832   3.954   1.205   3.417  0.1442  0.5611 -1.9232
  113SAPE   H7Y11833   3.866   1.348   3.503  0.8927 -1.0569  2.4705
  113SAPE   C3811834   4.075   1.359   3.494  0.5692  0.2137  0.0194
  113SAPE   H8X11835   4.161   1.331   3.429  0.6725  0.3852  0.0817
  113SAPE   H8Y11836   4.070   1.470   3.497 -2.1748  0.2008 -0.8184
  113SAPE   C3911837   4.106   1.288   3.625 -0.2004  0.0886 -0.3044
  113SAPE   H9X11838   4.090   1.179   3.612  0.2127  0.1413 -1.3188
  113SAPE   H9Y11839   4.038   1.318   3.708 -0.0359 -0.2947 -0.0319
  113SAPE  C31011840   4.247   1.317   3.675 -0.2854 -0.1497 -0.1596
  113SAPE  H10X11841   4.244   1.416   3.726 -1.5309  0.3250 -1.1167
  113SAPE  H10Y11842   4.320   1.327   3.591 -0.8577 -0.1825 -0.6644
  113SAPE  C31111843   4.294   1.212   3.774  0.3843  0.0339 -0.1943
  113SAPE  H11X11844   4.384   1.257   3.820  0.5412  0.5430 -0.9879
  113SAPE  H11Y11845   4.320   1.120   3.718 -0.1273  0.3866 -1.0389
  113SAPE  C31211846   4.198   1.178   3.892 -0.3723 -0.2504  0.6462
  113SAPE  H12X11847   4.128   1.104   3.848  0.4497 -0.7574  0.1491
  113SAPE  H12Y11848   4.137   1.268   3.914 -0.0379 -0.1552  1.2169
  113SAPE  C31311849   4.278   1.121   4.010  0.3075  0.3975 -0.0203
  113SAPE  H13X11850   4.351   1.199   4.043 -1.3416  1.0348  2.3929
  113SAPE  H13Y11851   4.319   1.029   3.964 -0.0824  0.0082  0.4108
  113SAPE  C31411852   4.197   1.091   4.137 -0.2623 -0.6547  0.0195
  113SAPE  H14X11853   4.131   1.005   4.115  0.2575 -0.3053 -3.5516
  113SAPE  H14Y11854   4.133   1.181   4.148  0.8320  0.3294 -1.2413
  113SAPE  C31511855   4.288   1.081   4.261 -0.3560  0.3238 -0.3187
  113SAPE  H15X11856   4.353   1.171   4.271  0.1270 -0.2465  2.5945
  113SAPE  H15Y11857   4.350   0.990   4.248 -2.8664 -2.0186  2.6024
  113SAPE  C31611858   4.216   1.067   4.396  0.0038  0.4906  0.2117
  113SAPE  H16X11859   4.143   1.149   4.414 -0.5528  0.2352 -0.7758
  113SAPE  H16Y11860   4.293   1.064   4.476  2.2411  0.0850 -1.8239
  113SAPE  C31711861   4.125   0.942   4.394 -0.1174 -0.1707 -0.1039
  113SAPE  H17X11862   4.173   0.847   4.362  1.0309  0.7246 -1.1087
  113SAPE  H17Y11863   4.050   0.968   4.316  0.0990  1.7941  0.2944
  113SAPE  C31811864   4.049   0.914   4.523 -0.0758  0.0816  0.7959
  113SAPE  H18X11865   3.953   0.866   4.494  0.2571 -0.3035  0.3293
  113SAPE  H18Y11866   4.031   1.008   4.581 -0.3413  1.1953 -1.0170
  113SAPE  H18Z11867   4.106   0.846   4.590  1.4871  0.6689  0.1219
  114SAPE     N11868   6.306   2.769   2.120  0.1602 -0.1756  0.0075
  114SAPE   HN111869   6.304   2.853   2.058 -1.4818  0.7679  1.2601
  114SAPE   HN211870   6.393   2.768   2.176  0.9880  0.7722 -1.2189
  114SAPE   HN311871   6.318   2.685   2.060  1.5572  0.2568 -0.3355
  114SAPE   C1211872   6.184   2.765   2.204  0.0968 -0.2155 -0.9124
  114SAPE  H12A11873   6.195   2.676   2.270  0.3432 -0.1465 -0.8616
  114SAPE  H12B11874   6.099   2.742   2.136  0.3047 -0.9529 -0.9378
  114SAPE   C1111875   6.158   2.899   2.267  0.7030 -0.3116 -0.1508
  114SAPE  H11A11876   6.247   2.915   2.330 -0.5144 -0.9755  1.8377
  114SAPE  H11B11877   6.077   2.891   2.343 -0.4725 -1.2295 -1.4298
  114SAPE     P11878   6.001   3.051   2.118 -0.0656 -0.5096 -0.0706
  114SAPE   O1311879   6.025   3.110   1.984 -0.0371 -0.4877  0.5632
  114SAPE   O1411880   5.895   2.948   2.130 -0.9281 -0.0077 -0.1236
  114SAPE   O1211881   6.140   3.004   2.175  0.5451  0.3433 -0.2540
  114SAPE   O1111882   5.954   3.171   2.219 -0.2714  0.5360 -0.6031
  114SAPE    C111883   6.044   3.246   2.298  0.2278  0.0721  0.1509
  114SAPE    HA11884   6.113   3.190   2.365 -2.0108  0.3251  2.8341
  114SAPE    HB11885   6.114   3.294   2.226  0.6867  0.9779  1.1699
  114SAPE    C211886   5.976   3.354   2.386 -0.3210  0.3382 -0.4907
  114SAPE    HS11887   6.034   3.367   2.480 -1.0768 -0.1619  0.0587
  114SAPE   O2111888   5.838   3.321   2.419  0.2485  0.5912 -0.4744
  114SAPE   C2111889   5.838   3.211   2.500 -0.1760 -0.0169 -0.7752
  114SAPE   O2211890   5.934   3.168   2.556  0.3631 -0.1319 -0.5974
  114SAPE   C2211891   5.701   3.150   2.517  1.1221  0.8731 -0.9026
  114SAPE   H2R11892   5.636   3.167   2.429 -0.2502  1.7645  0.2247
  114SAPE   H2S11893   5.716   3.040   2.520 -0.1914  0.5459 -3.4348
  114SAPE    C311894   5.980   3.493   2.312 -0.4664  0.1597 -0.1875
  114SAPE    HX11895   5.927   3.565   2.378 -0.1265  0.0794  0.1804
  114SAPE    HY11896   5.911   3.469   2.229 -0.6870 -1.4968  0.4296
  114SAPE   O3111897   6.112   3.530   2.268 -0.7352 -0.1849 -0.0551
  114SAPE   C3111898   6.185   3.600   2.356 -0.3965  0.7400 -0.3627
  114SAPE   O3211899   6.151   3.616   2.474  0.1389 -0.5161  0.0292
  114SAPE   C3211900   6.313   3.647   2.288 -0.5578  0.1124 -0.8765
  114SAPE   H2X11901   6.310   3.652   2.178  1.4268  0.9340 -0.9374
  114SAPE   H2Y11902   6.379   3.562   2.317 -0.5850  0.5827  0.6449
  114SAPE   C2311903   5.622   3.200   2.645 -0.5020 -0.3118 -0.2903
  114SAPE   H3R11904   5.605   3.307   2.623  1.2143 -0.4184 -2.4026
  114SAPE   H3S11905   5.663   3.173   2.745 -1.3999 -1.9121 -0.3175
  114SAPE   C2411906   5.480   3.139   2.656  0.0686 -0.7927  0.5662
  114SAPE   H4R11907   5.433   3.183   2.566 -0.4863 -0.8104  0.8461
  114SAPE   H4S11908   5.422   3.186   2.738 -2.6897  0.2705 -1.8256
  114SAPE   C2511909   5.470   2.988   2.669  0.5517  0.6232  0.3968
  114SAPE   H5R11910   5.471   2.943   2.569 -2.0499  1.3593 -0.0332
  114SAPE   C2611911   5.466   2.911   2.777 -0.2418  0.3314 -0.8001
  114SAPE   H6R11912   5.455   2.802   2.764  0.1017  0.1572  0.2917
  114SAPE   C2711913   5.475   2.964   2.923 -0.3286 -0.6763  0.5688
  114SAPE   H7R11914   5.399   2.917   2.989 -0.8980  2.0408  2.0127
  114SAPE   H7S11915   5.458   3.074   2.922  0.4762 -0.5254 -1.7591
  114SAPE   C2811916   5.603   2.946   3.006 -0.4001 -0.7572  0.6883
  114SAPE   H8R11917   5.699   2.943   2.953  1.1926 -1.7666  3.4446
  114SAPE   C2911918   5.616   2.962   3.138  0.0315 -0.2150  0.2815
  114SAPE   H9R11919   5.718   2.945   3.176  0.7608  0.3795 -1.3019
  114SAPE  C21011920   5.511   3.013   3.237 -0.3514  0.4879 -0.1091
  114SAPE  H10R11921   5.509   2.946   3.325  1.4543  1.1612  0.4934
  114SAPE  H10S11922   5.410   3.013   3.191 -0.1950 -0.2334 -0.4603
  114SAPE  C21111923   5.547   3.157   3.269  0.3442  0.2925  1.0112
  114SAPE  H11R11924   5.630   3.195   3.207  1.6348  0.2923  2.6649
  114SAPE  C21211925   5.508   3.224   3.380 -0.0102  0.5952  0.3435
  114SAPE  H12R11926   5.557   3.319   3.402  1.4351 -0.0891  0.2156
  114SAPE  C21311927   5.410   3.168   3.482 -0.2926  0.4225 -0.7643
  114SAPE  H13R11928   5.442   3.075   3.533 -0.1111  1.1308  0.4686
  114SAPE  H13S11929   5.320   3.134   3.426  1.4390 -2.5398 -1.9754
  114SAPE  C21411930   5.373   3.275   3.585  0.5736  0.1292 -0.4932
  114SAPE  H14R11931   5.271   3.315   3.578 -0.0309 -1.4695 -1.4769
  114SAPE  C21511932   5.458   3.308   3.691 -0.1573  0.2937  0.8999
  114SAPE  H15R11933   5.411   3.364   3.772  0.1899 -0.9211  1.9834
  114SAPE  C21611934   5.597   3.259   3.719  0.6065  0.7113  0.1340
  114SAPE  H16R11935   5.653   3.347   3.758  0.9487 -0.2536  1.9277
  114SAPE  H16S11936   5.645   3.208   3.634 -0.4350  0.3842 -0.2753
  114SAPE  C21711937   5.599   3.151   3.833 -0.1649 -0.5730  0.1164
  114SAPE  H17R11938   5.704   3.127   3.858 -0.5342 -1.6153  0.7534
  114SAPE  H17S11939   5.552   3.057   3.796  1.6017 -0.5469 -2.4060
  114SAPE  C21811940   5.539   3.202   3.969  0.0168 -0.4109 -0.2491
  114SAPE  H18R11941   5.428   3.197   3.962  0.0256  0.6828 -1.4179
  114SAPE  H18S11942   5.569   3.307   3.989 -0.1564 -0.8537  2.9269
  114SAPE  C21911943   5.578   3.119   4.090 -0.5970  0.4111  0.0445
  114SAPE  H19R11944   5.688   3.133   4.094 -0.5476 -0.2422  1.1370
  114SAPE  H19S11945   5.558   3.011   4.078  2.3921 -0.7195  3.4792
  114SAPE  C22011946   5.527   3.162   4.222  0.2692  0.1364 -1.0754
  114SAPE  H20R11947   5.562   3.104   4.310  0.3639  1.2934 -0.3277
  114SAPE  H20S11948   5.415   3.164   4.222  0.2711  1.4472 -2.0094
  114SAPE  H20T11949   5.572   3.262   4.240  1.3993 -0.7451  1.5713
  114SAPE   C3311950   6.370   3.778   2.351 -0.0208 -0.0917 -0.1660
  114SAPE   H3X11951   6.304   3.811   2.434 -1.4902  0.4230 -1.4773
  114SAPE   H3Y11952   6.381   3.857   2.273  0.2738 -0.0034 -0.0362
  114SAPE   C3411953   6.508   3.754   2.405 -0.7216  0.0157 -0.8668
  114SAPE   H4X11954   6.576   3.842   2.405  0.0354 -0.4311  2.8049
  114SAPE   H4Y11955   6.549   3.665   2.353 -2.3732 -1.5563  0.3916
  114SAPE   C3511956   6.503   3.716   2.559  0.3447 -0.4271  0.3972
  114SAPE   H5X11957   6.447   3.622   2.577 -1.3204  0.5607  0.6221
  114SAPE   H5Y11958   6.436   3.793   2.604 -0.5659 -1.2997  0.5621
  114SAPE   C3611959   6.652   3.703   2.615  0.0873  0.5009 -0.2690
  114SAPE   H6X11960   6.699   3.802   2.633 -3.5830  2.3801 -0.1763
  114SAPE   H6Y11961   6.705   3.658   2.529  0.3667  0.2286  0.0428
  114SAPE   C3711962   6.668   3.610   2.744 -0.9750  0.2743  0.7090
  114SAPE   H7X11963   6.777   3.602   2.762 -1.1800 -0.4271  1.7890
  114SAPE   H7Y11964   6.623   3.512   2.715  0.6983 -0.6456  1.0646
  114SAPE   C3811965   6.619   3.674   2.867  0.4283 -0.6736  1.0993
  114SAPE   H8X11966   6.508   3.675   2.860  0.4694  0.0475  0.4731
  114SAPE   H8Y11967   6.652   3.780   2.871 -2.0631  0.3202 -1.7358
  114SAPE   C3911968   6.665   3.601   2.998  0.0947 -0.1888  0.1834
  114SAPE   H9X11969   6.775   3.618   2.998  0.1528 -0.4889 -1.3207
  114SAPE   H9Y11970   6.637   3.494   3.002  0.7470 -0.3889 -0.4723
  114SAPE  C31011971   6.603   3.664   3.124  0.6652 -0.1974  0.0573
  114SAPE  H10X11972   6.503   3.705   3.100 -0.1262 -1.9032  0.2357
  114SAPE  H10Y11973   6.662   3.754   3.152 -0.9497  1.0765 -0.4900
  114SAPE  C31111974   6.603   3.572   3.253  0.1800  0.7972 -0.3716
  114SAPE  H11X11975   6.709   3.561   3.284  0.4520  1.4417 -1.0499
  114SAPE  H11Y11976   6.568   3.471   3.221 -0.2099  1.9782 -4.0787
  114SAPE  C31211977   6.503   3.616   3.357 -0.3327 -0.0681 -0.4708
  114SAPE  H12X11978   6.407   3.651   3.314  0.0374  0.2364 -1.0696
  114SAPE  H12Y11979   6.547   3.708   3.401  0.6866 -0.1469 -1.2731
  114SAPE  C31311980   6.471   3.515   3.464 -0.0758  0.0483  0.2664
  114SAPE  H13X11981   6.480   3.408   3.437 -0.5718 -0.1498  0.8714
  114SAPE  H13Y11982   6.366   3.529   3.498  0.0157 -1.4059  1.2290
  114SAPE  C31411983   6.558   3.531   3.587  0.3534 -0.1558  0.1082
  114SAPE  H14X11984   6.538   3.631   3.631  0.0011  0.3429 -1.1418
  114SAPE  H14Y11985   6.667   3.522   3.568  0.2572  0.3732 -0.7867
  114SAPE  C31511986   6.508   3.420   3.683 -0.5076 -0.8501  0.5708
  114SAPE  H15X11987   6.532   3.320   3.640  0.2651 -1.6008  2.6327
  114SAPE  H15Y11988   6.399   3.439   3.696 -0.1639  2.5099 -0.5151
  114SAPE  C31611989   6.578   3.436   3.817 -0.3515 -0.3514  0.6339
  114SAPE  H16X11990   6.563   3.539   3.854 -1.7390 -0.1164 -0.5096
  114SAPE  H16Y11991   6.688   3.423   3.807 -0.6315 -2.3619 -0.3007
  114SAPE  C31711992   6.530   3.345   3.935 -0.1710 -0.1358  0.8448
  114SAPE  H17X11993   6.593   3.374   4.022  2.9027  1.1328 -1.6013
  114SAPE  H17Y11994   6.553   3.237   3.923  1.5216  0.0278  2.1409
  114SAPE  C31811995   6.387   3.352   3.974 -0.1966  0.0376 -0.1379
  114SAPE  H18X11996   6.357   3.446   4.025 -0.9109  0.7762 -1.8628
  114SAPE  H18Y11997   6.369   3.270   4.046  0.9731 -0.9623 -0.9365
  114SAPE  H18Z11998   6.326   3.324   3.886  1.5183 -0.1994 -1.2897
  115SAPE     N11999   4.445   3.004   1.961  0.3239  0.5649 -0.2136
  115SAPE   HN112000   4.369   2.952   1.913 -0.9320  1.5879  0.6173
  115SAPE   HN212001   4.496   3.060   1.890 -1.9963  2.3315 -0.6171
  115SAPE   HN312002   4.507   2.933   2.005 -2.0717 -0.9662  0.8720
  115SAPE   C1212003   4.385   3.093   2.066  0.0187  0.8203 -0.8727
  115SAPE  H12A12004   4.303   3.153   2.023 -1.1094  1.1432  1.5542
  115SAPE  H12B12005   4.459   3.164   2.108 -0.9578  0.9826  0.6735
  115SAPE   C1112006   4.323   3.017   2.187 -0.0517  0.6281  1.0346
  115SAPE  H11A12007   4.283   3.085   2.265 -3.3231 -1.4315  1.2998
  115SAPE  H11B12008   4.401   2.962   2.244 -1.0703  1.3611  3.2929
  115SAPE     P12009   4.073   2.977   2.130  0.2862 -0.2192 -0.2424
  115SAPE   O1312010   4.075   3.043   2.003 -0.4328  0.2860  0.1106
  115SAPE   O1412011   3.986   2.858   2.143  0.2783 -0.5621 -0.2967
  115SAPE   O1212012   4.219   2.923   2.159 -0.2471  0.1669  0.0362
  115SAPE   O1112013   4.045   3.079   2.247  0.1872 -0.4803 -0.2342
  115SAPE    C112014   3.979   3.036   2.368  0.4896 -0.3612  0.7456
  115SAPE    HA12015   3.954   2.928   2.372  2.4513 -0.9033 -0.1743
  115SAPE    HB12016   4.046   3.051   2.456 -0.9930  0.3489  1.7898
  115SAPE    C212017   3.849   3.116   2.392 -0.2951  0.4526  0.8571
  115SAPE    HS12018   3.793   3.117   2.297 -0.2409  1.0043  0.8308
  115SAPE   O2112019   3.881   3.246   2.438  0.0492 -0.4420 -0.4074
  115SAPE   C2112020   3.796   3.331   2.396 -0.3286 -0.8457 -0.4860
  115SAPE   O2212021   3.690   3.314   2.339 -0.2677  0.1570 -0.4516
  115SAPE   C2212022   3.845   3.475   2.439  0.1089  0.1091  0.2164
  115SAPE   H2R12023   3.934   3.467   2.505 -1.1898 -2.9010  1.8097
  115SAPE   H2S12024   3.876   3.540   2.355  1.0092  0.6380  0.9370
  115SAPE    C312025   3.769   3.043   2.501  0.5698 -0.1050 -0.7795
  115SAPE    HX12026   3.732   2.945   2.463  1.2646 -0.5856 -0.2353
  115SAPE    HY12027   3.684   3.112   2.518  1.7410  1.3746 -0.6782
  115SAPE   O3112028   3.837   3.022   2.625 -0.0080  0.2456 -0.0547
  115SAPE   C3112029   3.776   2.953   2.726 -0.3286  0.2131  0.4941
  115SAPE   O3212030   3.667   2.901   2.723 -0.4985 -0.2967 -0.0610
  115SAPE   C3212031   3.889   2.946   2.843 -0.1839  0.3354  0.1556
  115SAPE   H2X12032   3.970   3.016   2.814  0.4943  0.4423  2.1813
  115SAPE   H2Y12033   3.923   2.841   2.842 -0.1584  0.3335 -1.2241
  115SAPE   C2312034   3.733   3.553   2.519  0.1640  0.2763 -0.3531
  115SAPE   H3R12035   3.704   3.480   2.597 -0.1186  1.0959  0.3197
  115SAPE   H3S12036   3.640   3.566   2.460 -1.0042  1.4007  1.6213
  115SAPE   C2412037   3.779   3.692   2.577  0.1293  0.0663  0.6729
  115SAPE   H4R12038   3.684   3.748   2.597 -0.8805 -1.0754 -0.7037
  115SAPE   H4S12039   3.828   3.740   2.489  0.3610 -0.3601  0.5696
  115SAPE   C2512040   3.875   3.686   2.691 -0.7941 -0.1795 -0.3303
  115SAPE   H5R12041   3.977   3.665   2.656 -0.1927 -0.4420  1.4517
  115SAPE   C2612042   3.862   3.716   2.822  0.1160  0.0332 -0.6947
  115SAPE   H6R12043   3.952   3.701   2.884 -1.9738 -2.7837  1.9722
  115SAPE   C2712044   3.743   3.767   2.899  0.0205  0.4139  0.2150
  115SAPE   H7R12045   3.770   3.802   3.001  0.6346 -2.2219  1.0491
  115SAPE   H7S12046   3.685   3.672   2.910  0.0315  0.3880  0.0510
  115SAPE   C2812047   3.647   3.875   2.847 -0.9856  0.7314 -0.7822
  115SAPE   H8R12048   3.661   3.887   2.739 -0.0481  2.2861 -0.5111
  115SAPE   C2912049   3.588   3.961   2.928  0.0137 -0.7013 -0.3534
  115SAPE   H9R12050   3.515   4.027   2.879 -0.1917  0.0512  0.9350
  115SAPE  C21012051   3.588   3.966   3.079 -0.3810  0.4875 -0.5292
  115SAPE  H10R12052   3.604   3.865   3.123 -1.4655 -0.1249 -1.4945
  115SAPE  H10S12053   3.486   3.992   3.116  0.5488  1.7827  1.3336
  115SAPE  C21112054   3.680   4.072   3.137  0.2588  0.1079  0.5961
  115SAPE  H11R12055   3.722   4.149   3.070  1.0254  0.3301  1.3127
  115SAPE  C21212056   3.748   4.085   3.252  0.0253  1.1933 -0.0010
  115SAPE  H12R12057   3.823   4.163   3.271  1.4812  0.2625 -1.6025
  115SAPE  C21312058   3.739   3.976   3.364  0.2875  0.4547 -0.1980
  115SAPE  H13R12059   3.826   3.910   3.346  0.2004  0.5611 -1.0402
  115SAPE  H13S12060   3.647   3.921   3.338  0.8497  0.4787 -2.4343
  115SAPE  C21412061   3.741   4.023   3.508  0.4299  0.1969  0.3607
  115SAPE  H14R12062   3.794   4.118   3.524  1.9356 -0.6813  0.8427
  115SAPE  C21512063   3.683   3.969   3.614 -0.2059 -1.0397  0.1781
  115SAPE  H15R12064   3.697   4.012   3.714 -1.0412  0.0687 -0.1580
  115SAPE  C21612065   3.603   3.837   3.613 -0.2920 -0.3347 -0.2523
  115SAPE  H16R12066   3.574   3.810   3.509  0.3627  1.6034 -0.9858
  115SAPE  H16S12067   3.505   3.859   3.661  0.4699  0.3190  1.0487
  115SAPE  C21712068   3.664   3.724   3.693 -0.2069 -0.0495 -0.4207
  115SAPE  H17R12069   3.766   3.697   3.657  0.1976  0.1972  0.5024
  115SAPE  H17S12070   3.601   3.634   3.686 -0.6236  0.1725  0.3280
  115SAPE  C21812071   3.694   3.750   3.846 -0.4536  0.5099  0.0916
  115SAPE  H18R12072   3.756   3.841   3.858 -0.7065  0.5464  1.2339
  115SAPE  H18S12073   3.761   3.667   3.876 -0.0797  0.3887 -1.0140
  115SAPE  C21912074   3.568   3.746   3.930 -0.2540 -0.1206 -0.1311
  115SAPE  H19R12075   3.502   3.661   3.902 -0.5336  0.5229 -1.5447
  115SAPE  H19S12076   3.503   3.833   3.906 -1.3635 -0.5271  1.2785
  115SAPE  C22012077   3.602   3.747   4.077  0.2421  0.3141  0.0978
  115SAPE  H20R12078   3.642   3.845   4.110 -0.1292  1.2392 -2.0919
  115SAPE  H20S12079   3.676   3.669   4.107 -1.7453 -1.0966  1.5672
  115SAPE  H20T12080   3.513   3.728   4.141  0.3834  0.3416  0.3052
  115SAPE   C3312081   3.826   2.984   2.977 -0.7880  0.5904 -0.8017
  115SAPE   H3X12082   3.753   2.908   3.010 -0.2518  0.4744  0.1660
  115SAPE   H3Y12083   3.783   3.086   2.988 -0.9971  0.4751 -0.5585
  115SAPE   C3412084   3.951   2.988   3.076 -0.1549  0.2662  0.0453
  115SAPE   H4X12085   4.023   3.039   3.009 -0.1552 -1.3212 -1.2433
  115SAPE   H4Y12086   3.996   2.889   3.098  1.4985  0.7994 -0.7941
  115SAPE   C3512087   3.938   3.074   3.206  0.0566  0.0434  0.6232
  115SAPE   H5X12088   3.888   3.173   3.200 -0.1844 -0.1685 -1.9931
  115SAPE   H5Y12089   4.041   3.100   3.239  0.0583  0.0127  0.6417
  115SAPE   C3612090   3.867   2.982   3.300 -0.7784  0.1400 -0.2047
  115SAPE   H6X12091   3.921   2.885   3.305 -2.6278 -0.8724  1.4629
  115SAPE   H6Y12092   3.765   2.959   3.260 -0.9065  1.3041 -0.5667
  115SAPE   C3712093   3.863   3.026   3.451 -0.8549 -0.6806  0.3095
  115SAPE   H7X12094   3.785   3.101   3.475 -1.4170 -1.0537 -0.3000
  115SAPE   H7Y12095   3.957   3.081   3.472 -1.3603  0.3693 -0.1259
  115SAPE   C3812096   3.845   2.903   3.551 -0.8113 -0.5487 -0.8656
  115SAPE   H8X12097   3.911   2.825   3.506 -0.1166 -0.1762 -0.4923
  115SAPE   H8Y12098   3.738   2.874   3.563 -1.4862  2.5633  2.2139
  115SAPE   C3912099   3.875   2.949   3.699  0.0108  0.0893  0.2997
  115SAPE   H9X12100   3.959   3.020   3.714 -1.6018  1.8111  1.5281
  115SAPE   H9Y12101   3.899   2.858   3.758  0.6175  0.3806  0.5120
  115SAPE  C31012102   3.751   3.017   3.767 -0.2085  0.3031 -0.7312
  115SAPE  H10X12103   3.697   3.059   3.679 -0.2153  2.3079  0.1851
  115SAPE  H10Y12104   3.779   3.104   3.831  2.1120  0.5831 -2.0140
  115SAPE  C31112105   3.657   2.930   3.859  0.3115 -0.4045 -0.3863
  115SAPE  H11X12106   3.603   2.859   3.792  0.7040 -0.7357 -0.3580
  115SAPE  H11Y12107   3.579   2.991   3.908 -0.4411 -2.6751  1.4515
  115SAPE  C31212108   3.724   2.861   3.967 -0.2694 -0.3498 -0.9881
  115SAPE  H12X12109   3.793   2.788   3.919  1.4913  0.4164  0.2671
  115SAPE  H12Y12110   3.648   2.816   4.035 -1.4947  1.0425 -1.3899
  115SAPE  C31312111   3.810   2.952   4.061  0.6392 -0.5818 -0.3004
  115SAPE  H13X12112   3.748   3.037   4.097  1.3280 -0.7782  1.4044
  115SAPE  H13Y12113   3.885   2.994   3.991 -1.5388 -1.4838 -3.4126
  115SAPE  C31412114   3.876   2.875   4.172  0.1512 -0.3389 -0.9711
  115SAPE  H14X12115   3.942   2.803   4.119 -1.8757 -1.1296 -2.5798
  115SAPE  H14Y12116   3.796   2.823   4.229  1.6730  0.4578  2.0667
  115SAPE  C31512117   3.949   2.973   4.265  0.1281  0.2099  0.9978
  115SAPE  H15X12118   3.894   3.056   4.313 -2.0197 -1.0181  0.7992
  115SAPE  H15Y12119   4.019   3.036   4.207 -1.4152 -0.4875 -1.7844
  115SAPE  C31612120   4.030   2.905   4.372  0.0996  0.0463  0.6175
  115SAPE  H16X12121   4.079   2.988   4.428 -0.6087  1.8060 -1.2546
  115SAPE  H16Y12122   4.101   2.836   4.323 -0.5338 -0.3315  0.2210
  115SAPE  C31712123   3.943   2.830   4.470  0.0287  0.0335 -0.1201
  115SAPE  H17X12124   4.009   2.775   4.541  0.2671  0.6774  0.1698
  115SAPE  H17Y12125   3.879   2.765   4.406  2.0110 -0.7286 -1.4354
  115SAPE  C31812126   3.851   2.915   4.552  0.3878 -0.6308  0.5412
  115SAPE  H18X12127   3.790   2.854   4.623  2.2954 -2.7961  0.4249
  115SAPE  H18Y12128   3.783   2.972   4.485  2.4819 -1.5058 -2.5250
  115SAPE  H18Z12129   3.912   2.984   4.614 -1.9558  0.2154  2.0726
  116SAPE     N12130   3.058   4.493   1.858 -0.6000  0.2771 -0.7609
  116SAPE   HN112131   2.967   4.496   1.908  0.7483 -0.9202  1.9768
  116SAPE   HN212132   3.118   4.437   1.922 -1.0086  0.0161 -0.6007
  116SAPE   HN312133   3.095   4.590   1.858 -1.9414  0.8058  0.2115
  116SAPE   C1212134   3.068   4.442   1.719  0.4778 -0.4640 -0.6359
  116SAPE  H12A12135   3.029   4.339   1.723 -1.1459  0.1393  2.0537
  116SAPE  H12B12136   3.175   4.435   1.690  0.2502  1.2463 -2.0419
  116SAPE   C1112137   3.002   4.539   1.610 -0.2720  0.3277 -0.3720
  116SAPE  H11A12138   2.894   4.516   1.621 -0.0696 -1.5575 -1.7929
  116SAPE  H11B12139   3.040   4.501   1.513 -2.1269 -3.4881  0.1764
  116SAPE     P12140   3.159   4.750   1.654 -0.3122 -0.2168  0.2941
  116SAPE   O1312141   3.269   4.678   1.589 -0.2890  0.3463  0.6836
  116SAPE   O1412142   3.143   4.893   1.616  0.4060  0.3732 -0.1776
  116SAPE   O1212143   3.023   4.683   1.629 -0.7925  0.3599 -0.5582
  116SAPE   O1112144   3.170   4.746   1.809  0.4223 -0.3735 -0.2792
  116SAPE    C112145   3.079   4.822   1.901 -0.8323 -0.2465  0.9107
  116SAPE    HA12146   3.039   4.913   1.852  1.6760  0.1896 -0.4846
  116SAPE    HB12147   2.996   4.753   1.929 -0.7493 -1.3173 -1.2575
  116SAPE    C212148   3.154   4.871   2.027  0.6518  0.1975 -0.3767
  116SAPE    HS12149   3.235   4.936   1.990  1.2556 -1.2898 -1.8058
  116SAPE   O2112150   3.201   4.754   2.089  0.2063  1.0053 -0.5099
  116SAPE   C2112151   3.323   4.774   2.147  0.6961  0.2559 -0.2333
  116SAPE   O2212152   3.385   4.877   2.138 -0.5292 -0.0534  0.8735
  116SAPE   C2212153   3.366   4.643   2.213 -0.5176  0.5303 -0.4047
  116SAPE   H2R12154   3.281   4.572   2.222 -0.3060  0.2395 -0.7206
  116SAPE   H2S12155   3.454   4.600   2.161 -1.5587 -4.2369  1.2467
  116SAPE    C312156   3.065   4.962   2.125 -0.2408 -0.1061 -0.0703
  116SAPE    HX12157   2.988   4.894   2.167 -0.5986  0.3902  0.0772
  116SAPE    HY12158   3.016   5.050   2.080  1.0189  0.0478 -1.2266
  116SAPE   O3112159   3.150   5.010   2.238 -0.4377 -0.6585 -0.4037
  116SAPE   C3112160   3.226   5.122   2.215 -0.4721 -0.2655 -0.4357
  116SAPE   O3212161   3.226   5.179   2.110 -0.0584 -0.2779  0.2249
  116SAPE   C3212162   3.316   5.154   2.338  0.6168  0.0625  0.4204
  116SAPE   H2X12163   3.408   5.096   2.317 -0.3277 -0.9009 -1.2843
  116SAPE   H2Y12164   3.259   5.116   2.426 -0.3322 -1.4292 -0.7921
  116SAPE   C2312165   3.415   4.675   2.356 -0.5858 -0.5130 -0.2091
  116SAPE   H3R12166   3.491   4.756   2.364  0.1964 -1.1047 -1.3325
  116SAPE   H3S12167   3.471   4.582   2.380  1.7012  0.7136 -0.4457
  116SAPE   C2412168   3.296   4.675   2.455  0.0096  0.0656  0.5120
  116SAPE   H4R12169   3.294   4.585   2.521 -1.9396 -0.9328 -0.8215
  116SAPE   H4S12170   3.205   4.664   2.392  0.8437 -0.4038 -0.6501
  116SAPE   C2512171   3.289   4.814   2.525 -0.3311 -0.6048  0.0481
  116SAPE   H5R12172   3.315   4.895   2.455 -0.6707  0.1340  0.7589
  116SAPE   C2612173   3.259   4.843   2.649 -0.2296 -0.4383 -0.1711
  116SAPE   H6R12174   3.250   4.947   2.681  1.3085 -0.8082  1.6288
  116SAPE   C2712175   3.223   4.739   2.749  0.0369 -0.1138  0.2875
  116SAPE   H7R12176   3.226   4.639   2.701  1.2754  0.6883 -1.4197
  116SAPE   H7S12177   3.116   4.756   2.772  0.4002 -0.0676  2.1243
  116SAPE   C2812178   3.315   4.739   2.870  0.2126 -0.2045 -0.2354
  116SAPE   H8R12179   3.407   4.680   2.861  1.7176  2.0970 -0.7492
  116SAPE   C2912180   3.281   4.786   2.990  0.5742  0.1059 -0.2132
  116SAPE   H9R12181   3.344   4.769   3.079 -2.5731  1.3827  2.4776
  116SAPE  C21012182   3.152   4.851   3.041 -0.0310 -0.5615  0.7248
  116SAPE  H10R12183   3.064   4.823   2.980  0.2568 -2.2974  1.0554
  116SAPE  H10S12184   3.170   4.960   3.034 -1.5245 -0.4103 -2.2722
  116SAPE  C21112185   3.111   4.814   3.180 -0.2688 -0.2230  0.2572
  116SAPE  H11R12186   3.035   4.735   3.185  0.8030 -1.2322  1.3279
  116SAPE  C21212187   3.160   4.871   3.293  0.5539  0.7675  0.3368
  116SAPE  H12R12188   3.119   4.840   3.391  0.1220 -2.8221 -0.8515
  116SAPE  C21312189   3.273   4.973   3.301 -0.0975 -0.5612  0.0217
  116SAPE  H13R12190   3.233   5.068   3.341  0.1821 -0.4268 -0.0159
  116SAPE  H13S12191   3.326   5.002   3.207  0.6251 -0.9556  0.2998
  116SAPE  C21412192   3.375   4.925   3.405  0.1346 -0.4511  0.4472
  116SAPE  H14R12193   3.454   4.859   3.366 -0.1200 -0.5104  0.0255
  116SAPE  C21512194   3.386   4.975   3.535  0.6587  0.4964  0.7077
  116SAPE  H15R12195   3.470   4.941   3.597  0.6107  1.4494  1.3091
  116SAPE  C21612196   3.296   5.078   3.604  0.3777  0.0962 -0.0023
  116SAPE  H16R12197   3.233   5.145   3.542  1.1108  2.4334  1.6250
  116SAPE  H16S12198   3.363   5.154   3.650  0.8131 -0.4805  0.3311
  116SAPE  C21712199   3.206   5.022   3.708  1.0307 -0.7879 -0.4084
  116SAPE  H17R12200   3.119   4.975   3.658 -0.2425 -0.4802  1.4365
  116SAPE  H17S12201   3.167   5.111   3.761  2.0959 -0.7389  0.3297
  116SAPE  C21812202   3.279   4.915   3.790  0.8721 -0.6009  0.0292
  116SAPE  H18R12203   3.372   4.956   3.835 -0.1742 -1.4650  3.2228
  116SAPE  H18S12204   3.300   4.824   3.729  0.0119  0.5780 -2.1526
  116SAPE  C21912205   3.178   4.881   3.903  0.2045 -0.6630  1.1516
  116SAPE  H19R12206   3.101   4.815   3.857 -2.5983  1.3723  2.6613
  116SAPE  H19S12207   3.136   4.979   3.935  2.1020  0.3275  0.7676
  116SAPE  C22012208   3.260   4.823   4.025  0.2122 -0.0012  0.0686
  116SAPE  H20R12209   3.341   4.761   3.982  0.7628  0.9026 -0.2105
  116SAPE  H20S12210   3.204   4.761   4.098  0.4332  0.0680  0.2996
  116SAPE  H20T12211   3.303   4.909   4.081 -2.5161  0.9966  0.7988
  116SAPE   C3312212   3.331   5.314   2.352  0.6225  0.2615 -0.0687
  116SAPE   H3X12213   3.226   5.349   2.358  0.7028  1.3267 -3.3648
  116SAPE   H3Y12214   3.384   5.353   2.263  1.9618 -2.6158 -0.6681
  116SAPE   C3412215   3.415   5.358   2.476  0.3386 -0.2073  0.0653
  116SAPE   H4X12216   3.446   5.464   2.472  0.2320 -0.2149 -1.5625
  116SAPE   H4Y12217   3.513   5.307   2.466  1.0642  1.1732  0.0028
  116SAPE   C3512218   3.345   5.332   2.609  0.0100 -0.2646 -0.0255
  116SAPE   H5X12219   3.330   5.223   2.598  0.9363 -0.2391 -1.9914
  116SAPE   H5Y12220   3.243   5.376   2.616 -0.3077 -1.0621  0.5184
  116SAPE   C3612221   3.422   5.361   2.739 -0.8074  0.0336  0.1052
  116SAPE   H6X12222   3.438   5.471   2.740  1.4995 -0.1359 -2.9280
  116SAPE   H6Y12223   3.528   5.327   2.732 -0.7918  0.2416 -0.8133
  116SAPE   C3712224   3.345   5.307   2.856  0.0263 -0.5841  0.1711
  116SAPE   H7X12225   3.372   5.202   2.882  0.2267 -0.4588  0.4680
  116SAPE   H7Y12226   3.237   5.311   2.830 -0.1498  0.5816  1.0108
  116SAPE   C3812227   3.373   5.379   2.993 -0.0370 -0.2259  0.5255
  116SAPE   H8X12228   3.352   5.488   2.982 -1.7264 -0.0224  4.3579
  116SAPE   H8Y12229   3.480   5.362   3.019 -0.0671 -1.0313  0.1384
  116SAPE   C3912230   3.281   5.319   3.101 -0.3865  0.6440 -0.1748
  116SAPE   H9X12231   3.324   5.220   3.126 -0.8369  0.7360  1.0100
  116SAPE   H9Y12232   3.178   5.309   3.060 -1.0056 -1.1903  1.6401
  116SAPE  C31012233   3.276   5.404   3.230  0.1218 -0.0699  0.1378
  116SAPE  H10X12234   3.192   5.364   3.290  0.0495  0.4914  0.4183
  116SAPE  H10Y12235   3.235   5.503   3.200  1.2744  0.9665  1.7886
  116SAPE  C31112236   3.406   5.403   3.311 -0.3216  0.3409 -0.7157
  116SAPE  H11X12237   3.493   5.453   3.264 -0.0190 -1.5661 -2.3073
  116SAPE  H11Y12238   3.443   5.300   3.330  0.5141  0.5001 -1.4049
  116SAPE  C31212239   3.368   5.452   3.460 -0.1215 -0.6711 -0.1965
  116SAPE  H12X12240   3.278   5.396   3.490 -1.4495  0.8111 -1.2338
  116SAPE  H12Y12241   3.317   5.550   3.454  1.6289  0.3199  0.2634
  116SAPE  C31312242   3.492   5.443   3.559  1.3019 -0.1844 -0.6830
  116SAPE  H13X12243   3.572   5.517   3.540 -0.1430  1.5380 -0.3405
  116SAPE  H13Y12244   3.531   5.340   3.568  1.2277 -0.3471 -1.9741
  116SAPE  C31412245   3.437   5.473   3.702  0.0264 -0.8065 -0.1156
  116SAPE  H14X12246   3.347   5.410   3.721 -0.5722  0.2728  0.7420
  116SAPE  H14Y12247   3.387   5.571   3.691  1.0970 -0.4010 -1.6162
  116SAPE  C31512248   3.539   5.454   3.819  0.2730  0.0070 -0.1390
  116SAPE  H15X12249   3.574   5.348   3.828 -0.4471 -0.0369  2.9472
  116SAPE  H15Y12250   3.489   5.465   3.917  0.7105  1.3708 -0.0526
  116SAPE  C31612251   3.653   5.555   3.807 -0.7278 -0.4417 -0.2773
  116SAPE  H16X12252   3.603   5.649   3.775 -2.2385 -0.2739  2.2880
  116SAPE  H16Y12253   3.720   5.524   3.723  0.8272 -1.9080  1.4170
  116SAPE  C31712254   3.725   5.565   3.935 -0.3540  0.1266 -0.6022
  116SAPE  H17X12255   3.778   5.470   3.958  1.0217  0.7833 -0.9702
  116SAPE  H17Y12256   3.647   5.572   4.014 -0.2985  1.5900 -0.6637
  116SAPE  C31812257   3.814   5.694   3.948 -0.6908  0.5524  0.5845
  116SAPE  H18X12258   3.887   5.694   3.865 -1.8834  1.8406 -0.5226
  116SAPE  H18Y12259   3.867   5.701   4.045 -0.1538 -1.9244  0.5341
  116SAPE  H18Z12260   3.749   5.780   3.920 -0.5912 -0.8468 -5.1760
  117SOPE     N12261   2.102   3.478   6.434  0.1765 -0.6273 -0.2038
  117SOPE   HN112262   2.171   3.555   6.444 -0.2956 -0.3111  0.7596
  117SOPE   HN212263   2.118   3.404   6.506 -2.7161 -1.3226 -0.1668
  117SOPE   HN312264   2.114   3.435   6.340 -0.9633  0.5722 -0.9231
  117SOPE   C1212265   1.968   3.545   6.445 -0.5566 -0.0034 -0.1991
  117SOPE  H12A12266   1.963   3.613   6.357 -0.1588  0.5452  0.1952
  117SOPE  H12B12267   1.969   3.600   6.541 -0.2322  1.8346 -1.2036
  117SOPE   C1112268   1.856   3.432   6.453 -0.4420 -0.3713 -0.0789
  117SOPE  H11A12269   1.847   3.374   6.359 -1.4129 -2.9764  1.4787
  117SOPE  H11B12270   1.760   3.479   6.483 -0.5394 -0.6966  0.1407
  117SOPE     P12271   1.833   3.202   6.576  0.0108  0.2072 -0.2684
  117SOPE   O1312272   1.855   3.166   6.719  0.5985 -0.2090 -0.3687
  117SOPE   O1412273   1.874   3.101   6.476  0.3254 -0.2541  0.4860
  117SOPE   O1212274   1.910   3.340   6.553 -0.5119 -0.6827  0.0076
  117SOPE   O1112275   1.684   3.249   6.558  0.1593 -0.2404  0.0878
  117SOPE    C112276   1.586   3.146   6.510  0.9654  0.4056  0.3392
  117SOPE    HA12277   1.496   3.153   6.574  0.9740 -0.7878  0.5069
  117SOPE    HB12278   1.618   3.040   6.521 -0.2039  0.0238  0.1407
  117SOPE    C212279   1.542   3.173   6.361  0.1115  0.3723 -0.0654
  117SOPE    HS12280   1.492   3.083   6.319 -1.1488  0.1706  1.7330
  117SOPE   O2112281   1.656   3.210   6.279 -0.2903 -0.7383 -0.1552
  117SOPE   C2112282   1.712   3.111   6.225  0.2013  0.3153  0.2218
  117SOPE   O2212283   1.694   2.992   6.255 -0.3881  0.3038 -0.4654
  117SOPE   C2212284   1.793   3.157   6.104  0.6545  0.2984 -0.7996
  117SOPE   H2R12285   1.878   3.224   6.127  0.0239  0.8936 -0.1569
  117SOPE   H2S12286   1.720   3.206   6.036 -1.9972 -0.9007  0.9667
  117SOPE    C312287   1.434   3.289   6.350 -0.4255 -0.9230 -0.2642
  117SOPE    HX12288   1.494   3.375   6.388  0.2921 -1.4105 -0.2745
  117SOPE    HY12289   1.349   3.286   6.422  0.4652  2.4308  1.1383
  117SOPE   O3112290   1.395   3.326   6.217  0.3143 -0.1905  0.2128
  117SOPE   C3112291   1.307   3.245   6.163  0.6079  0.6910  0.1437
  117SOPE   O3212292   1.258   3.147   6.220  0.5359  0.0094  0.0464
  117SOPE   C3212293   1.282   3.293   6.019  0.3634 -0.1573 -0.1340
  117SOPE   H2X12294   1.270   3.403   6.025 -1.8145 -0.4345  2.4661
  117SOPE   H2Y12295   1.182   3.251   5.994 -0.2983 -0.5428  2.7744
  117SOPE   C2312296   1.859   3.040   6.024  0.4595  0.0340 -0.0301
  117SOPE   H3R12297   1.780   2.964   6.009 -1.8381  1.4028  3.6193
  117SOPE   H3S12298   1.932   2.990   6.091  1.2078  0.6435 -0.3782
  117SOPE   C2412299   1.920   3.076   5.888 -0.2377 -0.9566  0.9629
  117SOPE   H4R12300   1.837   3.137   5.848  1.6557  0.8580 -0.4489
  117SOPE   H4S12301   2.003   3.148   5.907  0.1326 -0.3191 -2.5163
  117SOPE   C2512302   1.976   2.960   5.799 -0.4422 -0.0330  0.4923
  117SOPE   H5R12303   2.048   2.896   5.854  1.6983  1.9474  0.1709
  117SOPE   H5S12304   1.893   2.895   5.764 -0.6288 -0.1024  1.0533
  117SOPE   C2612305   2.055   3.011   5.666 -0.7050  0.1153 -0.2507
  117SOPE   H6R12306   2.165   3.023   5.678 -0.9894  2.7061  0.3964
  117SOPE   H6S12307   2.057   2.926   5.594 -1.6452 -1.5529  1.6145
  117SOPE   C2712308   1.984   3.131   5.601 -0.1223  0.0737 -0.7641
  117SOPE   H7R12309   1.873   3.138   5.605 -0.1115 -0.1245  0.3746
  117SOPE   H7S12310   2.027   3.224   5.644 -1.1744  0.6221 -0.8708
  117SOPE   C2812311   2.036   3.152   5.457 -0.5065 -0.5682  0.2515
  117SOPE   H8R12312   2.048   3.259   5.431  1.3239 -1.2818 -2.1108
  117SOPE   H8S12313   2.141   3.116   5.459  0.1622  1.2993  0.4779
  117SOPE   C2912314   1.954   3.084   5.359  0.3085 -0.4068 -0.6045
  117SOPE   H9112315   1.940   2.980   5.391  1.4886 -0.6249 -0.7511
  117SOPE  C21012316   1.900   3.135   5.245 -0.5010  0.1934 -0.4592
  117SOPE  H10112317   1.827   3.078   5.185 -1.2889  1.0071 -0.2924
  117SOPE  C21112318   1.913   3.277   5.196  0.2517  0.4927 -0.5212
  117SOPE  H11R12319   2.023   3.294   5.191  0.2790  1.0408  1.3545
  117SOPE  H11S12320   1.866   3.339   5.275 -1.9254 -1.0073 -0.5565
  117SOPE  C21212321   1.841   3.318   5.070 -0.1821  0.0899 -0.5519
  117SOPE  H12R12322   1.848   3.428   5.081 -1.2190 -0.0696  3.0182
  117SOPE  H12S12323   1.734   3.290   5.082  0.2107 -0.7342  1.5597
  117SOPE  C21312324   1.894   3.258   4.941 -0.1319 -0.0161  0.9584
  117SOPE  H13R12325   1.877   3.149   4.932 -1.3294 -0.1271  3.4961
  117SOPE  H13S12326   2.004   3.270   4.938 -0.1075 -0.4971 -0.5122
  117SOPE  C21412327   1.835   3.321   4.810 -0.4416  0.1118  0.1058
  117SOPE  H14R12328   1.781   3.413   4.840  2.1231  1.0435  2.2248
  117SOPE  H14S12329   1.771   3.245   4.760 -1.2197  1.0591 -0.3705
  117SOPE  C21512330   1.945   3.369   4.710  0.3356 -0.2124 -0.3568
  117SOPE  H15R12331   2.018   3.423   4.773 -0.8957 -1.3783  2.2226
  117SOPE  H15S12332   1.884   3.440   4.650 -0.9294  0.7775  1.9838
  117SOPE  C21612333   2.006   3.256   4.625 -0.5887 -0.2450 -0.0162
  117SOPE  H16R12334   2.053   3.313   4.542  0.3725 -0.9365  0.0452
  117SOPE  H16S12335   1.919   3.203   4.579  0.1242 -0.0807 -1.6345
  117SOPE  C21712336   2.108   3.158   4.685  0.3401  0.2239 -0.6866
  117SOPE  H17R12337   2.049   3.097   4.757  0.9802 -1.3192 -1.4314
  117SOPE  H17S12338   2.185   3.209   4.747 -0.3567 -1.5369  1.7927
  117SOPE  C21812339   2.179   3.076   4.579  0.2573 -0.6877  0.0125
  117SOPE  H18R12340   2.250   3.136   4.518  1.4745 -0.2840  1.7489
  117SOPE  H18S12341   2.100   3.041   4.508  0.0046 -2.5841  1.1726
  117SOPE  H18T12342   2.229   2.994   4.634  1.3765 -1.3368 -1.8470
  117SOPE   C3312343   1.392   3.244   5.924 -0.1463  0.3806 -0.2721
  117SOPE   H3X12344   1.385   3.134   5.915  1.9981 -0.0868  2.5401
  117SOPE   H3Y12345   1.497   3.255   5.958 -0.4067 -0.1703  0.7515
  117SOPE   C3412346   1.374   3.313   5.789 -0.8202 -0.8309  1.0617
  117SOPE   H4X12347   1.466   3.290   5.730 -2.2264 -0.6339 -1.3336
  117SOPE   H4Y12348   1.374   3.423   5.799 -2.4024 -0.6721 -0.3168
  117SOPE   C3512349   1.250   3.276   5.714 -0.4742  0.8429 -0.3576
  117SOPE   H5X12350   1.162   3.267   5.782  0.6250 -1.4912  0.8631
  117SOPE   H5Y12351   1.270   3.176   5.671 -0.1976 -0.1085  1.8547
  117SOPE   C3612352   1.209   3.364   5.603  0.5024  0.0047  0.4592
  117SOPE   H6X12353   1.304   3.387   5.550 -0.4056  0.9666 -0.8317
  117SOPE   H6Y12354   1.159   3.458   5.634  2.6928  1.2376  0.4521
  117SOPE   C3712355   1.112   3.290   5.507  0.4013  0.2563 -0.0056
  117SOPE   H7X12356   1.029   3.246   5.567  1.0647 -0.1925  0.6137
  117SOPE   H7Y12357   1.155   3.198   5.461 -0.9281  0.4549 -1.7318
  117SOPE   C3812358   1.046   3.366   5.398  0.4477 -0.1621  0.1492
  117SOPE   H8X12359   0.996   3.457   5.437 -2.3219 -1.7737  0.5973
  117SOPE   H8Y12360   0.960   3.312   5.353  2.1352 -0.9229 -2.4310
  117SOPE   C3912361   1.129   3.389   5.279 -0.8132  0.0872  0.5621
  117SOPE   H9X12362   1.165   3.295   5.232 -3.4073 -1.0208  0.6460
  117SOPE   H9Y12363   1.217   3.457   5.289  0.2520 -1.1567 -0.1499
  117SOPE  C31012364   1.052   3.449   5.168  0.1610  0.0369 -0.6455
  117SOPE  H10X12365   0.995   3.536   5.206  0.0727 -0.9215  1.5298
  117SOPE  H10Y12366   0.975   3.375   5.136 -0.1945  1.1018 -2.4077
  117SOPE  C31112367   1.134   3.479   5.044 -0.4094 -0.3934  0.2240
  117SOPE  H11X12368   1.191   3.385   5.030 -3.1214 -1.9726 -0.8517
  117SOPE  H11Y12369   1.204   3.563   5.063 -1.9317  0.8418  0.5525
  117SOPE  C31212370   1.037   3.524   4.934 -0.9920 -0.1676 -0.3838
  117SOPE  H12X12371   0.995   3.618   4.978 -0.0607  0.3218 -0.5221
  117SOPE  H12Y12372   0.953   3.452   4.929 -0.9793 -0.2405  0.3135
  117SOPE  C31312373   1.102   3.552   4.791 -0.0888 -0.3518 -0.7011
  117SOPE  H13X12374   1.182   3.484   4.752  0.3097 -0.1292 -0.2828
  117SOPE  H13Y12375   1.139   3.656   4.796  2.0571 -1.0429 -1.0302
  117SOPE  C31412376   0.998   3.552   4.677  0.3048  0.2013  0.5128
  117SOPE  H14X12377   0.914   3.620   4.700 -0.0304 -0.6056  1.7342
  117SOPE  H14Y12378   0.969   3.449   4.649  2.5610  0.4911 -3.8774
  117SOPE  C31512379   1.058   3.611   4.535  0.1947 -0.5744 -0.5188
  117SOPE  H15X12380   1.168   3.598   4.543  0.3680  1.0456  0.2800
  117SOPE  H15Y12381   1.042   3.721   4.536 -2.7610 -0.8647  2.1337
  117SOPE  C31612382   0.988   3.563   4.410 -0.3554 -0.3213 -0.5893
  117SOPE  H16X12383   0.886   3.605   4.416 -0.1849  0.0808 -0.4434
  117SOPE  H16Y12384   0.983   3.452   4.418 -0.2548 -0.2912 -0.0126
  117SOPE  C31712385   1.059   3.598   4.281 -0.3904 -0.8214  0.6790
  117SOPE  H17X12386   1.164   3.561   4.281  0.9804  2.6283 -1.0602
  117SOPE  H17Y12387   1.067   3.706   4.256  3.7572 -1.6118 -2.5479
  117SOPE  C31812388   0.989   3.528   4.165 -0.1464  0.0804 -0.8786
  117SOPE  H18X12389   0.883   3.561   4.157 -0.7249 -1.7360 -1.1542
  117SOPE  H18Y12390   0.988   3.419   4.181  0.0246  0.5511  3.5595
  117SOPE  H18Z12391   1.045   3.547   4.071 -0.2698  1.6539 -0.6759
  118SOPE     N12392   1.912   4.302   6.645 -0.7773  0.3975  0.2853
  118SOPE   HN112393   1.883   4.398   6.673  1.4218  1.1004  0.3011
  118SOPE   HN212394   1.833   4.238   6.624  1.1555 -2.4354  1.1964
  118SOPE   HN312395   1.961   4.261   6.726  1.3032  1.3209 -0.4295
  118SOPE   C1212396   1.989   4.310   6.521 -0.2671 -0.4321  0.0481
  118SOPE  H12A12397   1.981   4.414   6.484 -0.0611 -1.4276 -2.9998
  118SOPE  H12B12398   1.940   4.247   6.443 -2.2891  0.4916  0.5034
  118SOPE   C1112399   2.136   4.266   6.545 -0.2518  0.1897 -0.3878
  118SOPE  H11A12400   2.192   4.332   6.614  1.2682  0.8368 -2.1596
  118SOPE  H11B12401   2.202   4.266   6.456  0.2752 -0.3702 -0.0095
  118SOPE     P12402   2.261   4.033   6.558 -0.2448 -0.1965 -0.3230
  118SOPE   O1312403   2.230   3.906   6.624 -0.2571  0.6085 -0.3018
  118SOPE   O1412404   2.387   4.098   6.599  0.2555 -0.1661  0.4183
  118SOPE   O1212405   2.147   4.134   6.600  0.1524  0.5841 -0.2919
  118SOPE   O1112406   2.242   4.022   6.404  0.0597  0.3022 -0.1052
  118SOPE    C112407   2.343   4.079   6.318  0.6721 -0.5662  0.2269
  118SOPE    HA12408   2.440   4.115   6.360 -0.2598  0.6676  1.4256
  118SOPE    HB12409   2.290   4.162   6.267 -0.2402 -1.9912 -1.2354
  118SOPE    C212410   2.382   3.989   6.192  0.5343 -0.5710  0.1737
  118SOPE    HS12411   2.454   4.042   6.126 -2.0597  1.1364 -1.4982
  118SOPE   O2112412   2.267   3.952   6.113 -0.0871 -0.3484  0.1970
  118SOPE   C2112413   2.245   4.008   5.999 -0.1247 -0.7005 -0.1351
  118SOPE   O2212414   2.314   4.098   5.946  0.3885  0.5377 -0.3940
  118SOPE   C2212415   2.110   3.956   5.947 -0.1588 -0.0493  0.1631
  118SOPE   H2R12416   2.028   4.031   5.945 -1.7156 -1.6645  0.2373
  118SOPE   H2S12417   2.085   3.865   6.006 -0.3466  0.9035  1.5990
  118SOPE    C312418   2.460   3.860   6.238  0.0280  0.0550 -0.3301
  118SOPE    HX12419   2.401   3.831   6.328 -0.7251  0.3570 -0.7153
  118SOPE    HY12420   2.562   3.898   6.261 -0.0956  0.5323 -0.5726
  118SOPE   O3112421   2.461   3.744   6.145  0.2915 -0.4027 -0.8020
  118SOPE   C3112422   2.539   3.767   6.035 -0.3647  0.0528  0.7460
  118SOPE   O3212423   2.580   3.878   6.004 -0.3116 -0.2558  0.3017
  118SOPE   C3212424   2.558   3.645   5.950  0.2322  0.1218  0.6195
  118SOPE   H2X12425   2.558   3.554   6.015 -0.2181  1.0651  1.9853
  118SOPE   H2Y12426   2.658   3.659   5.903 -0.5716 -0.8255 -1.4570
  118SOPE   C2312427   2.114   3.905   5.803 -0.0717 -0.0611  0.4744
  118SOPE   H3R12428   2.015   3.857   5.785 -0.2531 -0.0396  1.3435
  118SOPE   H3S12429   2.187   3.823   5.790 -1.5262 -0.9921 -2.8449
  118SOPE   C2412430   2.126   4.020   5.698 -0.0353 -0.4226 -0.8023
  118SOPE   H4R12431   2.057   4.104   5.719  0.9150  0.2955 -0.4446
  118SOPE   H4S12432   2.222   4.075   5.707 -1.0489  1.4287 -0.7297
  118SOPE   C2512433   2.106   3.982   5.550 -0.4799  0.1195  0.2773
  118SOPE   H5R12434   2.184   3.904   5.538  0.2202  1.1481 -2.5436
  118SOPE   H5S12435   2.006   3.938   5.532 -0.7014  0.5976  0.3279
  118SOPE   C2612436   2.120   4.102   5.456  0.3728  0.6190  0.1407
  118SOPE   H6R12437   2.045   4.173   5.497 -0.2806 -0.4487  0.8433
  118SOPE   H6S12438   2.213   4.160   5.474 -1.0155  2.5003  1.7234
  118SOPE   C2712439   2.102   4.078   5.307  0.1298 -0.1183  0.1432
  118SOPE   H7R12440   2.185   4.011   5.276  0.7097  1.5582 -2.1986
  118SOPE   H7S12441   2.004   4.025   5.311 -1.6820  3.0351  0.7010
  118SOPE   C2812442   2.092   4.195   5.212  0.4027  0.3312  0.7178
  118SOPE   H8R12443   2.053   4.159   5.114 -0.6099  2.3807  0.3164
  118SOPE   H8S12444   2.018   4.266   5.257 -0.3102  0.5478 -0.7437
  118SOPE   C2912445   2.220   4.275   5.194  0.3576 -0.3540  0.3183
  118SOPE   H9112446   2.253   4.341   5.276 -1.6454  0.1818  0.7287
  118SOPE  C21012447   2.286   4.288   5.079 -0.4826  0.3009 -0.6826
  118SOPE  H10112448   2.391   4.318   5.095 -0.8536  0.8987  0.7686
  118SOPE  C21112449   2.243   4.206   4.960 -0.0871  0.4498  0.2524
  118SOPE  H11R12450   2.142   4.238   4.927 -0.4100 -0.8137  0.0016
  118SOPE  H11S12451   2.234   4.100   4.989 -2.9390 -0.0198 -1.9133
  118SOPE  C21212452   2.337   4.208   4.843 -0.3133 -0.0586  0.2205
  118SOPE  H12R12453   2.302   4.133   4.770 -2.7759  0.9313  0.2768
  118SOPE  H12S12454   2.441   4.179   4.869 -0.3073 -1.1767 -0.9671
  118SOPE  C21312455   2.365   4.348   4.787 -0.0906 -0.2002 -0.4231
  118SOPE  H13R12456   2.404   4.421   4.861  1.5238 -1.5524  0.1163
  118SOPE  H13S12457   2.267   4.383   4.748 -1.8637 -1.4220  2.5443
  118SOPE  C21412458   2.465   4.353   4.665 -0.4320 -0.3752  0.2693
  118SOPE  H14R12459   2.474   4.455   4.621 -0.7384 -1.0024 -1.2863
  118SOPE  H14S12460   2.427   4.279   4.591 -0.4961  0.2453 -0.3275
  118SOPE  C21512461   2.614   4.326   4.703  0.4936 -0.0127 -0.3267
  118SOPE  H15R12462   2.642   4.219   4.697  1.8454  0.3435 -0.8478
  118SOPE  H15S12463   2.626   4.367   4.806  3.0080 -0.3539 -0.4191
  118SOPE  C21612464   2.725   4.392   4.614  0.0826 -0.0189  0.8654
  118SOPE  H16R12465   2.817   4.381   4.674  1.1285 -0.0687 -0.6728
  118SOPE  H16S12466   2.706   4.500   4.597  0.3364 -0.3095 -1.7407
  118SOPE  C21712467   2.765   4.331   4.480 -0.2529 -0.4794  0.3109
  118SOPE  H17R12468   2.698   4.370   4.401  0.4091  1.3421  0.5886
  118SOPE  H17S12469   2.748   4.223   4.495 -1.5610 -0.3031  0.1476
  118SOPE  C21812470   2.907   4.369   4.437  0.3094 -0.0433  0.5290
  118SOPE  H18R12471   2.975   4.351   4.523  0.8993  0.3036  0.1432
  118SOPE  H18S12472   2.905   4.476   4.409  0.7980  0.1709  1.2864
  118SOPE  H18T12473   2.937   4.313   4.346  0.1848  0.3631  0.2353
  118SOPE   C3312474   2.453   3.655   5.845  0.1195  0.1556 -0.1475
  118SOPE   H3X12475   2.475   3.753   5.797  0.9421 -0.1439 -0.4145
  118SOPE   H3Y12476   2.353   3.662   5.891 -0.7162 -2.3590 -1.3830
  118SOPE   C3412477   2.463   3.546   5.739 -0.0128  0.3140  0.5384
  118SOPE   H4X12478   2.438   3.445   5.778  2.0433 -0.6449 -0.4524
  118SOPE   H4Y12479   2.568   3.546   5.701  0.6617 -0.9150  2.2664
  118SOPE   C3512480   2.369   3.577   5.625  0.0864  0.8277 -0.8162
  118SOPE   H5X12481   2.382   3.677   5.577 -0.0672  1.1765 -0.1469
  118SOPE   H5Y12482   2.265   3.560   5.659  1.2438 -0.5514  2.4189
  118SOPE   C3612483   2.384   3.480   5.502  0.5663 -0.4108 -0.4365
  118SOPE   H6X12484   2.391   3.375   5.537 -4.2417 -1.9858 -3.2700
  118SOPE   H6Y12485   2.477   3.499   5.446  1.4665 -0.8803  0.8486
  118SOPE   C3712486   2.263   3.475   5.426 -0.3393  0.3173 -1.0678
  118SOPE   H7X12487   2.170   3.468   5.485 -1.3919  4.5205 -1.9176
  118SOPE   H7Y12488   2.262   3.384   5.361 -2.5321 -0.0550 -0.5604
  118SOPE   C3812489   2.252   3.599   5.332  0.8817  0.3263 -0.5410
  118SOPE   H8X12490   2.335   3.608   5.260  2.8705  0.1117  1.5917
  118SOPE   H8Y12491   2.257   3.689   5.397 -0.6135  0.1357 -0.1209
  118SOPE   C3912492   2.109   3.594   5.267 -0.1984  0.8476 -0.0446
  118SOPE   H9X12493   2.044   3.576   5.356  0.8190  1.8648  0.9490
  118SOPE   H9Y12494   2.096   3.508   5.198 -1.1508  1.5685 -0.7826
  118SOPE  C31012495   2.056   3.720   5.204  0.1184  0.8832 -0.1339
  118SOPE  H10X12496   2.098   3.811   5.252  0.2202  0.8982 -0.2501
  118SOPE  H10Y12497   1.945   3.717   5.213  0.0023 -1.5671 -1.3048
  118SOPE  C31112498   2.094   3.718   5.054 -0.6418 -0.5750  0.0302
  118SOPE  H11X12499   2.058   3.627   5.000 -0.2192  0.5801 -2.3413
  118SOPE  H11Y12500   2.203   3.724   5.034 -0.7458 -2.9801 -1.7319
  118SOPE  C31212501   2.039   3.845   4.980  0.4219 -0.3652  0.6468
  118SOPE  H12X12502   2.082   3.931   5.036 -1.4531 -0.6909  2.7292
  118SOPE  H12Y12503   1.929   3.839   4.993  0.4997 -0.0597  1.5205
  118SOPE  C31312504   2.080   3.839   4.828  0.1040 -0.2048 -0.1771
  118SOPE  H13X12505   2.064   3.738   4.784  1.1631 -0.8908  0.9637
  118SOPE  H13Y12506   2.190   3.857   4.827  0.4722 -2.2526 -0.4722
  118SOPE  C31412507   2.006   3.945   4.749 -0.3307  0.1920  0.8503
  118SOPE  H14X12508   2.024   4.050   4.780 -1.0183  0.4872  0.2847
  118SOPE  H14Y12509   1.896   3.933   4.764 -0.5934  0.8332 -0.4015
  118SOPE  C31512510   2.035   3.932   4.599  1.5599  0.1166  0.5296
  118SOPE  H15X12511   1.963   4.001   4.551  1.0572 -0.8353 -0.1270
  118SOPE  H15Y12512   2.012   3.830   4.561 -2.1389 -0.0469  2.7832
  118SOPE  C31612513   2.178   3.979   4.559 -0.0216  0.0337  0.3672
  118SOPE  H16X12514   2.248   3.899   4.591  0.3422 -0.4048 -1.3917
  118SOPE  H16Y12515   2.207   4.076   4.604 -1.0260  2.4403 -3.6540
  118SOPE  C31712516   2.185   4.010   4.405  0.2331 -0.1518 -0.7254
  118SOPE  H17X12517   2.276   4.063   4.372 -0.4460  0.4361 -1.7131
  118SOPE  H17Y12518   2.089   4.063   4.384  0.7596  1.3345  0.4800
  118SOPE  C31812519   2.176   3.881   4.323 -0.0062 -0.1962 -0.7577
  118SOPE  H18X12520   2.179   3.906   4.215  0.9518  1.3005 -0.4147
  118SOPE  H18Y12521   2.091   3.811   4.340  1.0017 -1.0542  1.0527
  118SOPE  H18Z12522   2.263   3.814   4.341 -0.6881 -1.5899 -2.3753
  119SOPE     N12523   4.957   4.089   7.003 -0.5640  0.5059  0.2556
  119SOPE   HN112524   4.908   4.177   7.026 -1.0372  0.2525  0.2298
  119SOPE   HN212525   4.981   4.105   6.903  0.6428  0.8143  0.5779
  119SOPE   HN312526   4.885   4.015   7.015  1.2518 -1.2564  0.9567
  119SOPE   C1212527   5.083   4.050   7.080  0.3221  0.6496  0.7264
  119SOPE  H12A12528   5.052   4.055   7.187 -1.3942 -0.6990  0.3481
  119SOPE  H12B12529   5.176   4.109   7.067  2.4815 -2.6752 -0.5259
  119SOPE   C1112530   5.117   3.904   7.048  0.3504  0.5328 -0.0818
  119SOPE  H11A12531   5.029   3.843   7.077  1.2936 -1.2829 -0.8983
  119SOPE  H11B12532   5.198   3.872   7.117  1.2024  0.2071 -1.2038
  119SOPE     P12533   5.077   3.791   6.820 -0.1433 -0.2993 -0.1126
  119SOPE   O1312534   4.939   3.846   6.795  0.4359  0.2155 -0.8605
  119SOPE   O1412535   5.096   3.658   6.880 -0.3062  0.1176 -0.2758
  119SOPE   O1212536   5.154   3.890   6.911 -0.5148 -0.3129 -0.5803
  119SOPE   O1112537   5.164   3.804   6.681  0.2706  0.2767 -0.1136
  119SOPE    C112538   5.298   3.773   6.686  0.4125  0.2774  0.5127
  119SOPE    HA12539   5.339   3.729   6.780 -0.3135  0.1094  0.7554
  119SOPE    HB12540   5.361   3.862   6.664 -0.4536  0.7833 -0.0042
  119SOPE    C212541   5.333   3.664   6.586 -0.5640 -0.3811  0.2001
  119SOPE    HS12542   5.443   3.662   6.604  0.1227  3.4377 -2.3656
  119SOPE   O2112543   5.287   3.690   6.451  0.4029 -0.4969  0.0549
  119SOPE   C2112544   5.341   3.786   6.386  0.0254  0.4615 -0.2322
  119SOPE   O2212545   5.428   3.858   6.431  0.3233  0.2400 -0.0337
  119SOPE   C2212546   5.267   3.818   6.258 -0.1612  0.0039  0.0573
  119SOPE   H2R12547   5.281   3.927   6.243 -0.8331  0.0695 -0.1246
  119SOPE   H2S12548   5.161   3.784   6.254 -0.3881  0.7927 -1.6398
  119SOPE    C312549   5.272   3.529   6.628  0.1516  0.4293 -0.1212
  119SOPE    HX12550   5.163   3.537   6.651 -0.3090  0.5687 -2.1495
  119SOPE    HY12551   5.316   3.496   6.724  1.6009 -1.7305 -1.4625
  119SOPE   O3112552   5.286   3.424   6.525  0.8194  0.7790  0.0243
  119SOPE   C3112553   5.178   3.408   6.453 -0.6189  1.3390  0.6166
  119SOPE   O3212554   5.065   3.441   6.474 -0.2452 -0.0451 -0.1606
  119SOPE   C3212555   5.216   3.333   6.322 -0.1502  0.3149  0.0227
  119SOPE   H2X12556   5.228   3.223   6.333  1.1232  0.3685 -0.6282
  119SOPE   H2Y12557   5.312   3.379   6.290  0.6388 -0.0496  1.7586
  119SOPE   C2312558   5.341   3.750   6.132  0.3304  0.2825 -0.2652
  119SOPE   H3R12559   5.347   3.640   6.150  0.0078  0.2664 -0.2408
  119SOPE   H3S12560   5.444   3.785   6.109  1.3029 -1.8776  0.5269
  119SOPE   C2412561   5.249   3.764   6.009  0.2908  0.0957  0.3492
  119SOPE   H4R12562   5.150   3.713   6.022  1.7387 -2.8522  0.8250
  119SOPE   H4S12563   5.231   3.872   5.993  0.0903 -0.1625 -1.3587
  119SOPE   C2512564   5.323   3.710   5.888 -0.0042  0.1615 -0.0599
  119SOPE   H5R12565   5.413   3.772   5.870 -1.8324  3.3244  0.8322
  119SOPE   H5S12566   5.355   3.605   5.901  3.2062  1.0557  0.0469
  119SOPE   C2612567   5.240   3.733   5.753 -0.5240 -0.9076 -0.3347
  119SOPE   H6R12568   5.138   3.691   5.769 -0.9294  0.1765 -0.0177
  119SOPE   H6S12569   5.227   3.842   5.742  0.6232 -0.4210  2.3962
  119SOPE   C2712570   5.306   3.678   5.632 -0.0375  0.0740  0.5759
  119SOPE   H7R12571   5.404   3.730   5.616  0.5203 -0.7497  1.2490
  119SOPE   H7S12572   5.329   3.570   5.638 -0.2492 -0.0270 -0.2708
  119SOPE   C2812573   5.220   3.686   5.499  0.3303 -0.4044 -0.0305
  119SOPE   H8R12574   5.191   3.793   5.492  0.4603 -0.2739  1.3017
  119SOPE   H8S12575   5.292   3.659   5.418  0.1517  0.8607 -0.6370
  119SOPE   C2912576   5.100   3.593   5.494  0.0657  0.5860  0.1124
  119SOPE   H9112577   5.040   3.577   5.585  0.3443 -0.3699  0.1406
  119SOPE  C21012578   5.052   3.537   5.382 -0.3865  0.7421  0.0233
  119SOPE  H10112579   4.963   3.471   5.384 -0.2796  0.5407 -1.1081
  119SOPE  C21112580   5.108   3.538   5.246 -0.2647  0.3027  1.1517
  119SOPE  H11R12581   5.119   3.439   5.196 -1.7757  1.4612 -1.7546
  119SOPE  H11S12582   5.210   3.581   5.246 -0.0637 -0.1544  2.4669
  119SOPE  C21212583   5.023   3.628   5.148  0.1879 -0.4209 -0.0684
  119SOPE  H12R12584   4.999   3.713   5.215 -0.3703 -1.1889  0.7288
  119SOPE  H12S12585   4.925   3.586   5.118  0.5870 -1.6765  0.2764
  119SOPE  C21312586   5.103   3.677   5.032 -0.0721 -0.1838 -0.5535
  119SOPE  H13R12587   5.192   3.737   5.060 -0.5606  0.7816 -1.0237
  119SOPE  H13S12588   5.035   3.749   4.981  0.4135  0.5047 -0.2404
  119SOPE  C21412589   5.140   3.570   4.924 -0.2483  0.5609 -0.2282
  119SOPE  H14R12590   5.046   3.535   4.876 -1.1849  0.8458  1.3076
  119SOPE  H14S12591   5.192   3.489   4.981  0.3601  1.9092  1.2040
  119SOPE  C21512592   5.234   3.618   4.818  0.3675  0.8100 -1.0088
  119SOPE  H15R12593   5.291   3.532   4.778  3.7782  1.6610  1.6205
  119SOPE  H15S12594   5.314   3.680   4.865  0.7950 -0.1904 -0.3793
  119SOPE  C21612595   5.166   3.695   4.706  0.3120 -0.1217 -0.6482
  119SOPE  H16R12596   5.135   3.788   4.757  1.4918 -0.5990  1.0183
  119SOPE  H16S12597   5.090   3.629   4.658 -0.6383 -0.9152  1.7809
  119SOPE  C21712598   5.280   3.729   4.607 -0.5351  0.1853 -0.2603
  119SOPE  H17R12599   5.339   3.637   4.585  1.2617  1.7183 -2.2510
  119SOPE  H17S12600   5.352   3.793   4.661  1.3173 -0.8796 -1.3390
  119SOPE  C21812601   5.249   3.793   4.468  0.6858 -0.3804 -0.1268
  119SOPE  H18R12602   5.167   3.864   4.487  1.1725 -0.1848  1.3828
  119SOPE  H18S12603   5.212   3.714   4.399 -1.1232 -0.5179  0.9466
  119SOPE  H18T12604   5.348   3.829   4.431  1.0455 -1.0947  0.1056
  119SOPE   C3312605   5.111   3.353   6.206  0.1069  0.1501  0.8649
  119SOPE   H3X12606   5.121   3.457   6.168 -3.2631  0.0577 -0.6480
  119SOPE   H3Y12607   5.011   3.335   6.250  0.0549  1.2697  1.2232
  119SOPE   C3412608   5.145   3.268   6.072 -0.2863  0.9109 -0.9803
  119SOPE   H4X12609   5.121   3.162   6.095  1.5101  0.9689  1.5919
  119SOPE   H4Y12610   5.255   3.275   6.055 -0.0882  1.7331  0.4750
  119SOPE   C3512611   5.074   3.310   5.946 -0.1169  0.3329  0.2578
  119SOPE   H5X12612   5.097   3.414   5.914 -3.4003  0.7661 -1.1184
  119SOPE   H5Y12613   4.967   3.306   5.974  0.1532 -0.9871  1.2095
  119SOPE   C3612614   5.108   3.220   5.829  0.0450  0.0033 -0.8045
  119SOPE   H6X12615   5.093   3.117   5.866 -0.8903  0.3915 -0.0657
  119SOPE   H6Y12616   5.213   3.231   5.792 -0.3198  1.2372 -1.5431
  119SOPE   C3712617   5.025   3.243   5.701 -0.0204 -0.6405 -0.4095
  119SOPE   H7X12618   5.046   3.344   5.660  2.4983 -1.1550 -0.5349
  119SOPE   H7Y12619   4.916   3.248   5.719  0.1826  0.7124  0.7359
  119SOPE   C3812620   5.066   3.143   5.592 -0.4458 -0.0595 -0.1130
  119SOPE   H8X12621   5.039   3.039   5.618  1.2409 -0.8017 -1.1790
  119SOPE   H8Y12622   5.177   3.149   5.586 -0.5502  0.0338 -3.0385
  119SOPE   C3912623   4.999   3.181   5.460  0.3639 -0.3387 -0.0421
  119SOPE   H9X12624   4.976   3.290   5.460  2.5673  0.1831 -0.4428
  119SOPE   H9Y12625   4.901   3.130   5.449 -0.1920  0.9948 -1.5262
  119SOPE  C31012626   5.094   3.147   5.342 -0.2420  0.1719  0.9705
  119SOPE  H10X12627   5.141   3.048   5.357 -0.0953  0.0157 -0.3982
  119SOPE  H10Y12628   5.173   3.225   5.337  0.9812 -1.0194  1.1136
  119SOPE  C31112629   5.006   3.142   5.209  0.0511  0.4319 -0.3717
  119SOPE  H11X12630   4.953   3.239   5.211  1.4582  1.3710 -3.2520
  119SOPE  H11Y12631   4.942   3.051   5.208  0.9618 -0.2176 -0.3362
  119SOPE  C31212632   5.100   3.149   5.083  0.2054 -0.3797 -0.1944
  119SOPE  H12X12633   5.173   3.065   5.088  1.8550  1.0032 -0.0655
  119SOPE  H12Y12634   5.161   3.242   5.089 -0.4008  0.3595 -3.7364
  119SOPE  C31312635   5.019   3.139   4.955  0.3378 -0.5515 -0.7694
  119SOPE  H13X12636   4.943   3.220   4.948 -0.2753 -1.2267 -2.3618
  119SOPE  H13Y12637   4.965   3.042   4.960  0.7654 -0.7659 -0.2790
  119SOPE  C31412638   5.104   3.134   4.826 -1.6616  0.4248  0.6214
  119SOPE  H14X12639   5.155   3.038   4.806 -3.1179 -0.1765 -0.3939
  119SOPE  H14Y12640   5.188   3.206   4.816 -1.8163  0.8151  1.8569
  119SOPE  C31512641   5.017   3.186   4.713 -0.0613  0.0117  0.3010
  119SOPE  H15X12642   4.990   3.293   4.720  1.3088  0.3056  1.4757
  119SOPE  H15Y12643   4.922   3.129   4.726 -0.8112  1.3989  1.1423
  119SOPE  C31612644   5.061   3.141   4.571  0.0153 -0.0910 -0.7878
  119SOPE  H16X12645   4.983   3.168   4.496 -1.6050  0.2289  0.9414
  119SOPE  H16Y12646   5.087   3.033   4.575 -0.0082 -0.0605  1.9346
  119SOPE  C31712647   5.190   3.216   4.528 -0.5804 -0.3218 -0.0932
  119SOPE  H17X12648   5.228   3.173   4.433 -0.7600  1.6666 -1.1118
  119SOPE  H17Y12649   5.277   3.201   4.596 -0.4762 -1.5077 -0.4657
  119SOPE  C31812650   5.190   3.369   4.501  0.4901 -0.3501  0.7620
  119SOPE  H18X12651   5.149   3.426   4.587  0.4066  0.2871  0.3093
  119SOPE  H18Y12652   5.141   3.407   4.408  2.3200  1.5779  0.5227
  119SOPE  H18Z12653   5.296   3.400   4.491 -0.0335  0.9020 -1.5599
  120SOPE     N12654   2.574   0.815   6.519  0.6569  0.6544 -0.3969
  120SOPE   HN112655   2.673   0.796   6.546  0.8625 -1.8688 -2.4764
  120SOPE   HN212656   2.567   0.911   6.480 -0.8044  1.4274  1.5984
  120SOPE   HN312657   2.517   0.819   6.606  3.0518  1.5168  1.2419
  120SOPE   C1212658   2.524   0.724   6.410 -0.8170 -0.4821  0.4028
  120SOPE  H12A12659   2.579   0.735   6.314 -1.5634 -0.3581 -0.0186
  120SOPE  H12B12660   2.416   0.745   6.401 -0.7213  1.5967  2.9082
  120SOPE   C1112661   2.528   0.577   6.446 -0.7123  0.5800  0.5119
  120SOPE  H11A12662   2.511   0.564   6.555 -1.0152 -0.6286  0.3384
  120SOPE  H11B12663   2.632   0.540   6.433 -0.3456  0.0051  4.0156
  120SOPE     P12664   2.280   0.485   6.434 -0.3078 -0.4715 -0.0307
  120SOPE   O1312665   2.188   0.578   6.381 -0.7973  0.0718  0.6195
  120SOPE   O1412666   2.286   0.481   6.580 -0.1411 -0.8137 -0.2022
  120SOPE   O1212667   2.426   0.510   6.372 -0.1727  0.1137 -0.5692
  120SOPE   O1112668   2.248   0.342   6.394  0.1709  0.3415 -0.3937
  120SOPE    C112669   2.166   0.284   6.296 -0.3285  0.0347  0.0969
  120SOPE    HA12670   2.085   0.351   6.262 -1.4338 -2.2879 -2.1434
  120SOPE    HB12671   2.123   0.192   6.340  0.9992  0.4425  2.4349
  120SOPE    C212672   2.237   0.231   6.172 -0.3228 -0.0845 -0.0548
  120SOPE    HS12673   2.303   0.149   6.208 -0.7387 -0.3759  0.0462
  120SOPE   O2112674   2.306   0.342   6.112 -0.0405 -0.2686  0.0247
  120SOPE   C2112675   2.435   0.324   6.089 -0.1237 -0.4911  0.4051
  120SOPE   O2212676   2.499   0.224   6.110  0.3603 -0.4912 -0.3145
  120SOPE   C2212677   2.507   0.451   6.038 -0.0178 -0.2901  0.0248
  120SOPE   H2R12678   2.560   0.476   6.133 -1.2505  1.7239  0.2479
  120SOPE   H2S12679   2.428   0.527   6.020 -3.1681 -3.2679  0.3123
  120SOPE    C312680   2.135   0.179   6.067 -0.2263  0.1336 -0.2136
  120SOPE    HX12681   2.065   0.257   6.032 -0.4747 -0.5042 -1.1861
  120SOPE    HY12682   2.059   0.113   6.115  1.0406 -1.2915 -0.0675
  120SOPE   O3112683   2.198   0.092   5.966 -0.0218  0.0300 -0.7337
  120SOPE   C3112684   2.237   0.151   5.863 -0.5056 -1.2818  0.1216
  120SOPE   O3212685   2.220   0.272   5.841  0.2823 -0.2274  0.7136
  120SOPE   C3212686   2.279   0.046   5.762  0.3116  0.5415 -0.4587
  120SOPE   H2X12687   2.181  -0.003   5.743  0.2720  0.4702 -0.0806
  120SOPE   H2Y12688   2.332  -0.033   5.818 -1.8666 -1.3495 -0.8863
  120SOPE   C2312689   2.602   0.446   5.922 -0.7747  0.0022 -0.8466
  120SOPE   H3R12690   2.662   0.358   5.953 -1.6124 -0.0519  0.6955
  120SOPE   H3S12691   2.661   0.540   5.927  0.5520 -0.8830  1.4255
  120SOPE   C2412692   2.546   0.421   5.783 -0.1766 -0.1436 -0.6667
  120SOPE   H4R12693   2.496   0.322   5.781 -0.1992 -0.1154 -2.4556
  120SOPE   H4S12694   2.469   0.501   5.771 -0.9084 -0.7304  0.0162
  120SOPE   C2512695   2.661   0.421   5.680  0.2373  0.8289 -0.5956
  120SOPE   H5R12696   2.713   0.519   5.677 -1.9281  2.0642 -0.0473
  120SOPE   H5S12697   2.737   0.348   5.715 -0.7333  0.0367 -0.1010
  120SOPE   C2612698   2.611   0.397   5.539 -0.5990  0.2552 -0.4425
  120SOPE   H6R12699   2.562   0.298   5.536 -0.0639 -0.1381  2.1224
  120SOPE   H6S12700   2.536   0.478   5.527 -3.5002 -1.8385  2.2294
  120SOPE   C2712701   2.722   0.399   5.432  0.6344 -0.4045  0.8321
  120SOPE   H7R12702   2.785   0.490   5.444 -1.2678  0.9979  0.7972
  120SOPE   H7S12703   2.784   0.307   5.433  0.1265 -0.8460 -1.6561
  120SOPE   C2812704   2.668   0.395   5.287  0.4614 -0.2987 -0.1264
  120SOPE   H8R12705   2.628   0.297   5.254  0.1463 -0.2716  0.1715
  120SOPE   H8S12706   2.590   0.474   5.287  2.2676  1.5913  0.1337
  120SOPE   C2912707   2.775   0.440   5.191 -0.0438 -0.6383 -0.6028
  120SOPE   H9112708   2.805   0.544   5.209  1.7741 -1.2222 -0.0426
  120SOPE  C21012709   2.834   0.368   5.099 -0.5555 -0.7268 -0.5058
  120SOPE  H10112710   2.929   0.408   5.061 -0.2363  1.0467  1.9243
  120SOPE  C21112711   2.815   0.225   5.061  0.0883  0.4579  0.1824
  120SOPE  H11R12712   2.746   0.168   5.127 -0.5722 -0.9447 -1.6206
  120SOPE  H11S12713   2.908   0.165   5.056  0.2419  0.7064  0.0633
  120SOPE  C21212714   2.744   0.217   4.924 -0.1077 -0.0517 -0.6523
  120SOPE  H12R12715   2.792   0.292   4.858  0.7597  0.9950  1.1004
  120SOPE  H12S12716   2.635   0.239   4.933 -0.0487  0.2868 -0.7695
  120SOPE  C21312717   2.747   0.075   4.854  0.0311 -0.4364  0.4770
  120SOPE  H13R12718   2.688   0.014   4.926  0.3529 -1.8023 -0.3848
  120SOPE  H13S12719   2.854   0.046   4.847 -0.1326 -0.6674 -1.5322
  120SOPE  C21412720   2.679   0.057   4.722  0.7028  0.0822  0.6962
  120SOPE  H14R12721   2.582   0.111   4.722  0.6181 -0.0662  0.2977
  120SOPE  H14S12722   2.650  -0.050   4.715 -0.6378  0.4960 -0.4798
  120SOPE  C21512723   2.759   0.103   4.598 -0.5077 -0.3475  0.4463
  120SOPE  H15R12724   2.854   0.045   4.599 -1.4042 -1.9180 -1.0655
  120SOPE  H15S12725   2.782   0.211   4.608  0.0976 -0.4964  0.7277
  120SOPE  C21612726   2.692   0.060   4.463 -0.3225  0.6188 -0.0599
  120SOPE  H16R12727   2.589   0.099   4.451  0.1646  1.9466 -0.0844
  120SOPE  H16S12728   2.681  -0.050   4.476  1.9486  0.2548 -0.8260
  120SOPE  C21712729   2.768   0.094   4.337  0.6652 -0.0172 -0.0111
  120SOPE  H17R12730   2.824   0.001   4.314  0.0734 -0.3416 -0.1797
  120SOPE  H17S12731   2.844   0.173   4.349  0.8622 -0.2645  0.3988
  120SOPE  C21812732   2.674   0.132   4.220 -0.2140  0.1644 -1.2424
  120SOPE  H18R12733   2.727   0.110   4.125 -1.0323 -2.6248 -1.1458
  120SOPE  H18S12734   2.663   0.243   4.227  2.0181  0.3102  1.3915
  120SOPE  H18T12735   2.570   0.091   4.216 -0.5525  0.8694 -0.1924
  120SOPE   C3312736   2.333   0.101   5.632 -0.0470 -0.0063  0.7800
  120SOPE   H3X12737   2.388   0.017   5.585  0.2443  0.1073  0.9124
  120SOPE   H3Y12738   2.410   0.177   5.658  1.8005 -1.8887  1.0449
  120SOPE   C3412739   2.226   0.152   5.539  0.4002  0.0409  0.0342
  120SOPE   H4X12740   2.181   0.245   5.579 -0.1340 -0.4035  0.4976
  120SOPE   H4Y12741   2.144   0.077   5.527 -0.1467  0.7529 -0.7924
  120SOPE   C3512742   2.268   0.178   5.391  0.2022 -0.0725 -0.2195
  120SOPE   H5X12743   2.365   0.232   5.396  0.8318 -1.2920  3.0031
  120SOPE   H5Y12744   2.193   0.254   5.361  2.0278  1.7387 -0.3898
  120SOPE   C3612745   2.276   0.058   5.295  0.3076  0.0299 -0.6542
  120SOPE   H6X12746   2.172   0.023   5.274 -0.9107  3.5236 -1.0385
  120SOPE   H6Y12747   2.327  -0.028   5.343  0.6773  0.5203 -0.1568
  120SOPE   C3712748   2.340   0.086   5.162 -0.3581  0.1130 -0.0894
  120SOPE   H7X12749   2.427   0.153   5.181  0.8320 -1.2935 -0.4691
  120SOPE   H7Y12750   2.271   0.142   5.095  2.3697  0.7627 -2.5982
  120SOPE   C3812751   2.409  -0.041   5.099  0.4808 -0.1650 -0.1520
  120SOPE   H8X12752   2.473  -0.100   5.168 -0.7885 -1.8675 -0.3617
  120SOPE   H8Y12753   2.469  -0.022   5.007  1.5274  1.4955  0.8215
  120SOPE   C3912754   2.291  -0.119   5.046  0.1819  0.0745 -0.9178
  120SOPE   H9X12755   2.221  -0.139   5.130  1.3131 -1.7846 -0.3599
  120SOPE   H9Y12756   2.327  -0.221   5.021 -1.5049 -0.7560 -0.1528
  120SOPE  C31012757   2.228  -0.063   4.917  0.3876  0.0417  0.1078
  120SOPE  H10X12758   2.202   0.044   4.931 -1.2872 -0.0262 -1.9772
  120SOPE  H10Y12759   2.127  -0.109   4.906 -0.9868  3.2366 -2.0386
  120SOPE  C31112760   2.309  -0.071   4.788  0.1884  0.0231 -0.0519
  120SOPE  H11X12761   2.317  -0.176   4.753 -0.6978  0.4285 -1.5825
  120SOPE  H11Y12762   2.414  -0.039   4.807  0.2085 -0.2140  0.2343
  120SOPE  C31212763   2.252   0.008   4.673 -0.4188  0.0179  0.2871
  120SOPE  H12X12764   2.304   0.107   4.674  0.6952 -0.5569  1.3381
  120SOPE  H12Y12765   2.146   0.024   4.700 -0.1048  1.7816  0.6051
  120SOPE  C31312766   2.271  -0.061   4.534 -0.4199 -0.2744  0.1577
  120SOPE  H13X12767   2.210  -0.152   4.517 -2.5569  0.9416  0.9909
  120SOPE  H13Y12768   2.376  -0.099   4.530 -0.2492  0.2375 -0.3544
  120SOPE  C31412769   2.242   0.046   4.425 -0.3552 -0.1649 -0.7177
  120SOPE  H14X12770   2.309   0.132   4.444 -1.1769  0.2928  0.2732
  120SOPE  H14Y12771   2.134   0.074   4.435 -0.8135 -2.5123  2.2931
  120SOPE  C31512772   2.287   0.012   4.280 -0.0031  0.1521  0.1797
  120SOPE  H15X12773   2.211  -0.058   4.239  4.2338 -3.5934 -2.2558
  120SOPE  H15Y12774   2.388  -0.035   4.274 -0.9169 -1.7049 -2.4683
  120SOPE  C31612775   2.270   0.130   4.188 -0.4067 -0.2801 -0.2074
  120SOPE  H16X12776   2.325   0.221   4.222  0.9300 -0.8542 -0.7352
  120SOPE  H16Y12777   2.165   0.164   4.188 -0.4198 -0.2180 -1.7796
  120SOPE  C31712778   2.299   0.096   4.042  0.1931 -0.8148  0.1217
  120SOPE  H17X12779   2.221   0.020   4.018  0.4925 -1.9545  2.4520
  120SOPE  H17Y12780   2.400   0.051   4.041  0.6467  0.1379 -1.8345
  120SOPE  C31812781   2.286   0.217   3.945 -0.3419  0.1337 -0.1729
  120SOPE  H18X12782   2.369   0.286   3.969 -0.9398  1.0673 -0.7409
  120SOPE  H18Y12783   2.190   0.268   3.971  0.8750  2.4148  0.0770
  120SOPE  H18Z12784   2.282   0.199   3.835 -1.9252  2.8704 -0.6516
  121SOPE     N12785   4.785   4.550   6.433  0.3188 -0.1955  0.4151
  121SOPE   HN112786   4.696   4.561   6.380  0.9594 -0.3703 -0.7445
  121SOPE   HN212787   4.799   4.639   6.484  1.1404  0.8110 -1.4447
  121SOPE   HN312788   4.866   4.540   6.369 -0.8007 -1.0309 -0.9361
  121SOPE   C1212789   4.770   4.427   6.518  0.6153 -0.0536 -0.4892
  121SOPE  H12A12790   4.677   4.440   6.577  0.5452 -2.3025 -0.0259
  121SOPE  H12B12791   4.855   4.427   6.589  0.0602  0.6348  0.1931
  121SOPE   C1112792   4.760   4.294   6.445  0.2482  0.3581  0.1662
  121SOPE  H11A12793   4.859   4.284   6.395  0.7824  0.4431  1.1837
  121SOPE  H11B12794   4.678   4.297   6.370 -0.7763 -0.4102  1.2149
  121SOPE     P12795   4.592   4.135   6.571 -0.1937 -0.4464 -0.1183
  121SOPE   O1312796   4.505   4.248   6.553  0.1139 -0.5673  0.1952
  121SOPE   O1412797   4.591   4.061   6.702 -0.1741 -0.0016 -0.5857
  121SOPE   O1212798   4.734   4.185   6.536  0.2306 -0.2896 -0.3720
  121SOPE   O1112799   4.580   4.030   6.449  0.1875  0.3528 -0.0333
  121SOPE    C112800   4.645   3.904   6.444 -0.3842 -0.9159 -0.4143
  121SOPE    HA12801   4.583   3.836   6.383 -0.5859  0.2490 -1.5690
  121SOPE    HB12802   4.660   3.859   6.544  2.3481  0.3596 -0.1487
  121SOPE    C212803   4.796   3.923   6.403  0.1976 -0.2991  0.1385
  121SOPE    HS12804   4.843   4.008   6.457  1.4009 -0.4669 -0.5952
  121SOPE   O2112805   4.792   3.951   6.264  0.0816  0.5103  0.0210
  121SOPE   C2112806   4.896   4.002   6.210  0.5865 -0.1291  0.3121
  121SOPE   O2212807   4.994   4.035   6.273 -0.4460 -0.1916  0.2478
  121SOPE   C2212808   4.868   3.999   6.060 -0.2707  0.5002 -0.2929
  121SOPE   H2R12809   4.765   4.027   6.031  0.3376  0.2756 -2.9235
  121SOPE   H2S12810   4.894   3.893   6.042  0.5262  0.3759  1.3554
  121SOPE    C312811   4.881   3.800   6.434  0.3702 -0.3607 -0.3860
  121SOPE    HX12812   4.892   3.781   6.543  1.9891  1.9934 -0.0497
  121SOPE    HY12813   4.982   3.816   6.390  0.7190 -0.8480  0.2260
  121SOPE   O3112814   4.812   3.684   6.379 -0.1098  0.5326 -0.4064
  121SOPE   C3112815   4.837   3.646   6.251 -0.4118  0.0474  0.1515
  121SOPE   O3212816   4.916   3.699   6.181 -0.1995  0.3357  0.4218
  121SOPE   C3212817   4.749   3.533   6.213 -0.5152  0.3183 -0.3290
  121SOPE   H2X12818   4.648   3.560   6.249 -1.1426 -0.1349 -1.6955
  121SOPE   H2Y12819   4.791   3.441   6.258 -0.8520  0.1536 -0.3550
  121SOPE   C2312820   4.965   4.083   5.965  0.2200  0.6721  0.1978
  121SOPE   H3R12821   5.060   4.088   6.021 -0.5889  1.1100  1.5881
  121SOPE   H3S12822   4.930   4.187   5.948  0.4424  0.7124 -0.0201
  121SOPE   C2412823   4.991   4.007   5.835 -0.3197  0.0612  0.1856
  121SOPE   H4R12824   5.059   4.072   5.776  1.0547  0.9506  2.6358
  121SOPE   H4S12825   5.047   3.913   5.850 -0.9334 -0.2146  0.8144
  121SOPE   C2512826   4.863   3.986   5.754 -0.0026  0.1346 -0.4714
  121SOPE   H5R12827   4.808   3.902   5.800  0.9815  0.4470  1.3805
  121SOPE   H5S12828   4.809   4.083   5.758  1.8740  1.2001  0.9083
  121SOPE   C2612829   4.887   3.934   5.607 -0.3046  0.0999 -0.1422
  121SOPE   H6R12830   4.987   3.887   5.594  1.1328  2.5104  1.4502
  121SOPE   H6S12831   4.809   3.857   5.591 -0.8059  0.7835 -1.0620
  121SOPE   C2712832   4.866   4.045   5.506  0.3918 -0.6337 -0.3855
  121SOPE   H7R12833   4.765   4.082   5.533  1.6217  3.6303 -0.8395
  121SOPE   H7S12834   4.937   4.128   5.525  0.4878 -0.5635 -1.0374
  121SOPE   C2812835   4.878   4.009   5.352 -0.0952  0.1083 -0.6349
  121SOPE   H8R12836   4.975   3.959   5.334 -1.2276 -1.8417 -1.6770
  121SOPE   H8S12837   4.806   3.926   5.338  2.1582 -1.8947 -1.0086
  121SOPE   C2912838   4.846   4.131   5.270  0.6014  0.7814  0.2719
  121SOPE   H9112839   4.828   4.226   5.323 -0.8268  0.9532 -0.4574
  121SOPE  C21012840   4.819   4.121   5.137  0.5457  0.2425 -0.0105
  121SOPE  H10112841   4.777   4.203   5.077  0.6852 -2.1639 -3.6902
  121SOPE  C21112842   4.815   3.996   5.049  0.5766 -0.0464  0.0397
  121SOPE  H11R12843   4.727   3.930   5.068  0.0028  0.2081 -1.5475
  121SOPE  H11S12844   4.913   3.946   5.062  0.0358 -0.8097  1.3395
  121SOPE  C21212845   4.807   4.040   4.903 -0.4644 -0.6443 -0.3976
  121SOPE  H12R12846   4.887   4.112   4.876  0.6844 -1.7039  0.0736
  121SOPE  H12S12847   4.710   4.090   4.888 -0.2592  0.3307  1.2537
  121SOPE  C21312848   4.820   3.926   4.801  0.3954  0.4368  0.2376
  121SOPE  H13R12849   4.754   3.837   4.811  2.2949 -0.8254  2.3569
  121SOPE  H13S12850   4.926   3.892   4.798 -0.2529 -1.6803 -0.6413
  121SOPE  C21412851   4.805   3.978   4.655 -0.4438 -0.1685 -0.0966
  121SOPE  H14R12852   4.887   4.048   4.629 -0.6248 -0.1105 -0.5201
  121SOPE  H14S12853   4.709   4.033   4.641  0.8870  2.6373  0.9467
  121SOPE  C21512854   4.794   3.848   4.567 -0.6171  0.4122 -0.2127
  121SOPE  H15R12855   4.708   3.782   4.595  1.4276 -2.1581  0.4058
  121SOPE  H15S12856   4.887   3.789   4.581 -0.4738  0.0926 -2.2052
  121SOPE  C21612857   4.782   3.877   4.420  0.1349 -0.4400 -0.7063
  121SOPE  H16R12858   4.870   3.924   4.370 -0.8174  0.6297 -1.4077
  121SOPE  H16S12859   4.702   3.954   4.420 -0.7237 -1.1054  3.4967
  121SOPE  C21712860   4.734   3.753   4.346  0.1118 -0.5846  0.2457
  121SOPE  H17R12861   4.706   3.790   4.245  3.5064  0.6935 -0.3354
  121SOPE  H17S12862   4.634   3.709   4.371 -0.9018  1.4646  0.0222
  121SOPE  C21812863   4.846   3.650   4.333  0.1035  0.1288  0.1698
  121SOPE  H18R12864   4.878   3.622   4.435  0.5023  0.1321  0.0485
  121SOPE  H18S12865   4.932   3.697   4.281  0.5528  2.6718  2.9575
  121SOPE  H18T12866   4.811   3.563   4.273 -0.1729 -0.7315  1.5323
  121SOPE   C3312867   4.762   3.513   6.059 -0.2209 -0.2004  0.1519
  121SOPE   H3X12868   4.729   3.407   6.047  0.4170 -0.4602  0.6232
  121SOPE   H3Y12869   4.866   3.519   6.018 -0.0268 -0.5687  0.5766
  121SOPE   C3412870   4.666   3.598   5.966  0.7640  0.1485  0.5494
  121SOPE   H4X12871   4.683   3.707   5.961  1.1020  0.1471  1.4810
  121SOPE   H4Y12872   4.568   3.592   6.019 -0.6021 -0.8127 -1.9125
  121SOPE   C3512873   4.657   3.551   5.827 -0.1566  0.5221  0.8037
  121SOPE   H5X12874   4.618   3.446   5.825  2.8666 -0.6819  0.7862
  121SOPE   H5Y12875   4.756   3.553   5.777 -1.2429 -2.3873 -1.8072
  121SOPE   C3612876   4.573   3.631   5.730 -0.6139  0.0422 -0.8034
  121SOPE   H6X12877   4.584   3.739   5.754 -1.4936  0.0349 -0.3131
  121SOPE   H6Y12878   4.464   3.613   5.744 -0.7578  0.7199 -0.9857
  121SOPE   C3712879   4.607   3.616   5.584 -0.2300 -0.1142 -0.3970
  121SOPE   H7X12880   4.710   3.653   5.566 -0.7057  2.1711  1.0986
  121SOPE   H7Y12881   4.541   3.683   5.525 -0.0840  0.2137 -0.1904
  121SOPE   C3812882   4.588   3.473   5.541  0.1500 -0.7146  0.9967
  121SOPE   H8X12883   4.486   3.442   5.572 -0.5497 -0.9227 -1.3069
  121SOPE   H8Y12884   4.667   3.401   5.573 -0.1277 -1.0074  1.0251
  121SOPE   C3912885   4.568   3.469   5.380 -0.6365  0.8042  0.0324
  121SOPE   H9X12886   4.529   3.567   5.347 -0.9477  0.4453 -0.7004
  121SOPE   H9Y12887   4.487   3.393   5.376  0.0145  0.0315  0.9821
  121SOPE  C31012888   4.692   3.431   5.312 -0.1205 -0.0437 -1.1975
  121SOPE  H10X12889   4.735   3.339   5.358 -2.0955 -0.5165 -0.1734
  121SOPE  H10Y12890   4.764   3.514   5.332 -1.0690  1.0654 -2.2735
  121SOPE  C31112891   4.683   3.409   5.159  0.3132  0.4981  0.6273
  121SOPE  H11X12892   4.602   3.337   5.136 -2.0950  3.4550 -0.8846
  121SOPE  H11Y12893   4.776   3.367   5.116 -1.2952 -2.0180 -0.6547
  121SOPE  C31212894   4.631   3.533   5.089 -0.3062  0.6082 -0.3774
  121SOPE  H12X12895   4.685   3.624   5.121 -1.7859  0.6974  2.1610
  121SOPE  H12Y12896   4.527   3.565   5.114 -0.1602  1.2576 -0.5816
  121SOPE  C31312897   4.635   3.531   4.935  0.4740 -0.5172  0.2534
  121SOPE  H13X12898   4.575   3.610   4.886  0.9482  1.0938  2.1634
  121SOPE  H13Y12899   4.578   3.442   4.902  0.3789 -0.4900  0.3419
  121SOPE  C31412900   4.777   3.522   4.876 -0.1989  0.1138  0.5373
  121SOPE  H14X12901   4.828   3.431   4.913  2.4643  0.8558 -1.0097
  121SOPE  H14Y12902   4.844   3.607   4.901  1.2389 -0.2142 -1.9284
  121SOPE  C31512903   4.786   3.498   4.725  0.5183 -0.2062 -0.4442
  121SOPE  H15X12904   4.893   3.484   4.701  0.5910  2.5789 -2.2010
  121SOPE  H15Y12905   4.766   3.588   4.662 -0.2849  1.1019  1.5586
  121SOPE  C31612906   4.689   3.392   4.677  0.3709 -0.6151  0.2151
  121SOPE  H16X12907   4.584   3.426   4.692  0.7731  1.7430 -1.7437
  121SOPE  H16Y12908   4.703   3.297   4.734  0.1653 -0.0643  1.2006
  121SOPE  C31712909   4.706   3.360   4.538  0.1352 -0.1339 -0.3010
  121SOPE  H17X12910   4.809   3.346   4.499 -1.2858 -0.6799 -4.2706
  121SOPE  H17Y12911   4.675   3.444   4.472  2.4097  0.0953 -1.1662
  121SOPE  C31812912   4.618   3.239   4.501 -0.4986  0.2161 -0.9157
  121SOPE  H18X12913   4.593   3.239   4.393 -0.4074  0.4797 -0.9378
  121SOPE  H18Y12914   4.526   3.229   4.562  0.3966  0.3774  0.5139
  121SOPE  H18Z12915   4.676   3.148   4.528  0.2325  0.6960 -0.8247
  122SOPE     N12916   4.087   4.024   6.839  0.2074  0.2292  0.2267
  122SOPE   HN112917   4.046   4.118   6.856  0.6152  0.4745 -0.1183
  122SOPE   HN212918   4.016   3.965   6.792 -1.4839  2.3081  0.0236
  122SOPE   HN312919   4.111   3.972   6.926  0.1975  0.3312  0.2905
  122SOPE   C1212920   4.204   4.042   6.746  0.1822  0.2775  0.3640
  122SOPE  H12A12921   4.242   3.939   6.725 -0.9631  0.0897 -0.8914
  122SOPE  H12B12922   4.284   4.102   6.794 -0.6124  0.9896  0.8022
  122SOPE   C1112923   4.173   4.117   6.614 -0.3742 -0.3407 -0.6699
  122SOPE  H11A12924   4.258   4.122   6.543  0.4890  0.1509  0.3548
  122SOPE  H11B12925   4.154   4.224   6.639 -0.0790 -0.4024 -0.1553
  122SOPE     P12926   4.009   4.131   6.415 -0.3326  0.2918 -0.0619
  122SOPE   O1312927   3.921   4.245   6.451  0.0647  0.3340  0.0051
  122SOPE   O1412928   3.956   4.024   6.325  0.3914 -0.0162 -0.0246
  122SOPE   O1212929   4.062   4.059   6.552 -0.3058  0.5301  0.3680
  122SOPE   O1112930   4.146   4.184   6.350  0.1507  0.0055  0.2647
  122SOPE    C112931   4.240   4.111   6.274 -0.5089 -0.0049  0.5209
  122SOPE    HA12932   4.239   4.002   6.294  2.1669 -0.6516 -2.1296
  122SOPE    HB12933   4.343   4.149   6.292 -0.2361 -0.5341  0.1026
  122SOPE    C212934   4.198   4.123   6.128 -0.8188 -0.3185  0.4252
  122SOPE    HS12935   4.111   4.055   6.115  1.3957 -3.3727  0.3567
  122SOPE   O2112936   4.315   4.077   6.052 -0.0348 -0.0322 -0.4704
  122SOPE   C2112937   4.287   3.999   5.949  0.7257 -0.0041  0.0983
  122SOPE   O2212938   4.170   3.984   5.908 -0.4567  0.1955 -0.1386
  122SOPE   C2212939   4.406   3.926   5.888 -0.4677 -0.3490  0.2471
  122SOPE   H2R12940   4.362   3.845   5.826  0.9559 -0.8512 -0.1609
  122SOPE   H2S12941   4.459   3.873   5.970  0.1668  1.9435  1.3887
  122SOPE    C312942   4.163   4.270   6.088  0.0048  0.0482  0.2307
  122SOPE    HX12943   4.258   4.327   6.095 -1.5522  2.8391  0.2583
  122SOPE    HY12944   4.105   4.328   6.163 -0.7797  0.9819 -1.0534
  122SOPE   O3112945   4.103   4.271   5.952  0.6347 -0.0433 -0.4042
  122SOPE   C3112946   3.970   4.244   5.952 -0.5515 -0.3039 -0.0147
  122SOPE   O3212947   3.900   4.229   6.051 -0.7339 -0.0917 -0.5935
  122SOPE   C3212948   3.928   4.232   5.809  0.4468 -0.1478  0.2091
  122SOPE   H2X12949   3.918   4.125   5.780 -0.6819  0.5975 -2.5007
  122SOPE   H2Y12950   3.997   4.277   5.735 -0.6798  1.7327  0.2447
  122SOPE   C2312951   4.493   4.011   5.797 -0.5726  0.5711  0.1345
  122SOPE   H3R12952   4.591   3.960   5.790 -0.3308  1.1173 -0.6894
  122SOPE   H3S12953   4.494   4.115   5.836 -0.5978  2.3064 -3.9310
  122SOPE   C2412954   4.429   4.036   5.658 -0.2566  0.0505  0.0174
  122SOPE   H4R12955   4.319   4.049   5.660  0.0197  2.7565  1.0513
  122SOPE   H4S12956   4.472   4.133   5.626  1.4779 -0.0542  1.8363
  122SOPE   C2512957   4.465   3.925   5.556  0.1425  0.4507  0.7359
  122SOPE   H5R12958   4.575   3.908   5.557  0.0368 -0.3370  0.0466
  122SOPE   H5S12959   4.414   3.831   5.586  2.0923 -2.0602 -3.0061
  122SOPE   C2612960   4.426   3.955   5.409  0.0362  0.2408  0.5403
  122SOPE   H6R12961   4.315   3.967   5.403 -0.1135 -1.6145 -2.0398
  122SOPE   H6S12962   4.479   4.041   5.364  0.5684 -0.2484  0.2211
  122SOPE   C2712963   4.476   3.836   5.319 -0.1613 -0.5853  0.2153
  122SOPE   H7R12964   4.584   3.816   5.338  0.4842  2.6841  0.6688
  122SOPE   H7S12965   4.423   3.739   5.326 -1.5567  0.2073  1.0417
  122SOPE   C2812966   4.473   3.879   5.165 -0.2189  0.0740 -0.0626
  122SOPE   H8R12967   4.524   3.975   5.140  0.5725 -0.8888 -2.4660
  122SOPE   H8S12968   4.544   3.810   5.114  0.3171  0.9755 -0.5707
  122SOPE   C2912969   4.344   3.865   5.089 -0.1146 -0.0795 -1.1997
  122SOPE   H9112970   4.254   3.855   5.152  1.1018 -3.1410  0.2616
  122SOPE  C21012971   4.321   3.874   4.958 -0.0553 -0.5840  0.0935
  122SOPE  H10112972   4.222   3.848   4.920  0.7173 -0.6701 -1.9967
  122SOPE  C21112973   4.416   3.887   4.846 -0.1592  0.5113  0.1080
  122SOPE  H11R12974   4.461   3.786   4.835 -0.6301  0.2507  0.5543
  122SOPE  H11S12975   4.505   3.948   4.876  0.6573 -0.4171 -0.3761
  122SOPE  C21212976   4.363   3.953   4.725  0.6629  0.1594  0.3945
  122SOPE  H12R12977   4.452   3.944   4.658  1.4810 -2.4767  1.6961
  122SOPE  H12S12978   4.329   4.058   4.736 -1.1476 -0.5532  2.0753
  122SOPE  C21312979   4.238   3.880   4.658  0.1624 -0.5458  0.0637
  122SOPE  H13R12980   4.145   3.905   4.714  0.4590 -0.8758  0.7076
  122SOPE  H13S12981   4.234   3.771   4.680 -0.2686 -0.8128 -1.2337
  122SOPE  C21412982   4.218   3.932   4.515  0.3079 -0.9394 -0.2157
  122SOPE  H14R12983   4.294   3.886   4.447  0.3040  0.1484 -0.9826
  122SOPE  H14S12984   4.224   4.043   4.519 -2.6905 -0.7144  0.2601
  122SOPE  C21512985   4.083   3.884   4.459 -0.8839  0.4157  0.0259
  122SOPE  H15R12986   4.038   3.961   4.393 -1.0319  0.2421 -0.0794
  122SOPE  H15S12987   4.020   3.892   4.550  0.9078 -0.8830  1.4585
  122SOPE  C21612988   4.068   3.736   4.404  0.0328  0.1304 -0.0690
  122SOPE  H16R12989   4.066   3.664   4.489 -0.2272 -0.1859 -0.3413
  122SOPE  H16S12990   4.143   3.695   4.334  1.3658  0.5149  1.0805
  122SOPE  C21712991   3.935   3.713   4.325  0.5943  0.4318 -0.5210
  122SOPE  H17R12992   3.933   3.777   4.234 -1.7616 -0.3261 -1.0916
  122SOPE  H17S12993   3.842   3.749   4.374 -0.5029 -2.1068 -0.5378
  122SOPE  C21812994   3.913   3.570   4.289 -0.2453 -0.1734  0.4057
  122SOPE  H18R12995   3.982   3.542   4.206 -1.3698 -3.5145  0.4385
  122SOPE  H18S12996   3.818   3.541   4.240  0.1782 -1.9570  0.5518
  122SOPE  H18T12997   3.934   3.492   4.365 -0.5729 -0.5377  0.1239
  122SOPE   C3312998   3.784   4.299   5.775  0.2752  0.1102  0.5564
  122SOPE   H3X12999   3.795   4.400   5.819 -0.9063  1.0977 -1.2959
  122SOPE   H3Y13000   3.707   4.247   5.837  0.4897  0.7041  1.3325
  122SOPE   C3413001   3.761   4.327   5.627  0.0748  0.9910 -0.5736
  122SOPE   H4X13002   3.846   4.392   5.595  0.9282  0.8655  1.3143
  122SOPE   H4Y13003   3.674   4.395   5.631 -1.2919 -0.7572  1.7653
  122SOPE   C3513004   3.729   4.197   5.547 -0.9805  0.7027 -0.4993
  122SOPE   H5X13005   3.634   4.149   5.578 -0.2161 -0.7719 -0.3397
  122SOPE   H5Y13006   3.811   4.122   5.553 -1.8288 -0.5062 -2.8685
  122SOPE   C3613007   3.705   4.229   5.397  0.1605  0.3106  0.6377
  122SOPE   H6X13008   3.788   4.284   5.347 -0.1009 -0.9094 -1.2595
  122SOPE   H6Y13009   3.613   4.292   5.395 -0.7414 -0.9663 -1.4025
  122SOPE   C3713010   3.684   4.093   5.327  0.0426  0.2041  0.1516
  122SOPE   H7X13011   3.604   4.026   5.367  1.5320 -2.1517 -0.6182
  122SOPE   H7Y13012   3.774   4.029   5.336 -0.6310 -0.6258  1.2858
  122SOPE   C3813013   3.661   4.110   5.175 -0.4173  0.2090 -0.0182
  122SOPE   H8X13014   3.594   4.191   5.139 -1.4170 -0.0054  1.2783
  122SOPE   H8Y13015   3.628   4.012   5.136 -2.0098  0.7368 -0.0498
  122SOPE   C3913016   3.799   4.139   5.104  0.0917  0.1492  0.2105
  122SOPE   H9X13017   3.878   4.077   5.152 -0.5852  0.1932  1.4021
  122SOPE   H9Y13018   3.830   4.244   5.124 -0.2641  0.2804  0.0833
  122SOPE  C31013019   3.781   4.130   4.955 -0.2644  0.1310  0.1825
  122SOPE  H10X13020   3.727   4.217   4.910  1.0200  0.8702  0.0170
  122SOPE  H10Y13021   3.719   4.040   4.938  1.7990 -1.5323  1.0942
  122SOPE  C31113022   3.905   4.134   4.858 -0.2740  0.1004 -0.5038
  122SOPE  H11X13023   3.874   4.085   4.763 -1.2890  0.2500 -0.2664
  122SOPE  H11Y13024   3.994   4.083   4.901 -0.3874  0.0155 -0.3651
  122SOPE  C31213025   3.936   4.277   4.817 -0.1754 -0.3152 -0.8613
  122SOPE  H12X13026   3.983   4.331   4.902 -1.0867  1.7012 -1.5721
  122SOPE  H12Y13027   3.849   4.335   4.778 -0.4830 -1.5275 -2.0473
  122SOPE  C31313028   4.036   4.278   4.703  0.6262 -0.5650  0.3800
  122SOPE  H13X13029   3.989   4.214   4.624 -0.6833  0.3790  0.3560
  122SOPE  H13Y13030   4.132   4.222   4.710 -0.7047 -3.4159 -1.7714
  122SOPE  C31413031   4.060   4.413   4.645  0.4741  0.0261  0.0299
  122SOPE  H14X13032   4.132   4.406   4.561 -0.1137  0.1732 -0.4971
  122SOPE  H14Y13033   4.114   4.466   4.726 -0.7863  1.7506 -0.2020
  122SOPE  C31513034   3.942   4.499   4.608  0.1332 -0.1929  0.0387
  122SOPE  H15X13035   3.886   4.537   4.696  0.3300 -1.0621  0.5414
  122SOPE  H15Y13036   3.869   4.464   4.531  0.3695 -0.9257  0.1473
  122SOPE  C31613037   3.988   4.627   4.536 -0.0527 -1.0451 -0.8387
  122SOPE  H16X13038   4.049   4.594   4.449  2.7878  0.5173  0.4336
  122SOPE  H16Y13039   4.052   4.687   4.605  1.1784 -2.3814 -0.7522
  122SOPE  C31713040   3.884   4.732   4.489 -0.0954  0.2842 -0.4508
  122SOPE  H17X13041   3.823   4.690   4.406 -1.0999  0.2749  0.2601
  122SOPE  H17Y13042   3.931   4.829   4.465  0.2554  0.5776  1.2455
  122SOPE  C31813043   3.779   4.773   4.606  0.8993 -0.5704  0.0449
  122SOPE  H18X13044   3.692   4.710   4.634  1.2700 -0.5129  1.4194
  122SOPE  H18Y13045   3.725   4.867   4.584  0.6296 -0.8883 -0.6632
  122SOPE  H18Z13046   3.846   4.787   4.694  0.4055  2.6848 -0.0061
  123SOPE     N13047   2.168   6.440   1.869 -0.0504 -0.1181  0.3322
  123SOPE   HN113048   2.227   6.525   1.867 -1.3955  0.8628  0.9545
  123SOPE   HN213049   2.228   6.357   1.886  0.6702  0.7487  2.3490
  123SOPE   HN313050   2.126   6.416   1.777 -1.1873 -1.6379  1.1858
  123SOPE   C1213051   2.064   6.435   1.976 -0.4397  0.2114  0.1328
  123SOPE  H12A13052   1.979   6.494   1.936  0.7922  1.0727 -1.3173
  123SOPE  H12B13053   2.086   6.496   2.066 -0.1529 -0.6243  0.6403
  123SOPE   C1113054   2.006   6.295   1.992  0.0511  0.2102  0.1827
  123SOPE  H11A13055   1.947   6.265   1.903 -1.3610  0.5149  0.9810
  123SOPE  H11B13056   1.927   6.292   2.070 -0.6753 -0.4735 -0.5506
  123SOPE     P13057   2.130   6.055   2.024 -0.1652  0.3776  0.0997
  123SOPE   O1313058   2.262   6.014   1.974  0.2082 -0.1150 -0.4086
  123SOPE   O1413059   2.009   6.002   1.959  0.2240 -0.2766  0.3616
  123SOPE   O1213060   2.116   6.212   2.024  0.4612  0.1857 -0.0461
  123SOPE   O1113061   2.111   6.026   2.175 -0.0449 -0.5661  0.5588
  123SOPE    C113062   2.010   6.077   2.255 -0.7489 -0.2139 -0.1291
  123SOPE    HA13063   1.977   5.995   2.322  1.0563 -0.5042  0.4489
  123SOPE    HB13064   1.927   6.120   2.194 -0.5987  0.1609 -0.0749
  123SOPE    C213065   2.076   6.193   2.342 -0.4038 -0.2625 -0.5394
  123SOPE    HS13066   2.108   6.256   2.257 -1.3239 -0.7897 -1.2884
  123SOPE   O2113067   2.186   6.143   2.424 -0.0959  0.1246  0.0444
  123SOPE   C2113068   2.296   6.211   2.416  0.0929  0.0420 -0.6102
  123SOPE   O2213069   2.327   6.293   2.327  0.1036  0.2823 -0.8310
  123SOPE   C2213070   2.391   6.163   2.527  0.8457 -0.4763 -0.6993
  123SOPE   H2R13071   2.423   6.058   2.506 -0.6863 -1.2240  0.5200
  123SOPE   H2S13072   2.332   6.158   2.621 -0.3161  0.0375 -1.3924
  123SOPE    C313073   1.964   6.250   2.426 -0.5871  0.3846 -0.1578
  123SOPE    HX13074   1.953   6.178   2.510  0.2306 -0.0876 -0.4490
  123SOPE    HY13075   1.872   6.240   2.365 -1.1765  0.8040  0.6388
  123SOPE   O3113076   1.995   6.378   2.486  0.4105 -0.4786 -0.5659
  123SOPE   C3113077   1.959   6.470   2.402 -0.5081 -0.2201  0.2520
  123SOPE   O3213078   1.918   6.455   2.287  0.1735 -0.4171 -0.2610
  123SOPE   C3213079   1.958   6.604   2.466  0.3488 -0.6043 -0.3716
  123SOPE   H2X13080   2.050   6.659   2.438 -0.0045  0.3442  0.2948
  123SOPE   H2Y13081   1.957   6.589   2.576 -0.6139  0.1389 -0.2664
  123SOPE   C2313082   2.512   6.249   2.570  0.3453  0.3557  0.4629
  123SOPE   H3R13083   2.483   6.355   2.584 -1.4166  0.0664 -0.7131
  123SOPE   H3S13084   2.588   6.239   2.490 -0.4267 -0.2079 -0.2078
  123SOPE   C2413085   2.577   6.207   2.705 -0.1869 -0.3270  0.2903
  123SOPE   H4R13086   2.589   6.097   2.716  2.2695 -0.7664 -4.4715
  123SOPE   H4S13087   2.680   6.248   2.706 -0.5272  0.6928  3.0644
  123SOPE   C2513088   2.503   6.256   2.826 -0.0928  0.1172  0.0495
  123SOPE   H5R13089   2.507   6.367   2.819 -0.6009  0.1828  0.6597
  123SOPE   H5S13090   2.395   6.230   2.820 -1.1073  2.8623  2.9671
  123SOPE   C2613091   2.573   6.209   2.949 -0.0439 -0.1980 -0.0945
  123SOPE   H6R13092   2.514   6.251   3.033 -0.1280  1.8412 -1.1060
  123SOPE   H6S13093   2.568   6.098   2.950 -0.0149 -0.2474 -2.0991
  123SOPE   C2713094   2.707   6.270   2.985  0.1981  0.8761 -0.4747
  123SOPE   H7R13095   2.784   6.248   2.909 -0.5584 -1.4036 -0.6788
  123SOPE   H7S13096   2.690   6.379   2.998 -1.1786  0.4571  1.8940
  123SOPE   C2813097   2.759   6.220   3.124  0.0777  0.9394  0.4003
  123SOPE   H8R13098   2.686   6.245   3.204 -0.8031  0.0953 -0.1343
  123SOPE   H8S13099   2.764   6.110   3.110 -0.7064  0.9777 -0.2189
  123SOPE   C2913100   2.897   6.259   3.172 -0.1005 -0.3566  0.2785
  123SOPE   H9113101   2.978   6.189   3.145 -0.5684  0.1905 -2.9861
  123SOPE  C21013102   2.923   6.356   3.264  0.3886  0.6771 -0.3481
  123SOPE  H10113103   3.022   6.400   3.280 -0.3608  1.9203  1.2334
  123SOPE  C21113104   2.815   6.446   3.329 -0.0706  0.0438 -0.2469
  123SOPE  H11R13105   2.710   6.428   3.295 -0.4686  2.4467 -0.4838
  123SOPE  H11S13106   2.833   6.551   3.298  1.1959  0.1899  0.8999
  123SOPE  C21213107   2.804   6.457   3.489  0.7690  0.6584 -0.3257
  123SOPE  H12R13108   2.724   6.526   3.523  1.4236  0.8553  0.8874
  123SOPE  H12S13109   2.895   6.509   3.525  0.6485  1.1364 -0.7053
  123SOPE  C21313110   2.791   6.323   3.564  0.0606 -0.3093 -0.2991
  123SOPE  H13R13111   2.885   6.270   3.538 -0.4381 -2.0076  1.1665
  123SOPE  H13S13112   2.706   6.271   3.516  0.0377  1.6018 -2.5392
  123SOPE  C21413113   2.760   6.339   3.714 -0.3223 -0.1010 -0.0191
  123SOPE  H14R13114   2.665   6.393   3.731  0.9110  1.8162  1.2752
  123SOPE  H14S13115   2.830   6.413   3.759 -0.3919  1.3477 -2.1626
  123SOPE  C21513116   2.770   6.212   3.804 -0.8789  0.0233 -0.4352
  123SOPE  H15R13117   2.877   6.185   3.807 -1.2352 -1.4129  0.3681
  123SOPE  H15S13118   2.712   6.134   3.749 -0.1056 -0.2282 -0.9034
  123SOPE  C21613119   2.700   6.227   3.936 -0.8880  0.3236  0.2634
  123SOPE  H16R13120   2.594   6.250   3.910 -1.7314 -1.4780  1.8318
  123SOPE  H16S13121   2.748   6.312   3.989  0.3905 -0.3112  0.1373
  123SOPE  C21713122   2.708   6.097   4.023 -0.7257 -0.6503  0.6173
  123SOPE  H17R13123   2.675   6.020   3.951 -1.4328  1.9238 -2.0224
  123SOPE  H17S13124   2.630   6.110   4.101 -0.8525  1.9831  0.1437
  123SOPE  C21813125   2.848   6.072   4.079 -0.2018  0.4011  0.5452
  123SOPE  H18R13126   2.851   5.985   4.147  1.7277 -0.9401 -1.1162
  123SOPE  H18S13127   2.883   6.165   4.130  0.9811 -1.0743  2.5419
  123SOPE  H18T13128   2.921   6.042   4.000 -0.3617  2.4627 -0.4725
  123SOPE   C3313129   1.843   6.692   2.424  0.7987  0.3092  0.8800
  123SOPE   H3X13130   1.745   6.647   2.452 -0.9351  3.4217  0.2999
  123SOPE   H3Y13131   1.842   6.689   2.313 -1.2560 -0.4501  0.8686
  123SOPE   C3413132   1.848   6.832   2.480  0.1566 -0.8933  0.4642
  123SOPE   H4X13133   1.753   6.886   2.457  0.1326 -0.7172  0.9551
  123SOPE   H4Y13134   1.935   6.891   2.443 -0.3176  0.6675  1.6973
  123SOPE   C3513135   1.868   6.842   2.629 -0.2352  0.8033  0.2509
  123SOPE   H5X13136   1.850   6.944   2.671 -1.7196 -0.6045  3.3429
  123SOPE   H5Y13137   1.967   6.817   2.671 -0.1661 -0.1246 -0.4335
  123SOPE   C3613138   1.769   6.764   2.712  0.0171 -0.5715  0.2881
  123SOPE   H6X13139   1.788   6.654   2.716 -4.0722 -1.4602  0.5330
  123SOPE   H6Y13140   1.663   6.767   2.679  0.3997  0.2075 -0.9139
  123SOPE   C3713141   1.772   6.816   2.854  0.2548 -0.1720  0.0218
  123SOPE   H7X13142   1.739   6.922   2.849  1.5302  0.2421  0.0489
  123SOPE   H7Y13143   1.873   6.816   2.900  0.6231  0.7293 -0.7378
  123SOPE   C3813144   1.680   6.751   2.955 -0.3088  0.9370 -0.2620
  123SOPE   H8X13145   1.702   6.643   2.970 -2.0424  0.3460 -1.7086
  123SOPE   H8Y13146   1.575   6.755   2.920 -0.1982  3.5415 -0.5069
  123SOPE   C3913147   1.699   6.822   3.092 -0.6368  0.2083 -0.3310
  123SOPE   H9X13148   1.661   6.926   3.085 -1.5125 -0.1953 -2.2195
  123SOPE   H9Y13149   1.805   6.824   3.124 -0.7120 -1.0323  0.0481
  123SOPE  C31013150   1.617   6.743   3.194 -0.5748 -0.3205 -0.2005
  123SOPE  H10X13151   1.650   6.638   3.208 -3.5457 -1.4601 -0.9439
  123SOPE  H10Y13152   1.508   6.740   3.172 -0.7927  2.4914  0.1082
  123SOPE  C31113153   1.632   6.805   3.338  0.4965 -0.3656  0.3898
  123SOPE  H11X13154   1.659   6.913   3.334  1.6014 -0.6439 -0.0030
  123SOPE  H11Y13155   1.727   6.774   3.388  2.1491  1.5393 -1.3886
  123SOPE  C31213156   1.521   6.777   3.426 -0.0385  0.7836  0.1111
  123SOPE  H12X13157   1.524   6.669   3.451  0.0705  1.0572  1.3507
  123SOPE  H12Y13158   1.427   6.816   3.381 -1.2719  0.6519  2.4363
  123SOPE  C31313159   1.522   6.855   3.556  0.1807  0.2452 -0.5502
  123SOPE  H13X13160   1.517   6.965   3.543  0.0365  0.4677  1.1851
  123SOPE  H13Y13161   1.618   6.833   3.607  0.4245 -0.9332 -1.4621
  123SOPE  C31413162   1.394   6.805   3.634 -0.6104 -0.1225  0.1472
  123SOPE  H14X13163   1.378   6.698   3.611  0.1762 -0.6885  2.0420
  123SOPE  H14Y13164   1.305   6.864   3.605 -0.1001  0.8161  0.4435
  123SOPE  C31513165   1.414   6.806   3.780  0.6790 -0.9639 -0.0658
  123SOPE  H15X13166   1.313   6.783   3.820 -0.7290  1.7581 -1.7646
  123SOPE  H15Y13167   1.433   6.910   3.814  0.7164 -0.2549 -2.1122
  123SOPE  C31613168   1.514   6.705   3.841 -0.0845  0.3170  0.4279
  123SOPE  H16X13169   1.618   6.732   3.813  0.5892 -1.9873  0.4700
  123SOPE  H16Y13170   1.496   6.606   3.793 -0.0756  0.2232  0.6160
  123SOPE  C31713171   1.512   6.684   3.992  0.6949  0.2090  0.0301
  123SOPE  H17X13172   1.404   6.675   4.017 -0.2912 -0.8898 -3.9350
  123SOPE  H17Y13173   1.551   6.778   4.036 -0.7258  1.5296 -1.4040
  123SOPE  C31813174   1.591   6.567   4.045 -0.0308 -0.4401  0.1365
  123SOPE  H18X13175   1.694   6.585   4.006 -0.2695  3.5365  0.8740
  123SOPE  H18Y13176   1.547   6.476   4.000  0.6902 -0.8052  0.1464
  123SOPE  H18Z13177   1.588   6.557   4.156 -0.4414  1.2423  0.3142
  124SOPE     N13178   2.847   1.893   2.536  0.2498 -0.5818  0.2119
  124SOPE   HN113179   2.845   1.930   2.634 -2.6981  0.1735 -0.0392
  124SOPE   HN213180   2.746   1.897   2.512 -0.0981  0.5885  1.7394
  124SOPE   HN313181   2.877   1.793   2.534 -0.5013 -0.8085 -2.1654
  124SOPE   C1213182   2.918   1.992   2.436  0.1000 -0.1095 -0.5428
  124SOPE  H12A13183   2.860   2.087   2.443 -1.2053 -0.9444  0.4766
  124SOPE  H12B13184   2.900   1.949   2.335  0.0308 -1.4175  0.0065
  124SOPE   C1113185   3.070   2.012   2.469 -0.3279 -0.1574  0.1996
  124SOPE  H11A13186   3.122   1.914   2.460  0.4987  0.4549 -2.6529
  124SOPE  H11B13187   3.095   2.055   2.569  0.7783 -0.0242 -0.1174
  124SOPE     P13188   3.112   2.242   2.366 -0.3522 -0.3553 -0.0588
  124SOPE   O1313189   3.037   2.268   2.239  0.4653 -0.5069 -0.2529
  124SOPE   O1413190   3.238   2.315   2.395  0.7294  0.2063  0.2105
  124SOPE   O1213191   3.131   2.089   2.367  0.3567  0.1417  0.2891
  124SOPE   O1113192   3.016   2.264   2.488  0.3427 -0.8298 -0.5020
  124SOPE    C113193   2.960   2.398   2.512  0.2617 -0.2477  0.3671
  124SOPE    HA13194   2.861   2.379   2.557  0.7642 -0.9525  1.2083
  124SOPE    HB13195   2.954   2.463   2.422  0.8461  2.3926  2.1219
  124SOPE    C213196   3.043   2.494   2.609  0.9065 -0.3117  0.0266
  124SOPE    HS13197   3.140   2.514   2.559  2.4622 -1.7266  2.3130
  124SOPE   O2113198   3.049   2.436   2.740 -0.1152  0.4124  0.4934
  124SOPE   C2113199   3.156   2.367   2.779 -0.5782 -0.1509  0.4750
  124SOPE   O2213200   3.269   2.380   2.732  1.0323  0.3520  0.3286
  124SOPE   C2213201   3.127   2.272   2.892 -0.2322  0.6973  0.0590
  124SOPE   H2R13202   3.155   2.174   2.849 -0.6381  1.2009 -1.3970
  124SOPE   H2S13203   3.018   2.273   2.910 -0.2877  0.1245 -0.2160
  124SOPE    C313204   2.960   2.624   2.612  0.2924 -0.3766  0.2875
  124SOPE    HX13205   2.856   2.595   2.640  0.5411  0.0459  1.7582
  124SOPE    HY13206   2.962   2.663   2.508  0.7791 -0.1352  0.3839
  124SOPE   O3113207   3.016   2.720   2.703 -1.0702  0.8615 -0.5335
  124SOPE   C3113208   2.963   2.836   2.689  0.1165  0.0274 -0.7205
  124SOPE   O3213209   2.863   2.861   2.622 -0.4909  0.3586  0.4181
  124SOPE   C3213210   3.018   2.927   2.800 -0.7038  0.2382  1.0008
  124SOPE   H2X13211   2.958   3.019   2.785 -0.7638  0.1657  0.7875
  124SOPE   H2Y13212   3.121   2.961   2.777 -0.9623 -0.3610 -1.2307
  124SOPE   C2313213   3.197   2.310   3.020 -0.7113 -0.5294  0.2371
  124SOPE   H3R13214   3.140   2.396   3.062  0.1079 -0.2167  0.7361
  124SOPE   H3S13215   3.296   2.358   3.003 -0.4121 -0.5089  1.9194
  124SOPE   C2413216   3.205   2.201   3.124  0.1433  0.7422 -0.4499
  124SOPE   H4R13217   3.126   2.122   3.127  1.9747 -1.1690 -0.3303
  124SOPE   H4S13218   3.299   2.144   3.111 -0.9607 -1.1693 -0.4390
  124SOPE   C2513219   3.220   2.250   3.269  0.8056 -0.2199  0.9603
  124SOPE   H5R13220   3.308   2.318   3.261 -1.2530  2.4440 -4.9852
  124SOPE   H5S13221   3.135   2.316   3.295 -0.5804 -0.8926 -1.5246
  124SOPE   C2613222   3.219   2.144   3.371 -0.2277 -0.5565  0.0775
  124SOPE   H6R13223   3.121   2.093   3.364 -0.4786 -0.1399  0.4730
  124SOPE   H6S13224   3.299   2.067   3.361 -0.9326 -1.5175  1.4989
  124SOPE   C2713225   3.238   2.185   3.519  0.2793  0.1087 -0.5445
  124SOPE   H7R13226   3.191   2.286   3.526  1.3206  0.5858 -0.2797
  124SOPE   H7S13227   3.180   2.114   3.582  0.2733  1.0163  0.5036
  124SOPE   C2813228   3.384   2.205   3.562  0.2657 -0.1961 -0.1303
  124SOPE   H8R13229   3.449   2.257   3.489  0.6526 -0.6528 -0.1165
  124SOPE   H8S13230   3.372   2.266   3.654 -0.2936  2.2738 -1.7658
  124SOPE   C2913231   3.449   2.074   3.589  0.2916  0.2295  0.9791
  124SOPE   H9113232   3.494   2.034   3.497  0.1017  0.8668  0.6076
  124SOPE  C21013233   3.475   2.001   3.699  0.0248  0.1995 -0.0718
  124SOPE  H10113234   3.542   1.915   3.683  0.3891  0.9685 -3.3098
  124SOPE  C21113235   3.428   2.048   3.836 -0.1445 -0.5253  0.2988
  124SOPE  H11R13236   3.317   2.045   3.842 -0.0867  0.3474  3.8620
  124SOPE  H11S13237   3.457   2.154   3.856 -1.6524 -0.2889  1.3339
  124SOPE  C21213238   3.468   1.948   3.953 -0.9535  0.3431 -0.5023
  124SOPE  H12R13239   3.571   1.914   3.930  0.0870  0.3811  3.4169
  124SOPE  H12S13240   3.397   1.862   3.949 -2.5469  1.6618 -1.7392
  124SOPE  C21313241   3.478   2.010   4.093 -0.3384 -0.9138 -1.1827
  124SOPE  H13R13242   3.381   2.049   4.127  0.0943  0.7232 -1.7313
  124SOPE  H13S13243   3.552   2.093   4.092 -2.9704  1.5834 -0.8797
  124SOPE  C21413244   3.521   1.914   4.212  0.1841  0.4291  0.2795
  124SOPE  H14R13245   3.618   1.862   4.193  0.3363  0.0889  1.8298
  124SOPE  H14S13246   3.452   1.827   4.207  0.1493  0.5320 -1.8006
  124SOPE  C21513247   3.509   1.970   4.349  0.0935  0.1697  0.1283
  124SOPE  H15R13248   3.409   2.018   4.351 -0.4612 -0.7794 -1.9726
  124SOPE  H15S13249   3.573   2.058   4.373 -1.0624  0.7378  1.2303
  124SOPE  C21613250   3.538   1.855   4.458  0.9182 -0.0842 -0.7621
  124SOPE  H16R13251   3.644   1.822   4.455  1.5524  1.4068  2.0959
  124SOPE  H16S13252   3.475   1.764   4.449 -0.6898  1.0323 -1.2082
  124SOPE  C21713253   3.507   1.915   4.600 -0.0538 -0.4965 -0.7968
  124SOPE  H17R13254   3.570   2.003   4.626 -0.8925 -0.6611  2.2526
  124SOPE  H17S13255   3.531   1.837   4.675 -0.8250  0.8102  0.8782
  124SOPE  C21813256   3.369   1.955   4.624  1.2783 -0.2745  0.2316
  124SOPE  H18R13257   3.326   2.028   4.552 -0.8980 -0.6602  1.0693
  124SOPE  H18S13258   3.352   1.985   4.729 -0.1295  0.7561 -0.2552
  124SOPE  H18T13259   3.297   1.871   4.622  1.4133 -0.4349 -2.6116
  124SOPE   C3313260   2.998   2.867   2.945  0.3328  0.2957 -0.6944
  124SOPE   H3X13261   3.039   2.942   3.016 -1.7425  2.3220 -1.5083
  124SOPE   H3Y13262   3.064   2.777   2.952  0.6444  0.5894  0.2843
  124SOPE   C3413263   2.852   2.839   2.977  0.3504 -0.0107  0.3478
  124SOPE   H4X13264   2.813   2.770   2.899 -0.7703 -0.2296  1.0725
  124SOPE   H4Y13265   2.803   2.939   2.967  2.0049  0.7972  0.0016
  124SOPE   C3513266   2.838   2.767   3.114  0.9555 -0.1421  0.1990
  124SOPE   H5X13267   2.891   2.670   3.105 -1.0590 -1.5088  2.0524
  124SOPE   H5Y13268   2.731   2.747   3.136  1.2472 -0.3035  1.5250
  124SOPE   C3613269   2.904   2.859   3.217  0.4479  0.1520 -0.4926
  124SOPE   H6X13270   2.850   2.956   3.216 -0.9243 -0.5174  1.4386
  124SOPE   H6Y13271   3.014   2.864   3.212  0.3850  2.6035 -0.5893
  124SOPE   C3713272   2.870   2.812   3.356  0.0084  0.5911 -0.3471
  124SOPE   H7X13273   2.928   2.723   3.387  1.7255  1.2727 -1.4870
  124SOPE   H7Y13274   2.764   2.778   3.353  0.0586  0.4664 -0.7927
  124SOPE   C3813275   2.889   2.921   3.459 -0.3646 -0.0322  0.1616
  124SOPE   H8X13276   2.805   2.992   3.441 -0.8407 -1.1120 -2.3505
  124SOPE   H8Y13277   2.986   2.968   3.433  0.3967 -2.2369 -1.3028
  124SOPE   C3913278   2.894   2.869   3.605 -0.2773  0.1215  0.4429
  124SOPE   H9X13279   2.952   2.774   3.609  0.5472  0.5437 -0.7431
  124SOPE   H9Y13280   2.786   2.843   3.616  0.1545 -2.4035 -0.4827
  124SOPE  C31013281   2.951   2.975   3.698 -0.5896  0.0273  0.3697
  124SOPE  H10X13282   2.904   3.070   3.667 -1.0287  0.3348  1.9111
  124SOPE  H10Y13283   3.061   2.978   3.682 -0.4907 -3.1208 -0.2480
  124SOPE  C31113284   2.942   2.932   3.846  0.0528  0.2954  0.2856
  124SOPE  H11X13285   2.982   2.828   3.846 -0.8701 -0.1218  2.3031
  124SOPE  H11Y13286   2.833   2.922   3.869  0.0745 -1.0378 -0.1042
  124SOPE  C31213287   3.019   3.018   3.953 -0.2098 -0.0707 -0.0595
  124SOPE  H12X13288   2.983   3.120   3.925 -0.1770 -0.2242 -0.6689
  124SOPE  H12Y13289   3.126   3.014   3.925 -0.6588 -1.1513 -1.7633
  124SOPE  C31313290   2.980   2.975   4.091  0.2072 -0.3934 -0.3454
  124SOPE  H13X13291   2.995   2.867   4.113 -0.0213 -0.3357  0.1326
  124SOPE  H13Y13292   2.870   2.993   4.093 -0.4920 -4.0015  0.4903
  124SOPE  C31413293   3.061   3.066   4.188  0.1120 -0.1110 -0.0728
  124SOPE  H14X13294   3.039   3.171   4.160 -0.5844 -0.7221 -1.9807
  124SOPE  H14Y13295   3.167   3.045   4.162  0.0967  1.6900 -1.8353
  124SOPE  C31513296   3.030   3.038   4.338 -0.0160 -0.1919  0.1827
  124SOPE  H15X13297   3.090   3.089   4.416 -0.4987  0.7507 -0.0475
  124SOPE  H15Y13298   3.046   2.930   4.360  0.4975  0.2371  2.0940
  124SOPE  C31613299   2.880   3.073   4.376  0.9361 -0.6926 -0.1214
  124SOPE  H16X13300   2.814   3.008   4.315 -0.2182 -2.6151  2.9252
  124SOPE  H16Y13301   2.856   3.181   4.363 -2.0530 -1.4677 -2.1401
  124SOPE  C31713302   2.865   3.051   4.523 -0.2150 -0.0866  0.0920
  124SOPE  H17X13303   2.949   3.088   4.586  1.7113 -2.5019 -0.8960
  124SOPE  H17Y13304   2.867   2.940   4.530 -0.3222  0.0020  2.0461
  124SOPE  C31813305   2.736   3.094   4.588 -0.0522  0.1628  0.4804
  124SOPE  H18X13306   2.652   3.077   4.518 -0.6634  0.9687  1.0013
  124SOPE  H18Y13307   2.739   3.203   4.609  0.9123 -0.2696  2.9358
  124SOPE  H18Z13308   2.715   3.042   4.684  0.9391 -0.4798  0.3628
  125SOPE     N13309   5.434   1.771   1.623 -0.6206  0.0423 -0.4417
  125SOPE   HN113310   5.468   1.673   1.624  1.3132  0.6349  1.8093
  125SOPE   HN213311   5.336   1.776   1.588 -0.5799  0.4194 -0.5078
  125SOPE   HN313312   5.486   1.824   1.550 -0.3059  0.0903 -0.1898
  125SOPE   C1213313   5.447   1.825   1.765  0.0547  0.2837  0.7419
  125SOPE  H12A13314   5.357   1.889   1.777 -1.0490 -1.3087  1.4823
  125SOPE  H12B13315   5.548   1.865   1.785 -0.0371  0.2722  1.2506
  125SOPE   C1113316   5.428   1.710   1.865 -0.0512  0.4347 -0.0697
  125SOPE  H11A13317   5.321   1.679   1.857 -0.3714  1.4753  0.0419
  125SOPE  H11B13318   5.436   1.741   1.971  0.4443  2.5370 -0.6927
  125SOPE     P13319   5.563   1.486   1.928  0.3797 -0.3570  0.2617
  125SOPE   O1313320   5.665   1.413   1.859 -0.0175 -0.2274 -0.2007
  125SOPE   O1413321   5.441   1.416   1.978  0.5246 -0.2087  0.5393
  125SOPE   O1213322   5.509   1.598   1.830 -0.3908  0.3307  0.5272
  125SOPE   O1113323   5.607   1.570   2.054  0.3901 -0.0408  0.6574
  125SOPE    C113324   5.735   1.630   2.054 -0.3011  0.0336 -0.2654
  125SOPE    HA13325   5.734   1.710   1.977  0.5104 -0.0931 -0.4203
  125SOPE    HB13326   5.819   1.560   2.035  0.6058  0.3968  2.0468
  125SOPE    C213327   5.760   1.693   2.196 -0.0599 -0.3391  0.1002
  125SOPE    HS13328   5.853   1.754   2.198 -0.7301  0.7411 -0.5387
  125SOPE   O2113329   5.766   1.599   2.309 -0.3230 -0.3327  0.3548
  125SOPE   C2113330   5.867   1.523   2.317 -0.5297  0.5222  0.5107
  125SOPE   O2213331   5.959   1.521   2.237 -0.7471 -0.4082 -0.0753
  125SOPE   C2213332   5.848   1.424   2.428 -0.0871  0.0924 -0.2837
  125SOPE   H2R13333   5.924   1.345   2.412  0.8745  1.1364 -1.0199
  125SOPE   H2S13334   5.746   1.385   2.405 -0.5087  1.5988 -1.0573
  125SOPE    C313335   5.650   1.793   2.225  0.0525 -0.4635  0.7419
  125SOPE    HX13336   5.549   1.752   2.203  0.0072  0.0898 -0.1453
  125SOPE    HY13337   5.667   1.871   2.148 -0.7366 -1.7861 -0.8463
  125SOPE   O3113338   5.666   1.864   2.347  0.3212  0.1486  0.6052
  125SOPE   C3113339   5.552   1.885   2.414 -0.0554  0.2123 -0.6202
  125SOPE   O3213340   5.440   1.869   2.378  0.6044  0.2790  0.0342
  125SOPE   C3213341   5.591   1.947   2.552 -0.1242 -0.4999  0.4406
  125SOPE   H2X13342   5.534   2.039   2.575  1.2648 -0.1534  2.7086
  125SOPE   H2Y13343   5.701   1.962   2.560 -0.1293 -0.9321  1.4243
  125SOPE   C2313344   5.858   1.484   2.571 -0.0446 -0.9822 -0.3247
  125SOPE   H3R13345   5.834   1.396   2.634  0.9176  0.5637  2.3468
  125SOPE   H3S13346   5.793   1.571   2.594 -0.7232 -1.6204  0.1924
  125SOPE   C2413347   6.001   1.523   2.605 -0.5550  0.6383 -0.0338
  125SOPE   H4R13348   6.061   1.430   2.617  0.0303  1.1966  1.6872
  125SOPE   H4S13349   6.048   1.581   2.524 -0.4613  1.5192  0.6357
  125SOPE   C2513350   6.010   1.596   2.738 -0.6212  0.8200  0.0312
  125SOPE   H5R13351   6.118   1.621   2.746 -0.2402 -1.1228  2.8297
  125SOPE   H5S13352   5.955   1.692   2.739 -0.5500  0.8680 -0.6053
  125SOPE   C2613353   5.970   1.509   2.857 -0.1579 -0.7559  0.0597
  125SOPE   H6R13354   5.859   1.500   2.856 -0.2785  0.4348  0.7627
  125SOPE   H6S13355   6.006   1.405   2.841 -0.9044 -1.0846  0.4603
  125SOPE   C2713356   6.038   1.551   2.992  0.6887 -0.0558 -0.2817
  125SOPE   H7R13357   6.148   1.548   2.974  1.0004  2.9064  0.5786
  125SOPE   H7S13358   6.005   1.655   3.010  1.7066  0.4422 -1.1618
  125SOPE   C2813359   6.004   1.443   3.106  0.4719 -0.5080 -0.4455
  125SOPE   H8R13360   6.006   1.342   3.060 -0.3214  0.2681 -2.3136
  125SOPE   H8S13361   6.077   1.454   3.189 -0.2681  0.2531  0.1237
  125SOPE   C2913362   5.868   1.472   3.156  0.4407  0.6077  0.6145
  125SOPE   H9113363   5.792   1.481   3.077 -0.4237 -0.3847  1.2901
  125SOPE  C21013364   5.831   1.504   3.280  0.1119  0.1576 -0.2178
  125SOPE  H10113365   5.724   1.507   3.304 -0.2166  1.8063 -1.7064
  125SOPE  C21113366   5.925   1.516   3.395 -0.2904  0.0493  0.0693
  125SOPE  H11R13367   5.924   1.624   3.419  0.9149  0.2427 -0.6609
  125SOPE  H11S13368   6.030   1.486   3.373 -0.8239 -0.1390 -2.6303
  125SOPE  C21213369   5.881   1.440   3.526  0.4769  0.1587 -0.3181
  125SOPE  H12R13370   5.885   1.332   3.501 -1.2808  0.1175 -0.5165
  125SOPE  H12S13371   5.775   1.466   3.544  0.5390 -0.4777  1.0617
  125SOPE  C21313372   5.955   1.477   3.650  0.7044 -0.3393  0.4731
  125SOPE  H13R13373   5.969   1.586   3.640  0.5445 -0.3698 -0.1333
  125SOPE  H13S13374   6.057   1.434   3.639  1.7550  2.3387 -1.1655
  125SOPE  C21413375   5.879   1.451   3.780 -0.4968 -0.2752 -0.9132
  125SOPE  H14R13376   5.814   1.364   3.756 -0.0746 -0.8507 -0.0349
  125SOPE  H14S13377   5.801   1.525   3.808 -1.3917 -1.9355  1.2739
  125SOPE  C21513378   5.983   1.423   3.891 -0.7239  0.6571 -0.5667
  125SOPE  H15R13379   6.047   1.514   3.890  4.1173 -2.2625  1.9955
  125SOPE  H15S13380   6.049   1.342   3.853 -0.6715  1.0208 -1.2567
  125SOPE  C21613381   5.926   1.385   4.023  0.6185 -0.0249  0.8216
  125SOPE  H16R13382   5.854   1.300   4.019 -1.7314  1.7534  2.6075
  125SOPE  H16S13383   5.864   1.471   4.055  0.0902  0.0639 -0.3770
  125SOPE  C21713384   6.033   1.366   4.133 -1.1740 -0.0071  0.3412
  125SOPE  H17R13385   6.118   1.437   4.129  1.9727 -3.5103 -1.3721
  125SOPE  H17S13386   6.067   1.266   4.100 -4.2155 -0.4954 -1.7546
  125SOPE  C21813387   5.974   1.363   4.272 -0.4671  0.0657  0.3701
  125SOPE  H18R13388   5.889   1.291   4.274  0.9947 -1.7627 -1.0756
  125SOPE  H18S13389   5.944   1.468   4.294  1.0185  1.1460 -2.3628
  125SOPE  H18T13390   6.045   1.323   4.347 -0.8497 -0.2977  0.5392
  125SOPE   C3313391   5.565   1.846   2.666  0.1474  0.3399 -0.5845
  125SOPE   H3X13392   5.631   1.763   2.634 -0.0840 -0.3244  0.6216
  125SOPE   H3Y13393   5.466   1.796   2.674  1.1748 -1.4113  3.1038
  125SOPE   C3413394   5.609   1.891   2.809 -0.6162  0.0620 -0.2920
  125SOPE   H4X13395   5.561   1.988   2.831 -2.8151 -1.1328  0.4758
  125SOPE   H4Y13396   5.720   1.901   2.808 -0.5402 -0.7590 -0.9715
  125SOPE   C3513397   5.574   1.789   2.912  0.3459  0.7136  0.4588
  125SOPE   H5X13398   5.652   1.710   2.911  3.7618  3.7862 -0.4064
  125SOPE   H5Y13399   5.480   1.742   2.878  0.7112 -1.6445  2.4595
  125SOPE   C3613400   5.551   1.833   3.055  0.0923  0.5185  0.4189
  125SOPE   H6X13401   5.465   1.903   3.050 -0.2269  0.1660  0.9402
  125SOPE   H6Y13402   5.646   1.882   3.087  1.2659 -2.5271  1.9952
  125SOPE   C3713403   5.501   1.719   3.144  0.6310  0.2648  0.0248
  125SOPE   H7X13404   5.579   1.642   3.163 -0.2002 -0.1251  2.2193
  125SOPE   H7Y13405   5.414   1.668   3.096  0.9382 -0.0614 -0.1958
  125SOPE   C3813406   5.452   1.767   3.286  0.4417  0.4246  0.5701
  125SOPE   H8X13407   5.360   1.825   3.269 -0.3064 -0.6333  0.9059
  125SOPE   H8Y13408   5.530   1.836   3.324 -0.4513  0.8103  1.7169
  125SOPE   C3913409   5.425   1.648   3.378  0.5407  0.4846 -0.0010
  125SOPE   H9X13410   5.510   1.577   3.376 -3.3373 -4.8039 -0.4450
  125SOPE   H9Y13411   5.347   1.590   3.324  1.1627 -0.6905  0.3251
  125SOPE  C31013412   5.393   1.679   3.521 -0.2182 -0.2428  0.6076
  125SOPE  H10X13413   5.348   1.590   3.569 -1.2847  0.4023  0.8292
  125SOPE  H10Y13414   5.320   1.762   3.534 -0.5141 -0.6322  1.5411
  125SOPE  C31113415   5.519   1.717   3.591 -0.2074 -0.1298  0.4077
  125SOPE  H11X13416   5.556   1.806   3.536  1.0005  0.7121  2.4635
  125SOPE  H11Y13417   5.605   1.648   3.587  0.4084  0.6902 -2.0346
  125SOPE  C31213418   5.508   1.741   3.742 -0.2616 -0.4115 -0.2014
  125SOPE  H12X13419   5.469   1.650   3.794 -0.7892  0.1569  0.4193
  125SOPE  H12Y13420   5.433   1.821   3.762 -1.0669 -1.6975  2.5228
  125SOPE  C31313421   5.636   1.793   3.810 -0.2612 -0.2354  0.2577
  125SOPE  H13X13422   5.698   1.862   3.748 -0.4507 -1.2345 -1.0860
  125SOPE  H13Y13423   5.698   1.702   3.821  1.4673  0.6990 -1.1060
  125SOPE  C31413424   5.605   1.846   3.944 -0.0269 -0.0676 -0.1571
  125SOPE  H14X13425   5.540   1.936   3.938  0.7571  0.5297  0.0541
  125SOPE  H14Y13426   5.698   1.879   3.995 -0.2501 -1.8694  1.5383
  125SOPE  C31513427   5.540   1.749   4.047  0.1939  0.5457  0.3097
  125SOPE  H15X13428   5.612   1.665   4.059 -0.6941 -0.8003 -2.6974
  125SOPE  H15Y13429   5.451   1.700   4.002 -0.2785 -0.3755  2.1581
  125SOPE  C31613430   5.511   1.823   4.180  0.2327  0.5379  1.1676
  125SOPE  H16X13431   5.571   1.916   4.180  1.7871 -0.4183  0.0510
  125SOPE  H16Y13432   5.549   1.760   4.263  0.5325 -1.1208 -0.1682
  125SOPE  C31713433   5.363   1.856   4.210  0.4637  0.4392  0.1682
  125SOPE  H17X13434   5.301   1.767   4.185 -0.1521  1.1621 -0.9629
  125SOPE  H17Y13435   5.339   1.942   4.145 -0.0038  0.7974  0.8010
  125SOPE  C31813436   5.340   1.880   4.359  0.1468 -0.3696  0.1596
  125SOPE  H18X13437   5.361   1.794   4.426  1.0495 -0.2632  0.0273
  125SOPE  H18Y13438   5.236   1.916   4.374 -0.8482 -1.8226 -2.4488
  125SOPE  H18Z13439   5.412   1.958   4.391 -0.9652  0.0449  1.7522
  126SOPE     N13440   0.304   4.789   1.761  0.4762  0.7919  0.0262
  126SOPE   HN113441   0.248   4.800   1.674 -0.9661 -0.5726  0.7201
  126SOPE   HN213442   0.244   4.828   1.836  0.4578 -0.7110  0.8169
  126SOPE   HN313443   0.395   4.840   1.760  0.4824  0.7809 -0.6218
  126SOPE   C1213444   0.328   4.639   1.776  0.3694  0.7956 -0.5876
  126SOPE  H12A13445   0.439   4.643   1.770  0.2556  3.0132 -2.6864
  126SOPE  H12B13446   0.290   4.587   1.686  0.1373 -1.3647  0.7048
  126SOPE   C1113447   0.269   4.590   1.913 -0.1038 -0.5070  0.0053
  126SOPE  H11A13448   0.322   4.661   1.981  0.2896 -0.7852 -0.0090
  126SOPE  H11B13449   0.295   4.486   1.944 -1.2616 -0.2259  2.1466
  126SOPE     P13450   0.070   4.733   2.003  0.1882 -0.0216 -0.4261
  126SOPE   O1313451  -0.077   4.727   1.999  0.7005 -0.3747 -0.3029
  126SOPE   O1413452   0.128   4.860   1.954 -0.3068 -0.0573 -0.4303
  126SOPE   O1213453   0.125   4.619   1.915 -0.8454  0.0746 -0.5657
  126SOPE   O1113454   0.124   4.703   2.145 -0.0502 -0.2655  0.1121
  126SOPE    C113455   0.057   4.623   2.239  0.2751 -0.2421 -0.0315
  126SOPE    HA13456   0.135   4.563   2.291 -0.2134 -0.2298  0.7155
  126SOPE    HB13457  -0.016   4.550   2.197  1.8490 -2.4660  0.9335
  126SOPE    C213458  -0.019   4.709   2.344  0.2501  0.1415 -0.1623
  126SOPE    HS13459  -0.096   4.772   2.295 -1.0444  1.3897  3.1907
  126SOPE   O2113460   0.077   4.783   2.417 -0.0976 -0.2562  0.1109
  126SOPE   C2113461   0.037   4.902   2.463 -0.3726 -0.8320 -0.4163
  126SOPE   O2213462  -0.068   4.963   2.438 -0.0118 -0.5570  0.3325
  126SOPE   C2213463   0.130   4.940   2.575 -0.5571 -0.4121 -0.3341
  126SOPE   H2R13464   0.133   5.050   2.585 -1.0315 -0.2352 -1.9553
  126SOPE   H2S13465   0.231   4.906   2.543 -0.5722 -1.7792  0.9408
  126SOPE    C313466  -0.091   4.618   2.447  0.6136  0.1489  0.1401
  126SOPE    HX13467  -0.012   4.576   2.513  1.4204  2.2380  0.5573
  126SOPE    HY13468  -0.152   4.539   2.398 -2.5008  1.5627  1.4323
  126SOPE   O3113469  -0.184   4.692   2.530  0.2582  0.0181  0.3104
  126SOPE   C3113470  -0.301   4.746   2.491  0.3249 -0.6036  1.0185
  126SOPE   O3213471  -0.353   4.729   2.380  0.0980  0.3840 -0.7873
  126SOPE   C3213472  -0.377   4.817   2.601  0.6024  0.8445 -0.4204
  126SOPE   H2X13473  -0.453   4.883   2.555  1.6443  3.4456  1.3335
  126SOPE   H2Y13474  -0.310   4.879   2.665  0.2433  1.0192 -0.2070
  126SOPE   C2313475   0.088   4.864   2.707 -0.0344 -0.2773  0.2813
  126SOPE   H3R13476   0.070   4.759   2.673 -0.4752 -0.0870 -0.0886
  126SOPE   H3S13477  -0.005   4.901   2.755 -0.3326 -2.0127  1.1242
  126SOPE   C2413478   0.197   4.861   2.816  0.0047 -0.0104  1.0039
  126SOPE   H4R13479   0.290   4.834   2.760 -1.2268  2.1370 -2.4563
  126SOPE   H4S13480   0.224   4.964   2.850 -1.0868 -0.1690  2.4053
  126SOPE   C2513481   0.178   4.770   2.933 -0.3245  0.2159 -0.1991
  126SOPE   H5R13482   0.091   4.796   2.998 -0.1895 -0.1437  0.1248
  126SOPE   H5S13483   0.160   4.667   2.897 -1.3409  1.3570 -3.3097
  126SOPE   C2613484   0.295   4.768   3.028 -0.4702 -0.3314 -0.0188
  126SOPE   H6R13485   0.384   4.725   2.976 -0.0940 -0.5391  0.7862
  126SOPE   H6S13486   0.316   4.874   3.055 -1.4869 -0.7910  2.9379
  126SOPE   C2713487   0.268   4.699   3.162  0.1207  0.1882 -0.0351
  126SOPE   H7R13488   0.168   4.727   3.200  0.0539  0.9356 -0.7319
  126SOPE   H7S13489   0.265   4.589   3.151  1.6680  0.1939 -0.8100
  126SOPE   C2813490   0.360   4.747   3.275  0.6014 -0.1067 -0.2358
  126SOPE   H8R13491   0.340   4.854   3.296  2.2304  0.9645 -3.3967
  126SOPE   H8S13492   0.316   4.696   3.363 -2.2064 -0.4313 -1.7020
  126SOPE   C2913493   0.504   4.719   3.257 -0.7288 -0.1656 -0.5662
  126SOPE   H9113494   0.520   4.614   3.225  0.7773  0.5883 -2.4714
  126SOPE  C21013495   0.613   4.798   3.283  0.4038  0.0384  0.3403
  126SOPE  H10113496   0.712   4.754   3.262  1.8360  1.9863  2.4627
  126SOPE  C21113497   0.626   4.942   3.330 -0.1145 -0.2272 -0.0717
  126SOPE  H11R13498   0.533   4.996   3.302  0.1311  0.6402  0.7344
  126SOPE  H11S13499   0.711   4.998   3.286  0.7203  0.0654  1.8054
  126SOPE  C21213500   0.641   4.965   3.486 -0.6237 -0.5018 -0.4363
  126SOPE  H12R13501   0.560   4.913   3.542 -2.3126  1.5391 -0.8724
  126SOPE  H12S13502   0.639   5.075   3.501  1.5638 -0.5615  0.9102
  126SOPE  C21313503   0.780   4.911   3.524 -0.1627 -0.3244 -0.2607
  126SOPE  H13R13504   0.858   4.943   3.452 -0.0237 -0.9166 -0.3822
  126SOPE  H13S13505   0.778   4.800   3.515  2.5142 -0.6511  1.9392
  126SOPE  C21413506   0.833   4.942   3.653 -0.4211 -0.7733 -0.6987
  126SOPE  H14R13507   0.820   5.048   3.683  2.6776 -0.4817 -0.0542
  126SOPE  H14S13508   0.943   4.929   3.661 -0.2733 -0.2682 -1.7380
  126SOPE  C21513509   0.758   4.871   3.767  0.2085  0.3139 -0.8011
  126SOPE  H15R13510   0.768   4.763   3.744  1.3022 -0.0092  0.9858
  126SOPE  H15S13511   0.649   4.892   3.759 -0.0720 -0.7091  0.1754
  126SOPE  C21613512   0.827   4.886   3.906  0.2052  0.3919 -0.1015
  126SOPE  H16R13513   0.839   4.988   3.946  3.1006  0.7979 -1.6724
  126SOPE  H16S13514   0.929   4.841   3.894 -0.6822 -1.7511 -0.0750
  126SOPE  C21713515   0.746   4.806   4.011 -0.9447 -0.3090  0.2587
  126SOPE  H17R13516   0.811   4.774   4.096 -0.2181  1.8638  0.6001
  126SOPE  H17S13517   0.717   4.711   3.962 -0.1142 -0.7986  0.7067
  126SOPE  C21813518   0.623   4.874   4.061 -0.4812  0.3671  0.4696
  126SOPE  H18R13519   0.558   4.904   3.976 -2.0963 -0.7398  1.2583
  126SOPE  H18S13520   0.661   4.970   4.101  0.1735 -0.2054  1.2672
  126SOPE  H18T13521   0.568   4.814   4.136  0.9933 -1.4893  0.1522
  126SOPE   C3313522  -0.460   4.714   2.683 -0.2938 -0.2065 -0.2882
  126SOPE   H3X13523  -0.513   4.648   2.612 -0.2593 -0.6869  0.1223
  126SOPE   H3Y13524  -0.534   4.771   2.743 -0.2800 -0.3833 -0.1006
  126SOPE   C3413525  -0.368   4.637   2.779 -0.3804  0.3070 -0.7287
  126SOPE   H4X13526  -0.290   4.594   2.713  1.9907  1.9542  0.8607
  126SOPE   H4Y13527  -0.420   4.552   2.829 -1.2110  1.1384 -0.1435
  126SOPE   C3513528  -0.293   4.719   2.887  0.0428 -0.0137 -0.7249
  126SOPE   H5X13529  -0.365   4.794   2.926 -0.6761 -0.9138 -0.3013
  126SOPE   H5Y13530  -0.216   4.775   2.829 -1.6293  2.9999 -0.2475
  126SOPE   C3613531  -0.234   4.641   3.006 -0.7312 -0.3471  0.6994
  126SOPE   H6X13532  -0.148   4.579   2.974 -0.5994  0.1294  0.1174
  126SOPE   H6Y13533  -0.318   4.572   3.028 -1.6038  0.6035  0.4321
  126SOPE   C3713534  -0.203   4.728   3.131  0.5223 -0.5477 -0.0976
  126SOPE   H7X13535  -0.299   4.772   3.166  0.2864 -0.8005 -0.4292
  126SOPE   H7Y13536  -0.147   4.815   3.089  0.4087 -0.7870 -0.7589
  126SOPE   C3813537  -0.137   4.656   3.255  0.3012 -0.1619 -0.5506
  126SOPE   H8X13538  -0.044   4.602   3.226 -0.9688 -2.7600 -0.0886
  126SOPE   H8Y13539  -0.215   4.588   3.297 -1.0032  1.3262 -0.4654
  126SOPE   C3913540  -0.107   4.761   3.364 -0.1951  0.2029  0.2329
  126SOPE   H9X13541  -0.203   4.796   3.408 -1.0577 -1.8985  0.1156
  126SOPE   H9Y13542  -0.063   4.848   3.310 -1.2526  0.4026 -0.3427
  126SOPE  C31013543  -0.023   4.707   3.481  0.3638 -0.0205  0.2360
  126SOPE  H10X13544   0.073   4.661   3.449  0.2273 -0.4453  0.4145
  126SOPE  H10Y13545  -0.078   4.623   3.531  0.2965 -0.2799 -0.2650
  126SOPE  C31113546  -0.004   4.812   3.588  0.1883 -0.4005 -0.6381
  126SOPE  H11X13547  -0.104   4.859   3.594 -0.9883 -2.6600 -1.3804
  126SOPE  H11Y13548   0.074   4.886   3.558 -0.5403  1.0521  0.9096
  126SOPE  C31213549   0.032   4.751   3.727 -0.0888 -0.9754 -0.4205
  126SOPE  H12X13550  -0.059   4.690   3.748 -0.6410  0.3159  1.1869
  126SOPE  H12Y13551   0.037   4.822   3.812  0.9912  0.8431 -1.9309
  126SOPE  C31313552   0.152   4.656   3.720  0.0817  0.9637 -0.3616
  126SOPE  H13X13553   0.146   4.573   3.647 -0.4481  0.6928 -0.0149
  126SOPE  H13Y13554   0.156   4.616   3.824  1.5739 -0.6273 -0.9768
  126SOPE  C31413555   0.279   4.740   3.701 -0.1855  0.1334  0.0182
  126SOPE  H14X13556   0.279   4.817   3.781 -1.0049 -0.5922  0.7456
  126SOPE  H14Y13557   0.288   4.808   3.613  0.3748  1.4206  1.0317
  126SOPE  C31513558   0.412   4.660   3.732  0.2902 -0.8172 -0.4566
  126SOPE  H15X13559   0.388   4.580   3.805 -0.2629  0.6254  0.9880
  126SOPE  H15Y13560   0.487   4.730   3.775 -0.6391 -0.0095 -0.1193
  126SOPE  C31613561   0.460   4.595   3.605  0.3366 -0.5977 -0.5045
  126SOPE  H16X13562   0.534   4.663   3.559 -2.3005  1.3847 -2.1411
  126SOPE  H16Y13563   0.375   4.600   3.533  1.4802  1.4282 -1.7828
  126SOPE  C31713564   0.506   4.451   3.635  0.6421  0.0382  0.2390
  126SOPE  H17X13565   0.423   4.379   3.646 -0.4938  1.3999  0.8769
  126SOPE  H17Y13566   0.577   4.442   3.720  0.8000  1.3058  0.2645
  126SOPE  C31813567   0.588   4.395   3.514 -0.3958 -0.8970 -0.3550
  126SOPE  H18X13568   0.533   4.393   3.418 -1.7871 -1.8918  0.4351
  126SOPE  H18Y13569   0.610   4.290   3.542 -2.7185 -1.4523 -0.4474
  126SOPE  H18Z13570   0.681   4.456   3.507 -0.4078 -0.6517  1.3141
  127SOPE     N13571   2.541   0.854   2.287  0.1042 -0.1792 -1.1342
  127SOPE   HN113572   2.644   0.868   2.297 -0.0950  0.9810 -0.6124
  127SOPE   HN213573   2.502   0.848   2.191  0.8659 -2.1440 -1.3918
  127SOPE   HN313574   2.492   0.932   2.334 -1.0071 -1.0453 -0.7996
  127SOPE   C1213575   2.506   0.720   2.352  0.6259  0.2353 -0.2844
  127SOPE  H12A13576   2.396   0.710   2.362  0.5940 -1.0964 -1.5815
  127SOPE  H12B13577   2.550   0.726   2.454  1.7213  1.2473 -0.7781
  127SOPE   C1113578   2.558   0.597   2.279 -0.0330  0.1858  0.5085
  127SOPE  H11A13579   2.494   0.576   2.191 -3.0892  0.3813  2.5262
  127SOPE  H11B13580   2.554   0.509   2.347  2.3529  0.0911  0.6207
  127SOPE     P13581   2.798   0.517   2.198 -0.1840 -0.6847  0.4406
  127SOPE   O1313582   2.928   0.583   2.178  0.2534 -0.2032  0.5456
  127SOPE   O1413583   2.756   0.430   2.086 -0.2951 -0.2476  0.1602
  127SOPE   O1213584   2.693   0.624   2.238 -0.4349  0.1310  0.3011
  127SOPE   O1113585   2.797   0.430   2.330 -0.3247 -0.6649 -0.6727
  127SOPE    C113586   2.861   0.496   2.444 -0.3703  0.1138 -0.4703
  127SOPE    HA13587   2.794   0.569   2.494  1.2259  1.3702 -0.0905
  127SOPE    HB13588   2.951   0.556   2.420  1.2999 -0.4279  3.6636
  127SOPE    C213589   2.921   0.389   2.549 -0.7810  0.3278  0.0888
  127SOPE    HS13590   2.999   0.432   2.615 -2.0249  0.4179  1.5336
  127SOPE   O2113591   2.980   0.284   2.475 -0.3141  0.0469 -0.3103
  127SOPE   C2113592   3.091   0.313   2.401 -0.0823 -0.2461 -0.7623
  127SOPE   O2213593   3.142   0.424   2.395  0.2341  0.1149  0.2457
  127SOPE   C2213594   3.133   0.187   2.329 -0.2995  0.2008 -1.0018
  127SOPE   H2R13595   3.142   0.214   2.221 -0.3177  0.3270 -0.9720
  127SOPE   H2S13596   3.058   0.106   2.334  1.5102 -1.5867 -1.3794
  127SOPE    C313597   2.796   0.340   2.634 -0.5805 -0.6659 -0.1346
  127SOPE    HX13598   2.715   0.317   2.561 -2.5129  2.2158  0.9022
  127SOPE    HY13599   2.750   0.424   2.690 -1.2537 -0.8482 -0.4034
  127SOPE   O3113600   2.834   0.235   2.721  0.5896 -0.0823  0.6899
  127SOPE   C3113601   2.795   0.115   2.677 -0.0357  0.6129 -0.2643
  127SOPE   O3213602   2.734   0.095   2.572 -0.2390  0.0871 -0.2102
  127SOPE   C3213603   2.837   0.007   2.778  0.1028 -0.0663 -0.0708
  127SOPE   H2X13604   2.910   0.053   2.848  0.2537 -0.5264  0.0778
  127SOPE   H2Y13605   2.897  -0.073   2.731  1.7542  0.4787  1.0146
  127SOPE   C2313606   3.272   0.138   2.375 -0.5387 -0.4461  0.6746
  127SOPE   H3R13607   3.358   0.198   2.339 -1.0125  0.4099  0.9353
  127SOPE   H3S13608   3.289   0.041   2.323 -1.7470 -0.2298 -0.1730
  127SOPE   C2413609   3.280   0.105   2.526  1.0079 -0.1501 -0.0103
  127SOPE   H4R13610   3.365   0.034   2.536  0.9726 -0.3679 -1.0858
  127SOPE   H4S13611   3.293   0.195   2.589  0.6756  2.3373 -3.1946
  127SOPE   C2513612   3.161   0.021   2.584 -0.7093 -0.2389 -0.0023
  127SOPE   H5R13613   3.071   0.085   2.600  1.4568  2.3656  3.0560
  127SOPE   H5S13614   3.138  -0.059   2.510  0.6329  1.4642 -2.3805
  127SOPE   C2613615   3.202  -0.056   2.713  0.0609 -0.3196 -0.1629
  127SOPE   H6R13616   3.120  -0.122   2.748  1.3997 -1.2984  1.2397
  127SOPE   H6S13617   3.295  -0.111   2.687 -0.4739 -0.6751 -1.3942
  127SOPE   C2713618   3.217   0.031   2.833 -0.3854 -0.0293  0.0658
  127SOPE   H7R13619   3.311   0.090   2.826 -0.4355  0.2854  1.6666
  127SOPE   H7S13620   3.129   0.097   2.818 -1.3273 -1.3161 -0.3037
  127SOPE   C2813621   3.213  -0.038   2.971 -0.2107  1.0292 -0.3592
  127SOPE   H8R13622   3.202   0.033   3.056  0.4693 -0.0619  0.6841
  127SOPE   H8S13623   3.115  -0.090   2.963  1.1476 -1.6328 -0.9991
  127SOPE   C2913624   3.328  -0.132   2.990  0.1538 -0.3592  0.1877
  127SOPE   H9113625   3.416  -0.119   2.927  0.3920 -0.4281  0.5033
  127SOPE  C21013626   3.333  -0.232   3.081  0.2084 -0.1723 -0.2865
  127SOPE  H10113627   3.422  -0.295   3.092 -0.1782 -0.7532 -0.4540
  127SOPE  C21113628   3.217  -0.256   3.177 -0.0922 -0.1252 -0.5208
  127SOPE  H11R13629   3.166  -0.348   3.140 -1.5186  1.1307 -1.8197
  127SOPE  H11S13630   3.139  -0.178   3.175 -0.0591 -0.0718  0.1596
  127SOPE  C21213631   3.269  -0.258   3.326 -0.2939  0.0064  0.6246
  127SOPE  H12R13632   3.316  -0.159   3.343  2.4493 -1.0998  0.0271
  127SOPE  H12S13633   3.349  -0.335   3.330 -0.1723  0.1711  1.5140
  127SOPE  C21313634   3.160  -0.286   3.424 -0.7661  0.0780 -0.2163
  127SOPE  H13R13635   3.103  -0.381   3.424 -0.6133 -0.1818  3.7664
  127SOPE  H13S13636   3.081  -0.209   3.410 -0.6214  0.0830 -1.0544
  127SOPE  C21413637   3.215  -0.276   3.560 -0.4713  0.0859 -0.9081
  127SOPE  H14R13638   3.260  -0.177   3.584 -0.4610 -0.3947  1.2716
  127SOPE  H14S13639   3.302  -0.344   3.566 -1.5567 -1.3177 -0.6938
  127SOPE  C21513640   3.107  -0.307   3.659  0.2541  0.0270 -0.2594
  127SOPE  H15R13641   3.075  -0.413   3.660 -2.0177  0.5925 -2.0393
  127SOPE  H15S13642   3.026  -0.232   3.641  1.1582  1.3937  1.1033
  127SOPE  C21613643   3.150  -0.290   3.799  0.1642 -0.3993  0.1034
  127SOPE  H16R13644   3.180  -0.183   3.801 -1.1339 -0.0223  1.1197
  127SOPE  H16S13645   3.239  -0.349   3.829  0.2584 -0.3063  0.0109
  127SOPE  C21713646   3.035  -0.315   3.894  0.0128 -0.4394  0.0218
  127SOPE  H17R13647   2.981  -0.407   3.864 -1.8660  0.5906  0.0926
  127SOPE  H17S13648   2.968  -0.230   3.869  1.2555  1.0888  1.6204
  127SOPE  C21813649   3.074  -0.303   4.050  0.4164  0.2193 -0.2314
  127SOPE  H18R13650   2.986  -0.332   4.112 -0.2398  1.6797 -0.4522
  127SOPE  H18S13651   3.118  -0.202   4.066  0.9662  0.0162 -0.4354
  127SOPE  H18T13652   3.159  -0.371   4.072  0.3910  0.2089 -0.1686
  127SOPE   C3313653   2.717  -0.058   2.845  0.3423  0.9202 -0.5850
  127SOPE   H3X13654   2.638  -0.081   2.770  0.1405  2.2626 -0.8112
  127SOPE   H3Y13655   2.668   0.015   2.912 -0.0165  0.2163 -0.0703
  127SOPE   C3413656   2.758  -0.187   2.931 -0.1655  0.1216 -0.0271
  127SOPE   H4X13657   2.853  -0.159   2.982 -0.0523  0.6345 -0.5149
  127SOPE   H4Y13658   2.766  -0.264   2.852 -0.9206  1.4695 -1.4592
  127SOPE   C3513659   2.669  -0.225   3.051 -0.0185  0.3746 -0.1413
  127SOPE   H5X13660   2.663  -0.147   3.129 -1.3498  0.3422 -0.1786
  127SOPE   H5Y13661   2.720  -0.319   3.081  0.0668  0.4285 -0.1204
  127SOPE   C3613662   2.516  -0.250   3.018  0.0739  0.5304  0.0906
  127SOPE   H6X13663   2.530  -0.333   2.945  2.6779 -0.2050  1.3352
  127SOPE   H6Y13664   2.478  -0.159   2.965 -0.6659  0.8126  1.0681
  127SOPE   C3713665   2.415  -0.275   3.128 -1.1897 -0.7130 -0.0095
  127SOPE   H7X13666   2.313  -0.253   3.091 -0.2932  1.9677 -1.2150
  127SOPE   H7Y13667   2.421  -0.213   3.219 -0.9200 -1.3336  0.4023
  127SOPE   C3813668   2.404  -0.430   3.156 -0.0968  0.4666 -0.0981
  127SOPE   H8X13669   2.504  -0.475   3.175 -0.2748 -0.1067 -0.4703
  127SOPE   H8Y13670   2.357  -0.467   3.062 -0.3324  2.5827 -0.8519
  127SOPE   C3913671   2.319  -0.470   3.275 -0.5562  0.3011  0.3399
  127SOPE   H9X13672   2.314  -0.580   3.286 -2.2250  0.3725  0.4817
  127SOPE   H9Y13673   2.217  -0.427   3.273  0.0980  1.9662  0.8732
  127SOPE  C31013674   2.387  -0.417   3.408 -0.0637 -0.1493  0.1101
  127SOPE  H10X13675   2.397  -0.306   3.404  0.7736 -0.0634  2.6978
  127SOPE  H10Y13676   2.488  -0.464   3.414  0.7569  1.2815 -1.6294
  127SOPE  C31113677   2.307  -0.449   3.533 -0.5695 -0.0908 -0.8713
  127SOPE  H11X13678   2.260  -0.547   3.513 -0.4761 -0.1242 -0.9279
  127SOPE  H11Y13679   2.224  -0.376   3.543  0.1937  0.5753  1.0447
  127SOPE  C31213680   2.375  -0.449   3.673  0.2837 -0.3331  0.6087
  127SOPE  H12X13681   2.437  -0.357   3.677  0.7743 -0.6295  0.0322
  127SOPE  H12Y13682   2.450  -0.530   3.676  0.2695 -0.3060  1.9977
  127SOPE  C31313683   2.283  -0.454   3.792 -0.1128  0.2961  0.2942
  127SOPE  H13X13684   2.345  -0.460   3.884  0.2859 -0.3390 -0.0118
  127SOPE  H13Y13685   2.236  -0.555   3.794 -1.0607  0.5930 -2.7122
  127SOPE  C31413686   2.187  -0.335   3.803  0.1589  0.2841  0.6541
  127SOPE  H14X13687   2.190  -0.270   3.712 -0.0570 -0.6994 -0.0744
  127SOPE  H14Y13688   2.192  -0.274   3.895  0.7891  0.3751  0.5611
  127SOPE  C31513689   2.032  -0.384   3.813  0.0608  0.0261  0.5260
  127SOPE  H15X13690   2.012  -0.451   3.727 -1.1061 -1.4697  1.9264
  127SOPE  H15Y13691   1.968  -0.293   3.813  1.5366  1.1208  0.2494
  127SOPE  C31613692   2.002  -0.460   3.945  0.0789  0.1473 -0.3819
  127SOPE  H16X13693   2.009  -0.570   3.931 -0.3709  0.2992 -2.0326
  127SOPE  H16Y13694   1.892  -0.461   3.964 -0.2279 -0.2958 -2.0230
  127SOPE  C31713695   2.057  -0.408   4.081 -0.7852  0.3392  1.1539
  127SOPE  H17X13696   2.047  -0.298   4.087 -0.4826  0.5197 -0.9267
  127SOPE  H17Y13697   2.167  -0.416   4.071 -0.9626 -1.4584  0.2599
  127SOPE  C31813698   1.986  -0.470   4.206  0.1951 -0.1920 -0.7926
  127SOPE  H18X13699   2.020  -0.573   4.226  1.5829  0.2195 -0.9490
  127SOPE  H18Y13700   1.875  -0.469   4.200 -0.0052 -0.3026  1.6190
  127SOPE  H18Z13701   2.012  -0.414   4.299  2.6962 -1.4764 -0.6523
  128SOPE     N13702   4.034   4.319   2.067  0.2939 -0.0106  0.2330
  128SOPE   HN113703   4.099   4.331   2.147 -0.4289 -0.1728  0.8619
  128SOPE   HN213704   3.955   4.386   2.081 -0.3804 -0.5320 -0.9532
  128SOPE   HN313705   3.997   4.221   2.064 -0.2113  0.2043 -1.5741
  128SOPE   C1213706   4.081   4.351   1.930  0.1347  0.9918  0.2221
  128SOPE  H12A13707   4.100   4.459   1.913 -0.8044  0.9333 -1.3633
  128SOPE  H12B13708   4.003   4.320   1.857  0.5457 -0.1224  0.2270
  128SOPE   C1113709   4.199   4.261   1.892  0.1463  0.0159  0.5587
  128SOPE  H11A13710   4.231   4.292   1.791 -0.6752  1.0283  0.5892
  128SOPE  H11B13711   4.156   4.159   1.888 -1.1640  0.3889  3.0513
  128SOPE     P13712   4.445   4.304   1.954  0.0669 -0.0411  0.0418
  128SOPE   O1313713   4.432   4.426   1.870  0.0779 -0.2096 -0.2767
  128SOPE   O1413714   4.521   4.192   1.904 -0.4628 -0.0407 -0.7616
  128SOPE   O1213715   4.297   4.267   1.990  0.3870  0.3170 -0.2269
  128SOPE   O1113716   4.503   4.336   2.094 -0.0925  0.3642  0.5673
  128SOPE    C113717   4.478   4.242   2.206 -0.0828 -0.6662  0.1264
  128SOPE    HA13718   4.484   4.134   2.179  2.7726 -0.1118 -1.9608
  128SOPE    HB13719   4.379   4.260   2.253  0.5837  2.1829  0.6051
  128SOPE    C213720   4.576   4.253   2.330 -0.0563 -0.1558  0.0758
  128SOPE    HS13721   4.550   4.167   2.394 -1.6548  0.8335  0.8223
  128SOPE   O2113722   4.551   4.373   2.404  0.4352 -0.3358  0.0406
  128SOPE   C2113723   4.454   4.351   2.503  0.6040  0.7101  0.1911
  128SOPE   O2213724   4.376   4.257   2.505  0.2487 -0.7230 -0.4280
  128SOPE   C2213725   4.466   4.465   2.601 -0.4139 -0.3445  0.6161
  128SOPE   H2R13726   4.481   4.557   2.542 -4.6151  0.8078  1.0366
  128SOPE   H2S13727   4.563   4.453   2.655 -0.1048 -0.2193  0.0968
  128SOPE    C313728   4.731   4.234   2.301  0.0907  0.9268  0.2345
  128SOPE    HX13729   4.759   4.324   2.242 -1.4551  1.1737 -0.1835
  128SOPE    HY13730   4.727   4.151   2.228  1.3652  1.5112 -0.5193
  128SOPE   O3113731   4.819   4.212   2.409 -0.7107  0.1409 -0.2411
  128SOPE   C3113732   4.892   4.312   2.456  0.5215  0.5667  0.0379
  128SOPE   O3213733   4.892   4.428   2.415 -0.2095 -1.2085 -0.4722
  128SOPE   C3213734   4.979   4.258   2.573 -0.2892 -0.8676  0.2832
  128SOPE   H2X13735   5.010   4.340   2.641  2.4719 -2.4628  1.0938
  128SOPE   H2Y13736   5.071   4.211   2.532 -0.8949 -2.5567  0.8014
  128SOPE   C2313737   4.351   4.470   2.710 -0.1144  0.6689 -0.4113
  128SOPE   H3R13738   4.342   4.374   2.765  0.3470 -0.5309 -2.3326
  128SOPE   H3S13739   4.251   4.492   2.665 -1.1344 -0.6367  1.1298
  128SOPE   C2413740   4.385   4.580   2.815  0.1672  0.0051  0.4989
  128SOPE   H4R13741   4.450   4.659   2.771  0.4343 -1.3456 -1.7040
  128SOPE   H4S13742   4.284   4.618   2.842  0.9823  0.8585  2.5571
  128SOPE   C2513743   4.451   4.524   2.942  0.5265  0.4306  0.0187
  128SOPE   H5R13744   4.418   4.421   2.963  1.2766  0.1816  0.0168
  128SOPE   H5S13745   4.562   4.523   2.929  0.5531 -1.1828  0.2363
  128SOPE   C2613746   4.428   4.617   3.068 -0.1137  0.3331  0.6044
  128SOPE   H6R13747   4.490   4.584   3.154 -0.9095  1.9908  1.8826
  128SOPE   H6S13748   4.448   4.724   3.042 -0.6646  0.4110  0.4828
  128SOPE   C2713749   4.280   4.626   3.116 -0.4861  0.1622 -0.5647
  128SOPE   H7R13750   4.219   4.672   3.036 -2.9255 -1.9559 -0.0741
  128SOPE   H7S13751   4.235   4.525   3.133 -0.9647  0.4817  0.1747
  128SOPE   C2813752   4.273   4.698   3.252  0.5401 -0.4918  0.4837
  128SOPE   H8R13753   4.332   4.644   3.329  1.8988  1.7834  1.1164
  128SOPE   H8S13754   4.317   4.796   3.224 -1.2348 -0.9327 -5.2106
  128SOPE   C2913755   4.128   4.700   3.297 -0.8080 -0.5081 -0.0475
  128SOPE   H9113756   4.055   4.672   3.219  1.8867 -2.7471 -1.9578
  128SOPE  C21013757   4.076   4.718   3.421 -0.0895 -0.4555  0.8547
  128SOPE  H10113758   3.969   4.701   3.441  0.3755 -4.3273  0.9094
  128SOPE  C21113759   4.152   4.749   3.546  0.1347 -0.1541  0.3298
  128SOPE  H11R13760   4.255   4.783   3.527 -0.1570  3.3491  3.7370
  128SOPE  H11S13761   4.166   4.656   3.606 -0.7427  0.4794  1.5561
  128SOPE  C21213762   4.081   4.845   3.638  0.8061  0.4781 -0.1208
  128SOPE  H12R13763   3.978   4.809   3.660  0.7607  1.4421  1.3282
  128SOPE  H12S13764   4.061   4.947   3.599  0.2762 -0.6060 -2.9847
  128SOPE  C21313765   4.143   4.843   3.772 -0.5815 -0.0072 -1.0524
  128SOPE  H13R13766   4.165   4.739   3.804 -0.7451  0.6764  1.4887
  128SOPE  H13S13767   4.064   4.872   3.846 -1.8658 -2.5609 -1.3277
  128SOPE  C21413768   4.266   4.938   3.783 -0.3887 -0.3202  0.6744
  128SOPE  H14R13769   4.241   5.046   3.776  0.6031 -0.0438  1.1693
  128SOPE  H14S13770   4.337   4.908   3.703 -2.1684  0.2389 -1.1622
  128SOPE  C21513771   4.344   4.900   3.905 -0.1716 -0.0930 -0.2606
  128SOPE  H15R13772   4.444   4.949   3.913  0.5541 -1.7521  1.9859
  128SOPE  H15S13773   4.367   4.791   3.903 -0.6749 -0.1931 -0.7312
  128SOPE  C21613774   4.262   4.948   4.027  0.1148 -0.0508 -0.3201
  128SOPE  H16R13775   4.169   4.887   4.029  0.8578 -1.1875  1.4339
  128SOPE  H16S13776   4.253   5.059   4.019  4.1357  0.4041 -0.2587
  128SOPE  C21713777   4.334   4.933   4.157 -0.7984  0.5541 -0.1315
  128SOPE  H17R13778   4.436   4.970   4.138 -0.0674 -2.1000 -2.0311
  128SOPE  H17S13779   4.357   4.827   4.181  1.6618  1.1688  0.5199
  128SOPE  C21813780   4.261   5.002   4.272 -0.5743  0.1423 -0.2668
  128SOPE  H18R13781   4.318   4.982   4.365 -2.2430 -1.3579  0.4973
  128SOPE  H18S13782   4.161   4.961   4.298 -0.4479  0.7779  1.3244
  128SOPE  H18T13783   4.266   5.112   4.254 -0.9315  0.4547  1.4008
  128SOPE   C3313784   4.896   4.155   2.655 -0.4649 -1.3232 -0.0433
  128SOPE   H3X13785   4.947   4.088   2.728 -1.9334 -0.9969  1.3506
  128SOPE   H3Y13786   4.862   4.077   2.584  0.4230 -0.9412 -0.9023
  128SOPE   C3413787   4.767   4.214   2.712 -0.1787 -0.1232 -0.2351
  128SOPE   H4X13788   4.724   4.137   2.779  0.6146  0.7061  1.3066
  128SOPE   H4Y13789   4.687   4.234   2.639 -0.2349 -1.4668 -0.5479
  128SOPE   C3513790   4.792   4.348   2.799 -0.1735 -0.1936 -0.6164
  128SOPE   H5X13791   4.695   4.387   2.837  1.1215  2.8448 -0.1990
  128SOPE   H5Y13792   4.820   4.417   2.717  0.8636 -0.5651 -0.5865
  128SOPE   C3613793   4.905   4.346   2.907 -0.2035  0.1232 -0.6391
  128SOPE   H6X13794   4.944   4.447   2.930  2.2481 -0.7396 -0.7875
  128SOPE   H6Y13795   4.987   4.279   2.872 -0.8229 -0.5525 -0.8341
  128SOPE   C3713796   4.849   4.274   3.031  0.3878  0.6545  0.1400
  128SOPE   H7X13797   4.826   4.169   3.002  0.5696  1.0018 -1.3420
  128SOPE   H7Y13798   4.756   4.328   3.060 -0.3908 -2.0718  3.3888
  128SOPE   C3813799   4.949   4.273   3.140  0.2022 -0.2085 -0.0195
  128SOPE   H8X13800   4.985   4.373   3.172  0.4063 -0.1695 -0.3606
  128SOPE   H8Y13801   5.043   4.225   3.105  1.8391  2.4680  0.3855
  128SOPE   C3913802   4.890   4.208   3.267 -0.8486  0.0343 -0.4316
  128SOPE   H9X13803   4.866   4.100   3.257  2.4665 -0.9730  1.0150
  128SOPE   H9Y13804   4.800   4.269   3.289 -0.7690 -0.3302  1.0012
  128SOPE  C31013805   4.993   4.217   3.382  1.0467  0.1459 -0.0391
  128SOPE  H10X13806   5.024   4.322   3.402 -1.8871  0.8488  1.4156
  128SOPE  H10Y13807   5.079   4.161   3.341 -0.4215 -1.5056 -1.0153
  128SOPE  C31113808   4.939   4.168   3.518  0.1140 -0.4306 -0.0088
  128SOPE  H11X13809   4.921   4.060   3.501 -0.9284  0.0120 -2.1677
  128SOPE  H11Y13810   4.844   4.219   3.542  0.3196 -0.0514  0.0087
  128SOPE  C31213811   5.028   4.207   3.635  0.3486 -0.4451  0.4561
  128SOPE  H12X13812   5.021   4.317   3.650 -0.3898 -0.6581  1.9499
  128SOPE  H12Y13813   5.136   4.198   3.613 -0.1052 -0.7375 -1.9443
  128SOPE  C31313814   4.974   4.135   3.761  0.3248 -0.7404 -0.2683
  128SOPE  H13X13815   4.962   4.026   3.745  0.3417 -0.8136  0.2117
  128SOPE  H13Y13816   4.877   4.182   3.787 -1.0218 -1.9218 -2.7608
  128SOPE  C31413817   5.071   4.129   3.883 -0.5498 -0.4611 -0.6277
  128SOPE  H14X13818   5.088   4.224   3.938 -0.1538  0.5528 -2.4287
  128SOPE  H14Y13819   5.172   4.094   3.854  0.8995  1.5405  1.6495
  128SOPE  C31513820   5.022   4.021   3.982 -0.3777 -1.0181  0.5053
  128SOPE  H15X13821   5.050   3.922   3.942  2.7561  0.7562 -2.2541
  128SOPE  H15Y13822   4.916   4.034   4.015 -0.2486  0.2036  0.4823
  128SOPE  C31613823   5.084   4.024   4.118  0.2585 -1.2895  0.0894
  128SOPE  H16X13824   5.192   4.017   4.096  0.1696  0.4291 -1.0699
  128SOPE  H16Y13825   5.042   3.936   4.170  0.3730 -1.6950 -0.4988
  128SOPE  C31713826   5.060   4.154   4.206  0.8504  0.3612  1.0414
  128SOPE  H17X13827   4.953   4.180   4.190  0.8802 -0.2912 -0.3684
  128SOPE  H17Y13828   5.111   4.246   4.171 -1.5006  1.6049  0.6549
  128SOPE  C31813829   5.098   4.140   4.351 -0.1790  0.0963  0.5677
  128SOPE  H18X13830   5.208   4.151   4.363 -0.0029 -0.9280  0.0353
  128SOPE  H18Y13831   5.079   4.037   4.390  2.4605 -1.0706 -0.9589
  128SOPE  H18Z13832   5.037   4.208   4.415 -1.5025 -0.3079 -0.2274
  129OSM      N13833   2.597   3.776   6.805 -0.3074  0.1806 -0.3999
  129OSM    C1513834   2.496   3.682   6.861 -0.0900 -0.1996  0.3391
  129OSM   H15A13835   2.547   3.605   6.917  0.4037  1.0289  1.6501
  129OSM   H15B13836   2.434   3.643   6.782  0.9576 -0.6963 -0.2662
  129OSM   H15C13837   2.429   3.736   6.926 -2.0192  1.1641 -2.5699
  129OSM    C1413838   2.507   3.891   6.768  0.2967  0.4325 -0.1299
  129OSM   H14A13839   2.563   3.979   6.744 -1.0781  1.7377  1.2010
  129OSM   H14B13840   2.438   3.920   6.846 -0.5192 -1.4022 -0.1038
  129OSM   H14C13841   2.449   3.872   6.679 -1.1325 -0.6631  0.9743
  129OSM    C1313842   2.686   3.812   6.921  0.9615 -0.1655  0.5228
  129OSM   H13A13843   2.729   3.720   6.955 -0.2793 -0.7320  0.6253
  129OSM   H13B13844   2.631   3.864   6.999 -0.6243  0.0392 -0.6572
  129OSM   H13C13845   2.769   3.874   6.891  1.3866 -0.6120  0.7686
  129OSM    C1213846   2.675   3.718   6.692 -0.4940 -0.6837  0.9258
  129OSM   H12A13847   2.732   3.637   6.733 -1.1938 -0.0645  3.2794
  129OSM   H12B13848   2.747   3.789   6.655 -0.7890 -0.0504  1.5336
  129OSM    C1113849   2.605   3.669   6.566  0.2529 -0.5882 -0.0570
  129OSM   H11A13850   2.684   3.648   6.491  2.7086  0.7317  2.0128
  129OSM   H11B13851   2.546   3.753   6.524  0.2406  1.3658  3.4982
  129OSM      P13852   2.583   3.415   6.595  0.2989  0.1555 -0.4312
  129OSM    O1313853   2.732   3.427   6.626  0.1323  0.4084 -0.0517
  129OSM    O1413854   2.502   3.323   6.682  0.2733  0.5742  0.8255
  129OSM    O1113855   2.571   3.378   6.444 -0.4808 -0.2951  0.3321
  129OSM    O1213856   2.516   3.559   6.599  0.5563 -0.5625 -0.7350
  129OSM    C1S13857   2.457   3.365   6.368 -0.1225 -0.1933 -0.4013
  129OSM    H1S13858   2.397   3.459   6.377 -1.1436 -0.8585 -0.0984
  129OSM    H1T13859   2.397   3.283   6.413 -0.3051  0.7041  1.0543
  129OSM     NF13860   2.370   3.315   6.141 -0.2298 -0.2326  0.1384
  129OSM    HNF13861   2.361   3.221   6.107 -1.8204 -0.3158  0.7218
  129OSM    C2S13862   2.488   3.350   6.217 -0.3932 -0.3756  0.2583
  129OSM    H2S13863   2.522   3.447   6.176 -0.8879 -1.2913 -2.5493
  129OSM    C3S13864   2.619   3.255   6.209  0.2960 -0.4358 -0.0007
  129OSM    H3S13865   2.603   3.162   6.267  1.6259 -0.1374  0.9054
  129OSM     O313866   2.738   3.319   6.257  0.6468 -0.0815 -0.5773
  129OSM    HO313867   2.709   3.365   6.336  3.6426 -1.3644  1.4736
  129OSM    C4S13868   2.645   3.215   6.064 -0.2725  0.1853 -0.4625
  129OSM    H4S13869   2.694   3.293   6.005  0.4561 -0.1564 -0.3183
  129OSM    C5S13870   2.618   3.089   6.028 -0.2101 -0.2414  0.0656
  129OSM    H5S13871   2.558   3.016   6.085 -4.0520  1.5572 -1.3511
  129OSM    C6S13872   2.660   3.056   5.888 -0.0324 -0.1256  0.2588
  129OSM    H6S13873   2.571   3.042   5.823 -0.2029  1.5224  0.1092
  129OSM    H6T13874   2.704   2.954   5.884  0.1025 -0.0475 -0.2561
  129OSM    C7S13875   2.742   3.159   5.805  0.0792  0.3864 -0.1223
  129OSM    H7S13876   2.837   3.196   5.848 -0.2963 -0.0992  1.1949
  129OSM    H7T13877   2.684   3.253   5.791 -0.6530 -0.0327  0.0389
  129OSM    C8S13878   2.772   3.104   5.660  0.2130 -0.6756 -0.2097
  129OSM    H8S13879   2.815   3.002   5.648 -0.2683 -0.8776 -0.2433
  129OSM    H8T13880   2.849   3.177   5.629 -0.1492 -0.4256 -0.5300
  129OSM    C9S13881   2.656   3.128   5.563  0.5220 -0.4709 -0.3514
  129OSM    H9S13882   2.607   3.226   5.583 -0.9900 -1.4071  0.7392
  129OSM    H9T13883   2.577   3.053   5.583 -0.7735  1.6119  3.1635
  129OSM   C10S13884   2.705   3.124   5.427  0.2108  0.1349 -0.6176
  129OSM   H10S13885   2.746   3.023   5.404 -1.4345 -0.5866 -0.5196
  129OSM   H10T13886   2.792   3.189   5.402  2.3379 -1.8985  1.0081
  129OSM   C11S13887   2.591   3.162   5.325  0.2668 -0.4491  0.5658
  129OSM   H11S13888   2.555   3.259   5.367 -2.0122 -0.8245 -0.3750
  129OSM   H11T13889   2.508   3.090   5.310 -0.8551  1.0280 -0.7558
  129OSM   C12S13890   2.652   3.198   5.183  0.0040  0.0821 -0.2524
  129OSM   H12S13891   2.722   3.115   5.159 -1.3289 -1.3699  0.6811
  129OSM   H12T13892   2.706   3.294   5.185  1.2209 -0.5886  1.8957
  129OSM   C13S13893   2.556   3.209   5.068 -0.7497  0.5183  0.1771
  129OSM   H13S13894   2.519   3.108   5.040 -0.0029  0.5688 -1.0958
  129OSM   H13T13895   2.608   3.242   4.976  2.2051 -0.7542  1.2549
  129OSM   C14S13896   2.445   3.311   5.095  0.4493 -0.0840  0.2536
  129OSM   H14S13897   2.488   3.409   5.125  0.0598  0.0564  0.3482
  129OSM   H14T13898   2.381   3.283   5.182 -1.9800 -0.7549 -1.6441
  129OSM   C15S13899   2.355   3.336   4.970  0.4048 -0.5674  0.5062
  129OSM   H15S13900   2.246   3.336   4.989  0.3467  0.3200  0.2304
  129OSM   H15T13901   2.359   3.256   4.894 -0.9969  0.4025 -0.6464
  129OSM   C16S13902   2.396   3.468   4.902 -0.7087  0.0918  0.8410
  129OSM   H16S13903   2.488   3.450   4.842 -0.8920 -1.9269  1.0913
  129OSM   H16T13904   2.426   3.540   4.981 -0.2967  1.2294 -0.3082
  129OSM   C17S13905   2.292   3.515   4.804 -0.4603 -0.4202  0.5258
  129OSM   H17S13906   2.199   3.537   4.861  0.0228 -0.3386  1.2948
  129OSM   H17T13907   2.270   3.432   4.734  1.9991  0.0619 -0.9351
  129OSM   C18S13908   2.335   3.630   4.710  0.0318 -0.5049 -0.3067
  129OSM   H18S13909   2.360   3.718   4.771 -1.0861  0.7487 -1.5729
  129OSM   H18T13910   2.245   3.661   4.652 -1.1436 -2.1621  0.5233
  129OSM   H18U13911   2.421   3.601   4.646 -0.2384 -1.6666 -0.1746
  129OSM    C1F13912   2.268   3.404   6.132 -0.7114 -0.7236 -0.3296
  129OSM     OF13913   2.257   3.503   6.201  0.3242  0.3355 -0.6819
  129OSM    C2F13914   2.159   3.366   6.034 -0.3689 -0.1380  0.6185
  129OSM    H2F13915   2.117   3.266   6.059  1.3015 -1.0552 -0.0647
  129OSM    H2G13916   2.212   3.348   5.938 -0.2756 -0.0193  0.6477
  129OSM    C3F13917   2.073   3.488   6.005  0.4266  0.6056  0.2604
  129OSM    H3F13918   2.136   3.572   5.966  0.2713  0.5612 -0.0899
  129OSM    H3G13919   2.022   3.506   6.103  1.1778 -1.1208  1.0018
  129OSM    C4F13920   1.968   3.456   5.896 -0.0452 -0.6462  0.4311
  129OSM    H4F13921   1.885   3.397   5.941 -0.8528  1.4364  1.7931
  129OSM    H4G13922   2.019   3.402   5.813  1.1095  1.4561 -0.2858
  129OSM    C5F13923   1.908   3.582   5.835  0.4206  0.2082  0.2236
  129OSM    H5F13924   1.997   3.628   5.788  1.0198 -0.8973  0.2401
  129OSM    H5G13925   1.871   3.656   5.909  2.8074  2.2072 -0.4614
  129OSM    C6F13926   1.789   3.563   5.734  0.2554 -0.0779 -0.6835
  129OSM    H6F13927   1.740   3.655   5.697 -1.6556 -0.6052  0.4054
  129OSM    H6G13928   1.717   3.503   5.794 -0.1995 -1.1002 -2.1843
  129OSM    C7F13929   1.817   3.481   5.601 -0.3970 -0.1583 -0.2734
  129OSM    H7F13930   1.885   3.396   5.628  1.3324  0.7278 -1.6262
  129OSM    H7G13931   1.873   3.544   5.529 -0.5969 -0.5067 -0.7392
  129OSM    C8F13932   1.690   3.429   5.535 -0.5522 -0.2895  0.2255
  129OSM    H8F13933   1.639   3.352   5.598 -0.8691 -1.8860 -1.8556
  129OSM    H8G13934   1.719   3.397   5.433  0.8727  2.3905 -0.2914
  129OSM    C9F13935   1.586   3.534   5.506  1.0877 -1.1942  0.2551
  129OSM    H9F13936   1.530   3.567   5.595  1.9554 -1.5187  0.9393
  129OSM   C10F13937   1.543   3.580   5.384  0.1146 -0.0635 -0.3561
  129OSM   H10F13938   1.487   3.675   5.379 -2.2042 -1.4117 -1.5151
  129OSM   C11F13939   1.593   3.550   5.248 -0.1807 -0.7012  0.8780
  129OSM   H11F13940   1.581   3.441   5.231 -0.6042 -0.2237 -2.7047
  129OSM   H11G13941   1.699   3.583   5.242 -0.7834  1.1168 -0.8287
  129OSM   C12F13942   1.513   3.623   5.136  0.4232  0.3387  0.5145
  129OSM   H12F13943   1.510   3.733   5.152  1.3645  0.4656 -0.1005
  129OSM   H12G13944   1.411   3.581   5.138  0.5481  0.0538  2.0064
  129OSM   C13F13945   1.582   3.616   4.989  0.3450 -0.7321 -1.0338
  129OSM   H13F13946   1.634   3.518   4.981  1.3047 -0.1058 -2.8529
  129OSM   H13G13947   1.667   3.686   4.985 -0.4422  0.2791 -0.4774
  129OSM   C14F13948   1.480   3.639   4.882 -0.3451 -0.2683 -0.0674
  129OSM   H14F13949   1.420   3.728   4.910 -0.5764 -0.9641  1.7361
  129OSM   H14G13950   1.404   3.557   4.880 -2.8693  1.9362  0.1475
  129OSM   C15F13951   1.549   3.642   4.736  0.1800  0.4512 -0.1576
  129OSM   H15F13952   1.600   3.545   4.721 -1.9901 -0.7955  0.0822
  129OSM   H15G13953   1.627   3.720   4.724 -0.1415  0.8839  0.5006
  129OSM   C16F13954   1.454   3.671   4.617  0.6355 -0.1250 -0.1641
  129OSM   H16F13955   1.361   3.611   4.625  0.1702  0.7026  0.9394
  129OSM   H16G13956   1.500   3.632   4.524 -0.7440 -2.2301 -0.0395
  129OSM   C17F13957   1.422   3.823   4.606 -0.7490  0.3042 -0.1931
  129OSM   H17F13958   1.519   3.876   4.622 -1.0318  0.8213 -0.1924
  129OSM   H17G13959   1.352   3.855   4.685 -0.7685 -0.6058  0.1699
  129OSM   C18F13960   1.366   3.872   4.476 -0.5955  0.4603 -0.5647
  129OSM   H18F13961   1.436   3.870   4.389 -0.8025  0.2012 -0.7240
  129OSM   H18G13962   1.327   3.974   4.495 -2.6265 -0.3379 -0.2738
  129OSM   H18H13963   1.274   3.817   4.450  0.2944 -0.8893 -0.9461
  130OSM      N13964   1.418   4.729   6.505  0.3216  0.5989 -0.4593
  130OSM    C1513965   1.546   4.774   6.556 -0.3567 -0.4047 -0.7607
  130OSM   H15A13966   1.581   4.862   6.504 -0.1011  1.4802  2.3739
  130OSM   H15B13967   1.628   4.705   6.545  0.7557  0.6965  0.3511
  130OSM   H15C13968   1.540   4.806   6.659  1.2816  3.5396 -1.7245
  130OSM    C1413969   1.352   4.649   6.615 -0.3360  0.0237  0.0333
  130OSM   H14A13970   1.272   4.589   6.572  0.8032  0.2086 -2.4994
  130OSM   H14B13971   1.307   4.712   6.690 -1.0633 -0.5452  0.0923
  130OSM   H14C13972   1.414   4.571   6.657 -3.4689 -1.7708  1.7328
  130OSM    C1313973   1.326   4.851   6.488 -0.3045  0.3180  0.2062
  130OSM   H13A13974   1.225   4.811   6.490  0.0600 -0.6314 -0.0161
  130OSM   H13B13975   1.353   4.899   6.395  2.1490  0.3282  0.8778
  130OSM   H13C13976   1.343   4.917   6.571 -0.5771 -1.4500  1.7152
  130OSM    C1213977   1.418   4.660   6.369  0.1364 -0.2381 -0.2931
  130OSM   H12A13978   1.506   4.597   6.366  1.0336  0.9949 -0.3447
  130OSM   H12B13979   1.433   4.734   6.292 -1.1758  0.1951 -0.1443
  130OSM    C1113980   1.291   4.577   6.340 -1.5594  0.2406  0.4028
  130OSM   H11A13981   1.284   4.575   6.229 -0.5009  1.9981  0.2703
  130OSM   H11B13982   1.200   4.630   6.375 -1.2892  1.6054 -0.8194
  130OSM      P13983   1.390   4.332   6.347  0.0681  0.0163 -0.0428
  130OSM    O1313984   1.530   4.377   6.358  0.0709 -0.0131 -0.3453
  130OSM    O1413985   1.339   4.216   6.424 -0.2821  0.1216 -0.1239
  130OSM    O1113986   1.362   4.319   6.195  0.4462  0.3876 -0.3298
  130OSM    O1213987   1.299   4.450   6.388  0.9060  0.0150  0.1289
  130OSM    C1S13988   1.477   4.295   6.112  0.3655  0.0344  0.5591
  130OSM    H1S13989   1.549   4.221   6.155  2.5431  3.1551  2.7553
  130OSM    H1T13990   1.535   4.389   6.112  0.0803  0.2239  1.5925
  130OSM     NF13991   1.554   4.207   5.893  0.1636  0.1650 -0.4015
  130OSM    HNF13992   1.600   4.266   5.827  1.3253  0.6954  0.8466
  130OSM    C2S13993   1.439   4.267   5.960  0.5481 -0.2653  1.2315
  130OSM    H2S13994   1.349   4.202   5.947 -2.1756  3.4251 -0.0255
  130OSM    C3S13995   1.389   4.402   5.898 -0.0545 -0.5859 -0.0630
  130OSM    H3S13996   1.478   4.468   5.903  0.9660 -1.9288  0.1549
  130OSM     O313997   1.294   4.470   5.983 -0.0205  0.0977  0.5816
  130OSM    HO313998   1.291   4.409   6.058 -1.9547  0.9589  1.2860
  130OSM    C4S13999   1.347   4.378   5.761  0.0411 -0.7969  0.4679
  130OSM    H4S14000   1.431   4.392   5.691  0.9703 -0.2696  1.6553
  130OSM    C5S14001   1.223   4.353   5.715  0.1997  0.2094 -0.6282
  130OSM    H5S14002   1.133   4.351   5.779 -0.0162  0.2476 -0.9248
  130OSM    C6S14003   1.187   4.325   5.573 -0.5783 -0.2719  0.4116
  130OSM    H6S14004   1.093   4.379   5.549  0.6384  2.0208  0.5705
  130OSM    H6T14005   1.172   4.216   5.554 -2.5433 -0.0188  0.3810
  130OSM    C7S14006   1.292   4.366   5.464 -0.6474  0.5385  0.1376
  130OSM    H7S14007   1.384   4.310   5.492 -0.4215  1.0578  0.4540
  130OSM    H7T14008   1.325   4.472   5.468  0.6448  0.1159  1.2313
  130OSM    C8S14009   1.249   4.358   5.314  0.3918  0.6259 -0.5385
  130OSM    H8S14010   1.160   4.424   5.319 -0.6700 -0.7979 -0.1232
  130OSM    H8T14011   1.215   4.253   5.307  1.3072  0.2974 -0.2108
  130OSM    C9S14012   1.350   4.415   5.206 -0.2286 -0.1581 -0.0525
  130OSM    H9S14013   1.450   4.367   5.210 -1.4493 -3.0435 -1.2618
  130OSM    H9T14014   1.364   4.524   5.218  0.5552 -0.2034 -0.5313
  130OSM   C10S14015   1.302   4.418   5.056 -0.0414 -0.2659  0.0250
  130OSM   H10S14016   1.211   4.481   5.047 -0.5693 -1.0299 -0.0903
  130OSM   H10T14017   1.286   4.312   5.026 -2.0200  0.2132 -0.7283
  130OSM   C11S14018   1.403   4.498   4.969 -0.4088  0.3735 -0.3515
  130OSM   H11S14019   1.500   4.444   4.956  1.2599  2.5076  2.1281
  130OSM   H11T14020   1.422   4.596   5.018 -1.6646  1.0094 -1.0997
  130OSM   C12S14021   1.357   4.531   4.833  0.0009 -0.1988 -0.0212
  130OSM   H12S14022   1.278   4.609   4.835  0.1029 -0.0361 -1.5687
  130OSM   H12T14023   1.324   4.444   4.772 -0.4501  0.6413 -0.9995
  130OSM   C13S14024   1.474   4.596   4.758 -0.7163  0.1243  0.7700
  130OSM   H13S14025   1.570   4.548   4.784 -1.4630 -0.8733  1.7614
  130OSM   H13T14026   1.477   4.699   4.801 -1.1600  0.1812  0.6682
  130OSM   C14S14027   1.447   4.608   4.608 -0.7207  0.0674  0.2039
  130OSM   H14S14028   1.350   4.660   4.593 -1.2674 -0.9308  0.1966
  130OSM   H14T14029   1.432   4.509   4.560  1.0951 -1.0618  1.7876
  130OSM   C15S14030   1.555   4.680   4.529 -0.7529  0.1454 -0.0609
  130OSM   H15S14031   1.657   4.639   4.513 -0.3770  2.0851 -3.2905
  130OSM   H15T14032   1.587   4.777   4.571 -0.4499  0.2579 -0.5541
  130OSM   C16S14033   1.501   4.704   4.385 -0.0059 -0.4101  0.1235
  130OSM   H16S14034   1.572   4.766   4.326 -0.9444 -0.3350 -0.9700
  130OSM   H16T14035   1.414   4.771   4.401  1.1174  0.9074  0.9685
  130OSM   C17S14036   1.475   4.587   4.297 -0.1456 -0.6612  0.0158
  130OSM   H17S14037   1.415   4.512   4.353 -2.3147  1.3720  0.5435
  130OSM   H17T14038   1.575   4.542   4.281  0.7133  0.1998  2.5287
  130OSM   C18S14039   1.410   4.616   4.163  0.0841 -0.1939 -0.4812
  130OSM   H18S14040   1.309   4.663   4.165 -0.1645 -0.7264 -0.5394
  130OSM   H18T14041   1.404   4.520   4.108 -1.7654 -0.4592  0.0877
  130OSM   H18U14042   1.475   4.687   4.108 -0.1988  0.3110 -0.1736
  130OSM    C1F14043   1.605   4.088   5.933  0.3088  0.4996  0.3375
  130OSM     OF14044   1.541   4.016   6.015 -0.1512  0.0194  0.1247
  130OSM    C2F14045   1.736   4.051   5.881 -0.2182 -0.1569  0.4258
  130OSM    H2F14046   1.785   3.973   5.944  1.5379 -0.6701 -1.4401
  130OSM    H2G14047   1.812   4.132   5.888  0.9984 -1.4075  2.9903
  130OSM    C3F14048   1.711   3.993   5.739 -0.8964  0.0874 -0.2867
  130OSM    H3F14049   1.659   3.894   5.733 -1.2909  0.3262 -0.8293
  130OSM    H3G14050   1.809   3.960   5.700 -0.0159  1.3086  0.8334
  130OSM    C4F14051   1.646   4.081   5.630 -0.5604  0.1208  0.9339
  130OSM    H4F14052   1.689   4.183   5.640 -2.5911  1.0975  0.1867
  130OSM    H4G14053   1.537   4.096   5.645 -0.2182  2.8371  1.2428
  130OSM    C5F14054   1.671   4.021   5.485 -0.5037 -0.3710 -0.4095
  130OSM    H5F14055   1.618   3.924   5.495 -0.8681  0.0297  2.3656
  130OSM    H5G14056   1.780   4.011   5.470  0.0232  1.1258  1.9173
  130OSM    C6F14057   1.591   4.102   5.388  0.6720 -0.5859 -1.0149
  130OSM    H6F14058   1.619   4.210   5.391 -0.3235 -0.3078  2.0837
  130OSM    H6G14059   1.484   4.089   5.413  1.3965  0.3705  3.4024
  130OSM    C7F14060   1.589   4.040   5.248  1.3825  1.2016  0.2642
  130OSM    H7F14061   1.509   4.083   5.184 -0.1933 -0.0943  1.2851
  130OSM    H7G14062   1.568   3.933   5.271  0.3892  1.2762 -0.2229
  130OSM    C8F14063   1.717   4.052   5.172 -0.2751 -0.5160  0.3300
  130OSM    H8F14064   1.712   3.997   5.076 -0.2474  0.8712 -0.5003
  130OSM    H8G14065   1.807   4.017   5.228  0.3815  0.0954 -0.3138
  130OSM    C9F14066   1.747   4.201   5.135 -0.6443  0.2806  0.0633
  130OSM    H9F14067   1.787   4.246   5.228 -1.1749  1.0861 -0.0885
  130OSM   C10F14068   1.722   4.271   5.019 -0.0147 -0.2127 -0.2617
  130OSM   H10F14069   1.757   4.376   5.017 -0.4561 -0.0715 -1.0354
  130OSM   C11F14070   1.671   4.213   4.894  0.7754  1.1665 -0.8329
  130OSM   H11F14071   1.566   4.249   4.886 -0.2445 -1.1189  1.1204
  130OSM   H11G14072   1.669   4.102   4.902  0.5159  1.1260 -1.3811
  130OSM   C12F14073   1.741   4.258   4.766 -0.7776  0.3019  0.0005
  130OSM   H12F14074   1.842   4.213   4.754 -1.1186 -0.4709  0.0307
  130OSM   H12G14075   1.755   4.369   4.768  0.0386  0.1939  0.8117
  130OSM   C13F14076   1.669   4.220   4.644  0.6859  0.3241  0.0445
  130OSM   H13F14077   1.577   4.283   4.641  0.3488 -0.1377  0.4363
  130OSM   H13G14078   1.642   4.112   4.643  0.4882  0.3718  0.0147
  130OSM   C14F14079   1.754   4.248   4.519 -0.2956  0.2385 -0.0938
  130OSM   H14F14080   1.852   4.200   4.541  0.0711  1.2488  0.5230
  130OSM   H14G14081   1.776   4.356   4.506  1.5984 -0.1456 -0.3613
  130OSM   C15F14082   1.683   4.193   4.391 -0.0177 -0.5499 -0.3756
  130OSM   H15F14083   1.590   4.246   4.363  1.2913  1.6983 -0.7004
  130OSM   H15G14084   1.667   4.083   4.395 -1.1849 -0.3726  0.6324
  130OSM   C16F14085   1.775   4.213   4.274 -0.3655  0.8103  0.4747
  130OSM   H16F14086   1.760   4.129   4.203  0.5897 -0.0233  1.2374
  130OSM   H16G14087   1.880   4.214   4.310  0.1811  2.6569 -1.0341
  130OSM   C17F14088   1.737   4.335   4.191 -0.0087 -0.5074 -0.5799
  130OSM   H17F14089   1.759   4.421   4.257  1.9741 -0.2877 -1.4510
  130OSM   H17G14090   1.630   4.324   4.164  0.2311 -1.1248 -1.3263
  130OSM   C18F14091   1.817   4.350   4.056 -0.5506 -0.0467  0.8331
  130OSM   H18F14092   1.811   4.253   4.001 -0.4441  0.4142 -0.0131
  130OSM   H18G14093   1.917   4.376   4.098 -1.4967  0.0173  3.1531
  130OSM   H18H14094   1.772   4.434   3.999  2.1483  1.2207  0.3710
  131OSM      N14095   1.866   0.081   6.735 -0.1077 -0.1279  0.2328
  131OSM    C1514096   1.963  -0.023   6.682 -0.4486  0.2118 -0.3172
  131OSM   H15A14097   2.066  -0.004   6.705 -0.2960  2.0821 -2.2520
  131OSM   H15B14098   1.975  -0.009   6.575  0.0326  1.6445 -0.0953
  131OSM   H15C14099   1.924  -0.124   6.690 -1.1262  0.4242 -0.8674
  131OSM    C1414100   1.730   0.057   6.681 -0.2563  0.3346 -0.6776
  131OSM   H14A14101   1.669   0.143   6.702 -1.5115  0.2549 -3.5382
  131OSM   H14B14102   1.679  -0.032   6.715  0.9009 -0.3355 -0.6066
  131OSM   H14C14103   1.726   0.056   6.574 -2.2819  0.4188 -0.6439
  131OSM    C1314104   1.847   0.070   6.888  0.2453  0.3474 -0.0926
  131OSM   H13A14105   1.830  -0.031   6.921  3.8373 -0.0099  1.1310
  131OSM   H13B14106   1.768   0.134   6.925  0.9523  1.2944 -0.1614
  131OSM   H13C14107   1.940   0.094   6.938 -0.2165  1.3804  0.3115
  131OSM    C1214108   1.917   0.220   6.697 -0.3342 -0.0173 -0.4727
  131OSM   H12A14109   2.020   0.226   6.728  0.5691 -0.4490 -3.0962
  131OSM   H12B14110   1.873   0.302   6.751  0.1454 -0.3417  0.4308
  131OSM    C1114111   1.914   0.255   6.543 -0.2854  0.4747 -0.4383
  131OSM   H11A14112   1.976   0.174   6.498 -0.7231 -0.7152  1.0019
  131OSM   H11B14113   1.969   0.351   6.532 -2.2679  2.0054  1.8520
  131OSM      P14114   1.682   0.375   6.515  0.2087 -0.0933 -0.4472
  131OSM    O1314115   1.552   0.345   6.448  0.8800  0.1736 -0.3422
  131OSM    O1414116   1.690   0.416   6.658  0.1816  0.0514  0.2749
  131OSM    O1114117   1.754   0.491   6.439 -0.0957  0.3917 -0.6610
  131OSM    O1214118   1.785   0.251   6.484 -0.2775  0.6211 -0.0275
  131OSM    C1S14119   1.779   0.473   6.298  0.2271 -0.0190 -0.2672
  131OSM    H1S14120   1.801   0.366   6.275 -1.1630 -0.4485  0.3086
  131OSM    H1T14121   1.871   0.527   6.268 -0.6481  0.9609 -1.2759
  131OSM     NF14122   1.715   0.485   6.057 -0.2687 -0.3236  0.5264
  131OSM    HNF14123   1.741   0.562   5.999  2.4729 -1.7394 -0.2777
  131OSM    C2S14124   1.673   0.518   6.195  0.1652  0.1271  0.2954
  131OSM    H2S14125   1.583   0.455   6.209  0.7097 -0.6911  0.2170
  131OSM    C3S14126   1.620   0.665   6.223 -0.7234  0.2653 -0.2754
  131OSM    H3S14127   1.715   0.722   6.211  1.0069 -2.6958 -1.8947
  131OSM     O314128   1.577   0.694   6.356 -0.1765 -0.1834 -0.0687
  131OSM    HO314129   1.649   0.652   6.402 -0.3987 -0.3137  0.1581
  131OSM    C4S14130   1.525   0.708   6.122 -0.1050  0.2425 -0.4632
  131OSM    H4S14131   1.438   0.642   6.106  0.1968 -0.2179 -0.2369
  131OSM    C5S14132   1.511   0.823   6.055  0.1845 -0.4415 -0.2527
  131OSM    H5S14133   1.583   0.903   6.079  1.2701 -0.6264 -2.6237
  131OSM    C6S14134   1.399   0.851   5.960 -0.0910  0.3782 -0.0046
  131OSM    H6S14135   1.318   0.909   6.009  0.1399  0.0094  0.8460
  131OSM    H6T14136   1.340   0.769   5.915 -4.4880  2.6410  1.0124
  131OSM    C7S14137   1.456   0.941   5.854 -0.2612  0.0784  0.9230
  131OSM    H7S14138   1.552   0.908   5.808 -0.5177 -0.1450  0.5439
  131OSM    H7T14139   1.458   1.044   5.895  0.1186  0.0620  0.9455
  131OSM    C8S14140   1.360   0.947   5.728 -0.3956  0.3294 -0.2912
  131OSM    H8S14141   1.389   1.041   5.676 -1.6687  0.2152 -1.2861
  131OSM    H8T14142   1.259   0.967   5.771 -1.2332 -3.0616 -0.4257
  131OSM    C9S14143   1.380   0.832   5.634 -0.0383  0.0443 -0.1140
  131OSM    H9S14144   1.369   0.736   5.689  0.0159  1.2616  2.1347
  131OSM    H9T14145   1.481   0.831   5.587  0.2356  1.3497  0.4000
  131OSM   C10S14146   1.271   0.821   5.522 -0.1171  0.1054 -0.2110
  131OSM   H10S14147   1.176   0.835   5.577 -0.4264 -0.6936 -0.5224
  131OSM   H10T14148   1.274   0.718   5.479  0.1640 -0.4512  1.0934
  131OSM   C11S14149   1.298   0.930   5.420  0.1447  0.2510  0.3736
  131OSM   H11S14150   1.405   0.959   5.415  0.0445  0.6309  0.3431
  131OSM   H11T14151   1.240   1.019   5.455  1.0241 -0.0905  2.9165
  131OSM   C12S14152   1.252   0.893   5.277  0.3484 -0.1309 -0.1423
  131OSM   H12S14153   1.143   0.878   5.296  0.4072 -1.9974 -1.0329
  131OSM   H12T14154   1.285   0.789   5.252 -0.1434 -0.3503  0.1044
  131OSM   C13S14155   1.277   0.983   5.159  0.2163 -0.0834  0.3650
  131OSM   H13S14156   1.381   1.023   5.161 -0.6353  2.3274  0.9024
  131OSM   H13T14157   1.219   1.078   5.158  0.0749 -0.1641 -0.9361
  131OSM   C14S14158   1.266   0.918   5.017  0.2544  0.2367 -0.2218
  131OSM   H14S14159   1.166   0.875   4.992 -0.0114  0.9692 -0.4509
  131OSM   H14T14160   1.335   0.831   5.009 -0.8952 -0.6735 -0.6496
  131OSM   C15S14161   1.302   1.012   4.906  0.4171  0.1063 -0.1824
  131OSM   H15S14162   1.388   1.073   4.941  0.3161  0.4245 -0.4800
  131OSM   H15T14163   1.226   1.088   4.877  0.2971  0.8510  1.9440
  131OSM   C16S14164   1.341   0.949   4.775 -0.5216  0.1678  0.0661
  131OSM   H16S14165   1.397   0.855   4.792  0.1220  0.6217  0.4999
  131OSM   H16T14166   1.392   1.026   4.712 -2.1400 -0.1478 -1.7493
  131OSM   C17S14167   1.235   0.921   4.668 -0.3112  0.5508  0.7778
  131OSM   H17S14168   1.169   0.839   4.704  1.3281 -0.5343  1.4404
  131OSM   H17T14169   1.290   0.869   4.586 -3.4934  1.0132 -1.8331
  131OSM   C18S14170   1.144   1.041   4.631 -0.9668  0.4045  0.2251
  131OSM   H18S14171   1.080   1.068   4.718 -1.6979  0.6337 -0.3745
  131OSM   H18T14172   1.080   1.030   4.541 -0.0131 -2.8168 -0.1707
  131OSM   H18U14173   1.204   1.134   4.617 -1.2128  0.9091  2.1577
  131OSM    C1F14174   1.732   0.361   6.011  0.6750 -0.3264 -0.1080
  131OSM     OF14175   1.706   0.262   6.072 -0.0441 -0.3680 -0.4370
  131OSM    C2F14176   1.787   0.357   5.873  0.0980  0.1420 -0.4265
  131OSM    H2F14177   1.885   0.409   5.863  1.4934 -2.3438 -0.5163
  131OSM    H2G14178   1.720   0.410   5.802  0.9541  1.9511  0.0509
  131OSM    C3F14179   1.805   0.207   5.837 -0.2584  0.2524 -0.1846
  131OSM    H3F14180   1.708   0.153   5.842  0.1815 -0.6556 -1.1134
  131OSM    H3G14181   1.874   0.165   5.913 -0.6351  2.6567  1.6104
  131OSM    C4F14182   1.874   0.185   5.705  0.6624 -0.3096 -0.4772
  131OSM    H4F14183   1.900   0.077   5.702  2.3166  0.0458  0.1335
  131OSM    H4G14184   1.968   0.244   5.698 -0.2999  1.0781 -2.6720
  131OSM    C5F14185   1.795   0.229   5.585  0.3569 -0.0697 -0.2321
  131OSM    H5F14186   1.784   0.339   5.573 -0.5160 -0.0184  0.9181
  131OSM    H5G14187   1.691   0.194   5.594 -0.2411  1.0591 -2.0626
  131OSM    C6F14188   1.851   0.162   5.459 -0.2933 -0.3547 -0.0821
  131OSM    H6F14189   1.843   0.052   5.468 -0.6831 -0.4045 -0.9792
  131OSM    H6G14190   1.959   0.190   5.457 -0.0615 -1.1678  0.4221
  131OSM    C7F14191   1.768   0.207   5.338  0.7308  0.4628 -0.5553
  131OSM    H7F14192   1.763   0.318   5.336 -1.0113  0.4118 -2.1237
  131OSM    H7G14193   1.662   0.174   5.346  0.3546  2.0499  1.8702
  131OSM    C8F14194   1.833   0.148   5.212 -0.5232 -0.0246  0.5605
  131OSM    H8F14195   1.839   0.039   5.234 -0.3429 -0.3316 -0.9079
  131OSM    H8G14196   1.933   0.196   5.205 -0.2773 -0.6061 -0.0096
  131OSM    C9F14197   1.756   0.179   5.084  0.3213 -0.3673  0.2542
  131OSM    H9F14198   1.646   0.181   5.091  0.2397 -3.2211  1.0726
  131OSM   C10F14199   1.809   0.231   4.972 -0.1555 -0.3794 -0.6659
  131OSM   H10F14200   1.734   0.236   4.892 -0.1034 -2.7947 -0.9231
  131OSM   C11F14201   1.952   0.251   4.943  0.3736 -0.2201 -0.3119
  131OSM   H11F14202   2.026   0.200   5.009  0.4943  0.5377  0.1512
  131OSM   H11G14203   1.968   0.359   4.961  0.7776 -0.4028  0.4547
  131OSM   C12F14204   1.985   0.216   4.793 -0.3982 -0.1423  0.8930
  131OSM   H12F14205   1.956   0.110   4.778  0.3380 -0.1168 -0.8791
  131OSM   H12G14206   2.095   0.231   4.798 -0.2875 -1.1905  2.9625
  131OSM   C13F14207   1.916   0.311   4.693 -0.0131  0.1637 -0.0213
  131OSM   H13F14208   1.940   0.416   4.719  2.1434 -0.5429  1.0964
  131OSM   H13G14209   1.806   0.297   4.700  0.2012 -1.7231  0.0983
  131OSM   C14F14210   1.945   0.284   4.551 -0.7370  0.1186 -0.3440
  131OSM   H14F14211   1.943   0.174   4.534  0.0448 -0.0166  0.3587
  131OSM   H14G14212   2.045   0.328   4.530 -1.8287  2.3006 -1.3637
  131OSM   C15F14213   1.853   0.363   4.453  0.3062  0.1088 -0.8182
  131OSM   H15F14214   1.747   0.338   4.473  0.5210 -1.6993 -1.7337
  131OSM   H15G14215   1.879   0.320   4.354 -1.5399  0.0726 -1.3119
  131OSM   C16F14216   1.877   0.512   4.470 -0.4297  0.1773  0.2948
  131OSM   H16F14217   1.985   0.534   4.453  0.0930 -1.6064  1.1031
  131OSM   H16G14218   1.869   0.552   4.574  1.2615 -1.3232  1.0538
  131OSM   C17F14219   1.802   0.596   4.368 -1.0266 -0.7163  0.5497
  131OSM   H17F14220   1.834   0.553   4.271  0.5384 -1.3494  1.2928
  131OSM   H17G14221   1.833   0.703   4.370  0.1165 -0.9489 -1.7094
  131OSM   C18F14222   1.652   0.583   4.381  0.3488 -0.3849 -0.2732
  131OSM   H18F14223   1.604   0.657   4.313 -1.5077 -0.6189  0.7184
  131OSM   H18G14224   1.612   0.603   4.483 -0.0957 -0.6523 -0.3937
  131OSM   H18H14225   1.617   0.484   4.345 -1.1518  0.0744 -0.1605
  132OSM      N14226   5.224   3.276   7.319 -0.1670  0.5805  0.3569
  132OSM    C1514227   5.122   3.175   7.294  0.1511  0.1001 -0.4612
  132OSM   H15A14228   5.150   3.111   7.212  1.7537  2.4672 -1.8662
  132OSM   H15B14229   5.032   3.229   7.268  0.1636 -0.2932 -1.3689
  132OSM   H15C14230   5.104   3.116   7.383  1.8089  1.4435  0.8450
  132OSM    C1414231   5.175   3.378   7.427 -0.6238  0.2740 -0.1570
  132OSM   H14A14232   5.142   3.324   7.514 -0.1358  0.4556  0.1449
  132OSM   H14B14233   5.098   3.442   7.387 -0.8808 -0.1365 -0.3320
  132OSM   H14C14234   5.261   3.437   7.454 -0.7391  1.3171 -1.8846
  132OSM    C1314235   5.341   3.206   7.372  0.5264  0.4347  0.0013
  132OSM   H13A14236   5.421   3.272   7.404  0.7750 -0.3065  0.9638
  132OSM   H13B14237   5.389   3.139   7.302  3.5351  0.1649  2.1323
  132OSM   H13C14238   5.320   3.146   7.459  0.0665 -2.1886 -1.8311
  132OSM    C1214239   5.263   3.343   7.190 -0.1595 -0.4143  0.8350
  132OSM   H12A14240   5.356   3.394   7.211  0.7396 -1.5329 -0.3113
  132OSM   H12B14241   5.190   3.420   7.170 -0.2492 -0.6199  0.3685
  132OSM    C1114242   5.279   3.253   7.067  0.8420 -0.1688  0.1606
  132OSM   H11A14243   5.302   3.328   6.987 -0.1570  0.6944  0.6525
  132OSM   H11B14244   5.180   3.211   7.043 -1.0760  3.5243  0.7924
  132OSM      P14245   5.533   3.191   7.039  0.2069  0.0921 -0.7477
  132OSM    O1314246   5.582   3.316   7.097  0.3293  0.4752  0.2425
  132OSM    O1414247   5.611   3.070   7.071  0.1212  0.6874 -0.3645
  132OSM    O1114248   5.521   3.193   6.881  0.7681 -0.8361 -0.8469
  132OSM    O1214249   5.383   3.158   7.081 -0.0854  0.7087  0.2295
  132OSM    C1S14250   5.441   3.104   6.809 -0.2686 -0.0367 -0.1401
  132OSM    H1S14251   5.336   3.109   6.844 -0.3230  1.4421 -0.4800
  132OSM    H1T14252   5.477   2.999   6.810 -2.2519 -0.7997 -1.6136
  132OSM     NF14253   5.327   3.078   6.577  0.5751  0.5505  0.2750
  132OSM    HNF14254   5.361   3.017   6.506 -1.0530 -1.1633  0.8913
  132OSM    C2S14255   5.427   3.159   6.653 -0.2544  0.1993  0.1978
  132OSM    H2S14256   5.383   3.261   6.657 -0.8184 -0.0547  0.6360
  132OSM    C3S14257   5.575   3.172   6.592 -0.2771 -0.2201  0.3831
  132OSM    H3S14258   5.621   3.070   6.588  0.5286  0.1753 -1.8015
  132OSM     O314259   5.674   3.241   6.667  0.6286  0.4504  0.4944
  132OSM    HO314260   5.633   3.227   6.752 -0.0004  0.5485  0.2148
  132OSM    C4S14261   5.574   3.230   6.451  0.4571 -0.3198  0.2407
  132OSM    H4S14262   5.569   3.151   6.376  0.3599 -1.0304  0.9826
  132OSM    C5S14263   5.586   3.359   6.408  0.9045  0.0414 -0.5111
  132OSM    H5S14264   5.599   3.431   6.490  1.8023 -0.5926 -0.0830
  132OSM    C6S14265   5.592   3.405   6.261 -0.3729  0.7258 -0.4932
  132OSM    H6S14266   5.684   3.463   6.240 -0.0485  0.0004 -1.1682
  132OSM    H6T14267   5.510   3.476   6.238 -2.3083 -1.2791 -0.1427
  132OSM    C7S14268   5.587   3.285   6.153 -0.2683 -0.8133  0.8192
  132OSM    H7S14269   5.498   3.218   6.152  1.0140 -2.5545 -0.3555
  132OSM    H7T14270   5.673   3.222   6.182 -2.1707 -2.9099  2.2803
  132OSM    C8S14271   5.587   3.357   6.016 -0.6296  0.1219 -0.3014
  132OSM    H8S14272   5.679   3.421   6.017  1.0796 -2.2097  0.8861
  132OSM    H8T14273   5.504   3.428   5.995  0.7552  1.0807 -2.9584
  132OSM    C9S14274   5.576   3.241   5.915 -0.3971 -0.6795 -0.0777
  132OSM    H9S14275   5.505   3.160   5.945 -0.8789 -0.3524 -0.3266
  132OSM    H9T14276   5.677   3.198   5.899  0.2982  0.1347  1.8033
  132OSM   C10S14277   5.535   3.282   5.773 -0.2667  0.1603 -0.3692
  132OSM   H10S14278   5.430   3.318   5.779 -0.1102  0.5059  0.4378
  132OSM   H10T14279   5.531   3.195   5.704 -2.8591 -1.0743  1.1901
  132OSM   C11S14280   5.621   3.385   5.703  0.0017 -0.8994  0.1024
  132OSM   H11S14281   5.719   3.380   5.755 -0.1280  1.3392  0.6561
  132OSM   H11T14282   5.590   3.490   5.720 -1.1156 -1.3072  0.6988
  132OSM   C12S14283   5.638   3.363   5.553  0.1173  0.1542  0.8244
  132OSM   H12S14284   5.692   3.270   5.526  0.2842  1.2818 -3.4046
  132OSM   H12T14285   5.701   3.449   5.520 -2.2917  1.5697 -0.3419
  132OSM   C13S14286   5.508   3.359   5.468 -0.2636  0.3434  0.2706
  132OSM   H13S14287   5.451   3.452   5.485  1.1651  1.4689 -0.8483
  132OSM   H13T14288   5.452   3.266   5.492  2.6697 -2.2437 -1.9777
  132OSM   C14S14289   5.538   3.361   5.314  0.6411 -0.2064  0.3587
  132OSM   H14S14290   5.633   3.411   5.286 -0.5596  1.9491 -0.0969
  132OSM   H14T14291   5.460   3.417   5.259  0.0689 -0.9486  0.4017
  132OSM   C15S14292   5.535   3.221   5.261 -0.1077  0.4243 -0.3907
  132OSM   H15S14293   5.451   3.165   5.307 -0.3542  0.9662 -0.1726
  132OSM   H15T14294   5.626   3.179   5.308  0.6537 -0.1933 -2.3260
  132OSM   C16S14295   5.546   3.195   5.119 -0.1087 -0.4594  0.1177
  132OSM   H16S14296   5.570   3.088   5.106  0.5112 -0.4096  0.7488
  132OSM   H16T14297   5.642   3.247   5.097  0.2831 -0.6444  1.3174
  132OSM   C17S14298   5.439   3.250   5.016  0.2210 -0.0669 -0.0763
  132OSM   H17S14299   5.419   3.347   5.066  0.1697  0.0723 -0.3648
  132OSM   H17T14300   5.347   3.189   5.007 -0.1171  0.7042 -3.3187
  132OSM   C18S14301   5.494   3.283   4.883 -0.1506  0.1359  0.3479
  132OSM   H18S14302   5.561   3.209   4.835 -1.0744 -0.7862  0.4313
  132OSM   H18T14303   5.545   3.380   4.896 -1.5061  0.8781  0.3248
  132OSM   H18U14304   5.412   3.320   4.817 -2.7729  1.1645  3.8436
  132OSM    C1F14305   5.197   3.073   6.609  0.8536  0.2662  0.2406
  132OSM     OF14306   5.153   3.144   6.696  0.0967 -0.4984  0.2122
  132OSM    C2F14307   5.108   2.976   6.537  0.5336  1.1003  0.3572
  132OSM    H2F14308   5.081   2.895   6.608  1.5069  0.0059 -0.4745
  132OSM    H2G14309   5.169   2.938   6.452 -1.4843 -0.1967 -0.5971
  132OSM    C3F14310   4.980   3.037   6.485  0.1862  0.2406 -0.7342
  132OSM    H3F14311   5.000   3.127   6.423  1.0460 -0.6817 -1.8546
  132OSM    H3G14312   4.911   3.076   6.563 -1.2800 -3.4501  0.0210
  132OSM    C4F14313   4.899   2.935   6.400  0.4873 -0.6373 -0.3213
  132OSM    H4F14314   4.808   2.990   6.368  1.1743  2.4268  2.4141
  132OSM    H4G14315   4.865   2.848   6.461 -1.8425  0.6503  0.3665
  132OSM    C5F14316   4.972   2.894   6.270  0.1470  0.0205 -0.2587
  132OSM    H5F14317   5.066   2.841   6.297  1.5397  2.0230 -0.9457
  132OSM    H5G14318   5.000   2.993   6.228  1.1942 -0.1187  0.0658
  132OSM    C6F14319   4.868   2.823   6.172  0.7827  0.1519 -0.3491
  132OSM    H6F14320   4.772   2.876   6.187  1.3663  1.3821 -0.8105
  132OSM    H6G14321   4.873   2.718   6.208  1.8952 -0.3722 -1.9112
  132OSM    C7F14322   4.899   2.831   6.021 -0.1368  0.1730 -0.6566
  132OSM    H7F14323   4.832   2.751   5.981  0.7209  0.2267 -2.3032
  132OSM    H7G14324   4.998   2.787   5.995 -0.8278 -0.3687 -2.5908
  132OSM    C8F14325   4.880   2.965   5.955  0.8971  0.0030 -0.1213
  132OSM    H8F14326   4.901   2.952   5.847  0.1476 -2.5336 -0.0261
  132OSM    H8G14327   4.953   3.035   6.001  0.8606  1.8830 -2.7164
  132OSM    C9F14328   4.752   3.033   5.980  0.2839 -0.5467  0.0839
  132OSM    H9F14329   4.751   3.090   6.073  0.4420  1.1484 -0.9172
  132OSM   C10F14330   4.644   3.039   5.898 -0.3031  0.0363  0.5372
  132OSM   H10F14331   4.560   3.102   5.930 -1.4502 -0.1537 -1.8747
  132OSM   C11F14332   4.624   2.960   5.768  0.0110 -0.0624 -0.3440
  132OSM   H11F14333   4.530   2.900   5.772 -1.1268  1.5743 -1.3952
  132OSM   H11G14334   4.700   2.883   5.743 -1.0197 -0.6241 -1.9115
  132OSM   C12F14335   4.623   3.049   5.645 -0.5694 -0.3393  0.5228
  132OSM   H12F14336   4.712   3.116   5.653 -0.2996 -0.7416  0.8759
  132OSM   H12G14337   4.533   3.114   5.644 -0.8009 -0.6571 -0.3294
  132OSM   C13F14338   4.609   2.965   5.516  0.2518  0.2019 -0.5634
  132OSM   H13F14339   4.524   2.896   5.531  0.2979  0.3432  0.4170
  132OSM   H13G14340   4.702   2.904   5.524  0.0648  0.0088  0.1870
  132OSM   C14F14341   4.625   3.041   5.384  0.3406 -0.0415  0.0955
  132OSM   H14F14342   4.713   3.109   5.392 -0.5442  0.9027  3.5262
  132OSM   H14G14343   4.530   3.097   5.380  0.1101 -0.4916 -1.9907
  132OSM   C15F14344   4.626   2.957   5.256 -0.0528  0.4589 -1.0042
  132OSM   H15F14345   4.548   2.879   5.265  0.2209  0.2055 -0.7929
  132OSM   H15G14346   4.720   2.898   5.249  0.1349  0.3554  1.5085
  132OSM   C16F14347   4.626   3.034   5.120 -0.1115  0.2192 -0.2418
  132OSM   H16F14348   4.726   3.082   5.111 -0.1763  0.2957 -0.5530
  132OSM   H16G14349   4.546   3.110   5.127 -0.2124 -0.0341  1.7886
  132OSM   C17F14350   4.600   2.948   4.994  0.6776 -0.1315 -0.1199
  132OSM   H17F14351   4.507   2.888   5.001  0.6771  0.0281  2.8760
  132OSM   H17G14352   4.687   2.881   4.977  1.0687  0.0525  1.0407
  132OSM   C18F14353   4.578   3.045   4.880 -0.1096  0.1136 -0.6728
  132OSM   H18F14354   4.653   3.127   4.873 -0.0407 -0.0135 -1.6555
  132OSM   H18G14355   4.475   3.085   4.893 -0.5073 -1.0771 -0.0105
  132OSM   H18H14356   4.579   2.990   4.784 -2.6488  0.8488 -1.1943
  133OSM      N14357   0.592   3.900   6.876 -0.0906  0.2157  0.2459
  133OSM    C1514358   0.738   3.926   6.893 -0.0095  0.1842 -1.0683
  133OSM   H15A14359   0.775   3.858   6.968  0.5289 -0.4376 -1.8792
  133OSM   H15B14360   0.737   4.026   6.936 -3.0482 -0.6243  1.0690
  133OSM   H15C14361   0.801   3.933   6.806  2.0411  0.3760  0.3408
  133OSM    C1414362   0.561   3.760   6.914 -0.5285  0.4042  0.1203
  133OSM   H14A14363   0.576   3.749   7.021  2.8098 -0.4179 -0.3058
  133OSM   H14B14364   0.625   3.690   6.863  1.7782  1.9728  0.6716
  133OSM   H14C14365   0.458   3.733   6.898  0.1420 -1.5556 -1.1902
  133OSM    C1314366   0.521   3.983   6.983  0.3713 -0.2734  0.2779
  133OSM   H13A14367   0.414   3.969   6.979  0.3263 -0.5129  1.8396
  133OSM   H13B14368   0.530   4.088   6.959 -0.4210 -0.1493  0.5052
  133OSM   H13C14369   0.555   3.959   7.082 -2.1831 -2.1195  0.7923
  133OSM    C1214370   0.537   3.935   6.747 -0.2639 -0.1416  0.2930
  133OSM   H12A14371   0.561   4.034   6.711 -2.6302 -0.2672 -1.9084
  133OSM   H12B14372   0.430   3.943   6.755 -0.3039 -0.0797 -0.2569
  133OSM    C1114373   0.555   3.826   6.636 -0.1840 -0.7466 -0.2755
  133OSM   H11A14374   0.655   3.778   6.632 -0.4477 -1.3662  0.2209
  133OSM   H11B14375   0.542   3.878   6.539  0.5276  0.9171  0.4909
  133OSM      P14376   0.307   3.745   6.598  0.0382 -0.2580 -0.0212
  133OSM    O1314377   0.215   3.640   6.638  0.5959 -0.4418 -0.6709
  133OSM    O1414378   0.254   3.883   6.600 -0.4816  0.1786  0.1471
  133OSM    O1114379   0.347   3.722   6.441  0.0733  0.6693 -0.3348
  133OSM    O1214380   0.453   3.727   6.664 -0.1113 -0.1268 -0.1536
  133OSM    C1S14381   0.438   3.613   6.418 -0.6874 -1.0505 -0.2692
  133OSM    H1S14382   0.408   3.518   6.467 -1.9122 -0.8738 -0.6408
  133OSM    H1T14383   0.539   3.648   6.446 -1.7491  2.4903 -0.3908
  133OSM     NF14384   0.471   3.453   6.220  0.3706  0.3144  0.4834
  133OSM    HNF14385   0.550   3.432   6.162 -1.0018  0.0125 -1.3521
  133OSM    C2S14386   0.447   3.590   6.260 -0.3209 -0.2246 -0.3293
  133OSM    H2S14387   0.347   3.618   6.221 -0.8737  0.3196  1.3739
  133OSM    C3S14388   0.542   3.699   6.195 -0.0512 -0.1735 -0.1625
  133OSM    H3S14389   0.648   3.690   6.227 -0.9419  1.7398  4.0569
  133OSM     O314390   0.496   3.830   6.231 -0.0137 -0.4969  0.1417
  133OSM    HO314391   0.421   3.817   6.289  1.1692 -0.1078  1.8383
  133OSM    C4S14392   0.534   3.695   6.041  0.2741 -0.4206 -0.2526
  133OSM    H4S14393   0.433   3.701   5.998 -0.3531  3.0385  1.3646
  133OSM    C5S14394   0.645   3.671   5.962 -0.5178 -0.0352 -0.0051
  133OSM    H5S14395   0.742   3.638   6.002  0.3346  1.8675 -0.3896
  133OSM    C6S14396   0.647   3.653   5.812  0.2693 -0.2642  0.9549
  133OSM    H6S14397   0.549   3.610   5.783 -0.7115  3.0162 -1.1668
  133OSM    H6T14398   0.723   3.577   5.783 -1.6586 -1.6948 -0.5253
  133OSM    C7S14399   0.656   3.781   5.738 -0.4646 -0.1470  0.5012
  133OSM    H7S14400   0.750   3.835   5.764 -0.3340 -0.4437  0.6394
  133OSM    H7T14401   0.572   3.851   5.756 -2.0656 -1.0542 -2.6855
  133OSM    C8S14402   0.659   3.768   5.586  0.1316  0.8245  0.3675
  133OSM    H8S14403   0.649   3.867   5.537  2.3538  0.4684 -0.9543
  133OSM    H8T14404   0.573   3.703   5.559  1.4005 -0.6906 -0.1566
  133OSM    C9S14405   0.785   3.703   5.531 -0.1010  0.9991 -0.0122
  133OSM    H9S14406   0.798   3.600   5.570 -2.2685  0.4634 -0.5998
  133OSM    H9T14407   0.878   3.754   5.565 -0.9275  2.1573  0.5767
  133OSM   C10S14408   0.800   3.709   5.375 -0.1330 -0.3082 -0.3726
  133OSM   H10S14409   0.877   3.640   5.333 -1.2537  1.0427 -5.2881
  133OSM   H10T14410   0.829   3.814   5.354 -0.8574  0.2368  1.1897
  133OSM   C11S14411   0.672   3.670   5.297 -0.0127 -0.0641  0.0007
  133OSM   H11S14412   0.595   3.747   5.319 -0.0210  0.3679 -1.4355
  133OSM   H11T14413   0.631   3.576   5.339  0.1495 -0.3525 -0.4733
  133OSM   C12S14414   0.680   3.671   5.140 -0.0406  0.2197  0.5209
  133OSM   H12S14415   0.581   3.638   5.103 -0.1344  0.2838  0.7134
  133OSM   H12T14416   0.757   3.597   5.110 -0.8675 -0.1093 -0.8629
  133OSM   C13S14417   0.723   3.809   5.077  0.9311  0.1617 -1.0029
  133OSM   H13S14418   0.827   3.829   5.111  0.1207  0.9353  1.1629
  133OSM   H13T14419   0.655   3.881   5.127  1.2581 -1.0275  1.3137
  133OSM   C14S14420   0.706   3.830   4.925 -0.2040  0.3312 -0.0652
  133OSM   H14S14421   0.600   3.813   4.895 -0.0449  0.5659 -0.7971
  133OSM   H14T14422   0.775   3.758   4.875  1.1413  0.0807  2.0177
  133OSM   C15S14423   0.741   3.972   4.890 -0.0047  0.1818  0.5861
  133OSM   H15S14424   0.851   3.988   4.881  0.0816 -0.8852 -0.6267
  133OSM   H15T14425   0.696   4.046   4.959  0.9794 -0.6411  2.1631
  133OSM   C16S14426   0.693   4.017   4.751 -0.6195 -0.4855 -0.3246
  133OSM   H16S14427   0.718   4.125   4.745 -1.4076 -0.3259 -1.0150
  133OSM   H16T14428   0.583   4.012   4.765 -0.5147 -2.4033  0.1327
  133OSM   C17S14429   0.767   3.943   4.641  0.3169 -0.0091 -0.1436
  133OSM   H17S14430   0.716   3.845   4.625 -1.4664  0.7107  0.7835
  133OSM   H17T14431   0.871   3.923   4.675  0.5759  0.1235 -0.8525
  133OSM   C18S14432   0.761   4.022   4.509 -0.4178 -0.2617  0.0940
  133OSM   H18S14433   0.813   4.118   4.531  0.1572 -0.9373  1.9629
  133OSM   H18T14434   0.660   4.061   4.487  1.2092  4.1852 -0.4893
  133OSM   H18U14435   0.804   3.966   4.423 -1.4254 -0.4034 -0.3275
  133OSM    C1F14436   0.396   3.352   6.251  0.3676 -0.1398 -0.7331
  133OSM     OF14437   0.296   3.363   6.318  0.8018 -0.7194  0.6729
  133OSM    C2F14438   0.435   3.218   6.203 -0.3467  0.3026  0.6031
  133OSM    H2F14439   0.469   3.156   6.289 -2.2501 -0.6773  0.6920
  133OSM    H2G14440   0.526   3.229   6.140 -0.2810  0.6466  0.7567
  133OSM    C3F14441   0.332   3.159   6.107 -0.2875 -0.1868 -0.8146
  133OSM    H3F14442   0.232   3.153   6.156  1.3034  0.1915  2.7859
  133OSM    H3G14443   0.361   3.053   6.091 -1.3427 -0.6074 -0.0867
  133OSM    C4F14444   0.318   3.241   5.970 -0.5446  0.4704  0.2919
  133OSM    H4F14445   0.419   3.256   5.927 -0.2637 -2.5730 -0.3789
  133OSM    H4G14446   0.276   3.343   5.981 -3.5663 -0.6090 -0.2732
  133OSM    C5F14447   0.227   3.167   5.874  0.9670 -0.4533  0.9873
  133OSM    H5F14448   0.131   3.148   5.926 -0.5717  1.9064 -0.8161
  133OSM    H5G14449   0.270   3.067   5.850  1.8032  0.4846 -1.7151
  133OSM    C6F14450   0.216   3.242   5.738  0.1865  0.1897  0.6848
  133OSM    H6F14451   0.311   3.217   5.686 -0.8710 -1.0460 -0.6941
  133OSM    H6G14452   0.220   3.351   5.760  0.0651  0.5945 -1.1727
  133OSM    C7F14453   0.091   3.205   5.660  0.0831 -0.6494 -0.2494
  133OSM    H7F14454   0.057   3.287   5.595 -0.1471 -1.8391 -1.6918
  133OSM    H7G14455   0.015   3.165   5.730  0.1740 -2.6705 -1.2019
  133OSM    C8F14456   0.122   3.097   5.551  0.7779 -0.1423 -0.0220
  133OSM    H8F14457   0.022   3.087   5.505  1.2220 -0.2249 -0.9774
  133OSM    H8G14458   0.144   3.003   5.606  0.3042 -1.6085 -2.2193
  133OSM    C9F14459   0.232   3.119   5.450 -0.2617 -0.1719  0.8345
  133OSM    H9F14460   0.329   3.139   5.499 -0.3553 -0.7031  1.2452
  133OSM   C10F14461   0.213   3.133   5.313  0.4399 -0.7552  0.2868
  133OSM   H10F14462   0.304   3.150   5.253 -0.3628 -0.7852 -0.9636
  133OSM   C11F14463   0.097   3.123   5.219  0.7279  0.2026 -0.9119
  133OSM   H11F14464   0.073   3.221   5.174  1.2521  1.3192  1.1184
  133OSM   H11G14465   0.003   3.087   5.267  0.3280 -0.9284 -2.4510
  133OSM   C12F14466   0.131   3.007   5.118  0.1830 -0.4025 -0.7245
  133OSM   H12F14467   0.138   2.913   5.178 -0.6570 -0.0838 -0.1059
  133OSM   H12G14468   0.228   3.013   5.064  1.5199 -0.1736  1.5350
  133OSM   C13F14469   0.022   2.998   5.009  0.5020  0.2204 -0.1694
  133OSM   H13F14470  -0.082   2.989   5.046  1.3868  1.4867  2.9630
  133OSM   H13G14471   0.043   2.905   4.952  1.5041  0.1501  0.3067
  133OSM   C14F14472   0.021   3.132   4.922 -0.0905 -0.3738  0.6248
  133OSM   H14F14473   0.119   3.158   4.878 -0.0374  1.1843  1.6150
  133OSM   H14G14474  -0.010   3.215   4.988  2.2450  2.3139 -1.4353
  133OSM   C15F14475  -0.085   3.125   4.811 -0.0033  0.7016  0.0644
  133OSM   H15F14476  -0.183   3.122   4.862 -0.6649 -0.1278 -1.2009
  133OSM   H15G14477  -0.072   3.031   4.754  2.0869  1.0828 -0.1881
  133OSM   C16F14478  -0.086   3.238   4.705 -0.6109 -0.8685  0.4259
  133OSM   H16F14479  -0.107   3.339   4.746  1.4577 -0.0152 -0.4569
  133OSM   H16G14480  -0.164   3.218   4.629  1.1549  0.5143 -1.8642
  133OSM   C17F14481   0.047   3.259   4.629 -0.3328  0.6293  0.6505
  133OSM   H17F14482   0.093   3.172   4.576 -0.7929  1.2611 -0.8332
  133OSM   H17G14483   0.134   3.293   4.689  0.5324 -1.4163  0.6272
  133OSM   C18F14484   0.022   3.358   4.518  0.1489 -0.1934 -0.6916
  133OSM   H18F14485  -0.043   3.443   4.549 -2.2160 -1.1560 -2.7033
  133OSM   H18G14486  -0.038   3.322   4.431  0.0568  0.7039 -1.0176
  133OSM   H18H14487   0.118   3.392   4.472 -0.1009  0.1432 -0.9771
  134OSM      N14488   0.867   2.519   6.881  0.0923 -0.0869 -1.0874
  134OSM    C1514489   0.798   2.603   6.977  0.9884 -0.8279  0.7162
  134OSM   H15A14490   0.723   2.676   6.951 -0.9150 -2.3089  1.8053
  134OSM   H15B14491   0.869   2.656   7.038 -0.6986  0.8790  1.3128
  134OSM   H15C14492   0.748   2.540   7.049 -0.8614  0.8818  1.0083
  134OSM    C1414493   0.963   2.422   6.940 -0.6332  0.1673 -0.4330
  134OSM   H14A14494   0.907   2.339   6.981 -1.1426  1.3098  1.3552
  134OSM   H14B14495   1.011   2.461   7.029  0.2304 -0.6900 -0.5139
  134OSM   H14C14496   1.044   2.389   6.877  0.7950  3.8813 -0.7988
  134OSM    C1314497   0.763   2.440   6.815  0.1007 -1.0490 -0.4642
  134OSM   H13A14498   0.805   2.367   6.746  1.9994 -0.1438 -0.3168
  134OSM   H13B14499   0.702   2.510   6.760  0.9724  0.6542  0.6822
  134OSM   H13C14500   0.699   2.384   6.882 -0.2032 -1.4038 -1.0344
  134OSM    C1214501   0.935   2.604   6.775  0.1552 -0.2225  0.4985
  134OSM   H12A14502   0.851   2.646   6.721 -1.2777 -1.2102  1.8581
  134OSM   H12B14503   0.983   2.540   6.703 -0.0672  1.2366 -1.0051
  134OSM    C1114504   1.025   2.716   6.822  0.5554  0.5951  0.3535
  134OSM   H11A14505   0.965   2.790   6.880  0.8176  0.5495  0.6894
  134OSM   H11B14506   1.061   2.775   6.735 -0.8919 -1.2044 -1.5726
  134OSM      P14507   1.251   2.594   6.842  0.2995 -0.1980 -0.0350
  134OSM    O1314508   1.366   2.664   6.888  0.1481 -0.3894 -0.2149
  134OSM    O1414509   1.236   2.449   6.859  0.4286  0.1268 -0.1602
  134OSM    O1114510   1.246   2.643   6.689 -0.6324  0.2946 -0.6329
  134OSM    O1214511   1.125   2.668   6.905 -0.3658 -0.1787  0.5190
  134OSM    C1S14512   1.278   2.544   6.582 -0.1644  0.5395 -0.5029
  134OSM    H1S14513   1.215   2.453   6.595  0.8110 -0.3949 -2.0122
  134OSM    H1T14514   1.387   2.525   6.581 -0.0866  0.9868 -1.0696
  134OSM     NF14515   1.271   2.495   6.349 -0.0713  0.4504 -0.5218
  134OSM    HNF14516   1.358   2.468   6.310 -0.3272 -1.5062  0.1215
  134OSM    C2S14517   1.266   2.611   6.440  1.0766  0.4932 -0.4161
  134OSM    H2S14518   1.162   2.648   6.435  0.3807 -1.4005 -0.5890
  134OSM    C3S14519   1.367   2.716   6.414  0.3823  0.3247 -0.6466
  134OSM    H3S14520   1.463   2.665   6.438 -2.3393 -2.9823  6.0433
  134OSM     O314521   1.369   2.826   6.506 -0.1035  0.7834  0.4950
  134OSM    HO314522   1.308   2.799   6.575  0.5393 -1.0529  0.4067
  134OSM    C4S14523   1.352   2.763   6.276 -0.1824 -0.5246  0.2577
  134OSM    H4S14524   1.251   2.802   6.257 -0.3875 -0.8459  0.6780
  134OSM    C5S14525   1.442   2.765   6.175 -0.8261  0.4521  0.6572
  134OSM    H5S14526   1.550   2.754   6.191 -1.0610  0.2881  2.2420
  134OSM    C6S14527   1.414   2.817   6.031 -0.5374  0.2164 -0.1375
  134OSM    H6S14528   1.436   2.925   6.024 -1.7900  0.3803 -2.1543
  134OSM    H6T14529   1.307   2.807   6.005 -0.7928 -0.2310  1.0182
  134OSM    C7S14530   1.504   2.739   5.935  0.3382 -0.0962 -0.6782
  134OSM    H7S14531   1.460   2.637   5.930 -0.7626  0.2440  1.1115
  134OSM    H7T14532   1.611   2.728   5.964 -0.2576  0.9513  2.3535
  134OSM    C8S14533   1.510   2.798   5.792 -0.1053  0.2821 -0.8354
  134OSM    H8S14534   1.415   2.821   5.738 -1.4019  0.4835  1.3875
  134OSM    H8T14535   1.566   2.724   5.732  3.3557  1.8525  0.2259
  134OSM    C9S14536   1.591   2.927   5.784 -0.2902 -0.6901  0.0676
  134OSM    H9S14537   1.687   2.910   5.837  0.5350  0.6370 -0.9380
  134OSM    H9T14538   1.556   3.014   5.844  4.0972  1.3690  0.0298
  134OSM   C10S14539   1.625   2.971   5.640 -0.5279 -0.0265 -0.0719
  134OSM   H10S14540   1.698   2.895   5.603 -2.3659 -0.4719 -3.0983
  134OSM   H10T14541   1.668   3.072   5.658 -0.0583 -0.5866  2.1866
  134OSM   C11S14542   1.515   2.984   5.533  0.3383  0.5267  0.3710
  134OSM   H11S14543   1.433   3.043   5.578  1.3503  2.4981 -0.2451
  134OSM   H11T14544   1.481   2.885   5.497 -0.0391  0.4861  0.8330
  134OSM   C12S14545   1.552   3.067   5.412 -0.8284 -0.1709  0.0346
  134OSM   H12S14546   1.642   3.012   5.375 -1.7368 -1.8570  0.1968
  134OSM   H12T14547   1.586   3.164   5.452  0.1026  0.2298 -1.6154
  134OSM   C13S14548   1.440   3.075   5.308 -0.0633  0.1954 -0.4465
  134OSM   H13S14549   1.356   3.122   5.364 -2.1883 -0.3872 -2.9121
  134OSM   H13T14550   1.405   2.971   5.287 -0.9332  0.3133  0.3344
  134OSM   C14S14551   1.486   3.149   5.184 -0.0935  0.1426 -0.1956
  134OSM   H14S14552   1.582   3.100   5.159 -0.4918 -0.8311  0.1299
  134OSM   H14T14553   1.514   3.253   5.212  0.3581 -0.6404  2.6341
  134OSM   C15S14554   1.390   3.145   5.070 -0.1136 -0.5053 -0.0970
  134OSM   H15S14555   1.296   3.198   5.099  0.9453  1.0407  0.6548
  134OSM   H15T14556   1.363   3.039   5.050  0.7724 -0.5330 -1.2983
  134OSM   C16S14557   1.450   3.202   4.941 -0.7432 -0.4889  0.8079
  134OSM   H16S14558   1.546   3.148   4.924 -0.2165  0.7475 -0.4189
  134OSM   H16T14559   1.476   3.310   4.950 -0.8311 -0.4021  0.1070
  134OSM   C17S14560   1.350   3.172   4.826 -0.6280 -0.5547 -0.0714
  134OSM   H17S14561   1.250   3.211   4.857 -0.4564 -0.0175 -0.1775
  134OSM   H17T14562   1.340   3.066   4.795 -2.3364  0.2674 -2.6436
  134OSM   C18S14563   1.403   3.251   4.703  0.0540  0.0062 -0.0533
  134OSM   H18S14564   1.513   3.234   4.690 -0.2272  0.1918 -3.4721
  134OSM   H18T14565   1.363   3.354   4.707 -1.8160 -0.6805 -0.2803
  134OSM   H18U14566   1.354   3.212   4.611  2.8197 -0.4105 -1.4710
  134OSM    C1F14567   1.172   2.407   6.340  0.2638 -0.2080 -0.4229
  134OSM     OF14568   1.062   2.434   6.392 -0.6505  0.0198 -0.0527
  134OSM    C2F14569   1.199   2.284   6.261 -0.3546 -0.7070  0.2220
  134OSM    H2F14570   1.203   2.210   6.343 -1.7507  0.0053  0.9739
  134OSM    H2G14571   1.303   2.285   6.221  0.1509 -1.4545  1.4582
  134OSM    C3F14572   1.106   2.249   6.149 -0.2962  0.4592  0.1267
  134OSM    H3F14573   1.000   2.247   6.183 -0.0510 -0.2850  0.8847
  134OSM    H3G14574   1.149   2.152   6.117  0.8251  1.9115 -3.1943
  134OSM    C4F14575   1.100   2.343   6.026 -0.5341  0.1559  0.1498
  134OSM    H4F14576   1.053   2.432   6.073  1.0916  0.6684  0.9004
  134OSM    H4G14577   1.034   2.307   5.944  0.4615  1.0764 -1.1032
  134OSM    C5F14578   1.233   2.384   5.968 -0.1153 -0.0655 -0.5262
  134OSM    H5F14579   1.293   2.417   6.055  1.5769 -1.0435 -1.2774
  134OSM    H5G14580   1.219   2.463   5.891  1.3164 -0.6877 -1.4709
  134OSM    C6F14581   1.298   2.268   5.887  0.1676 -0.4922  0.5447
  134OSM    H6F14582   1.306   2.180   5.954  0.0897  1.2159  2.9555
  134OSM    H6G14583   1.400   2.301   5.857 -1.2411  3.0211 -1.0245
  134OSM    C7F14584   1.211   2.228   5.762  0.4534  0.8578  0.1567
  134OSM    H7F14585   1.122   2.172   5.796 -0.4805  1.6609 -0.8911
  134OSM    H7G14586   1.278   2.163   5.701  1.4907  1.6538  0.4109
  134OSM    C8F14587   1.168   2.333   5.662  0.0029  0.0993 -0.5995
  134OSM    H8F14588   1.163   2.289   5.560  0.8311 -0.1604 -0.5327
  134OSM    H8G14589   1.252   2.406   5.658 -0.7108  1.0565  0.9713
  134OSM    C9F14590   1.030   2.394   5.681 -0.0419  0.0116  0.6834
  134OSM    H9F14591   1.013   2.447   5.776  1.5962  2.5445 -0.3211
  134OSM   C10F14592   0.943   2.418   5.584 -0.2458 -0.0429  0.1980
  134OSM   H10F14593   0.848   2.467   5.613 -1.0724 -1.5992  0.2368
  134OSM   C11F14594   0.941   2.359   5.445 -0.3354  0.9553  0.0643
  134OSM   H11F14595   0.939   2.248   5.445 -0.5999  0.9464 -1.2989
  134OSM   H11G14596   1.032   2.392   5.391 -0.8255  0.5676 -1.0141
  134OSM   C12F14597   0.823   2.401   5.350  0.1850 -0.5929  0.4590
  134OSM   H12F14598   0.809   2.504   5.389  2.5419  0.5848 -1.5363
  134OSM   H12G14599   0.723   2.359   5.372  0.1455  0.1252  1.7167
  134OSM   C13F14600   0.845   2.414   5.191  0.5675  0.1444 -0.6438
  134OSM   H13F14601   0.904   2.327   5.154  1.5259  0.4332  0.1565
  134OSM   H13G14602   0.917   2.498   5.193  1.9095 -0.8445  3.4579
  134OSM   C14F14603   0.715   2.450   5.116  0.6162  0.5739 -0.6202
  134OSM   H14F14604   0.659   2.524   5.177  1.8233 -1.1080  2.7980
  134OSM   H14G14605   0.653   2.357   5.120  1.9380 -0.3641 -1.1008
  134OSM   C15F14606   0.732   2.482   4.968 -0.1961 -0.0793 -0.6921
  134OSM   H15F14607   0.793   2.571   4.942 -2.6537  2.1077  0.5355
  134OSM   H15G14608   0.633   2.505   4.922 -0.3126  1.7415  0.3271
  134OSM   C16F14609   0.805   2.368   4.896 -0.0135 -0.1043  0.5220
  134OSM   H16F14610   0.757   2.271   4.920 -0.5071  0.0779  0.2958
  134OSM   H16G14611   0.909   2.349   4.929 -0.8566 -4.0256  1.3866
  134OSM   C17F14612   0.787   2.385   4.743 -0.0481 -0.0192  0.7303
  134OSM   H17F14613   0.866   2.446   4.693  0.6585 -0.1143  1.7026
  134OSM   H17G14614   0.689   2.431   4.720  0.4952 -0.2086 -2.3365
  134OSM   C18F14615   0.790   2.254   4.658 -0.1242  0.2365 -0.2936
  134OSM   H18F14616   0.783   2.287   4.552 -1.0011 -0.6490 -0.5320
  134OSM   H18G14617   0.700   2.192   4.681 -0.6358  1.6510  1.8417
  134OSM   H18H14618   0.882   2.194   4.675 -0.8104 -1.2058 -1.4018
  135OSM      N14619   5.635   1.170   6.537 -0.4398 -0.4012  0.0016
  135OSM    C1514620   5.554   1.085   6.632  0.4884 -0.4197  0.0575
  135OSM   H15A14621   5.524   1.140   6.720  0.2701 -1.6819  0.8025
  135OSM   H15B14622   5.616   1.002   6.664 -0.5609 -1.4049 -0.3839
  135OSM   H15C14623   5.465   1.045   6.585  0.5659 -0.3042 -0.1836
  135OSM    C1414624   5.565   1.302   6.507  0.5241  0.0726  0.8840
  135OSM   H14A14625   5.575   1.367   6.592 -3.1503  1.9400  0.0764
  135OSM   H14B14626   5.462   1.280   6.483  0.9658 -2.3268  0.8617
  135OSM   H14C14627   5.595   1.354   6.418  0.0190 -0.8052  0.1837
  135OSM    C1314628   5.767   1.212   6.603  0.4001  0.3952 -0.0933
  135OSM   H13A14629   5.835   1.256   6.531  0.0599 -0.7522 -1.1318
  135OSM   H13B14630   5.818   1.123   6.636  0.2135  0.3722  0.1387
  135OSM   H13C14631   5.746   1.283   6.682 -1.9409  0.3511 -0.6162
  135OSM    C1214632   5.669   1.086   6.406 -0.1820 -0.0865 -0.2393
  135OSM   H12A14633   5.721   0.997   6.439  0.7042  1.1546  1.9449
  135OSM   H12B14634   5.714   1.154   6.336 -1.5569  1.4988  0.3411
  135OSM    C1114635   5.549   1.035   6.326  0.2062  0.0253  0.1479
  135OSM   H11A14636   5.592   0.996   6.231  0.3096  0.0337  0.1915
  135OSM   H11B14637   5.485   1.124   6.304 -3.8781 -2.5823  0.4256
  135OSM      P14638   5.523   0.798   6.407  0.1121 -0.1932  0.2200
  135OSM    O1314639   5.643   0.806   6.492 -0.4732  0.0949  0.4116
  135OSM    O1414640   5.416   0.706   6.438  0.1649  0.0114  0.0726
  135OSM    O1114641   5.573   0.770   6.258  0.4379  0.2068 -0.4001
  135OSM    O1214642   5.466   0.941   6.390  0.3902 -0.3368 -0.3510
  135OSM    C1S14643   5.480   0.764   6.150 -0.2996 -0.0200 -0.2794
  135OSM    H1S14644   5.392   0.827   6.174 -0.8611 -1.0149  0.3886
  135OSM    H1T14645   5.447   0.658   6.139 -0.2991 -0.3939  2.5151
  135OSM     NF14646   5.441   0.812   5.908  0.0696 -0.8609 -0.1189
  135OSM    HNF14647   5.466   0.760   5.827 -0.0512 -2.2184  0.6826
  135OSM    C2S14648   5.542   0.815   6.011 -0.4934 -0.2207  0.7044
  135OSM    H2S14649   5.577   0.920   6.024  2.7951 -0.9985 -0.7168
  135OSM    C3S14650   5.673   0.734   5.977 -0.6905 -0.4860  0.2543
  135OSM    H3S14651   5.645   0.629   5.955  0.6819 -0.4933 -1.8068
  135OSM     O314652   5.767   0.730   6.083  0.4117 -0.4110  0.1684
  135OSM    HO314653   5.720   0.760   6.161  0.1570 -1.4401  0.4296
  135OSM    C4S14654   5.742   0.789   5.852 -0.3639 -0.0528 -0.2250
  135OSM    H4S14655   5.759   0.896   5.865 -0.2175 -0.2405  1.3102
  135OSM    C5S14656   5.757   0.729   5.737 -0.1233 -0.4898  0.8973
  135OSM    H5S14657   5.734   0.622   5.726 -0.0352 -0.5919  1.6682
  135OSM    C6S14658   5.809   0.803   5.612 -0.1009 -0.0509 -0.6978
  135OSM    H6S14659   5.902   0.758   5.570  0.6760 -0.1659  1.0651
  135OSM    H6T14660   5.829   0.909   5.638 -1.7595 -0.1756  1.2366
  135OSM    C7S14661   5.719   0.799   5.484  0.1655 -0.4587 -0.1145
  135OSM    H7S14662   5.620   0.843   5.508 -0.1489 -1.5303  0.6550
  135OSM    H7T14663   5.688   0.695   5.457 -0.1550  0.0003 -1.6197
  135OSM    C8S14664   5.780   0.870   5.360 -0.0953  0.5604 -0.9367
  135OSM    H8S14665   5.871   0.811   5.336 -1.1351 -0.9029 -1.4489
  135OSM    H8T14666   5.805   0.977   5.374  1.3975  0.5337 -2.9657
  135OSM    C9S14667   5.684   0.847   5.239 -0.0934  0.6301  0.5350
  135OSM    H9S14668   5.590   0.902   5.257 -1.0230 -0.3978 -0.9685
  135OSM    H9T14669   5.650   0.741   5.241  0.4109  0.4126 -1.0145
  135OSM   C10S14670   5.723   0.883   5.097  0.2250  0.1415  0.3692
  135OSM   H10S14671   5.823   0.845   5.066 -0.4156 -0.9978 -0.3616
  135OSM   H10T14672   5.725   0.994   5.086  0.2172  0.1649  0.5905
  135OSM   C11S14673   5.631   0.824   4.986 -0.2525  0.1495 -0.5540
  135OSM   H11S14674   5.532   0.858   5.022  1.1236  2.8897  0.9359
  135OSM   H11T14675   5.639   0.713   4.982  2.6064  0.2145  0.8845
  135OSM   C12S14676   5.667   0.882   4.848 -0.6442 -0.8649 -0.5708
  135OSM   H12S14677   5.774   0.880   4.818 -1.0756 -0.4279 -2.2154
  135OSM   H12T14678   5.641   0.989   4.861 -2.4959 -0.8253 -3.6738
  135OSM   C13S14679   5.594   0.809   4.733  0.4283 -0.2108  0.4608
  135OSM   H13S14680   5.488   0.834   4.755  1.4666  3.2301  2.2386
  135OSM   H13T14681   5.607   0.699   4.737  0.4317 -0.2934 -1.2127
  135OSM   C14S14682   5.645   0.858   4.595 -0.2105  0.3925 -0.5890
  135OSM   H14S14683   5.754   0.877   4.586  0.0744 -0.1661  1.3347
  135OSM   H14T14684   5.605   0.962   4.586 -0.0074  0.4018 -1.4646
  135OSM   C15S14685   5.599   0.776   4.475 -0.1466  0.4782 -0.4628
  135OSM   H15S14686   5.636   0.671   4.477  0.3005  0.6367  0.0798
  135OSM   H15T14687   5.641   0.829   4.387 -0.2792  2.8292  0.8250
  135OSM   C16S14688   5.442   0.782   4.466  0.2663  0.2244 -0.1734
  135OSM   H16S14689   5.408   0.887   4.478 -0.9219 -0.1456 -0.2351
  135OSM   H16T14690   5.393   0.716   4.540 -0.2862  1.7472  0.8624
  135OSM   C17S14691   5.401   0.748   4.327 -0.0501 -0.7828  0.0974
  135OSM   H17S14692   5.439   0.649   4.294 -0.3168 -0.6846 -0.5034
  135OSM   H17T14693   5.435   0.826   4.256 -2.8901 -0.5394 -1.1341
  135OSM   C18S14694   5.244   0.745   4.318 -0.8053  0.1570  1.0177
  135OSM   H18S14695   5.209   0.850   4.318  0.7035  0.6793  1.0246
  135OSM   H18T14696   5.189   0.683   4.392 -0.7898 -0.4323  0.5482
  135OSM   H18U14697   5.216   0.717   4.214  2.1894  0.8890 -0.0809
  135OSM    C1F14698   5.339   0.897   5.913  0.0962  0.5621 -0.8036
  135OSM     OF14699   5.333   0.982   5.998 -0.2134 -0.5007 -0.1187
  135OSM    C2F14700   5.223   0.868   5.817  0.6077  0.0287 -0.3466
  135OSM    H2F14701   5.201   0.767   5.857  2.3745 -1.0971 -2.0330
  135OSM    H2G14702   5.254   0.845   5.713  0.6226  0.1242 -0.3644
  135OSM    C3F14703   5.107   0.965   5.821  0.3819  0.4212 -0.0352
  135OSM    H3F14704   5.141   1.060   5.775 -0.1328  0.7957  0.3450
  135OSM    H3G14705   5.081   0.974   5.928  2.9723  0.7082  0.6443
  135OSM    C4F14706   4.983   0.903   5.753  0.0868 -0.5528  0.9958
  135OSM    H4F14707   4.969   0.794   5.773 -0.8028 -0.5416  0.4503
  135OSM    H4G14708   4.893   0.959   5.786  0.3748  0.3905  0.2026
  135OSM    C5F14709   5.001   0.922   5.596  0.4019 -0.0013 -0.4222
  135OSM    H5F14710   5.105   0.898   5.564 -0.2575 -1.5316 -1.5319
  135OSM    H5G14711   4.991   1.028   5.562  1.4177 -0.4475 -2.2206
  135OSM    C6F14712   4.910   0.821   5.524  0.2794 -0.2586 -0.1389
  135OSM    H6F14713   4.809   0.846   5.565  0.7990  0.4348  0.7657
  135OSM    H6G14714   4.943   0.721   5.559  3.2588  0.5983 -0.2388
  135OSM    C7F14715   4.922   0.827   5.374  0.2211  0.3495  0.2788
  135OSM    H7F14716   5.024   0.798   5.342  0.6619 -0.2757  2.1695
  135OSM    H7G14717   4.901   0.925   5.326 -1.9403 -0.4300 -0.4968
  135OSM    C8F14718   4.827   0.728   5.309  0.1133 -0.3031 -0.4163
  135OSM    H8F14719   4.833   0.641   5.379  0.6151 -0.5570 -0.7678
  135OSM    H8G14720   4.874   0.701   5.212  0.3934 -0.6170 -0.1968
  135OSM    C9F14721   4.682   0.768   5.299 -0.3521  0.1329 -0.6139
  135OSM    H9F14722   4.652   0.849   5.366  1.5198 -0.4594  1.0595
  135OSM   C10F14723   4.601   0.728   5.205  0.6499 -0.7170  0.2955
  135OSM   H10F14724   4.499   0.767   5.215  0.6849 -0.6476  0.3880
  135OSM   C11F14725   4.625   0.630   5.097 -0.1076  0.3427  0.3259
  135OSM   H11F14726   4.569   0.534   5.100 -0.2001  0.3218 -1.3765
  135OSM   H11G14727   4.733   0.612   5.076 -0.4731 -1.1451 -0.4770
  135OSM   C12F14728   4.570   0.694   4.965 -0.5939  1.0307  0.0071
  135OSM   H12F14729   4.628   0.783   4.931  0.6605 -0.7364 -2.8447
  135OSM   H12G14730   4.468   0.732   4.986 -0.2138  1.4910  1.0445
  135OSM   C13F14731   4.572   0.592   4.849  0.6716 -0.1700 -1.1051
  135OSM   H13F14732   4.504   0.511   4.882  1.0879  0.4902  1.5980
  135OSM   H13G14733   4.672   0.545   4.830  1.1042  0.5216 -0.5744
  135OSM   C14F14734   4.520   0.642   4.714 -0.3276  0.0865  0.6288
  135OSM   H14F14735   4.580   0.733   4.691  2.1675 -1.4881  0.5937
  135OSM   H14G14736   4.411   0.662   4.729  0.0230  2.9299  0.0536
  135OSM   C15F14737   4.534   0.546   4.593 -0.3327 -0.4168 -0.1294
  135OSM   H15F14738   4.493   0.445   4.612 -0.3460 -0.2092  0.9874
  135OSM   H15G14739   4.642   0.543   4.567 -0.3797  1.6072 -0.7606
  135OSM   C16F14740   4.455   0.608   4.475 -0.2785  0.2224  0.5595
  135OSM   H16F14741   4.461   0.718   4.468 -0.5248  0.3037  1.4797
  135OSM   H16G14742   4.347   0.587   4.495  0.1059 -2.6354  0.1583
  135OSM   C17F14743   4.492   0.547   4.335  0.0572 -0.1053  0.8482
  135OSM   H17F14744   4.595   0.574   4.306  0.6646 -0.8248  2.2662
  135OSM   H17G14745   4.428   0.586   4.253 -0.4089 -1.3031  0.6176
  135OSM   C18F14746   4.472   0.399   4.339  0.0336 -0.0838 -0.2195
  135OSM   H18F14747   4.368   0.370   4.363 -0.4300  1.0042 -0.8410
  135OSM   H18G14748   4.544   0.357   4.413 -1.5593 -0.6937  1.0277
  135OSM   H18H14749   4.494   0.346   4.243 -3.7889 -1.5168 -0.4558
  136OSM      N14750   1.462   1.623   6.305  0.3119 -0.0703 -0.0214
  136OSM    C1514751   1.322   1.669   6.315  1.1048 -0.0723 -0.0469
  136OSM   H15A14752   1.283   1.684   6.216  1.1551  1.2206  0.1108
  136OSM   H15B14753   1.330   1.759   6.375  0.9889  0.5615 -0.9711
  136OSM   H15C14754   1.263   1.599   6.371  0.6605  0.0011 -0.4207
  136OSM    C1414755   1.523   1.572   6.428  0.5906 -0.3351 -0.6262
  136OSM   H14A14756   1.462   1.493   6.470  1.1677 -0.7513 -0.5670
  136OSM   H14B14757   1.533   1.650   6.502 -2.0122 -0.8836  0.4148
  136OSM   H14C14758   1.622   1.537   6.401  0.1476 -0.2426 -2.4818
  136OSM    C1314759   1.457   1.518   6.190  0.4281  0.1121 -0.7699
  136OSM   H13A14760   1.438   1.557   6.092  0.5152  1.2314 -0.3542
  136OSM   H13B14761   1.387   1.443   6.225  0.5725  1.2682  2.3743
  136OSM   H13C14762   1.553   1.469   6.181  1.2512  1.1789  1.3334
  136OSM    C1214763   1.544   1.737   6.257 -0.7436 -0.1268  0.4184
  136OSM   H12A14764   1.494   1.781   6.171  0.4598  0.8669  0.1971
  136OSM   H12B14765   1.635   1.685   6.232 -1.0517 -1.5610  2.0729
  136OSM    C1114766   1.584   1.863   6.349  0.7296  0.0501  0.1576
  136OSM   H11A14767   1.494   1.915   6.389 -0.2166 -1.6030  0.2767
  136OSM   H11B14768   1.640   1.932   6.283 -0.6468  1.2495  0.2041
  136OSM      P14769   1.814   1.772   6.459  0.2227  0.1174  0.1045
  136OSM    O1314770   1.895   1.871   6.536 -0.3005  0.1502  0.2870
  136OSM    O1414771   1.819   1.631   6.500  0.1305 -0.0060 -0.5797
  136OSM    O1114772   1.840   1.783   6.307  0.4370 -0.4683 -0.6135
  136OSM    O1214773   1.663   1.816   6.459 -0.1193 -0.6838 -0.4442
  136OSM    C1S14774   1.977   1.782   6.264  0.3842 -0.0001 -0.2810
  136OSM    H1S14775   2.016   1.679   6.278  0.9565  0.1232 -0.9292
  136OSM    H1T14776   2.042   1.856   6.315 -1.8774  1.0592  1.2046
  136OSM     NF14777   2.139   1.767   6.076 -0.1850 -0.3508 -0.1306
  136OSM    HNF14778   2.212   1.835   6.085 -0.1116 -0.3276 -0.8285
  136OSM    C2S14779   2.006   1.813   6.111 -0.3174  0.0640  0.1861
  136OSM    H2S14780   1.923   1.752   6.068 -0.0060 -0.0608 -0.2469
  136OSM    C3S14781   1.969   1.959   6.085 -0.5405 -0.1465  0.2545
  136OSM    H3S14782   2.038   2.022   6.146 -0.6673  0.9204 -0.6841
  136OSM     O314783   1.838   1.996   6.132  0.0148 -0.0501  0.0531
  136OSM    HO314784   1.816   1.922   6.189  1.0929 -0.8266 -0.5011
  136OSM    C4S14785   1.990   1.974   5.933  0.0146 -0.3766  0.4357
  136OSM    H4S14786   1.912   1.935   5.865  0.4571 -0.1839 -0.1841
  136OSM    C5S14787   2.082   2.046   5.874  0.0269 -0.0528 -0.4952
  136OSM    H5S14788   2.156   2.084   5.946  0.7108 -1.0766 -0.6286
  136OSM    C6S14789   2.094   2.074   5.733  0.9616 -0.2801  0.2246
  136OSM    H6S14790   2.162   2.156   5.703 -0.0857  0.4897 -0.1016
  136OSM    H6T14791   1.996   2.116   5.701  0.8673 -1.4054 -1.0620
  136OSM    C7S14792   2.125   1.944   5.648  0.5290  0.5821  0.4702
  136OSM    H7S14793   2.069   1.854   5.682  0.4595  0.1535 -0.7281
  136OSM    H7T14794   2.230   1.912   5.659  0.1314 -1.3475 -0.9917
  136OSM    C8S14795   2.091   1.968   5.501  0.1424  0.0295 -0.2226
  136OSM    H8S14796   2.151   2.048   5.453  0.6730 -1.2572 -1.8147
  136OSM    H8T14797   1.985   2.000   5.497 -0.1657 -0.7106  1.2949
  136OSM    C9S14798   2.108   1.833   5.428 -0.6381 -0.4316 -0.0236
  136OSM    H9S14799   2.045   1.748   5.461 -1.3824 -0.3981 -1.3177
  136OSM    H9T14800   2.213   1.803   5.449 -0.7278 -1.5714 -1.1237
  136OSM   C10S14801   2.097   1.846   5.282 -0.9120 -0.7020  0.1490
  136OSM   H10S14802   2.169   1.927   5.257  1.7422 -1.6142  3.9722
  136OSM   H10T14803   1.997   1.886   5.256  0.4170  1.2535 -2.5018
  136OSM   C11S14804   2.139   1.729   5.197  0.7768 -0.6115  0.2899
  136OSM   H11S14805   2.061   1.650   5.196 -1.2392  1.0815 -4.4095
  136OSM   H11T14806   2.240   1.697   5.229  1.0362 -0.3485 -0.2540
  136OSM   C12S14807   2.152   1.780   5.051 -0.6069 -0.0894  0.1169
  136OSM   H12S14808   2.200   1.704   4.986  0.6047  0.9301 -0.2084
  136OSM   H12T14809   2.207   1.876   5.056  1.6916 -1.3807  0.8231
  136OSM   C13S14810   2.016   1.790   4.981  0.2878 -0.2886 -0.6214
  136OSM   H13S14811   1.940   1.843   5.043  1.5482 -1.5691  2.1955
  136OSM   H13T14812   1.960   1.694   4.983  1.2019 -0.9083  3.0124
  136OSM   C14S14813   2.030   1.842   4.833  0.8623  0.1786 -0.7168
  136OSM   H14S14814   2.071   1.765   4.765  1.6988  0.6790 -0.7961
  136OSM   H14T14815   2.106   1.924   4.831  0.2352  0.7578 -1.5276
  136OSM   C15S14816   1.894   1.893   4.768  0.2928 -0.6865 -0.3302
  136OSM   H15S14817   1.825   1.954   4.830  0.1635 -2.0348  0.9030
  136OSM   H15T14818   1.832   1.802   4.752 -0.8807  0.0567 -0.1350
  136OSM   C16S14819   1.921   1.948   4.632 -0.4860 -0.7871  0.1202
  136OSM   H16S14820   1.958   1.869   4.564 -3.5712 -1.5290 -0.8244
  136OSM   H16T14821   2.000   2.026   4.633 -0.7428 -0.5106 -0.4658
  136OSM   C17S14822   1.790   1.996   4.567  1.3889  0.4097  0.5951
  136OSM   H17S14823   1.815   2.040   4.468 -0.8217  0.7138  0.1166
  136OSM   H17T14824   1.756   2.083   4.628  0.9441 -0.5182  1.6921
  136OSM   C18S14825   1.674   1.901   4.558  0.5162 -0.9144  0.3805
  136OSM   H18S14826   1.664   1.842   4.652  0.6413  1.1831  1.7678
  136OSM   H18T14827   1.688   1.815   4.489 -2.7808 -0.5999 -0.8983
  136OSM   H18U14828   1.577   1.952   4.538  1.5397  0.3006 -1.8925
  136OSM    C1F14829   2.164   1.636   6.061  0.5067 -0.3336  0.7166
  136OSM     OF14830   2.077   1.554   6.087 -0.0796  0.2110 -0.3508
  136OSM    C2F14831   2.304   1.611   6.024 -0.1687 -0.2565 -0.2519
  136OSM    H2F14832   2.358   1.575   6.115 -2.5348  1.1366  1.8435
  136OSM    H2G14833   2.353   1.707   5.996 -3.3670  1.3704 -0.7469
  136OSM    C3F14834   2.327   1.509   5.907 -0.0335  0.2267  0.4877
  136OSM    H3F14835   2.258   1.533   5.824 -1.4825  1.2292  1.9183
  136OSM    H3G14836   2.307   1.407   5.946 -0.2719  0.1803  0.2453
  136OSM    C4F14837   2.474   1.504   5.864 -0.1953 -0.1760 -0.1830
  136OSM    H4F14838   2.523   1.460   5.954  2.9826  0.6766 -1.3321
  136OSM    H4G14839   2.512   1.606   5.840  0.0166  0.1261  1.3403
  136OSM    C5F14840   2.487   1.410   5.746 -0.2623 -0.3152  0.4757
  136OSM    H5F14841   2.476   1.304   5.777  0.3780 -0.3663  0.5507
  136OSM    H5G14842   2.593   1.424   5.713 -1.0039  2.5227 -0.9962
  136OSM    C6F14843   2.408   1.459   5.622  0.1730 -0.5045  0.3659
  136OSM    H6F14844   2.419   1.570   5.613  2.8060 -0.7968 -1.0853
  136OSM    H6G14845   2.304   1.421   5.628  0.1616 -0.2628  2.6461
  136OSM    C7F14846   2.458   1.386   5.495  0.0957  0.3049  0.1422
  136OSM    H7F14847   2.432   1.278   5.489  0.0778  0.3028  0.2437
  136OSM    H7G14848   2.569   1.388   5.499  0.0927  0.6815  0.0881
  136OSM    C8F14849   2.409   1.446   5.360  0.6195 -1.1006 -0.3556
  136OSM    H8F14850   2.433   1.554   5.357  0.7114 -0.9664  2.4782
  136OSM    H8G14851   2.298   1.449   5.356  0.5323 -0.0249  1.5821
  136OSM    C9F14852   2.460   1.385   5.234  0.6169  0.3615  1.1088
  136OSM    H9F14853   2.568   1.395   5.218  0.4990  0.1849  0.1092
  136OSM   C10F14854   2.394   1.306   5.142  0.0917 -0.4451 -0.1861
  136OSM   H10F14855   2.448   1.276   5.050 -0.4632 -0.1293 -0.6252
  136OSM   C11F14856   2.251   1.268   5.135  0.3374  0.4413  0.1211
  136OSM   H11F14857   2.214   1.254   5.239  3.1213 -1.4450  0.9742
  136OSM   H11G14858   2.236   1.169   5.086  0.4179  0.8027 -0.6558
  136OSM   C12F14859   2.159   1.364   5.056 -0.3353 -0.5189 -0.3028
  136OSM   H12F14860   2.156   1.467   5.098  1.7941 -0.5335 -0.0329
  136OSM   H12G14861   2.054   1.326   5.061  0.1520 -1.7669  0.8898
  136OSM   C13F14862   2.179   1.382   4.898 -0.1923  0.4690  0.0267
  136OSM   H13F14863   2.270   1.445   4.893  0.1537 -0.0486 -0.2438
  136OSM   H13G14864   2.094   1.438   4.853 -0.7062 -0.8973 -0.7708
  136OSM   C14F14865   2.195   1.253   4.814 -0.7895  0.5069 -0.6747
  136OSM   H14F14866   2.112   1.184   4.838 -1.6897  1.9842  0.5954
  136OSM   H14G14867   2.293   1.203   4.828 -0.1480  1.6889 -0.8092
  136OSM   C15F14868   2.189   1.270   4.663  0.3334 -0.0726 -0.1298
  136OSM   H15F14869   2.276   1.319   4.616  0.1874 -0.4264 -0.7840
  136OSM   H15G14870   2.098   1.325   4.629 -0.4558  0.6792  2.9324
  136OSM   C16F14871   2.161   1.139   4.587  0.4637 -0.0972 -0.3323
  136OSM   H16F14872   2.059   1.105   4.613  0.3748  0.6808  0.3631
  136OSM   H16G14873   2.227   1.057   4.623 -0.6881  0.1542  2.6010
  136OSM   C17F14874   2.171   1.160   4.436 -0.7104  0.4204 -0.6138
  136OSM   H17F14875   2.264   1.214   4.409  0.6607 -0.7053  1.5713
  136OSM   H17G14876   2.081   1.222   4.414 -0.2527  1.9799  1.5319
  136OSM   C18F14877   2.147   1.030   4.355 -0.3714 -1.3722 -0.6446
  136OSM   H18F14878   2.165   1.061   4.250 -0.1374 -0.1904 -0.2709
  136OSM   H18G14879   2.043   0.995   4.374 -1.2716  1.9923  1.5173
  136OSM   H18H14880   2.221   0.953   4.385 -0.4282 -0.5104  1.9428
  137OSM      N14881   5.015   6.795   6.907 -0.1799  0.3615 -1.1656
  137OSM    C1514882   5.077   6.888   7.012  0.2077  0.5637 -0.1860
  137OSM   H15A14883   5.170   6.929   6.975  0.9641  0.1149  1.1453
  137OSM   H15B14884   5.101   6.816   7.089 -3.6468 -0.8382 -0.0745
  137OSM   H15C14885   5.007   6.965   7.040  0.6175  1.2115 -0.9220
  137OSM    C1414886   5.107   6.680   6.888 -0.5554 -0.1700  0.0724
  137OSM   H14A14887   5.205   6.709   6.853 -0.6390  0.3265  0.2360
  137OSM   H14B14888   5.065   6.626   6.805 -1.2035  1.5027 -0.7475
  137OSM   H14C14889   5.129   6.613   6.970  1.3158  0.3937  0.0828
  137OSM    C1314890   4.889   6.733   6.973  0.3456  1.0280  0.5772
  137OSM   H13A14891   4.927   6.657   7.039  1.0251  1.4480  0.6827
  137OSM   H13B14892   4.821   6.692   6.901  0.8672 -0.4465  0.8941
  137OSM   H13C14893   4.833   6.811   7.023 -0.0631  3.2398 -2.9910
  137OSM    C1214894   4.977   6.866   6.784  0.2551  0.7247  0.2503
  137OSM   H12A14895   5.057   6.927   6.744  1.2138 -0.6647 -0.0546
  137OSM   H12B14896   4.903   6.937   6.817 -0.4815 -0.5679  1.5094
  137OSM    C1114897   4.925   6.785   6.667  0.4519  0.4746 -0.2601
  137OSM   H11A14898   4.885   6.848   6.585  1.1522 -0.2332 -1.1666
  137OSM   H11B14899   4.843   6.724   6.710  0.0944  0.1436 -1.3947
  137OSM      P14900   5.152   6.752   6.543  0.2008  0.7764  0.0575
  137OSM    O1314901   5.158   6.899   6.557 -0.1717  0.3155 -0.2620
  137OSM    O1414902   5.263   6.663   6.588  0.4176  0.3328  0.5674
  137OSM    O1114903   5.128   6.717   6.390  0.3692 -0.2705 -0.1171
  137OSM    O1214904   5.020   6.696   6.608  0.2043 -0.5294 -0.0628
  137OSM    C1S14905   5.020   6.775   6.321  0.2077  0.4962 -0.2882
  137OSM    H1S14906   5.012   6.885   6.339  0.2950  0.3321  0.8793
  137OSM    H1T14907   4.926   6.736   6.365  0.2715  1.6128  0.9061
  137OSM     NF14908   4.911   6.842   6.118 -0.0431 -0.3795 -0.5423
  137OSM    HNF14909   4.823   6.798   6.107  0.7124 -1.8227 -0.9985
  137OSM    C2S14910   5.012   6.756   6.178 -0.3036  1.0175 -0.1832
  137OSM    H2S14911   5.109   6.792   6.137 -0.4442 -0.6209 -2.0805
  137OSM    C3S14912   4.996   6.606   6.141 -0.5467 -0.5114 -0.2324
  137OSM    H3S14913   4.906   6.575   6.198 -0.4879  0.8153  0.6216
  137OSM     O314914   5.091   6.526   6.206 -0.0561 -0.5087 -0.3750
  137OSM    HO314915   5.120   6.584   6.277 -0.4171  0.5096 -1.0351
  137OSM    C4S14916   4.988   6.577   5.995  0.5421  0.4070  0.4771
  137OSM    H4S14917   5.017   6.658   5.927 -2.6164  0.2079 -1.3149
  137OSM    C5S14918   4.938   6.460   5.954  0.4577  0.3163  0.0760
  137OSM    H5S14919   4.917   6.381   6.028  1.1068 -1.9760 -2.0659
  137OSM    C6S14920   4.915   6.415   5.813 -0.1782 -0.7879  0.7264
  137OSM    H6S14921   4.813   6.428   5.770  0.8933 -1.3897 -2.2048
  137OSM    H6T14922   4.941   6.308   5.800  0.1135 -0.5972 -0.3386
  137OSM    C7S14923   5.000   6.492   5.716  0.1647  0.0872 -0.2191
  137OSM    H7S14924   5.108   6.479   5.740 -0.2091  1.0277  2.2579
  137OSM    H7T14925   4.983   6.602   5.721 -1.3704 -0.1677  0.5618
  137OSM    C8S14926   4.975   6.445   5.568  0.0288 -0.5340 -0.8838
  137OSM    H8S14927   4.880   6.388   5.562 -0.7271  0.6465 -0.3390
  137OSM    H8T14928   5.054   6.371   5.542  0.7462 -0.3878  0.7258
  137OSM    C9S14929   4.968   6.562   5.465  0.1859 -0.0270 -0.3583
  137OSM    H9S14930   5.075   6.592   5.468  0.0324  0.4547  0.9696
  137OSM    H9T14931   4.912   6.646   5.512  2.1365  0.4197  1.3949
  137OSM   C10S14932   4.927   6.535   5.320 -0.3778 -0.4739  0.1472
  137OSM   H10S14933   4.821   6.503   5.310 -0.1955 -1.0426 -0.0181
  137OSM   H10T14934   4.990   6.446   5.302  1.8448  0.4138  2.7807
  137OSM   C11S14935   4.962   6.645   5.228  0.0230  0.4951  0.9111
  137OSM   H11S14936   5.070   6.669   5.239 -0.1740  0.6597  2.9181
  137OSM   H11T14937   4.908   6.740   5.253 -2.1526 -0.4792  0.1637
  137OSM   C12S14938   4.933   6.617   5.076 -0.0166  0.3009  0.2758
  137OSM   H12S14939   4.969   6.711   5.031  1.0811 -1.1190 -1.9713
  137OSM   H12T14940   4.823   6.628   5.066 -0.0398  1.5820  1.6422
  137OSM   C13S14941   5.001   6.494   5.018  0.3661  0.2128 -0.3779
  137OSM   H13S14942   5.050   6.439   5.100 -0.5414  1.9311  1.3941
  137OSM   H13T14943   5.075   6.519   4.939 -1.3256 -0.1417 -2.1559
  137OSM   C14S14944   4.892   6.403   4.960 -0.1184  0.0064  0.5838
  137OSM   H14S14945   4.800   6.414   5.023  0.5441  0.8492  1.4360
  137OSM   H14T14946   4.931   6.300   4.974  2.3044  0.8925  0.7301
  137OSM   C15S14947   4.855   6.428   4.814 -0.8469 -0.9168  0.4682
  137OSM   H15S14948   4.951   6.443   4.761 -0.9292 -0.1011  0.5306
  137OSM   H15T14949   4.801   6.525   4.805 -0.6563 -1.0136 -2.6334
  137OSM   C16S14950   4.773   6.319   4.747 -0.5180  0.4963 -0.3334
  137OSM   H16S14951   4.674   6.313   4.796 -1.5038 -1.8342 -2.3562
  137OSM   H16T14952   4.812   6.216   4.765 -1.3539  0.1314 -0.5743
  137OSM   C17S14953   4.759   6.342   4.600 -0.5977  0.2470 -0.1405
  137OSM   H17S14954   4.839   6.412   4.569 -0.3142 -0.7884 -1.9029
  137OSM   H17T14955   4.668   6.400   4.575  0.0365  0.4606 -2.0948
  137OSM   C18S14956   4.767   6.209   4.518 -0.0503 -0.7188 -0.0375
  137OSM   H18S14957   4.864   6.156   4.526 -0.1123 -1.0681 -1.3910
  137OSM   H18T14958   4.738   6.221   4.412  0.5702  0.9358 -0.0532
  137OSM   H18U14959   4.691   6.141   4.562  0.3800 -1.6663 -0.7358
  137OSM    C1F14960   4.928   6.973   6.093  0.7167  0.0646  0.4727
  137OSM     OF14961   5.017   7.028   6.139 -0.0886 -0.6698  0.7236
  137OSM    C2F14962   4.817   7.039   6.017 -1.1342 -0.0809  0.2743
  137OSM    H2F14963   4.801   7.137   6.067 -1.4817 -1.3518  2.8454
  137OSM    H2G14964   4.725   6.978   6.028 -1.9554  1.0807  0.0867
  137OSM    C3F14965   4.850   7.060   5.870 -0.0416 -0.1971 -0.0818
  137OSM    H3F14966   4.844   6.962   5.817 -2.2455 -0.4004  0.4598
  137OSM    H3G14967   4.951   7.102   5.850  0.1308 -0.5319  0.0775
  137OSM    C4F14968   4.751   7.159   5.809  0.3619 -0.0302  0.5768
  137OSM    H4F14969   4.738   7.236   5.888 -1.9824 -1.0791  1.3378
  137OSM    H4G14970   4.655   7.102   5.805 -1.8043  3.3452 -0.1093
  137OSM    C5F14971   4.785   7.228   5.673  0.4536 -0.0667 -1.1219
  137OSM    H5F14972   4.872   7.291   5.700  0.5384 -0.1617 -1.1723
  137OSM    H5G14973   4.695   7.287   5.647  1.7512  2.1698 -0.8085
  137OSM    C6F14974   4.823   7.134   5.561  0.4518 -0.0960  0.1389
  137OSM    H6F14975   4.752   7.049   5.557 -2.4909  2.1974  0.1837
  137OSM    H6G14976   4.923   7.095   5.588  0.4059  0.4948  1.2001
  137OSM    C7F14977   4.836   7.205   5.419 -0.5176  0.5227 -0.6788
  137OSM    H7F14978   4.946   7.216   5.411 -0.5552  0.6624 -1.0445
  137OSM    H7G14979   4.799   7.309   5.433 -0.3471  0.3164  1.6367
  137OSM    C8F14980   4.778   7.120   5.296 -0.4089  0.3042 -0.0169
  137OSM    H8F14981   4.679   7.081   5.328 -0.3333 -0.1067 -0.2717
  137OSM    H8G14982   4.853   7.037   5.296  0.5487  1.1102  1.5723
  137OSM    C9F14983   4.789   7.200   5.161  0.6692 -0.4976  0.6153
  137OSM    H9F14984   4.745   7.301   5.158  0.2587 -0.6301  1.6891
  137OSM   C10F14985   4.830   7.151   5.041  0.2483 -0.3750 -0.1891
  137OSM   H10F14986   4.835   7.218   4.954 -1.8695 -0.7786 -0.6977
  137OSM   C11F14987   4.874   7.013   5.006 -0.2523  0.4297  0.2918
  137OSM   H11F14988   4.803   6.939   5.050 -1.2117  1.5300  0.6387
  137OSM   H11G14989   4.973   6.993   5.053 -0.8632 -0.7167  1.1641
  137OSM   C12F14990   4.878   6.987   4.852  0.3407  0.1686 -1.0597
  137OSM   H12F14991   4.964   7.043   4.809  0.5636  1.7814  1.3314
  137OSM   H12G14992   4.779   7.029   4.824 -0.2577  0.8972  1.8862
  137OSM   C13F14993   4.887   6.839   4.807  0.1422 -0.3302  0.0048
  137OSM   H13F14994   4.835   6.769   4.876  1.1914 -0.5430  0.6070
  137OSM   H13G14995   4.995   6.817   4.819  0.9772  2.1664 -2.1966
  137OSM   C14F14996   4.856   6.822   4.659 -1.1481  1.3551  0.0902
  137OSM   H14F14997   4.886   6.917   4.608 -0.5161  1.5674  0.8446
  137OSM   H14G14998   4.747   6.802   4.650 -0.7305 -1.7400  0.9745
  137OSM   C15F14999   4.928   6.699   4.582  0.3772 -0.5330  0.1453
  137OSM   H15F15000   4.885   6.605   4.622  2.5686 -2.0247 -0.7943
  137OSM   H15G15001   5.032   6.695   4.619  0.7207 -0.4382 -0.7755
  137OSM   C16F15002   4.908   6.691   4.433 -0.2267 -0.3893  0.0789
  137OSM   H16F15003   4.914   6.793   4.388  2.0160  0.8313  2.8228
  137OSM   H16G15004   4.801   6.661   4.430 -0.3589 -0.2703  2.0694
  137OSM   C17F15005   4.992   6.579   4.373 -0.1977 -0.8486 -0.3112
  137OSM   H17F15006   4.950   6.535   4.280 -1.5105 -0.6453  0.1652
  137OSM   H17G15007   5.000   6.500   4.450  3.5355 -1.0628 -0.7166
  137OSM   C18F15008   5.139   6.629   4.336  0.2342  0.0503 -0.1524
  137OSM   H18F15009   5.196   6.620   4.430  0.7149 -1.4693 -0.5554
  137OSM   H18G15010   5.145   6.735   4.301 -1.2472 -0.6410 -2.7467
  137OSM   H18H15011   5.194   6.568   4.261 -0.9954 -1.5234  0.1893
  138OSM      N15012   3.176   4.702   6.713  0.4230  0.2439 -0.1174
  138OSM    C1515013   3.293   4.667   6.618  1.1069  0.7329  0.0107
  138OSM   H15A15014   3.340   4.759   6.587 -0.1448  1.9450  1.5183
  138OSM   H15B15015   3.252   4.622   6.529  0.3099 -1.1451  1.2597
  138OSM   H15C15016   3.370   4.614   6.672  0.3757  0.7443  1.1080
  138OSM    C1415017   3.070   4.781   6.638 -0.6473  0.2725  0.1815
  138OSM   H14A15018   3.098   4.885   6.640  1.0829 -0.1490 -0.7078
  138OSM   H14B15019   2.966   4.769   6.667 -1.8024  1.8005 -2.8155
  138OSM   H14C15020   3.076   4.743   6.537  0.2664 -3.0140  1.3331
  138OSM    C1315021   3.117   4.573   6.774  0.3846 -0.8980 -0.8292
  138OSM   H13A15022   3.093   4.506   6.693 -0.1941 -1.5358 -0.1487
  138OSM   H13B15023   3.024   4.600   6.822  1.0013  0.1550 -0.1989
  138OSM   H13C15024   3.175   4.523   6.851  0.0629  0.6336  0.4620
  138OSM    C1215025   3.207   4.795   6.832 -0.2589  0.2688 -0.2620
  138OSM   H12A15026   3.258   4.733   6.904 -1.3417 -1.6877 -1.0914
  138OSM   H12B15027   3.113   4.827   6.874  0.4818  0.6794  1.1193
  138OSM    C1115028   3.282   4.924   6.811 -0.2006 -0.0608 -0.6334
  138OSM   H11A15029   3.380   4.899   6.765  2.0716  0.0215  3.6899
  138OSM   H11B15030   3.318   4.958   6.911 -1.1181 -2.6809  0.6755
  138OSM      P15031   3.265   5.156   6.688 -0.0153  0.1779  0.2508
  138OSM    O1315032   3.154   5.256   6.705 -0.8139 -1.0825  0.5268
  138OSM    O1415033   3.403   5.183   6.738  0.6471  0.0707 -0.1307
  138OSM    O1115034   3.287   5.136   6.535  0.1786  0.1723 -0.1470
  138OSM    O1215035   3.207   5.013   6.728 -0.2286  0.0845 -0.3929
  138OSM    C1S15036   3.194   5.063   6.458 -0.1433  0.4254 -0.1267
  138OSM    H1S15037   3.088   5.097   6.465  0.3264  1.9858 -0.3679
  138OSM    H1T15038   3.194   4.954   6.481  0.7554  0.3280 -0.5526
  138OSM     NF15039   3.150   5.001   6.225  0.1158 -0.4457 -0.7772
  138OSM    HNF15040   3.169   4.916   6.176 -1.6445 -0.9974 -0.5776
  138OSM    C2S15041   3.249   5.067   6.308  0.1865  0.3419 -0.8609
  138OSM    H2S15042   3.255   5.174   6.278 -2.6318  0.3192 -1.8040
  138OSM    C3S15043   3.396   4.999   6.290 -0.2789  0.1344  0.5936
  138OSM    H3S15044   3.391   4.889   6.303 -3.2302 -0.2477 -2.3902
  138OSM     O315045   3.495   5.039   6.384 -0.0651 -0.4156  0.1017
  138OSM    HO315046   3.443   5.088   6.448 -0.6972 -0.5754 -0.2759
  138OSM    C4S15047   3.438   5.021   6.143 -0.7592 -0.4445 -0.7084
  138OSM    H4S15048   3.413   4.931   6.085 -0.4919 -0.8442 -0.2079
  138OSM    C5S15049   3.504   5.125   6.091  0.2929  0.2135  0.0501
  138OSM    H5S15050   3.534   5.210   6.153  0.0637  0.6491 -0.4359
  138OSM    C6S15051   3.534   5.143   5.945 -0.0322 -0.6717  0.5653
  138OSM    H6S15052   3.485   5.235   5.908  1.6896 -0.4361 -1.2917
  138OSM    H6T15053   3.477   5.065   5.891 -2.3051  0.2336  1.5053
  138OSM    C7S15054   3.685   5.140   5.921 -0.2099  0.0872 -0.1830
  138OSM    H7S15055   3.731   5.050   5.967  0.3901 -0.2729 -1.4550
  138OSM    H7T15056   3.735   5.225   5.972  1.8178  0.4332 -2.5667
  138OSM    C8S15057   3.714   5.143   5.772 -0.4289 -0.1497 -0.4159
  138OSM    H8S15058   3.685   5.243   5.733 -3.3492  0.3058  2.4955
  138OSM    H8T15059   3.660   5.074   5.704  1.9050  0.5795 -3.1631
  138OSM    C9S15060   3.867   5.119   5.738  0.5845 -0.3478  0.2193
  138OSM    H9S15061   3.913   5.026   5.776 -1.3478 -0.0422  3.7266
  138OSM    H9T15062   3.916   5.200   5.797 -1.2884  0.4305  0.7661
  138OSM   C10S15063   3.893   5.141   5.586  0.1572 -0.0110 -0.8301
  138OSM   H10S15064   3.801   5.198   5.558 -1.9594 -1.8784  1.8445
  138OSM   H10T15065   3.884   5.045   5.531  0.6110 -1.4703  1.5041
  138OSM   C11S15066   4.018   5.216   5.558 -0.6101 -0.5597 -0.0988
  138OSM   H11S15067   4.109   5.178   5.610  0.9409  1.8267 -0.8844
  138OSM   H11T15068   4.009   5.324   5.582 -1.6236 -0.3251 -1.4404
  138OSM   C12S15069   4.053   5.215   5.405 -0.7023 -0.1658  0.0553
  138OSM   H12S15070   3.956   5.215   5.351 -0.6927 -0.7195  0.0292
  138OSM   H12T15071   4.119   5.135   5.366  0.2190  0.9798 -0.8062
  138OSM   C13S15072   4.131   5.344   5.357  0.3443  0.0762  0.0064
  138OSM   H13S15073   4.220   5.335   5.422 -1.5487 -1.1188  2.6213
  138OSM   H13T15074   4.086   5.438   5.397  1.7235 -0.0669  2.0602
  138OSM   C14S15075   4.163   5.345   5.207 -0.1449  0.2454 -0.3698
  138OSM   H14S15076   4.072   5.333   5.144 -0.4043 -1.1436  0.2274
  138OSM   H14T15077   4.224   5.254   5.185  0.2643  0.5133 -0.3457
  138OSM   C15S15078   4.241   5.471   5.169  0.3066  0.1333  0.3655
  138OSM   H15S15079   4.335   5.469   5.228  0.1604  1.0814  0.6453
  138OSM   H15T15080   4.201   5.568   5.205  4.2254  2.0501  0.1808
  138OSM   C16S15081   4.278   5.488   5.019 -0.3093 -0.2787 -0.7171
  138OSM   H16S15082   4.299   5.596   5.007  0.7959 -0.3387  0.5372
  138OSM   H16T15083   4.194   5.456   4.953  0.5793  3.1989 -3.8379
  138OSM   C17S15084   4.412   5.412   4.985 -0.2000 -0.2074 -0.0773
  138OSM   H17S15085   4.413   5.380   4.879  0.8939 -0.1856 -0.0842
  138OSM   H17T15086   4.408   5.309   5.027  3.0315 -2.4994 -4.5023
  138OSM   C18S15087   4.529   5.498   5.026  0.1288 -0.1186  0.3357
  138OSM   H18S15088   4.618   5.487   4.959 -0.9684  3.0570 -1.8845
  138OSM   H18T15089   4.551   5.471   5.131  0.6738  1.8989  0.7841
  138OSM   H18U15090   4.509   5.607   5.016 -1.7804 -0.5496 -1.0607
  138OSM    C1F15091   3.033   5.061   6.196 -0.3653  0.1237 -0.6094
  138OSM     OF15092   3.006   5.172   6.232  0.2822  0.1274  0.0360
  138OSM    C2F15093   2.943   4.982   6.113  0.1588 -0.3403  0.7999
  138OSM    H2F15094   2.845   4.961   6.161 -1.3554 -1.3388 -2.4075
  138OSM    H2G15095   2.993   4.885   6.092  0.3913  0.1989 -1.3457
  138OSM    C3F15096   2.909   5.041   5.974  0.3873  0.5183 -0.1703
  138OSM    H3F15097   2.877   5.147   5.982  2.4828  1.0587  3.5111
  138OSM    H3G15098   2.822   4.984   5.936  0.5500 -0.4010  0.8033
  138OSM    C4F15099   3.023   5.043   5.875 -0.4299  0.3376 -0.2352
  138OSM    H4F15100   2.984   5.045   5.771  0.1760  1.9956 -0.4526
  138OSM    H4G15101   3.084   4.950   5.885  1.4059  1.1672 -2.7934
  138OSM    C5F15102   3.113   5.170   5.880  0.4164 -1.0230  0.5659
  138OSM    H5F15103   3.181   5.177   5.967 -0.2936 -1.4761  1.1657
  138OSM    H5G15104   3.040   5.253   5.892  1.2220  0.1385 -1.8336
  138OSM    C6F15105   3.187   5.208   5.747 -0.6112 -0.0125 -0.5913
  138OSM    H6F15106   3.131   5.169   5.659  0.0361 -2.3560 -0.0385
  138OSM    H6G15107   3.286   5.158   5.744  1.4561  3.7109 -1.1951
  138OSM    C7F15108   3.218   5.352   5.730 -0.0303 -0.4015 -0.5976
  138OSM    H7F15109   3.267   5.386   5.824 -0.9774 -1.6688  0.3880
  138OSM    H7G15110   3.122   5.405   5.718  0.4633  0.8319  0.5766
  138OSM    C8F15111   3.290   5.399   5.603 -0.1396  0.1975  0.6992
  138OSM    H8F15112   3.258   5.505   5.602 -3.3707 -0.6824 -0.5566
  138OSM    H8G15113   3.238   5.359   5.514  1.7661  0.7317 -0.7267
  138OSM    C9F15114   3.439   5.368   5.605 -0.7994 -0.2829  0.3951
  138OSM    H9F15115   3.492   5.425   5.683  0.9000 -0.2746 -0.7189
  138OSM   C10F15116   3.509   5.291   5.522 -0.3913  0.2202 -0.4950
  138OSM   H10F15117   3.618   5.297   5.534 -0.3837  0.9092 -0.8171
  138OSM   C11F15118   3.457   5.222   5.403 -0.4711  0.2115  0.3798
  138OSM   H11F15119   3.358   5.259   5.370 -0.4671  1.0543  1.2699
  138OSM   H11G15120   3.472   5.112   5.408  1.2945  0.3572 -0.6090
  138OSM   C12F15121   3.557   5.256   5.289  0.0030 -0.4216  0.1068
  138OSM   H12F15122   3.654   5.214   5.320 -0.8843 -2.8892 -0.2560
  138OSM   H12G15123   3.563   5.367   5.278  0.5451 -0.6507 -2.8645
  138OSM   C13F15124   3.518   5.195   5.153 -0.0508  0.2657  0.1526
  138OSM   H13F15125   3.429   5.248   5.112  1.4915  1.8221 -1.3575
  138OSM   H13G15126   3.493   5.089   5.173 -2.0555  0.4743 -0.9999
  138OSM   C14F15127   3.628   5.203   5.040 -0.5849  0.1160 -0.2679
  138OSM   H14F15128   3.724   5.154   5.068  0.1919  2.5353  1.6921
  138OSM   H14G15129   3.661   5.309   5.033  0.2643  0.2442  3.4779
  138OSM   C15F15130   3.589   5.148   4.905  0.2076  0.1595 -0.5150
  138OSM   H15F15131   3.543   5.048   4.921  0.9771 -0.3723 -1.4935
  138OSM   H15G15132   3.678   5.132   4.840  0.9048 -2.5670  0.9436
  138OSM   C16F15133   3.497   5.247   4.835  0.7279 -0.2837  0.1470
  138OSM   H16F15134   3.541   5.349   4.842  1.4978 -0.7055  2.3940
  138OSM   H16G15135   3.400   5.245   4.888  0.4030 -1.8689 -0.4452
  138OSM   C17F15136   3.468   5.198   4.692  0.5180 -0.6160 -0.2357
  138OSM   H17F15137   3.565   5.195   4.637  0.8523 -0.3734  0.3254
  138OSM   H17G15138   3.401   5.274   4.648  0.4594 -1.7032 -2.1218
  138OSM   C18F15139   3.394   5.067   4.669  0.0344  0.1850  0.0473
  138OSM   H18F15140   3.429   4.983   4.733  0.6334  0.1356 -0.3383
  138OSM   H18G15141   3.408   5.045   4.561  0.6975  3.0474 -0.5202
  138OSM   H18H15142   3.287   5.073   4.699  0.3271  0.4532  1.0775
  139OSM      N15143   2.116   1.210   6.370  0.5821  0.2540  0.3878
  139OSM    C1515144   2.098   1.356   6.384 -0.1700  0.0871  0.2212
  139OSM   H15A15145   2.051   1.382   6.478  2.6226  1.4581  1.3859
  139OSM   H15B15146   2.049   1.399   6.299 -0.6270  1.1751  1.0051
  139OSM   H15C15147   2.193   1.407   6.397 -0.3299 -0.2465  3.5632
  139OSM    C1415148   2.205   1.171   6.490 -0.1996  0.0035 -0.0610
  139OSM   H14A15149   2.154   1.172   6.585  1.5461  1.4438  0.9367
  139OSM   H14B15150   2.295   1.230   6.484  1.2320 -2.2277 -2.1056
  139OSM   H14C15151   2.246   1.071   6.491  0.0351  0.0908 -0.7562
  139OSM    C1315152   1.987   1.129   6.381  0.3260  0.2382  0.1036
  139OSM   H13A15153   1.907   1.154   6.314 -1.0788 -1.5982  1.0025
  139OSM   H13B15154   1.943   1.135   6.479  0.3601  0.3741  0.1117
  139OSM   H13C15155   2.009   1.025   6.360  3.6775  1.2528 -2.2865
  139OSM    C1215156   2.192   1.178   6.238  0.9488 -0.3068 -0.3038
  139OSM   H12A15157   2.123   1.188   6.156 -1.0995 -1.5803  1.1240
  139OSM   H12B15158   2.209   1.072   6.222  0.2095 -0.4430 -0.2321
  139OSM    C1115159   2.329   1.252   6.218 -0.4105  0.0291  0.1821
  139OSM   H11A15160   2.319   1.363   6.219  1.1000  0.1770  0.1135
  139OSM   H11B15161   2.373   1.211   6.125  0.8472 -2.0415  1.6098
  139OSM      P15162   2.512   1.081   6.307 -0.4777 -0.3626  0.0660
  139OSM    O1315163   2.594   1.060   6.428 -0.0675 -0.3378  0.8510
  139OSM    O1415164   2.409   0.980   6.281  0.2585  0.2445  0.1575
  139OSM    O1115165   2.609   1.103   6.182 -0.0629  0.2315 -0.0951
  139OSM    O1215166   2.430   1.215   6.319  0.2424  0.6543 -0.2132
  139OSM    C1S15167   2.705   1.215   6.164 -0.2754  0.8074  0.0946
  139OSM    H1S15168   2.777   1.215   6.249 -1.2383 -1.6802  0.9922
  139OSM    H1T15169   2.651   1.311   6.151 -1.1247  0.4798  1.1182
  139OSM     NF15170   2.910   1.295   6.038 -0.0250 -0.5008  0.6223
  139OSM    HNF15171   2.908   1.367   5.968 -0.9163 -1.3225 -0.2210
  139OSM    C2S15172   2.805   1.195   6.044 -0.6079 -0.4536 -0.4587
  139OSM    H2S15173   2.854   1.095   6.052 -1.4596 -0.7446  1.6684
  139OSM    C3S15174   2.720   1.181   5.906  0.4002  0.0383 -0.7801
  139OSM    H3S15175   2.683   1.285   5.892 -0.6232  0.1239  1.8615
  139OSM     O315176   2.617   1.084   5.924 -0.5810  0.2570 -0.0181
  139OSM    HO315177   2.611   1.075   6.019 -2.2188  1.1940  0.0016
  139OSM    C4S15178   2.794   1.143   5.784 -0.3614  0.2882 -1.3021
  139OSM    H4S15179   2.810   1.034   5.773  0.0104  0.1782  0.1397
  139OSM    C5S15180   2.861   1.231   5.705  0.5556 -0.2607 -0.0036
  139OSM    H5S15181   2.845   1.337   5.726 -0.8714 -0.2206 -1.1593
  139OSM    C6S15182   2.954   1.201   5.592 -0.6213 -0.1186 -0.4378
  139OSM    H6S15183   3.006   1.104   5.606 -1.7715 -0.9971 -1.8666
  139OSM    H6T15184   3.025   1.285   5.585 -0.6040 -0.2480 -4.5830
  139OSM    C7S15185   2.863   1.181   5.467  0.1792 -0.0372 -0.3196
  139OSM    H7S15186   2.804   1.275   5.454 -0.4513 -0.4861 -0.7413
  139OSM    H7T15187   2.788   1.106   5.498 -0.3339  1.1691  1.5171
  139OSM    C8S15188   2.938   1.135   5.348 -0.3702  0.0398 -0.4266
  139OSM    H8S15189   3.009   1.057   5.382 -0.2412 -0.0385 -0.8701
  139OSM    H8T15190   2.999   1.220   5.309  0.1213 -0.0060  0.2246
  139OSM    C9S15191   2.841   1.069   5.243 -0.2982 -0.1640 -0.2816
  139OSM    H9S15192   2.766   1.142   5.206  0.9590  1.0714 -0.4888
  139OSM    H9T15193   2.769   0.995   5.284  0.8466 -1.7311 -1.0044
  139OSM   C10S15194   2.915   1.030   5.117 -0.1687 -0.1191  0.2969
  139OSM   H10S15195   2.987   0.947   5.137  2.2356  1.6018 -0.7391
  139OSM   H10T15196   2.971   1.114   5.071  1.3722  0.3369  2.8198
  139OSM   C11S15197   2.828   0.992   5.007  0.2068  0.3647 -0.1548
  139OSM   H11S15198   2.736   1.054   5.010  0.0247  0.2496 -2.0869
  139OSM   H11T15199   2.797   0.888   5.033 -0.2716  0.2905 -0.9881
  139OSM   C12S15200   2.899   1.003   4.869 -0.9190 -0.2236 -0.0439
  139OSM   H12S15201   2.992   0.944   4.886  0.1329  1.1231 -0.8482
  139OSM   H12T15202   2.930   1.108   4.848 -1.7613 -0.4029 -2.5018
  139OSM   C13S15203   2.810   0.963   4.753  0.2514  0.2705  0.2532
  139OSM   H13S15204   2.728   1.036   4.739  1.4938  1.5416 -0.7745
  139OSM   H13T15205   2.760   0.867   4.775 -0.9592  0.5745 -1.0570
  139OSM   C14S15206   2.903   0.958   4.621  0.6585 -0.0404 -1.0359
  139OSM   H14S15207   2.990   0.893   4.647 -0.5595 -1.6851 -0.9550
  139OSM   H14T15208   2.943   1.061   4.610 -0.2152  0.4622  0.2468
  139OSM   C15S15209   2.836   0.895   4.495 -0.1816 -0.4286  0.3407
  139OSM   H15S15210   2.888   0.909   4.398 -1.0889 -0.1103 -0.1157
  139OSM   H15T15211   2.736   0.944   4.491  0.3459  0.6549 -0.2620
  139OSM   C16S15212   2.816   0.745   4.506  0.3253 -0.3511  0.3698
  139OSM   H16S15213   2.764   0.732   4.603 -1.5761 -0.5501 -0.6099
  139OSM   H16T15214   2.908   0.685   4.521  1.0825  0.5795 -0.4712
  139OSM   C17S15215   2.738   0.679   4.388 -0.5667  0.2123 -0.0852
  139OSM   H17S15216   2.794   0.691   4.292 -1.2612 -0.7971 -0.6370
  139OSM   H17T15217   2.647   0.740   4.374 -1.0124 -0.8346 -2.2620
  139OSM   C18S15218   2.691   0.537   4.397 -0.0091 -0.0412 -0.5898
  139OSM   H18S15219   2.773   0.466   4.422  0.4989 -0.0265 -2.1134
  139OSM   H18T15220   2.634   0.500   4.310 -1.5474  0.3303  0.2344
  139OSM   H18U15221   2.624   0.536   4.485  1.0589 -2.0067  0.2577
  139OSM    C1F15222   3.012   1.296   6.124 -0.2585 -0.7216  0.3388
  139OSM     OF15223   3.026   1.204   6.206  0.1541  0.1837  0.5798
  139OSM    C2F15224   3.110   1.411   6.104 -0.7613  0.2515  0.2838
  139OSM    H2F15225   3.186   1.409   6.185 -0.1586 -1.1282 -0.2893
  139OSM    H2G15226   3.063   1.511   6.094  1.5994  1.3665 -0.4874
  139OSM    C3F15227   3.194   1.393   5.969  0.4457  0.5327  0.0189
  139OSM    H3F15228   3.250   1.488   5.959  1.0540  0.2275  0.4205
  139OSM    H3G15229   3.118   1.380   5.890 -0.8100 -0.8851  1.3958
  139OSM    C4F15230   3.294   1.278   5.970  0.0159 -0.5966 -0.1832
  139OSM    H4F15231   3.232   1.187   5.985 -1.7585  0.4737 -0.7430
  139OSM    H4G15232   3.367   1.300   6.050 -0.2004  1.0474 -0.4080
  139OSM    C5F15233   3.361   1.289   5.829 -0.4922  0.0909 -0.7405
  139OSM    H5F15234   3.470   1.269   5.833 -0.2055  0.8881 -2.9861
  139OSM    H5G15235   3.361   1.389   5.782  2.5651  0.2513 -0.5855
  139OSM    C6F15236   3.299   1.191   5.735  0.3201 -0.4106  0.3948
  139OSM    H6F15237   3.194   1.220   5.718  1.1403  1.9121 -1.2368
  139OSM    H6G15238   3.302   1.087   5.772 -0.2075 -1.3116 -1.8947
  139OSM    C7F15239   3.374   1.178   5.597  0.1441 -0.4538  0.1340
  139OSM    H7F15240   3.483   1.160   5.613  0.3192  1.5547  1.6714
  139OSM    H7G15241   3.377   1.280   5.552 -1.8156 -0.6643 -0.5269
  139OSM    C8F15242   3.311   1.079   5.503 -0.4123  0.2689  0.3186
  139OSM    H8F15243   3.215   1.121   5.465 -0.5159 -0.4775 -0.2621
  139OSM    H8G15244   3.277   0.993   5.564  3.5787 -1.1103  0.8884
  139OSM    C9F15245   3.409   1.031   5.395 -1.0026 -0.0165 -0.0057
  139OSM    H9F15246   3.481   0.954   5.427 -0.3837  1.2325  1.7471
  139OSM   C10F15247   3.431   1.076   5.276  0.2190 -0.0243 -0.5772
  139OSM   H10F15248   3.501   1.029   5.205 -0.9480 -0.5313 -1.4233
  139OSM   C11F15249   3.342   1.188   5.222  0.5826  0.7343 -0.3260
  139OSM   H11F15250   3.405   1.262   5.168  1.3692  1.4756  1.4932
  139OSM   H11G15251   3.290   1.242   5.305  1.3134 -0.9966  1.3353
  139OSM   C12F15252   3.231   1.140   5.132  0.0701 -0.1606 -0.1699
  139OSM   H12F15253   3.175   1.228   5.095 -1.0736 -0.1712  1.4170
  139OSM   H12G15254   3.172   1.072   5.197  3.3529 -0.4275  2.8983
  139OSM   C13F15255   3.273   1.055   5.016 -0.5613 -0.0285  0.4159
  139OSM   H13F15256   3.181   1.022   4.963  1.2528 -0.3382 -2.7353
  139OSM   H13G15257   3.330   0.962   5.035  0.0458  0.0511 -0.9117
  139OSM   C14F15258   3.359   1.136   4.918  0.3691  0.5511 -1.2425
  139OSM   H14F15259   3.451   1.147   4.979 -1.0361 -1.4774  1.4730
  139OSM   H14G15260   3.305   1.231   4.898  0.4111  0.6454 -0.8953
  139OSM   C15F15261   3.385   1.062   4.787 -0.1599 -0.3595  0.3797
  139OSM   H15F15262   3.395   0.952   4.805  1.6945 -0.0341  1.6650
  139OSM   H15G15263   3.483   1.104   4.756  0.3153 -1.5844  0.1627
  139OSM   C16F15264   3.299   1.108   4.671  0.0767  0.6314  0.2580
  139OSM   H16F15265   3.279   1.217   4.665 -2.1742  0.2321 -0.5867
  139OSM   H16G15266   3.202   1.054   4.670  1.2384 -1.6482  0.6798
  139OSM   C17F15267   3.368   1.064   4.540 -0.2502  0.3454 -0.0941
  139OSM   H17F15268   3.377   0.954   4.532  3.3540  0.1589  3.4420
  139OSM   H17G15269   3.474   1.094   4.550 -0.1422  0.4743 -1.4409
  139OSM   C18F15270   3.310   1.120   4.415 -1.5274 -0.3675  0.7210
  139OSM   H18F15271   3.358   1.079   4.323 -0.2059 -0.0173  1.2290
  139OSM   H18G15272   3.334   1.229   4.416  1.3298 -0.9174  0.6936
  139OSM   H18H15273   3.201   1.108   4.402 -1.3305  0.5052 -2.8727
  140OSM      N15274   5.072   0.490   6.983 -0.5632 -0.1599 -0.7020
  140OSM    C1515275   5.164   0.414   7.080 -0.2492 -0.2927 -0.1578
  140OSM   H15A15276   5.238   0.354   7.030  1.7900  0.9214  1.2519
  140OSM   H15B15277   5.103   0.365   7.154  0.9743 -1.1053  0.3427
  140OSM   H15C15278   5.220   0.492   7.129  1.0839 -0.2663 -1.6298
  140OSM    C1415279   4.971   0.554   7.067  0.2184  0.2662 -0.3159
  140OSM   H14A15280   5.007   0.609   7.153 -1.5008 -0.6003  1.0128
  140OSM   H14B15281   4.898   0.495   7.119 -0.2891  2.4553  1.6472
  140OSM   H14C15282   4.925   0.632   7.008  2.3606  1.3923 -0.6177
  140OSM    C1315283   5.153   0.599   6.921 -0.4605 -0.7257 -0.3028
  140OSM   H13A15284   5.236   0.560   6.864  1.3040  1.7264  0.4140
  140OSM   H13B15285   5.191   0.675   6.988 -1.5845  1.1090 -1.6509
  140OSM   H13C15286   5.090   0.648   6.848 -1.7688 -1.6838  0.1436
  140OSM    C1215287   5.009   0.394   6.882  0.0441 -0.8678 -0.7338
  140OSM   H12A15288   4.966   0.312   6.937 -1.0146  0.6634  0.8170
  140OSM   H12B15289   5.089   0.356   6.820  0.6134 -1.2439  0.1925
  140OSM    C1115290   4.897   0.457   6.794  0.2529  1.7390 -0.1637
  140OSM   H11A15291   4.817   0.499   6.858 -0.9159  2.6520 -2.1545
  140OSM   H11B15292   4.845   0.374   6.741  1.8570 -0.3158  1.2777
  140OSM      P15293   5.008   0.537   6.577  0.1480  0.0481  0.4042
  140OSM    O1315294   5.037   0.668   6.509 -0.2497  0.7564 -0.3913
  140OSM    O1415295   5.127   0.448   6.604 -0.0384  0.1428  0.0642
  140OSM    O1115296   4.905   0.463   6.486  0.3956 -0.0025 -0.8206
  140OSM    O1215297   4.935   0.561   6.715 -0.3943  0.3414  0.0840
  140OSM    C1S15298   4.823   0.537   6.400 -0.4647  0.1187 -0.7181
  140OSM    H1S15299   4.883   0.581   6.317  0.1801 -0.4588 -0.5723
  140OSM    H1T15300   4.752   0.607   6.448 -1.5199 -0.8336 -0.8298
  140OSM     NF15301   4.643   0.522   6.233  0.0635 -0.0697  0.4185
  140OSM    HNF15302   4.556   0.553   6.270  1.2689  1.2128  2.3575
  140OSM    C2S15303   4.727   0.440   6.315 -0.5163 -0.1149 -0.3946
  140OSM    H2S15304   4.793   0.373   6.255 -0.2911  1.9688 -2.6167
  140OSM    C3S15305   4.649   0.339   6.412 -0.2660 -0.6608  1.2686
  140OSM    H3S15306   4.599   0.398   6.492 -1.5503  1.6810 -1.1180
  140OSM     O315307   4.730   0.248   6.481 -0.4781  0.2213 -0.6183
  140OSM    HO315308   4.816   0.288   6.469 -1.4348  2.5979 -0.1417
  140OSM    C4S15309   4.546   0.271   6.332 -0.7480 -0.0160  0.1179
  140OSM    H4S15310   4.449   0.323   6.336 -0.4723  0.5418 -0.2666
  140OSM    C5S15311   4.572   0.163   6.250 -0.3263  0.3621 -0.8256
  140OSM    H5S15312   4.664   0.103   6.259 -0.9853 -0.5254  0.1482
  140OSM    C6S15313   4.459   0.095   6.171 -0.6675 -0.0298 -0.9709
  140OSM    H6S15314   4.426   0.011   6.236  2.9594 -0.6374  0.2730
  140OSM    H6T15315   4.490   0.055   6.072  0.2657  1.2599 -1.2341
  140OSM    C7S15316   4.341   0.184   6.134 -0.6607  0.5120  0.3953
  140OSM    H7S15317   4.296   0.246   6.214 -2.0674  2.1269 -1.5529
  140OSM    H7T15318   4.254   0.126   6.098 -0.7322  1.6611 -1.4090
  140OSM    C8S15319   4.376   0.282   6.023  0.2220 -0.7589 -0.1867
  140OSM    H8S15320   4.481   0.317   6.033  0.0496 -0.5246  0.9834
  140OSM    H8T15321   4.306   0.368   6.025  2.7654  1.4635  0.3698
  140OSM    C9S15322   4.365   0.214   5.886  0.1162 -0.6412  0.5740
  140OSM    H9S15323   4.271   0.155   5.891 -0.9648  0.9514  0.0037
  140OSM    H9T15324   4.446   0.140   5.869  1.6373  1.0938 -0.0351
  140OSM   C10S15325   4.374   0.315   5.768  0.0527 -0.1475  0.4142
  140OSM   H10S15326   4.462   0.382   5.781  0.9636 -0.5050 -2.8668
  140OSM   H10T15327   4.285   0.377   5.744  0.3964  0.7350  1.3588
  140OSM   C11S15328   4.387   0.243   5.627 -0.6412  0.8345 -0.0806
  140OSM   H11S15329   4.295   0.181   5.616  0.0730 -0.0680 -1.2684
  140OSM   H11T15330   4.469   0.168   5.630 -2.4680 -1.2393  1.0332
  140OSM   C12S15331   4.396   0.322   5.499 -0.1435  0.2608  0.3859
  140OSM   H12S15332   4.501   0.359   5.492 -0.3894  1.4240  1.9875
  140OSM   H12T15333   4.338   0.417   5.505  1.2783  1.2139 -0.1714
  140OSM   C13S15334   4.355   0.253   5.367  0.2266 -0.1000  0.5932
  140OSM   H13S15335   4.245   0.251   5.352  0.5728 -0.4559 -2.7467
  140OSM   H13T15336   4.395   0.150   5.378  1.2896  0.3225  0.8864
  140OSM   C14S15337   4.425   0.311   5.239  0.0721 -0.3040 -0.6933
  140OSM   H14S15338   4.520   0.364   5.258  0.1004  0.0031 -1.6603
  140OSM   H14T15339   4.369   0.384   5.177  0.8600  0.6594 -0.2989
  140OSM   C15S15340   4.456   0.202   5.142 -0.0291  0.9747 -0.4298
  140OSM   H15S15341   4.510   0.111   5.177  1.0899  1.3596 -1.1284
  140OSM   H15T15342   4.524   0.245   5.066  0.5016  1.0640  0.0906
  140OSM   C16S15343   4.330   0.150   5.066 -0.8459  0.0302  0.2546
  140OSM   H16S15344   4.263   0.232   5.030  0.5087  0.3164 -1.8362
  140OSM   H16T15345   4.280   0.073   5.128 -2.3491 -0.8449 -1.9065
  140OSM   C17S15346   4.373   0.085   4.931 -0.4406  0.3521  0.6272
  140OSM   H17S15347   4.281   0.033   4.898  0.5349 -1.6786  0.9691
  140OSM   H17T15348   4.449   0.006   4.950 -0.8202  0.0713  0.9770
  140OSM   C18S15349   4.426   0.174   4.814  0.2226  0.8670 -0.4611
  140OSM   H18S15350   4.533   0.198   4.831  0.3263 -0.0205  0.2020
  140OSM   H18T15351   4.370   0.270   4.810 -1.5673  0.0578  2.4577
  140OSM   H18U15352   4.408   0.115   4.721 -1.7201 -1.5660  1.3113
  140OSM    C1F15353   4.695   0.572   6.118  0.0984  0.8086 -0.4653
  140OSM     OF15354   4.812   0.559   6.090  0.0254  0.7825  0.0061
  140OSM    C2F15355   4.609   0.658   6.041  0.4311  0.2415  0.6835
  140OSM    H2F15356   4.613   0.766   6.066 -1.2638  0.6345 -0.5674
  140OSM    H2G15357   4.505   0.620   6.049  0.9621 -1.0728  1.8916
  140OSM    C3F15358   4.657   0.665   5.890 -0.0142  0.0125 -0.0229
  140OSM    H3F15359   4.664   0.562   5.849  0.8448  0.0081  0.1086
  140OSM    H3G15360   4.760   0.706   5.877  0.2579  0.2445  2.4027
  140OSM    C4F15361   4.552   0.732   5.800 -0.0402  0.1845 -0.0058
  140OSM    H4F15362   4.593   0.710   5.698  1.5264 -2.1432  1.0414
  140OSM    H4G15363   4.540   0.842   5.807 -0.0756  0.1579  0.3516
  140OSM    C5F15364   4.404   0.682   5.814  0.0177  0.4371 -0.4753
  140OSM    H5F15365   4.349   0.743   5.889 -3.0312 -3.1459  0.5441
  140OSM    H5G15366   4.409   0.575   5.844  0.5131  0.5562 -0.1131
  140OSM    C6F15367   4.327   0.709   5.687  0.4867 -0.7092 -0.2102
  140OSM    H6F15368   4.350   0.653   5.594  0.8422 -0.9785  0.0352
  140OSM    H6G15369   4.333   0.817   5.664  4.7311 -1.2604 -2.6527
  140OSM    C7F15370   4.183   0.671   5.723 -0.5310 -0.3725 -0.2730
  140OSM    H7F15371   4.144   0.741   5.800  0.0613 -2.7650  2.3649
  140OSM    H7G15372   4.188   0.570   5.769 -0.1012  1.2861  3.7497
  140OSM    C8F15373   4.085   0.669   5.597 -0.1012 -0.2707  0.1652
  140OSM    H8F15374   4.115   0.765   5.549  0.4388 -0.8189 -0.6276
  140OSM    H8G15375   3.983   0.674   5.641  0.0768 -0.0838  0.5666
  140OSM    C9F15376   4.104   0.555   5.498 -0.2334  0.0475  0.1328
  140OSM    H9F15377   4.095   0.455   5.543  1.3745 -0.6585 -1.0385
  140OSM   C10F15378   4.131   0.557   5.363 -0.6867  0.2663 -0.0225
  140OSM   H10F15379   4.117   0.468   5.298  0.1320  0.5472 -0.6019
  140OSM   C11F15380   4.161   0.685   5.282 -0.1260 -0.1394  0.2410
  140OSM   H11F15381   4.234   0.746   5.338 -0.2908 -1.3283  1.8507
  140OSM   H11G15382   4.070   0.745   5.261 -1.5343 -1.7604  1.3198
  140OSM   C12F15383   4.229   0.641   5.153 -0.1596 -0.1007 -0.0495
  140OSM   H12F15384   4.303   0.564   5.181  1.0036  0.4355 -1.5029
  140OSM   H12G15385   4.278   0.732   5.113 -1.1634  1.6220  2.3572
  140OSM   C13F15386   4.130   0.594   5.038  0.2651  0.7216 -0.3334
  140OSM   H13F15387   4.062   0.675   5.004  0.2878  0.3678 -1.2543
  140OSM   H13G15388   4.074   0.509   5.081  2.9876 -0.5757  0.8718
  140OSM   C14F15389   4.194   0.527   4.918 -0.4121  0.3113 -0.1838
  140OSM   H14F15390   4.272   0.462   4.963  0.9549  1.5736 -0.6594
  140OSM   H14G15391   4.250   0.598   4.855 -0.5245 -0.3774 -1.0859
  140OSM   C15F15392   4.099   0.434   4.837  0.1046 -0.7850  0.3046
  140OSM   H15F15393   3.992   0.461   4.851  0.5165  1.2176 -0.0831
  140OSM   H15G15394   4.090   0.330   4.875 -0.3945 -0.8643 -0.0205
  140OSM   C16F15395   4.118   0.425   4.685  0.5205 -0.6914  0.6610
  140OSM   H16F15396   4.076   0.328   4.652  0.0135  0.3483 -1.9621
  140OSM   H16G15397   4.226   0.421   4.661  0.5532  0.5196  0.5199
  140OSM   C17F15398   4.051   0.543   4.612  0.1916 -0.2295 -0.3050
  140OSM   H17F15399   4.099   0.630   4.661  1.1183 -1.8564  1.8597
  140OSM   H17G15400   3.945   0.531   4.644  0.4392  1.9426  1.5577
  140OSM   C18F15401   4.061   0.539   4.467 -0.2397  0.0981 -0.1877
  140OSM   H18F15402   4.152   0.483   4.435 -0.9305 -0.1098 -1.8470
  140OSM   H18G15403   4.047   0.643   4.432 -0.3651  0.3566  0.5997
  140OSM   H18H15404   3.978   0.476   4.430 -1.1073  0.6690  0.7301
  141OSM      N15405   4.234   0.106   6.641 -0.7946  0.3527 -0.1089
  141OSM    C1515406   4.260   0.089   6.491  0.6448  0.8313 -0.1139
  141OSM   H15A15407   4.188   0.016   6.458  1.1083  0.1257  0.4069
  141OSM   H15B15408   4.357   0.045   6.474 -0.9489 -2.1690 -2.2299
  141OSM   H15C15409   4.242   0.187   6.448 -0.1326 -0.0482 -1.8426
  141OSM    C1415410   4.248  -0.030   6.708  0.4580 -0.1725  0.3482
  141OSM   H14A15411   4.352  -0.057   6.704  0.6301  0.5994 -1.3605
  141OSM   H14B15412   4.194  -0.108   6.656  0.4532  1.1201 -1.7051
  141OSM   H14C15413   4.216  -0.021   6.811  0.4278 -1.7773  0.5044
  141OSM    C1315414   4.347   0.197   6.687  0.2499  0.5500  0.2580
  141OSM   H13A15415   4.442   0.151   6.667  0.1695  0.4385  0.1319
  141OSM   H13B15416   4.346   0.217   6.794  1.2474  3.6875 -0.1934
  141OSM   H13C15417   4.343   0.296   6.644 -0.7934  0.1902 -0.5189
  141OSM    C1215418   4.099   0.160   6.666  0.5810  0.3501 -0.2297
  141OSM   H12A15419   4.077   0.259   6.629 -1.4260 -0.3127 -0.9298
  141OSM   H12B15420   4.089   0.158   6.774  1.6463 -3.2394 -0.0717
  141OSM    C1115421   3.971   0.086   6.617 -0.6369 -0.1370 -0.0614
  141OSM   H11A15422   3.986   0.073   6.508 -1.6990  1.2803 -0.4055
  141OSM   H11B15423   3.881   0.150   6.618 -2.2183 -2.2368 -0.9988
  141OSM      P15424   3.913  -0.175   6.598  0.0976 -0.1515 -0.0294
  141OSM    O1315425   3.940  -0.273   6.698 -0.5740 -0.0907 -0.1164
  141OSM    O1415426   3.777  -0.162   6.543  0.1202  0.0664 -0.0372
  141OSM    O1115427   4.020  -0.183   6.477  0.4873 -0.5459  0.9090
  141OSM    O1215428   3.947  -0.042   6.674 -0.3459  0.2172 -0.0985
  141OSM    C1S15429   4.023  -0.300   6.395 -0.4354 -0.9662  0.3954
  141OSM    H1S15430   3.951  -0.380   6.422 -0.7251 -0.7339  0.3095
  141OSM    H1T15431   4.125  -0.346   6.401  0.0083  0.0413  0.7451
  141OSM     NF15432   3.966  -0.411   6.176 -0.5923  0.0275  0.0757
  141OSM    HNF15433   4.039  -0.457   6.128 -0.0825 -2.2596  2.7956
  141OSM    C2S15434   3.985  -0.277   6.242 -0.7198  0.6874  0.3495
  141OSM    H2S15435   3.889  -0.223   6.230 -0.7474  0.4894 -0.3667
  141OSM    C3S15436   4.096  -0.182   6.175  0.5921  0.1467 -1.0424
  141OSM    H3S15437   4.185  -0.238   6.208  0.3404 -0.3851 -1.2576
  141OSM     O315438   4.103  -0.049   6.230 -0.7369 -0.4392  0.4576
  141OSM    HO315439   4.044  -0.060   6.306 -0.8200 -0.5699  0.3740
  141OSM    C4S15440   4.111  -0.189   6.021  0.4754  0.3112 -0.3008
  141OSM    H4S15441   4.184  -0.262   5.982  2.4219  3.0092 -2.0355
  141OSM    C5S15442   4.057  -0.095   5.936 -0.1754  0.7094 -0.1436
  141OSM    H5S15443   4.009   0.001   5.958  0.5972  1.7541 -2.6252
  141OSM    C6S15444   4.088  -0.088   5.789  0.7818 -0.2724 -0.4921
  141OSM    H6S15445   4.141   0.009   5.770  1.4253 -0.4855  0.1456
  141OSM    H6T15446   3.995  -0.089   5.729  0.0003 -0.1845  0.6869
  141OSM    C7S15447   4.176  -0.203   5.739 -0.3470  0.0998  0.4089
  141OSM    H7S15448   4.112  -0.293   5.753 -0.1994  0.0367  0.6869
  141OSM    H7T15449   4.271  -0.204   5.797 -1.2571 -0.5515  1.9506
  141OSM    C8S15450   4.216  -0.199   5.591 -0.6860 -0.0782 -0.1823
  141OSM    H8S15451   4.294  -0.277   5.578 -1.5220 -1.5208  2.7835
  141OSM    H8T15452   4.261  -0.099   5.570 -1.9690  0.3718 -0.9175
  141OSM    C9S15453   4.100  -0.214   5.486 -0.6263  0.3383 -0.8074
  141OSM    H9S15454   4.036  -0.123   5.489 -0.6736  0.2751  0.7488
  141OSM    H9T15455   4.036  -0.300   5.518 -0.0931 -0.1288 -0.9792
  141OSM   C10S15456   4.144  -0.249   5.345  1.2154 -0.0020  0.6618
  141OSM   H10S15457   4.186  -0.351   5.359  2.9963  0.8044  1.4948
  141OSM   H10T15458   4.221  -0.179   5.305 -0.4043  0.7178 -1.4200
  141OSM   C11S15459   4.030  -0.245   5.236  0.1729  0.2856  0.5023
  141OSM   H11S15460   3.968  -0.153   5.241 -1.3000 -0.5447 -1.2420
  141OSM   H11T15461   3.962  -0.328   5.265  0.8279  0.1065  1.6026
  141OSM   C12S15462   4.075  -0.274   5.094 -0.7730 -0.6109  0.5133
  141OSM   H12S15463   4.129  -0.371   5.091  0.7261  0.1742 -2.7388
  141OSM   H12T15464   4.151  -0.199   5.062 -1.1746 -0.9104 -1.2608
  141OSM   C13S15465   3.970  -0.286   4.986  0.3814 -0.2040 -0.5495
  141OSM   H13S15466   3.907  -0.195   5.000 -0.7183 -1.2361  1.5471
  141OSM   H13T15467   3.900  -0.371   4.995  0.7992 -0.5295 -0.3780
  141OSM   C14S15468   4.028  -0.294   4.846 -0.3789  0.1317  0.0372
  141OSM   H14S15469   4.084  -0.390   4.842 -1.6442 -0.7685  2.1477
  141OSM   H14T15470   4.096  -0.206   4.850 -0.9906  0.7310 -1.7827
  141OSM   C15S15471   3.937  -0.296   4.731  1.6052  0.8193 -0.3749
  141OSM   H15S15472   3.841  -0.248   4.760  1.0474  0.0965 -0.9872
  141OSM   H15T15473   3.894  -0.397   4.715 -0.9089  1.9098 -1.0578
  141OSM   C16S15474   3.992  -0.259   4.595 -0.1733 -0.1879  0.1247
  141OSM   H16S15475   4.071  -0.329   4.561  1.6954  1.5189  0.7262
  141OSM   H16T15476   4.041  -0.160   4.608 -0.0307 -0.3422  0.8142
  141OSM   C17S15477   3.872  -0.248   4.499 -0.0796 -0.2147 -0.2440
  141OSM   H17S15478   3.787  -0.215   4.561 -0.3599 -2.8127  0.8814
  141OSM   H17T15479   3.854  -0.356   4.475 -3.1542 -0.1076  1.1099
  141OSM   C18S15480   3.903  -0.163   4.380 -0.1685  0.1817  0.0588
  141OSM   H18S15481   3.920  -0.060   4.418  1.1337 -0.3503  1.0163
  141OSM   H18T15482   3.825  -0.169   4.301  0.5964 -2.1371 -0.6033
  141OSM   H18U15483   3.994  -0.209   4.337 -0.1912  0.3044 -0.1222
  141OSM    C1F15484   3.851  -0.481   6.183 -0.4449 -0.0792 -0.0379
  141OSM     OF15485   3.770  -0.452   6.273  0.1303 -0.0528 -0.6612
  141OSM    C2F15486   3.839  -0.599   6.091  0.1660 -0.4142 -0.3390
  141OSM    H2F15487   3.795  -0.687   6.142 -0.2599  0.1631  0.3104
  141OSM    H2G15488   3.945  -0.621   6.067  0.5528 -0.8452  1.6230
  141OSM    C3F15489   3.756  -0.570   5.961  0.2920 -0.0933 -0.3212
  141OSM    H3F15490   3.796  -0.482   5.907  2.1517  0.1094  1.2582
  141OSM    H3G15491   3.647  -0.553   5.978  0.5236  1.2728 -0.0918
  141OSM    C4F15492   3.776  -0.698   5.874 -0.2117  0.3669 -0.4294
  141OSM    H4F15493   3.732  -0.787   5.924  1.2378  0.1201  0.4773
  141OSM    H4G15494   3.883  -0.723   5.860 -0.6056 -0.8591 -1.4043
  141OSM    C5F15495   3.703  -0.680   5.733 -0.9232  0.0138  0.3097
  141OSM    H5F15496   3.730  -0.586   5.679 -1.9723  0.6745  0.8955
  141OSM    H5G15497   3.593  -0.687   5.746 -0.5996 -0.3201  3.6410
  141OSM    C6F15498   3.754  -0.783   5.637  0.8688  0.1323 -0.0378
  141OSM    H6F15499   3.764  -0.886   5.678  2.0038  0.9522  1.8799
  141OSM    H6G15500   3.860  -0.764   5.607  1.3100 -2.3172 -0.2540
  141OSM    C7F15501   3.662  -0.794   5.507 -1.1178 -0.1269 -0.0756
  141OSM    H7F15502   3.654  -0.688   5.474 -0.9005  0.1476  0.7357
  141OSM    H7G15503   3.566  -0.844   5.533 -0.6818 -0.4388  0.9895
  141OSM    C8F15504   3.735  -0.861   5.387  0.4499  0.7529 -0.1657
  141OSM    H8F15505   3.734  -0.971   5.405 -3.6884  0.2877 -2.0856
  141OSM    H8G15506   3.838  -0.821   5.391 -0.2737  2.5903  1.3688
  141OSM    C9F15507   3.681  -0.840   5.250 -0.3643  0.0278 -0.1934
  141OSM    H9F15508   3.614  -0.924   5.223 -0.7562 -0.2613  1.5668
  141OSM   C10F15509   3.739  -0.762   5.161  0.0094  1.0016  0.1955
  141OSM   H10F15510   3.701  -0.769   5.058 -0.9273  2.9099  0.3624
  141OSM   C11F15511   3.841  -0.655   5.182 -0.3022 -0.6643  0.1172
  141OSM   H11F15512   3.858  -0.642   5.291 -1.0217  0.7156  0.0879
  141OSM   H11G15513   3.808  -0.558   5.137  1.8984  0.2030  0.2333
  141OSM   C12F15514   3.979  -0.692   5.113  0.2996 -0.8998 -0.1159
  141OSM   H12F15515   4.006  -0.797   5.139 -0.5344 -0.4989  2.6745
  141OSM   H12G15516   4.058  -0.633   5.165 -0.2941 -0.5785  0.4400
  141OSM   C13F15517   3.978  -0.668   4.954  0.4866 -0.2580 -0.4864
  141OSM   H13F15518   3.917  -0.577   4.936 -1.7739 -1.4633  0.6061
  141OSM   H13G15519   3.912  -0.746   4.910  0.2303  0.0359 -0.6266
  141OSM   C14F15520   4.117  -0.666   4.889 -0.3609  0.7119 -0.0593
  141OSM   H14F15521   4.163  -0.765   4.908 -1.9676 -0.1283 -0.3002
  141OSM   H14G15522   4.180  -0.585   4.931  2.4004 -1.8308  1.0669
  141OSM   C15F15523   4.100  -0.660   4.737 -0.4115  0.2890  0.4430
  141OSM   H15F15524   4.079  -0.558   4.696 -0.5707  0.6201  1.3241
  141OSM   H15G15525   4.016  -0.720   4.698  0.1596 -0.4703  0.3598
  141OSM   C16F15526   4.236  -0.701   4.674 -0.5519 -0.2364  0.2055
  141OSM   H16F15527   4.257  -0.808   4.696 -3.3546 -0.8770  0.0610
  141OSM   H16G15528   4.319  -0.641   4.718 -1.2376  1.2348 -0.4342
  141OSM   C17F15529   4.230  -0.680   4.522  0.0256  0.6380 -1.2076
  141OSM   H17F15530   4.227  -0.571   4.502 -0.1661  1.5719  3.0512
  141OSM   H17G15531   4.133  -0.720   4.485  0.2031  2.2891 -3.7161
  141OSM   C18F15532   4.343  -0.754   4.444  0.4902  0.3932 -0.4908
  141OSM   H18F15533   4.444  -0.721   4.476 -0.2002  2.3930 -0.2136
  141OSM   H18G15534   4.339  -0.708   4.342  2.0386 -1.1037 -1.2766
  141OSM   H18H15535   4.330  -0.864   4.448  0.2390  0.4437  0.1042
  142OSM      N15536   4.832   6.356   6.462  0.0216 -0.2483 -0.8017
  142OSM    C1515537   4.938   6.296   6.549  0.2517  0.1626 -0.0003
  142OSM   H15A15538   4.919   6.294   6.655  2.3850  2.7725  0.5379
  142OSM   H15B15539   5.033   6.336   6.516 -0.0741 -0.4347 -1.7841
  142OSM   H15C15540   4.953   6.191   6.527  2.2851  0.2552  0.7553
  142OSM    C1415541   4.884   6.340   6.320  0.1123  0.4822 -0.4458
  142OSM   H14A15542   4.811   6.359   6.243 -0.3602 -1.5749 -0.5726
  142OSM   H14B15543   4.916   6.237   6.315  1.3774  0.5549  3.2728
  142OSM   H14C15544   4.968   6.405   6.299  1.3256 -1.2132 -1.0615
  142OSM    C1315545   4.701   6.288   6.485  0.8739 -0.3162  0.0333
  142OSM   H13A15546   4.685   6.257   6.587  0.5211  2.8420  1.0642
  142OSM   H13B15547   4.699   6.198   6.426  0.6440 -0.2441 -0.0717
  142OSM   H13C15548   4.621   6.353   6.452  0.1065 -0.0003  2.3781
  142OSM    C1215549   4.816   6.500   6.499  0.3512 -0.0650 -0.2070
  142OSM   H12A15550   4.906   6.552   6.471 -0.2932 -0.0464 -2.4494
  142OSM   H12B15551   4.796   6.520   6.603 -1.7008  0.5091 -0.6582
  142OSM    C1115552   4.709   6.587   6.432 -0.2286 -0.0053  0.6452
  142OSM   H11A15553   4.706   6.564   6.323  2.2223 -0.2494  0.5610
  142OSM   H11B15554   4.740   6.693   6.446  3.8412 -0.7347 -1.1479
  142OSM      P15555   4.465   6.631   6.475 -0.1300 -0.0410  0.0440
  142OSM    O1315556   4.341   6.567   6.524  0.0461  0.2920  0.1769
  142OSM    O1415557   4.489   6.762   6.535  0.1869 -0.0549  0.4907
  142OSM    O1115558   4.462   6.654   6.309  0.0616 -0.4066 -0.2721
  142OSM    O1215559   4.595   6.540   6.499 -0.3143 -0.8362  0.2281
  142OSM    C1S15560   4.437   6.529   6.236  0.4097 -0.3006 -0.3140
  142OSM    H1S15561   4.336   6.488   6.259  0.2815  0.8436  1.3222
  142OSM    H1T15562   4.498   6.446   6.278 -2.2589 -1.7206  0.9673
  142OSM     NF15563   4.439   6.426   6.012  0.3052 -0.5256  0.0134
  142OSM    HNF15564   4.517   6.365   5.995  0.7223  0.0559 -0.2194
  142OSM    C2S15565   4.471   6.549   6.083 -0.6520  0.4122  0.0532
  142OSM    H2S15566   4.395   6.620   6.044 -2.6199 -1.4610  0.3503
  142OSM    C3S15567   4.613   6.605   6.063 -0.3192  0.1565 -0.1005
  142OSM    H3S15568   4.677   6.523   6.102 -3.1321 -3.7474 -2.7785
  142OSM     O315569   4.644   6.727   6.139 -0.4078 -0.2927 -0.5354
  142OSM    HO315570   4.564   6.734   6.192 -1.0982 -2.6538 -1.1424
  142OSM    C4S15571   4.648   6.619   5.910 -0.4504  0.2749  0.4595
  142OSM    H4S15572   4.665   6.527   5.852 -0.9579  0.9623 -0.8158
  142OSM    C5S15573   4.669   6.733   5.839  0.5872  0.5115  0.4576
  142OSM    H5S15574   4.667   6.828   5.894 -2.4488  0.7635  0.1200
  142OSM    C6S15575   4.692   6.735   5.690 -0.7009 -0.9687  0.4454
  142OSM    H6S15576   4.738   6.641   5.651  0.4150 -0.7186  1.1068
  142OSM    H6T15577   4.766   6.814   5.666 -1.0227 -0.5057  0.9516
  142OSM    C7S15578   4.577   6.757   5.592  1.0863  0.0787  0.2474
  142OSM    H7S15579   4.530   6.857   5.603  0.0384 -0.2455 -1.0607
  142OSM    H7T15580   4.499   6.679   5.601  2.1414 -1.0254  0.1455
  142OSM    C8S15581   4.628   6.752   5.446 -0.0115  0.3215 -0.2668
  142OSM    H8S15582   4.698   6.666   5.439 -0.7451 -0.2752 -0.2830
  142OSM    H8T15583   4.687   6.842   5.417  2.8341 -1.8882 -1.8494
  142OSM    C9S15584   4.513   6.739   5.348 -0.5506  0.3242 -0.0985
  142OSM    H9S15585   4.431   6.814   5.347 -0.2405  0.7257  1.8355
  142OSM    H9T15586   4.460   6.644   5.372  0.2433  0.0763  0.7319
  142OSM   C10S15587   4.560   6.711   5.202 -0.3370 -0.0329 -0.1105
  142OSM   H10S15588   4.655   6.653   5.195 -1.5304 -1.9674 -1.2766
  142OSM   H10T15589   4.586   6.805   5.149  1.5224  0.4178  1.4845
  142OSM   C11S15590   4.459   6.630   5.120 -0.1913 -0.0358  0.2817
  142OSM   H11S15591   4.360   6.678   5.129  0.2970  1.1759 -0.5642
  142OSM   H11T15592   4.456   6.525   5.158  0.6571  0.0162  0.5304
  142OSM   C12S15593   4.496   6.616   4.973 -0.3947 -1.1717  0.3741
  142OSM   H12S15594   4.590   6.558   4.962  0.9376  1.1106 -1.0959
  142OSM   H12T15595   4.522   6.720   4.941 -3.9969  0.5085  2.2984
  142OSM   C13S15596   4.387   6.555   4.883  0.0276  0.2670  0.2296
  142OSM   H13S15597   4.297   6.620   4.888 -0.0939  0.0608  0.7448
  142OSM   H13T15598   4.363   6.452   4.916 -1.5065 -0.5250 -3.0713
  142OSM   C14S15599   4.445   6.538   4.738  0.2753 -0.1764 -0.0324
  142OSM   H14S15600   4.372   6.471   4.689  0.9185 -0.2747 -0.8823
  142OSM   H14T15601   4.539   6.482   4.756 -0.1396 -1.6208 -2.0689
  142OSM   C15S15602   4.466   6.671   4.663 -0.4044  0.0204  0.5673
  142OSM   H15S15603   4.532   6.637   4.581  0.6132  0.4658  1.1788
  142OSM   H15T15604   4.524   6.741   4.727 -0.8297  1.3353 -0.4612
  142OSM   C16S15605   4.341   6.730   4.596 -0.2328 -0.4108 -0.1137
  142OSM   H16S15606   4.278   6.764   4.681 -1.4034 -0.5112 -0.9047
  142OSM   H16T15607   4.291   6.649   4.539  0.8789 -0.1315 -1.5593
  142OSM   C17S15608   4.378   6.839   4.491 -0.3937  0.5948  0.1852
  142OSM   H17S15609   4.438   6.788   4.413 -0.5423  0.6223  0.0529
  142OSM   H17T15610   4.444   6.915   4.539  0.8798 -0.9591  0.9668
  142OSM   C18S15611   4.251   6.910   4.432  0.5547 -0.4081  0.0599
  142OSM   H18S15612   4.279   6.962   4.339  1.6601 -1.2016 -0.0735
  142OSM   H18T15613   4.207   6.986   4.500  0.5754  0.1625 -0.5564
  142OSM   H18U15614   4.176   6.831   4.409 -0.0289  0.1955 -0.1224
  142OSM    C1F15615   4.321   6.368   5.992 -0.5189 -0.3679 -0.6314
  142OSM     OF15616   4.219   6.394   6.060  0.2452 -0.2603  0.4651
  142OSM    C2F15617   4.313   6.253   5.902  0.3673 -0.3849 -0.0739
  142OSM    H2F15618   4.273   6.168   5.960 -1.5229 -0.5513 -1.4926
  142OSM    H2G15619   4.417   6.242   5.864  0.8801  1.2883  0.7266
  142OSM    C3F15620   4.220   6.287   5.782 -0.1919  0.5682 -0.3028
  142OSM    H3F15621   4.264   6.358   5.708 -2.1558  0.2402 -1.8761
  142OSM    H3G15622   4.128   6.324   5.830 -1.2615 -0.5895 -1.3767
  142OSM    C4F15623   4.192   6.164   5.695  0.9373 -1.0686 -0.1191
  142OSM    H4F15624   4.114   6.099   5.740  0.9667  0.6625  2.6870
  142OSM    H4G15625   4.281   6.099   5.690 -0.2244 -2.6256 -1.2306
  142OSM    C5F15626   4.167   6.204   5.545  0.1126  0.3914 -0.1296
  142OSM    H5F15627   4.260   6.251   5.505  1.2238 -0.6981  1.0773
  142OSM    H5G15628   4.077   6.267   5.528  0.2098 -0.0351 -2.7659
  142OSM    C6F15629   4.163   6.083   5.438  0.5676  0.1042  0.1534
  142OSM    H6F15630   4.119   6.114   5.341  1.2921 -2.6484 -1.1500
  142OSM    H6G15631   4.100   6.005   5.486 -1.8327  1.7257 -0.1852
  142OSM    C7F15632   4.303   6.035   5.402 -0.1453 -0.8569  0.4780
  142OSM    H7F15633   4.373   6.023   5.488 -0.7619 -3.9649  0.6538
  142OSM    H7G15634   4.349   6.101   5.325 -1.1227 -0.2358  0.4110
  142OSM    C8F15635   4.285   5.896   5.327 -0.1393 -0.3962  0.4136
  142OSM    H8F15636   4.218   5.825   5.380 -3.8649 -0.8051 -4.2287
  142OSM    H8G15637   4.379   5.840   5.308 -0.1970 -0.6997  1.0103
  142OSM    C9F15638   4.217   5.901   5.192  0.3071  0.2265 -0.4207
  142OSM    H9F15639   4.109   5.922   5.191  0.1839  0.0828  2.3241
  142OSM   C10F15640   4.275   5.911   5.068 -0.5035  0.0597  0.0717
  142OSM   H10F15641   4.207   5.931   4.983  0.2469 -0.4516 -0.6693
  142OSM   C11F15642   4.427   5.917   5.031 -1.1311  0.4841  0.3467
  142OSM   H11F15643   4.455   5.822   4.981 -0.5896 -0.7375  2.8333
  142OSM   H11G15644   4.496   5.926   5.117 -0.1531  0.1629 -0.3970
  142OSM   C12F15645   4.461   6.038   4.946  0.2781 -0.5210 -0.0485
  142OSM   H12F15646   4.398   6.069   4.860  3.0103  1.0659 -1.6015
  142OSM   H12G15647   4.551   6.002   4.893  0.6297 -1.7248  1.2857
  142OSM   C13F15648   4.483   6.169   5.032 -0.1252 -0.8417  0.0448
  142OSM   H13F15649   4.385   6.198   5.077 -0.1140 -1.2023  0.3053
  142OSM   H13G15650   4.520   6.255   4.971  0.0581 -0.3868  0.7919
  142OSM   C14F15651   4.566   6.164   5.152 -0.1770  0.5524  0.3564
  142OSM   H14F15652   4.666   6.126   5.123 -0.3373  0.5541 -0.1989
  142OSM   H14G15653   4.528   6.087   5.222 -0.5243 -1.4523 -1.9216
  142OSM   C15F15654   4.558   6.296   5.239 -0.0524  1.0646 -0.1482
  142OSM   H15F15655   4.458   6.343   5.241  0.1947  1.7641 -1.8756
  142OSM   H15G15656   4.610   6.376   5.181  1.3504 -0.2584 -0.7897
  142OSM   C16F15657   4.603   6.265   5.385  0.3456 -0.5968  0.1546
  142OSM   H16F15658   4.714   6.266   5.382  0.3582  0.8004  0.3166
  142OSM   H16G15659   4.571   6.163   5.415  2.7236 -1.9635 -1.6331
  142OSM   C17F15660   4.555   6.365   5.483  0.4623  0.2542 -0.2395
  142OSM   H17F15661   4.447   6.386   5.465  0.2463  1.3131  1.9079
  142OSM   H17G15662   4.611   6.459   5.465  0.4896  0.6099  1.4852
  142OSM   C18F15663   4.572   6.323   5.630 -0.1175 -0.1846 -0.8807
  142OSM   H18F15664   4.523   6.395   5.699  0.7926  0.3065 -0.7300
  142OSM   H18G15665   4.677   6.304   5.661 -0.0046 -0.7982 -1.5948
  142OSM   H18H15666   4.518   6.227   5.643 -0.6804  0.2198 -0.1598
  143OSM      N15667   5.590   2.524   7.066 -0.3210  0.7897 -0.1868
  143OSM    C1515668   5.448   2.561   7.082  0.2576  0.5039 -0.0278
  143OSM   H15A15669   5.385   2.499   7.020 -0.7348  0.5496  0.9070
  143OSM   H15B15670   5.434   2.665   7.057 -4.4537  0.0916  0.0954
  143OSM   H15C15671   5.418   2.569   7.185  3.2661  0.9594  0.9049
  143OSM    C1415672   5.668   2.617   7.162 -0.0376 -0.8377 -0.2793
  143OSM   H14A15673   5.618   2.627   7.257  1.1099  0.8321  0.2021
  143OSM   H14B15674   5.674   2.720   7.129 -0.8436 -0.3716  0.9774
  143OSM   H14C15675   5.767   2.576   7.179 -0.3515 -0.9122  1.5028
  143OSM    C1315676   5.616   2.380   7.102 -0.0424  0.0962  0.1853
  143OSM   H13A15677   5.718   2.360   7.072  1.7276 -0.6954  5.5645
  143OSM   H13B15678   5.556   2.309   7.047  0.6706 -1.0584  0.8652
  143OSM   H13C15679   5.585   2.361   7.204 -0.7290  1.4439  0.2525
  143OSM    C1215680   5.632   2.550   6.921 -0.9803  0.4340 -0.9312
  143OSM   H12A15681   5.731   2.508   6.911 -1.5118 -0.5751 -2.3838
  143OSM   H12B15682   5.634   2.658   6.917  3.2705  0.7505  2.6562
  143OSM    C1115683   5.550   2.499   6.803  0.1311  0.1327 -0.5282
  143OSM   H11A15684   5.535   2.389   6.807 -0.3824  0.2383  1.4087
  143OSM   H11B15685   5.606   2.525   6.711 -1.2231 -0.5504 -1.5867
  143OSM      P15686   5.412   2.716   6.759  0.4581 -0.4424 -0.0879
  143OSM    O1315687   5.321   2.780   6.855 -0.2206  0.0147 -0.2857
  143OSM    O1415688   5.544   2.778   6.744  0.0547  0.4095 -0.1288
  143OSM    O1115689   5.352   2.722   6.611 -0.5389  0.2433 -0.4058
  143OSM    O1215690   5.416   2.560   6.792 -0.2788 -0.4266 -0.5122
  143OSM    C1S15691   5.359   2.611   6.524  0.4062  0.2682 -0.3348
  143OSM    H1S15692   5.280   2.536   6.547 -0.0025  0.5613 -0.7681
  143OSM    H1T15693   5.455   2.555   6.520  0.6305  0.6660 -0.5172
  143OSM     NF15694   5.296   2.545   6.304 -0.1215 -0.7965 -0.8420
  143OSM    HNF15695   5.367   2.503   6.248  1.6372 -1.1588  1.5021
  143OSM    C2S15696   5.317   2.661   6.377  0.1001 -0.2079 -0.6655
  143OSM    H2S15697   5.221   2.714   6.396  0.6551  0.1713  1.3599
  143OSM    C3S15698   5.429   2.752   6.317 -0.1200 -0.4449  0.3445
  143OSM    H3S15699   5.519   2.687   6.318  0.1497 -0.0760  1.1830
  143OSM     O315700   5.464   2.866   6.395  0.0476  0.3363 -0.3876
  143OSM    HO315701   5.451   2.825   6.481  0.5319 -0.5882 -0.7384
  143OSM    C4S15702   5.391   2.785   6.174 -0.5944 -0.6612  0.7112
  143OSM    H4S15703   5.420   2.724   6.087 -0.4705  0.8172 -0.3237
  143OSM    C5S15704   5.326   2.898   6.132  0.5165  0.1618 -0.1640
  143OSM    H5S15705   5.287   2.971   6.204  0.9584 -0.1733  0.4272
  143OSM    C6S15706   5.288   2.926   5.982  0.1567 -0.0671  0.0806
  143OSM    H6S15707   5.290   3.037   5.981 -0.3834 -0.0457  0.4463
  143OSM    H6T15708   5.184   2.891   5.963  0.4289 -1.4610  1.0381
  143OSM    C7S15709   5.386   2.861   5.878 -0.0754 -0.3435 -0.6798
  143OSM    H7S15710   5.364   2.752   5.875  1.0782 -0.5853 -0.9474
  143OSM    H7T15711   5.491   2.873   5.911  0.3720 -2.7126 -1.0616
  143OSM    C8S15712   5.352   2.908   5.739 -0.1542  0.7275  0.4245
  143OSM    H8S15713   5.373   3.017   5.743  1.3794  0.5458 -1.3434
  143OSM    H8T15714   5.241   2.898   5.736 -0.0863 -0.3301  1.0668
  143OSM    C9S15715   5.420   2.815   5.637 -0.1533 -0.7969  0.2709
  143OSM    H9S15716   5.395   2.709   5.656  0.6538 -1.3982 -1.8029
  143OSM    H9T15717   5.529   2.832   5.651 -0.3773  1.6493 -0.5429
  143OSM   C10S15718   5.378   2.843   5.493 -0.6141 -0.0633  0.4703
  143OSM   H10S15719   5.385   2.953   5.483 -2.1481  0.1670  1.6992
  143OSM   H10T15720   5.280   2.800   5.464  0.8969 -3.8389  0.2727
  143OSM   C11S15721   5.469   2.767   5.393  0.3653 -0.0713  0.3531
  143OSM   H11S15722   5.573   2.788   5.426  0.6937 -1.3194  0.1695
  143OSM   H11T15723   5.442   2.822   5.300  0.5138 -0.8288 -0.1516
  143OSM   C12S15724   5.440   2.620   5.390  0.0946  0.4449 -0.3610
  143OSM   H12S15725   5.332   2.613   5.369  0.0864 -0.7859  0.0259
  143OSM   H12T15726   5.446   2.574   5.491 -2.9824 -0.7662 -0.6494
  143OSM   C13S15727   5.513   2.534   5.289 -0.2544 -0.3150  0.3215
  143OSM   H13S15728   5.478   2.429   5.300 -0.1065 -0.3375  0.5653
  143OSM   H13T15729   5.621   2.533   5.314  0.5573 -3.3259 -2.5286
  143OSM   C14S15730   5.500   2.582   5.139  0.5162 -0.8895  1.0218
  143OSM   H14S15731   5.548   2.682   5.128 -0.6387 -0.1710  2.2889
  143OSM   H14T15732   5.391   2.595   5.119  1.1623  3.7731 -0.7643
  143OSM   C15S15733   5.576   2.493   5.038 -0.6477 -0.2943  0.0451
  143OSM   H15S15734   5.556   2.386   5.062 -0.5066 -0.5266 -0.8330
  143OSM   H15T15735   5.686   2.505   5.039 -0.6881  0.3396 -0.9782
  143OSM   C16S15736   5.539   2.510   4.888  0.5288 -0.0383  0.0415
  143OSM   H16S15737   5.552   2.614   4.852 -0.2669  0.3211  0.7470
  143OSM   H16T15738   5.434   2.480   4.869 -0.1797  1.4443  1.4094
  143OSM   C17S15739   5.618   2.420   4.789  0.1650 -0.0290 -0.1761
  143OSM   H17S15740   5.552   2.405   4.701 -1.4317 -1.0280  1.1275
  143OSM   H17T15741   5.634   2.320   4.836 -0.7195 -1.2772 -2.4152
  143OSM   C18S15742   5.751   2.469   4.746  0.2984  0.0719 -0.5047
  143OSM   H18S15743   5.749   2.558   4.679 -0.5248  0.8617  0.5286
  143OSM   H18T15744   5.800   2.391   4.684  0.2293  0.8582 -1.5774
  143OSM   H18U15745   5.824   2.494   4.826  1.5330 -1.0056 -1.2474
  143OSM    C1F15746   5.189   2.470   6.310  0.5676  1.6032 -0.0936
  143OSM     OF15747   5.093   2.496   6.381 -0.2800 -0.2085 -0.0568
  143OSM    C2F15748   5.198   2.337   6.229  0.3374 -0.3086  0.7479
  143OSM    H2F15749   5.197   2.254   6.303  0.7182  0.5058  1.6867
  143OSM    H2G15750   5.293   2.321   6.173 -0.3104 -1.4965 -0.0678
  143OSM    C3F15751   5.088   2.313   6.117  0.2334 -0.3300 -0.4840
  143OSM    H3F15752   4.991   2.340   6.165  0.4244  1.4246 -1.0091
  143OSM    H3G15753   5.075   2.204   6.099 -1.4916 -0.4311  1.0909
  143OSM    C4F15754   5.093   2.386   5.982 -0.1888 -0.0312  0.3016
  143OSM    H4F15755   4.999   2.350   5.935  0.7940 -1.7624 -0.4612
  143OSM    H4G15756   5.174   2.353   5.914 -0.3324 -0.3679  0.2887
  143OSM    C5F15757   5.103   2.533   5.998 -0.0873 -0.2000  0.0933
  143OSM    H5F15758   5.201   2.555   6.045  0.5376 -0.4229 -1.0780
  143OSM    H5G15759   5.022   2.577   6.060 -0.6329 -2.1434  0.8307
  143OSM    C6F15760   5.112   2.592   5.856  0.5116  0.5004  0.0921
  143OSM    H6F15761   5.200   2.549   5.803  0.9097 -0.9919  1.8592
  143OSM    H6G15762   5.112   2.702   5.868 -0.3652  0.5093  0.0689
  143OSM    C7F15763   4.994   2.551   5.756 -0.0800 -0.3832  0.1714
  143OSM    H7F15764   4.901   2.536   5.814  0.5990 -2.3243  0.8404
  143OSM    H7G15765   5.018   2.453   5.711 -0.4169  0.7207 -2.5764
  143OSM    C8F15766   4.973   2.654   5.647  0.6339 -0.1536  0.4824
  143OSM    H8F15767   5.070   2.679   5.600 -0.6161  1.2309 -1.5088
  143OSM    H8G15768   4.920   2.743   5.687 -2.5528 -1.2719 -0.8740
  143OSM    C9F15769   4.888   2.595   5.528  0.3289 -0.2932 -0.3365
  143OSM    H9F15770   4.785   2.571   5.557 -0.9432  1.1440 -3.2528
  143OSM   C10F15771   4.924   2.584   5.401 -0.2684  0.1950  0.8823
  143OSM   H10F15772   4.854   2.535   5.331  0.1935  0.1678  0.4379
  143OSM   C11F15773   5.057   2.608   5.338  0.6554 -0.7828  0.4638
  143OSM   H11F15774   5.082   2.524   5.270 -2.4809 -0.8355 -0.7904
  143OSM   H11G15775   5.135   2.616   5.417  0.1351  0.2660  0.8888
  143OSM   C12F15776   5.069   2.741   5.255  0.0254  0.3806 -1.3183
  143OSM   H12F15777   5.175   2.747   5.222 -0.0126 -0.4661 -1.6117
  143OSM   H12G15778   5.060   2.821   5.332 -0.4537 -0.1758 -0.7867
  143OSM   C13F15779   4.978   2.748   5.134 -0.1198 -0.0887  0.2430
  143OSM   H13F15780   4.964   2.853   5.100  2.7053  0.4356  0.5058
  143OSM   H13G15781   4.879   2.715   5.171 -0.3476  0.7571  0.4180
  143OSM   C14F15782   5.023   2.663   5.013 -0.0362 -0.7228  0.5216
  143OSM   H14F15783   5.050   2.558   5.038  3.1951 -0.2377 -0.3426
  143OSM   H14G15784   5.109   2.722   4.973  0.5824  0.3705  3.2320
  143OSM   C15F15785   4.912   2.672   4.901 -0.1828  0.4441  0.6697
  143OSM   H15F15786   4.867   2.774   4.901 -0.3019  0.5288  4.2131
  143OSM   H15G15787   4.833   2.611   4.948  0.0413 -0.1857  0.2434
  143OSM   C16F15788   4.946   2.622   4.756 -0.9498 -0.1644 -0.0160
  143OSM   H16F15789   4.969   2.514   4.760 -1.3365 -0.2824 -0.6787
  143OSM   H16G15790   5.045   2.666   4.731 -0.9552 -0.2674 -0.2223
  143OSM   C17F15791   4.855   2.670   4.642  1.0710 -0.0323  0.5415
  143OSM   H17F15792   4.905   2.629   4.552 -2.0768  0.5609 -1.6442
  143OSM   H17G15793   4.860   2.781   4.638  0.9952 -0.0269  0.5889
  143OSM   C18F15794   4.703   2.630   4.653  0.1183  0.0329 -0.6437
  143OSM   H18F15795   4.659   2.682   4.741 -0.3649 -1.9169  0.3414
  143OSM   H18G15796   4.680   2.521   4.662  2.1488 -0.3691  0.1575
  143OSM   H18H15797   4.656   2.667   4.560  1.5219 -1.6143 -2.0893
  144OSM      N15798   2.765   1.320   6.681  0.2588  0.0278 -0.7168
  144OSM    C1515799   2.901   1.332   6.730 -0.2567 -0.4468 -0.7052
  144OSM   H15A15800   2.964   1.384   6.658 -2.2860  2.2487 -0.6720
  144OSM   H15B15801   2.939   1.234   6.753 -1.5071 -0.6352  0.6595
  144OSM   H15C15802   2.900   1.384   6.825 -0.4182 -0.0373 -0.9249
  144OSM    C1415803   2.694   1.449   6.694 -0.0678 -0.0063  0.1253
  144OSM   H14A15804   2.669   1.477   6.796 -0.6624  0.5556 -0.1658
  144OSM   H14B15805   2.601   1.453   6.639  0.5943 -0.7687 -1.0679
  144OSM   H14C15806   2.760   1.525   6.654 -2.6207  1.2429 -2.0555
  144OSM    C1315807   2.763   1.279   6.536  0.2769  0.0558 -0.2823
  144OSM   H13A15808   2.789   1.361   6.470 -1.3579 -0.4985 -1.7018
  144OSM   H13B15809   2.673   1.231   6.503 -0.6418  0.1860  1.8856
  144OSM   H13C15810   2.839   1.206   6.511 -0.1877 -0.1403 -1.1449
  144OSM    C1215811   2.683   1.218   6.760 -0.0602 -0.5545  0.3056
  144OSM   H12A15812   2.590   1.211   6.706  0.1000 -1.9554  0.1652
  144OSM   H12B15813   2.669   1.260   6.858 -0.0970  0.4021 -0.1008
  144OSM    C1115814   2.735   1.076   6.771 -0.3118 -0.1414 -0.4139
  144OSM   H11A15815   2.741   1.033   6.669 -1.9397 -0.5150 -0.3788
  144OSM   H11B15816   2.653   1.016   6.815 -0.0031  0.2005  0.6488
  144OSM      P15817   2.928   0.928   6.852  0.3979 -0.0554  0.6390
  144OSM    O1315818   3.060   0.943   6.919 -0.3348  0.5725  0.5790
  144OSM    O1415819   2.839   0.822   6.898  0.8147  0.1187 -0.4272
  144OSM    O1115820   2.950   0.885   6.700 -0.1501  0.2158  1.1073
  144OSM    O1215821   2.851   1.066   6.853  0.2145 -0.5617 -0.1986
  144OSM    C1S15822   3.029   0.984   6.623 -0.1311 -0.1096  0.1946
  144OSM    H1S15823   3.129   0.996   6.670 -0.1999 -0.9325  0.5769
  144OSM    H1T15824   2.977   1.082   6.624 -0.6064 -0.3525 -0.2657
  144OSM     NF15825   3.145   1.028   6.399 -0.4747  0.3647 -0.1387
  144OSM    HNF15826   3.111   1.057   6.310 -1.2334 -0.2811 -0.0676
  144OSM    C2S15827   3.054   0.938   6.471 -0.4723 -0.8071 -0.2898
  144OSM    H2S15828   3.096   0.836   6.480 -2.4251 -1.8799 -2.3593
  144OSM    C3S15829   2.915   0.912   6.412 -0.5613  0.5903 -0.1583
  144OSM    H3S15830   2.849   1.002   6.413 -1.6568 -0.1880 -0.8033
  144OSM     O315831   2.840   0.815   6.487  0.5336  0.4087  0.0351
  144OSM    HO315832   2.896   0.802   6.564  0.3647  0.2334  0.1284
  144OSM    C4S15833   2.931   0.869   6.272  0.1570 -0.2488 -0.0742
  144OSM    H4S15834   2.904   0.942   6.195 -2.3509  0.5886  1.4794
  144OSM    C5S15835   2.959   0.745   6.232  0.1015 -0.7028  0.1976
  144OSM    H5S15836   2.972   0.663   6.304 -1.3222 -1.1380 -0.0111
  144OSM    C6S15837   2.956   0.694   6.090  0.2159  0.5684 -0.4838
  144OSM    H6S15838   2.873   0.626   6.062  1.1985 -1.5651  1.4353
  144OSM    H6T15839   3.036   0.618   6.071  0.1097  0.3271  0.0290
  144OSM    C7S15840   2.971   0.797   5.978 -0.0709 -0.5502  0.7761
  144OSM    H7S15841   3.062   0.860   5.989 -0.6883  0.1597  1.9530
  144OSM    H7T15842   2.890   0.873   5.976  1.3975  1.1158 -2.0941
  144OSM    C8S15843   2.971   0.733   5.839  0.6616 -0.1701 -0.3584
  144OSM    H8S15844   2.870   0.693   5.818  1.1984 -2.0964  0.4731
  144OSM    H8T15845   3.036   0.643   5.849  0.7105  0.1001  2.4568
  144OSM    C9S15846   3.016   0.817   5.719 -0.0345  0.1128 -0.0911
  144OSM    H9S15847   3.127   0.823   5.724 -0.1517  2.1915  1.0398
  144OSM    H9T15848   2.992   0.924   5.733  1.7709  1.1013 -3.4625
  144OSM   C10S15849   2.958   0.786   5.582 -0.1208  0.0530 -0.0768
  144OSM   H10S15850   2.910   0.875   5.536  2.4764  1.2883 -0.5501
  144OSM   H10T15851   2.865   0.726   5.594  0.0226  0.1983  2.3755
  144OSM   C11S15852   3.071   0.726   5.498 -0.1971  0.5025 -0.2549
  144OSM   H11S15853   3.085   0.620   5.526  0.6929  1.5847  4.1002
  144OSM   H11T15854   3.164   0.784   5.514  1.1615 -1.7819  0.4647
  144OSM   C12S15855   3.043   0.731   5.348  0.6084  0.4483  0.5606
  144OSM   H12S15856   3.035   0.837   5.314 -1.2602  0.0025 -0.5203
  144OSM   H12T15857   2.949   0.674   5.333  0.3009  1.1376 -0.2401
  144OSM   C13S15858   3.158   0.670   5.263 -0.6287  0.0475  0.0410
  144OSM   H13S15859   3.184   0.567   5.295 -2.4578  0.2101  2.3482
  144OSM   H13T15860   3.250   0.728   5.285  1.1119 -1.6772 -2.2119
  144OSM   C14S15861   3.136   0.671   5.112  0.1332 -1.1046  0.2448
  144OSM   H14S15862   3.127   0.773   5.069  2.1774 -0.1572  1.9007
  144OSM   H14T15863   3.048   0.614   5.076 -0.5163  1.4293 -2.5669
  144OSM   C15S15864   3.258   0.619   5.045  0.2691  0.7441  0.6173
  144OSM   H15S15865   3.304   0.538   5.106  0.9005  0.4710 -0.1849
  144OSM   H15T15866   3.339   0.691   5.020  0.0039  0.9726  0.4188
  144OSM   C16S15867   3.228   0.550   4.909  0.2694 -0.1157 -0.8220
  144OSM   H16S15868   3.150   0.474   4.930  1.1360 -1.0184 -0.8083
  144OSM   H16T15869   3.312   0.507   4.850  0.3509  0.0844 -0.8538
  144OSM   C17S15870   3.175   0.658   4.808  0.2102 -0.4802  0.0842
  144OSM   H17S15871   3.226   0.756   4.823  1.0264 -0.7514 -0.8295
  144OSM   H17T15872   3.073   0.693   4.834  0.1654 -2.1240  2.4271
  144OSM   C18S15873   3.179   0.615   4.662  0.1799  0.0339  0.4526
  144OSM   H18S15874   3.149   0.702   4.599  0.1098  1.0086  1.7839
  144OSM   H18T15875   3.109   0.530   4.652  1.5985 -1.1270  0.1259
  144OSM   H18U15876   3.278   0.576   4.629 -0.3010 -0.3189 -0.6142
  144OSM    C1F15877   3.272   1.045   6.427 -0.3622  0.3607 -0.4353
  144OSM     OF15878   3.310   1.003   6.538  0.1510  0.3379  0.1122
  144OSM    C2F15879   3.355   1.106   6.321 -1.0882 -0.2193  0.4499
  144OSM    H2F15880   3.301   1.198   6.290  0.2745  0.1094 -1.0852
  144OSM    H2G15881   3.356   1.029   6.241 -0.0297 -0.0058  0.2530
  144OSM    C3F15882   3.507   1.135   6.359 -0.1743  0.1796 -0.5009
  144OSM    H3F15883   3.553   1.038   6.387  2.7470  0.6428 -3.1203
  144OSM    H3G15884   3.502   1.216   6.435  1.8107 -0.1314  0.0118
  144OSM    C4F15885   3.589   1.194   6.239 -1.4883 -0.1050  0.0083
  144OSM    H4F15886   3.696   1.211   6.264 -0.3003 -2.1443 -3.0484
  144OSM    H4G15887   3.546   1.289   6.202 -0.3876 -0.3931 -2.1769
  144OSM    C5F15888   3.596   1.101   6.115 -0.1215  0.0846 -0.2905
  144OSM    H5F15889   3.493   1.088   6.074 -1.1415 -1.6024  2.5053
  144OSM    H5G15890   3.628   1.000   6.148 -2.3529 -0.8231 -0.6820
  144OSM    C6F15891   3.692   1.141   6.006  0.1622 -0.5653 -0.6019
  144OSM    H6F15892   3.797   1.134   6.043 -0.6660  1.1001  2.4040
  144OSM    H6G15893   3.680   1.249   5.983  1.0027 -0.4609 -0.5869
  144OSM    C7F15894   3.671   1.068   5.875 -0.6725 -0.1106 -0.7091
  144OSM    H7F15895   3.565   1.090   5.851 -0.7204 -0.2060 -0.5813
  144OSM    H7G15896   3.677   0.959   5.891 -2.4564 -0.0895  0.3617
  144OSM    C8F15897   3.760   1.114   5.755  0.1981 -0.2687  0.0856
  144OSM    H8F15898   3.862   1.094   5.795 -0.2360 -2.3269  0.2654
  144OSM    H8G15899   3.747   1.224   5.746 -0.6729 -0.2696  1.1131
  144OSM    C9F15900   3.721   1.047   5.623  0.2243 -0.3771  0.4153
  144OSM    H9F15901   3.631   0.983   5.624  0.0376 -0.2250 -1.8447
  144OSM   C10F15902   3.791   1.065   5.505  0.1655  0.9136 -0.4997
  144OSM   H10F15903   3.752   1.011   5.417  1.2552  0.2643 -0.5987
  144OSM   C11F15904   3.909   1.148   5.484 -0.1776 -0.1402  0.1553
  144OSM   H11F15905   3.962   1.149   5.581  0.3513  0.9370 -0.1318
  144OSM   H11G15906   3.883   1.254   5.464 -0.0694 -0.2337 -0.4974
  144OSM   C12F15907   4.008   1.100   5.377 -0.3256 -0.3665  0.8096
  144OSM   H12F15908   3.950   1.114   5.283  0.2837 -2.6084  0.0408
  144OSM   H12G15909   4.033   0.992   5.372  4.9218  0.5680  1.6380
  144OSM   C13F15910   4.142   1.171   5.384  0.3376  0.0277  0.0535
  144OSM   H13F15911   4.140   1.279   5.410 -0.3997 -0.0463  0.3283
  144OSM   H13G15912   4.203   1.150   5.294 -0.1515 -1.5401  0.0584
  144OSM   C14F15913   4.224   1.101   5.498 -0.0555 -0.3224 -0.1794
  144OSM   H14F15914   4.230   0.991   5.487 -0.4540 -0.6138  2.0715
  144OSM   H14G15915   4.169   1.117   5.593  2.0527 -0.1005  1.0637
  144OSM   C15F15916   4.360   1.166   5.529 -0.3360  0.0949 -0.5400
  144OSM   H15F15917   4.369   1.183   5.639  0.7542  0.9187 -0.7493
  144OSM   H15G15918   4.383   1.264   5.483  0.0057  0.1415 -0.2729
  144OSM   C16F15919   4.475   1.068   5.494 -1.4524 -0.1369  0.2204
  144OSM   H16F15920   4.474   1.036   5.387  0.0601 -0.1136  0.1745
  144OSM   H16G15921   4.456   0.974   5.550  0.3791 -1.9393 -1.9933
  144OSM   C17F15922   4.614   1.124   5.538  0.2051 -0.2482  0.4040
  144OSM   H17F15923   4.633   1.219   5.484  2.6343 -1.2164 -0.6328
  144OSM   H17G15924   4.693   1.056   5.499  0.8644  2.7029 -4.1563
  144OSM   C18F15925   4.635   1.135   5.688 -0.0284  0.2599 -0.7540
  144OSM   H18F15926   4.741   1.126   5.720  0.3112  0.2999 -1.8288
  144OSM   H18G15927   4.576   1.062   5.747  2.9530 -2.8961 -1.3538
  144OSM   H18H15928   4.595   1.235   5.716  2.0347  0.2625  2.7703
  145OSM      N15929   6.648   4.729   6.304 -0.3851 -0.4454 -0.4324
  145OSM    C1515930   6.763   4.628   6.273  0.2941 -0.1836  0.6789
  145OSM   H15A15931   6.861   4.663   6.301  0.6794 -0.5401 -0.2101
  145OSM   H15B15932   6.762   4.600   6.169  0.5571 -0.2531  0.6935
  145OSM   H15C15933   6.746   4.529   6.315 -1.3289 -0.2252 -0.0252
  145OSM    C1415934   6.521   4.656   6.293  0.3798  0.0292  0.0058
  145OSM   H14A15935   6.499   4.596   6.380 -0.5124  2.1443  1.3318
  145OSM   H14B15936   6.505   4.593   6.207  1.4049  0.9574 -0.8998
  145OSM   H14C15937   6.443   4.729   6.277  1.4883  0.8375 -2.1002
  145OSM    C1315938   6.669   4.781   6.441  0.4915 -0.1388  0.4681
  145OSM   H13A15939   6.600   4.862   6.455  2.9822  1.9082  1.6285
  145OSM   H13B15940   6.766   4.827   6.442  0.3871  0.0756  0.5744
  145OSM   H13C15941   6.662   4.714   6.526  0.0182  0.8326  1.2039
  145OSM    C1215942   6.662   4.847   6.207  0.1622  0.2720  0.7023
  145OSM   H12A15943   6.676   4.803   6.109 -1.9780  0.7845  0.1246
  145OSM   H12B15944   6.753   4.902   6.228  2.3577 -2.6666 -0.3790
  145OSM    C1115945   6.549   4.954   6.193  0.3396 -0.3420 -0.1556
  145OSM   H11A15946   6.454   4.909   6.157  0.3754 -0.7060  0.2003
  145OSM   H11B15947   6.569   5.020   6.106 -2.0687 -0.7922 -1.1111
  145OSM      P15948   6.413   5.103   6.352  0.2501 -0.0111 -0.0288
  145OSM    O1315949   6.334   5.003   6.430 -0.5757 -0.4679  0.3531
  145OSM    O1415950   6.454   5.227   6.424 -0.1972 -0.2998 -0.2073
  145OSM    O1115951   6.353   5.140   6.210 -0.0991  0.4801 -0.0110
  145OSM    O1215952   6.544   5.036   6.311 -0.1774  0.2621  0.4335
  145OSM    C1S15953   6.311   5.272   6.170  0.0933  0.1644  0.1094
  145OSM    H1S15954   6.399   5.338   6.158 -1.5674  2.4424 -0.2042
  145OSM    H1T15955   6.255   5.321   6.252  1.0293  0.2434  0.7182
  145OSM     NF15956   6.236   5.416   5.982  0.2422  0.2139  0.7746
  145OSM    HNF15957   6.144   5.452   5.967  0.7390  0.3560 -2.9605
  145OSM    C2S15958   6.249   5.279   6.024  0.9722  0.3256 -0.0855
  145OSM    H2S15959   6.325   5.223   5.966 -0.9744 -1.5263 -0.9805
  145OSM    C3S15960   6.132   5.179   6.007 -0.0871 -0.7211 -0.7395
  145OSM    H3S15961   6.050   5.206   6.077  0.9990 -0.6801  0.5478
  145OSM     O315962   6.177   5.044   6.024  0.2964 -0.1557  0.2548
  145OSM    HO315963   6.269   5.045   6.050  0.2167 -1.5416  0.6916
  145OSM    C4S15964   6.074   5.198   5.869  1.0553 -0.1587  0.2700
  145OSM    H4S15965   6.005   5.283   5.856  3.1150  1.4150 -0.8403
  145OSM    C5S15966   6.120   5.146   5.753  0.0288 -0.0144 -0.2510
  145OSM    H5S15967   6.201   5.072   5.755 -1.9040 -2.3847 -2.6261
  145OSM    C6S15968   6.055   5.168   5.619  0.0496 -0.2773 -0.8914
  145OSM    H6S15969   6.103   5.260   5.580  0.2756 -1.3111 -3.1912
  145OSM    H6T15970   5.945   5.180   5.633  0.2380 -1.3846  2.5646
  145OSM    C7S15971   6.072   5.053   5.524 -0.3206 -0.1264  0.8282
  145OSM    H7S15972   6.037   4.954   5.559 -1.8025  0.2114  0.3752
  145OSM    H7T15973   6.180   5.041   5.501 -0.2916  1.4651 -0.0527
  145OSM    C8S15974   5.990   5.072   5.398  0.2436  0.2579 -1.1791
  145OSM    H8S15975   5.882   5.084   5.420  0.3809 -1.1714  0.4419
  145OSM    H8T15976   5.999   4.977   5.340 -1.6362 -1.4482  1.1338
  145OSM    C9S15977   6.041   5.186   5.304  0.4997  0.3445 -0.5230
  145OSM    H9S15978   6.146   5.161   5.277  0.0405 -1.1103 -1.0831
  145OSM    H9T15979   6.033   5.282   5.359  0.3469 -0.4206  0.8538
  145OSM   C10S15980   5.976   5.190   5.164  0.8583  0.1752 -0.0826
  145OSM   H10S15981   5.865   5.192   5.170  0.9534  2.5548  2.1411
  145OSM   H10T15982   6.001   5.098   5.106 -1.8470  0.9545 -2.6980
  145OSM   C11S15983   6.022   5.307   5.070  0.7618 -0.0150  0.2492
  145OSM   H11S15984   6.133   5.311   5.070  0.7690  1.4023  2.3514
  145OSM   H11T15985   5.997   5.409   5.105 -0.4944 -0.5708  1.0177
  145OSM   C12S15986   5.961   5.286   4.924  0.7165  0.1119 -0.1689
  145OSM   H12S15987   5.854   5.257   4.930  0.5894  0.4791 -0.5541
  145OSM   H12T15988   6.015   5.194   4.892  2.5536  1.6634 -1.8620
  145OSM   C13S15989   5.986   5.396   4.816  0.0222 -0.0588  0.2482
  145OSM   H13S15990   6.090   5.396   4.775 -0.2959 -0.1909 -0.5887
  145OSM   H13T15991   5.970   5.495   4.863 -0.4576  0.0194 -0.0683
  145OSM   C14S15992   5.883   5.369   4.702  0.7327  0.4173  0.1795
  145OSM   H14S15993   5.776   5.383   4.728  0.1271  0.0887 -1.9566
  145OSM   H14T15994   5.884   5.261   4.672  1.9818  0.6024 -0.5239
  145OSM   C15S15995   5.922   5.448   4.575 -0.2248  0.5644  0.0665
  145OSM   H15S15996   5.828   5.453   4.515 -1.4317 -2.5278  1.4391
  145OSM   H15T15997   5.990   5.384   4.515  0.9435  1.4516  0.4195
  145OSM   C16S15998   5.980   5.585   4.598 -0.2078 -0.6033 -0.1635
  145OSM   H16S15999   6.081   5.573   4.642 -0.6698 -1.4921  0.7072
  145OSM   H16T16000   5.911   5.644   4.661 -0.2468  0.8839 -1.5423
  145OSM   C17S16001   5.994   5.663   4.461  0.2516  0.4337 -0.5759
  145OSM   H17S16002   6.042   5.758   4.491 -0.6116  0.1643  1.8315
  145OSM   H17T16003   5.890   5.685   4.428 -0.6030  0.1199  1.7409
  145OSM   C18S16004   6.074   5.591   4.346  0.5584 -0.8390  0.7273
  145OSM   H18S16005   6.175   5.574   4.389  1.3518  0.0500 -0.7016
  145OSM   H18T16006   6.059   5.659   4.259 -1.4502 -3.9128 -1.5374
  145OSM   H18U16007   6.028   5.494   4.317  0.0048 -0.5270  0.5490
  145OSM    C1F16008   6.339   5.494   5.955 -0.2950  0.4753 -0.2396
  145OSM     OF16009   6.450   5.449   5.935 -0.2007  0.2146  0.3178
  145OSM    C2F16010   6.313   5.640   5.934  0.1823  0.1385  0.1299
  145OSM    H2F16011   6.343   5.705   6.020  1.0710 -0.8675  0.6070
  145OSM    H2G16012   6.206   5.644   5.906 -0.1236 -0.3616  1.1525
  145OSM    C3F16013   6.381   5.711   5.817  0.1079  0.0096 -0.7090
  145OSM    H3F16014   6.367   5.655   5.723  1.0670  2.4536 -2.4019
  145OSM    H3G16015   6.490   5.705   5.838  0.0271 -0.5820 -0.4277
  145OSM    C4F16016   6.329   5.853   5.806  0.3146  0.4184 -0.8958
  145OSM    H4F16017   6.325   5.881   5.913 -0.6807 -1.6503 -0.3532
  145OSM    H4G16018   6.227   5.857   5.762  0.6208  0.3138 -1.6278
  145OSM    C5F16019   6.419   5.955   5.730  0.2126 -0.1407  0.2711
  145OSM    H5F16020   6.515   5.969   5.785  0.2085 -3.9874  1.6151
  145OSM    H5G16021   6.361   6.050   5.728  1.7837  0.8854  1.3809
  145OSM    C6F16022   6.449   5.907   5.586 -0.0126 -0.1763 -0.6156
  145OSM    H6F16023   6.355   5.861   5.548  0.0151 -1.3513  0.6501
  145OSM    H6G16024   6.522   5.824   5.600 -1.6532 -1.7626 -1.1136
  145OSM    C7F16025   6.511   6.023   5.504 -0.0938  0.2368 -0.1053
  145OSM    H7F16026   6.594   6.062   5.567 -0.5689 -0.4713  0.9923
  145OSM    H7G16027   6.441   6.109   5.491 -1.4267 -0.5335  1.6082
  145OSM    C8F16028   6.561   5.995   5.367 -0.7712  0.1823 -0.1318
  145OSM    H8F16029   6.639   5.917   5.384 -1.0675  0.1142  0.9876
  145OSM    H8G16030   6.609   6.079   5.314 -1.6142 -1.1543 -3.2287
  145OSM    C9F16031   6.440   5.949   5.283 -0.8067  0.0512  0.7519
  145OSM    H9F16032   6.380   5.864   5.321 -0.2648  0.0908  1.7262
  145OSM   C10F16033   6.419   5.971   5.151 -0.8867 -0.3090  0.2013
  145OSM   H10F16034   6.320   5.939   5.117 -0.1860 -1.8767 -0.4772
  145OSM   C11F16035   6.505   6.043   5.048  0.3322 -0.1918 -0.1371
  145OSM   H11F16036   6.511   5.972   4.963 -1.3782 -1.8982  1.0766
  145OSM   H11G16037   6.612   6.049   5.075  0.7805  0.3418 -1.8944
  145OSM   C12F16038   6.433   6.175   4.991  0.9099 -0.9756 -0.1642
  145OSM   H12F16039   6.399   6.238   5.077  2.7871 -1.9240  1.3550
  145OSM   H12G16040   6.341   6.143   4.938  0.6261 -0.2546 -0.1196
  145OSM   C13F16041   6.529   6.256   4.899 -0.0434  0.0247 -0.4999
  145OSM   H13F16042   6.589   6.182   4.842 -0.1362 -1.4889  1.2615
  145OSM   H13G16043   6.598   6.306   4.970 -1.2529 -1.0355  1.5277
  145OSM   C14F16044   6.458   6.371   4.826  0.0066  0.0770  0.0885
  145OSM   H14F16045   6.424   6.446   4.901 -0.2109  0.0354  0.0312
  145OSM   H14G16046   6.369   6.326   4.776 -0.1692  0.5752 -0.0552
  145OSM   C15F16047   6.547   6.439   4.726  0.0776 -0.6750 -0.2474
  145OSM   H15F16048   6.485   6.506   4.662 -2.3154 -2.2792  0.2503
  145OSM   H15G16049   6.577   6.358   4.657 -0.5739 -2.9123  1.9311
  145OSM   C16F16050   6.672   6.507   4.784 -0.3121  0.3785  0.0318
  145OSM   H16F16051   6.743   6.436   4.832  0.4523  0.0642 -1.4834
  145OSM   H16G16052   6.623   6.560   4.868 -1.3360  1.9759 -1.5065
  145OSM   C17F16053   6.737   6.604   4.690  0.0318 -0.0322 -0.4189
  145OSM   H17F16054   6.667   6.681   4.653 -0.6518 -0.5108 -0.1292
  145OSM   H17G16055   6.775   6.560   4.595 -2.8435  0.6408 -1.9747
  145OSM   C18F16056   6.867   6.682   4.744  0.1195  0.5176  0.6485
  145OSM   H18F16057   6.906   6.756   4.671  2.3929 -0.7293  0.4898
  145OSM   H18G16058   6.953   6.614   4.766  0.9765  1.1619 -0.5806
  145OSM   H18H16059   6.857   6.729   4.844 -1.6078 -0.6718  1.0858
  146OSM      N16060   2.474   5.989   6.459  0.3159  0.0438 -0.2274
  146OSM    C1516061   2.506   6.100   6.539 -0.9078 -0.2424 -0.4539
  146OSM   H15A16062   2.589   6.151   6.492 -0.2017 -0.8214  0.1338
  146OSM   H15B16063   2.536   6.076   6.640 -0.8538  1.4288 -0.0504
  146OSM   H15C16064   2.427   6.173   6.534 -0.3548  0.2955 -2.5220
  146OSM    C1416065   2.464   6.047   6.320 -0.0332  0.8081  0.7987
  146OSM   H14A16066   2.428   5.966   6.258 -0.7546 -0.3395  2.6236
  146OSM   H14B16067   2.564   6.071   6.289  0.2526 -0.6171  0.5740
  146OSM   H14C16068   2.387   6.123   6.314 -0.0052  0.8170  0.5600
  146OSM    C1316069   2.594   5.889   6.458  0.5976 -0.0738  0.4029
  146OSM   H13A16070   2.636   5.874   6.556  0.6958 -1.5371  0.1568
  146OSM   H13B16071   2.669   5.937   6.397  0.5831 -1.2546 -0.5924
  146OSM   H13C16072   2.579   5.795   6.408 -1.0850  0.3833 -0.0091
  146OSM    C1216073   2.338   5.941   6.508 -0.8538  0.2834 -0.4709
  146OSM   H12A16074   2.277   6.020   6.549 -3.9246 -1.9926 -0.2747
  146OSM   H12B16075   2.359   5.884   6.596  0.0529  0.5548 -0.4972
  146OSM    C1116076   2.253   5.869   6.411  0.1245  1.4860  0.2445
  146OSM   H11A16077   2.212   5.934   6.330  0.2584 -0.3742 -1.4073
  146OSM   H11B16078   2.166   5.836   6.472  2.3814 -0.6093  2.5133
  146OSM      P16079   2.247   5.644   6.284  0.1244 -0.3216 -0.1043
  146OSM    O1316080   2.342   5.531   6.270 -0.1198  0.5232  0.2121
  146OSM    O1416081   2.130   5.602   6.357 -0.4417  0.9054  0.1999
  146OSM    O1116082   2.203   5.701   6.139  0.9700  0.1534  0.6554
  146OSM    O1216083   2.322   5.760   6.354 -0.1487 -0.2825 -0.1705
  146OSM    C1S16084   2.273   5.802   6.072 -0.1499  0.1038  0.1346
  146OSM    H1S16085   2.375   5.807   6.114 -0.9560 -0.7245  2.3048
  146OSM    H1T16086   2.226   5.898   6.103  0.6976  0.7325 -0.4964
  146OSM     NF16087   2.338   5.915   5.856  0.6337 -0.1432  0.9947
  146OSM    HNF16088   2.269   5.973   5.813  1.9659  1.0068  0.3133
  146OSM    C2S16089   2.294   5.787   5.915  0.4955  0.1112  0.0185
  146OSM    H2S16090   2.383   5.720   5.922  0.1014 -0.2350  2.3914
  146OSM    C3S16091   2.173   5.714   5.842 -0.1635 -0.3784  0.0376
  146OSM    H3S16092   2.097   5.795   5.837  1.4666  1.2471  0.6350
  146OSM     O316093   2.120   5.600   5.913 -0.0125 -0.5012  0.1028
  146OSM    HO316094   2.148   5.607   6.004  1.4871 -0.3441 -0.3527
  146OSM    C4S16095   2.214   5.681   5.699 -0.4053 -0.2733  0.3604
  146OSM    H4S16096   2.208   5.769   5.632  1.2980 -2.0939 -2.4029
  146OSM    C5S16097   2.272   5.566   5.658 -1.0962 -0.7999  0.1992
  146OSM    H5S16098   2.299   5.484   5.727 -1.1414 -2.1343 -1.3043
  146OSM    C6S16099   2.320   5.543   5.513  0.2221  0.4500  0.4067
  146OSM    H6S16100   2.318   5.437   5.481 -0.8432  0.7288 -0.5118
  146OSM    H6T16101   2.422   5.581   5.491  0.6438 -0.6541  0.3688
  146OSM    C7S16102   2.238   5.604   5.399  0.2669 -0.0300 -0.0682
  146OSM    H7S16103   2.274   5.709   5.390  2.7612 -0.4869  3.1588
  146OSM    H7T16104   2.129   5.593   5.415  0.0769  2.7302  1.2014
  146OSM    C8S16105   2.270   5.540   5.269  0.2571 -0.4376  0.4029
  146OSM    H8S16106   2.241   5.433   5.260  1.9427 -0.7724 -1.8235
  146OSM    H8T16107   2.380   5.542   5.257  0.0656  0.2608 -1.7809
  146OSM    C9S16108   2.199   5.609   5.155 -0.4699 -0.1742  0.5596
  146OSM    H9S16109   2.224   5.717   5.149  0.6146 -0.4554 -0.3476
  146OSM    H9T16110   2.090   5.591   5.171 -0.4762  0.0032  0.7164
  146OSM   C10S16111   2.230   5.555   5.012 -0.3400  0.4998 -0.1995
  146OSM   H10S16112   2.153   5.477   4.991 -2.7256  1.5115  3.6835
  146OSM   H10T16113   2.326   5.498   5.018  0.9491  2.5014 -0.6505
  146OSM   C11S16114   2.261   5.658   4.909  0.3842 -1.0184  0.1685
  146OSM   H11S16115   2.366   5.694   4.900  0.2298 -0.3188  1.0422
  146OSM   H11T16116   2.202   5.748   4.936  3.6594  1.0425  1.1186
  146OSM   C12S16117   2.226   5.598   4.771  0.5832 -0.1355  0.5989
  146OSM   H12S16118   2.117   5.573   4.767  0.2011  1.4730 -2.4017
  146OSM   H12T16119   2.280   5.504   4.746  0.2901 -0.1591  0.0330
  146OSM   C13S16120   2.246   5.695   4.646  0.1184  0.4367 -0.3415
  146OSM   H13S16121   2.179   5.784   4.650  1.0984  1.2726 -1.3872
  146OSM   H13T16122   2.227   5.636   4.554  0.3077  0.0127 -0.1082
  146OSM   C14S16123   2.392   5.748   4.633  0.7029 -0.4182 -0.4489
  146OSM   H14S16124   2.467   5.677   4.673 -0.1929 -0.9427  0.3585
  146OSM   H14T16125   2.394   5.846   4.686 -0.4774  0.4386 -1.9178
  146OSM   C15S16126   2.429   5.780   4.490  0.0381 -0.9351  0.5163
  146OSM   H15S16127   2.367   5.864   4.451  2.6812  0.8877 -0.0319
  146OSM   H15T16128   2.428   5.691   4.425  2.8306  0.9465 -2.4099
  146OSM   C16S16129   2.572   5.821   4.474 -0.1595 -0.3783  0.1560
  146OSM   H16S16130   2.599   5.811   4.366  1.0489 -1.5090  0.5444
  146OSM   H16T16131   2.636   5.745   4.524 -0.9113 -1.1112  0.0314
  146OSM   C17S16132   2.596   5.971   4.513 -0.9430  0.5629  0.0743
  146OSM   H17S16133   2.568   5.976   4.621 -0.0808  1.0441  0.2852
  146OSM   H17T16134   2.531   6.031   4.446 -0.1743  1.4443  0.0920
  146OSM   C18S16135   2.744   6.012   4.496  0.5377  0.0473 -0.5833
  146OSM   H18S16136   2.762   6.033   4.388 -0.5698  1.9664 -0.4445
  146OSM   H18T16137   2.813   5.934   4.533  2.1100  0.7422 -1.8946
  146OSM   H18U16138   2.757   6.113   4.541 -1.4420  0.0770  0.0146
  146OSM    C1F16139   2.455   5.972   5.887  0.0489  0.8213  0.0069
  146OSM     OF16140   2.550   5.905   5.915 -0.2495 -0.2478 -0.3830
  146OSM    C2F16141   2.447   6.118   5.879  0.3449 -0.0771 -0.2460
  146OSM    H2F16142   2.352   6.146   5.930  1.0741 -0.5835  1.4665
  146OSM    H2G16143   2.460   6.155   5.775  0.8739  0.3039 -0.0474
  146OSM    C3F16144   2.561   6.188   5.950 -0.5617  0.2987 -0.6613
  146OSM    H3F16145   2.660   6.161   5.907 -0.6981 -0.4901 -0.4829
  146OSM    H3G16146   2.553   6.164   6.058 -0.2420  0.2870 -0.6409
  146OSM    C4F16147   2.550   6.347   5.950  0.0876  0.1120  0.2119
  146OSM    H4F16148   2.642   6.381   6.003 -1.5553  0.7925  2.8210
  146OSM    H4G16149   2.475   6.378   6.026 -0.0406 -0.8451  0.4939
  146OSM    C5F16150   2.523   6.411   5.817  0.0833  0.0571 -0.5732
  146OSM    H5F16151   2.501   6.517   5.841  2.0807  0.4703 -0.3730
  146OSM    H5G16152   2.428   6.370   5.777 -1.1177  0.4461  1.7340
  146OSM    C6F16153   2.628   6.395   5.711 -0.1037 -0.4560  0.0260
  146OSM    H6F16154   2.630   6.288   5.681  0.9194 -0.1587 -1.0568
  146OSM    H6G16155   2.728   6.425   5.750  0.1252  0.2072 -1.0173
  146OSM    C7F16156   2.601   6.473   5.582  0.1978  0.0661  0.5399
  146OSM    H7F16157   2.680   6.464   5.505 -0.3671 -0.7278  0.0493
  146OSM    H7G16158   2.597   6.581   5.611 -0.6727  0.0780  0.3760
  146OSM    C8F16159   2.458   6.429   5.518  0.4959 -0.6507 -0.0188
  146OSM    H8F16160   2.376   6.448   5.592  1.1439  2.4536  0.0313
  146OSM    H8G16161   2.461   6.319   5.506  2.0356 -0.8625  1.8716
  146OSM    C9F16162   2.444   6.503   5.386  0.3981  0.2323  0.5057
  146OSM    H9F16163   2.417   6.609   5.401  1.5640  0.7597 -0.8755
  146OSM   C10F16164   2.474   6.468   5.255 -0.2263  0.2535  0.6731
  146OSM   H10F16165   2.452   6.540   5.175  0.5285 -0.6298 -0.3643
  146OSM   C11F16166   2.548   6.348   5.206 -0.1924 -0.2768  0.4254
  146OSM   H11F16167   2.483   6.291   5.136  0.3617 -3.2501  2.1516
  146OSM   H11G16168   2.572   6.274   5.285  0.9615  0.2527  0.5985
  146OSM   C12F16169   2.681   6.392   5.139  0.0074 -0.0126 -0.1240
  146OSM   H12F16170   2.736   6.303   5.102  0.1168 -1.1627  2.5597
  146OSM   H12G16171   2.740   6.447   5.216  0.3576 -1.5172  0.7065
  146OSM   C13F16172   2.658   6.487   5.009  0.2730  1.1209 -0.5680
  146OSM   H13F16173   2.757   6.507   4.963  1.9201  0.6611  2.4946
  146OSM   H13G16174   2.628   6.591   5.037  3.3013  1.3047  2.7453
  146OSM   C14F16175   2.571   6.416   4.899  0.3214  0.2754 -0.6419
  146OSM   H14F16176   2.612   6.315   4.876  1.2884  1.0049 -2.3067
  146OSM   H14G16177   2.469   6.407   4.942 -0.4556 -0.1102 -2.4475
  146OSM   C15F16178   2.576   6.493   4.766  0.1977  0.1754 -0.5695
  146OSM   H15F16179   2.679   6.527   4.743  0.1695  0.6138 -0.0642
  146OSM   H15G16180   2.507   6.581   4.764  2.7870  2.3873  0.9432
  146OSM   C16F16181   2.549   6.411   4.647 -0.2814  0.0284 -0.7451
  146OSM   H16F16182   2.443   6.379   4.635  0.2328 -2.2402  0.0910
  146OSM   H16G16183   2.611   6.318   4.649 -0.7241 -0.3407 -2.3118
  146OSM   C17F16184   2.593   6.478   4.510 -0.1372 -0.4542  0.1047
  146OSM   H17F16185   2.696   6.517   4.528  0.0338 -0.0094 -1.7240
  146OSM   H17G16186   2.536   6.573   4.503 -0.0296 -0.4171 -0.2440
  146OSM   C18F16187   2.596   6.388   4.389 -0.0005  0.3857  0.0284
  146OSM   H18F16188   2.616   6.283   4.419 -0.9686 -0.0599 -0.8477
  146OSM   H18G16189   2.667   6.424   4.311 -0.5505  1.4607  0.0006
  146OSM   H18H16190   2.495   6.397   4.343  0.2473 -0.2754 -0.6570
  147OSM      N16191   4.803   0.796   1.745  0.1617 -0.5013 -0.0180
  147OSM    C1516192   4.746   0.929   1.735 -0.2379  0.0204 -0.9033
  147OSM   H15A16193   4.783   1.004   1.802 -1.4639  0.5409 -0.7728
  147OSM   H15B16194   4.639   0.914   1.743  0.0576 -2.0189 -0.1615
  147OSM   H15C16195   4.761   0.974   1.638  0.0680  2.0884  0.0642
  147OSM    C1416196   4.742   0.699   1.648 -0.2767 -0.2826 -0.2361
  147OSM   H14A16197   4.635   0.711   1.641 -0.1513  0.6398 -0.7551
  147OSM   H14B16198   4.786   0.602   1.667  0.2296  0.0178  0.1519
  147OSM   H14C16199   4.785   0.721   1.551  2.6368  0.6729  1.1587
  147OSM    C1316200   4.947   0.811   1.696 -0.1323 -0.3523  0.2701
  147OSM   H13A16201   4.997   0.882   1.759  2.3735 -0.3258 -1.6087
  147OSM   H13B16202   4.958   0.849   1.596 -0.3932 -1.7022 -0.3004
  147OSM   H13C16203   5.000   0.717   1.703 -0.5834 -0.7178 -0.8661
  147OSM    C1216204   4.798   0.758   1.887  0.8748  0.4006 -0.6487
  147OSM   H12A16205   4.694   0.749   1.913  0.1079  0.6987 -3.2632
  147OSM   H12B16206   4.845   0.838   1.943  4.4278 -1.5152 -0.6417
  147OSM    C1116207   4.860   0.615   1.918  0.3041  0.1513 -0.9368
  147OSM   H11A16208   4.866   0.605   2.028 -0.7669  0.8548 -0.8025
  147OSM   H11B16209   4.968   0.614   1.888  1.0081  0.0299  1.4322
  147OSM      P16210   4.647   0.473   1.942  0.6022 -0.0126  0.1256
  147OSM    O1316211   4.592   0.596   2.013 -0.4083  0.3824  0.4125
  147OSM    O1416212   4.554   0.402   1.854 -0.3736 -0.2370 -0.2588
  147OSM    O1116213   4.700   0.380   2.050 -0.3557 -0.8160 -0.6886
  147OSM    O1216214   4.784   0.506   1.858 -0.2220  0.2171 -0.2898
  147OSM    C1S16215   4.837   0.319   2.066  0.3579 -0.1584  0.0989
  147OSM    H1S16216   4.913   0.365   1.999  0.5361 -0.3339  0.1819
  147OSM    H1T16217   4.820   0.213   2.037 -2.8792  0.0988  0.7203
  147OSM     NF16218   5.022   0.291   2.232  0.8146  0.4818 -0.8700
  147OSM    HNF16219   5.045   0.194   2.243 -2.8395 -0.8493 -3.2108
  147OSM    C2S16220   4.882   0.312   2.213 -0.4629 -0.7479 -0.5340
  147OSM    H2S16221   4.869   0.413   2.258  0.4729 -1.0930  0.5765
  147OSM    C3S16222   4.787   0.210   2.290 -0.3707 -0.0803 -0.3300
  147OSM    H3S16223   4.804   0.104   2.259 -0.9854  0.4102 -2.5501
  147OSM     O316224   4.648   0.226   2.267  0.4103  0.1210 -0.0408
  147OSM    HO316225   4.652   0.287   2.193  1.1204  0.9792  0.6844
  147OSM    C4S16226   4.808   0.225   2.443 -0.9144  1.0080 -0.5684
  147OSM    H4S16227   4.892   0.177   2.496 -1.4333  1.8302  1.0707
  147OSM    C5S16228   4.743   0.304   2.533  0.6346  0.1475  1.0159
  147OSM    H5S16229   4.663   0.364   2.488 -0.1943 -0.3599  1.7826
  147OSM    C6S16230   4.757   0.313   2.680  0.3853 -0.2410 -0.0442
  147OSM    H6S16231   4.784   0.414   2.719 -0.2043 -0.4308  0.8838
  147OSM    H6T16232   4.829   0.237   2.717 -0.0883 -1.9123 -2.3481
  147OSM    C7S16233   4.632   0.274   2.756  0.2931  0.0569 -1.1531
  147OSM    H7S16234   4.587   0.174   2.738  0.4714 -0.8935  2.8873
  147OSM    H7T16235   4.550   0.350   2.747  0.0586 -0.0698 -0.1330
  147OSM    C8S16236   4.661   0.293   2.914 -0.5002  0.1134 -0.1347
  147OSM    H8S16237   4.684   0.401   2.926 -2.0086  0.3736  0.6587
  147OSM    H8T16238   4.757   0.240   2.929 -0.2825  0.1708 -1.1879
  147OSM    C9S16239   4.545   0.248   2.995 -0.8258 -0.2988 -0.0755
  147OSM    H9S16240   4.522   0.142   2.972  0.3813 -0.3350 -1.1762
  147OSM    H9T16241   4.454   0.304   2.966 -0.5752  0.6079  0.8138
  147OSM   C10S16242   4.557   0.265   3.149  0.1770  0.5669 -0.2543
  147OSM   H10S16243   4.589   0.369   3.171  1.9731  0.3061 -1.4778
  147OSM   H10T16244   4.638   0.192   3.168 -2.6527 -2.3572  1.6979
  147OSM   C11S16245   4.438   0.209   3.225  0.0395  0.4282  0.0509
  147OSM   H11S16246   4.404   0.112   3.182 -0.5216  1.0677 -0.9845
  147OSM   H11T16247   4.347   0.269   3.203 -0.7076 -0.9811 -0.9104
  147OSM   C12S16248   4.444   0.199   3.376  0.3905 -0.0030  0.0126
  147OSM   H12S16249   4.527   0.131   3.406 -0.8198 -1.3048  0.5284
  147OSM   H12T16250   4.353   0.141   3.402 -0.1343  0.7436 -0.1536
  147OSM   C13S16251   4.439   0.332   3.454 -0.1427  0.4920 -0.8059
  147OSM   H13S16252   4.348   0.394   3.445  0.2350  1.1687 -0.0771
  147OSM   H13T16253   4.516   0.406   3.423  0.8224 -0.4296 -0.6822
  147OSM   C14S16254   4.465   0.310   3.603 -0.0850 -0.0848  0.1297
  147OSM   H14S16255   4.385   0.246   3.646 -0.1418 -0.3892 -0.4286
  147OSM   H14T16256   4.451   0.409   3.652  0.5069  0.7050 -1.2469
  147OSM   C15S16257   4.606   0.259   3.633 -0.0038  0.0805 -0.2295
  147OSM   H15S16258   4.676   0.330   3.582 -0.2275  0.4823  0.0206
  147OSM   H15T16259   4.632   0.156   3.599 -0.3251 -0.2096  0.3910
  147OSM   C16S16260   4.637   0.273   3.784 -0.0792  0.0179  0.2164
  147OSM   H16S16261   4.632   0.380   3.813 -0.4512 -0.4809  2.1739
  147OSM   H16T16262   4.737   0.240   3.819 -0.3359 -0.6573  0.3289
  147OSM   C17S16263   4.540   0.200   3.881 -0.3500 -0.2532 -0.6424
  147OSM   H17S16264   4.536   0.095   3.843 -2.0676 -0.3082 -0.3785
  147OSM   H17T16265   4.439   0.246   3.867 -0.1384  0.3667 -0.1587
  147OSM   C18S16266   4.590   0.184   4.027 -0.2087 -0.3091  0.5016
  147OSM   H18S16267   4.610   0.282   4.076  0.4710 -1.2160  2.1305
  147OSM   H18T16268   4.689   0.133   4.027 -0.3959 -0.8029 -2.1078
  147OSM   H18U16269   4.520   0.121   4.086 -0.1029 -0.0850  0.8687
  147OSM    C1F16270   5.115   0.387   2.214 -0.3773  0.1050  0.1912
  147OSM     OF16271   5.083   0.499   2.178  0.1533  0.0719  0.0305
  147OSM    C2F16272   5.256   0.354   2.255  0.5863 -0.4079  0.0890
  147OSM    H2F16273   5.314   0.430   2.199  0.2454 -0.6741 -0.6323
  147OSM    H2G16274   5.277   0.250   2.224  1.5451 -0.4621  0.8696
  147OSM    C3F16275   5.268   0.380   2.407 -0.6771 -0.3453 -0.1088
  147OSM    H3F16276   5.210   0.304   2.464 -0.5235  0.8896  1.8081
  147OSM    H3G16277   5.231   0.481   2.434  0.6230 -0.1036  0.8573
  147OSM    C4F16278   5.411   0.367   2.458 -1.0538  0.0007  0.3803
  147OSM    H4F16279   5.476   0.411   2.379 -1.6082  0.6929  0.2977
  147OSM    H4G16280   5.432   0.259   2.471 -2.8217 -0.3108  0.8714
  147OSM    C5F16281   5.443   0.435   2.583  0.1659 -0.9222 -0.8578
  147OSM    H5F16282   5.417   0.542   2.570  1.0159 -0.4314  1.0937
  147OSM    H5G16283   5.553   0.439   2.596  0.2527  2.2697 -1.7017
  147OSM    C6F16284   5.376   0.385   2.710 -0.0140 -0.8106 -0.5186
  147OSM    H6F16285   5.270   0.419   2.705  0.3183  0.5270  0.7940
  147OSM    H6G16286   5.420   0.439   2.797 -0.4653  1.1429 -1.4386
  147OSM    C7F16287   5.382   0.237   2.730 -0.2818 -0.2047  0.2828
  147OSM    H7F16288   5.492   0.219   2.731 -0.3617 -0.6966  0.5900
  147OSM    H7G16289   5.346   0.175   2.645  0.2170 -0.8053  0.4963
  147OSM    C8F16290   5.310   0.179   2.856  0.1921 -1.1074  0.4047
  147OSM    H8F16291   5.360   0.213   2.949 -1.9160 -2.8125  2.2859
  147OSM    H8G16292   5.319   0.069   2.857  0.6021 -1.0733  0.5291
  147OSM    C9F16293   5.165   0.212   2.855  0.5854 -1.1393 -0.5954
  147OSM    H9F16294   5.120   0.187   2.757  0.3363 -0.5348 -0.6429
  147OSM   C10F16295   5.084   0.262   2.952 -0.8176 -0.6820  0.6269
  147OSM   H10F16296   4.975   0.274   2.939 -0.5249  0.7727 -0.9220
  147OSM   C11F16297   5.130   0.308   3.087  0.3844  0.4572  0.3253
  147OSM   H11F16298   5.241   0.310   3.100  0.0644 -0.5527  4.5048
  147OSM   H11G16299   5.083   0.257   3.174 -2.1394  1.4439 -0.3710
  147OSM   C12F16300   5.090   0.457   3.113 -0.0428  0.1392 -1.0028
  147OSM   H12F16301   5.145   0.522   3.042 -0.7849  0.3335 -1.4117
  147OSM   H12G16302   5.116   0.488   3.217  2.6391 -3.9963 -0.1978
  147OSM   C13F16303   4.937   0.490   3.097 -0.2275  0.3719  0.4321
  147OSM   H13F16304   4.871   0.414   3.146 -1.3491 -0.4328 -2.1328
  147OSM   H13G16305   4.910   0.477   2.990 -1.7711 -1.1054  0.9520
  147OSM   C14F16306   4.907   0.628   3.143  0.3963 -0.4239  0.2839
  147OSM   H14F16307   4.974   0.710   3.108 -2.6266  1.8635 -0.5480
  147OSM   H14G16308   4.922   0.634   3.253 -0.5806 -0.5344  0.4303
  147OSM   C15F16309   4.769   0.679   3.105 -0.6757 -0.3718 -0.0183
  147OSM   H15F16310   4.689   0.634   3.168 -0.1491  1.8022  2.4037
  147OSM   H15G16311   4.743   0.658   2.999  0.7875 -1.5008 -0.1898
  147OSM   C16F16312   4.749   0.836   3.120  0.5775 -0.2859 -0.5052
  147OSM   H16F16313   4.790   0.879   3.214 -0.3666  1.5517 -0.8761
  147OSM   H16G16314   4.639   0.852   3.119  0.5429 -0.2713  0.8674
  147OSM   C17F16315   4.825   0.900   3.004  0.1335  0.0003  0.1213
  147OSM   H17F16316   4.809   0.835   2.914  0.0489 -0.0515  0.1731
  147OSM   H17G16317   4.935   0.900   3.014  0.1680  0.9070 -0.1705
  147OSM   C18F16318   4.780   1.042   2.973 -0.1075  0.6873  0.3938
  147OSM   H18F16319   4.784   1.113   3.058 -2.0497  1.1346  0.1454
  147OSM   H18G16320   4.674   1.032   2.944 -0.0999  0.8013  0.3276
  147OSM   H18H16321   4.830   1.083   2.882  1.2301 -0.7263  0.4443
  148OSM      N16322   5.718   5.358   2.097 -0.1621 -0.0810 -0.2677
  148OSM    C1516323   5.710   5.207   2.082  0.2538  0.1075 -0.3149
  148OSM   H15A16324   5.792   5.169   2.023  0.8783  0.7498  0.1224
  148OSM   H15B16325   5.613   5.175   2.047  0.3188  0.5326 -0.9002
  148OSM   H15C16326   5.725   5.161   2.178  1.9099  1.3459  0.0550
  148OSM    C1416327   5.682   5.446   1.983  0.6395 -0.3750 -0.4071
  148OSM   H14A16328   5.749   5.450   1.899 -0.2036 -1.4695 -1.1738
  148OSM   H14B16329   5.669   5.549   2.012 -2.5544 -0.7200 -0.1594
  148OSM   H14C16330   5.583   5.431   1.943  0.1345  2.7477 -0.5342
  148OSM    C1316331   5.627   5.399   2.214 -0.5845 -0.3723 -0.4307
  148OSM   H13A16332   5.658   5.363   2.311  0.8116 -3.0856 -1.7814
  148OSM   H13B16333   5.525   5.368   2.197 -0.2459 -0.5111 -2.4392
  148OSM   H13C16334   5.634   5.507   2.223 -0.5081 -0.5529  2.2104
  148OSM    C1216335   5.860   5.389   2.155  0.0695  0.0706 -0.8146
  148OSM   H12A16336   5.926   5.386   2.070  0.3768  1.3207 -0.6440
  148OSM   H12B16337   5.886   5.313   2.228  0.1862  0.6366 -0.2577
  148OSM    C1116338   5.878   5.528   2.225  0.1039  0.4313 -0.1717
  148OSM   H11A16339   5.980   5.539   2.269  0.0755  0.7384 -0.1743
  148OSM   H11B16340   5.815   5.524   2.316 -0.7956  1.1360 -0.7488
  148OSM      P16341   5.933   5.725   2.061  0.0321  0.2534  0.3764
  148OSM    O1316342   5.988   5.641   1.955 -0.3441 -0.2127  0.5115
  148OSM    O1416343   5.853   5.835   2.001 -0.6539 -0.0075  0.5941
  148OSM    O1116344   6.046   5.779   2.154  0.3010 -0.5501  0.3147
  148OSM    O1216345   5.835   5.645   2.153  0.4011  0.2272  0.4373
  148OSM    C1S16346   6.021   5.849   2.271 -0.3218  0.2439  0.5143
  148OSM    H1S16347   5.921   5.825   2.311 -0.3584 -0.7829 -0.1468
  148OSM    H1T16348   6.038   5.957   2.249  1.6811 -0.0999  0.1482
  148OSM     NF16349   6.095   5.865   2.508  0.4171  0.1371  0.0995
  148OSM    HNF16350   6.161   5.935   2.532  0.0039  0.5574  0.0367
  148OSM    C2S16351   6.125   5.802   2.382 -0.2470 -0.1169  0.0867
  148OSM    H2S16352   6.107   5.693   2.392  1.6498 -0.4602  0.0410
  148OSM    C3S16353   6.273   5.820   2.336  0.3607  0.1575 -1.0393
  148OSM    H3S16354   6.280   5.931   2.340  1.2751  0.0783  0.3050
  148OSM     O316355   6.302   5.784   2.204  0.0630 -0.1837 -0.0130
  148OSM    HO316356   6.223   5.776   2.151  0.3595  0.9586 -0.6501
  148OSM    C4S16357   6.367   5.756   2.433 -1.0244  0.2176  0.6980
  148OSM    H4S16358   6.374   5.812   2.527 -1.0511 -2.4278  2.3992
  148OSM    C5S16359   6.436   5.641   2.409 -0.4903  0.0891  1.3315
  148OSM    H5S16360   6.419   5.591   2.312  0.2507 -1.8128  2.1396
  148OSM    C6S16361   6.518   5.567   2.507 -0.1259  0.5630  0.3628
  148OSM    H6S16362   6.621   5.555   2.467 -0.5654 -1.1912 -0.3319
  148OSM    H6T16363   6.468   5.469   2.525 -0.1725  0.3599 -0.8174
  148OSM    C7S16364   6.528   5.623   2.645 -0.1399 -0.1377  0.4814
  148OSM    H7S16365   6.435   5.600   2.702 -2.6896 -0.0098 -3.2229
  148OSM    H7T16366   6.557   5.730   2.654  1.1677 -0.2870 -1.3635
  148OSM    C8S16367   6.641   5.547   2.721  0.1573 -0.6643  0.6547
  148OSM    H8S16368   6.737   5.548   2.666  0.1105 -1.3568  0.5494
  148OSM    H8T16369   6.606   5.442   2.734  1.5720 -1.1741  0.5078
  148OSM    C9S16370   6.667   5.599   2.869  0.7559  0.2833 -0.4381
  148OSM    H9S16371   6.719   5.697   2.860  0.0496  0.6694 -0.3994
  148OSM    H9T16372   6.738   5.531   2.921  1.8778 -0.1362 -2.4312
  148OSM   C10S16373   6.541   5.616   2.960  0.4888 -0.3997 -0.2505
  148OSM   H10S16374   6.508   5.511   2.974  2.9750 -1.5059 -1.8910
  148OSM   H10T16375   6.456   5.672   2.916  0.1780 -1.4520 -1.0307
  148OSM   C11S16376   6.576   5.681   3.100 -0.0723  0.3120  0.4200
  148OSM   H11S16377   6.477   5.696   3.148  0.4996 -0.7405  2.0061
  148OSM   H11T16378   6.631   5.778   3.095  0.4273 -0.0338 -1.4445
  148OSM   C12S16379   6.653   5.590   3.190 -0.8221  0.2574 -0.0194
  148OSM   H12S16380   6.748   5.552   3.146 -0.3713 -1.9805  2.6106
  148OSM   H12T16381   6.600   5.493   3.195  1.5171 -1.0698  0.3258
  148OSM   C13S16382   6.674   5.653   3.328 -1.2417  0.4395  0.5544
  148OSM   H13S16383   6.572   5.637   3.369 -0.8078 -2.0158  0.7863
  148OSM   H13T16384   6.691   5.761   3.309 -0.5467  0.0212 -1.4112
  148OSM   C14S16385   6.782   5.590   3.414 -0.1048  1.1807  0.2030
  148OSM   H14S16386   6.876   5.611   3.358 -0.8070 -3.1972 -3.1490
  148OSM   H14T16387   6.784   5.481   3.432  0.3015  0.8929 -1.4468
  148OSM   C15S16388   6.791   5.653   3.556  0.1871 -0.1295 -0.5314
  148OSM   H15S16389   6.815   5.761   3.544 -1.3127  0.1541 -1.2383
  148OSM   H15T16390   6.873   5.606   3.614 -0.4735  0.6840  1.1260
  148OSM   C16S16391   6.656   5.634   3.627  0.2876  0.5401  0.1911
  148OSM   H16S16392   6.614   5.531   3.628  1.3647  0.0137 -2.0676
  148OSM   H16T16393   6.588   5.693   3.563 -1.6830 -1.2990  0.4780
  148OSM   C17S16394   6.667   5.690   3.767 -0.1910  0.7438 -0.0601
  148OSM   H17S16395   6.562   5.694   3.803  0.1611 -0.3319  1.1547
  148OSM   H17T16396   6.715   5.789   3.751 -1.2839  1.5180  1.1905
  148OSM   C18S16397   6.756   5.608   3.863  0.1133  0.2822 -0.4137
  148OSM   H18S16398   6.734   5.648   3.964  0.0052  0.9762 -0.7073
  148OSM   H18T16399   6.863   5.620   3.836  0.1792  2.3535  0.6151
  148OSM   H18U16400   6.725   5.501   3.862 -2.8459  0.9819  2.1401
  148OSM    C1F16401   5.983   5.847   2.567  0.2881 -0.1692 -1.2360
  148OSM     OF16402   5.908   5.757   2.530 -0.1776 -0.1630 -0.8748
  148OSM    C2F16403   5.949   5.953   2.667 -0.0837 -0.8284 -0.4262
  148OSM    H2F16404   5.996   6.052   2.648  1.0838 -0.8817  1.8624
  148OSM    H2G16405   5.994   5.923   2.764 -2.0839 -0.1103  0.7837
  148OSM    C3F16406   5.794   5.977   2.692 -0.0106  0.3767  0.6160
  148OSM    H3F16407   5.738   5.882   2.705  0.0138  0.3401  0.4501
  148OSM    H3G16408   5.755   6.018   2.597 -1.9165 -0.5155  0.9717
  148OSM    C4F16409   5.756   6.074   2.798 -0.7335 -0.8031  0.3919
  148OSM    H4F16410   5.650   6.107   2.789 -0.2694  1.3909  2.0961
  148OSM    H4G16411   5.813   6.168   2.777 -1.0308 -0.4875  0.9604
  148OSM    C5F16412   5.790   6.038   2.946  0.3613 -0.1051  0.3696
  148OSM    H5F16413   5.756   6.126   3.005  0.2868  1.0714 -1.3353
  148OSM    H5G16414   5.900   6.037   2.953  0.4222  2.4005  0.6379
  148OSM    C6F16415   5.744   5.895   2.994 -0.3204 -0.0694 -0.6931
  148OSM    H6F16416   5.810   5.825   2.939 -0.1469 -1.8262  1.6288
  148OSM    H6G16417   5.637   5.870   2.975 -1.3456  1.5936  2.1974
  148OSM    C7F16418   5.771   5.884   3.146 -0.5183  0.0885  0.3057
  148OSM    H7F16419   5.879   5.909   3.157 -0.5710  0.3421  0.2621
  148OSM    H7G16420   5.766   5.781   3.185  2.5404 -0.0268  0.6695
  148OSM    C8F16421   5.697   5.990   3.233  0.5939 -0.2291 -0.3634
  148OSM    H8F16422   5.590   5.979   3.206 -0.0121  0.3061  1.6368
  148OSM    H8G16423   5.727   6.091   3.198  0.4873  0.0679  0.3724
  148OSM    C9F16424   5.734   5.966   3.371 -0.0270 -0.3324 -0.0949
  148OSM    H9F16425   5.843   5.957   3.389  0.2000 -1.7346 -1.9113
  148OSM   C10F16426   5.638   5.938   3.466 -0.3445  0.4916 -0.2365
  148OSM   H10F16427   5.673   5.912   3.567  1.6775 -0.5539 -1.1401
  148OSM   C11F16428   5.485   5.934   3.446  0.3843 -0.4667 -0.3006
  148OSM   H11F16429   5.448   5.997   3.363 -1.4155  1.2973  1.7122
  148OSM   H11G16430   5.439   5.990   3.530  3.1605  0.8510  0.4236
  148OSM   C12F16431   5.427   5.786   3.423 -0.1120 -0.1418  0.6400
  148OSM   H12F16432   5.448   5.707   3.499 -0.2205  0.0618  0.8814
  148OSM   H12G16433   5.481   5.744   3.335 -0.8921 -0.4872  0.3183
  148OSM   C13F16434   5.279   5.778   3.395 -0.1738 -0.1841  0.6267
  148OSM   H13F16435   5.236   5.878   3.418 -0.6681  0.0293 -1.0558
  148OSM   H13G16436   5.227   5.700   3.453 -2.1166 -0.1186 -0.9128
  148OSM   C14F16437   5.259   5.771   3.243  0.5440 -0.5128  0.4214
  148OSM   H14F16438   5.308   5.678   3.207 -4.2422 -3.5251  0.8736
  148OSM   H14G16439   5.311   5.860   3.201 -2.0220  1.0361  0.3356
  148OSM   C15F16440   5.110   5.768   3.200  0.5263  0.8512 -0.5205
  148OSM   H15F16441   5.080   5.868   3.240  0.8189  0.7566 -0.0628
  148OSM   H15G16442   5.048   5.698   3.259  2.6669  1.0069  2.0974
  148OSM   C16F16443   5.076   5.745   3.054  0.1921  0.2354  0.8024
  148OSM   H16F16444   5.126   5.826   2.996  1.5619 -2.0794 -1.4866
  148OSM   H16G16445   4.971   5.765   3.025 -0.4829 -1.2523  2.0536
  148OSM   C17F16446   5.131   5.611   3.001 -0.5776  0.9572  0.4803
  148OSM   H17F16447   5.099   5.530   3.070 -1.7759  0.7560 -0.2952
  148OSM   H17G16448   5.242   5.615   3.011 -0.5536  2.0029 -0.0107
  148OSM   C18F16449   5.086   5.564   2.864  0.0152  0.5406 -0.2266
  148OSM   H18F16450   4.980   5.533   2.852 -0.1447  1.5780 -1.8631
  148OSM   H18G16451   5.153   5.482   2.830 -0.4042  0.0107  0.2100
  148OSM   H18H16452   5.095   5.638   2.782  1.5171  2.1241  1.2939
  149OSM      N16453   1.052   4.993   1.653 -0.0396  0.9291  0.3191
  149OSM    C1516454   1.154   4.916   1.738 -0.3698  0.3838 -0.1424
  149OSM   H15A16455   1.167   4.819   1.694 -1.6704  0.3716 -0.5465
  149OSM   H15B16456   1.114   4.909   1.838 -0.9101  0.7900 -0.3207
  149OSM   H15C16457   1.251   4.963   1.744 -0.9367  1.4786  1.2327
  149OSM    C1416458   1.105   4.967   1.513 -0.4349  0.0041  0.1319
  149OSM   H14A16459   1.211   4.982   1.509 -0.6723  1.7615 -0.4146
  149OSM   H14B16460   1.053   5.038   1.450  0.3202  0.5977  0.1649
  149OSM   H14C16461   1.076   4.865   1.494  1.1684 -0.4251 -0.1041
  149OSM    C1316462   0.918   4.925   1.661  0.1057  0.0977 -0.6295
  149OSM   H13A16463   0.900   4.923   1.768 -0.5910  0.5154 -0.7319
  149OSM   H13B16464   0.937   4.826   1.624  1.9134  0.8125 -1.7405
  149OSM   H13C16465   0.847   4.974   1.596 -1.4120  1.9369  2.2033
  149OSM    C1216466   1.046   5.133   1.691 -0.7535  0.7613 -0.0962
  149OSM   H12A16467   1.148   5.168   1.701 -0.3317 -0.3391 -0.4199
  149OSM   H12B16468   0.998   5.141   1.787  1.2115  2.4971  0.8346
  149OSM    C1116469   0.976   5.234   1.589 -0.4400  0.0606 -0.6455
  149OSM   H11A16470   1.028   5.219   1.491  2.7768  3.6349  0.2641
  149OSM   H11B16471   0.999   5.340   1.613  0.3807  0.1705 -1.8278
  149OSM      P16472   0.732   5.226   1.696  0.0525 -0.2787  0.1356
  149OSM    O1316473   0.683   5.364   1.672  0.4023 -0.2289 -0.3916
  149OSM    O1416474   0.624   5.120   1.691  0.2042  0.0342 -0.1955
  149OSM    O1116475   0.813   5.215   1.834 -0.5494 -0.6157  0.0553
  149OSM    O1216476   0.832   5.202   1.578  0.2715  0.0044 -0.3284
  149OSM    C1S16477   0.744   5.218   1.958  0.6797  0.1879  0.3758
  149OSM    H1S16478   0.708   5.112   1.959  1.0735  0.0546  1.3523
  149OSM    H1T16479   0.654   5.282   1.965 -1.7947 -2.8949 -0.6308
  149OSM     NF16480   0.758   5.220   2.204  0.2436  0.4075  0.3569
  149OSM    HNF16481   0.736   5.304   2.251  3.4428 -0.2254  3.4332
  149OSM    C2S16482   0.834   5.235   2.081  0.1377 -0.1955 -0.1697
  149OSM    H2S16483   0.918   5.162   2.082  0.1828 -0.1458  1.1699
  149OSM    C3S16484   0.929   5.365   2.071  0.1073  0.3838  0.1563
  149OSM    H3S16485   0.870   5.459   2.070 -1.8068 -0.7604 -1.5644
  149OSM     O316486   1.007   5.373   1.948  0.1886 -0.0655 -0.1152
  149OSM    HO316487   0.945   5.342   1.882 -0.6555  0.3401  0.4558
  149OSM    C4S16488   1.017   5.365   2.195  0.1902 -0.8978  0.0518
  149OSM    H4S16489   0.987   5.438   2.272  0.8208  0.4862 -0.9723
  149OSM    C5S16490   1.135   5.303   2.213 -1.3242 -0.1398 -0.0158
  149OSM    H5S16491   1.169   5.239   2.130  2.0944  1.6200 -0.1460
  149OSM    C6S16492   1.235   5.318   2.330 -0.3050 -0.4221 -0.4659
  149OSM    H6S16493   1.313   5.389   2.295 -0.2833 -0.4631 -0.4998
  149OSM    H6T16494   1.280   5.220   2.356  0.3952 -0.2579 -1.0327
  149OSM    C7S16495   1.175   5.358   2.469  0.3900 -0.2805  0.9591
  149OSM    H7S16496   1.135   5.461   2.456 -1.3159 -0.8408  1.3799
  149OSM    H7T16497   1.264   5.371   2.534  1.9957 -3.0506 -0.4951
  149OSM    C8S16498   1.073   5.269   2.537 -0.2311 -0.1819 -0.0852
  149OSM    H8S16499   1.116   5.168   2.524  2.2862  0.9272 -1.0352
  149OSM    H8T16500   0.991   5.264   2.462 -1.2602 -0.9435  1.0577
  149OSM    C9S16501   1.019   5.298   2.678 -0.6834 -0.3789  0.1106
  149OSM    H9S16502   0.953   5.209   2.686 -1.0993 -0.5863 -3.7683
  149OSM    H9T16503   0.957   5.390   2.686 -0.4434 -0.2884  1.2198
  149OSM   C10S16504   1.138   5.304   2.774  0.4548 -0.3452  0.3043
  149OSM   H10S16505   1.196   5.397   2.756 -0.5214  0.3243  0.5436
  149OSM   H10T16506   1.205   5.221   2.742  0.4539 -0.1768 -0.1414
  149OSM   C11S16507   1.092   5.290   2.922 -0.2004 -0.1724  0.1752
  149OSM   H11S16508   1.031   5.198   2.937 -0.9639  0.4165  0.7760
  149OSM   H11T16509   1.024   5.372   2.953 -0.6375  0.3884 -2.0524
  149OSM   C12S16510   1.208   5.308   3.027  0.4560 -0.4145 -0.7207
  149OSM   H12S16511   1.296   5.243   3.008  0.9845 -0.5917  1.9505
  149OSM   H12T16512   1.170   5.269   3.124 -1.3897 -0.0454 -1.2663
  149OSM   C13S16513   1.266   5.449   3.051 -0.1162 -0.3103  0.6814
  149OSM   H13S16514   1.181   5.508   3.090  0.5492 -0.0510  1.8078
  149OSM   H13T16515   1.304   5.493   2.957 -1.7273 -0.2346  0.0366
  149OSM   C14S16516   1.364   5.456   3.161 -0.1035 -0.1088 -0.2411
  149OSM   H14S16517   1.444   5.380   3.142 -1.3688 -1.3693 -0.6725
  149OSM   H14T16518   1.317   5.411   3.250 -1.6125 -2.3243 -2.0267
  149OSM   C15S16519   1.424   5.590   3.179 -0.4169  0.5698 -0.0766
  149OSM   H15S16520   1.466   5.601   3.281  1.2643  0.8984 -0.7824
  149OSM   H15T16521   1.345   5.668   3.183 -0.9825 -0.0344  1.1078
  149OSM   C16S16522   1.530   5.620   3.072 -0.7197  0.2154 -0.1009
  149OSM   H16S16523   1.492   5.624   2.967  0.2962 -1.5262 -0.5843
  149OSM   H16T16524   1.605   5.538   3.076 -0.3792  0.5589  0.6060
  149OSM   C17S16525   1.610   5.751   3.106  0.2060  0.0048 -0.2370
  149OSM   H17S16526   1.703   5.748   3.045  1.4894  0.1759  1.5962
  149OSM   H17T16527   1.632   5.749   3.215  0.1395  1.8830 -0.1502
  149OSM   C18S16528   1.544   5.885   3.077  0.1374  0.9368 -0.5440
  149OSM   H18S16529   1.448   5.904   3.129 -1.3742  0.1797 -2.8647
  149OSM   H18T16530   1.518   5.900   2.970 -0.8216  0.1626 -0.4351
  149OSM   H18U16531   1.620   5.962   3.103  1.7145 -0.7420  0.0327
  149OSM    C1F16532   0.699   5.103   2.234  0.6203 -0.0170 -0.2313
  149OSM     OF16533   0.729   5.000   2.172  0.0773 -0.5648 -0.2717
  149OSM    C2F16534   0.587   5.111   2.331 -0.3358  0.2861 -0.3875
  149OSM    H2F16535   0.490   5.082   2.286 -0.9382 -0.1077  1.0814
  149OSM    H2G16536   0.580   5.215   2.368 -2.7633 -1.1481  3.8599
  149OSM    C3F16537   0.621   5.025   2.460  0.1107  0.1789  0.7692
  149OSM    H3F16538   0.730   5.032   2.481  0.5023  0.3904 -1.1931
  149OSM    H3G16539   0.606   4.918   2.434  0.0379  0.2488  0.5198
  149OSM    C4F16540   0.551   5.066   2.595 -0.1114 -0.0603  0.8456
  149OSM    H4F16541   0.448   5.030   2.614 -0.2300  0.0901  0.4843
  149OSM    H4G16542   0.555   5.177   2.589  2.5359 -0.1100  0.4842
  149OSM    C5F16543   0.636   5.033   2.725  0.3044  0.2957  0.4346
  149OSM    H5F16544   0.726   5.098   2.727  0.9904 -0.6283  1.5690
  149OSM    H5G16545   0.673   4.929   2.739 -1.4210 -0.1820  1.9147
  149OSM    C6F16546   0.564   5.034   2.855  0.2344 -0.0715  0.7724
  149OSM    H6F16547   0.480   4.961   2.851 -0.1369  0.2639 -4.3459
  149OSM    H6G16548   0.515   5.134   2.856 -1.8298 -0.9892 -0.6859
  149OSM    C7F16549   0.652   5.026   2.979  0.2854 -0.6157  0.4482
  149OSM    H7F16550   0.697   4.924   2.980 -0.9143 -1.1752 -0.1513
  149OSM    H7G16551   0.580   5.036   3.064  0.9290  0.4883  0.8801
  149OSM    C8F16552   0.765   5.129   2.996  0.6206 -0.4178  0.7043
  149OSM    H8F16553   0.840   5.102   2.918  0.2246 -0.7931  0.4511
  149OSM    H8G16554   0.812   5.106   3.095  0.0437  1.1016  1.3636
  149OSM    C9F16555   0.720   5.276   2.983 -0.5638 -0.5625 -0.1550
  149OSM    H9F16556   0.675   5.302   2.886  0.3788 -1.1361 -0.7618
  149OSM   C10F16557   0.740   5.368   3.078 -0.0690  0.2391  0.3791
  149OSM   H10F16558   0.698   5.469   3.065  0.6560  0.3957 -0.8130
  149OSM   C11F16559   0.808   5.360   3.211 -0.1577 -0.0712  0.3164
  149OSM   H11F16560   0.876   5.272   3.206 -0.6743 -0.4636  0.0257
  149OSM   H11G16561   0.738   5.335   3.294 -1.4822 -0.4341 -0.8557
  149OSM   C12F16562   0.902   5.483   3.229  0.1723  0.0619 -0.1050
  149OSM   H12F16563   0.832   5.568   3.215 -1.4680 -1.4680 -1.7137
  149OSM   H12G16564   0.978   5.491   3.148 -0.2206 -0.3368 -0.5170
  149OSM   C13F16565   0.971   5.474   3.364  0.6112  0.6114  0.2643
  149OSM   H13F16566   1.062   5.538   3.361 -0.1550  1.7975  1.1107
  149OSM   H13G16567   1.014   5.374   3.385 -0.1354 -0.4822 -2.8676
  149OSM   C14F16568   0.880   5.510   3.479 -0.3486 -0.4357  0.4024
  149OSM   H14F16569   0.782   5.544   3.438  0.2801  0.4879 -0.3737
  149OSM   H14G16570   0.916   5.596   3.539 -2.0049  1.8714 -1.6445
  149OSM   C15F16571   0.864   5.399   3.576 -0.3079  0.5330 -0.1324
  149OSM   H15F16572   0.967   5.364   3.600 -0.2771  1.1199  0.6125
  149OSM   H15G16573   0.808   5.318   3.525  0.0588 -0.7394  1.4396
  149OSM   C16F16574   0.776   5.444   3.687 -0.9312 -0.2719 -0.3278
  149OSM   H16F16575   0.681   5.388   3.679 -0.6064 -0.5413 -4.4233
  149OSM   H16G16576   0.740   5.547   3.667  1.0701  0.4331 -0.5139
  149OSM   C17F16577   0.851   5.437   3.825  0.1400  0.5765 -0.0357
  149OSM   H17F16578   0.920   5.524   3.817  0.3846  0.4940  0.9778
  149OSM   H17G16579   0.913   5.345   3.838  0.1786  0.6529  0.3462
  149OSM   C18F16580   0.755   5.449   3.948 -0.9181  0.5003 -0.3573
  149OSM   H18F16581   0.808   5.448   4.046 -0.7470 -1.1791 -0.4472
  149OSM   H18G16582   0.684   5.364   3.951  0.2432 -0.4870 -0.0396
  149OSM   H18H16583   0.688   5.538   3.942 -5.5113 -2.6212 -0.6476
  150OSM      N16584   0.453   0.569   1.757 -0.1443  0.3479  0.5539
  150OSM    C1516585   0.379   0.504   1.646  0.0206  0.0464 -0.0862
  150OSM   H15A16586   0.371   0.396   1.650  0.6930  0.0111  2.4330
  150OSM   H15B16587   0.431   0.510   1.552 -0.7340  0.0419 -0.5180
  150OSM   H15C16588   0.282   0.550   1.628 -0.0720  0.8123  2.0135
  150OSM    C1416589   0.600   0.533   1.750 -0.0756  0.3649  0.2268
  150OSM   H14A16590   0.647   0.592   1.673 -0.3284  0.4483  0.1376
  150OSM   H14B16591   0.619   0.427   1.737  1.7274  0.4334  1.7505
  150OSM   H14C16592   0.655   0.569   1.837  0.7458 -0.3063 -0.0003
  150OSM    C1316593   0.430   0.712   1.735  1.1461 -0.9181 -0.3943
  150OSM   H13A16594   0.488   0.769   1.805  0.7136 -0.7721 -0.1540
  150OSM   H13B16595   0.323   0.727   1.741  1.1974 -0.0482 -1.3774
  150OSM   H13C16596   0.465   0.742   1.637 -0.2200  0.1834 -0.5811
  150OSM    C1216597   0.401   0.524   1.892  0.2649 -0.2535  0.2750
  150OSM   H12A16598   0.438   0.425   1.918 -0.2377 -0.2783  0.9153
  150OSM   H12B16599   0.294   0.510   1.889  0.2840 -0.3203 -0.2691
  150OSM    C1116600   0.433   0.614   2.016 -0.5102 -0.5155  1.1005
  150OSM   H11A16601   0.404   0.561   2.110 -0.4187  1.3250  2.2169
  150OSM   H11B16602   0.362   0.698   2.011  1.1324  0.8324 -1.3095
  150OSM      P16603   0.608   0.801   2.084  0.1466  0.3072 -0.0298
  150OSM    O1316604   0.753   0.798   2.113  0.5469 -0.0482 -0.5798
  150OSM    O1416605   0.553   0.911   1.999  0.6193  0.3381  0.5086
  150OSM    O1116606   0.543   0.805   2.228  0.1631 -0.6321 -0.3820
  150OSM    O1216607   0.566   0.662   2.022 -0.3318 -0.2238  0.5922
  150OSM    C1S16608   0.599   0.725   2.331 -0.3016  0.5989 -0.5632
  150OSM    H1S16609   0.695   0.771   2.364 -0.4395  2.6400 -2.7793
  150OSM    H1T16610   0.636   0.627   2.293  1.0962  0.0337  1.9877
  150OSM     NF16611   0.577   0.638   2.569 -0.4169 -0.3903  0.1350
  150OSM    HNF16612   0.528   0.564   2.612  0.1434  0.0157  1.5120
  150OSM    C2S16613   0.505   0.701   2.453 -0.2808 -0.1975 -0.3112
  150OSM    H2S16614   0.470   0.800   2.490  0.8598 -0.2626  1.0443
  150OSM    C3S16615   0.376   0.625   2.408  0.1681  0.3446 -0.3955
  150OSM    H3S16616   0.408   0.537   2.348  1.5699  1.1576 -0.8687
  150OSM     O316617   0.290   0.696   2.310  0.3605  0.1981 -0.2503
  150OSM    HO316618   0.343   0.774   2.293  3.3285 -1.8906 -1.4336
  150OSM    C4S16619   0.300   0.587   2.534 -0.0730  0.0884 -0.1229
  150OSM    H4S16620   0.361   0.525   2.602  1.4958  0.6397 -0.9851
  150OSM    C5S16621   0.193   0.649   2.583  0.6806  1.2082 -0.4004
  150OSM    H5S16622   0.141   0.728   2.527 -3.2774 -1.8459 -1.4935
  150OSM    C6S16623   0.131   0.628   2.722  0.4309 -0.2549  0.0962
  150OSM    H6S16624   0.020   0.634   2.724  0.4643  0.9621 -0.7640
  150OSM    H6T16625   0.150   0.716   2.788 -2.0652  1.1608 -0.9295
  150OSM    C7S16626   0.163   0.492   2.780  0.1446 -0.5794  0.2279
  150OSM    H7S16627   0.270   0.480   2.805  0.5483 -0.8605 -1.5314
  150OSM    H7T16628   0.139   0.420   2.699  2.4252 -1.0988 -0.0316
  150OSM    C8S16629   0.081   0.440   2.900  0.0331 -0.7721  0.4884
  150OSM    H8S16630   0.115   0.343   2.943 -0.7775 -1.8770 -1.2727
  150OSM    H8T16631  -0.016   0.410   2.855 -0.6030 -0.4920  1.6374
  150OSM    C9S16632   0.062   0.542   3.016 -0.9004  0.6158  0.4506
  150OSM    H9S16633   0.022   0.640   2.982  1.5969  1.2534 -0.8593
  150OSM    H9T16634   0.162   0.567   3.057 -0.1586  6.0448 -3.5262
  150OSM   C10S16635  -0.033   0.499   3.125 -0.2142 -0.2980 -0.3779
  150OSM   H10S16636   0.002   0.400   3.162 -1.5111 -0.4004  0.6641
  150OSM   H10T16637  -0.136   0.488   3.085  0.4588 -1.2895 -1.9638
  150OSM   C11S16638  -0.043   0.605   3.229 -0.3971 -0.5227 -0.4283
  150OSM   H11S16639  -0.101   0.687   3.183 -1.5658  0.0945  1.9512
  150OSM   H11T16640   0.062   0.638   3.243 -0.8562  1.8443 -2.0500
  150OSM   C12S16641  -0.090   0.568   3.367 -0.1246 -0.6500 -0.2510
  150OSM   H12S16642  -0.032   0.491   3.423  0.6103  1.3453  1.9322
  150OSM   H12T16643  -0.194   0.532   3.352  0.2621 -1.2266 -1.7228
  150OSM   C13S16644  -0.090   0.690   3.454  0.1485 -0.2411  0.4893
  150OSM   H13S16645  -0.163   0.766   3.419  1.1916  0.5092 -0.1100
  150OSM   H13T16646   0.007   0.741   3.469  0.6070 -1.1437  0.6630
  150OSM   C14S16647  -0.136   0.647   3.594  0.3695  0.2962 -0.0763
  150OSM   H14S16648  -0.072   0.567   3.638  0.2296  0.7814  1.0324
  150OSM   H14T16649  -0.238   0.604   3.582  1.7188 -2.9487 -1.0223
  150OSM   C15S16650  -0.154   0.751   3.702 -0.2852  0.2857  0.8083
  150OSM   H15S16651  -0.233   0.821   3.668  0.0651 -0.4660 -1.7368
  150OSM   H15T16652  -0.056   0.799   3.721 -0.3314  1.3301 -1.2960
  150OSM   C16S16653  -0.203   0.693   3.843  0.2657 -0.1390  0.2538
  150OSM   H16S16654  -0.135   0.610   3.872 -0.7939 -1.0040  0.3373
  150OSM   H16T16655  -0.302   0.642   3.832  0.0731 -0.0188  1.3279
  150OSM   C17S16656  -0.210   0.794   3.964  0.1036 -0.2827 -0.0100
  150OSM   H17S16657  -0.268   0.750   4.049 -0.8067  2.2051  0.7600
  150OSM   H17T16658  -0.286   0.870   3.933 -1.5401 -2.6765 -2.2519
  150OSM   C18S16659  -0.083   0.851   4.019 -0.0360 -0.7806  1.0002
  150OSM   H18S16660  -0.028   0.782   4.087 -1.1301  1.2133  4.1397
  150OSM   H18T16661  -0.102   0.936   4.088 -0.5152 -1.4872  1.7824
  150OSM   H18U16662  -0.026   0.902   3.939 -1.6282 -0.2382  0.1725
  150OSM    C1F16663   0.682   0.698   2.625  0.3890  0.0253 -0.1921
  150OSM     OF16664   0.720   0.810   2.599  0.0543  0.4159  0.2732
  150OSM    C2F16665   0.738   0.627   2.747  0.2421 -0.1496 -0.1898
  150OSM    H2F16666   0.849   0.629   2.744  0.2796 -0.7847  0.4455
  150OSM    H2G16667   0.688   0.528   2.744 -1.3383  0.6402 -1.5580
  150OSM    C3F16668   0.698   0.704   2.873 -0.1807  0.2607 -0.4209
  150OSM    H3F16669   0.748   0.803   2.867 -0.6145  0.4894 -0.2579
  150OSM    H3G16670   0.752   0.660   2.960  0.5856  0.1456 -0.9371
  150OSM    C4F16671   0.540   0.708   2.882 -0.0550  0.0785 -0.1028
  150OSM    H4F16672   0.509   0.607   2.849  1.9250 -0.1004 -1.5469
  150OSM    H4G16673   0.503   0.790   2.817 -2.9421  0.6954  2.0659
  150OSM    C5F16674   0.490   0.739   3.026  0.0438 -0.0578 -0.2631
  150OSM    H5F16675   0.401   0.805   3.019  0.4286  0.4257 -0.6701
  150OSM    H5G16676   0.574   0.791   3.076  1.0685 -1.6445 -0.2745
  150OSM    C6F16677   0.452   0.612   3.104  0.1321 -0.1320  0.6732
  150OSM    H6F16678   0.543   0.549   3.117  0.7602  0.7445  0.5780
  150OSM    H6G16679   0.387   0.548   3.040  0.5442 -1.4188  1.4907
  150OSM    C7F16680   0.392   0.630   3.244 -0.5613 -0.2198 -0.0506
  150OSM    H7F16681   0.373   0.529   3.286  1.2463 -0.5681  0.0007
  150OSM    H7G16682   0.293   0.681   3.238 -0.9909 -1.1489 -1.4407
  150OSM    C8F16683   0.496   0.701   3.336  0.0138  0.1515 -0.3866
  150OSM    H8F16684   0.507   0.806   3.300  0.2272  0.0387 -0.6594
  150OSM    H8G16685   0.585   0.635   3.328  0.7812  0.7972  1.9773
  150OSM    C9F16686   0.441   0.700   3.478  0.7064  0.2766  0.4015
  150OSM    H9F16687   0.422   0.596   3.509 -1.6347 -0.1594 -2.1209
  150OSM   C10F16688   0.419   0.804   3.559 -0.1526  0.2391  0.0262
  150OSM   H10F16689   0.378   0.787   3.660  1.6562 -3.1258  0.3365
  150OSM   C11F16690   0.441   0.954   3.530  0.2282 -0.4704  0.2604
  150OSM   H11F16691   0.526   0.953   3.458 -0.9912  2.0788 -1.3405
  150OSM   H11G16692   0.477   0.998   3.625  0.1759  1.6960 -0.6819
  150OSM   C12F16693   0.326   1.027   3.469 -0.2227  0.1839  0.1675
  150OSM   H12F16694   0.302   0.983   3.370 -1.4457  1.7123 -0.2444
  150OSM   H12G16695   0.350   1.133   3.445 -1.5254  0.6309  0.7319
  150OSM   C13F16696   0.196   1.021   3.554 -0.2946  0.6040 -0.0868
  150OSM   H13F16697   0.204   0.924   3.609 -1.0172  0.0163 -0.9856
  150OSM   H13G16698   0.109   1.000   3.487 -1.9043 -1.0415  2.3294
  150OSM   C14F16699   0.165   1.134   3.648 -0.3359  0.3092  0.0664
  150OSM   H14F16700   0.153   1.229   3.591  1.0515  0.9356  0.7558
  150OSM   H14G16701   0.247   1.150   3.721  0.1981  2.5492 -0.9379
  150OSM   C15F16702   0.027   1.114   3.708 -1.3618  0.0554 -0.1735
  150OSM   H15F16703   0.033   1.014   3.756  1.6459 -1.0701 -2.5791
  150OSM   H15G16704  -0.038   1.087   3.622 -2.4908 -0.1836  0.7223
  150OSM   C16F16705  -0.026   1.226   3.801 -1.0470  0.2385  0.7617
  150OSM   H16F16706  -0.013   1.317   3.738 -0.0558 -0.1297  0.4152
  150OSM   H16G16707   0.041   1.232   3.889  1.3562  0.1602 -0.9450
  150OSM   C17F16708  -0.169   1.211   3.830 -0.6701 -0.0019  0.1836
  150OSM   H17F16709  -0.182   1.124   3.897 -0.1670 -0.4719 -0.3101
  150OSM   H17G16710  -0.223   1.196   3.734 -1.0383 -2.2001  0.6903
  150OSM   C18F16711  -0.225   1.338   3.903 -0.5813  0.5288  0.0639
  150OSM   H18F16712  -0.324   1.367   3.863  0.1186  0.2287 -2.0444
  150OSM   H18G16713  -0.153   1.422   3.902  2.2813 -1.7251 -1.0280
  150OSM   H18H16714  -0.239   1.315   4.010  0.3141 -0.9883 -0.1059
  151OSM      N16715   5.897   0.174   1.686  0.3442 -0.4001 -1.1664
  151OSM    C1516716   5.846   0.107   1.556 -0.0893  0.2426  0.2122
  151OSM   H15A16717   5.857  -0.000   1.565  0.2972  0.2491 -0.1558
  151OSM   H15B16718   5.892   0.148   1.468 -0.4987  0.1685 -0.0408
  151OSM   H15C16719   5.741   0.122   1.535 -0.7767 -0.7551  2.5948
  151OSM    C1416720   6.044   0.150   1.703 -0.6872 -0.0928  0.0516
  151OSM   H14A16721   6.072   0.046   1.701 -2.5445 -0.6169 -1.2333
  151OSM   H14B16722   6.083   0.198   1.791 -0.6957  0.5518 -0.2901
  151OSM   H14C16723   6.107   0.185   1.622  0.0022 -3.2821 -0.9321
  151OSM    C1316724   5.871   0.323   1.688 -0.6052 -0.0256  0.4869
  151OSM   H13A16725   5.765   0.342   1.681 -0.5364  1.0667  2.0286
  151OSM   H13B16726   5.923   0.371   1.607 -0.5195  0.2251  0.6894
  151OSM   H13C16727   5.917   0.372   1.773  3.2766 -3.9166  0.9912
  151OSM    C1216728   5.822   0.104   1.799 -0.6241 -0.2393  0.3919
  151OSM   H12A16729   5.845  -0.000   1.785  2.0206  0.3694 -0.4473
  151OSM   H12B16730   5.716   0.110   1.782 -0.7545  3.0128  1.6868
  151OSM    C1116731   5.865   0.142   1.938 -0.2589 -0.4941  0.2737
  151OSM   H11A16732   5.975   0.151   1.924 -0.3807 -2.0462 -2.2738
  151OSM   H11B16733   5.851   0.059   2.011 -1.5816 -2.0321 -1.6227
  151OSM      P16734   5.659   0.272   2.043  0.0484 -0.0406 -0.2675
  151OSM    O1316735   5.608   0.410   2.031  0.3206  0.4323  0.3109
  151OSM    O1416736   5.576   0.164   1.988 -0.5578  0.0225  0.2985
  151OSM    O1116737   5.698   0.242   2.199  0.1004  0.6307 -0.1775
  151OSM    O1216738   5.805   0.263   1.981  0.3965 -0.3331 -0.7351
  151OSM    C1S16739   5.825   0.286   2.243 -0.5063 -1.1200 -0.4800
  151OSM    H1S16740   5.845   0.394   2.226  0.8465 -0.8378  2.3888
  151OSM    H1T16741   5.913   0.232   2.203 -0.6612 -2.2775  0.6728
  151OSM     NF16742   5.941   0.354   2.460 -0.0074  0.1435  0.8820
  151OSM    HNF16743   6.039   0.332   2.457  0.2835  0.9212  2.7920
  151OSM    C2S16744   5.844   0.266   2.397 -0.2322 -0.1364  0.0989
  151OSM    H2S16745   5.744   0.288   2.441 -0.0781  1.4591 -0.2769
  151OSM    C3S16746   5.875   0.112   2.425  0.8115  0.6919 -0.0927
  151OSM    H3S16747   5.984   0.099   2.409  0.6239 -2.1675  0.4176
  151OSM     O316748   5.814   0.019   2.332  0.0311 -0.2990 -0.1468
  151OSM    HO316749   5.792   0.072   2.255 -2.2189 -0.4270  0.3201
  151OSM    C4S16750   5.845   0.083   2.570 -0.4129 -0.0009 -0.2737
  151OSM    H4S16751   5.934   0.088   2.635 -0.1742  1.5023 -0.6960
  151OSM    C5S16752   5.727   0.029   2.611  0.3392 -0.4273 -0.5021
  151OSM    H5S16753   5.646   0.000   2.542  0.1421  0.9504 -0.8852
  151OSM    C6S16754   5.688  -0.010   2.749  0.1491  0.0856 -0.0691
  151OSM    H6S16755   5.626  -0.102   2.743  1.2092 -0.5827 -1.8823
  151OSM    H6T16756   5.624   0.073   2.784  0.3456  0.7853 -1.3252
  151OSM    C7S16757   5.790  -0.040   2.860  0.1869  0.0290  1.0521
  151OSM    H7S16758   5.853   0.050   2.840  0.2803 -0.0815  0.8427
  151OSM    H7T16759   5.844  -0.135   2.841 -0.9495 -0.7651  1.6581
  151OSM    C8S16760   5.741  -0.029   3.002 -0.2631 -0.2497 -0.9181
  151OSM    H8S16761   5.665  -0.106   3.027  1.3427 -1.0979  1.7963
  151OSM    H8T16762   5.702   0.075   3.012 -0.0364 -0.1934 -0.6092
  151OSM    C9S16763   5.852  -0.051   3.109  0.0864  0.1033  0.2228
  151OSM    H9S16764   5.921   0.036   3.098 -2.3741  2.0922 -0.2972
  151OSM    H9T16765   5.913  -0.139   3.081  0.3648  0.3642  0.0002
  151OSM   C10S16766   5.797  -0.068   3.252 -0.3728  0.0201 -0.1117
  151OSM   H10S16767   5.727  -0.154   3.242 -0.0974 -0.1512 -0.5913
  151OSM   H10T16768   5.743   0.029   3.260 -1.4112 -0.5096 -0.6190
  151OSM   C11S16769   5.898  -0.086   3.362  0.2209 -0.0677  0.1809
  151OSM   H11S16770   5.983  -0.019   3.337 -0.1659  0.6554  0.7725
  151OSM   H11T16771   5.928  -0.191   3.384  1.2424  0.6298  2.3213
  151OSM   C12S16772   5.835  -0.032   3.498  0.3710 -0.5323 -0.2854
  151OSM   H12S16773   5.771  -0.110   3.545  0.9008 -0.4573  0.5912
  151OSM   H12T16774   5.778   0.061   3.480 -0.3385 -0.7715  0.6652
  151OSM   C13S16775   5.937   0.004   3.600 -0.2867  0.3061 -0.9061
  151OSM   H13S16776   6.020   0.053   3.545  0.1860 -0.1994 -0.6586
  151OSM   H13T16777   5.984  -0.089   3.639 -0.9999 -0.9791 -2.9350
  151OSM   C14S16778   5.868   0.088   3.714  0.3969  0.2315 -0.2177
  151OSM   H14S16779   5.800   0.027   3.777  1.2093 -0.2685  0.1966
  151OSM   H14T16780   5.819   0.165   3.651 -0.3812 -1.5113 -1.8348
  151OSM   C15S16781   5.980   0.127   3.815 -1.0869 -1.0679 -0.2938
  151OSM   H15S16782   5.932   0.205   3.879  0.5345 -1.4561  1.4871
  151OSM   H15T16783   6.063   0.166   3.753  0.4171  0.6646  2.5798
  151OSM   C16S16784   6.030   0.025   3.915  0.3327 -0.9582  0.2848
  151OSM   H16S16785   6.032  -0.067   3.854 -1.5864 -0.7336 -0.1921
  151OSM   H16T16786   5.941   0.009   3.979 -0.7958  1.1480 -0.6324
  151OSM   C17S16787   6.155   0.056   4.004 -0.1437 -0.4944  0.9476
  151OSM   H17S16788   6.228   0.089   3.927 -2.8342  0.8109 -1.2030
  151OSM   H17T16789   6.184  -0.041   4.050  1.2255 -0.6399 -0.1439
  151OSM   C18S16790   6.127   0.150   4.119  0.2852 -0.2471  0.0271
  151OSM   H18S16791   6.025   0.126   4.156  0.3996  1.2934  1.4507
  151OSM   H18T16792   6.106   0.255   4.088  1.1633 -0.1752 -0.3431
  151OSM   H18U16793   6.199   0.150   4.204 -0.3047 -0.9290  0.5408
  151OSM    C1F16794   5.916   0.481   2.478 -0.3188 -0.5295  0.5058
  151OSM     OF16795   5.821   0.542   2.437  0.0617 -0.1383  0.6985
  151OSM    C2F16796   6.019   0.548   2.571  0.5557  0.0217 -0.3232
  151OSM    H2F16797   6.077   0.627   2.518  1.1290 -0.7947 -0.9404
  151OSM    H2G16798   6.087   0.473   2.618  0.9411 -0.7065 -1.9626
  151OSM    C3F16799   5.941   0.612   2.688  0.1142  0.2103  0.1713
  151OSM    H3F16800   5.873   0.697   2.667  1.1331  1.0705  0.2721
  151OSM    H3G16801   6.019   0.658   2.752  0.6674 -0.1308 -0.2480
  151OSM    C4F16802   5.879   0.512   2.779 -0.0175  0.0811 -0.0209
  151OSM    H4F16803   5.956   0.440   2.815 -0.2426 -1.1025 -1.7565
  151OSM    H4G16804   5.813   0.445   2.721  0.1527 -0.9461  0.9405
  151OSM    C5F16805   5.794   0.568   2.889 -0.2553 -0.1512  0.0263
  151OSM    H5F16806   5.709   0.619   2.838  0.7544  0.0595 -1.4954
  151OSM    H5G16807   5.846   0.653   2.938 -0.2468 -0.8246  1.2168
  151OSM    C6F16808   5.740   0.460   2.984  0.3396  0.2364  0.1082
  151OSM    H6F16809   5.832   0.404   3.009  0.5614  0.8870  0.7914
  151OSM    H6G16810   5.676   0.388   2.928  1.9343  0.9294 -2.7768
  151OSM    C7F16811   5.672   0.524   3.098 -0.9258 -0.4134  1.0770
  151OSM    H7F16812   5.580   0.572   3.059 -1.4156 -1.3666  1.0315
  151OSM    H7G16813   5.742   0.603   3.133 -0.4820  0.5414 -1.6535
  151OSM    C8F16814   5.660   0.440   3.222  0.5464  0.5714  0.0461
  151OSM    H8F16815   5.642   0.519   3.299  1.0559  0.6428  0.0971
  151OSM    H8G16816   5.762   0.397   3.237  0.2493 -0.4937 -0.8677
  151OSM    C9F16817   5.549   0.338   3.221 -0.3529  0.1894 -0.7236
  151OSM    H9F16818   5.565   0.262   3.143  3.2915 -0.3583  0.3839
  151OSM   C10F16819   5.452   0.340   3.317  0.0616  0.2755  0.3546
  151OSM   H10F16820   5.368   0.270   3.300  0.5694 -0.0598 -0.9290
  151OSM   C11F16821   5.432   0.431   3.434 -0.1908  0.1578 -0.4320
  151OSM   H11F16822   5.325   0.436   3.462 -0.1327 -1.3643  0.1686
  151OSM   H11G16823   5.461   0.536   3.414 -2.7461  0.8197 -1.0240
  151OSM   C12F16824   5.532   0.377   3.544  0.2607  0.1496  0.0883
  151OSM   H12F16825   5.637   0.378   3.508 -0.1535  0.8072 -1.1484
  151OSM   H12G16826   5.499   0.276   3.578 -0.9189  0.0244 -1.3333
  151OSM   C13F16827   5.539   0.465   3.673 -0.0807 -0.2517  0.1213
  151OSM   H13F16828   5.438   0.493   3.710 -0.9304 -1.9004 -0.8316
  151OSM   H13G16829   5.591   0.560   3.648 -1.8906  0.6704 -0.3343
  151OSM   C14F16830   5.617   0.401   3.790 -0.1241 -0.3875 -0.9786
  151OSM   H14F16831   5.719   0.382   3.752  0.5776 -0.6348  0.8907
  151OSM   H14G16832   5.570   0.302   3.810  2.3653 -1.6936 -1.2441
  151OSM   C15F16833   5.625   0.474   3.925  0.9968 -0.6920 -0.5490
  151OSM   H15F16834   5.655   0.580   3.913  0.1516 -0.2556  0.9301
  151OSM   H15G16835   5.707   0.418   3.975  0.5818 -0.8178  0.0154
  151OSM   C16F16836   5.506   0.459   4.024  0.0983  0.0711 -0.3498
  151OSM   H16F16837   5.541   0.479   4.127  1.9445 -0.5669 -0.8092
  151OSM   H16G16838   5.457   0.360   4.036  2.7625 -1.6147 -2.1038
  151OSM   C17F16839   5.393   0.565   3.998  0.1037  0.3110  0.5566
  151OSM   H17F16840   5.321   0.563   4.083 -0.3608  0.7875  0.1800
  151OSM   H17G16841   5.332   0.545   3.907  0.2048  0.2296  0.5075
  151OSM   C18F16842   5.443   0.710   3.992 -0.2244  0.3943  0.3384
  151OSM   H18F16843   5.536   0.710   4.052 -0.3750 -1.7388  0.6404
  151OSM   H18G16844   5.374   0.778   4.045  0.4947 -0.0457  1.8790
  151OSM   H18H16845   5.458   0.749   3.889  0.2425 -0.8218 -0.0683
  152OSM      N16846   6.803   2.860   1.889 -0.3409  0.3372 -0.5363
  152OSM    C1516847   6.915   2.952   1.935 -0.6039  0.3951  1.0139
  152OSM   H15A16848   6.962   2.913   2.024  4.3420 -1.6311 -2.1003
  152OSM   H15B16849   6.876   3.051   1.954 -0.2992  0.7676 -0.2260
  152OSM   H15C16850   6.994   2.949   1.862  0.6775  0.4153  2.3488
  152OSM    C1416851   6.755   2.904   1.751  0.2685  0.2863 -0.2843
  152OSM   H14A16852   6.811   2.849   1.676  0.8366 -0.3447  0.5766
  152OSM   H14B16853   6.776   3.003   1.714  1.4482 -0.1362 -0.8321
  152OSM   H14C16854   6.649   2.883   1.750  0.3138  0.0571 -0.8046
  152OSM    C1316855   6.861   2.720   1.871 -0.3317  0.2395  0.3858
  152OSM   H13A16856   6.910   2.685   1.960 -1.5956 -3.1786 -0.0835
  152OSM   H13B16857   6.933   2.721   1.790  1.4787 -4.0441  1.6554
  152OSM   H13C16858   6.783   2.647   1.854 -1.5248  1.6143 -0.1670
  152OSM    C1216859   6.697   2.868   1.992 -0.2884 -0.2804  0.5693
  152OSM   H12A16860   6.615   2.801   1.971 -1.4113  1.1665  0.0705
  152OSM   H12B16861   6.664   2.971   1.994 -1.0362 -0.4296 -1.4407
  152OSM    C1116862   6.737   2.848   2.144  0.4197  0.5195  0.5909
  152OSM   H11A16863   6.648   2.870   2.207  0.2887  1.1194  0.1971
  152OSM   H11B16864   6.820   2.913   2.180  2.0222 -2.8307  3.5925
  152OSM      P16865   6.671   2.603   2.193  0.3144  0.2499  0.5814
  152OSM    O1316866   6.533   2.656   2.191 -0.3146  0.4058 -0.1646
  152OSM    O1416867   6.714   2.499   2.095 -0.6762  0.4065  0.0980
  152OSM    O1116868   6.682   2.546   2.337  0.4980  0.7610 -0.4560
  152OSM    O1216869   6.779   2.717   2.188 -0.2511  0.1694  0.4408
  152OSM    C1S16870   6.811   2.539   2.401  0.2242 -0.2445 -0.5421
  152OSM    H1S16871   6.848   2.637   2.437  0.2650  0.2522 -1.8977
  152OSM    H1T16872   6.884   2.499   2.327 -0.5955 -0.5942 -1.1769
  152OSM     NF16873   6.944   2.447   2.590  0.2711  0.0749 -0.4008
  152OSM    HNF16874   7.009   2.378   2.559  0.6672 -0.9201  2.3975
  152OSM    C2S16875   6.815   2.446   2.530  0.7202  0.6488 -0.2869
  152OSM    H2S16876   6.741   2.499   2.594 -0.8033  0.8999 -2.1507
  152OSM    C3S16877   6.761   2.304   2.507 -0.2590 -0.7058  0.2537
  152OSM    H3S16878   6.832   2.255   2.438 -0.6738 -0.3133 -0.4567
  152OSM     O316879   6.639   2.298   2.426  0.5273 -0.6829  0.4095
  152OSM    HO316880   6.631   2.390   2.397 -0.1215 -0.6980  0.5308
  152OSM    C4S16881   6.753   2.236   2.639 -0.3401  0.2871 -0.1474
  152OSM    H4S16882   6.704   2.282   2.726 -1.0780 -0.8901  0.0848
  152OSM    C5S16883   6.807   2.112   2.653  0.3129  0.3930 -0.9497
  152OSM    H5S16884   6.832   2.055   2.562 -1.4913 -0.4174 -0.9751
  152OSM    C6S16885   6.816   2.040   2.789  0.6885 -0.1790  0.1580
  152OSM    H6S16886   6.923   2.024   2.813  0.5881  0.4142  1.0288
  152OSM    H6T16887   6.756   1.948   2.774 -2.4220  1.9223 -1.4158
  152OSM    C7S16888   6.774   2.123   2.918 -0.3716 -0.4091 -0.3672
  152OSM    H7S16889   6.773   2.052   3.004  0.7007 -1.7879 -1.4507
  152OSM    H7T16890   6.665   2.145   2.908 -0.9415 -3.0181 -0.6990
  152OSM    C8S16891   6.869   2.239   2.948 -0.8916 -0.2458 -0.2670
  152OSM    H8S16892   6.808   2.332   2.945  2.3368  2.1066  1.4575
  152OSM    H8T16893   6.956   2.243   2.880 -0.5878  2.0471  0.1661
  152OSM    C9S16894   6.915   2.229   3.100  0.0570  0.4529 -0.2070
  152OSM    H9S16895   6.978   2.138   3.106 -0.2372  0.3417  1.7518
  152OSM    H9T16896   6.828   2.208   3.167  0.5389  1.5657  0.8052
  152OSM   C10S16897   6.991   2.352   3.148  0.1759 -0.0867  0.2398
  152OSM   H10S16898   6.926   2.441   3.140  1.8851  1.0303 -2.5105
  152OSM   H10T16899   7.075   2.374   3.079  2.2762 -0.5641  2.4955
  152OSM   C11S16900   7.050   2.347   3.283 -0.2316  0.6406  0.0662
  152OSM   H11S16901   7.106   2.251   3.289 -0.3175  0.5778 -0.1247
  152OSM   H11T16902   6.968   2.333   3.357 -0.2207 -1.6002 -0.2874
  152OSM   C12S16903   7.133   2.470   3.316 -0.1439  0.5707  0.1139
  152OSM   H12S16904   7.091   2.564   3.273 -0.9942  0.4228  0.5906
  152OSM   H12T16905   7.229   2.453   3.263 -0.6936  2.5299 -1.6739
  152OSM   C13S16906   7.139   2.501   3.465 -0.0713  0.2978 -0.7581
  152OSM   H13S16907   7.039   2.505   3.513 -0.0531  1.6995 -0.7996
  152OSM   H13T16908   7.185   2.600   3.488  0.3878 -0.3167  1.1822
  152OSM   C14S16909   7.209   2.380   3.542  0.1668 -0.1266 -0.0054
  152OSM   H14S16910   7.292   2.333   3.485 -0.3244  0.8845 -1.6184
  152OSM   H14T16911   7.138   2.295   3.540  0.1442 -0.1847  1.7046
  152OSM   C15S16912   7.251   2.413   3.685  0.0707 -0.0766 -0.0817
  152OSM   H15S16913   7.165   2.467   3.730 -0.7219  0.2057 -1.8564
  152OSM   H15T16914   7.344   2.473   3.676 -0.8100  1.3911  0.4469
  152OSM   C16S16915   7.293   2.287   3.764 -0.5152 -0.3330 -0.1612
  152OSM   H16S16916   7.389   2.260   3.714  0.4421 -1.5641  2.1838
  152OSM   H16T16917   7.219   2.207   3.743  0.4296 -1.1810 -0.3720
  152OSM   C17S16918   7.327   2.305   3.904 -0.5414  0.2468  0.6912
  152OSM   H17S16919   7.251   2.365   3.958  1.1787  2.3948  0.8384
  152OSM   H17T16920   7.420   2.365   3.907  1.2099 -2.3187  1.1192
  152OSM   C18S16921   7.365   2.175   3.978  0.1876 -0.0605 -0.1761
  152OSM   H18S16922   7.387   2.209   4.081  0.4623 -1.2450  0.1651
  152OSM   H18T16923   7.457   2.138   3.929 -0.4687 -0.3492 -1.2332
  152OSM   H18U16924   7.285   2.098   3.976 -1.0031  1.0133  2.2961
  152OSM    C1F16925   6.992   2.541   2.669 -0.4142 -0.2651 -0.1451
  152OSM     OF16926   6.934   2.651   2.678 -0.2898 -0.2443  0.8923
  152OSM    C2F16927   7.099   2.502   2.762 -0.7282 -0.3855  0.4929
  152OSM    H2F16928   7.058   2.489   2.865 -0.3295  1.0188  0.8634
  152OSM    H2G16929   7.166   2.591   2.763 -0.2886 -0.7125 -0.0606
  152OSM    C3F16930   7.184   2.383   2.710 -0.4959  0.2772 -0.2622
  152OSM    H3F16931   7.212   2.402   2.604  0.2599  0.2008 -0.0833
  152OSM    H3G16932   7.130   2.287   2.702  1.9461 -1.0700 -1.9465
  152OSM    C4F16933   7.308   2.344   2.788 -0.7353 -0.6473 -0.7456
  152OSM    H4F16934   7.388   2.413   2.753 -1.7998 -0.2856 -2.6040
  152OSM    H4G16935   7.356   2.250   2.753  0.5864  0.2160 -1.3254
  152OSM    C5F16936   7.300   2.333   2.941 -0.0405  0.5779 -0.6646
  152OSM    H5F16937   7.211   2.271   2.963  0.1574  0.4356 -0.2651
  152OSM    H5G16938   7.279   2.428   2.995 -1.0414 -0.3366  0.5978
  152OSM    C6F16939   7.417   2.259   3.010  0.6269  0.1776 -0.0205
  152OSM    H6F16940   7.502   2.316   2.967  1.2293  0.8805  1.9740
  152OSM    H6G16941   7.422   2.151   2.985  0.3189 -0.1485  1.2511
  152OSM    C7F16942   7.428   2.281   3.165  0.2412 -0.0006 -0.3271
  152OSM    H7F16943   7.348   2.216   3.204  0.8231 -0.2699  0.4451
  152OSM    H7G16944   7.415   2.390   3.179 -1.2001 -0.1859 -0.0463
  152OSM    C8F16945   7.572   2.239   3.222 -0.2911  0.8029 -0.1174
  152OSM    H8F16946   7.591   2.139   3.177  1.7239  1.6253 -1.2050
  152OSM    H8G16947   7.562   2.208   3.329  1.6842 -0.8475 -0.3491
  152OSM    C9F16948   7.690   2.329   3.203  0.5539  0.6963  0.3341
  152OSM    H9F16949   7.737   2.331   3.104  1.5153  1.1080  0.7793
  152OSM   C10F16950   7.735   2.417   3.300  0.2389 -0.1706 -0.0100
  152OSM   H10F16951   7.817   2.486   3.273 -2.5750  3.3976 -0.2067
  152OSM   C11F16952   7.677   2.434   3.438  0.1887  0.9635  0.2609
  152OSM   H11F16953   7.582   2.377   3.447  1.7095 -1.5763  0.9888
  152OSM   H11G16954   7.644   2.537   3.465 -0.6197  0.7922 -0.0348
  152OSM   C12F16955   7.778   2.392   3.548 -0.2004  0.0784 -0.9372
  152OSM   H12F16956   7.877   2.433   3.519 -0.1805  0.3405 -0.5047
  152OSM   H12G16957   7.788   2.282   3.537 -1.6402 -0.2234  0.4038
  152OSM   C13F16958   7.729   2.425   3.692 -0.2102  0.0106 -1.1253
  152OSM   H13F16959   7.629   2.377   3.696 -0.3726  0.4258  0.0906
  152OSM   H13G16960   7.717   2.536   3.694  0.8692  0.1386 -0.6860
  152OSM   C14F16961   7.819   2.364   3.803 -0.4547  0.0544  0.1162
  152OSM   H14F16962   7.917   2.408   3.776 -1.0568  0.8057 -0.9466
  152OSM   H14G16963   7.818   2.253   3.801  1.4172 -0.0413  1.6691
  152OSM   C15F16964   7.769   2.407   3.944 -0.9306 -0.7263  0.4819
  152OSM   H15F16965   7.676   2.351   3.970 -1.2606  1.0938  3.6925
  152OSM   H15G16966   7.735   2.512   3.949 -2.0819 -1.1301  3.5150
  152OSM   C16F16967   7.874   2.381   4.046  0.5408 -0.2505  0.1235
  152OSM   H16F16968   7.964   2.447   4.043  0.7516 -0.4936  0.8527
  152OSM   H16G16969   7.917   2.280   4.031 -0.2431 -0.5766  0.0205
  152OSM   C17F16970   7.821   2.403   4.189  0.4705  0.4728 -0.3508
  152OSM   H17F16971   7.867   2.327   4.255 -0.3216  1.4236  1.3679
  152OSM   H17G16972   7.711   2.400   4.198  0.6019 -0.2302  1.1793
  152OSM   C18F16973   7.862   2.538   4.251 -0.2483  0.5377 -0.0481
  152OSM   H18F16974   7.804   2.619   4.202 -1.7920  0.0550  0.8918
  152OSM   H18G16975   7.972   2.551   4.246 -0.2438  0.3497 -0.4877
  152OSM   H18H16976   7.843   2.544   4.361 -0.2451  1.0178 -0.0714
  153OSM      N16977   5.833   2.642   1.798  0.8256 -0.2465 -0.1414
  153OSM    C1516978   5.700   2.633   1.861  0.2475  0.2985  0.0348
  153OSM   H15A16979   5.654   2.731   1.868 -0.9120  0.0579 -2.8870
  153OSM   H15B16980   5.716   2.603   1.963 -1.8819 -1.2504 -0.0074
  153OSM   H15C16981   5.630   2.567   1.812 -1.1742  3.0511 -1.8860
  153OSM    C1416982   5.804   2.713   1.669 -1.2565  0.0504  0.4004
  153OSM   H14A16983   5.784   2.819   1.667 -0.5418  0.1778 -0.5654
  153OSM   H14B16984   5.719   2.667   1.621 -0.6804 -1.9511  1.1695
  153OSM   H14C16985   5.888   2.712   1.601 -0.2101  0.7767  1.6275
  153OSM    C1316986   5.904   2.731   1.890 -0.2709 -0.2042  0.0069
  153OSM   H13A16987   5.844   2.813   1.927  0.7046  0.2742  0.5609
  153OSM   H13B16988   6.001   2.767   1.861  1.1746 -3.0903  0.9564
  153OSM   H13C16989   5.935   2.666   1.970  2.0073 -0.8243 -1.2990
  153OSM    C1216990   5.892   2.505   1.775 -0.3867  0.6037  0.2018
  153OSM   H12A16991   5.973   2.511   1.704 -2.5098 -0.5653 -2.5184
  153OSM   H12B16992   5.830   2.443   1.712 -2.2898  2.5214  0.0615
  153OSM    C1116993   5.955   2.421   1.892  0.6809  0.1272  0.3376
  153OSM   H11A16994   5.974   2.316   1.862 -1.5929 -0.4091  0.5801
  153OSM   H11B16995   5.880   2.414   1.974  2.1687 -2.8326  1.6088
  153OSM      P16996   6.219   2.438   1.908  0.2522 -0.0898  0.5078
  153OSM    O1316997   6.239   2.374   1.775 -0.0811 -0.2869 -0.5610
  153OSM    O1416998   6.297   2.564   1.933 -0.1963  0.0765 -0.2724
  153OSM    O1116999   6.256   2.336   2.023  0.2189 -0.1193  0.3205
  153OSM    O1217000   6.074   2.474   1.936  0.1404 -0.5840 -0.6771
  153OSM    C1S17001   6.283   2.388   2.154  0.4107 -0.1909  0.6157
  153OSM    H1S17002   6.213   2.471   2.182 -0.0405 -0.7284  1.1010
  153OSM    H1T17003   6.385   2.432   2.148  0.1170  0.3289 -1.0529
  153OSM     NF17004   6.323   2.336   2.393  0.2502  0.4467 -0.2252
  153OSM    HNF17005   6.402   2.296   2.438  0.1289  1.0148  0.5200
  153OSM    C2S17006   6.284   2.276   2.260  0.1355 -0.2934 -0.8677
  153OSM    H2S17007   6.176   2.248   2.263  0.4047 -1.8459 -3.4471
  153OSM    C3S17008   6.367   2.154   2.223 -0.2049 -0.7782  0.2164
  153OSM    H3S17009   6.472   2.188   2.238 -0.7996 -0.1152  3.7751
  153OSM     O317010   6.341   2.104   2.089 -0.4890 -0.2954 -0.4066
  153OSM    HO317011   6.300   2.176   2.042  2.7713  0.7637 -1.9268
  153OSM    C4S17012   6.344   2.051   2.326 -0.0354  0.7125 -1.1150
  153OSM    H4S17013   6.244   2.007   2.317 -1.4959  3.3307  0.7300
  153OSM    C5S17014   6.431   1.999   2.421 -0.0693 -0.0875  0.1855
  153OSM    H5S17015   6.533   2.039   2.413 -0.9997  2.4921  0.3409
  153OSM    C6S17016   6.401   1.879   2.507 -0.6839  0.4037  0.1095
  153OSM    H6S17017   6.452   1.793   2.459 -0.8207  0.7235 -0.6209
  153OSM    H6T17018   6.293   1.857   2.495 -0.4111 -0.6492 -0.5084
  153OSM    C7S17019   6.432   1.913   2.659  0.0507 -0.5679  0.3951
  153OSM    H7S17020   6.374   2.005   2.679 -0.2636 -1.0218  1.6219
  153OSM    H7T17021   6.542   1.926   2.670 -0.1466 -0.3042  2.2964
  153OSM    C8S17022   6.386   1.802   2.748 -0.2829  0.1288  0.9020
  153OSM    H8S17023   6.423   1.705   2.708  0.6457  1.4689 -1.7470
  153OSM    H8T17024   6.275   1.793   2.746 -0.1440 -1.9587  0.4328
  153OSM    C9S17025   6.430   1.819   2.892 -0.0384  0.1244 -0.4181
  153OSM    H9S17026   6.419   1.929   2.909  2.0391  0.9111 -3.3825
  153OSM    H9T17027   6.535   1.786   2.903 -0.3003 -0.8235 -0.6956
  153OSM   C10S17028   6.340   1.731   2.982  0.1836 -0.0518  0.5424
  153OSM   H10S17029   6.368   1.624   2.972  1.0273  0.1476  0.7493
  153OSM   H10T17030   6.234   1.738   2.950 -0.1092  0.0565  1.4961
  153OSM   C11S17031   6.351   1.787   3.127 -0.1398 -0.3022 -0.1764
  153OSM   H11S17032   6.324   1.895   3.125 -0.5766 -0.4011 -2.2479
  153OSM   H11T17033   6.454   1.788   3.169 -0.7164 -2.5599  1.4497
  153OSM   C12S17034   6.269   1.705   3.227  0.3154  0.3571  1.8179
  153OSM   H12S17035   6.325   1.610   3.226  2.2882  1.4480  0.1249
  153OSM   H12T17036   6.171   1.695   3.174  0.4265 -2.5918  2.0505
  153OSM   C13S17037   6.254   1.741   3.370 -0.4702 -0.4810  0.5081
  153OSM   H13S17038   6.190   1.664   3.418 -0.7623 -0.7957 -0.3770
  153OSM   H13T17039   6.207   1.842   3.377 -0.4742 -0.4727  0.3547
  153OSM   C14S17040   6.389   1.737   3.440  0.0740  0.5724 -0.3386
  153OSM   H14S17041   6.452   1.813   3.390  0.4246  2.7291  3.1072
  153OSM   H14T17042   6.425   1.632   3.435  0.9212  0.7974  0.6448
  153OSM   C15S17043   6.374   1.782   3.587  0.4738 -0.0518  0.7430
  153OSM   H15S17044   6.302   1.715   3.638  0.8874 -0.9304  0.1959
  153OSM   H15T17045   6.333   1.885   3.578  1.1582  0.0970 -1.1063
  153OSM   C16S17046   6.504   1.785   3.660 -0.9723 -0.1877 -0.0279
  153OSM   H16S17047   6.563   1.873   3.625 -2.6613  0.9471 -0.1299
  153OSM   H16T17048   6.564   1.692   3.650  0.3900  0.5549  0.7693
  153OSM   C17S17049   6.491   1.793   3.811 -0.5922 -0.7089  0.7911
  153OSM   H17S17050   6.435   1.707   3.852 -1.7204  0.0062  0.8096
  153OSM   H17T17051   6.434   1.888   3.822  0.6762  0.6094 -2.6665
  153OSM   C18S17052   6.627   1.807   3.878 -0.3268 -0.2098  0.0209
  153OSM   H18S17053   6.672   1.708   3.899 -1.7352 -0.7631  0.5146
  153OSM   H18T17054   6.604   1.876   3.962  1.5610  0.0409  0.3871
  153OSM   H18U17055   6.706   1.853   3.814  1.5230 -1.6323  1.1828
  153OSM    C1F17056   6.260   2.428   2.459  0.3261 -0.6241 -0.4623
  153OSM     OF17057   6.156   2.480   2.413 -0.0015  0.3027 -0.3742
  153OSM    C2F17058   6.307   2.461   2.601 -0.3983  0.9856  0.2405
  153OSM    H2F17059   6.274   2.565   2.621 -0.7962  0.4351  2.8094
  153OSM    H2G17060   6.418   2.460   2.601 -0.3168 -2.3336 -0.1745
  153OSM    C3F17061   6.253   2.360   2.702 -0.3319  0.1010  0.1489
  153OSM    H3F17062   6.270   2.257   2.664 -2.4883  0.7191 -2.8392
  153OSM    H3G17063   6.142   2.363   2.704 -0.3866 -0.2503 -1.3409
  153OSM    C4F17064   6.312   2.382   2.848  0.3890  0.1400 -0.2890
  153OSM    H4F17065   6.307   2.491   2.871 -0.2569  0.4680 -1.8639
  153OSM    H4G17066   6.417   2.347   2.835 -0.0235 -1.5622  0.6577
  153OSM    C5F17067   6.243   2.291   2.949  0.1258 -0.6256 -0.9799
  153OSM    H5F17068   6.250   2.185   2.913 -1.0524 -1.6796  1.6493
  153OSM    H5G17069   6.135   2.313   2.957  0.5797  1.0707  2.7434
  153OSM    C6F17070   6.307   2.316   3.092 -0.0959 -0.5046  0.1204
  153OSM    H6F17071   6.244   2.260   3.164 -0.1976  0.2809  0.6562
  153OSM    H6G17072   6.316   2.425   3.111 -0.5660 -0.6182  1.0527
  153OSM    C7F17073   6.444   2.240   3.093  0.2524 -0.8992 -0.1479
  153OSM    H7F17074   6.517   2.269   3.014 -2.0323  1.2760 -1.5977
  153OSM    H7G17075   6.419   2.134   3.070 -1.2127 -1.2502  2.6197
  153OSM    C8F17076   6.518   2.247   3.229  0.3229 -0.6893  0.3463
  153OSM    H8F17077   6.516   2.355   3.254 -1.0308 -0.2817 -1.3269
  153OSM    H8G17078   6.625   2.217   3.226  0.8721  1.1665  0.0678
  153OSM    C9F17079   6.447   2.156   3.334 -0.1561 -0.0213  0.0853
  153OSM    H9F17080   6.442   2.051   3.300 -0.8968  0.4061 -1.1514
  153OSM   C10F17081   6.376   2.197   3.446 -0.3199 -0.2973  0.2275
  153OSM   H10F17082   6.323   2.113   3.493 -1.8423 -0.5411 -1.7864
  153OSM   C11F17083   6.354   2.330   3.490  0.2818 -0.5470 -0.2237
  153OSM   H11F17084   6.261   2.342   3.549  0.5561  1.6571 -0.1681
  153OSM   H11G17085   6.339   2.392   3.399  1.1276 -1.0692 -0.7248
  153OSM   C12F17086   6.477   2.389   3.567 -0.4307  0.4648  0.1616
  153OSM   H12F17087   6.467   2.498   3.584  2.1625  0.4759  2.1746
  153OSM   H12G17088   6.566   2.360   3.507 -1.6931 -1.5366 -0.8866
  153OSM   C13F17089   6.492   2.333   3.706 -0.9575 -0.2422 -0.5404
  153OSM   H13F17090   6.583   2.372   3.757 -1.5991 -0.1583  0.5847
  153OSM   H13G17091   6.496   2.223   3.689 -4.1840 -0.6542  0.6710
  153OSM   C14F17092   6.383   2.378   3.805  0.2476  0.1639 -0.4814
  153OSM   H14F17093   6.283   2.343   3.773  0.9238 -0.3162 -2.1760
  153OSM   H14G17094   6.378   2.489   3.803 -1.1538  0.1106 -0.7923
  153OSM   C15F17095   6.415   2.339   3.946 -0.3457  0.6585  0.8958
  153OSM   H15F17096   6.357   2.404   4.015  0.3937 -0.7595  2.9184
  153OSM   H15G17097   6.521   2.354   3.973 -0.6619  1.9017  1.5461
  153OSM   C16F17098   6.387   2.198   3.982 -0.2107 -0.4346 -0.0291
  153OSM   H16F17099   6.435   2.135   3.905  0.3268 -2.5046  1.8911
  153OSM   H16G17100   6.279   2.170   3.983 -0.4000 -0.5971 -4.8843
  153OSM   C17F17101   6.443   2.162   4.123 -0.0520 -0.3465 -0.3078
  153OSM   H17F17102   6.384   2.235   4.183  1.2053  1.2049 -0.8693
  153OSM   H17G17103   6.552   2.183   4.129  0.3127 -1.9683 -0.9768
  153OSM   C18F17104   6.420   2.021   4.177 -0.6984  0.3159  0.4998
  153OSM   H18F17105   6.429   2.005   4.287  0.1027  1.8142  0.6860
  153OSM   H18G17106   6.490   1.949   4.128  0.9961  1.1993  1.5030
  153OSM   H18H17107   6.317   1.990   4.149 -0.6393 -0.8345  1.4527
  154OSM      N17108   4.306   2.530   2.084 -0.3348 -0.5811 -0.8017
  154OSM    C1517109   4.401   2.451   1.996 -0.6137  0.1321  0.0575
  154OSM   H15A17110   4.505   2.476   2.014 -0.6873 -0.1322  0.8502
  154OSM   H15B17111   4.388   2.479   1.892  0.9996  0.1666 -0.1688
  154OSM   H15C17112   4.398   2.345   2.011  3.8442  0.0012  1.5937
  154OSM    C1417113   4.316   2.669   2.037 -0.4354 -0.6892  0.2481
  154OSM   H14A17114   4.406   2.710   2.080  0.0043 -0.8953 -0.4511
  154OSM   H14B17115   4.231   2.728   2.067 -0.6323 -1.2848  0.8993
  154OSM   H14C17116   4.326   2.677   1.930 -1.1100 -0.2084  0.2179
  154OSM    C1317117   4.172   2.463   2.073  0.5869 -0.0759  0.4585
  154OSM   H13A17118   4.134   2.469   1.971  3.3415  0.8342 -0.5908
  154OSM   H13B17119   4.095   2.499   2.140 -0.1517 -1.7370  0.5698
  154OSM   H13C17120   4.176   2.357   2.097 -0.3766 -0.1190  0.4904
  154OSM    C1217121   4.337   2.515   2.228 -0.3262 -0.0180 -0.7371
  154OSM   H12A17122   4.346   2.409   2.246 -0.1907  0.1909  0.5460
  154OSM   H12B17123   4.255   2.553   2.288  0.5191 -0.6377  0.8763
  154OSM    C1117124   4.460   2.589   2.280  0.0785 -0.5227  0.4795
  154OSM   H11A17125   4.481   2.572   2.388  0.4593  1.6419  0.7845
  154OSM   H11B17126   4.441   2.698   2.288  0.3075 -0.5632  1.8697
  154OSM      P17127   4.666   2.698   2.162  0.1683 -0.0359 -0.1542
  154OSM    O1317128   4.777   2.655   2.078  0.0634 -0.2437 -0.1838
  154OSM    O1417129   4.581   2.808   2.116  0.1903 -0.2641  0.0348
  154OSM    O1117130   4.724   2.748   2.301 -0.1947 -0.0930  0.2906
  154OSM    O1217131   4.582   2.571   2.210 -0.0609  0.2230  0.5820
  154OSM    C1S17132   4.798   2.666   2.392  0.3157 -0.0021 -0.6479
  154OSM    H1S17133   4.902   2.644   2.360 -0.0877 -1.5256 -0.9745
  154OSM    H1T17134   4.753   2.565   2.402 -1.7080  0.9586  0.7263
  154OSM     NF17135   4.892   2.671   2.622  0.6858 -0.3777  0.3262
  154OSM    HNF17136   4.858   2.618   2.699 -2.7327 -0.8974 -1.3311
  154OSM    C2S17137   4.796   2.728   2.533  0.0797 -0.3099  0.1852
  154OSM    H2S17138   4.828   2.834   2.520 -2.9126  0.7965  1.0238
  154OSM    C3S17139   4.651   2.727   2.581  0.8017 -0.7869  0.2886
  154OSM    H3S17140   4.613   2.622   2.589  1.9465 -1.2899 -0.5596
  154OSM     O317141   4.555   2.798   2.496  0.1249 -0.3800  0.5994
  154OSM    HO317142   4.603   2.796   2.412  0.4819  2.3793  0.6381
  154OSM    C4S17143   4.638   2.789   2.725 -0.0493  0.4974 -0.0486
  154OSM    H4S17144   4.579   2.732   2.798  0.3195  0.0085 -0.1326
  154OSM    C5S17145   4.677   2.913   2.771 -0.4534  0.2176  0.1647
  154OSM    H5S17146   4.734   2.982   2.708 -0.0150 -1.0680 -0.8992
  154OSM    C6S17147   4.685   2.956   2.916  0.2273 -0.3527 -0.4214
  154OSM    H6S17148   4.679   3.067   2.917  0.8865 -0.2695 -1.9694
  154OSM    H6T17149   4.784   2.937   2.963 -0.3757 -0.1074  0.9881
  154OSM    C7S17150   4.555   2.917   2.991 -0.3538 -0.2638 -0.3810
  154OSM    H7S17151   4.528   2.809   2.986  1.8082 -0.8165 -0.9458
  154OSM    H7T17152   4.468   2.972   2.951 -0.7368  0.3532  1.2167
  154OSM    C8S17153   4.568   2.940   3.145 -0.1577 -0.1308  0.1854
  154OSM    H8S17154   4.623   3.036   3.156  0.1737 -0.2348 -0.5172
  154OSM    H8T17155   4.632   2.857   3.182  2.0187  1.5487  0.4269
  154OSM    C9S17156   4.444   2.955   3.227  0.0792  1.0636  0.0430
  154OSM    H9S17157   4.383   2.863   3.216  0.0815  0.9011  1.2145
  154OSM    H9T17158   4.375   3.030   3.181  0.7476  1.3186 -0.5571
  154OSM   C10S17159   4.467   2.998   3.367  0.2958 -0.2279 -0.7835
  154OSM   H10S17160   4.539   3.083   3.377 -0.3346  0.0612  1.9099
  154OSM   H10T17161   4.504   2.911   3.424  0.3122 -0.1084 -0.6107
  154OSM   C11S17162   4.335   3.039   3.434 -0.2487 -0.2705  0.2723
  154OSM   H11S17163   4.251   2.968   3.418 -1.1462  0.6182  0.8616
  154OSM   H11T17164   4.305   3.140   3.397  0.0286  0.0316  0.8722
  154OSM   C12S17165   4.364   3.042   3.583  0.4237 -0.7076  0.9726
  154OSM   H12S17166   4.436   3.126   3.588 -2.3808  2.3122 -2.6744
  154OSM   H12T17167   4.413   2.944   3.601 -1.9342 -1.8749  1.3665
  154OSM   C13S17168   4.231   3.071   3.658  0.0930  0.2246 -0.5001
  154OSM   H13S17169   4.154   3.005   3.613 -0.1872  0.2261 -0.0225
  154OSM   H13T17170   4.189   3.170   3.633  3.7142  1.5912 -1.8161
  154OSM   C14S17171   4.245   3.037   3.816  0.3156 -0.1235 -0.0106
  154OSM   H14S17172   4.306   2.945   3.823 -1.2468 -1.3594 -1.6584
  154OSM   H14T17173   4.139   3.007   3.833 -0.6775  2.2183 -1.5512
  154OSM   C15S17174   4.287   3.141   3.919  0.3669 -0.9321  0.4806
  154OSM   H15S17175   4.388   3.175   3.886 -0.3283  2.1727  1.1776
  154OSM   H15T17176   4.276   3.093   4.018  0.3521  0.6116  1.2514
  154OSM   C16S17177   4.193   3.266   3.920  0.0811 -0.0657 -0.2716
  154OSM   H16S17178   4.189   3.287   3.811  1.2252  1.4321 -0.0527
  154OSM   H16T17179   4.219   3.354   3.982 -1.8695 -0.3419  1.0347
  154OSM   C17S17180   4.056   3.238   3.983 -0.2259 -0.6885 -0.0128
  154OSM   H17S17181   4.075   3.205   4.087  2.0267 -0.4478 -0.2948
  154OSM   H17T17182   4.005   3.161   3.921 -0.7281  0.6381 -1.3093
  154OSM   C18S17183   3.973   3.363   3.991 -0.5567 -0.0466  0.7574
  154OSM   H18S17184   3.892   3.352   4.065 -0.7464 -2.5700  0.2428
  154OSM   H18T17185   3.935   3.390   3.890  0.1040  0.5896  0.6630
  154OSM   H18U17186   4.035   3.451   4.020  0.0935 -0.8038  1.7242
  154OSM    C1F17187   5.020   2.665   2.606  0.1220 -0.2398  0.5030
  154OSM     OF17188   5.075   2.737   2.517  0.4861  0.1307 -0.2761
  154OSM    C2F17189   5.095   2.570   2.700  0.1263 -0.8725 -0.0682
  154OSM    H2F17190   5.193   2.543   2.655  0.3251  1.0556 -0.8926
  154OSM    H2G17191   5.037   2.483   2.736 -1.3102 -0.2140 -0.7280
  154OSM    C3F17192   5.149   2.647   2.830  0.0387 -0.3456 -0.4396
  154OSM    H3F17193   5.193   2.748   2.813  2.4809 -1.2587  0.1281
  154OSM    H3G17194   5.232   2.589   2.873  1.6722  2.4213  0.4239
  154OSM    C4F17195   5.035   2.649   2.932 -0.0949 -0.1748 -0.3200
  154OSM    H4F17196   5.012   2.543   2.959 -2.5131  0.4918  0.5085
  154OSM    H4G17197   4.943   2.698   2.895  0.9064  1.3648 -0.8610
  154OSM    C5F17198   5.071   2.714   3.064 -0.0802  1.2342 -0.4698
  154OSM    H5F17199   4.978   2.696   3.122 -0.1002  1.4044 -0.4486
  154OSM    H5G17200   5.082   2.823   3.046 -0.0804  1.2954 -0.0967
  154OSM    C6F17201   5.195   2.654   3.134 -1.0613  0.0497 -0.7297
  154OSM    H6F17202   5.292   2.662   3.081 -0.9790  0.5223 -0.5138
  154OSM    H6G17203   5.185   2.546   3.156 -1.0709  0.4686  1.6371
  154OSM    C7F17204   5.236   2.730   3.268  0.0590 -0.0642 -0.7762
  154OSM    H7F17205   5.138   2.739   3.320  1.1749 -1.7465  1.7982
  154OSM    H7G17206   5.271   2.831   3.236 -2.2295  0.7494 -0.9062
  154OSM    C8F17207   5.347   2.666   3.345  0.2491 -0.0321  0.2940
  154OSM    H8F17208   5.435   2.666   3.279  0.2876 -1.1106  0.3232
  154OSM    H8G17209   5.330   2.556   3.355  1.3783 -0.2053  0.4520
  154OSM    C9F17210   5.392   2.732   3.478  0.2137  0.5126  0.2539
  154OSM    H9F17211   5.479   2.799   3.473  1.3430 -0.8080  1.3275
  154OSM   C10F17212   5.323   2.718   3.587  0.5034 -0.5443  0.6086
  154OSM   H10F17213   5.377   2.761   3.672 -0.5364  2.7885 -0.2796
  154OSM   C11F17214   5.185   2.656   3.606  0.9784 -0.4566 -0.0828
  154OSM   H11F17215   5.118   2.662   3.518 -1.3849 -1.4690  1.5358
  154OSM   H11G17216   5.134   2.715   3.686  2.7024  0.2881  0.5124
  154OSM   C12F17217   5.179   2.514   3.657 -0.3370  0.7620 -0.0399
  154OSM   H12F17218   5.225   2.454   3.576  3.6667  1.3217  1.5883
  154OSM   H12G17219   5.073   2.483   3.663 -0.0445 -0.2381  0.0706
  154OSM   C13F17220   5.246   2.508   3.799  0.5711 -0.0555 -0.0925
  154OSM   H13F17221   5.204   2.586   3.867  0.8822 -1.3892  1.6907
  154OSM   H13G17222   5.354   2.534   3.792  0.2655  0.7962 -2.7459
  154OSM   C14F17223   5.215   2.385   3.878  0.0513 -0.1917 -0.1270
  154OSM   H14F17224   5.258   2.292   3.837  0.0848 -0.4529  0.4841
  154OSM   H14G17225   5.107   2.359   3.883  0.3174 -1.1700  1.2264
  154OSM   C15F17226   5.268   2.397   4.021 -0.0655 -1.0848  0.4989
  154OSM   H15F17227   5.226   2.490   4.063  1.3517  1.3349 -3.0055
  154OSM   H15G17228   5.378   2.408   4.013 -0.1860  0.8674  1.0451
  154OSM   C16F17229   5.236   2.284   4.111  0.6562  0.0829 -0.0729
  154OSM   H16F17230   5.192   2.196   4.059  2.6622 -1.3294  0.5091
  154OSM   H16G17231   5.151   2.310   4.179 -1.6126 -0.8672 -2.3765
  154OSM   C17F17232   5.355   2.242   4.193 -0.0434 -0.5422  0.3070
  154OSM   H17F17233   5.444   2.208   4.135  1.0851  0.5046  1.3623
  154OSM   H17G17234   5.329   2.156   4.258 -1.1250 -0.8354 -0.4944
  154OSM   C18F17235   5.386   2.359   4.294  0.1916  0.3451 -0.0524
  154OSM   H18F17236   5.288   2.374   4.343 -0.1489  0.0012 -0.6159
  154OSM   H18G17237   5.433   2.451   4.254 -0.1296  1.1822  1.4153
  154OSM   H18H17238   5.454   2.318   4.373 -0.3455  1.7968  1.2072
  155OSM      N17239   0.534   2.781   2.004 -0.6818  0.4847  0.8990
  155OSM    C1517240   0.554   2.651   1.937  0.9046  0.5996  0.1918
  155OSM   H15A17241   0.482   2.580   1.974  1.6632 -0.3373 -0.0902
  155OSM   H15B17242   0.651   2.612   1.967  0.1508 -0.1419  1.7941
  155OSM   H15C17243   0.552   2.655   1.830  0.9980  0.2457  0.1745
  155OSM    C1417244   0.494   2.752   2.145 -0.6710  0.0885  0.3756
  155OSM   H14A17245   0.453   2.840   2.192  0.7512  1.6928 -1.2387
  155OSM   H14B17246   0.580   2.719   2.202  0.4861  2.4544  0.0980
  155OSM   H14C17247   0.424   2.670   2.150  0.5698 -1.1274 -1.2668
  155OSM    C1317248   0.669   2.849   2.003  0.0686  0.0770  0.2821
  155OSM   H13A17249   0.744   2.799   2.062 -0.6705  0.2888  1.4211
  155OSM   H13B17250   0.648   2.948   2.042  0.3452 -0.3116  1.4557
  155OSM   H13C17251   0.700   2.853   1.899 -0.2384 -0.2904  0.1726
  155OSM    C1217252   0.430   2.855   1.934 -0.5508 -0.2570 -0.2088
  155OSM   H12A17253   0.346   2.787   1.933  0.1651 -1.1780  0.2381
  155OSM   H12B17254   0.452   2.871   1.829 -0.2561  0.6789 -0.0118
  155OSM    C1117255   0.385   2.990   1.990  0.0522  0.2270  0.0375
  155OSM   H11A17256   0.459   3.060   2.034 -2.6205  1.9842  2.0577
  155OSM   H11B17257   0.326   2.952   2.076  1.0430  0.6504  0.9203
  155OSM      P17258   0.279   3.214   1.902 -0.1023  0.1919 -0.1029
  155OSM    O1317259   0.400   3.281   1.846 -0.1344 -0.2832 -0.5623
  155OSM    O1417260   0.148   3.243   1.839 -0.1471 -0.5321  0.4200
  155OSM    O1117261   0.262   3.240   2.048  0.6138 -0.3821 -0.0650
  155OSM    O1217262   0.299   3.055   1.898 -0.1866  0.0478 -0.5780
  155OSM    C1S17263   0.156   3.184   2.133  0.1449 -0.0227 -0.0163
  155OSM    H1S17264   0.164   3.073   2.129 -0.6063 -0.1811  1.9746
  155OSM    H1T17265   0.059   3.221   2.094 -0.4704 -2.6632 -1.1782
  155OSM     NF17266   0.082   3.169   2.365  0.0849 -0.2631  0.4201
  155OSM    HNF17267   0.003   3.226   2.388 -0.8698 -1.3903  0.0622
  155OSM    C2S17268   0.180   3.230   2.281 -0.3724  0.1743  0.0171
  155OSM    H2S17269   0.281   3.192   2.308 -1.1914 -2.2110 -0.0095
  155OSM    C3S17270   0.195   3.383   2.292  0.5333  0.1967  0.1100
  155OSM    H3S17271   0.105   3.428   2.246 -0.0483 -1.6482 -0.6770
  155OSM     O317272   0.304   3.436   2.226  0.0515 -0.2101 -0.0281
  155OSM    HO317273   0.307   3.384   2.145 -1.1078 -2.2668  1.1681
  155OSM    C4S17274   0.214   3.416   2.436  0.8353 -0.5046 -0.4180
  155OSM    H4S17275   0.310   3.384   2.480 -0.0760 -1.8394  0.7111
  155OSM    C5S17276   0.124   3.481   2.516 -0.2174 -0.0237  0.2463
  155OSM    H5S17277   0.022   3.509   2.484 -0.6686 -1.5514  0.2515
  155OSM    C6S17278   0.148   3.516   2.664 -0.3373  0.6279  0.5219
  155OSM    H6S17279   0.240   3.475   2.711 -1.0811 -1.2915  0.3976
  155OSM    H6T17280   0.063   3.471   2.719  0.2455  1.3730  2.0887
  155OSM    C7S17281   0.147   3.667   2.693  0.3014  0.4421 -0.1843
  155OSM    H7S17282   0.055   3.708   2.647  0.6168  0.7564 -0.5419
  155OSM    H7T17283   0.234   3.714   2.641  0.3650  0.1479 -0.3497
  155OSM    C8S17284   0.158   3.698   2.839  0.9349  0.5808  0.2822
  155OSM    H8S17285   0.261   3.678   2.876 -0.5322 -1.8282  3.7080
  155OSM    H8T17286   0.081   3.638   2.893  2.3404 -0.2141  1.5183
  155OSM    C9S17287   0.125   3.844   2.864 -0.9606 -0.1263 -0.2145
  155OSM    H9S17288   0.017   3.862   2.846 -0.8913  0.0088 -0.5035
  155OSM    H9T17289   0.190   3.910   2.803 -1.4913  0.4055 -0.2123
  155OSM   C10S17290   0.145   3.901   3.005 -0.1145  0.1469 -0.9742
  155OSM   H10S17291   0.089   3.997   3.016 -0.4796  0.1307 -2.4605
  155OSM   H10T17292   0.248   3.933   3.031 -0.8449  1.3501  0.5732
  155OSM   C11S17293   0.098   3.814   3.110 -0.2433 -0.3989 -0.6540
  155OSM   H11S17294   0.163   3.724   3.121  0.5718  0.3039  0.5402
  155OSM   H11T17295  -0.006   3.785   3.086 -0.9374  0.8158  0.7096
  155OSM   C12S17296   0.092   3.886   3.247  0.0867 -0.0702  0.1985
  155OSM   H12S17297   0.038   3.982   3.233  2.3998  1.2992  0.0808
  155OSM   H12T17298   0.190   3.935   3.265  0.1526  0.0983 -0.5743
  155OSM   C13S17299   0.038   3.810   3.371 -0.3282  0.0394 -0.4067
  155OSM   H13S17300   0.123   3.741   3.393 -1.2318 -1.6929 -2.0143
  155OSM   H13T17301  -0.047   3.750   3.332 -0.2343 -1.2009  1.1856
  155OSM   C14S17302   0.002   3.893   3.500 -0.3348 -0.7472  0.5090
  155OSM   H14S17303  -0.075   3.969   3.477 -1.3831 -1.4086  1.6761
  155OSM   H14T17304   0.084   3.955   3.543 -1.2223 -1.2757  3.1047
  155OSM   C15S17305  -0.038   3.800   3.607  0.1478 -0.0279  0.3497
  155OSM   H15S17306   0.040   3.722   3.601 -1.7992 -2.1048  0.6150
  155OSM   H15T17307  -0.132   3.752   3.571  0.0745 -0.2780  0.8636
  155OSM   C16S17308  -0.061   3.846   3.751  0.1153  0.2438  0.3457
  155OSM   H16S17309   0.043   3.858   3.787  0.8464  0.4090 -1.7091
  155OSM   H16T17310  -0.113   3.769   3.811 -1.5327  1.5771  0.7275
  155OSM   C17S17311  -0.148   3.970   3.762 -0.0941  0.1658 -0.2129
  155OSM   H17S17312  -0.098   4.049   3.702 -0.8832  0.5996 -0.3102
  155OSM   H17T17313  -0.153   3.990   3.871  0.1706  0.0066 -0.1699
  155OSM   C18S17314  -0.292   3.952   3.709 -0.1253 -0.1542 -0.0918
  155OSM   H18S17315  -0.336   3.869   3.767  0.6918 -1.4152 -1.2300
  155OSM   H18T17316  -0.287   3.926   3.601  1.6228 -2.2127  0.4240
  155OSM   H18U17317  -0.348   4.047   3.725 -0.4497  0.0614 -2.1903
  155OSM    C1F17318   0.062   3.041   2.392  0.1953 -0.2939  0.3571
  155OSM     OF17319   0.138   2.959   2.347  0.4590  0.3118 -0.3947
  155OSM    C2F17320  -0.047   3.014   2.480  0.6691 -0.0229 -0.3682
  155OSM    H2F17321  -0.020   2.932   2.550 -1.6527  1.1638  2.1011
  155OSM    H2G17322  -0.132   2.989   2.414  1.5580 -0.0098 -1.5473
  155OSM    C3F17323  -0.097   3.124   2.586  0.1563  0.0223  0.4303
  155OSM    H3F17324  -0.198   3.097   2.624  0.6537 -0.1698  1.6579
  155OSM    H3G17325  -0.111   3.216   2.526  1.2712 -0.0738  0.0037
  155OSM    C4F17326   0.006   3.129   2.697 -0.1028 -0.3125 -0.1184
  155OSM    H4F17327   0.097   3.175   2.653  0.3655  0.3991  1.5257
  155OSM    H4G17328   0.030   3.030   2.744  1.2618  1.6429  3.7569
  155OSM    C5F17329  -0.050   3.207   2.821  0.3624  0.2989  0.1960
  155OSM    H5F17330  -0.154   3.180   2.846  0.3799  0.1519  0.1099
  155OSM    H5G17331  -0.055   3.310   2.780  1.1290  0.3624  0.2395
  155OSM    C6F17332   0.041   3.218   2.942 -0.3741  0.8267 -1.3030
  155OSM    H6F17333   0.142   3.248   2.906 -0.3931  1.6117 -0.7310
  155OSM    H6G17334   0.058   3.120   2.992 -1.0606  1.1587 -0.3814
  155OSM    C7F17335  -0.009   3.324   3.037  0.2765 -0.2609 -0.1120
  155OSM    H7F17336  -0.101   3.289   3.087 -1.3768 -0.3791 -3.0047
  155OSM    H7G17337  -0.022   3.412   2.971  0.5675  1.5126  2.0753
  155OSM    C8F17338   0.108   3.358   3.131  0.0335  0.8394  0.1257
  155OSM    H8F17339   0.187   3.416   3.079  2.2638 -0.4344  1.8911
  155OSM    H8G17340   0.155   3.262   3.161 -1.5945  0.2282  0.8134
  155OSM    C9F17341   0.062   3.440   3.244  0.4766 -0.7737  0.0802
  155OSM    H9F17342   0.068   3.548   3.226  2.6035 -0.9942 -0.8910
  155OSM   C10F17343   0.011   3.405   3.364  0.1802 -0.7413  0.2146
  155OSM   H10F17344  -0.025   3.485   3.430 -1.7289 -0.4221 -1.1134
  155OSM   C11F17345  -0.026   3.268   3.402 -0.2699 -0.7179 -0.3798
  155OSM   H11F17346  -0.011   3.206   3.311  1.0157 -1.1015  0.0822
  155OSM   H11G17347  -0.130   3.259   3.440 -1.5283  1.3492 -2.9338
  155OSM   C12F17348   0.066   3.210   3.503 -0.3435  0.4356  0.0231
  155OSM   H12F17349   0.172   3.234   3.477 -0.9675  2.5963 -0.7403
  155OSM   H12G17350   0.063   3.099   3.509  2.9307  0.0403 -2.5576
  155OSM   C13F17351   0.041   3.263   3.645  0.0726  0.4556  0.0582
  155OSM   H13F17352  -0.069   3.278   3.652  0.2176  1.9865 -0.5202
  155OSM   H13G17353   0.080   3.367   3.651 -0.3312  0.7329 -1.5508
  155OSM   C14F17354   0.098   3.183   3.760  0.4846 -0.0424 -0.1633
  155OSM   H14F17355   0.207   3.163   3.751  0.8517  1.9588 -0.7910
  155OSM   H14G17356   0.054   3.084   3.735  0.8329 -0.3698  0.5030
  155OSM   C15F17357   0.037   3.221   3.905  0.1363  0.5911 -0.1886
  155OSM   H15F17358  -0.066   3.180   3.913 -0.0433  0.8903 -0.9241
  155OSM   H15G17359   0.031   3.331   3.915 -1.0622  0.4761  0.5941
  155OSM   C16F17360   0.139   3.150   4.004 -0.3530 -0.7502  0.1125
  155OSM   H16F17361   0.240   3.181   3.968 -0.9962  2.0171  0.4197
  155OSM   H16G17362   0.140   3.040   3.990 -1.4688 -0.5662 -1.6445
  155OSM   C17F17363   0.129   3.176   4.156  0.4317 -0.0639 -0.9161
  155OSM   H17F17364   0.035   3.125   4.188 -0.6721  1.8539 -0.9637
  155OSM   H17G17365   0.115   3.285   4.165 -1.7254 -0.4424  1.7390
  155OSM   C18F17366   0.247   3.119   4.230  0.0819 -0.0701 -0.4100
  155OSM   H18F17367   0.239   3.122   4.341  0.2476  0.0368 -0.4017
  155OSM   H18G17368   0.333   3.184   4.205  0.2088  0.3551  1.0297
  155OSM   H18H17369   0.270   3.014   4.200  0.6964  0.0124 -0.2307
  156OSM      N17370   2.020   1.641   1.792  0.3004 -0.3347  0.0500
  156OSM    C1517371   2.065   1.578   1.659 -0.5951  0.9647 -0.4615
  156OSM   H15A17372   2.009   1.586   1.567  0.3504 -1.7295 -1.3642
  156OSM   H15B17373   2.077   1.471   1.669  0.1581  1.0015 -0.9130
  156OSM   H15C17374   2.161   1.627   1.647 -0.2175  1.0230  2.0697
  156OSM    C1417375   2.000   1.785   1.764 -1.0493  0.0920  0.4956
  156OSM   H14A17376   1.915   1.798   1.698  1.0949  4.0800 -1.8840
  156OSM   H14B17377   2.087   1.828   1.716 -0.8176 -1.4767 -0.5635
  156OSM   H14C17378   1.976   1.828   1.860  0.7267  0.4277  0.8281
  156OSM    C1317379   1.893   1.583   1.837  0.1313  0.9818 -0.0094
  156OSM   H13A17380   1.816   1.611   1.766 -3.3647 -0.6744  2.8357
  156OSM   H13B17381   1.852   1.623   1.928  0.8567  0.1355  0.6972
  156OSM   H13C17382   1.894   1.476   1.846 -0.3339  0.9051 -0.7317
  156OSM    C1217383   2.123   1.633   1.904 -0.4286  0.4838 -0.1379
  156OSM   H12A17384   2.220   1.661   1.865 -0.4707 -1.4923 -1.8224
  156OSM   H12B17385   2.152   1.531   1.925  0.2884  0.7354  0.1078
  156OSM    C1117386   2.108   1.717   2.035 -0.1643  0.3081 -0.0488
  156OSM   H11A17387   2.190   1.691   2.105  0.5838 -0.0558 -1.0407
  156OSM   H11B17388   2.009   1.683   2.073 -0.1734  0.5428  0.1339
  156OSM      P17389   2.036   1.951   2.111  0.3146 -0.0392 -0.0396
  156OSM    O1317390   2.036   2.093   2.070  0.1135  0.3891 -0.2640
  156OSM    O1417391   1.900   1.898   2.139 -0.0054 -0.2410  0.3376
  156OSM    O1117392   2.119   1.947   2.246 -0.2071  0.1218  0.0161
  156OSM    O1217393   2.114   1.861   2.018  0.0551 -0.1071  1.0679
  156OSM    C1S17394   2.091   2.044   2.346 -0.1966  0.5530 -0.0197
  156OSM    H1S17395   2.029   1.995   2.424  1.0602 -2.1613 -0.6300
  156OSM    H1T17396   2.058   2.142   2.304 -1.4716 -0.2863 -1.0459
  156OSM     NF17397   2.208   2.147   2.546  0.5899  0.2109 -0.0510
  156OSM    HNF17398   2.244   2.239   2.563 -1.8901  1.2893 -0.1954
  156OSM    C2S17399   2.226   2.081   2.420  0.1498  0.3492  0.3208
  156OSM    H2S17400   2.278   1.987   2.446 -2.1652 -0.8870  0.7204
  156OSM    C3S17401   2.326   2.163   2.325  0.1823  0.5828 -0.0404
  156OSM    H3S17402   2.276   2.260   2.305  1.7959  1.4597  0.0141
  156OSM     O317403   2.358   2.104   2.199  0.5100 -0.4076 -0.2845
  156OSM    HO317404   2.314   2.019   2.197  0.8445 -0.6004  0.2993
  156OSM    C4S17405   2.452   2.182   2.396  0.2556 -0.1838  0.8022
  156OSM    H4S17406   2.506   2.088   2.418  0.0915 -0.2960  0.7270
  156OSM    C5S17407   2.492   2.299   2.450  0.7080 -0.3505  0.1755
  156OSM    H5S17408   2.425   2.385   2.455  1.3171  0.2664 -1.5408
  156OSM    C6S17409   2.594   2.306   2.559 -0.0344 -0.1925  0.8926
  156OSM    H6S17410   2.616   2.414   2.575  0.7751  0.0902 -1.7237
  156OSM    H6T17411   2.684   2.245   2.538 -0.8395 -1.6608  1.5732
  156OSM    C7S17412   2.543   2.263   2.703  0.2695 -0.8956 -0.2474
  156OSM    H7S17413   2.514   2.156   2.713  1.8961 -1.1595  3.5510
  156OSM    H7T17414   2.451   2.318   2.728 -0.7475 -1.3542 -2.6908
  156OSM    C8S17415   2.654   2.277   2.809  1.1160  0.6170 -0.6374
  156OSM    H8S17416   2.647   2.380   2.850 -2.2468 -0.0089  0.6983
  156OSM    H8T17417   2.758   2.270   2.771  1.3647  1.1731 -0.0765
  156OSM    C9S17418   2.622   2.173   2.924 -0.4878  0.5315 -0.5795
  156OSM    H9S17419   2.617   2.068   2.886  0.1950  0.8399 -1.5613
  156OSM    H9T17420   2.522   2.197   2.966 -0.4978 -1.8628  0.9616
  156OSM   C10S17421   2.732   2.180   3.032  0.1985  0.1608 -0.0335
  156OSM   H10S17422   2.827   2.182   2.975  0.0069 -0.1515 -0.3695
  156OSM   H10T17423   2.738   2.091   3.098 -1.0469  1.3368  1.7690
  156OSM   C11S17424   2.726   2.283   3.141  0.0208  0.0934  0.9330
  156OSM   H11S17425   2.620   2.304   3.166 -0.1453  0.2020  0.1624
  156OSM   H11T17426   2.744   2.375   3.083  1.6865 -0.7266  0.0747
  156OSM   C12S17427   2.820   2.273   3.262  0.1229  0.4526  0.9237
  156OSM   H12S17428   2.913   2.219   3.234 -0.8814 -0.6833 -0.3412
  156OSM   H12T17429   2.767   2.208   3.336  0.3703 -1.3582 -0.4187
  156OSM   C13S17430   2.846   2.419   3.307  0.2407 -0.3154 -0.5074
  156OSM   H13S17431   2.748   2.471   3.312 -1.4789 -3.4271  1.7217
  156OSM   H13T17432   2.910   2.458   3.225 -1.2414 -0.6782 -1.8822
  156OSM   C14S17433   2.917   2.425   3.442  0.1235  0.3888 -0.2434
  156OSM   H14S17434   2.988   2.509   3.430 -1.9987  2.2098 -0.6634
  156OSM   H14T17435   2.978   2.333   3.458 -0.6285 -0.0145  0.3917
  156OSM   C15S17436   2.821   2.423   3.560  0.3493  0.3954 -0.6048
  156OSM   H15S17437   2.752   2.338   3.546  2.3179 -1.3591 -0.2221
  156OSM   H15T17438   2.757   2.514   3.561  0.3696  0.4057  0.1437
  156OSM   C16S17439   2.901   2.425   3.691 -0.5074 -0.0999 -0.0363
  156OSM   H16S17440   2.968   2.513   3.695 -0.0122 -0.3813 -1.3555
  156OSM   H16T17441   2.985   2.353   3.684  0.6941  1.2924 -0.5084
  156OSM   C17S17442   2.820   2.409   3.822  0.3453  0.0975  0.1888
  156OSM   H17S17443   2.743   2.332   3.797  0.5686  0.2164 -0.9557
  156OSM   H17T17444   2.761   2.500   3.845 -0.1287  0.0006 -0.5808
  156OSM   C18S17445   2.896   2.367   3.946  0.8984 -0.7595  0.3500
  156OSM   H18S17446   2.831   2.401   4.030 -0.9006 -0.1370 -1.2215
  156OSM   H18T17447   2.991   2.424   3.941  0.4811 -0.0781  0.0411
  156OSM   H18U17448   2.916   2.258   3.943 -0.5897 -1.0454 -0.1033
  156OSM    C1F17449   2.146   2.089   2.648  0.3460 -0.3546 -0.0162
  156OSM     OF17450   2.109   1.975   2.647 -0.1600 -0.3196  1.0071
  156OSM    C2F17451   2.118   2.173   2.770 -0.1140  0.5496  0.3375
  156OSM    H2F17452   2.184   2.263   2.764 -1.8319  1.9056  0.9412
  156OSM    H2G17453   2.136   2.121   2.867 -0.5256  0.4383  0.3552
  156OSM    C3F17454   1.984   2.246   2.753 -0.2939 -0.5874  0.0759
  156OSM    H3F17455   1.982   2.313   2.665  1.8001  1.1602  1.2580
  156OSM    H3G17456   1.966   2.315   2.838  0.3230 -0.5499  0.1830
  156OSM    C4F17457   1.872   2.146   2.772  0.1326 -0.0502  0.1528
  156OSM    H4F17458   1.880   2.086   2.679  0.3505  0.9161 -0.4684
  156OSM    H4G17459   1.772   2.195   2.770  0.5913  0.8991 -0.4773
  156OSM    C5F17460   1.868   2.065   2.898 -0.1114 -0.5639 -0.7706
  156OSM    H5F17461   1.958   2.001   2.909  0.3502  0.0105 -1.1508
  156OSM    H5G17462   1.794   1.983   2.886  0.6692 -1.6068  1.0617
  156OSM    C6F17463   1.854   2.152   3.024 -0.3102  0.4308 -0.3938
  156OSM    H6F17464   1.768   2.220   3.008  0.4341  0.8638 -2.8996
  156OSM    H6G17465   1.941   2.220   3.037 -0.8394  1.5445 -2.3940
  156OSM    C7F17466   1.831   2.069   3.145  0.1881 -0.3098 -0.1754
  156OSM    H7F17467   1.926   2.015   3.165  0.5003  0.1097 -0.5113
  156OSM    H7G17468   1.749   1.998   3.122 -0.5260 -0.1254  1.6423
  156OSM    C8F17469   1.796   2.141   3.277  0.2517 -0.1511  0.1222
  156OSM    H8F17470   1.710   2.205   3.251  0.5383 -1.1266 -3.9138
  156OSM    H8G17471   1.885   2.204   3.299 -0.6005  0.5326  1.8278
  156OSM    C9F17472   1.755   2.056   3.401 -0.2992 -0.0850 -0.7946
  156OSM    H9F17473   1.682   1.976   3.384 -0.4289 -0.4695  1.3651
  156OSM   C10F17474   1.810   2.065   3.530 -0.4175  0.1428  0.1559
  156OSM   H10F17475   1.755   2.004   3.603  0.1164 -1.4304 -0.7088
  156OSM   C11F17476   1.909   2.167   3.577 -0.5366 -0.3579 -0.2914
  156OSM   H11F17477   1.944   2.237   3.498 -2.3917  0.9929  0.0204
  156OSM   H11G17478   1.992   2.107   3.621 -1.3713  0.7170  3.0476
  156OSM   C12F17479   1.861   2.268   3.680 -0.2910  0.0381 -0.1057
  156OSM   H12F17480   1.766   2.318   3.651 -0.7694 -0.2791  0.8704
  156OSM   H12G17481   1.940   2.342   3.703 -0.7044  1.7994 -3.6926
  156OSM   C13F17482   1.835   2.205   3.819 -0.6969 -0.0648 -0.4246
  156OSM   H13F17483   1.912   2.129   3.846  0.1317  1.0413  0.4090
  156OSM   H13G17484   1.744   2.142   3.816  2.1695 -4.6412 -1.3425
  156OSM   C14F17485   1.828   2.314   3.931  0.1744  0.3868  0.1982
  156OSM   H14F17486   1.751   2.266   3.994  0.1305 -0.8944 -0.8019
  156OSM   H14G17487   1.782   2.405   3.886 -0.4893  0.5226  1.1129
  156OSM   C15F17488   1.966   2.328   3.994  0.4302 -0.2404 -0.2000
  156OSM   H15F17489   2.032   2.368   3.914  0.3406 -1.2374 -0.7845
  156OSM   H15G17490   2.005   2.230   4.030  1.0838 -0.6064 -1.8371
  156OSM   C16F17491   1.965   2.430   4.105 -0.3937  0.1475 -0.2172
  156OSM   H16F17492   1.866   2.411   4.150  0.4441  0.5453  1.9191
  156OSM   H16G17493   1.975   2.535   4.069  3.6659  0.3297  0.9470
  156OSM   C17F17494   2.059   2.413   4.225 -0.0508 -0.6130 -0.1100
  156OSM   H17F17495   2.043   2.501   4.291 -3.1783 -0.8196 -0.4597
  156OSM   H17G17496   2.167   2.417   4.198 -0.2190 -0.6334 -0.8119
  156OSM   C18F17497   2.030   2.285   4.308 -0.5812 -0.0311 -0.3437
  156OSM   H18F17498   1.922   2.259   4.311 -0.8033  0.6869 -1.6620
  156OSM   H18G17499   2.062   2.299   4.414  1.2878 -1.6116 -0.6377
  156OSM   H18H17500   2.080   2.196   4.264 -0.7376 -0.8944  1.1463
  157OSM      N17501   4.790   5.989   1.932 -0.0423  0.1944  0.1952
  157OSM    C1517502   4.878   6.013   1.815  0.1947 -0.4182  0.5831
  157OSM   H15A17503   4.985   6.007   1.828  0.3955  1.7474  0.3073
  157OSM   H15B17504   4.858   6.112   1.776  1.4714 -0.4776 -0.3154
  157OSM   H15C17505   4.870   5.934   1.741 -0.3694  0.1701  0.0052
  157OSM    C1417506   4.796   6.111   2.023 -0.6990 -0.5625 -0.8264
  157OSM   H14A17507   4.724   6.184   1.989 -0.2291 -0.1052 -0.8673
  157OSM   H14B17508   4.894   6.154   2.037 -0.6858 -0.7012 -0.4740
  157OSM   H14C17509   4.754   6.086   2.119  2.7360  0.8316  1.2240
  157OSM    C1317510   4.657   5.983   1.855  0.3866 -0.3841 -0.8705
  157OSM   H13A17511   4.578   5.944   1.917  0.4213 -1.0663 -1.2520
  157OSM   H13B17512   4.671   5.913   1.774 -2.0483 -0.1157 -1.5871
  157OSM   H13C17513   4.620   6.076   1.815 -2.5412 -0.9141  0.3355
  157OSM    C1217514   4.815   5.856   2.002 -0.1174 -0.8228 -0.7026
  157OSM   H12A17515   4.910   5.854   2.053 -0.6896 -1.3403  0.3737
  157OSM   H12B17516   4.823   5.776   1.930 -1.6407 -2.2705  0.6373
  157OSM    C1117517   4.711   5.815   2.114 -0.0661  0.3380 -0.0050
  157OSM   H11A17518   4.693   5.889   2.196 -2.9264  0.4918 -0.6486
  157OSM   H11B17519   4.758   5.730   2.167  0.1651  0.0519 -0.6583
  157OSM      P17520   4.544   5.651   2.011  0.2435 -0.1724 -0.3605
  157OSM    O1317521   4.447   5.658   1.894  0.0890  0.5572 -0.8022
  157OSM    O1417522   4.658   5.566   1.981  0.1798  0.4006  0.3841
  157OSM    O1117523   4.476   5.602   2.140 -0.0159 -0.5763 -0.9276
  157OSM    O1217524   4.593   5.795   2.037 -0.5152 -0.1018 -0.3306
  157OSM    C1S17525   4.350   5.669   2.171  0.0374 -0.4044 -0.1568
  157OSM    H1S17526   4.274   5.643   2.095 -1.6239  1.7226  0.6945
  157OSM    H1T17527   4.354   5.780   2.169 -0.4987 -0.3897 -1.5810
  157OSM     NF17528   4.159   5.678   2.325 -0.3336 -0.2813  0.4770
  157OSM    HNF17529   4.154   5.776   2.341  1.1522 -0.1892  0.5349
  157OSM    C2S17530   4.297   5.641   2.313 -0.6922  0.0735  0.1744
  157OSM    H2S17531   4.299   5.531   2.327  1.4793  0.1344  0.7070
  157OSM    C3S17532   4.386   5.710   2.417  0.3229 -0.5129  0.4377
  157OSM    H3S17533   4.376   5.818   2.394  0.1666 -1.1436 -2.9609
  157OSM     O317534   4.528   5.686   2.424 -0.1671  0.0134 -0.1308
  157OSM    HO317535   4.552   5.635   2.346 -0.7310  1.4951 -1.3197
  157OSM    C4S17536   4.337   5.680   2.555 -0.3198 -0.4854 -0.2177
  157OSM    H4S17537   4.341   5.573   2.578 -2.3261 -0.9184 -1.6603
  157OSM    C5S17538   4.291   5.763   2.659  0.1981  0.7858 -0.6955
  157OSM    H5S17539   4.287   5.873   2.646  0.6618  0.5630 -3.3999
  157OSM    C6S17540   4.238   5.697   2.785  0.8643  0.6025 -0.1668
  157OSM    H6S17541   4.258   5.588   2.776 -1.2403  0.2789 -1.4252
  157OSM    H6T17542   4.130   5.713   2.800  0.4801 -1.2467 -0.6619
  157OSM    C7S17543   4.313   5.765   2.902  0.0743  0.0847 -0.5073
  157OSM    H7S17544   4.296   5.875   2.892  0.2742  0.3027  1.3285
  157OSM    H7T17545   4.419   5.736   2.887  0.0402 -0.4272  0.1886
  157OSM    C8S17546   4.272   5.723   3.043 -0.2321  0.1129 -0.3776
  157OSM    H8S17547   4.298   5.616   3.057 -0.9869 -0.2533 -1.6024
  157OSM    H8T17548   4.164   5.748   3.048  0.4422  3.3360  0.6054
  157OSM    C9S17549   4.347   5.793   3.161 -0.4423  0.1818 -0.0769
  157OSM    H9S17550   4.323   5.901   3.168 -1.5789  0.0341 -1.3253
  157OSM    H9T17551   4.457   5.784   3.145 -0.6680  0.2782 -1.9192
  157OSM   C10S17552   4.310   5.734   3.304  0.2717  0.8514 -0.4211
  157OSM   H10S17553   4.343   5.629   3.317 -0.0029  0.7554 -0.4969
  157OSM   H10T17554   4.199   5.738   3.310  0.3631  2.2521  1.0550
  157OSM   C11S17555   4.384   5.805   3.414  0.1441 -0.3594  0.1748
  157OSM   H11S17556   4.344   5.908   3.403 -1.1180 -1.0380 -2.2561
  157OSM   H11T17557   4.492   5.807   3.390  0.4722 -0.8541  1.4846
  157OSM   C12S17558   4.356   5.742   3.546 -0.2135 -0.2897 -0.5062
  157OSM   H12S17559   4.414   5.647   3.556  0.5096  0.2433  0.5618
  157OSM   H12T17560   4.247   5.726   3.549 -0.2956 -0.0854 -1.6715
  157OSM   C13S17561   4.392   5.837   3.662  0.3810  0.1227 -0.1924
  157OSM   H13S17562   4.323   5.924   3.663 -1.8901 -1.5756  0.0379
  157OSM   H13T17563   4.494   5.870   3.633 -0.0654  3.4971  1.6003
  157OSM   C14S17564   4.384   5.770   3.798 -0.7178  0.6333  0.9059
  157OSM   H14S17565   4.433   5.672   3.787 -0.4320  0.8046  0.6476
  157OSM   H14T17566   4.275   5.763   3.818 -0.9162  2.2558  0.5229
  157OSM   C15S17567   4.441   5.866   3.899  0.6209  0.4893 -0.1695
  157OSM   H15S17568   4.407   5.969   3.874 -2.0924 -0.0260  1.0039
  157OSM   H15T17569   4.552   5.865   3.898  0.7270  0.2896  2.8736
  157OSM   C16S17570   4.400   5.842   4.043 -0.0191  0.5578  1.0931
  157OSM   H16S17571   4.458   5.756   4.083  0.2417 -0.5946 -1.5364
  157OSM   H16T17572   4.291   5.820   4.039  0.1578 -0.4603  1.4498
  157OSM   C17S17573   4.419   5.959   4.142  0.1707  0.3894  0.5279
  157OSM   H17S17574   4.351   5.941   4.228 -0.9247 -0.3279 -0.4539
  157OSM   H17T17575   4.392   6.061   4.108  0.0836  1.1823  2.8326
  157OSM   C18S17576   4.563   5.949   4.190 -0.1003 -0.4804  0.3109
  157OSM   H18S17577   4.571   6.014   4.280 -0.8692  1.8465 -1.1902
  157OSM   H18T17578   4.617   5.990   4.102 -0.8703  1.2439  0.6018
  157OSM   H18U17579   4.584   5.842   4.208  0.6011 -0.6211 -1.1686
  157OSM    C1F17580   4.058   5.605   2.267 -0.3684 -0.1097 -0.1273
  157OSM     OF17581   4.088   5.499   2.216  0.4665 -0.3804  0.3887
  157OSM    C2F17582   3.928   5.673   2.274 -0.2297 -0.6025  0.2862
  157OSM    H2F17583   3.891   5.682   2.170  0.3977 -2.1846 -0.1061
  157OSM    H2G17584   3.936   5.773   2.322  1.0219  0.0574 -1.2027
  157OSM    C3F17585   3.833   5.585   2.353 -0.3066 -0.1901  0.8529
  157OSM    H3F17586   3.818   5.480   2.318 -0.0456 -0.3470  1.2105
  157OSM    H3G17587   3.735   5.637   2.342 -0.8831 -1.5508 -1.1415
  157OSM    C4F17588   3.864   5.584   2.501  0.3320 -0.2812 -0.4845
  157OSM    H4F17589   3.875   5.689   2.536  0.8516 -0.1763 -0.9498
  157OSM    H4G17590   3.957   5.527   2.520  0.6041  1.1531  3.3816
  157OSM    C5F17591   3.741   5.529   2.578 -0.0234 -0.3160 -0.6563
  157OSM    H5F17592   3.732   5.421   2.553 -1.1518  0.1238 -2.3062
  157OSM    H5G17593   3.644   5.573   2.548 -0.2634 -2.9722 -4.4137
  157OSM    C6F17594   3.752   5.542   2.735 -0.0808 -0.3003  0.4884
  157OSM    H6F17595   3.653   5.506   2.768 -0.5854  1.0038  0.4754
  157OSM    H6G17596   3.770   5.644   2.777  1.0877 -0.2850  0.0022
  157OSM    C7F17597   3.868   5.456   2.789 -0.6006  0.5188 -0.5766
  157OSM    H7F17598   3.964   5.490   2.745  0.8406 -2.6236 -0.1393
  157OSM    H7G17599   3.853   5.349   2.763 -1.9373  0.2728  1.0548
  157OSM    C8F17600   3.917   5.476   2.936  0.2131  0.7919  0.0556
  157OSM    H8F17601   3.940   5.583   2.950 -1.3268  1.4482 -1.9579
  157OSM    H8G17602   4.007   5.411   2.942 -1.1715 -1.5295 -2.2207
  157OSM    C9F17603   3.818   5.419   3.035 -0.1391  0.0673  0.0157
  157OSM    H9F17604   3.732   5.371   2.985 -0.1120  1.5597 -1.5845
  157OSM   C10F17605   3.820   5.443   3.163  0.2173  0.7418  0.4213
  157OSM   H10F17606   3.742   5.394   3.222 -0.2271 -0.9637 -1.4503
  157OSM   C11F17607   3.931   5.520   3.233  0.3483  0.5640 -0.6495
  157OSM   H11F17608   3.897   5.625   3.244  0.2076  0.5038 -0.5132
  157OSM   H11G17609   4.027   5.520   3.176  1.2188  2.8766  0.6827
  157OSM   C12F17610   3.948   5.461   3.379 -0.1149  0.3621  0.5067
  157OSM   H12F17611   3.980   5.355   3.365 -1.0933 -0.0745  1.4211
  157OSM   H12G17612   3.845   5.454   3.420  0.7070 -2.2242  2.4339
  157OSM   C13F17613   4.026   5.534   3.493 -0.1793  0.3525 -0.5355
  157OSM   H13F17614   3.993   5.639   3.503 -2.6611 -0.4284  0.1542
  157OSM   H13G17615   4.129   5.537   3.451  0.1656  1.1036  0.3402
  157OSM   C14F17616   4.012   5.461   3.627 -0.2031  0.7293 -0.0498
  157OSM   H14F17617   4.061   5.363   3.605  1.4781  1.5249 -0.0405
  157OSM   H14G17618   3.907   5.440   3.656 -0.8586  0.1129 -2.6495
  157OSM   C15F17619   4.106   5.515   3.741 -0.0984  0.0576  0.1916
  157OSM   H15F17620   4.088   5.624   3.730  1.2794  0.2387 -0.3636
  157OSM   H15G17621   4.213   5.510   3.713 -0.7690 -0.2855 -2.5067
  157OSM   C16F17622   4.071   5.459   3.874  0.4124  0.0741 -0.9004
  157OSM   H16F17623   4.078   5.349   3.865  1.3049  0.1763 -1.4878
  157OSM   H16G17624   3.965   5.485   3.897  0.0822 -2.2434  0.5157
  157OSM   C17F17625   4.162   5.508   3.988  0.2234 -0.4736  0.2922
  157OSM   H17F17626   4.135   5.614   4.008 -0.5217 -0.4409 -0.7816
  157OSM   H17G17627   4.263   5.517   3.943  0.2750  0.5690  0.5956
  157OSM   C18F17628   4.155   5.438   4.116 -0.0006  0.4190 -0.2635
  157OSM   H18F17629   4.195   5.504   4.196  0.9311  2.6859 -2.4532
  157OSM   H18G17630   4.222   5.349   4.114  3.4194  2.7717 -2.0550
  157OSM   H18H17631   4.050   5.406   4.128  0.7533 -2.1563  0.0592
  158OSM      N17632   5.242   2.152   2.199 -0.3674  0.3020 -0.2905
  158OSM    C1517633   5.117   2.077   2.152 -0.2028 -0.0123 -0.4017
  158OSM   H15A17634   5.130   2.062   2.045  3.3064 -0.5089  0.0007
  158OSM   H15B17635   5.026   2.135   2.162 -0.3030 -0.1379 -0.5657
  158OSM   H15C17636   5.106   1.973   2.181  2.3830 -0.3338 -0.3928
  158OSM    C1417637   5.236   2.289   2.144 -0.2115 -0.2908 -0.0737
  158OSM   H14A17638   5.149   2.345   2.176  1.4272  1.7407  1.0935
  158OSM   H14B17639   5.227   2.283   2.037 -1.8356 -0.5970  0.0494
  158OSM   H14C17640   5.324   2.349   2.165 -0.9020  0.3020  1.2860
  158OSM    C1317641   5.220   2.170   2.348  0.5218 -0.1007  0.0710
  158OSM   H13A17642   5.136   2.235   2.368  0.5111 -0.3369  0.8141
  158OSM   H13B17643   5.315   2.211   2.381  1.5909 -1.5441 -1.0734
  158OSM   H13C17644   5.204   2.078   2.402  3.4937 -1.5064 -1.2293
  158OSM    C1217645   5.375   2.083   2.175 -0.2311 -0.5329  0.3697
  158OSM   H12A17646   5.379   1.999   2.243  2.5380  0.1576  1.1990
  158OSM   H12B17647   5.446   2.149   2.223 -0.2245 -0.9377  0.9253
  158OSM    C1117648   5.422   2.050   2.034 -0.0434  0.0348  0.1926
  158OSM   H11A17649   5.343   1.981   1.996 -0.2836 -0.5270  1.6328
  158OSM   H11B17650   5.511   1.982   2.034 -0.3844 -0.4482 -1.3148
  158OSM      P17651   5.586   2.213   1.916  0.2087  0.2302  0.2390
  158OSM    O1317652   5.645   2.124   1.805 -0.1898  0.7139 -0.2067
  158OSM    O1417653   5.572   2.357   1.891 -0.5215 -0.1969 -0.4473
  158OSM    O1117654   5.656   2.184   2.052 -0.0654 -0.5723 -0.0059
  158OSM    O1217655   5.440   2.153   1.942  0.6793 -0.3140  0.2595
  158OSM    C1S17656   5.655   2.297   2.158  0.5186  0.1126  0.2189
  158OSM    H1S17657   5.552   2.336   2.174 -0.3739 -2.4469  1.2990
  158OSM    H1T17658   5.714   2.385   2.123 -0.5300 -0.4566 -3.4530
  158OSM     NF17659   5.694   2.340   2.409 -0.1807 -0.5008  0.3144
  158OSM    HNF17660   5.770   2.402   2.421 -1.2945  1.5328 -2.1931
  158OSM    C2S17661   5.712   2.246   2.298  0.7365 -0.2948 -0.5714
  158OSM    H2S17662   5.656   2.151   2.318 -0.7140  0.5505 -0.4590
  158OSM    C3S17663   5.862   2.200   2.279 -0.1516 -0.2987 -0.1265
  158OSM    H3S17664   5.930   2.288   2.280  2.7887 -2.4177  0.9440
  158OSM     O317665   5.899   2.135   2.154 -0.0326  0.0990  0.1449
  158OSM    HO317666   5.823   2.166   2.105 -0.8440 -0.2505  1.1496
  158OSM    C4S17667   5.900   2.102   2.391 -0.4605 -0.9136  0.2094
  158OSM    H4S17668   5.850   2.005   2.376  0.0723 -1.4395  1.6696
  158OSM    C5S17669   5.989   2.120   2.487 -0.5128  0.7590 -0.3812
  158OSM    H5S17670   6.030   2.221   2.500  1.7128 -0.1690  0.3173
  158OSM    C6S17671   6.037   2.031   2.598  0.2801  0.0609 -0.4528
  158OSM    H6S17672   6.147   2.031   2.613  0.3837 -1.6730 -0.9597
  158OSM    H6T17673   6.008   1.925   2.580 -0.5627 -0.2553  2.3383
  158OSM    C7S17674   5.978   2.079   2.728  0.4494 -0.9349  0.4504
  158OSM    H7S17675   5.867   2.072   2.727  0.4098 -0.3795 -0.4582
  158OSM    H7T17676   5.999   2.187   2.743 -2.0433 -0.0033 -1.8975
  158OSM    C8S17677   6.016   1.990   2.844 -0.2790 -0.7202 -0.0694
  158OSM    H8S17678   6.125   1.989   2.864 -0.7130  1.3238  3.2273
  158OSM    H8T17679   5.987   1.886   2.821 -1.3600 -0.4758  0.1300
  158OSM    C9S17680   5.948   2.032   2.978 -0.1732  0.5471  0.0315
  158OSM    H9S17681   5.846   2.071   2.955  0.0871  1.5686  0.5363
  158OSM    H9T17682   5.989   2.129   3.014  0.9631  0.3497 -0.6812
  158OSM   C10S17683   5.939   1.926   3.090 -0.6786  0.6763  0.2871
  158OSM   H10S17684   6.040   1.882   3.107 -0.0636  1.7819 -0.3859
  158OSM   H10T17685   5.873   1.841   3.064 -0.3389  1.0463 -2.0180
  158OSM   C11S17686   5.902   2.000   3.223 -1.0632 -0.0825  0.5454
  158OSM   H11S17687   5.814   2.068   3.214  0.5396  2.2923  1.7908
  158OSM   H11T17688   5.986   2.068   3.248  1.0729 -2.1286 -0.6042
  158OSM   C12S17689   5.877   1.903   3.339 -0.6643  0.0859  0.4856
  158OSM   H12S17690   5.949   1.820   3.323 -2.0299 -0.9461 -0.4353
  158OSM   H12T17691   5.773   1.865   3.337  0.3331 -2.9641  1.2175
  158OSM   C13S17692   5.896   1.971   3.474  0.6051 -0.0877  0.0008
  158OSM   H13S17693   5.796   2.018   3.487 -0.1588 -1.4934 -0.5781
  158OSM   H13T17694   5.969   2.055   3.469  0.3421  0.2394  1.2733
  158OSM   C14S17695   5.940   1.869   3.573 -0.4263  0.4428 -0.0538
  158OSM   H14S17696   6.033   1.828   3.529 -0.3671  1.6977 -1.1609
  158OSM   H14T17697   5.862   1.790   3.581 -0.8698  0.8743 -0.0852
  158OSM   C15S17698   5.972   1.930   3.708 -0.4577  0.7465 -0.1155
  158OSM   H15S17699   5.882   1.987   3.740  0.2803  1.5071  0.6509
  158OSM   H15T17700   6.055   2.002   3.693 -0.8363  0.6416 -3.5604
  158OSM   C16S17701   5.989   1.824   3.816 -0.1782 -0.0070  0.0506
  158OSM   H16S17702   6.075   1.770   3.771 -0.1626  0.8777 -1.0158
  158OSM   H16T17703   5.909   1.748   3.831  0.6128 -1.3050 -1.8505
  158OSM   C17S17704   6.030   1.871   3.955 -0.0416 -0.4849  0.3013
  158OSM   H17S17705   5.939   1.896   4.014 -3.0424 -1.3887 -3.5349
  158OSM   H17T17706   6.082   1.968   3.967  0.0331 -0.6778  1.6597
  158OSM   C18S17707   6.102   1.761   4.028  0.1430  0.2642 -0.2826
  158OSM   H18S17708   6.125   1.798   4.130 -1.9990 -1.3977  0.8957
  158OSM   H18T17709   6.196   1.728   3.978 -0.1004 -2.1128  0.6626
  158OSM   H18U17710   6.032   1.676   4.045 -0.3337  0.6997 -0.0535
  158OSM    C1F17711   5.580   2.367   2.462  0.3610 -1.0909  0.0971
  158OSM     OF17712   5.493   2.286   2.445  0.2638  0.3618  1.0442
  158OSM    C2F17713   5.569   2.493   2.543  0.7386 -0.0962 -0.1396
  158OSM    H2F17714   5.568   2.585   2.481 -2.8240 -0.3717 -0.6744
  158OSM    H2G17715   5.656   2.504   2.611  0.3929 -0.6361  0.3976
  158OSM    C3F17716   5.433   2.494   2.615  0.6104 -0.9819 -0.2185
  158OSM    H3F17717   5.357   2.495   2.534 -0.7052 -1.0265  0.9764
  158OSM    H3G17718   5.423   2.585   2.677  1.1073 -1.8685  1.2049
  158OSM    C4F17719   5.417   2.375   2.714 -0.2761 -0.5331 -0.0064
  158OSM    H4F17720   5.461   2.285   2.666  0.2849  0.3180 -1.1463
  158OSM    H4G17721   5.308   2.358   2.727 -0.3046  0.1147  0.6608
  158OSM    C5F17722   5.499   2.405   2.842  0.0786 -0.3982  0.4718
  158OSM    H5F17723   5.471   2.506   2.882 -0.0464 -0.3559  0.2774
  158OSM    H5G17724   5.608   2.417   2.830 -0.1918 -0.3798 -2.5062
  158OSM    C6F17725   5.476   2.304   2.952  0.2536  0.6159  0.6639
  158OSM    H6F17726   5.497   2.204   2.910 -1.0509 -0.4994  2.4978
  158OSM    H6G17727   5.372   2.295   2.991 -0.4069  0.4949 -1.0598
  158OSM    C7F17728   5.580   2.333   3.067 -0.2593  0.3400  0.6282
  158OSM    H7F17729   5.582   2.442   3.088 -0.6975  0.7493 -1.2500
  158OSM    H7G17730   5.678   2.306   3.022  0.7697  1.2422  2.2454
  158OSM    C8F17731   5.560   2.243   3.189 -0.4837 -0.6277  0.4454
  158OSM    H8F17732   5.662   2.237   3.233 -0.3540 -1.1709  0.0714
  158OSM    H8G17733   5.529   2.139   3.169 -0.3994 -1.5974  4.4669
  158OSM    C9F17734   5.469   2.310   3.299  0.1601  0.4968 -0.2584
  158OSM    H9F17735   5.383   2.369   3.264 -1.2731 -0.6514  1.1637
  158OSM   C10F17736   5.487   2.300   3.434 -0.1895  0.4735 -1.0426
  158OSM   H10F17737   5.421   2.342   3.511 -0.9210 -1.1660 -0.7361
  158OSM   C11F17738   5.594   2.210   3.490  0.1359  0.4849  0.6145
  158OSM   H11F17739   5.684   2.265   3.527  1.8454 -1.7206 -0.0975
  158OSM   H11G17740   5.616   2.136   3.411  1.1655  0.2190  1.1413
  158OSM   C12F17741   5.528   2.120   3.598 -0.1618  0.0145 -0.7194
  158OSM   H12F17742   5.589   2.031   3.625 -1.0988 -0.6622 -0.7752
  158OSM   H12G17743   5.427   2.091   3.561 -0.4667  0.4875 -0.2639
  158OSM   C13F17744   5.515   2.207   3.726 -0.1609 -0.2087 -0.3446
  158OSM   H13F17745   5.474   2.132   3.798  1.4030 -0.5437  0.2216
  158OSM   H13G17746   5.449   2.294   3.705 -0.9136 -0.9486 -1.1234
  158OSM   C14F17747   5.651   2.228   3.786 -0.2673 -0.1629  0.1388
  158OSM   H14F17748   5.710   2.312   3.742  0.5615 -0.9436 -0.2747
  158OSM   H14G17749   5.707   2.134   3.768 -1.6010 -0.7137 -1.4555
  158OSM   C15F17750   5.648   2.261   3.938  0.6506  0.5575  0.2712
  158OSM   H15F17751   5.609   2.186   4.010 -0.5953  1.1529  0.2440
  158OSM   H15G17752   5.577   2.346   3.937 -1.4609 -1.0759 -2.3264
  158OSM   C16F17753   5.788   2.292   3.996 -0.2898  0.7697  0.4235
  158OSM   H16F17754   5.771   2.332   4.098  1.1167 -0.2153  1.0775
  158OSM   H16G17755   5.844   2.374   3.946 -0.0256 -0.0321 -0.6383
  158OSM   C17F17756   5.883   2.172   4.008 -0.1307 -0.6053 -0.1962
  158OSM   H17F17757   5.922   2.141   3.908 -0.3769 -1.2485 -0.0967
  158OSM   H17G17758   5.830   2.088   4.058  2.6341 -0.8950  2.5422
  158OSM   C18F17759   5.988   2.213   4.106 -0.0312 -1.1018 -0.3740
  158OSM   H18F17760   5.948   2.271   4.192 -1.5238 -1.5878 -0.7122
  158OSM   H18G17761   6.066   2.278   4.061  0.3331  0.0883  1.8659
  158OSM   H18H17762   6.051   2.129   4.142  1.2670  1.1822  3.2497
  159OSM      N17763   1.540   5.438   1.550 -0.4661  0.4562 -0.3787
  159OSM    C1517764   1.593   5.297   1.543 -0.7287 -0.1241 -0.3000
  159OSM   H15A17765   1.685   5.299   1.486  0.0989  1.1403  1.0098
  159OSM   H15B17766   1.515   5.232   1.507 -1.8953  1.8760 -1.5822
  159OSM   H15C17767   1.617   5.264   1.643  1.1011 -0.0364 -0.6581
  159OSM    C1417768   1.650   5.541   1.569 -0.5179 -0.3753  0.2876
  159OSM   H14A17769   1.604   5.638   1.579 -1.1121 -0.3867 -1.8691
  159OSM   H14B17770   1.711   5.550   1.480 -1.3317  2.6059 -0.0880
  159OSM   H14C17771   1.712   5.539   1.657  0.4215  1.3429 -0.2927
  159OSM    C1317772   1.477   5.457   1.415  0.6463  0.7214 -0.3095
  159OSM   H13A17773   1.550   5.428   1.341  1.7019 -0.8770  1.2938
  159OSM   H13B17774   1.438   5.557   1.402 -0.5063  0.5118  1.3056
  159OSM   H13C17775   1.396   5.385   1.413  0.7204  0.6355 -2.0077
  159OSM    C1217776   1.446   5.464   1.667  0.9608  0.2967 -0.5269
  159OSM   H12A17777   1.404   5.563   1.658  1.9425  0.6425 -1.6063
  159OSM   H12B17778   1.503   5.461   1.759  2.5273  1.5815 -1.4008
  159OSM    C1117779   1.330   5.367   1.682  0.2047  0.4039 -0.3868
  159OSM   H11A17780   1.275   5.353   1.587 -1.1850 -3.0305  0.7520
  159OSM   H11B17781   1.250   5.401   1.752 -0.3387 -2.8059  0.7163
  159OSM      P17782   1.446   5.209   1.853 -0.3155 -0.0598 -0.0209
  159OSM    O1317783   1.582   5.149   1.832 -0.2189 -0.1183 -0.5516
  159OSM    O1417784   1.441   5.324   1.944 -0.0985  0.0371 -0.1998
  159OSM    O1117785   1.366   5.100   1.932  0.5367  0.0026  0.1867
  159OSM    O1217786   1.368   5.233   1.717  0.4441  0.5744  0.0985
  159OSM    C1S17787   1.441   5.009   2.024 -0.5556 -0.3257 -0.4662
  159OSM    H1S17788   1.548   5.033   2.036  0.1577 -2.4428 -1.9417
  159OSM    H1T17789   1.442   4.911   1.973 -0.5291  1.1416 -3.5362
  159OSM     NF17790   1.462   4.936   2.264  0.4237  0.4017 -0.0769
  159OSM    HNF17791   1.442   4.847   2.304  2.0022  1.0652  2.4212
  159OSM    C2S17792   1.372   4.991   2.164 -0.0575 -0.1854  0.4208
  159OSM    H2S17793   1.354   5.095   2.198  2.4604  1.1197 -1.8077
  159OSM    C3S17794   1.243   4.912   2.141  0.2024  0.7130  0.3362
  159OSM    H3S17795   1.272   4.816   2.094  0.2750  1.6184 -1.5965
  159OSM     O317796   1.153   4.981   2.057 -0.5600  0.0948 -0.5884
  159OSM    HO317797   1.207   5.044   2.007 -0.1163 -1.5323 -2.2626
  159OSM    C4S17798   1.170   4.876   2.274 -0.0524 -0.1219 -0.7168
  159OSM    H4S17799   1.201   4.780   2.319  0.0855 -1.1799 -2.9176
  159OSM    C5S17800   1.069   4.946   2.332 -0.2154 -0.2888 -0.2417
  159OSM    H5S17801   1.010   5.017   2.272 -1.4645 -0.3489  0.8504
  159OSM    C6S17802   0.988   4.911   2.454 -0.7080  0.0730 -0.4645
  159OSM    H6S17803   0.909   4.836   2.435 -1.3028  0.5702 -0.0059
  159OSM    H6T17804   0.951   5.009   2.492 -0.1101  0.3984 -0.6944
  159OSM    C7S17805   1.075   4.864   2.566  0.4882  0.8467  0.1670
  159OSM    H7S17806   1.165   4.928   2.580  1.5499 -0.6677  0.4322
  159OSM    H7T17807   1.098   4.757   2.550 -0.2368  0.7389 -0.2116
  159OSM    C8S17808   1.003   4.870   2.710 -0.1367 -0.3768 -0.2200
  159OSM    H8S17809   0.913   4.805   2.715 -0.1835 -0.2691  0.3510
  159OSM    H8T17810   0.962   4.972   2.726 -1.1245 -0.7484 -0.2598
  159OSM    C9S17811   1.097   4.829   2.822  0.0730 -0.0309 -0.2646
  159OSM    H9S17812   1.194   4.876   2.795 -0.1938  0.2600 -0.7432
  159OSM    H9T17813   1.104   4.718   2.824  1.9819 -0.0014 -1.8323
  159OSM   C10S17814   1.075   4.894   2.962  0.5594  0.2263  0.1442
  159OSM   H10S17815   0.989   4.862   3.024  1.1887 -1.3470  0.2494
  159OSM   H10T17816   1.069   5.003   2.943  1.3106  0.0685 -1.1279
  159OSM   C11S17817   1.194   4.871   3.056  0.5979 -0.2080  0.9972
  159OSM   H11S17818   1.285   4.930   3.035 -0.3850  1.0529  0.1613
  159OSM   H11T17819   1.215   4.762   3.047 -1.3853 -0.5788  0.4310
  159OSM   C12S17820   1.145   4.887   3.197  0.6985 -0.4181  0.1086
  159OSM   H12S17821   1.069   4.810   3.222  0.6486 -0.9629 -1.5508
  159OSM   H12T17822   1.104   4.989   3.216 -1.6592 -1.4966  1.2196
  159OSM   C13S17823   1.255   4.877   3.309  0.2617  0.0087  0.5994
  159OSM   H13S17824   1.327   4.962   3.312 -1.4981  1.6113 -0.4142
  159OSM   H13T17825   1.298   4.776   3.294 -2.5065 -1.3510  1.1684
  159OSM   C14S17826   1.193   4.888   3.453  1.0166 -0.3687 -0.1765
  159OSM   H14S17827   1.121   4.807   3.472  1.5833 -0.7474  0.3789
  159OSM   H14T17828   1.127   4.978   3.455  1.1568 -0.2780  1.6514
  159OSM   C15S17829   1.304   4.906   3.559 -0.1500 -0.0959  0.0627
  159OSM   H15S17830   1.384   4.975   3.528 -0.2342 -0.9098 -2.1223
  159OSM   H15T17831   1.355   4.807   3.563  0.0634  0.0497  1.3671
  159OSM   C16S17832   1.244   4.934   3.698 -0.0992 -0.3201 -0.3137
  159OSM   H16S17833   1.173   4.850   3.709 -0.1037 -0.3399 -0.4807
  159OSM   H16T17834   1.196   5.035   3.699  2.6044  1.0536 -0.5068
  159OSM   C17S17835   1.339   4.937   3.817  0.7062 -0.4352  0.5834
  159OSM   H17S17836   1.428   4.877   3.790  0.0912 -0.6014 -1.1596
  159OSM   H17T17837   1.297   4.897   3.912  1.6914  0.5840  1.4743
  159OSM   C18S17838   1.412   5.069   3.840 -0.1080 -0.1360  0.2563
  159OSM   H18S17839   1.339   5.137   3.889 -4.0356 -3.1529 -0.9143
  159OSM   H18T17840   1.428   5.106   3.736 -1.0196 -0.8276 -0.1447
  159OSM   H18U17841   1.507   5.062   3.898  0.0130 -0.3667  0.0358
  159OSM    C1F17842   1.583   4.992   2.295 -0.3134 -0.2706 -0.9765
  159OSM     OF17843   1.620   5.104   2.251 -0.4699 -0.8609  0.6905
  159OSM    C2F17844   1.662   4.905   2.384 -0.2404 -0.5021 -1.2535
  159OSM    H2F17845   1.637   4.800   2.355 -1.9383  0.0269 -1.8140
  159OSM    H2G17846   1.637   4.923   2.490 -1.6566  0.1949 -1.6913
  159OSM    C3F17847   1.815   4.947   2.382  0.3775  0.1737  0.6023
  159OSM    H3F17848   1.836   5.046   2.428  2.5726  1.3436 -2.5748
  159OSM    H3G17849   1.835   4.955   2.273  2.0858 -0.0296  0.8683
  159OSM    C4F17850   1.904   4.837   2.450  0.3941  0.2554  0.0991
  159OSM    H4F17851   2.010   4.866   2.431  0.7480  0.7605  2.5422
  159OSM    H4G17852   1.886   4.735   2.410  1.0085  0.5637 -1.0149
  159OSM    C5F17853   1.882   4.841   2.607  0.4268 -0.5235 -0.0159
  159OSM    H5F17854   1.773   4.822   2.607  0.1327  0.7130 -2.7430
  159OSM    H5G17855   1.914   4.938   2.651 -0.5954 -0.7307  1.2267
  159OSM    C6F17856   1.959   4.732   2.680  0.3043 -0.2602 -0.5107
  159OSM    H6F17857   2.069   4.746   2.676  0.5104 -1.4015  0.6746
  159OSM    H6G17858   1.926   4.637   2.633 -1.0448 -0.3155  0.4643
  159OSM    C7F17859   1.918   4.728   2.830 -1.1270 -0.1239  0.1999
  159OSM    H7F17860   1.958   4.639   2.884 -0.0628  0.7865  0.9326
  159OSM    H7G17861   1.807   4.724   2.832 -1.1759 -2.1173 -2.1077
  159OSM    C8F17862   1.962   4.853   2.911  0.2552 -0.1398 -0.0749
  159OSM    H8F17863   1.923   4.938   2.852  2.5779  0.2802 -1.0844
  159OSM    H8G17864   2.072   4.865   2.908  0.1301  0.9566 -0.7480
  159OSM    C9F17865   1.890   4.832   3.042 -0.3955  0.1841 -0.3853
  159OSM    H9F17866   1.785   4.803   3.029  0.0347 -3.4262  2.7327
  159OSM   C10F17867   1.944   4.833   3.171  0.4789  0.4068  0.3780
  159OSM   H10F17868   1.875   4.822   3.256  0.7219 -4.1415  0.2386
  159OSM   C11F17869   2.085   4.860   3.211  0.3582  0.5943  0.2936
  159OSM   H11F17870   2.154   4.865   3.124 -0.0941  0.0588 -0.0972
  159OSM   H11G17871   2.122   4.780   3.279  0.5016 -2.4100 -3.0159
  159OSM   C12F17872   2.105   5.000   3.281  0.1138  0.1884  0.4906
  159OSM   H12F17873   2.052   4.997   3.379  0.9323  0.4649  0.9429
  159OSM   H12G17874   2.059   5.081   3.219 -0.1917 -0.6038 -0.3493
  159OSM   C13F17875   2.251   5.032   3.300  0.0690 -0.8887 -0.0805
  159OSM   H13F17876   2.308   5.035   3.204 -1.9987 -1.1475 -1.3860
  159OSM   H13G17877   2.299   4.958   3.367  0.2911 -0.7964 -0.1359
  159OSM   C14F17878   2.274   5.170   3.360 -0.2959  0.5707  0.5017
  159OSM   H14F17879   2.251   5.242   3.279 -0.8599 -0.1584 -0.0023
  159OSM   H14G17880   2.384   5.177   3.370 -0.0691 -0.7500 -0.7143
  159OSM   C15F17881   2.206   5.184   3.493 -0.1031  0.1489 -0.4064
  159OSM   H15F17882   2.208   5.090   3.551 -0.7782  0.4122  0.0563
  159OSM   H15G17883   2.098   5.192   3.467 -0.3339  3.0505  1.0819
  159OSM   C16F17884   2.261   5.299   3.578  0.5781  0.1711  0.9739
  159OSM   H16F17885   2.256   5.395   3.522 -0.0295  0.0611  0.8272
  159OSM   H16G17886   2.368   5.274   3.594  0.8087 -0.3744 -1.1911
  159OSM   C17F17887   2.183   5.310   3.707 -0.8108  0.2771  0.2312
  159OSM   H17F17888   2.170   5.208   3.749 -0.8827  0.1668 -0.0619
  159OSM   H17G17889   2.086   5.346   3.667 -0.5917 -1.0289 -1.5918
  159OSM   C18F17890   2.245   5.403   3.815  0.0951 -0.0143 -0.5097
  159OSM   H18F17891   2.278   5.499   3.772 -0.3167  0.6635  0.6240
  159OSM   H18G17892   2.323   5.358   3.880 -1.4506 -1.3972  0.5179
  159OSM   H18H17893   2.159   5.435   3.878 -0.0679 -2.7080  0.8096
  160OSM      N17894   6.333   5.452   1.962  0.2385  0.2956  0.0377
  160OSM    C1517895   6.429   5.354   1.901 -0.3670  1.0699 -0.3881
  160OSM   H15A17896   6.510   5.342   1.972 -1.8835 -1.6128  1.0345
  160OSM   H15B17897   6.477   5.391   1.811  0.9020  0.6337  0.0891
  160OSM   H15C17898   6.384   5.257   1.890  0.9487  0.2350  1.1340
  160OSM    C1417899   6.307   5.408   2.104  0.2949 -0.6547 -0.5742
  160OSM   H14A17900   6.233   5.469   2.155 -0.5163  0.0108 -2.4750
  160OSM   H14B17901   6.394   5.407   2.168 -1.2984 -0.8365  1.7398
  160OSM   H14C17902   6.260   5.312   2.089 -1.1156 -0.2235  0.8130
  160OSM    C1317903   6.397   5.586   1.964 -0.1112  0.6310  0.1728
  160OSM   H13A17904   6.483   5.571   2.028  1.5622 -1.5742 -2.3609
  160OSM   H13B17905   6.344   5.663   2.019 -1.5240 -0.9402  1.0911
  160OSM   H13C17906   6.424   5.622   1.865  0.0319  0.9326  0.3182
  160OSM    C1217907   6.194   5.457   1.887 -0.1256 -0.6634 -0.4726
  160OSM   H12A17908   6.216   5.483   1.784 -0.2053 -2.1595 -0.8992
  160OSM   H12B17909   6.136   5.536   1.931  0.5198 -0.7293  0.5185
  160OSM    C1117910   6.109   5.327   1.877 -1.0613 -0.3392  0.2794
  160OSM   H11A17911   6.176   5.257   1.822 -0.4995  0.0929  0.4130
  160OSM   H11B17912   6.027   5.357   1.807  0.4523  1.2769 -0.8894
  160OSM      P17913   6.089   5.106   2.011  0.3783 -0.1922 -0.1160
  160OSM    O1317914   5.997   5.043   1.908 -0.2999  0.2461 -0.0569
  160OSM    O1417915   6.234   5.081   1.997 -0.2941  0.3728  0.3404
  160OSM    O1117916   6.046   5.080   2.162 -0.0663  0.0578  0.2302
  160OSM    O1217917   6.070   5.267   1.996  0.2131  0.4369  0.1389
  160OSM    C1S17918   6.120   5.134   2.265  0.0149  0.2442 -0.0891
  160OSM    H1S17919   6.104   5.244   2.263  1.9881  0.6303  1.9166
  160OSM    H1T17920   6.228   5.117   2.243 -0.2261 -0.3079 -0.8840
  160OSM     NF17921   6.126   5.156   2.514 -0.0205 -0.1758  0.5188
  160OSM    HNF17922   6.192   5.100   2.564 -0.4009 -0.7765  0.3707
  160OSM    C2S17923   6.077   5.073   2.405 -0.2388  0.2816 -0.1259
  160OSM    H2S17924   5.965   5.073   2.408 -0.3029 -2.4226  0.3894
  160OSM    C3S17925   6.129   4.932   2.422 -0.8345 -0.0368 -0.6001
  160OSM    H3S17926   6.238   4.927   2.440 -0.7349  2.7253  0.0421
  160OSM     O317927   6.134   4.852   2.307  0.2322 -0.0313 -0.0338
  160OSM    HO317928   6.079   4.901   2.246 -0.7293 -0.7153  0.2483
  160OSM    C4S17929   6.068   4.862   2.535  0.4807 -0.4073 -0.0869
  160OSM    H4S17930   6.124   4.862   2.629  0.8845  0.1426 -0.3242
  160OSM    C5S17931   5.950   4.799   2.530  0.1831  0.2934 -0.5162
  160OSM    H5S17932   5.880   4.807   2.445  1.1963 -0.7505 -1.4784
  160OSM    C6S17933   5.903   4.738   2.660  0.5339 -0.1762 -0.7117
  160OSM    H6S17934   5.921   4.799   2.751  0.7129  0.2627 -1.0326
  160OSM    H6T17935   5.963   4.647   2.680 -1.7983 -1.6043  0.2269
  160OSM    C7S17936   5.752   4.699   2.656 -0.1820 -0.1177 -0.1302
  160OSM    H7S17937   5.722   4.639   2.568  0.3618 -0.4163 -0.1149
  160OSM    H7T17938   5.693   4.793   2.657  0.1724  0.1815  2.7503
  160OSM    C8S17939   5.703   4.621   2.779 -0.9550  0.1306  0.1558
  160OSM    H8S17940   5.758   4.525   2.775  0.1731  0.7143  0.9708
  160OSM    H8T17941   5.593   4.616   2.764 -0.7139  0.2958 -1.9720
  160OSM    C9S17942   5.726   4.684   2.918 -0.2163 -0.1832  0.3745
  160OSM    H9S17943   5.683   4.787   2.921  1.0196  0.4969 -2.3453
  160OSM    H9T17944   5.836   4.698   2.929 -0.2803  0.7793 -0.1217
  160OSM   C10S17945   5.675   4.599   3.032  0.5074 -0.1001  0.3570
  160OSM   H10S17946   5.733   4.504   3.027 -2.7614 -2.1859 -0.9294
  160OSM   H10T17947   5.565   4.586   3.027  0.4324  0.5026  0.3805
  160OSM   C11S17948   5.715   4.678   3.156  0.8064  0.2267  0.7056
  160OSM   H11S17949   5.657   4.773   3.151  0.8393  0.3255  1.9316
  160OSM   H11T17950   5.823   4.702   3.146  0.1561  3.0967 -0.5455
  160OSM   C12S17951   5.696   4.603   3.286  1.2147 -0.9440 -0.8390
  160OSM   H12S17952   5.767   4.518   3.284  1.7398 -0.5483  0.1653
  160OSM   H12T17953   5.591   4.573   3.269  0.3061  1.9851 -1.0065
  160OSM   C13S17954   5.711   4.688   3.416 -0.5415  0.3501  0.0086
  160OSM   H13S17955   5.667   4.790   3.413  1.4969  1.3215  0.9710
  160OSM   H13T17956   5.821   4.703   3.426 -0.6901  1.0016  0.6671
  160OSM   C14S17957   5.672   4.615   3.550 -0.3946  0.5498  0.3300
  160OSM   H14S17958   5.720   4.517   3.527  0.7072  1.1895 -0.1914
  160OSM   H14T17959   5.562   4.614   3.562 -0.6705  3.0404 -1.2668
  160OSM   C15S17960   5.737   4.691   3.673 -0.2799 -0.1714  0.0885
  160OSM   H15S17961   5.695   4.791   3.650 -0.4056 -0.0767  0.7116
  160OSM   H15T17962   5.847   4.706   3.664 -0.4277  0.8009 -0.2414
  160OSM   C16S17963   5.703   4.637   3.812  0.5388  0.6469 -0.1783
  160OSM   H16S17964   5.757   4.543   3.835 -4.1973 -2.6775 -0.9872
  160OSM   H16T17965   5.603   4.595   3.787  0.1789  2.2825 -1.7374
  160OSM   C17S17966   5.703   4.734   3.927  0.8102  0.4704  0.1446
  160OSM   H17S17967   5.790   4.801   3.941 -0.1041  1.4615  1.3400
  160OSM   H17T17968   5.692   4.678   4.023 -1.4095 -1.7727 -1.2998
  160OSM   C18S17969   5.588   4.824   3.915  0.0618  0.6988  0.0772
  160OSM   H18S17970   5.609   4.902   3.838  0.8121 -0.5057 -0.9745
  160OSM   H18T17971   5.580   4.882   4.009  1.2741  0.5476  0.2901
  160OSM   H18U17972   5.489   4.776   3.902 -0.1490  1.2435 -0.3930
  160OSM    C1F17973   6.082   5.280   2.539  0.0125  0.1809 -0.0167
  160OSM     OF17974   6.001   5.330   2.463  1.1252  0.2847  0.2696
  160OSM    C2F17975   6.145   5.359   2.650  0.4725 -0.3023  0.0117
  160OSM    H2F17976   6.256   5.347   2.650  0.7237  1.0315 -2.6747
  160OSM    H2G17977   6.102   5.338   2.750  0.0307  1.0297  0.1259
  160OSM    C3F17978   6.119   5.512   2.636  0.4675  0.7836 -0.1549
  160OSM    H3F17979   6.011   5.537   2.628  0.6597  1.3101 -1.2998
  160OSM    H3G17980   6.175   5.550   2.548  0.0920 -0.5323 -0.9803
  160OSM    C4F17981   6.167   5.594   2.750 -0.1677  0.9205 -0.2222
  160OSM    H4F17982   6.180   5.702   2.728  0.5448  0.7962 -0.4410
  160OSM    H4G17983   6.264   5.555   2.788 -1.1383  0.2392  1.7301
  160OSM    C5F17984   6.078   5.590   2.879  0.3737 -0.0051  0.2588
  160OSM    H5F17985   6.053   5.485   2.907  1.4510 -0.3969 -0.1922
  160OSM    H5G17986   5.988   5.652   2.860 -0.7104 -1.5827  0.0564
  160OSM    C6F17987   6.143   5.654   3.003  0.2905  0.8801  0.9515
  160OSM    H6F17988   6.179   5.756   2.978 -0.0904  0.8662  0.3080
  160OSM    H6G17989   6.230   5.589   3.025  0.2916  1.1587  1.7640
  160OSM    C7F17990   6.047   5.663   3.126 -0.2714  0.4858  0.1095
  160OSM    H7F17991   6.008   5.564   3.158  2.2062 -0.4942  0.2980
  160OSM    H7G17992   5.957   5.714   3.085  0.8700  1.4683 -1.2926
  160OSM    C8F17993   6.103   5.721   3.257 -0.5307  0.1549  0.0419
  160OSM    H8F17994   6.009   5.722   3.317 -0.4627 -1.3178  0.2225
  160OSM    H8G17995   6.131   5.827   3.238 -0.9022  0.4230  0.9147
  160OSM    C9F17996   6.214   5.633   3.312  0.3476  0.3913 -0.1736
  160OSM    H9F17997   6.300   5.627   3.244 -0.8863 -2.9786 -1.6736
  160OSM   C10F17998   6.205   5.542   3.413 -0.0804  0.7532 -0.8897
  160OSM   H10F17999   6.285   5.468   3.429 -2.0662 -1.6159 -1.4023
  160OSM   C11F18000   6.084   5.531   3.506  0.1049 -0.1284  0.1467
  160OSM   H11F18001   6.092   5.431   3.555  0.9523  0.7585  1.9391
  160OSM   H11G18002   5.987   5.536   3.452 -1.5021 -1.3886  2.6922
  160OSM   C12F18003   6.068   5.628   3.624  0.9955 -0.7413  0.2654
  160OSM   H12F18004   6.061   5.732   3.586  1.3068 -0.3889  1.1455
  160OSM   H12G18005   6.156   5.622   3.691 -0.0612 -0.6653  1.7007
  160OSM   C13F18006   5.928   5.608   3.703  0.4029  0.1192  0.2863
  160OSM   H13F18007   5.907   5.500   3.718 -1.2238  0.0075 -2.2364
  160OSM   H13G18008   5.845   5.627   3.632  0.2888 -0.8014  0.1650
  160OSM   C14F18009   5.900   5.701   3.825 -0.5677  0.1089 -0.0722
  160OSM   H14F18010   5.933   5.805   3.802  0.0957  0.1159  0.8292
  160OSM   H14G18011   5.968   5.667   3.907 -1.0053  0.6345  0.5217
  160OSM   C15F18012   5.759   5.685   3.871  0.7695 -0.4222  0.0161
  160OSM   H15F18013   5.759   5.727   3.974  1.6092 -0.3374 -0.0077
  160OSM   H15G18014   5.745   5.575   3.878  0.6368 -0.3730  0.5639
  160OSM   C16F18015   5.655   5.759   3.784 -0.5619 -0.2459 -0.1647
  160OSM   H16F18016   5.658   5.712   3.683 -0.5297 -0.8045  0.0918
  160OSM   H16G18017   5.679   5.867   3.782  0.0290 -0.3768 -0.2952
  160OSM   C17F18018   5.511   5.719   3.831  0.3067 -0.2770  0.4011
  160OSM   H17F18019   5.508   5.714   3.942  1.2006 -1.8559  0.3932
  160OSM   H17G18020   5.470   5.623   3.792 -1.6078  1.0330 -0.9489
  160OSM   C18F18021   5.400   5.817   3.787  0.4183 -0.7834  0.6802
  160OSM   H18F18022   5.433   5.923   3.783 -0.2560 -0.5972  0.0203
  160OSM   H18G18023   5.315   5.817   3.858  1.7062 -0.8069  2.2883
  160OSM   H18H18024   5.375   5.793   3.682  3.1042 -0.3673 -0.1202
  161OSM      N18025   1.362   3.745   1.740 -0.3977 -0.1511 -0.0141
  161OSM    C1518026   1.491   3.703   1.675 -0.3646  0.8608  0.9910
  161OSM   H15A18027   1.473   3.670   1.574 -0.2452  0.2427  1.1653
  161OSM   H15B18028   1.550   3.630   1.728  0.4092  0.9215  0.2359
  161OSM   H15C18029   1.559   3.787   1.663 -0.6942  0.9316 -0.5541
  161OSM    C1418030   1.306   3.865   1.674  0.0901  0.0233  0.4014
  161OSM   H14A18031   1.348   3.958   1.708 -1.7568  1.4860 -1.1133
  161OSM   H14B18032   1.199   3.872   1.687  0.0513 -1.1027  0.8571
  161OSM   H14C18033   1.325   3.864   1.567 -0.3182 -1.0742  0.3259
  161OSM    C1318034   1.264   3.630   1.719 -0.0691 -0.9356  0.1330
  161OSM   H13A18035   1.259   3.599   1.616 -2.1445 -1.0479  0.2209
  161OSM   H13B18036   1.163   3.658   1.744  0.1969  0.2640 -0.1009
  161OSM   H13C18037   1.294   3.550   1.785  0.1638  0.4171  1.7370
  161OSM    C1218038   1.396   3.765   1.894  0.7274  0.2631 -0.2715
  161OSM   H12A18039   1.430   3.669   1.930  0.1426 -0.7117 -2.1478
  161OSM   H12B18040   1.305   3.804   1.937  1.2454  1.4087 -0.1717
  161OSM    C1118041   1.499   3.869   1.927  0.0778  0.0291  0.5854
  161OSM   H11A18042   1.491   3.885   2.036 -0.8061  1.2684  0.3635
  161OSM   H11B18043   1.483   3.964   1.870 -0.6466 -1.1551 -1.2847
  161OSM      P18044   1.751   3.904   1.889 -0.0235 -0.0758  0.2140
  161OSM    O1318045   1.878   3.828   1.883  0.0993 -0.1674  0.4381
  161OSM    O1418046   1.719   3.996   1.772 -0.4086  0.5693 -0.7636
  161OSM    O1118047   1.756   3.998   2.019  0.5305 -0.2674 -0.7829
  161OSM    O1218048   1.625   3.808   1.906 -0.1979 -1.0400 -0.1561
  161OSM    C1S18049   1.769   3.930   2.151 -0.3722 -0.5755 -0.5685
  161OSM    H1S18050   1.853   3.858   2.151  0.0207 -0.2123  2.0648
  161OSM    H1T18051   1.681   3.875   2.189  1.4629 -1.8526  2.1933
  161OSM     NF18052   1.863   3.977   2.370  0.2275  0.4235 -0.0736
  161OSM    HNF18053   1.807   3.945   2.446  2.3008 -0.2066  1.2743
  161OSM    C2S18054   1.794   4.043   2.259  0.6446  0.5294 -0.1021
  161OSM    H2S18055   1.866   4.111   2.208  0.0591  0.5951 -0.8514
  161OSM    C3S18056   1.657   4.100   2.295 -0.9928 -0.0479 -0.6508
  161OSM    H3S18057   1.596   4.014   2.331 -0.9705  0.3652  0.4206
  161OSM     O318058   1.576   4.130   2.183 -0.5076 -0.6506  0.3181
  161OSM    HO318059   1.620   4.090   2.108  0.4426 -2.3078  1.6664
  161OSM    C4S18060   1.652   4.206   2.395  0.3670 -0.3679  0.0084
  161OSM    H4S18061   1.635   4.172   2.499 -0.5665  0.9521  0.3171
  161OSM    C5S18062   1.676   4.337   2.378  0.7544  0.1133 -0.0230
  161OSM    H5S18063   1.697   4.369   2.274 -1.3179  1.5151 -0.0756
  161OSM    C6S18064   1.687   4.441   2.486 -0.3828 -0.3744 -0.1496
  161OSM    H6S18065   1.602   4.512   2.498  0.7547  0.9062  0.5934
  161OSM    H6T18066   1.776   4.507   2.480  0.1937 -1.1686 -0.4884
  161OSM    C7S18067   1.700   4.391   2.632  0.2573  0.1724  0.3566
  161OSM    H7S18068   1.609   4.328   2.638  0.6606 -0.9008 -2.7076
  161OSM    H7T18069   1.685   4.474   2.704 -2.0157 -0.6021  0.8390
  161OSM    C8S18070   1.827   4.304   2.659  0.8413  0.3939 -0.6104
  161OSM    H8S18071   1.911   4.358   2.609  2.6247 -0.7814  1.0199
  161OSM    H8T18072   1.806   4.204   2.615  0.3723 -0.7198  1.9638
  161OSM    C9S18073   1.874   4.288   2.806  0.5969  0.7922  0.2551
  161OSM    H9S18074   1.794   4.240   2.866 -1.5792  3.0088 -0.7036
  161OSM    H9T18075   1.900   4.387   2.848  4.1940 -0.5553  1.5467
  161OSM   C10S18076   2.001   4.205   2.814 -0.5146  0.3871 -0.6185
  161OSM   H10S18077   2.077   4.242   2.742 -1.4506 -0.0178 -1.8626
  161OSM   H10T18078   1.976   4.104   2.776  1.9085 -0.6247  0.3321
  161OSM   C11S18079   2.051   4.180   2.960 -0.1633  0.9815 -0.5180
  161OSM   H11S18080   1.963   4.142   3.016  1.7341 -0.9066  1.3715
  161OSM   H11T18081   2.081   4.269   3.019  1.2952  0.6851 -0.7746
  161OSM   C12S18082   2.155   4.066   2.979  0.1382 -0.6163 -0.6965
  161OSM   H12S18083   2.245   4.081   2.916 -0.1738  0.2503 -0.9469
  161OSM   H12T18084   2.118   3.968   2.943 -2.7212 -0.4251  1.2935
  161OSM   C13S18085   2.193   4.062   3.129  0.0124 -0.3126 -0.1459
  161OSM   H13S18086   2.237   4.154   3.174  0.6659 -0.2710 -0.8472
  161OSM   H13T18087   2.286   4.002   3.134  0.8238  0.7494 -1.4828
  161OSM   C14S18088   2.092   3.996   3.218 -0.3540  0.3065  0.2059
  161OSM   H14S18089   2.050   3.909   3.162 -1.2014  0.3149  0.8077
  161OSM   H14T18090   2.006   4.065   3.231 -2.0397 -1.6394  0.0008
  161OSM   C15S18091   2.142   3.944   3.352  0.2970  0.5570  0.0524
  161OSM   H15S18092   2.175   4.023   3.424 -2.1465  1.0372  0.7596
  161OSM   H15T18093   2.227   3.872   3.353 -0.2575 -0.1194 -0.5766
  161OSM   C16S18094   2.022   3.869   3.427 -0.3520  0.0973  0.2873
  161OSM   H16S18095   1.983   3.787   3.364  0.5885 -0.8215  0.8641
  161OSM   H16T18096   1.931   3.932   3.440 -1.7344 -1.5975 -0.8245
  161OSM   C17S18097   2.064   3.827   3.564 -0.5454  0.6140  0.0543
  161OSM   H17S18098   2.165   3.781   3.555 -0.6141 -0.2235  2.6796
  161OSM   H17T18099   1.996   3.746   3.598  1.0136 -0.4210  0.8174
  161OSM   C18S18100   2.068   3.925   3.679  0.4106 -0.4787  0.6079
  161OSM   H18S18101   2.103   3.869   3.768  1.9739 -0.3058  0.1264
  161OSM   H18T18102   1.976   3.985   3.697  1.5916  1.9448 -0.9893
  161OSM   H18U18103   2.148   3.999   3.661  0.3238 -1.0111 -2.6410
  161OSM    C1F18104   1.988   3.934   2.361  0.4461 -0.1862 -0.1469
  161OSM     OF18105   2.051   3.933   2.255  0.4044 -0.2830  0.7626
  161OSM    C2F18106   2.041   3.850   2.475  0.3666  0.2129  0.4159
  161OSM    H2F18107   2.034   3.744   2.443  2.4188 -0.7617  2.8574
  161OSM    H2G18108   1.970   3.864   2.558  0.3483 -1.5193  0.7281
  161OSM    C3F18109   2.185   3.888   2.518 -0.6590 -0.1219  0.0363
  161OSM    H3F18110   2.175   3.992   2.556 -1.9275 -0.5010  0.8155
  161OSM    H3G18111   2.240   3.891   2.422 -3.7077 -1.0001 -1.9021
  161OSM    C4F18112   2.245   3.806   2.625 -1.0307  0.7671 -0.0927
  161OSM    H4F18113   2.328   3.847   2.687 -1.0485 -0.0112  0.4664
  161OSM    H4G18114   2.291   3.716   2.579 -0.8237 -0.3009  2.0713
  161OSM    C5F18115   2.150   3.748   2.729 -0.1017 -0.0521  0.1318
  161OSM    H5F18116   2.102   3.651   2.704 -1.5105  0.4935  0.6233
  161OSM    H5G18117   2.062   3.814   2.746 -0.8226 -0.8684 -0.3477
  161OSM    C6F18118   2.218   3.717   2.864 -0.7709 -0.0668 -0.4465
  161OSM    H6F18119   2.274   3.808   2.896 -1.5786  0.3742 -0.2618
  161OSM    H6G18120   2.284   3.629   2.850 -0.6297  0.2315 -1.7435
  161OSM    C7F18121   2.131   3.681   2.986  1.2866 -0.1129 -0.7751
  161OSM    H7F18122   2.075   3.588   2.966  0.0611  0.5213 -0.4131
  161OSM    H7G18123   2.057   3.760   3.012  3.3888  1.0797  2.3209
  161OSM    C8F18124   2.208   3.655   3.123 -0.2695 -0.0537 -0.3299
  161OSM    H8F18125   2.122   3.670   3.191  0.6310  1.5233  0.5159
  161OSM    H8G18126   2.285   3.733   3.142 -1.2261  0.3393  2.3019
  161OSM    C9F18127   2.276   3.522   3.123  0.1791  0.1344  0.2029
  161OSM    H9F18128   2.351   3.510   3.043  1.0931 -1.5168  1.2460
  161OSM   C10F18129   2.234   3.409   3.188  0.5155 -0.4503 -0.5531
  161OSM   H10F18130   2.290   3.314   3.181 -0.2959 -0.8124 -4.3460
  161OSM   C11F18131   2.115   3.411   3.290 -0.4532  0.3914 -0.1184
  161OSM   H11F18132   2.071   3.309   3.286  2.8903 -1.1868  0.1848
  161OSM   H11G18133   2.037   3.489   3.271 -0.4362  0.6754  0.9383
  161OSM   C12F18134   2.168   3.431   3.440 -0.8942 -0.1131  0.7911
  161OSM   H12F18135   2.203   3.534   3.461 -1.1214  0.5374 -1.6281
  161OSM   H12G18136   2.250   3.357   3.451  0.5616  1.0105 -1.6996
  161OSM   C13F18137   2.058   3.401   3.544 -0.5990  0.2248 -0.2800
  161OSM   H13F18138   2.028   3.295   3.537 -1.1596  0.3178  0.5872
  161OSM   H13G18139   1.966   3.459   3.520 -1.5490 -1.4228 -0.7503
  161OSM   C14F18140   2.106   3.419   3.682  0.5004 -0.1304 -0.7257
  161OSM   H14F18141   2.119   3.528   3.703 -1.3744 -0.0495  0.2210
  161OSM   H14G18142   2.201   3.361   3.679  0.4978 -0.1024 -1.6958
  161OSM   C15F18143   2.012   3.345   3.784 -0.2819 -0.2205 -0.8653
  161OSM   H15F18144   1.975   3.244   3.755 -1.6153 -0.2611  0.7678
  161OSM   H15G18145   1.910   3.390   3.791 -0.5215 -0.5679 -1.9325
  161OSM   C16F18146   2.076   3.334   3.924  0.1808 -0.6453  0.6237
  161OSM   H16F18147   2.141   3.421   3.944 -0.2416 -0.1311 -0.1913
  161OSM   H16G18148   2.141   3.245   3.935 -0.9630 -1.4393  1.1281
  161OSM   C17F18149   1.968   3.334   4.030 -0.3229  0.0443  0.2661
  161OSM   H17F18150   1.899   3.249   4.010  0.3600 -0.9504  1.9430
  161OSM   H17G18151   1.914   3.431   4.036 -0.6960 -0.1628  0.2879
  161OSM   C18F18152   2.017   3.325   4.175  0.1563  0.1568  0.3051
  161OSM   H18F18153   1.928   3.330   4.242 -0.4999 -1.1299 -0.4476
  161OSM   H18G18154   2.087   3.407   4.203  0.5468 -0.1855  0.3454
  161OSM   H18H18155   2.069   3.231   4.200  0.6852 -0.0172 -1.3257
  162OSM      N18156   3.374   2.410   2.000 -0.1498 -0.0067 -0.1525
  162OSM    C1518157   3.282   2.360   1.893 -0.0424  1.3816 -0.2059
  162OSM   H15A18158   3.342   2.292   1.833 -1.8701 -1.4990  1.0094
  162OSM   H15B18159   3.240   2.440   1.834 -0.3993  1.3603  0.0192
  162OSM   H15C18160   3.197   2.313   1.940  0.2475  1.0170 -0.0388
  162OSM    C1418161   3.440   2.292   2.070 -0.4221 -0.3702  0.2961
  162OSM   H14A18162   3.507   2.325   2.149  1.6984 -1.5342 -0.9449
  162OSM   H14B18163   3.485   2.227   1.997  3.4723  2.8175 -0.5069
  162OSM   H14C18164   3.365   2.224   2.107 -0.3444 -0.7192 -0.1756
  162OSM    C1318165   3.479   2.497   1.940 -0.0729  0.0669  0.1589
  162OSM   H13A18166   3.441   2.598   1.934  0.2226  0.1865  0.2723
  162OSM   H13B18167   3.515   2.465   1.844 -0.0660 -0.5951  0.3740
  162OSM   H13C18168   3.561   2.497   2.011  1.8706  2.9106 -1.8856
  162OSM    C1218169   3.288   2.476   2.110 -0.7474  0.4168 -0.4025
  162OSM   H12A18170   3.341   2.503   2.200 -0.6418 -2.3990  0.4785
  162OSM   H12B18171   3.218   2.402   2.145  0.8348 -0.9164  0.0838
  162OSM    C1118172   3.226   2.611   2.068  0.3365 -0.2550  0.1304
  162OSM   H11A18173   3.153   2.580   1.990  0.9252 -1.1165 -0.0832
  162OSM   H11B18174   3.293   2.681   2.014  1.0695  0.2046  1.5849
  162OSM      P18175   3.178   2.813   2.236  0.1942 -0.1131  0.1047
  162OSM    O1318176   3.183   2.912   2.126 -0.5156 -0.4341  0.3659
  162OSM    O1418177   3.092   2.842   2.348 -0.6227  0.2715 -0.3308
  162OSM    O1118178   3.324   2.784   2.292 -0.3270  0.1117  0.1414
  162OSM    O1218179   3.157   2.666   2.180 -0.0957  0.3742 -0.3708
  162OSM    C1S18180   3.395   2.869   2.385  0.3044 -0.9034 -0.3362
  162OSM    H1S18181   3.417   2.974   2.356  0.2224  0.0024  2.6107
  162OSM    H1T18182   3.497   2.825   2.376  1.1590  0.0138  3.4458
  162OSM     NF18183   3.416   2.978   2.609 -0.3348  0.1408  0.9194
  162OSM    HNF18184   3.510   2.976   2.642  0.3636  0.6328 -0.9187
  162OSM    C2S18185   3.363   2.856   2.542 -0.0072 -1.2573  0.2221
  162OSM    H2S18186   3.253   2.856   2.557  0.2848  0.7116  3.0129
  162OSM    C3S18187   3.414   2.722   2.597  0.2124 -0.5085  0.5432
  162OSM    H3S18188   3.524   2.730   2.584  0.4363 -4.2826 -1.6055
  162OSM     O318189   3.386   2.611   2.517 -0.4491 -0.0752  0.2565
  162OSM    HO318190   3.369   2.656   2.434 -0.2136  0.1333  0.3211
  162OSM    C4S18191   3.368   2.695   2.737 -0.5392  0.5892 -0.3018
  162OSM    H4S18192   3.274   2.639   2.744 -0.5430  0.5099 -0.9282
  162OSM    C5S18193   3.436   2.722   2.849  0.3521 -0.0027 -0.9044
  162OSM    H5S18194   3.537   2.765   2.838  0.1034  0.3473 -1.8885
  162OSM    C6S18195   3.394   2.680   2.996 -0.4876 -0.0291  0.1222
  162OSM    H6S18196   3.473   2.621   3.047 -0.7010  0.4776  1.0556
  162OSM    H6T18197   3.301   2.620   2.995  0.4992 -1.7300  2.1349
  162OSM    C7S18198   3.348   2.805   3.076 -0.2817  0.5066  0.2173
  162OSM    H7S18199   3.270   2.862   3.022 -2.4938 -0.2914  2.3687
  162OSM    H7T18200   3.436   2.872   3.094  0.8249 -0.6121 -0.8153
  162OSM    C8S18201   3.285   2.765   3.210 -0.0226  0.2906 -0.3164
  162OSM    H8S18202   3.191   2.712   3.181  0.9928 -0.6650 -1.9792
  162OSM    H8T18203   3.255   2.858   3.262 -1.6104 -1.1648  1.5170
  162OSM    C9S18204   3.365   2.683   3.305  0.1229  0.0949 -0.1582
  162OSM    H9S18205   3.465   2.723   3.334 -0.8564  0.4484  3.1457
  162OSM    H9T18206   3.383   2.583   3.260 -3.5987  0.3671 -2.7173
  162OSM   C10S18207   3.293   2.667   3.439 -0.5417  0.5759 -0.0360
  162OSM   H10S18208   3.196   2.614   3.423 -1.3841  1.9423  0.3793
  162OSM   H10T18209   3.273   2.764   3.489  0.5048  0.5581  0.4380
  162OSM   C11S18210   3.370   2.579   3.540 -0.8157 -0.3658 -0.5866
  162OSM   H11S18211   3.461   2.638   3.560 -1.5890  0.4594  0.6578
  162OSM   H11T18212   3.400   2.480   3.499 -1.4048 -0.7912 -0.0202
  162OSM   C12S18213   3.296   2.553   3.675 -0.5776 -0.1071  0.1025
  162OSM   H12S18214   3.214   2.478   3.670 -0.4243 -0.3508  1.0033
  162OSM   H12T18215   3.247   2.648   3.705 -0.8165 -0.5288  1.0972
  162OSM   C13S18216   3.392   2.500   3.782 -0.0650 -0.2405 -0.0314
  162OSM   H13S18217   3.472   2.577   3.789 -0.1108  0.0528 -2.0090
  162OSM   H13T18218   3.441   2.409   3.741  2.6028  0.5133  1.2422
  162OSM   C14S18219   3.323   2.472   3.918  0.3332  0.8977 -0.8339
  162OSM   H14S18220   3.394   2.415   3.982 -0.8398 -0.8278 -1.0062
  162OSM   H14T18221   3.230   2.413   3.910  0.4830  0.2675  1.3542
  162OSM   C15S18222   3.307   2.591   4.008 -0.1647  0.7555  0.5291
  162OSM   H15S18223   3.225   2.644   3.955  0.3814  1.1678  0.0769
  162OSM   H15T18224   3.394   2.660   4.000  0.4236  0.3135  2.6541
  162OSM   C16S18225   3.267   2.567   4.158  0.5089 -0.5104  0.5009
  162OSM   H16S18226   3.359   2.519   4.199  1.0254 -0.5736 -0.7061
  162OSM   H16T18227   3.179   2.499   4.158  1.0490 -1.2601 -1.3235
  162OSM   C17S18228   3.246   2.702   4.230 -0.4231  0.3630  0.7737
  162OSM   H17S18229   3.205   2.690   4.333  1.3114 -0.5985  1.3774
  162OSM   H17T18230   3.173   2.767   4.177  0.5014 -1.0839 -2.5272
  162OSM   C18S18231   3.373   2.787   4.243 -0.1226 -0.1488 -0.2997
  162OSM   H18S18232   3.403   2.814   4.140  3.2971  0.5097  0.7568
  162OSM   H18T18233   3.457   2.730   4.289  1.4903  0.5940 -2.1958
  162OSM   H18U18234   3.359   2.879   4.303  0.5442 -2.5661  3.9697
  162OSM    C1F18235   3.347   3.090   2.605 -0.4597 -1.0162  0.5805
  162OSM     OF18236   3.234   3.088   2.568  0.1298  0.0526 -0.2332
  162OSM    C2F18237   3.416   3.221   2.644  0.4210 -0.1542  0.0690
  162OSM    H2F18238   3.333   3.294   2.638  0.8163  0.2562 -0.5891
  162OSM    H2G18239   3.504   3.242   2.579 -0.9958  0.8934 -1.6002
  162OSM    C3F18240   3.471   3.205   2.787 -0.1396 -0.1680  0.2789
  162OSM    H3F18241   3.556   3.133   2.784 -0.0520 -0.0891  0.8200
  162OSM    H3G18242   3.397   3.151   2.849 -0.3434  0.7430  0.8419
  162OSM    C4F18243   3.514   3.341   2.841  0.5917  0.1024 -0.2347
  162OSM    H4F18244   3.441   3.422   2.820 -2.0946 -2.1611 -0.1713
  162OSM    H4G18245   3.602   3.376   2.782 -0.0440  0.0166 -1.2529
  162OSM    C5F18246   3.548   3.325   2.994  0.0486 -0.1832  0.3307
  162OSM    H5F18247   3.623   3.399   3.029 -1.0856  1.1228  0.0796
  162OSM    H5G18248   3.582   3.220   3.011 -3.5700 -1.4612  0.5444
  162OSM    C6F18249   3.438   3.379   3.080  0.4202  0.8487  0.4428
  162OSM    H6F18250   3.349   3.312   3.077 -1.1214  2.8055 -0.8086
  162OSM    H6G18251   3.391   3.465   3.026 -2.0686 -0.7704 -0.1144
  162OSM    C7F18252   3.466   3.394   3.231  0.5894 -0.4451 -0.2418
  162OSM    H7F18253   3.366   3.408   3.277  0.2968  0.2876 -1.0646
  162OSM    H7G18254   3.523   3.489   3.245  0.0271  0.0641 -1.2650
  162OSM    C8F18255   3.543   3.272   3.302  0.8860  0.0236 -0.4768
  162OSM    H8F18256   3.563   3.287   3.410 -0.0508  2.3727 -0.5666
  162OSM    H8G18257   3.640   3.269   3.247 -0.5168 -1.3391 -3.0885
  162OSM    C9F18258   3.457   3.147   3.304  0.3873 -0.5642  0.6451
  162OSM    H9F18259   3.429   3.125   3.200  0.7646  0.4016  0.3300
  162OSM   C10F18260   3.402   3.080   3.411 -0.0578  0.9781 -0.1868
  162OSM   H10F18261   3.336   2.996   3.386 -2.9028  2.6696  1.0991
  162OSM   C11F18262   3.414   3.124   3.555  0.9357 -0.4313 -0.2586
  162OSM   H11F18263   3.513   3.175   3.562  1.2928 -0.9653 -1.2162
  162OSM   H11G18264   3.414   3.038   3.625 -0.3090 -1.1120 -1.0638
  162OSM   C12F18265   3.300   3.214   3.603  0.4873  0.1306 -0.0051
  162OSM   H12F18266   3.218   3.148   3.638  0.3528  0.3224  0.0442
  162OSM   H12G18267   3.251   3.270   3.519  1.1632 -1.6541 -1.6599
  162OSM   C13F18268   3.333   3.322   3.711  0.2668 -0.3935 -0.2098
  162OSM   H13F18269   3.244   3.378   3.746  0.5537 -0.1711  0.1691
  162OSM   H13G18270   3.403   3.395   3.664 -0.6755 -0.3815 -1.6737
  162OSM   C14F18271   3.396   3.258   3.838  0.7538 -0.2802 -0.3700
  162OSM   H14F18272   3.488   3.204   3.804  1.6224 -1.1440  2.9838
  162OSM   H14G18273   3.319   3.193   3.883  0.8990  0.9303  1.7378
  162OSM   C15F18274   3.446   3.361   3.938 -0.7073  0.1251  0.3953
  162OSM   H15F18275   3.369   3.424   3.987  0.3863 -0.1281  2.5190
  162OSM   H15G18276   3.519   3.431   3.890  2.0185 -1.5891  1.7964
  162OSM   C16F18277   3.527   3.298   4.054 -0.3486 -0.0560 -0.2262
  162OSM   H16F18278   3.545   3.376   4.130 -1.1125  0.3178 -0.4160
  162OSM   H16G18279   3.629   3.264   4.028  0.7275  1.1721  2.0944
  162OSM   C17F18280   3.452   3.186   4.130  0.2954  0.1387 -0.5333
  162OSM   H17F18281   3.439   3.095   4.067  0.5488  0.1607 -0.6193
  162OSM   H17G18282   3.350   3.227   4.144 -0.0807 -1.4017  1.7020
  162OSM   C18F18283   3.517   3.156   4.263  0.4167 -0.0937 -0.3859
  162OSM   H18F18284   3.607   3.102   4.226  0.9315  0.0006  0.6786
  162OSM   H18G18285   3.443   3.100   4.324  0.1436  0.1811 -0.4637
  162OSM   H18H18286   3.551   3.253   4.307  1.2206 -0.8823  0.8102
  163OSM      N18287   3.016   6.186   1.999 -0.0184  0.2624  0.4632
  163OSM    C1518288   3.097   6.118   1.889 -0.3194 -0.2481  0.2197
  163OSM   H15A18289   3.029   6.085   1.813  0.5323  0.5710 -0.9345
  163OSM   H15B18290   3.147   6.031   1.929 -0.8768 -1.2522 -1.2270
  163OSM   H15C18291   3.170   6.186   1.848 -0.9478  0.0542 -0.4093
  163OSM    C1418292   3.107   6.214   2.114 -0.1033  0.2157  0.1196
  163OSM   H14A18293   3.040   6.240   2.195 -1.8168  0.0751 -1.1840
  163OSM   H14B18294   3.168   6.299   2.087  1.1035  0.1001  2.2832
  163OSM   H14C18295   3.163   6.127   2.144 -1.1315 -0.1065  1.1757
  163OSM    C1318296   2.968   6.319   1.943  0.1680 -0.1574 -0.2896
  163OSM   H13A18297   2.888   6.363   2.001  0.9036 -0.4043  0.9580
  163OSM   H13B18298   2.939   6.309   1.840  1.3618 -1.1301 -0.5592
  163OSM   H13C18299   3.054   6.385   1.943  2.8109 -3.2492  2.4080
  163OSM    C1218300   2.900   6.100   2.042 -0.2053 -0.3629 -0.3834
  163OSM   H12A18301   2.831   6.153   2.106 -2.9399 -0.5464 -2.9360
  163OSM   H12B18302   2.941   6.012   2.091  1.6034 -0.7208 -2.4118
  163OSM    C1118303   2.809   6.050   1.923 -0.3347 -0.7585 -0.1155
  163OSM   H11A18304   2.769   6.130   1.858  2.4143  0.4740 -0.4524
  163OSM   H11B18305   2.726   6.000   1.977 -1.1077  0.5670 -0.0490
  163OSM      P18306   2.895   5.806   1.880 -0.2990 -0.0463 -0.4265
  163OSM    O1318307   2.762   5.740   1.875 -0.0225  0.3702 -0.4962
  163OSM    O1418308   3.003   5.746   1.795  0.4513 -0.6194  0.2984
  163OSM    O1118309   2.947   5.809   2.028  0.6845  0.6523 -0.2153
  163OSM    O1218310   2.878   5.953   1.843 -0.1462 -0.5340  0.9912
  163OSM    C1S18311   2.884   5.728   2.132 -0.1454 -0.3706  0.1829
  163OSM    H1S18312   2.872   5.620   2.107 -2.9884 -0.0929  0.0570
  163OSM    H1T18313   2.778   5.755   2.148  0.0797  0.3725  0.4657
  163OSM     NF18314   2.899   5.831   2.352 -0.2232  0.2850  0.0673
  163OSM    HNF18315   2.944   5.908   2.396  0.7210 -0.1725 -0.0765
  163OSM    C2S18316   2.971   5.741   2.254  0.4605 -0.3427  0.2232
  163OSM    H2S18317   2.981   5.645   2.309  2.1261 -0.2490  0.1276
  163OSM    C3S18318   3.120   5.782   2.230  0.2364 -0.5093 -0.0261
  163OSM    H3S18319   3.108   5.885   2.192  0.2759 -0.5029 -0.0217
  163OSM     O318320   3.188   5.717   2.123  0.2113 -0.2975  0.0019
  163OSM    HO318321   3.119   5.681   2.067  0.5839 -1.4022  0.2229
  163OSM    C4S18322   3.200   5.800   2.354 -0.9942  0.2106  0.2137
  163OSM    H4S18323   3.208   5.905   2.387  0.4765  0.5193 -0.9903
  163OSM    C5S18324   3.259   5.697   2.422  1.8540 -0.3183 -0.1998
  163OSM    H5S18325   3.240   5.595   2.387  1.3510  0.3452 -1.9511
  163OSM    C6S18326   3.345   5.718   2.552  0.1091 -0.6668 -0.4797
  163OSM    H6S18327   3.453   5.717   2.526  0.8816 -0.3500  2.4550
  163OSM    H6T18328   3.326   5.633   2.620 -3.3059 -0.5347 -1.0816
  163OSM    C7S18329   3.322   5.840   2.644 -0.0059  0.3349 -0.4255
  163OSM    H7S18330   3.212   5.855   2.654  0.0246  0.5637 -0.4364
  163OSM    H7T18331   3.360   5.926   2.585  0.6783  0.1037 -0.3300
  163OSM    C8S18332   3.373   5.818   2.789 -0.1708  0.1651  0.2579
  163OSM    H8S18333   3.324   5.728   2.830  0.5233  0.4950  1.8864
  163OSM    H8T18334   3.337   5.905   2.848 -2.9302 -0.1267 -0.8351
  163OSM    C9S18335   3.527   5.808   2.782 -0.4326 -0.4544  0.3715
  163OSM    H9S18336   3.575   5.869   2.703  1.4358 -1.6324  0.5568
  163OSM    H9T18337   3.557   5.705   2.755  1.8195 -0.4032  2.3375
  163OSM   C10S18338   3.587   5.850   2.915 -0.1210 -0.5682 -0.3173
  163OSM   H10S18339   3.554   5.953   2.940  2.9443 -0.0866  2.5626
  163OSM   H10T18340   3.697   5.859   2.906 -0.4114  2.1857 -2.0944
  163OSM   C11S18341   3.558   5.755   3.032 -0.0274  0.2449 -0.1785
  163OSM   H11S18342   3.600   5.655   3.006 -2.6388 -1.0317  0.1070
  163OSM   H11T18343   3.448   5.750   3.050  0.0772 -3.4999  0.3731
  163OSM   C12S18344   3.614   5.816   3.161 -0.2109 -0.4647 -0.1654
  163OSM   H12S18345   3.646   5.920   3.140 -0.8959  0.5383  3.1482
  163OSM   H12T18346   3.705   5.758   3.188 -0.4477 -1.1899 -0.9012
  163OSM   C13S18347   3.529   5.811   3.288  0.0318  0.4888 -0.1953
  163OSM   H13S18348   3.460   5.724   3.293 -0.1733  0.5400 -1.7009
  163OSM   H13T18349   3.470   5.904   3.267  0.5060  0.8758  0.1564
  163OSM   C14S18350   3.612   5.848   3.412  0.1919 -0.1101 -0.4278
  163OSM   H14S18351   3.672   5.936   3.381 -1.0365 -0.0714 -2.9578
  163OSM   H14T18352   3.683   5.765   3.436 -1.4023 -1.8469 -1.4310
  163OSM   C15S18353   3.537   5.883   3.537  0.1602  0.3702 -0.5623
  163OSM   H15S18354   3.477   5.797   3.575  3.7770 -3.0590 -1.9430
  163OSM   H15T18355   3.474   5.972   3.517  0.0644  0.6180  0.7954
  163OSM   C16S18356   3.633   5.932   3.649  0.3945  0.4542  0.9020
  163OSM   H16S18357   3.725   5.964   3.594 -0.9216  0.1813 -1.6104
  163OSM   H16T18358   3.676   5.849   3.709  1.6667 -0.2235 -0.8501
  163OSM   C17S18359   3.588   6.037   3.745 -0.0036 -0.3360  0.3206
  163OSM   H17S18360   3.517   6.002   3.823 -1.3498  1.1674 -0.1795
  163OSM   H17T18361   3.539   6.120   3.690  1.7347  1.1000  0.8227
  163OSM   C18S18362   3.706   6.110   3.809 -0.3494 -0.5271  0.3692
  163OSM   H18S18363   3.777   6.055   3.874  0.2278  0.0997  0.2854
  163OSM   H18T18364   3.661   6.180   3.883 -0.3092 -0.1767  0.0646
  163OSM   H18U18365   3.768   6.165   3.735 -1.0431  0.1999  0.3211
  163OSM    C1F18366   2.785   5.795   2.409 -0.2052 -0.5503 -0.2262
  163OSM     OF18367   2.724   5.691   2.386 -0.1042 -0.4058  0.4706
  163OSM    C2F18368   2.730   5.890   2.516 -0.9321  0.6737  0.0563
  163OSM    H2F18369   2.627   5.915   2.485 -0.6177 -0.0677 -1.7068
  163OSM    H2G18370   2.791   5.983   2.518 -0.2980  0.3016 -1.1128
  163OSM    C3F18371   2.731   5.825   2.653  0.8359  0.4851 -0.1858
  163OSM    H3F18372   2.754   5.716   2.647 -0.2342  0.1161  1.7349
  163OSM    H3G18373   2.627   5.838   2.689  0.2653  0.7915 -1.8261
  163OSM    C4F18374   2.836   5.887   2.751 -0.2179  1.0098  0.6669
  163OSM    H4F18375   2.783   5.966   2.809 -2.1949  0.5448 -0.3940
  163OSM    H4G18376   2.912   5.944   2.695  1.1497 -0.6420  0.7622
  163OSM    C5F18377   2.900   5.786   2.836  0.3469  0.2948 -0.6251
  163OSM    H5F18378   2.950   5.704   2.781  0.7069  0.9454 -1.2884
  163OSM    H5G18379   2.818   5.738   2.894  1.3931 -1.4923 -0.5427
  163OSM    C6F18380   3.007   5.843   2.929 -0.0759  0.0986  0.8796
  163OSM    H6F18381   2.969   5.938   2.973  0.2332  0.4189  0.4692
  163OSM    H6G18382   3.093   5.878   2.869 -1.2440 -1.2411 -1.7138
  163OSM    C7F18383   3.061   5.738   3.029  0.1503  0.1354 -0.2242
  163OSM    H7F18384   3.149   5.784   3.079  0.1435 -2.0408  1.9991
  163OSM    H7G18385   3.095   5.647   2.976 -0.2526 -0.1709  0.0380
  163OSM    C8F18386   2.961   5.695   3.132 -0.2626 -0.9076 -0.4275
  163OSM    H8F18387   3.000   5.617   3.200 -0.8206 -2.1959 -1.5219
  163OSM    H8G18388   2.876   5.646   3.078 -2.0780  3.3543 -1.8389
  163OSM    C9F18389   2.917   5.810   3.226  0.9081  0.3365 -0.1335
  163OSM    H9F18390   2.829   5.859   3.181  1.1475  1.2182  0.3321
  163OSM   C10F18391   2.962   5.848   3.347 -0.3575  0.2460  0.3974
  163OSM   H10F18392   2.937   5.948   3.385 -1.7124  0.2221 -0.3692
  163OSM   C11F18393   3.071   5.779   3.422 -0.0328 -0.5869  0.0923
  163OSM   H11F18394   3.162   5.841   3.435  0.7318 -1.3558 -1.3392
  163OSM   H11G18395   3.107   5.685   3.375 -1.6840 -0.5530 -1.3431
  163OSM   C12F18396   3.012   5.735   3.556 -0.3149 -0.2260 -0.0782
  163OSM   H12F18397   3.070   5.644   3.583  0.8272  0.6570  0.4815
  163OSM   H12G18398   2.906   5.708   3.532 -1.4303  2.7707  0.9657
  163OSM   C13F18399   3.024   5.841   3.670 -0.0046  0.5678 -0.0501
  163OSM   H13F18400   2.956   5.926   3.646 -0.4255  0.9859  2.3521
  163OSM   H13G18401   3.130   5.871   3.680 -0.3360  1.3508  1.4426
  163OSM   C14F18402   2.979   5.784   3.810  0.4010 -0.1279  0.0290
  163OSM   H14F18403   2.985   5.867   3.883 -1.2162 -0.4450  0.5707
  163OSM   H14G18404   3.038   5.697   3.846  1.2903  0.9949  1.3710
  163OSM   C15F18405   2.837   5.741   3.785  0.5610  0.8869  0.1298
  163OSM   H15F18406   2.825   5.652   3.720 -1.7913  1.7464 -0.6974
  163OSM   H15G18407   2.770   5.816   3.739 -0.6650  0.6471  1.4623
  163OSM   C16F18408   2.773   5.695   3.914 -0.2824  0.0684 -0.5397
  163OSM   H16F18409   2.765   5.783   3.981  0.3665 -1.7393  2.0537
  163OSM   H16G18410   2.829   5.618   3.970  1.3986  0.6054 -1.4104
  163OSM   C17F18411   2.626   5.644   3.899 -0.1904  0.0245 -0.5788
  163OSM   H17F18412   2.604   5.583   3.989  1.9669  1.2390  0.8659
  163OSM   H17G18413   2.622   5.576   3.811 -2.2421  0.6400 -1.0276
  163OSM   C18F18414   2.530   5.754   3.861  0.5077 -0.3453 -0.2004
  163OSM   H18F18415   2.427   5.713   3.848  0.6318 -0.5683 -0.5058
  163OSM   H18G18416   2.551   5.817   3.771  2.1554  0.7320  0.8799
  163OSM   H18H18417   2.529   5.837   3.934 -3.3919  0.9710 -1.5119
  164OSM      N18418   5.317   4.118   1.551 -0.6030  0.3362  0.0125
  164OSM    C1518419   5.223   4.005   1.578  0.3440  0.0955  0.3646
  164OSM   H15A18420   5.268   3.911   1.550 -1.1066 -0.8153  0.9655
  164OSM   H15B18421   5.135   4.017   1.515  1.4216 -0.2335 -1.2757
  164OSM   H15C18422   5.187   3.997   1.679  1.9022  0.8714  1.0056
  164OSM    C1418423   5.338   4.108   1.399 -0.5785  0.4611 -0.1061
  164OSM   H14A18424   5.244   4.126   1.349 -0.9274  2.3043  1.0760
  164OSM   H14B18425   5.371   4.007   1.382  1.7286  1.6414 -3.5632
  164OSM   H14C18426   5.405   4.188   1.369  1.8380 -1.1407  0.7067
  164OSM    C1318427   5.247   4.243   1.584 -0.1367 -0.0157 -0.3384
  164OSM   H13A18428   5.286   4.320   1.519  1.1776 -2.4978 -2.6667
  164OSM   H13B18429   5.271   4.269   1.686  1.1298  1.9392 -1.0949
  164OSM   H13C18430   5.140   4.226   1.590 -0.1018 -1.0033 -1.9503
  164OSM    C1218431   5.446   4.103   1.637 -0.8945 -0.5011 -0.5802
  164OSM   H12A18432   5.514   4.181   1.605  0.5237 -1.2952  0.3946
  164OSM   H12B18433   5.497   4.009   1.617 -1.4544 -0.8060 -0.5748
  164OSM    C1118434   5.433   4.109   1.791 -0.1687  0.8352 -0.2125
  164OSM   H11A18435   5.419   4.217   1.813 -0.4606  1.0896 -1.5536
  164OSM   H11B18436   5.532   4.091   1.836  0.4328  0.6900 -1.5553
  164OSM      P18437   5.359   3.900   1.930  0.1027  0.0466 -0.0303
  164OSM    O1318438   5.234   3.856   1.998  0.4530  0.0632 -0.3963
  164OSM    O1418439   5.410   3.804   1.835 -0.1830 -0.9961  0.2334
  164OSM    O1118440   5.473   3.930   2.033 -0.1909  0.3796 -0.1067
  164OSM    O1218441   5.324   4.034   1.855 -0.0299  0.0679  0.1101
  164OSM    C1S18442   5.488   4.040   2.122  0.2936 -0.3341  0.2608
  164OSM    H1S18443   5.397   4.103   2.126  1.6222  1.8165 -1.1490
  164OSM    H1T18444   5.567   4.112   2.091 -3.1905  3.1169 -1.4539
  164OSM     NF18445   5.525   4.098   2.360  0.1257 -0.2144  0.4703
  164OSM    HNF18446   5.616   4.123   2.393  1.8157 -2.1489 -2.3384
  164OSM    C2S18447   5.517   3.984   2.268  0.1326  0.1637  0.2540
  164OSM    H2S18448   5.431   3.922   2.301 -0.0299  1.4140  2.3392
  164OSM    C3S18449   5.643   3.896   2.270  0.1146 -0.2004 -0.1228
  164OSM    H3S18450   5.733   3.961   2.260 -0.0453  0.0245 -0.1092
  164OSM     O318451   5.653   3.800   2.169 -0.2560  0.6964 -0.4095
  164OSM    HO318452   5.579   3.822   2.112 -0.4862 -0.8705 -0.7638
  164OSM    C4S18453   5.654   3.831   2.412  0.3817  0.2708  0.1548
  164OSM    H4S18454   5.697   3.903   2.484  0.0508  1.8127 -1.1395
  164OSM    C5S18455   5.605   3.712   2.459 -0.4196  0.0922 -0.2641
  164OSM    H5S18456   5.567   3.635   2.390 -0.5099 -0.4393  0.3741
  164OSM    C6S18457   5.616   3.669   2.603  0.0186  0.1854  0.0407
  164OSM    H6S18458   5.547   3.584   2.620  0.6797 -0.1731  1.0282
  164OSM    H6T18459   5.581   3.751   2.670  2.3021  2.3595 -1.2363
  164OSM    C7S18460   5.763   3.632   2.641 -0.3963 -0.0024 -0.0078
  164OSM    H7S18461   5.834   3.717   2.645  0.8957 -1.1026  2.3657
  164OSM    H7T18462   5.813   3.563   2.569  1.9941  3.2846 -1.7729
  164OSM    C8S18463   5.774   3.562   2.776  0.5600  0.4094 -0.0701
  164OSM    H8S18464   5.879   3.528   2.791  0.1292 -0.5297  0.9942
  164OSM    H8T18465   5.718   3.466   2.768  1.9076 -0.2636 -2.2848
  164OSM    C9S18466   5.728   3.636   2.902 -0.3730 -0.2271 -0.5714
  164OSM    H9S18467   5.617   3.648   2.901 -0.3217  0.5707  0.9177
  164OSM    H9T18468   5.783   3.732   2.898  2.7721 -1.8757  0.4553
  164OSM   C10S18469   5.768   3.559   3.031 -0.3668 -0.0231  0.3123
  164OSM   H10S18470   5.877   3.537   3.025 -0.6679 -2.0198  1.2114
  164OSM   H10T18471   5.708   3.465   3.037  1.5765 -1.3477  0.0322
  164OSM   C11S18472   5.740   3.646   3.147  0.1031  0.0250  0.2971
  164OSM   H11S18473   5.637   3.684   3.130 -0.1362 -0.6618  0.1989
  164OSM   H11T18474   5.811   3.730   3.165  0.3219 -0.1467  0.2349
  164OSM   C12S18475   5.757   3.578   3.278 -0.5393  0.6399  0.2190
  164OSM   H12S18476   5.865   3.549   3.284 -0.8979 -0.8673 -0.1705
  164OSM   H12T18477   5.701   3.483   3.290 -0.1456  0.5545  1.6720
  164OSM   C13S18478   5.731   3.661   3.406 -0.5840 -0.3182 -0.0464
  164OSM   H13S18479   5.626   3.695   3.418 -0.2515  0.7730 -0.0854
  164OSM   H13T18480   5.768   3.763   3.381 -0.7353 -0.6112 -1.5507
  164OSM   C14S18481   5.802   3.608   3.535  0.7727  0.4779  0.7206
  164OSM   H14S18482   5.910   3.619   3.514  0.3538  0.2148 -2.0703
  164OSM   H14T18483   5.774   3.502   3.551  1.2004  0.1036 -0.8199
  164OSM   C15S18484   5.762   3.685   3.651 -0.1397 -0.2208  0.2561
  164OSM   H15S18485   5.653   3.679   3.670 -0.6076  0.9229 -1.7223
  164OSM   H15T18486   5.771   3.790   3.617 -2.1111  0.1212  0.7119
  164OSM   C16S18487   5.852   3.682   3.772 -0.5565  0.5079 -0.3488
  164OSM   H16S18488   5.814   3.761   3.840  0.3840 -0.4437  1.3429
  164OSM   H16T18489   5.959   3.710   3.756 -0.2213  0.1354  1.1156
  164OSM   C17S18490   5.849   3.552   3.853 -0.2334  0.5927 -0.3135
  164OSM   H17S18491   5.894   3.467   3.797 -0.6706 -0.0841  0.3299
  164OSM   H17T18492   5.741   3.531   3.871  0.4171 -0.3904  3.4148
  164OSM   C18S18493   5.926   3.557   3.987  0.0906  0.1455 -0.6324
  164OSM   H18S18494   5.911   3.465   4.047  1.4356  0.1893 -0.1977
  164OSM   H18T18495   5.903   3.648   4.047  0.0554  1.3223 -2.3303
  164OSM   H18U18496   6.036   3.571   3.979 -0.0055  0.7012 -1.1211
  164OSM    C1F18497   5.422   4.176   2.382 -0.6307 -0.5299 -0.0954
  164OSM     OF18498   5.310   4.144   2.355  0.0680  0.4140  0.8090
  164OSM    C2F18499   5.461   4.302   2.453 -0.3027 -0.1609  0.3045
  164OSM    H2F18500   5.512   4.371   2.383 -1.2928  0.9218  0.6250
  164OSM    H2G18501   5.525   4.268   2.537 -0.8520 -1.4889  0.2226
  164OSM    C3F18502   5.328   4.379   2.497 -0.2167 -0.9812 -1.1161
  164OSM    H3F18503   5.266   4.304   2.550  0.8128 -0.0210  1.6349
  164OSM    H3G18504   5.275   4.422   2.409 -0.2221  1.3573 -0.0390
  164OSM    C4F18505   5.361   4.491   2.595 -0.2373  0.2055  0.3715
  164OSM    H4F18506   5.398   4.581   2.542 -3.3436  0.3063 -1.8365
  164OSM    H4G18507   5.442   4.459   2.665  0.0905  1.7990  0.7603
  164OSM    C5F18508   5.241   4.544   2.687  0.0491 -0.2545  0.8609
  164OSM    H5F18509   5.190   4.455   2.729  0.1539 -0.6848  0.1139
  164OSM    H5G18510   5.167   4.610   2.638  0.3754  0.8501  1.8089
  164OSM    C6F18511   5.304   4.624   2.798 -0.2834  0.0559  0.1396
  164OSM    H6F18512   5.368   4.703   2.754 -0.0284  1.4898  2.8838
  164OSM    H6G18513   5.365   4.557   2.862 -1.7137 -2.6497 -1.1665
  164OSM    C7F18514   5.196   4.677   2.888  0.0211 -0.3518 -0.1756
  164OSM    H7F18515   5.149   4.589   2.936  1.7291 -1.3797 -0.3062
  164OSM    H7G18516   5.114   4.731   2.835  0.2598 -0.8907 -1.1168
  164OSM    C8F18517   5.260   4.771   2.996 -0.1285  0.3809 -0.7958
  164OSM    H8F18518   5.315   4.850   2.942  1.7452  0.2598  0.8230
  164OSM    H8G18519   5.339   4.721   3.057  0.3344  1.1984 -0.7146
  164OSM    C9F18520   5.162   4.829   3.094 -0.0445 -0.2156 -0.0968
  164OSM    H9F18521   5.084   4.886   3.042 -2.0078  0.1982  3.0500
  164OSM   C10F18522   5.161   4.820   3.229 -0.1629 -0.4732 -0.4920
  164OSM   H10F18523   5.089   4.881   3.285  0.3110 -0.2402 -0.1297
  164OSM   C11F18524   5.266   4.746   3.312 -0.1070 -0.1770 -0.6788
  164OSM   H11F18525   5.326   4.674   3.254  0.2972  1.3637 -2.2592
  164OSM   H11G18526   5.224   4.681   3.392  1.5956  1.0063  1.2790
  164OSM   C12F18527   5.356   4.843   3.389 -0.3216  0.2120 -0.7586
  164OSM   H12F18528   5.409   4.911   3.318 -0.2914  2.2524  1.1045
  164OSM   H12G18529   5.427   4.787   3.454 -1.2466 -0.8574 -0.6392
  164OSM   C13F18530   5.286   4.931   3.496  0.3041  0.2021 -1.0912
  164OSM   H13F18531   5.251   5.013   3.429  2.8318  1.9600 -0.4191
  164OSM   H13G18532   5.358   4.984   3.562  1.4038 -2.1491 -0.3048
  164OSM   C14F18533   5.185   4.859   3.585  0.4119 -0.1538  0.4149
  164OSM   H14F18534   5.106   4.808   3.525 -1.8580  0.1222  2.9837
  164OSM   H14G18535   5.136   4.944   3.637  0.1731  0.1467 -0.2795
  164OSM   C15F18536   5.252   4.758   3.683 -0.3072  0.5449 -0.2564
  164OSM   H15F18537   5.311   4.821   3.753  0.6611 -0.1031 -0.4735
  164OSM   H15G18538   5.327   4.701   3.625  0.8518  2.1855 -0.4572
  164OSM   C16F18539   5.155   4.671   3.761 -0.7325  0.5447  0.4985
  164OSM   H16F18540   5.098   4.606   3.692 -1.6157 -0.1015  1.8058
  164OSM   H16G18541   5.076   4.734   3.807 -0.4530  1.6167 -0.4311
  164OSM   C17F18542   5.214   4.584   3.887  0.0732 -0.1318 -0.2228
  164OSM   H17F18543   5.251   4.653   3.965  0.1803 -1.3983  0.8888
  164OSM   H17G18544   5.297   4.518   3.853  1.2752  1.5772 -0.7828
  164OSM   C18F18545   5.101   4.499   3.961 -0.0454  0.4340 -0.2030
  164OSM   H18F18546   5.051   4.424   3.895  0.4373 -1.2088  1.2201
  164OSM   H18G18547   5.029   4.574   4.001 -0.4762 -0.1247  0.1008
  164OSM   H18H18548   5.152   4.445   4.044 -1.4489  0.8822  1.0161
  165SAPS     N18549   2.941   1.806   6.758  0.3590 -0.2281 -0.0927
  165SAPS   HN118550   2.943   1.895   6.811 -1.7300  0.7946 -1.5727
  165SAPS   HN218551   2.843   1.781   6.733  1.2363 -2.1783 -1.8883
  165SAPS   HN318552   2.980   1.723   6.806  0.1608 -0.1367  0.2245
  165SAPS   C1218553   3.005   1.833   6.630  0.1679 -0.1752 -0.7223
  165SAPS  H12A18554   2.940   1.907   6.586 -2.9389 -2.8978 -1.0291
  165SAPS   C1318555   3.159   1.874   6.623 -0.6019  0.5514 -0.0914
  165SAPS  O13A18556   3.233   1.904   6.723  0.3339  0.1869 -0.1727
  165SAPS  O13B18557   3.211   1.869   6.507  0.7196 -0.6872 -0.2592
  165SAPS   C1118558   2.969   1.711   6.541 -0.0755  0.0641 -0.5732
  165SAPS  H11A18559   3.002   1.618   6.593 -1.1287  0.1633  0.3085
  165SAPS  H11B18560   3.031   1.730   6.451  0.3704 -1.5982 -0.6491
  165SAPS     P18561   2.762   1.675   6.378  0.0597  0.0829  0.2145
  165SAPS   O1318562   2.687   1.548   6.389  0.3016 -0.5961 -0.3021
  165SAPS   O1418563   2.684   1.786   6.320 -0.2112 -0.2130  0.3848
  165SAPS   O1218564   2.830   1.711   6.514  0.1465  0.0348 -0.3472
  165SAPS   O1118565   2.882   1.656   6.275  0.2239 -0.5420 -0.2585
  165SAPS    C118566   2.962   1.759   6.219 -0.2050  0.2727 -0.1244
  165SAPS    HA18567   2.924   1.860   6.249 -2.2791 -0.9014  1.4918
  165SAPS    HB18568   3.068   1.745   6.248 -0.8240 -0.4206  2.0034
  165SAPS    C218569   2.954   1.765   6.065 -0.2102  0.6531  0.0477
  165SAPS    HS18570   3.011   1.683   6.016 -0.0841  0.9005 -0.2245
  165SAPS   O2118571   3.005   1.888   6.018  0.4680 -0.6217 -0.2535
  165SAPS   C2118572   3.136   1.908   6.026 -0.4502  0.2182  0.1575
  165SAPS   O2218573   3.216   1.814   6.056  0.1647  0.0828  0.4607
  165SAPS   C2218574   3.176   2.053   5.975  0.3829 -1.1480 -0.2109
  165SAPS   H2R18575   3.129   2.111   6.057 -1.3832 -2.0117 -0.5411
  165SAPS   H2S18576   3.287   2.054   5.967  0.6349 -1.0877  2.4266
  165SAPS    C318577   2.806   1.733   6.019  0.3158  0.1140 -0.2424
  165SAPS    HX18578   2.751   1.814   6.071 -2.0128 -1.0584 -0.7670
  165SAPS    HY18579   2.778   1.634   6.059 -1.1374 -0.0509 -1.5697
  165SAPS   O3118580   2.786   1.749   5.879  0.4446 -0.6381  0.7500
  165SAPS   C3118581   2.837   1.651   5.803 -1.0560 -0.5483  0.8371
  165SAPS   O3218582   2.891   1.545   5.833  0.6261 -0.0368 -0.4317
  165SAPS   C3218583   2.809   1.690   5.650 -0.0822  0.3024  0.0924
  165SAPS   H2X18584   2.878   1.773   5.627  1.1717  0.4998  3.8754
  165SAPS   H2Y18585   2.705   1.728   5.647  0.5661  2.1280 -3.1768
  165SAPS   C2318586   3.108   2.099   5.841 -0.1489 -0.0414  0.2278
  165SAPS   H3R18587   2.997   2.098   5.844 -0.1303  0.1346  1.4292
  165SAPS   H3S18588   3.142   2.030   5.760  0.9864 -0.4072  0.9944
  165SAPS   C2418589   3.136   2.243   5.810  0.3170 -0.4845  0.3632
  165SAPS   H4R18590   3.138   2.316   5.893  0.3938  0.7118 -0.6632
  165SAPS   H4S18591   3.064   2.278   5.733  1.6647 -0.8601 -1.1283
  165SAPS   C2518592   3.271   2.252   5.745 -0.0822  0.5604 -0.2796
  165SAPS   H5R18593   3.356   2.242   5.813 -0.6922 -1.2904  0.2760
  165SAPS   C2618594   3.297   2.274   5.614  0.0166  0.9529 -0.3172
  165SAPS   H6R18595   3.400   2.278   5.578  0.1207  0.8860 -0.0258
  165SAPS   C2718596   3.197   2.292   5.502 -0.3443  0.0002 -1.2655
  165SAPS   H7R18597   3.113   2.220   5.516  0.1076 -0.6745 -1.9291
  165SAPS   H7S18598   3.254   2.262   5.411  1.5632 -0.1060 -0.1069
  165SAPS   C2818599   3.117   2.417   5.487 -0.8061  0.7751 -0.4173
  165SAPS   H8R18600   3.099   2.470   5.581 -1.7599  0.2131 -0.2654
  165SAPS   C2918601   3.072   2.471   5.371 -0.3054 -0.3000 -0.4101
  165SAPS   H9R18602   3.046   2.577   5.381  0.8775  0.1370 -1.6580
  165SAPS  C21018603   3.098   2.428   5.233 -0.3105  0.3887  0.4829
  165SAPS  H10R18604   3.016   2.453   5.163  0.0210  0.1369 -0.0034
  165SAPS  H10S18605   3.118   2.319   5.231  1.5210  0.7002  0.2202
  165SAPS  C21118606   3.216   2.492   5.167  0.1376  0.2454  0.1364
  165SAPS  H11R18607   3.218   2.602   5.165  0.5588  0.2710 -2.8418
  165SAPS  C21218608   3.313   2.434   5.097 -0.2941 -0.5954  0.2177
  165SAPS  H12R18609   3.376   2.501   5.036 -3.3007  2.0649 -0.2751
  165SAPS  C21318610   3.318   2.286   5.075  0.4783  0.1770 -0.8302
  165SAPS  H13R18611   3.252   2.266   4.988  0.4108  3.3162 -1.6192
  165SAPS  H13S18612   3.285   2.230   5.166 -1.5272  0.3715 -1.3756
  165SAPS  C21418613   3.452   2.245   5.047  0.0466 -0.4412  0.4708
  165SAPS  H14R18614   3.494   2.194   5.134 -1.7595  2.7159  3.4210
  165SAPS  C21518615   3.516   2.260   4.929 -0.2218 -0.1148  0.1236
  165SAPS  H15R18616   3.622   2.230   4.929 -0.4423 -0.9420 -0.9040
  165SAPS  C21618617   3.460   2.318   4.802 -0.6896 -1.5810 -0.0163
  165SAPS  H16R18618   3.398   2.407   4.826  2.6668  0.5277  1.6151
  165SAPS  H16S18619   3.398   2.247   4.744 -1.2173 -1.2996  0.2039
  165SAPS  C21718620   3.574   2.370   4.704 -0.4386 -0.2028  0.1178
  165SAPS  H17R18621   3.625   2.281   4.659 -0.9031 -2.0599  3.0004
  165SAPS  H17S18622   3.649   2.431   4.759 -0.4646  0.4788 -0.5895
  165SAPS  C21818623   3.527   2.464   4.588  0.4335  0.3977 -0.5529
  165SAPS  H18R18624   3.446   2.532   4.621 -0.1123  0.1376 -1.3297
  165SAPS  H18S18625   3.486   2.385   4.521 -0.7805  1.8979 -1.6437
  165SAPS  C21918626   3.637   2.537   4.516  0.0651 -0.2632  0.6231
  165SAPS  H19R18627   3.735   2.527   4.567  0.5304 -1.2071 -0.4145
  165SAPS  H19S18628   3.614   2.646   4.511 -0.0026 -0.3220 -0.9545
  165SAPS  C22018629   3.641   2.500   4.370  0.1471 -0.0282  0.4229
  165SAPS  H20R18630   3.728   2.554   4.328 -0.8278  2.4060  1.3063
  165SAPS  H20S18631   3.552   2.520   4.306  0.5721  0.9687  0.1189
  165SAPS  H20T18632   3.673   2.394   4.363 -1.0498 -0.3786 -0.1104
  165SAPS   C3318633   2.841   1.577   5.553  0.4968 -1.2826  0.6909
  165SAPS   H3X18634   2.780   1.484   5.557 -0.1012 -0.8665  1.4384
  165SAPS   H3Y18635   2.950   1.565   5.573  1.2115  1.1685 -1.3168
  165SAPS   C3418636   2.831   1.626   5.409 -0.2296 -0.4247 -0.5895
  165SAPS   H4X18637   2.902   1.709   5.390  0.1916 -0.9783 -1.4495
  165SAPS   H4Y18638   2.732   1.671   5.386 -1.1535 -0.6079  2.5715
  165SAPS   C3518639   2.855   1.513   5.309  0.2183 -0.5368  0.5984
  165SAPS   H5X18640   2.790   1.426   5.331 -0.0897 -0.1443  1.2699
  165SAPS   H5Y18641   2.957   1.469   5.318  0.0882 -0.8472  0.5611
  165SAPS   C3618642   2.815   1.557   5.162 -0.8254 -0.4848 -0.0063
  165SAPS   H6X18643   2.889   1.632   5.128 -1.1840  0.0297  0.3350
  165SAPS   H6Y18644   2.721   1.615   5.148 -0.9705 -0.4693  0.9602
  165SAPS   C3718645   2.804   1.438   5.059 -0.5210 -0.5885  0.8256
  165SAPS   H7X18646   2.744   1.358   5.106 -2.3169 -0.2747 -0.8357
  165SAPS   H7Y18647   2.903   1.400   5.025 -0.9961 -0.2342 -1.0673
  165SAPS   C3818648   2.730   1.470   4.937  0.7636  0.2285  0.1178
  165SAPS   H8X18649   2.769   1.561   4.886 -1.6085  2.5458  2.1650
  165SAPS   H8Y18650   2.626   1.491   4.969  0.7775 -1.7746  1.5843
  165SAPS   C3918651   2.718   1.358   4.827 -0.8277  0.5461  0.6659
  165SAPS   H9X18652   2.668   1.273   4.877 -0.5469 -0.1788 -0.2790
  165SAPS   H9Y18653   2.817   1.312   4.805 -1.8325 -1.9633  1.1583
  165SAPS  C31018654   2.652   1.402   4.700  0.4554  0.0949 -0.8751
  165SAPS  H10X18655   2.706   1.496   4.677  2.5685  0.5332  4.3938
  165SAPS  H10Y18656   2.542   1.408   4.710  0.6305  0.5492  1.0694
  165SAPS  C31118657   2.665   1.297   4.594  0.5431 -0.0457  0.0028
  165SAPS  H11X18658   2.597   1.210   4.611  0.4672 -0.0437 -0.2724
  165SAPS  H11Y18659   2.767   1.253   4.588 -0.3231 -2.1126 -0.5970
  165SAPS  C31218660   2.609   1.350   4.458  0.4214  0.3814  0.3412
  165SAPS  H12X18661   2.660   1.446   4.432 -0.3189  0.7311  0.1600
  165SAPS  H12Y18662   2.502   1.376   4.469  0.4909  0.2857  1.3852
  165SAPS  C31318663   2.628   1.245   4.340 -0.4323  0.1702 -0.2102
  165SAPS  H13X18664   2.718   1.186   4.369 -0.8099  0.2486  1.1777
  165SAPS  H13Y18665   2.644   1.305   4.248 -0.0121 -0.4622 -0.5612
  165SAPS  C31418666   2.523   1.145   4.314  0.2940  0.1328 -1.0273
  165SAPS  H14X18667   2.424   1.184   4.283 -0.6530 -2.5699 -1.6856
  165SAPS  H14Y18668   2.491   1.096   4.409 -0.5075  4.2437  1.0519
  165SAPS  C31518669   2.562   1.033   4.216  0.1295 -0.1192 -0.2689
  165SAPS  H15X18670   2.482   0.960   4.191  1.8333 -1.5702 -1.8639
  165SAPS  H15Y18671   2.655   0.982   4.249 -0.8191 -1.3830  0.5523
  165SAPS  C31618672   2.598   1.097   4.078  0.9738 -0.1044 -0.0327
  165SAPS  H16X18673   2.662   1.186   4.098  3.7201 -2.0389  0.3617
  165SAPS  H16Y18674   2.506   1.130   4.023 -1.6674 -3.4747  1.9812
  165SAPS  C31718675   2.677   1.004   3.981 -0.3637 -0.3229  0.1043
  165SAPS  H17X18676   2.774   0.986   4.032  1.9290  0.2022 -3.7318
  165SAPS  H17Y18677   2.704   1.060   3.890 -0.1627 -1.5409 -0.6103
  165SAPS  C31818678   2.621   0.868   3.936 -0.1951 -0.0414 -0.4063
  165SAPS  H18X18679   2.581   0.829   4.032 -3.2569 -0.2716 -1.6801
  165SAPS  H18Y18680   2.698   0.802   3.890 -0.5887  0.9892 -2.6518
  165SAPS  H18Z18681   2.538   0.874   3.863 -3.8919 -1.1541  3.3132
  166SAPS     N18682   1.194   4.072   6.603  0.9981 -0.3569 -0.1441
  166SAPS   HN118683   1.254   4.022   6.671  0.5131  0.3650  0.8440
  166SAPS   HN218684   1.157   4.001   6.537 -0.5106 -1.6518  2.0096
  166SAPS   HN318685   1.244   4.149   6.553 -1.3842  3.1990  2.4309
  166SAPS   C1218686   1.082   4.122   6.688 -0.6974  0.2401  0.2408
  166SAPS  H12A18687   1.101   4.071   6.782 -0.0513 -1.0936 -0.5822
  166SAPS   C1318688   1.085   4.268   6.727  0.0556  0.3319 -0.2588
  166SAPS  O13A18689   1.191   4.331   6.703 -0.1333 -0.0621  0.0712
  166SAPS  O13B18690   0.978   4.325   6.765  0.4706  0.3611 -0.3510
  166SAPS   C1118691   0.946   4.076   6.633 -0.0512 -0.6609  0.1482
  166SAPS  H11A18692   0.919   4.132   6.540  0.8767 -2.2737 -1.1423
  166SAPS  H11B18693   0.876   4.122   6.706 -0.6755 -0.0566 -0.7987
  166SAPS     P18694   0.944   3.855   6.489 -0.0329  0.4860  0.2357
  166SAPS   O1318695   1.082   3.873   6.441  0.5358  0.0676  0.0673
  166SAPS   O1418696   0.902   3.713   6.508 -0.1425  0.3425  0.3609
  166SAPS   O1218697   0.921   3.935   6.626 -0.1637  0.6360  0.0313
  166SAPS   O1118698   0.846   3.922   6.388 -0.4186  0.7845  0.2676
  166SAPS    C118699   0.841   3.868   6.254 -0.2262 -0.1842  0.4188
  166SAPS    HA18700   0.856   3.759   6.242  0.5499  0.1533 -2.3695
  166SAPS    HB18701   0.740   3.886   6.210 -1.2357 -1.8453  1.8987
  166SAPS    C218702   0.945   3.941   6.161 -0.0765 -0.4662 -0.2794
  166SAPS    HS18703   1.047   3.911   6.193  0.5244  2.1417  0.5537
  166SAPS   O2118704   0.930   4.083   6.190 -0.0516  0.4769  0.1451
  166SAPS   C2118705   1.038   4.154   6.169  1.0029 -0.3879  0.1945
  166SAPS   O2218706   1.138   4.123   6.114 -0.2007  0.1015  0.4711
  166SAPS   C2218707   1.013   4.300   6.234  0.2420 -0.2278 -0.1470
  166SAPS   H2R18708   1.090   4.319   6.312 -0.1773  0.3256  0.1391
  166SAPS   H2S18709   1.024   4.365   6.146  0.0380 -2.0093 -1.5464
  166SAPS    C318710   0.922   3.901   6.013  0.3037  0.1955 -0.0258
  166SAPS    HX18711   0.815   3.926   5.997  0.3318 -0.1116 -0.7428
  166SAPS    HY18712   0.928   3.790   6.010 -1.2707  0.1067 -1.1112
  166SAPS   O3118713   0.998   3.972   5.920 -0.1784  0.5503 -0.3754
  166SAPS   C3118714   1.107   3.905   5.865  0.8037 -0.5739 -0.1508
  166SAPS   O3218715   1.149   3.793   5.897  0.1903 -0.0432  0.0425
  166SAPS   C3218716   1.156   3.988   5.746 -0.3312 -0.6603 -0.2626
  166SAPS   H2X18717   1.179   4.090   5.783  0.2652 -0.4157 -1.2396
  166SAPS   H2Y18718   1.067   4.003   5.682  0.1998 -0.3667 -0.9454
  166SAPS   C2318719   0.878   4.329   6.303 -0.0428  0.1192  0.4446
  166SAPS   H3R18720   0.879   4.430   6.349 -0.0963  0.5759 -0.5411
  166SAPS   H3S18721   0.869   4.258   6.388 -0.1730 -1.5942 -0.9327
  166SAPS   C2418722   0.752   4.330   6.205 -0.3069 -0.9772 -0.0729
  166SAPS   H4R18723   0.658   4.345   6.261  0.8778  2.3450  1.3151
  166SAPS   H4S18724   0.744   4.228   6.163  2.0754 -1.0518 -0.5056
  166SAPS   C2518725   0.755   4.441   6.101 -0.0559 -0.4346  0.3451
  166SAPS   H5R18726   0.758   4.543   6.143 -1.5980 -0.5684  0.8501
  166SAPS   C2618727   0.756   4.425   5.966  0.0834  0.4046  0.3930
  166SAPS   H6R18728   0.765   4.515   5.904  1.9848 -0.9327 -1.4218
  166SAPS   C2718729   0.748   4.291   5.896  0.5728  0.0200 -0.7804
  166SAPS   H7R18730   0.660   4.300   5.829  0.0166 -0.1398 -0.0898
  166SAPS   H7S18731   0.718   4.214   5.970  1.0022  1.6551  1.1853
  166SAPS   C2818732   0.856   4.242   5.805 -0.0081 -0.0341 -0.1358
  166SAPS   H8R18733   0.937   4.194   5.861  0.1012  0.2123 -0.0826
  166SAPS   C2918734   0.856   4.229   5.668  0.4181  0.2672 -0.2922
  166SAPS   H9R18735   0.939   4.179   5.615  0.3502  0.1517 -0.2905
  166SAPS  C21018736   0.753   4.274   5.562 -0.1053  0.0001 -0.4108
  166SAPS  H10R18737   0.793   4.357   5.500 -1.3353  1.2197  0.3647
  166SAPS  H10S18738   0.666   4.317   5.616 -0.2346 -0.6420 -0.0989
  166SAPS  C21118739   0.694   4.158   5.488  0.2279  0.1378 -0.1112
  166SAPS  H11R18740   0.636   4.086   5.547 -2.4682  2.7976  0.7516
  166SAPS  C21218741   0.690   4.143   5.355  0.4682 -0.7191 -0.8413
  166SAPS  H12R18742   0.653   4.049   5.313  0.0475 -0.8037 -0.2889
  166SAPS  C21318743   0.732   4.248   5.256 -0.0943  0.3203 -0.0905
  166SAPS  H13R18744   0.762   4.346   5.298  3.6213 -0.8112  0.2025
  166SAPS  H13S18745   0.647   4.270   5.187 -1.2554 -0.6409  0.9794
  166SAPS  C21418746   0.848   4.200   5.174 -0.3421  0.1270  0.0140
  166SAPS  H14R18747   0.926   4.151   5.234 -1.2598 -0.6028  0.6336
  166SAPS  C21518748   0.876   4.259   5.058  0.9395 -0.2389 -0.0706
  166SAPS  H15R18749   0.963   4.211   5.011  0.0187 -0.2416 -1.8341
  166SAPS  C21618750   0.799   4.359   4.978  0.4876 -0.8029 -0.1544
  166SAPS  H16R18751   0.716   4.406   5.035  1.9391  1.1860  0.4481
  166SAPS  H16S18752   0.750   4.318   4.887 -1.6595 -0.7037  0.8973
  166SAPS  C21718753   0.880   4.480   4.915  0.3567 -0.0420 -0.3973
  166SAPS  H17R18754   0.956   4.439   4.845  1.9564 -0.2920  1.3841
  166SAPS  H17S18755   0.924   4.536   5.001 -1.0948 -1.2473  1.2098
  166SAPS  C21818756   0.780   4.572   4.834  0.0648 -0.2504 -0.3871
  166SAPS  H18R18757   0.837   4.664   4.810  4.2462 -1.9015  2.2118
  166SAPS  H18S18758   0.698   4.597   4.904 -1.3999  0.8758 -2.3843
  166SAPS  C21918759   0.711   4.523   4.713 -0.8431  0.0134 -0.8203
  166SAPS  H19R18760   0.639   4.442   4.735 -1.9065  0.9285 -0.8330
  166SAPS  H19S18761   0.781   4.485   4.636  0.1517 -0.1209  0.1240
  166SAPS  C22018762   0.639   4.638   4.646  0.2306  0.5602  0.0904
  166SAPS  H20R18763   0.559   4.678   4.712  1.1671  1.1328  0.9128
  166SAPS  H20S18764   0.586   4.609   4.553  2.4248 -5.6028  0.3414
  166SAPS  H20T18765   0.702   4.723   4.611 -0.5235  0.7678 -0.7901
  166SAPS   C3318766   1.285   3.936   5.682 -0.1319  0.1368  0.1127
  166SAPS   H3X18767   1.370   3.911   5.749 -0.1786  2.0860  0.9783
  166SAPS   H3Y18768   1.331   4.013   5.616 -0.7066  0.9036  0.5878
  166SAPS   C3418769   1.256   3.822   5.582 -0.2666 -0.2615  0.6440
  166SAPS   H4X18770   1.203   3.737   5.631 -2.5418 -0.3117 -1.6634
  166SAPS   H4Y18771   1.356   3.801   5.538  0.1780 -1.3234  2.0958
  166SAPS   C3518772   1.166   3.869   5.465  0.0425 -0.1911  0.1718
  166SAPS   H5X18773   1.193   3.976   5.454  0.7879  0.0740  3.5073
  166SAPS   H5Y18774   1.061   3.871   5.500  0.0166  0.2558  0.0696
  166SAPS   C3618775   1.179   3.780   5.340 -0.0153  0.6136 -0.1389
  166SAPS   H6X18776   1.143   3.676   5.356  1.6454  0.2240  1.3376
  166SAPS   H6Y18777   1.287   3.767   5.317  0.1676  1.4130  0.2366
  166SAPS   C3718778   1.106   3.841   5.216 -0.0201  0.3521 -0.4930
  166SAPS   H7X18779   1.017   3.901   5.245 -0.6063 -0.9935  0.5803
  166SAPS   H7Y18780   1.068   3.752   5.161  4.4263 -2.1977  0.0405
  166SAPS   C3818781   1.194   3.921   5.118 -0.6117  0.3772  0.1830
  166SAPS   H8X18782   1.289   3.865   5.104  0.2137  1.7553  0.0932
  166SAPS   H8Y18783   1.220   4.022   5.155  0.9184 -0.0190  0.2559
  166SAPS   C3918784   1.116   3.932   4.993  0.7678 -0.1321  0.0392
  166SAPS   H9X18785   1.010   3.963   5.010  1.0669  1.3791 -0.6280
  166SAPS   H9Y18786   1.107   3.832   4.945  1.0853  0.1395 -0.6008
  166SAPS  C31018787   1.187   4.023   4.889 -0.2566  0.2182  0.3182
  166SAPS  H10X18788   1.294   3.993   4.881  0.6400  2.8436  1.2503
  166SAPS  H10Y18789   1.185   4.121   4.942  1.3309  1.6658 -2.1378
  166SAPS  C31118790   1.130   4.038   4.756 -0.0403  0.0230  0.5776
  166SAPS  H11X18791   1.024   4.068   4.769  0.3395  1.1577  1.1840
  166SAPS  H11Y18792   1.131   3.944   4.697 -2.9441  0.3812 -0.1753
  166SAPS  C31218793   1.195   4.148   4.674 -0.1781  0.6900 -0.1241
  166SAPS  H12X18794   1.301   4.117   4.661 -0.3227  0.3140 -0.4122
  166SAPS  H12Y18795   1.193   4.236   4.742  0.2073 -0.8275  1.9330
  166SAPS  C31318796   1.142   4.179   4.536 -0.3016  0.9331 -0.2459
  166SAPS  H13X18797   1.037   4.208   4.555 -0.6567 -0.0532 -0.6607
  166SAPS  H13Y18798   1.140   4.082   4.483  1.0879  0.7946 -0.0764
  166SAPS  C31418799   1.220   4.285   4.458 -1.2039 -0.2782  0.5140
  166SAPS  H14X18800   1.326   4.255   4.446 -1.8832 -3.7990  1.9730
  166SAPS  H14Y18801   1.217   4.383   4.509  1.4597  0.7353 -1.0619
  166SAPS  C31518802   1.166   4.316   4.320 -0.1790 -0.0500 -0.1402
  166SAPS  H15X18803   1.233   4.399   4.289  1.0899 -0.4875  1.3249
  166SAPS  H15Y18804   1.062   4.354   4.315 -0.6025 -1.2329 -0.9416
  166SAPS  C31618805   1.183   4.203   4.210 -0.3041  0.0430  0.0810
  166SAPS  H16X18806   1.160   4.242   4.109  1.1034  1.8496  0.3885
  166SAPS  H16Y18807   1.103   4.131   4.233 -1.5447  1.4049  0.1679
  166SAPS  C31718808   1.325   4.138   4.201  0.0463  0.4818 -0.5877
  166SAPS  H17X18809   1.361   4.117   4.304  1.5481  1.4696 -0.8804
  166SAPS  H17Y18810   1.393   4.217   4.162 -0.4999  0.1667 -2.2795
  166SAPS  C31818811   1.343   4.025   4.104  0.1633 -0.2465 -0.4614
  166SAPS  H18X18812   1.447   3.988   4.112  0.9412  1.2408 -2.8572
  166SAPS  H18Y18813   1.316   4.058   4.001  2.8131 -0.7913 -1.4150
  166SAPS  H18Z18814   1.280   3.938   4.133  0.4469 -0.3553 -0.1783
  167SAPS     N18815   4.656   5.246   6.606  0.1126  0.0410  0.5855
  167SAPS   HN118816   4.744   5.256   6.552 -0.7579  0.6230 -0.7950
  167SAPS   HN218817   4.576   5.222   6.543 -0.1143  2.1045  0.0264
  167SAPS   HN318818   4.642   5.339   6.650  2.0433  0.4314  0.4840
  167SAPS   C1218819   4.684   5.151   6.719 -0.2047  0.5448  0.3188
  167SAPS  H12A18820   4.789   5.163   6.745  0.2063  0.5987 -1.2895
  167SAPS   C1318821   4.599   5.171   6.854 -0.1446  0.4880  0.6537
  167SAPS  O13A18822   4.517   5.271   6.852 -0.2256 -0.2783 -0.3580
  167SAPS  O13B18823   4.629   5.103   6.953 -0.3143 -0.3170  0.2007
  167SAPS   C1118824   4.660   5.009   6.663 -0.0348  0.1431 -0.4233
  167SAPS  H11A18825   4.554   4.978   6.672  0.2978 -0.4125  2.4123
  167SAPS  H11B18826   4.711   4.933   6.726  0.1972 -0.3392 -1.1698
  167SAPS     P18827   4.843   4.928   6.506 -0.2575  0.3247 -0.0906
  167SAPS   O1318828   4.949   5.008   6.557 -0.0630  0.0852 -0.3998
  167SAPS   O1418829   4.827   4.796   6.566  0.0034  0.0440 -0.2718
  167SAPS   O1218830   4.703   4.995   6.522  0.2554 -0.5407  0.3747
  167SAPS   O1118831   4.853   4.911   6.348  0.5004  0.0192 -1.1581
  167SAPS    C118832   4.914   5.016   6.272 -0.2416  0.3880  0.5502
  167SAPS    HA18833   4.839   5.090   6.237  1.3629  0.2594 -3.7158
  167SAPS    HB18834   4.984   5.076   6.333 -1.8677  1.5657  1.3350
  167SAPS    C218835   4.986   4.948   6.148 -0.0805  0.0708  0.0718
  167SAPS    HS18836   5.005   5.025   6.071 -1.2306  0.4859  0.1713
  167SAPS   O2118837   4.911   4.839   6.088  0.0732 -0.0439  0.3030
  167SAPS   C2118838   4.796   4.861   6.034  0.3240 -0.1914 -0.4047
  167SAPS   O2218839   4.746   4.971   6.011  0.0678  0.1052  0.4033
  167SAPS   C2218840   4.753   4.729   5.964  0.4685  0.2947  0.0493
  167SAPS   H2R18841   4.824   4.706   5.882 -0.7747 -1.5328 -0.5858
  167SAPS   H2S18842   4.749   4.647   6.039  1.6245 -0.7245 -0.9639
  167SAPS    C318843   5.121   4.883   6.196 -0.4989 -0.0425  0.2872
  167SAPS    HX18844   5.108   4.817   6.285 -1.5802 -0.4075 -0.1283
  167SAPS    HY18845   5.182   4.970   6.228 -0.4002  0.0140 -0.0542
  167SAPS   O3118846   5.178   4.800   6.095 -0.2928  0.2950 -0.3478
  167SAPS   C3118847   5.249   4.864   6.007  0.3633  0.8072  0.2677
  167SAPS   O3218848   5.285   4.982   6.009  0.3605  0.4778  0.0102
  167SAPS   C3218849   5.265   4.767   5.883  0.4442  0.6379 -0.2320
  167SAPS   H2X18850   5.302   4.668   5.918 -1.6752 -0.5801 -1.2244
  167SAPS   H2Y18851   5.340   4.815   5.817 -0.2791  0.2382 -1.3908
  167SAPS   C2318852   4.609   4.734   5.898 -0.6517  0.3043 -0.3772
  167SAPS   H3R18853   4.611   4.783   5.798  0.4148  0.3829 -0.3401
  167SAPS   H3S18854   4.534   4.785   5.961  0.9677  1.4094  0.7490
  167SAPS   C2418855   4.555   4.594   5.859  0.5843  0.3245  0.0092
  167SAPS   H4R18856   4.469   4.606   5.790  2.3803  2.5699 -2.0322
  167SAPS   H4S18857   4.522   4.542   5.951  0.1034 -1.8471 -1.2977
  167SAPS   C2518858   4.664   4.513   5.791 -0.0276  0.4097 -0.0938
  167SAPS   H5R18859   4.740   4.468   5.857 -0.0507  1.2107  0.4987
  167SAPS   C2618860   4.671   4.470   5.659 -0.5091 -0.4676  0.1134
  167SAPS   H6R18861   4.761   4.411   5.634 -0.6829  0.3853 -2.9134
  167SAPS   C2718862   4.581   4.502   5.546 -0.2491  0.3648  0.1425
  167SAPS   H7R18863   4.621   4.578   5.475 -0.7841  1.6451  1.1705
  167SAPS   H7S18864   4.490   4.555   5.583  0.4096  1.2629  0.4919
  167SAPS   C2818865   4.552   4.382   5.466 -0.3204 -0.8887  0.4843
  167SAPS   H8R18866   4.638   4.340   5.411  0.0315  0.9493 -0.4765
  167SAPS   C2918867   4.423   4.334   5.459 -0.7417 -0.1529 -0.0520
  167SAPS   H9R18868   4.410   4.256   5.382 -0.2570  0.2458 -0.5466
  167SAPS  C21018869   4.291   4.389   5.513 -0.0323 -0.4089 -0.2213
  167SAPS  H10R18870   4.265   4.465   5.436  2.1671  1.0974  0.4679
  167SAPS  H10S18871   4.307   4.450   5.603 -1.6985  0.8680 -0.7327
  167SAPS  C21118872   4.184   4.285   5.526  0.4535 -0.5139  0.2715
  167SAPS  H11R18873   4.194   4.251   5.630  1.2020  1.7182  1.0065
  167SAPS  C21218874   4.106   4.235   5.428  0.1445  0.1878 -0.2002
  167SAPS  H12R18875   4.023   4.167   5.453 -0.3959  0.6750 -0.6355
  167SAPS  C21318876   4.098   4.288   5.278  0.8905  0.2010 -0.3267
  167SAPS  H13R18877   4.092   4.399   5.282  0.3722  0.1623  0.2492
  167SAPS  H13S18878   3.996   4.259   5.246  1.3101 -1.5291 -0.1844
  167SAPS  C21418879   4.190   4.228   5.174 -0.0323 -0.0718  0.4908
  167SAPS  H14R18880   4.204   4.119   5.188  2.6866  0.0133 -0.9635
  167SAPS  C21518881   4.240   4.283   5.063  0.1232 -0.1754  0.3437
  167SAPS  H15R18882   4.292   4.219   4.991 -1.8064 -1.8350  0.3319
  167SAPS  C21618883   4.243   4.428   5.024 -0.3425 -1.3137 -0.1602
  167SAPS  H16R18884   4.208   4.493   5.107  2.8703  1.0787 -0.4724
  167SAPS  H16S18885   4.176   4.434   4.936 -1.0385 -1.8965  0.3195
  167SAPS  C21718886   4.386   4.495   4.978 -0.3801 -0.0527 -0.0479
  167SAPS  H17R18887   4.378   4.593   4.927 -0.9303 -0.7623 -1.3606
  167SAPS  H17S18888   4.436   4.419   4.915 -0.3853  1.2243 -1.6616
  167SAPS  C21818889   4.484   4.512   5.099 -0.4158  0.0693  0.9020
  167SAPS  H18R18890   4.490   4.409   5.141  0.3844 -0.6547 -0.9023
  167SAPS  H18S18891   4.430   4.568   5.178 -0.1003  0.9348  0.5206
  167SAPS  C21918892   4.620   4.574   5.061 -0.2822 -0.2735 -0.2892
  167SAPS  H19R18893   4.603   4.675   5.017 -0.5407 -0.4765 -0.6656
  167SAPS  H19S18894   4.664   4.509   4.982  1.2419 -0.8051  0.9687
  167SAPS  C22018895   4.718   4.590   5.175 -0.8355 -0.1065  0.2182
  167SAPS  H20R18896   4.674   4.658   5.252 -1.1428  0.3503 -0.3561
  167SAPS  H20S18897   4.814   4.633   5.139 -1.2880  0.9423  0.2175
  167SAPS  H20T18898   4.740   4.489   5.216 -0.1584 -0.0265  0.0742
  167SAPS   C3318899   5.133   4.747   5.806  0.1786 -0.2481 -0.9856
  167SAPS   H3X18900   5.111   4.833   5.740 -2.9391  1.9732  2.5570
  167SAPS   H3Y18901   5.046   4.729   5.873  0.7334 -1.1844 -0.4959
  167SAPS   C3418902   5.141   4.624   5.716 -0.6473 -1.1554 -0.3145
  167SAPS   H4X18903   5.176   4.532   5.769  1.0647 -1.6363 -2.1575
  167SAPS   H4Y18904   5.226   4.648   5.648 -0.9674  1.6889  0.1873
  167SAPS   C3518905   5.019   4.619   5.627  0.2161  0.5527  0.5308
  167SAPS   H5X18906   4.997   4.715   5.575  0.9288  0.1707 -0.5015
  167SAPS   H5Y18907   4.937   4.583   5.693  2.8049  0.6809  4.0674
  167SAPS   C3618908   5.029   4.511   5.513 -0.5046 -0.2133  0.2431
  167SAPS   H6X18909   4.931   4.458   5.516 -1.2633  1.1655  1.2083
  167SAPS   H6Y18910   5.113   4.441   5.532  1.0762  1.2669 -0.9378
  167SAPS   C3718911   5.061   4.582   5.377  0.2692  0.1265  0.2707
  167SAPS   H7X18912   5.169   4.605   5.384  0.6133 -1.2272 -0.4578
  167SAPS   H7Y18913   5.010   4.675   5.343  0.0038  0.0072  0.3374
  167SAPS   C3818914   5.039   4.477   5.265 -0.1141  0.7196 -0.7132
  167SAPS   H8X18915   4.930   4.457   5.263 -0.4103  1.9034  1.2063
  167SAPS   H8Y18916   5.090   4.381   5.291 -1.7010 -0.0606 -0.3635
  167SAPS   C3918917   5.069   4.528   5.123 -0.4500 -0.4677  1.1582
  167SAPS   H9X18918   5.180   4.533   5.112 -0.6224 -0.1827 -0.7859
  167SAPS   H9Y18919   5.034   4.633   5.116  0.1822 -0.3705 -1.3280
  167SAPS  C31018920   5.001   4.452   5.015  0.3827  0.2255  0.3098
  167SAPS  H10X18921   4.894   4.440   5.039  0.6168 -0.3146  1.1282
  167SAPS  H10Y18922   5.045   4.350   5.007 -0.4585 -0.0348 -1.6784
  167SAPS  C31118923   5.017   4.516   4.872  0.2325  0.4104 -0.8742
  167SAPS  H11X18924   5.121   4.511   4.835  0.7769  0.0811  0.6309
  167SAPS  H11Y18925   4.968   4.615   4.877 -3.0079 -0.9375 -2.5504
  167SAPS  C31218926   4.934   4.431   4.774 -0.5188  0.3791 -0.1803
  167SAPS  H12X18927   4.829   4.410   4.804 -1.5666  1.8594 -2.4829
  167SAPS  H12Y18928   4.992   4.337   4.757  0.4170  0.6156  1.5366
  167SAPS  C31318929   4.910   4.489   4.629  0.3919  0.3413 -0.6219
  167SAPS  H13X18930   5.012   4.510   4.591  0.7820 -0.7694 -0.2183
  167SAPS  H13Y18931   4.877   4.594   4.643  1.3146  0.3523  2.0806
  167SAPS  C31418932   4.829   4.403   4.535  0.3538 -0.1165 -0.2138
  167SAPS  H14X18933   4.857   4.297   4.521  0.9635  0.0320 -0.1261
  167SAPS  H14Y18934   4.846   4.451   4.437 -0.7812 -0.4915 -0.6127
  167SAPS  C31518935   4.680   4.415   4.569 -0.6913  0.9368 -0.3133
  167SAPS  H15X18936   4.660   4.519   4.603  1.4907  1.2130  0.2362
  167SAPS  H15Y18937   4.655   4.357   4.660  2.0470  0.2688  0.1036
  167SAPS  C31618938   4.601   4.358   4.450  0.7098 -0.3299 -0.0105
  167SAPS  H16X18939   4.680   4.307   4.391  1.0185 -1.8700  1.6394
  167SAPS  H16Y18940   4.549   4.434   4.388  1.5059  1.5541  1.5299
  167SAPS  C31718941   4.494   4.250   4.497  0.1540  0.3080  0.1399
  167SAPS  H17X18942   4.557   4.170   4.542  0.1746 -0.6677 -1.5121
  167SAPS  H17Y18943   4.437   4.209   4.410  0.4792 -2.7022  1.2045
  167SAPS  C31818944   4.396   4.306   4.594  0.7210 -0.4482 -0.8365
  167SAPS  H18X18945   4.441   4.322   4.694  2.7175 -0.6896 -1.6401
  167SAPS  H18Y18946   4.310   4.236   4.602 -0.6690  1.1849 -1.1348
  167SAPS  H18Z18947   4.357   4.403   4.558 -1.3990 -1.0473 -0.2963
  168SAPS     N18948   1.405   5.733   6.433  0.2368  0.2928 -0.1210
  168SAPS   HN118949   1.447   5.656   6.378  0.7145  1.8011 -1.9676
  168SAPS   HN218950   1.353   5.797   6.370 -0.7808  2.8060  2.9778
  168SAPS   HN318951   1.475   5.789   6.486 -0.0889 -0.2987  0.9739
  168SAPS   C1218952   1.307   5.662   6.521 -0.0285 -0.0834 -0.8645
  168SAPS  H12A18953   1.359   5.583   6.573  0.6218  1.2939  0.6664
  168SAPS   C1318954   1.235   5.756   6.621 -0.5458  0.1579 -0.6147
  168SAPS  O13A18955   1.249   5.881   6.617 -0.0429 -0.4744 -0.2174
  168SAPS  O13B18956   1.158   5.691   6.700 -0.8923 -0.0740  0.3239
  168SAPS   C1118957   1.193   5.601   6.431 -0.2817 -0.6824  0.5104
  168SAPS  H11A18958   1.120   5.677   6.394  0.1486 -2.1798 -4.1008
  168SAPS  H11B18959   1.130   5.545   6.503 -2.2535  1.0465  0.2172
  168SAPS     P18960   1.227   5.369   6.330 -0.2021 -0.3075 -0.3185
  168SAPS   O1318961   1.246   5.307   6.198  0.3524  0.0626  0.2529
  168SAPS   O1418962   1.312   5.320   6.444 -1.0344 -0.2563 -0.1530
  168SAPS   O1218963   1.241   5.524   6.315 -0.4000 -1.0810 -0.2440
  168SAPS   O1118964   1.081   5.338   6.372  0.0628  0.2098 -0.0578
  168SAPS    C118965   0.957   5.401   6.351 -0.3985  0.0443 -0.0999
  168SAPS    HA18966   0.883   5.360   6.423 -2.5705  0.6747 -1.8618
  168SAPS    HB18967   0.955   5.512   6.343  0.7388 -0.0650 -4.3390
  168SAPS    C218968   0.897   5.347   6.217  0.0755 -0.1920  0.1453
  168SAPS    HS18969   0.888   5.237   6.221 -2.6761 -0.0284  0.7146
  168SAPS   O2118970   0.984   5.392   6.112  0.2187 -0.0404  0.0043
  168SAPS   C2118971   0.988   5.314   6.005  0.0858  0.1866  1.0300
  168SAPS   O2218972   0.921   5.211   5.983  0.0795  0.6650  0.5212
  168SAPS   C2218973   1.092   5.376   5.906  0.4812 -0.0681  0.6812
  168SAPS   H2R18974   1.052   5.474   5.872  1.0649 -0.4675 -1.2762
  168SAPS   H2S18975   1.180   5.403   5.968  1.5839  1.0325 -1.2710
  168SAPS    C318976   0.747   5.399   6.209  0.6441 -0.1675 -0.4168
  168SAPS    HX18977   0.744   5.510   6.204  1.6750 -0.1723 -1.4357
  168SAPS    HY18978   0.700   5.370   6.306  0.3345 -0.6022 -0.6953
  168SAPS   O3118979   0.683   5.325   6.108  0.6033  0.2792  0.3758
  168SAPS   C3118980   0.645   5.393   6.001 -0.8935 -0.5656  0.4669
  168SAPS   O3218981   0.663   5.514   5.982 -0.6371  0.4917 -0.3461
  168SAPS   C3218982   0.565   5.301   5.908 -0.3024  0.0545 -0.1144
  168SAPS   H2X18983   0.467   5.277   5.954 -1.2334 -2.8291 -3.1628
  168SAPS   H2Y18984   0.618   5.205   5.888  2.0505  0.4606  3.3936
  168SAPS   C2318985   1.134   5.297   5.776  0.4696  0.2386 -0.2224
  168SAPS   H3R18986   1.049   5.227   5.757  1.1615 -0.3926 -1.1257
  168SAPS   H3S18987   1.216   5.228   5.804 -0.0617 -0.2198  0.2359
  168SAPS   C2418988   1.158   5.383   5.650  0.0886  0.5973 -0.4996
  168SAPS   H4R18989   1.082   5.465   5.650  0.4767  0.9739  0.5381
  168SAPS   H4S18990   1.149   5.336   5.549  1.8161  0.1720 -0.4816
  168SAPS   C2518991   1.291   5.440   5.672 -0.0484  0.1181  0.1565
  168SAPS   H5R18992   1.296   5.528   5.737 -2.1953  0.2119  0.2591
  168SAPS   C2618993   1.402   5.411   5.599 -0.4537  0.5071  0.2098
  168SAPS   H6R18994   1.500   5.453   5.625  0.4915 -0.6080 -1.3763
  168SAPS   C2718995   1.412   5.301   5.494 -0.1241  0.1051 -0.9339
  168SAPS   H7R18996   1.368   5.204   5.527  0.3822  0.2670  0.2539
  168SAPS   H7S18997   1.520   5.281   5.482  0.3394  2.2823 -0.7901
  168SAPS   C2818998   1.345   5.330   5.366  0.5288 -0.3281  0.7103
  168SAPS   H8R18999   1.236   5.331   5.353  0.6469  1.0602 -0.4824
  168SAPS   C2919000   1.412   5.360   5.254 -0.0671 -0.5873  0.7902
  168SAPS   H9R19001   1.360   5.381   5.160 -0.0058  0.0944  0.9048
  168SAPS  C21019002   1.563   5.354   5.228 -0.1823  0.3150 -0.2244
  168SAPS  H10R19003   1.614   5.407   5.311  0.5721 -1.4594  0.4884
  168SAPS  H10S19004   1.600   5.411   5.140 -2.3530  0.5977 -1.0270
  168SAPS  C21119005   1.603   5.214   5.223 -0.5519 -0.3964  0.5286
  168SAPS  H11R19006   1.626   5.172   5.322 -0.9787 -1.4417  0.1970
  168SAPS  C21219007   1.609   5.136   5.108  0.2814 -0.4934 -0.2345
  168SAPS  H12R19008   1.634   5.031   5.127  0.9055 -0.0462  1.5773
  168SAPS  C21319009   1.574   5.183   4.967  0.1331  0.1955 -0.0865
  168SAPS  H13R19010   1.639   5.272   4.951  0.0861  0.1406 -0.5974
  168SAPS  H13S19011   1.469   5.213   4.986 -0.1651 -0.2768 -0.9268
  168SAPS  C21419012   1.574   5.072   4.860 -0.1277 -0.6678  0.1155
  168SAPS  H14R19013   1.620   4.977   4.888 -0.2843 -0.6245  0.5285
  168SAPS  C21519014   1.551   5.091   4.732  0.2543  0.3296  0.3448
  168SAPS  H15R19015   1.569   5.006   4.663 -0.9872 -0.4796  0.9787
  168SAPS  C21619016   1.501   5.211   4.653 -0.0980 -0.4984 -0.4455
  168SAPS  H16R19017   1.586   5.249   4.593 -0.8269  1.1602 -0.4950
  168SAPS  H16S19018   1.479   5.294   4.723 -1.9544 -1.4430  0.1740
  168SAPS  C21719019   1.373   5.182   4.573 -0.7748  0.4117  0.3343
  168SAPS  H17R19020   1.343   5.280   4.531  0.1588  2.0781  3.2338
  168SAPS  H17S19021   1.286   5.161   4.639  0.0264  1.3321  1.7545
  168SAPS  C21819022   1.381   5.057   4.473  1.1178 -0.3055  0.4277
  168SAPS  H18R19023   1.279   5.050   4.429  1.7118 -0.2825 -1.0025
  168SAPS  H18S19024   1.407   4.962   4.524  0.2934  0.0380  1.5492
  168SAPS  C21919025   1.464   5.086   4.344 -0.1637 -0.4800  0.1331
  168SAPS  H19R19026   1.564   5.042   4.362 -0.4567 -0.7648  1.1304
  168SAPS  H19S19027   1.480   5.196   4.339  0.6745 -0.6448 -1.1598
  168SAPS  C22019028   1.408   5.044   4.215 -0.4905  0.4294  0.3239
  168SAPS  H20R19029   1.321   5.112   4.198  1.2611  2.2196 -2.2152
  168SAPS  H20S19030   1.380   4.937   4.212  0.7577  0.0707  0.9566
  168SAPS  H20T19031   1.476   5.051   4.127  0.2651 -1.5816  0.6984
  168SAPS   C3319032   0.537   5.378   5.771  0.1518  0.2075 -0.3657
  168SAPS   H3X19033   0.504   5.483   5.786 -1.9245 -0.3472 -0.7228
  168SAPS   H3Y19034   0.456   5.325   5.718  0.2632  0.0888 -0.4188
  168SAPS   C3419035   0.660   5.364   5.672  0.2227 -0.1286  0.0414
  168SAPS   H4X19036   0.685   5.258   5.655  1.2676 -0.1353  1.4219
  168SAPS   H4Y19037   0.742   5.422   5.720 -0.5125 -0.0027  1.2133
  168SAPS   C3519038   0.613   5.429   5.535  0.2430 -0.2247 -0.2380
  168SAPS   H5X19039   0.618   5.540   5.536 -1.1560 -0.1546  1.0739
  168SAPS   H5Y19040   0.509   5.396   5.514  0.1836 -0.6629  0.7233
  168SAPS   C3619041   0.698   5.383   5.415  0.1964 -0.1328  0.0868
  168SAPS   H6X19042   0.701   5.272   5.419 -0.1664 -0.1111  2.0685
  168SAPS   H6Y19043   0.803   5.418   5.411 -0.3655  1.5346 -2.2521
  168SAPS   C3719044   0.640   5.436   5.282  0.5419  0.4250 -0.5346
  168SAPS   H7X19045   0.657   5.546   5.283  0.4109  0.5003 -2.2645
  168SAPS   H7Y19046   0.532   5.421   5.263  0.1506  2.1372  0.1425
  168SAPS   C3819047   0.728   5.387   5.165  0.3848  0.2700  0.5526
  168SAPS   H8X19048   0.700   5.284   5.132  0.3113  0.7085 -0.7831
  168SAPS   H8Y19049   0.833   5.378   5.200  0.6423  0.5149 -0.1424
  168SAPS   C3919050   0.713   5.474   5.034 -0.0904 -0.0052 -0.4606
  168SAPS   H9X19051   0.773   5.567   5.048 -0.4631  0.2795 -0.7300
  168SAPS   H9Y19052   0.608   5.504   5.013  0.0846  0.5404 -0.5777
  168SAPS  C31019053   0.773   5.403   4.914 -0.4005 -0.8890  0.6702
  168SAPS  H10X19054   0.732   5.300   4.901 -1.5751 -0.3341 -0.1832
  168SAPS  H10Y19055   0.883   5.388   4.925 -0.2148 -0.8626 -0.9200
  168SAPS  C31119056   0.768   5.480   4.780  0.3450  0.8257  0.1839
  168SAPS  H11X19057   0.838   5.567   4.773  1.0165  0.1807 -1.6039
  168SAPS  H11Y19058   0.666   5.519   4.757  0.1366 -0.7218 -1.7002
  168SAPS  C31219059   0.805   5.399   4.658 -0.4028 -0.2639  0.2591
  168SAPS  H12X19060   0.742   5.307   4.663  0.8221 -1.1213  0.5534
  168SAPS  H12Y19061   0.909   5.362   4.670 -0.7240 -1.4303 -0.4470
  168SAPS  C31319062   0.779   5.465   4.523 -0.0775 -0.2950  0.4196
  168SAPS  H13X19063   0.819   5.569   4.523 -2.9008  0.9898 -2.3906
  168SAPS  H13Y19064   0.668   5.469   4.525 -0.1837 -2.4089  0.3539
  168SAPS  C31419065   0.826   5.372   4.407  0.3000 -0.0623  0.2591
  168SAPS  H14X19066   0.774   5.402   4.314  1.3327 -0.6815 -0.5286
  168SAPS  H14Y19067   0.799   5.266   4.426 -0.9605  0.8038  4.3563
  168SAPS  C31519068   0.981   5.386   4.382 -0.4950  0.5825  0.2920
  168SAPS  H15X19069   1.036   5.392   4.479 -0.4027 -0.6808  0.3286
  168SAPS  H15Y19070   0.999   5.483   4.331 -0.7432  0.4927  0.0335
  168SAPS  C31619071   1.040   5.272   4.300  0.3401 -0.1062 -0.4371
  168SAPS  H16X19072   1.000   5.179   4.346  0.4123  0.6092  1.1204
  168SAPS  H16Y19073   1.150   5.285   4.289  0.0734  1.5949 -1.3919
  168SAPS  C31719074   0.978   5.256   4.158  0.0819  0.0889 -0.0345
  168SAPS  H17X19075   0.987   5.351   4.101  2.1094 -1.0388 -1.7564
  168SAPS  H17Y19076   0.870   5.236   4.169 -0.1498  1.0097 -0.5441
  168SAPS  C31819077   1.045   5.149   4.072  0.2535  0.7045 -0.3480
  168SAPS  H18X19078   0.988   5.135   3.978 -0.3607 -0.2474  0.1462
  168SAPS  H18Y19079   1.040   5.051   4.126  0.9597  0.7140 -0.2578
  168SAPS  H18Z19080   1.148   5.170   4.037  0.8064  0.0028  0.7818
  169SAPS     N19081   1.265   6.131   6.501  0.0310 -0.6384 -0.0065
  169SAPS   HN119082   1.235   6.053   6.564 -1.0485  0.2176  0.5813
  169SAPS   HN219083   1.192   6.154   6.431 -0.3819  0.4018  0.7443
  169SAPS   HN319084   1.354   6.103   6.456 -1.0828  0.5976 -3.2651
  169SAPS   C1219085   1.295   6.258   6.577 -0.0603 -0.4213  0.1612
  169SAPS  H12A19086   1.229   6.257   6.662 -1.3164  2.2206 -0.6706
  169SAPS   C1319087   1.438   6.278   6.630  0.5278  0.1221  0.6626
  169SAPS  O13A19088   1.513   6.176   6.639 -0.2834  0.0539  0.1392
  169SAPS  O13B19089   1.458   6.382   6.704 -0.0577  0.3434 -0.6132
  169SAPS   C1119090   1.262   6.382   6.481  0.4213  0.8827  0.3815
  169SAPS  H11A19091   1.246   6.476   6.537 -0.0771  0.1741  1.4585
  169SAPS  H11B19092   1.170   6.373   6.420 -0.0451  0.4352  1.1324
  169SAPS     P19093   1.400   6.543   6.320 -0.3534 -0.1809 -0.0761
  169SAPS   O1319094   1.270   6.577   6.262 -0.6100 -0.0387  0.3365
  169SAPS   O1419095   1.467   6.641   6.416  0.4578 -0.0203 -0.1049
  169SAPS   O1219096   1.370   6.400   6.388 -0.5673  0.5921  0.0974
  169SAPS   O1119097   1.510   6.506   6.201  0.2023 -0.5609 -0.0585
  169SAPS    C119098   1.491   6.380   6.126 -0.5802 -0.4412 -0.4950
  169SAPS    HA19099   1.432   6.310   6.189 -0.8345  0.4443  0.2825
  169SAPS    HB19100   1.438   6.399   6.030  2.0053 -0.3911 -1.9842
  169SAPS    C219101   1.616   6.303   6.100 -0.4818  1.1423 -0.0258
  169SAPS    HS19102   1.662   6.284   6.200 -0.5831  1.1886  0.0304
  169SAPS   O2119103   1.699   6.383   6.017 -0.6684 -0.3819 -0.3397
  169SAPS   C2119104   1.829   6.358   6.022  0.6158  0.6747 -0.0323
  169SAPS   O2219105   1.880   6.272   6.088  0.0277  0.7525  0.1406
  169SAPS   C2219106   1.897   6.440   5.916 -0.4085 -0.5369  1.0374
  169SAPS   H2R19107   1.836   6.431   5.823 -0.5414  2.1410  0.7885
  169SAPS   H2S19108   1.889   6.546   5.947 -2.3622 -0.6408  1.0048
  169SAPS    C319109   1.580   6.167   6.019  0.4457 -0.4877 -0.1976
  169SAPS    HX19110   1.511   6.103   6.079  1.1982 -2.0819 -0.9878
  169SAPS    HY19111   1.673   6.111   5.998  1.3852  0.4970  1.1748
  169SAPS   O3119112   1.512   6.191   5.897  0.6174 -0.1299 -0.0609
  169SAPS   C3119113   1.584   6.196   5.786 -0.0009  0.3800 -0.6313
  169SAPS   O3219114   1.704   6.178   5.779 -0.1643 -0.5471 -0.6167
  169SAPS   C3219115   1.498   6.225   5.661  0.5633 -0.0680  0.2186
  169SAPS   H2X19116   1.458   6.328   5.672 -1.9176 -0.9780  0.4163
  169SAPS   H2Y19117   1.410   6.159   5.675  0.8391 -0.5791 -0.3854
  169SAPS   C2319118   2.044   6.400   5.896 -0.2866 -0.0681  0.1891
  169SAPS   H3R19119   2.050   6.290   5.882 -1.1401  0.0467 -1.3000
  169SAPS   H3S19120   2.103   6.426   5.987  4.2095 -2.0574 -1.8423
  169SAPS   C2419121   2.106   6.483   5.780 -0.6223 -0.1905 -0.0031
  169SAPS   H4R19122   2.085   6.421   5.691  0.4253 -0.1225 -0.3141
  169SAPS   H4S19123   2.216   6.476   5.797 -0.5307 -0.2008 -0.5820
  169SAPS   C2519124   2.057   6.622   5.764  0.4058  0.4033 -0.1742
  169SAPS   H5R19125   2.100   6.694   5.836  1.0420  0.7640 -0.8980
  169SAPS   C2619126   1.981   6.674   5.665 -0.8826  0.0859  0.5288
  169SAPS   H6R19127   1.949   6.778   5.677 -2.2031 -0.3127  0.5640
  169SAPS   C2719128   1.925   6.600   5.549  0.3579  0.1821  0.0725
  169SAPS   H7R19129   1.841   6.650   5.497 -0.9596 -2.2642 -0.2788
  169SAPS   H7S19130   1.888   6.501   5.584  1.3700  0.7952  3.2759
  169SAPS   C2819131   2.034   6.591   5.445  0.2924  0.3533 -0.1681
  169SAPS   H8R19132   2.136   6.600   5.487  0.2648  0.5168 -0.1364
  169SAPS   C2919133   2.010   6.567   5.316  0.2486  0.2392  0.2775
  169SAPS   H9R19134   2.097   6.568   5.248 -2.1710 -1.2783 -3.0805
  169SAPS  C21019135   1.874   6.558   5.242 -1.1042  0.0063  0.8024
  169SAPS  H10R19136   1.814   6.649   5.263 -1.6471 -0.3719  0.9173
  169SAPS  H10S19137   1.817   6.468   5.274  1.0259 -0.9325  2.2396
  169SAPS  C21119138   1.900   6.540   5.091 -0.3537 -0.1620 -0.2775
  169SAPS  H11R19139   1.999   6.510   5.056 -0.6647  0.8554 -2.1223
  169SAPS  C21219140   1.804   6.553   5.000 -0.2811  0.5051  0.5901
  169SAPS  H12R19141   1.837   6.539   4.896 -0.3558  0.2964  0.5949
  169SAPS  C21319142   1.665   6.597   5.021  0.2025  0.1212  1.0575
  169SAPS  H13R19143   1.645   6.651   4.926  2.5365 -1.5116 -0.4608
  169SAPS  H13S19144   1.655   6.665   5.108  0.6814 -2.1815  3.0054
  169SAPS  C21419145   1.589   6.472   5.024  0.4379  0.4001  0.2784
  169SAPS  H14R19146   1.633   6.397   5.092  0.4643 -0.8953 -1.1328
  169SAPS  C21519147   1.474   6.462   4.953  0.5282 -0.0309  0.0655
  169SAPS  H15R19148   1.420   6.366   4.954 -0.2311  0.3932  0.5984
  169SAPS  C21619149   1.408   6.547   4.856 -0.3701  0.9745  0.6086
  169SAPS  H16R19150   1.444   6.651   4.840  1.2876  0.2326 -0.9136
  169SAPS  H16S19151   1.306   6.561   4.898 -0.9938  0.8291 -0.7848
  169SAPS  C21719152   1.401   6.475   4.717 -0.1580  0.2903 -0.3443
  169SAPS  H17R19153   1.339   6.542   4.654 -2.4643 -0.4697  0.9926
  169SAPS  H17S19154   1.365   6.370   4.720 -0.8715  0.5297 -0.4241
  169SAPS  C21819155   1.541   6.469   4.644  0.1240 -0.1660 -0.2229
  169SAPS  H18R19156   1.607   6.398   4.699  1.7678  0.0978 -1.7531
  169SAPS  H18S19157   1.576   6.574   4.634 -1.5525  0.4983  0.3837
  169SAPS  C21919158   1.517   6.408   4.506  0.1894 -0.7019 -0.3742
  169SAPS  H19R19159   1.481   6.491   4.442 -1.4599 -0.9944  0.1269
  169SAPS  H19S19160   1.447   6.322   4.518 -0.8441  0.4623  2.8892
  169SAPS  C22019161   1.638   6.344   4.435  0.4680 -0.2307 -0.5586
  169SAPS  H20R19162   1.725   6.412   4.422  0.2277  0.4143  0.9705
  169SAPS  H20S19163   1.599   6.309   4.337 -0.0740  0.0681 -0.4594
  169SAPS  H20T19164   1.673   6.252   4.486 -0.5808  0.0101  0.6861
  169SAPS   C3319165   1.572   6.211   5.529  0.2199  0.1586 -0.6272
  169SAPS   H3X19166   1.601   6.104   5.519  2.7453  0.2288  3.6573
  169SAPS   H3Y19167   1.669   6.264   5.534 -0.0370  0.8211 -2.0386
  169SAPS   C3419168   1.498   6.265   5.409 -0.7076 -0.2509 -0.3065
  169SAPS   H4X19169   1.583   6.300   5.348  1.3327 -0.8502  2.0573
  169SAPS   H4Y19170   1.431   6.352   5.428 -0.5462 -0.5842  2.1595
  169SAPS   C3519171   1.414   6.153   5.349  0.1791  0.3247  0.5426
  169SAPS   H5X19172   1.312   6.162   5.392  0.4043  2.1301  0.7982
  169SAPS   H5Y19173   1.458   6.058   5.385  2.1387  0.8588 -0.3048
  169SAPS   C3619174   1.384   6.157   5.194 -0.4013 -0.0344  0.5618
  169SAPS   H6X19175   1.482   6.147   5.143 -1.3852  0.7973 -1.5888
  169SAPS   H6Y19176   1.331   6.254   5.182  1.8036  1.6488  3.0819
  169SAPS   C3719177   1.299   6.028   5.150 -0.2867  0.2926 -0.5787
  169SAPS   H7X19178   1.221   6.025   5.229  0.2764 -0.8803 -0.0419
  169SAPS   H7Y19179   1.365   5.940   5.166  0.4673  0.8178 -0.7582
  169SAPS   C3819180   1.244   6.025   5.008 -0.6369 -0.2753 -0.7618
  169SAPS   H8X19181   1.189   6.120   4.990  2.0807  0.8675 -3.9101
  169SAPS   H8Y19182   1.185   5.931   4.994  0.5865 -1.2946  0.6420
  169SAPS   C3919183   1.349   6.022   4.901 -0.4499 -0.2327  0.6815
  169SAPS   H9X19184   1.396   5.922   4.897 -0.1988 -0.0855 -0.2420
  169SAPS   H9Y19185   1.425   6.104   4.900 -0.8063  0.1029 -0.8768
  169SAPS  C31019186   1.270   6.035   4.768 -0.2879  0.3966  0.3407
  169SAPS  H10X19187   1.211   6.129   4.764 -1.1695 -0.1725 -0.4913
  169SAPS  H10Y19188   1.198   5.951   4.762 -1.0808  0.7564  3.1612
  169SAPS  C31119189   1.360   6.031   4.640 -0.4851  0.1054 -0.1089
  169SAPS  H11X19190   1.409   5.931   4.648  0.1952  0.4167 -0.3016
  169SAPS  H11Y19191   1.438   6.110   4.651  1.1679 -1.3721 -0.8174
  169SAPS  C31219192   1.277   6.037   4.512 -0.0521  1.3304  0.2138
  169SAPS  H12X19193   1.222   6.134   4.507  0.0611  1.3353 -2.0906
  169SAPS  H12Y19194   1.209   5.950   4.510  2.2398 -0.5808  0.8942
  169SAPS  C31319195   1.358   6.053   4.373  0.7382  0.6507 -0.3520
  169SAPS  H13X19196   1.423   5.964   4.361  0.6269  0.4822  0.2735
  169SAPS  H13Y19197   1.404   6.154   4.367  0.3912  0.7315 -3.3374
  169SAPS  C31419198   1.265   6.062   4.250 -0.3839  0.1437  0.0125
  169SAPS  H14X19199   1.177   6.128   4.266 -0.5430  0.4642 -1.9413
  169SAPS  H14Y19200   1.213   5.964   4.245  0.9732 -0.6163  0.4140
  169SAPS  C31519201   1.332   6.071   4.112  0.8522 -0.1163  0.1042
  169SAPS  H15X19202   1.405   5.989   4.099 -0.0800 -0.9589 -0.0021
  169SAPS  H15Y19203   1.392   6.165   4.110  1.7682 -0.6707 -2.3745
  169SAPS  C31619204   1.228   6.085   4.000 -0.3901 -0.8899 -0.1139
  169SAPS  H16X19205   1.148   6.162   4.008 -0.0181 -0.4577 -0.5505
  169SAPS  H16Y19206   1.177   5.989   3.977 -1.1798 -1.0348  1.9416
  169SAPS  C31719207   1.291   6.116   3.866 -0.9950 -1.0022 -0.0289
  169SAPS  H17X19208   1.375   6.048   3.838 -1.4734 -1.6480  0.0684
  169SAPS  H17Y19209   1.322   6.222   3.866  1.5541 -1.6678 -0.5242
  169SAPS  C31819210   1.190   6.084   3.752 -0.0337  0.2933  0.0378
  169SAPS  H18X19211   1.153   5.979   3.756 -2.0773  0.9717 -0.0606
  169SAPS  H18Y19212   1.236   6.094   3.651  1.0489 -1.3299  0.3265
  169SAPS  H18Z19213   1.094   6.138   3.758 -1.1673 -1.6632  0.2402
  170SAPS     N19214   4.671   3.817   6.782 -0.3100  0.3422  0.4106
  170SAPS   HN119215   4.624   3.908   6.764 -0.3578  0.2211 -0.0888
  170SAPS   HN219216   4.771   3.837   6.804  0.1816 -0.6765 -0.7578
  170SAPS   HN319217   4.664   3.746   6.706 -0.9865 -0.3544  1.1089
  170SAPS   C1219218   4.611   3.767   6.908  0.0702 -0.5197 -0.6652
  170SAPS  H12A19219   4.625   3.661   6.919  1.4927 -0.3082 -0.2251
  170SAPS   C1319220   4.673   3.824   7.034  0.5566  0.2982  0.1662
  170SAPS  O13A19221   4.778   3.886   7.034 -0.1431 -0.3923  0.3569
  170SAPS  O13B19222   4.618   3.777   7.138  0.3177 -0.5902 -0.0098
  170SAPS   C1119223   4.456   3.802   6.903 -0.4353 -0.9225  0.4503
  170SAPS  H11A19224   4.434   3.910   6.921  2.3938  0.2863 -2.4334
  170SAPS  H11B19225   4.406   3.753   6.989  0.8620 -1.0474  1.1538
  170SAPS     P19226   4.305   3.642   6.767  0.1907 -0.0201 -0.1812
  170SAPS   O1319227   4.392   3.523   6.763  0.7121 -0.0376  0.3728
  170SAPS   O1419228   4.206   3.653   6.878  0.0872  0.0631  0.4922
  170SAPS   O1219229   4.398   3.763   6.778  0.3255 -0.2488 -0.5728
  170SAPS   O1119230   4.235   3.643   6.623  0.0831 -0.1489 -0.4559
  170SAPS    C119231   4.296   3.723   6.521 -0.2038 -0.0909 -0.1799
  170SAPS    HA19232   4.242   3.817   6.499 -0.7372 -0.8126 -2.1010
  170SAPS    HB19233   4.402   3.751   6.534 -0.0659 -1.3648  2.0999
  170SAPS    C219234   4.308   3.656   6.381  0.1536 -0.0758  0.2404
  170SAPS    HS19235   4.393   3.708   6.330 -0.3718  0.5302 -0.0237
  170SAPS   O2119236   4.180   3.668   6.314 -0.5233 -0.0328  0.9129
  170SAPS   C2119237   4.179   3.700   6.185  0.2281 -0.0080  0.3478
  170SAPS   O2219238   4.277   3.727   6.116  0.2703  1.1478  0.4194
  170SAPS   C2219239   4.031   3.724   6.143 -0.3725  0.0920  0.2940
  170SAPS   H2R19240   3.975   3.718   6.239 -0.8712  2.4407  0.1938
  170SAPS   H2S19241   4.016   3.825   6.101 -2.2908 -0.8175 -1.3660
  170SAPS    C319242   4.351   3.507   6.386 -0.6357  0.0336 -0.4168
  170SAPS    HX19243   4.264   3.450   6.425  0.8111 -2.0228 -0.0713
  170SAPS    HY19244   4.434   3.493   6.459 -1.4479 -2.4079  0.1135
  170SAPS   O3119245   4.402   3.455   6.264 -0.2236 -0.0109  0.2874
  170SAPS   C3119246   4.324   3.377   6.195 -0.5880  0.2080  0.6105
  170SAPS   O3219247   4.210   3.340   6.222  0.0422  0.0154  0.3723
  170SAPS   C3219248   4.400   3.324   6.075 -0.2199  0.1838 -0.5709
  170SAPS   H2X19249   4.479   3.252   6.105 -0.6574 -0.3018 -0.5693
  170SAPS   H2Y19250   4.461   3.408   6.038  0.5503 -0.5804 -1.0706
  170SAPS   C2319251   3.984   3.613   6.040  0.1391  0.1219  0.1634
  170SAPS   H3R19252   4.015   3.515   6.082  0.4478  0.3847  0.5589
  170SAPS   H3S19253   4.040   3.629   5.945 -0.9086 -0.7557 -0.6297
  170SAPS   C2419254   3.836   3.633   5.988 -0.1557 -0.0193  0.0065
  170SAPS   H4R19255   3.762   3.640   6.071 -3.1357  1.2880 -2.5435
  170SAPS   H4S19256   3.806   3.547   5.924  0.5708 -0.8774  0.7855
  170SAPS   C2519257   3.821   3.755   5.899 -0.2992  0.5933 -0.0388
  170SAPS   H5R19258   3.859   3.851   5.937 -0.9493  1.0017 -0.3914
  170SAPS   C2619259   3.758   3.775   5.780 -0.3728 -0.0380 -0.7137
  170SAPS   H6R19260   3.786   3.860   5.717  1.9432  0.2695  0.6233
  170SAPS   C2719261   3.691   3.662   5.706  0.2371  1.0153 -0.5864
  170SAPS   H7R19262   3.735   3.560   5.714  0.6636  1.2417  0.0427
  170SAPS   H7S19263   3.701   3.686   5.598 -1.4970  1.4223 -0.6868
  170SAPS   C2819264   3.554   3.647   5.752 -0.6783  0.0633 -0.0788
  170SAPS   H8R19265   3.536   3.682   5.855  0.1923  0.6390 -0.1136
  170SAPS   C2919266   3.460   3.590   5.679  0.5155 -0.3682  0.0506
  170SAPS   H9R19267   3.360   3.607   5.720  0.5597  0.7810 -0.2797
  170SAPS  C21019268   3.468   3.538   5.532  0.1621 -0.0305  0.0600
  170SAPS  H10R19269   3.373   3.484   5.516 -0.5883  0.5682  2.1788
  170SAPS  H10S19270   3.543   3.455   5.526  2.2615  1.8860 -2.0928
  170SAPS  C21119271   3.494   3.627   5.413 -0.0451  0.4500 -0.4062
  170SAPS  H11R19272   3.538   3.725   5.435 -0.4686  0.8496 -1.3019
  170SAPS  C21219273   3.468   3.594   5.283 -0.0975 -0.3451 -0.0985
  170SAPS  H12R19274   3.507   3.658   5.203  1.5483 -1.4562 -0.2324
  170SAPS  C21319275   3.416   3.463   5.235 -0.1772  0.9840  0.5064
  170SAPS  H13R19276   3.440   3.391   5.316 -0.6955  0.3626  0.1188
  170SAPS  H13S19277   3.465   3.411   5.149 -0.3314 -0.3508  1.1919
  170SAPS  C21419278   3.267   3.460   5.206 -0.5345 -0.1504  0.1751
  170SAPS  H14R19279   3.205   3.487   5.293 -0.4084 -0.9413  0.5131
  170SAPS  C21519280   3.203   3.448   5.090 -0.2331  0.2927 -0.0641
  170SAPS  H15R19281   3.093   3.444   5.092 -0.4505  2.5460 -2.5472
  170SAPS  C21619282   3.272   3.430   4.952  0.5670  0.7794 -0.7570
  170SAPS  H16R19283   3.375   3.391   4.964 -0.5558 -1.9116  1.2917
  170SAPS  H16S19284   3.271   3.524   4.892 -4.1862  0.5994 -1.4083
  170SAPS  C21719285   3.188   3.323   4.876  0.2032 -0.0746  0.6309
  170SAPS  H17R19286   3.131   3.261   4.948  0.9370 -3.0175 -1.1379
  170SAPS  H17S19287   3.260   3.252   4.830  0.4455 -0.2182  1.2222
  170SAPS  C21819288   3.087   3.367   4.760  0.0832  0.0434 -0.4419
  170SAPS  H18R19289   3.025   3.279   4.731 -1.5253  0.0303  2.5479
  170SAPS  H18S19290   3.150   3.417   4.683  0.6021  3.3964  1.9332
  170SAPS  C21919291   2.984   3.477   4.796  0.1450  0.1578 -0.3694
  170SAPS  H19R19292   2.926   3.520   4.712 -2.1556 -1.7569  0.1055
  170SAPS  H19S19293   3.040   3.559   4.845  0.6022  0.5962 -1.6048
  170SAPS  C22019294   2.877   3.426   4.897 -0.8652  0.9941  0.2455
  170SAPS  H20R19295   2.823   3.337   4.857  0.9121 -0.0815  0.1061
  170SAPS  H20S19296   2.815   3.504   4.945 -1.3257 -0.3850  2.0221
  170SAPS  H20T19297   2.937   3.383   4.980  1.7363 -0.0753 -2.0098
  170SAPS   C3319298   4.309   3.284   5.962 -0.3814 -0.4472 -0.1597
  170SAPS   H3X19299   4.230   3.209   5.983  0.6805 -2.1630 -1.8555
  170SAPS   H3Y19300   4.371   3.237   5.882  0.2718  0.6745 -0.3392
  170SAPS   C3419301   4.243   3.407   5.889 -0.7177 -0.7735 -0.0307
  170SAPS   H4X19302   4.324   3.483   5.881 -0.2199 -1.3012 -0.0691
  170SAPS   H4Y19303   4.166   3.447   5.958 -0.4050 -1.0021  0.4594
  170SAPS   C3519304   4.186   3.376   5.756 -0.2525 -0.1560  0.2676
  170SAPS   H5X19305   4.102   3.305   5.776 -0.7830  0.4533  0.2241
  170SAPS   H5Y19306   4.261   3.321   5.696 -1.4826 -1.5807 -0.0349
  170SAPS   C3619307   4.127   3.496   5.694 -0.1870  0.0070  0.4626
  170SAPS   H6X19308   4.104   3.574   5.770  1.0931 -1.5432  2.5286
  170SAPS   H6Y19309   4.032   3.460   5.648  0.5517 -1.5016  0.0601
  170SAPS   C3719310   4.201   3.553   5.574  1.0747  0.1717 -0.4596
  170SAPS   H7X19311   4.209   3.487   5.485  0.4361 -0.4569 -0.0682
  170SAPS   H7Y19312   4.304   3.572   5.609  0.3426  2.0044  0.8463
  170SAPS   C3819313   4.136   3.691   5.530 -0.0286 -0.2548  0.2511
  170SAPS   H8X19314   4.209   3.736   5.459  3.3845 -2.1491  2.2776
  170SAPS   H8Y19315   4.125   3.763   5.614  0.1474 -1.0523  0.9717
  170SAPS   C3919316   3.991   3.685   5.462  0.1036  0.0386  0.1175
  170SAPS   H9X19317   3.939   3.782   5.478 -0.6608 -0.6774  2.2766
  170SAPS   H9Y19318   3.929   3.608   5.512 -0.7511 -0.1956 -1.2383
  170SAPS  C31019319   3.996   3.671   5.307 -0.2508  0.1493 -0.7186
  170SAPS  H10X19320   4.055   3.581   5.277 -0.4752  0.6314 -2.7797
  170SAPS  H10Y19321   4.057   3.760   5.278  0.5426 -0.5102 -1.1283
  170SAPS  C31119322   3.861   3.686   5.248 -1.3097  0.2782 -0.3583
  170SAPS  H11X19323   3.824   3.787   5.276 -0.7131  0.1360  0.9901
  170SAPS  H11Y19324   3.790   3.611   5.291 -2.6707  1.8979  0.3415
  170SAPS  C31219325   3.873   3.687   5.094  0.4951  0.1374 -0.6460
  170SAPS  H12X19326   3.860   3.578   5.075 -0.3755 -0.0285  0.7532
  170SAPS  H12Y19327   3.971   3.720   5.053 -0.1693  2.6281 -0.3643
  170SAPS  C31319328   3.760   3.760   5.028  0.0477 -0.3963  0.1734
  170SAPS  H13X19329   3.785   3.868   5.031  2.2695 -0.6179 -3.5718
  170SAPS  H13Y19330   3.661   3.744   5.076  0.4269 -1.6580  0.5790
  170SAPS  C31419331   3.734   3.711   4.887 -0.0402  0.5732 -0.4133
  170SAPS  H14X19332   3.737   3.600   4.888  2.7789  0.5293 -2.1444
  170SAPS  H14Y19333   3.811   3.757   4.821 -1.7197  0.8744 -2.2401
  170SAPS  C31519334   3.596   3.756   4.836  0.0317 -0.0423  0.1837
  170SAPS  H15X19335   3.576   3.862   4.862 -1.0068  0.0926 -1.0376
  170SAPS  H15Y19336   3.516   3.688   4.873  0.9884 -1.5456 -0.4304
  170SAPS  C31619337   3.571   3.728   4.681 -0.2232 -0.2416  0.1710
  170SAPS  H16X19338   3.623   3.635   4.646  0.8448  0.2307  0.4471
  170SAPS  H16Y19339   3.609   3.811   4.618  0.3631 -0.6309  0.0029
  170SAPS  C31719340   3.419   3.723   4.653  0.7326  0.7166  1.1903
  170SAPS  H17X19341   3.371   3.805   4.710  1.4028  1.2030  1.0681
  170SAPS  H17Y19342   3.388   3.625   4.695  0.6967  0.1196 -0.1929
  170SAPS  C31819343   3.373   3.726   4.513 -0.1277 -0.2302 -0.5933
  170SAPS  H18X19344   3.283   3.791   4.502 -0.0848 -0.0793 -0.0763
  170SAPS  H18Y19345   3.358   3.627   4.466 -0.9753 -0.4378  0.0724
  170SAPS  H18Z19346   3.445   3.776   4.446 -0.9219 -0.8318 -1.9324
  171SAPS     N19347   4.423   5.509   6.845 -0.2708  0.2133  0.9463
  171SAPS   HN119348   4.473   5.419   6.832 -1.0350 -0.4390  2.3833
  171SAPS   HN219349   4.482   5.582   6.800 -0.5080  0.0212  0.3088
  171SAPS   HN319350   4.408   5.537   6.944 -0.5757  2.7186  0.2521
  171SAPS   C1219351   4.286   5.519   6.782  0.3551 -0.4974 -0.2676
  171SAPS  H12A19352   4.232   5.428   6.804  0.4718 -0.3166  0.8010
  171SAPS   C1319353   4.192   5.629   6.840  0.4321  0.1180 -0.8322
  171SAPS  O13A19354   4.236   5.694   6.943  0.0379  0.4988 -0.1583
  171SAPS  O13B19355   4.071   5.628   6.810  0.2579  0.0801  0.5479
  171SAPS   C1119356   4.309   5.538   6.623  0.1512  0.0531  0.7855
  171SAPS  H11A19357   4.368   5.630   6.604 -1.2873  0.8221 -0.1854
  171SAPS  H11B19358   4.210   5.551   6.574  0.7253 -0.6998 -0.6503
  171SAPS     P19359   4.331   5.337   6.455  0.0677 -0.6051  0.0979
  171SAPS   O1319360   4.430   5.231   6.448  0.1553 -0.6232 -0.4208
  171SAPS   O1419361   4.191   5.297   6.478 -0.0553  0.2829 -0.1211
  171SAPS   O1219362   4.383   5.435   6.564  0.0250  0.2225 -0.5932
  171SAPS   O1119363   4.349   5.433   6.334 -0.7808  0.0425 -0.1238
  171SAPS    C119364   4.475   5.486   6.288  0.1630  0.7328  0.1567
  171SAPS    HA19365   4.472   5.597   6.283 -0.1286  0.6655 -3.0849
  171SAPS    HB19366   4.554   5.453   6.359 -1.0172  1.0750  1.6864
  171SAPS    C219367   4.498   5.432   6.140 -0.2324  0.3231  0.9720
  171SAPS    HS19368   4.591   5.472   6.094 -0.3656 -1.2755 -0.8067
  171SAPS   O2119369   4.393   5.469   6.052 -0.2671  0.2027 -0.1972
  171SAPS   C2119370   4.378   5.606   6.032 -0.5335  0.0932 -0.0713
  171SAPS   O2219371   4.453   5.693   6.064 -0.3777  0.1136 -0.4322
  171SAPS   C2219372   4.246   5.639   5.962 -0.3807  1.0802 -0.2044
  171SAPS   H2R19373   4.168   5.593   6.026  0.7580 -0.2891  0.2424
  171SAPS   H2S19374   4.239   5.750   5.960 -0.9498  1.0668  0.6121
  171SAPS    C319375   4.510   5.282   6.140  0.4452  0.8305  0.1708
  171SAPS    HX19376   4.423   5.244   6.198  0.3161  0.4311 -0.2811
  171SAPS    HY19377   4.603   5.253   6.194  0.2723 -3.3681 -1.4425
  171SAPS   O3119378   4.524   5.222   6.007 -0.4971 -0.0944 -0.1990
  171SAPS   C3119379   4.457   5.110   5.994 -0.0915  0.0058 -0.0500
  171SAPS   O3219380   4.385   5.050   6.074 -0.1388 -0.1130  0.0058
  171SAPS   C3219381   4.456   5.073   5.849  0.3868 -0.3409  0.2016
  171SAPS   H2X19382   4.395   4.981   5.835 -0.7085  0.6672 -2.5051
  171SAPS   H2Y19383   4.559   5.050   5.814  1.5088  2.1831  1.5881
  171SAPS   C2319384   4.237   5.586   5.816  0.6433  0.2172  0.4836
  171SAPS   H3R19385   4.128   5.579   5.797  0.6193 -0.5138  0.8723
  171SAPS   H3S19386   4.293   5.491   5.805  0.6815  0.2048  0.7871
  171SAPS   C2419387   4.284   5.696   5.719  0.5521 -0.0450 -0.4955
  171SAPS   H4R19388   4.380   5.740   5.754 -0.3227  1.0223  0.7067
  171SAPS   H4S19389   4.208   5.777   5.712  0.3463 -0.1921 -0.0300
  171SAPS   C2519390   4.296   5.630   5.586 -0.1143 -0.0756  0.3852
  171SAPS   H5R19391   4.200   5.601   5.542  0.7358 -2.3802 -0.0765
  171SAPS   C2619392   4.403   5.588   5.518  0.2741 -0.5458  0.2268
  171SAPS   H6R19393   4.392   5.527   5.427  0.0325  1.3780 -1.0949
  171SAPS   C2719394   4.551   5.609   5.554 -0.6837  0.2548  0.1583
  171SAPS   H7R19395   4.554   5.685   5.634 -1.8286  1.6766 -1.0868
  171SAPS   H7S19396   4.591   5.666   5.468 -3.1637  0.9731 -0.6207
  171SAPS   C2819397   4.631   5.489   5.591 -0.7285  0.4074  0.6188
  171SAPS   H8R19398   4.604   5.449   5.690 -1.9692 -2.8254 -0.8817
  171SAPS   C2919399   4.729   5.428   5.531 -0.2199  0.2623 -0.1691
  171SAPS   H9R19400   4.758   5.332   5.575 -0.1142  0.1207 -0.5427
  171SAPS  C21019401   4.779   5.468   5.386 -0.9190 -0.3091  0.9005
  171SAPS  H10R19402   4.714   5.550   5.350 -2.1809 -0.1180  3.4079
  171SAPS  H10S19403   4.780   5.386   5.310 -0.6005  3.1492 -3.2168
  171SAPS  C21119404   4.918   5.531   5.395  0.8423 -0.0300 -0.3847
  171SAPS  H11R19405   4.930   5.594   5.484 -0.8802 -0.0238 -0.1109
  171SAPS  C21219406   5.027   5.528   5.316 -0.2282  0.2165 -0.3475
  171SAPS  H12R19407   5.119   5.580   5.345 -0.3613 -0.4104  1.3117
  171SAPS  C21319408   5.036   5.456   5.184 -0.5886  0.2276  0.2895
  171SAPS  H13R19409   4.966   5.491   5.106  0.0947 -0.5695 -0.6930
  171SAPS  H13S19410   4.997   5.352   5.197  0.2549 -0.1368 -0.0606
  171SAPS  C21419411   5.176   5.437   5.131  0.6326  0.5874  0.5659
  171SAPS  H14R19412   5.257   5.439   5.206 -0.5864  2.6194  1.9651
  171SAPS  C21519413   5.208   5.448   4.995  0.9155 -0.0934  0.0566
  171SAPS  H15R19414   5.305   5.422   4.951  0.8131  0.0721 -0.2750
  171SAPS  C21619415   5.101   5.474   4.883 -0.2974  0.2554  0.3223
  171SAPS  H16R19416   5.101   5.583   4.860  0.4918  0.1124 -0.3994
  171SAPS  H16S19417   4.997   5.452   4.916  0.5593 -3.0163  1.1637
  171SAPS  C21719418   5.110   5.394   4.755  0.1273 -0.0092  0.3232
  171SAPS  H17R19419   5.041   5.434   4.677  2.2314  0.5670 -1.3355
  171SAPS  H17S19420   5.092   5.285   4.766  1.7981 -0.4706 -1.0292
  171SAPS  C21819421   5.242   5.416   4.679  0.1621 -0.3792  0.4318
  171SAPS  H18R19422   5.337   5.380   4.722  1.9490  0.7852 -2.2767
  171SAPS  H18S19423   5.249   5.525   4.658 -1.9676  0.1108  1.8552
  171SAPS  C21919424   5.228   5.350   4.535  0.0718 -0.0767 -0.7615
  171SAPS  H19R19425   5.141   5.375   4.471  0.3625  0.0304 -1.1246
  171SAPS  H19S19426   5.211   5.241   4.550  1.5526 -0.7312 -3.1969
  171SAPS  C22019427   5.350   5.385   4.453 -0.5484  0.5343  0.2506
  171SAPS  H20R19428   5.361   5.321   4.363 -1.1723  0.1008  0.4761
  171SAPS  H20S19429   5.440   5.373   4.517  1.4158  1.5200 -2.1419
  171SAPS  H20T19430   5.330   5.492   4.430 -3.8811 -0.1032 -0.2542
  171SAPS   C3319431   4.405   5.187   5.758  0.3708  0.6978  0.7088
  171SAPS   H3X19432   4.429   5.290   5.789  1.0258 -0.2288  3.5584
  171SAPS   H3Y19433   4.295   5.173   5.759  0.4229 -0.9732 -2.2831
  171SAPS   C3419434   4.456   5.169   5.609 -0.0080 -0.4244 -0.2785
  171SAPS   H4X19435   4.567   5.160   5.614 -0.0360 -0.1913  1.2764
  171SAPS   H4Y19436   4.427   5.259   5.551  0.1975 -0.4986 -0.4950
  171SAPS   C3519437   4.396   5.048   5.539 -0.1262  0.4813  0.6894
  171SAPS   H5X19438   4.291   5.030   5.570  0.7769 -1.9957  2.6302
  171SAPS   H5Y19439   4.466   4.966   5.567  0.4802  1.0210  0.7794
  171SAPS   C3619440   4.404   5.054   5.385  0.2857 -0.2791 -0.3563
  171SAPS   H6X19441   4.330   5.119   5.332  0.3225 -0.4142 -0.5724
  171SAPS   H6Y19442   4.385   4.949   5.356 -0.6101 -0.2129 -0.0365
  171SAPS   C3719443   4.540   5.097   5.320  0.4997 -0.6604  0.1679
  171SAPS   H7X19444   4.538   5.208   5.323  2.1626 -0.5625 -1.0970
  171SAPS   H7Y19445   4.532   5.064   5.214  1.7454  1.5782 -0.6857
  171SAPS   C3819446   4.654   5.028   5.388  0.2957 -0.9679  0.1374
  171SAPS   H8X19447   4.611   4.934   5.430  0.1059 -0.8575  0.1899
  171SAPS   H8Y19448   4.708   5.080   5.469  0.7194  2.2822 -2.0458
  171SAPS   C3919449   4.751   4.973   5.279  0.5337  0.4526 -0.4056
  171SAPS   H9X19450   4.710   4.896   5.210 -2.2539  1.6611 -0.2128
  171SAPS   H9Y19451   4.831   4.917   5.332 -0.8155 -1.9694 -0.7770
  171SAPS  C31019452   4.809   5.099   5.199 -1.1134  0.0151 -0.2061
  171SAPS  H10X19453   4.869   5.148   5.278 -2.5791 -0.1995  1.0879
  171SAPS  H10Y19454   4.736   5.176   5.167  0.1401  1.0078 -0.7515
  171SAPS  C31119455   4.897   5.060   5.083  0.2954 -0.2338 -1.0097
  171SAPS  H11X19456   4.978   4.991   5.117 -0.6156 -1.1907 -0.6961
  171SAPS  H11Y19457   4.948   5.146   5.035  0.4390 -0.7093 -1.7236
  171SAPS  C31219458   4.808   5.003   4.983  0.4087  0.0911  0.1149
  171SAPS  H12X19459   4.768   4.903   5.009  1.0125  0.1974  1.5481
  171SAPS  H12Y19460   4.864   4.977   4.890  1.6891  1.0140  0.5851
  171SAPS  C31319461   4.698   5.097   4.919  0.6901  0.4130  0.5510
  171SAPS  H13X19462   4.739   5.199   4.904  1.7381 -0.2017 -0.9494
  171SAPS  H13Y19463   4.608   5.112   4.983 -0.9492  0.8551 -1.7473
  171SAPS  C31419464   4.645   5.053   4.789  0.2135  1.2770 -0.1667
  171SAPS  H14X19465   4.714   5.049   4.702  0.6649  1.2034  0.1886
  171SAPS  H14Y19466   4.571   5.132   4.765 -0.6351  1.2265  2.0273
  171SAPS  C31519467   4.551   4.932   4.804  0.6048 -0.5507  0.3625
  171SAPS  H15X19468   4.469   4.954   4.876  1.0955  0.6031  0.6058
  171SAPS  H15Y19469   4.611   4.848   4.846 -1.8026 -2.2507  0.5668
  171SAPS  C31619470   4.485   4.893   4.674 -0.1496  0.0516  0.8050
  171SAPS  H16X19471   4.563   4.870   4.599  0.4414  1.1321  1.0732
  171SAPS  H16Y19472   4.424   4.974   4.628 -1.8543 -0.7490  1.5484
  171SAPS  C31719473   4.404   4.766   4.683 -0.2914 -0.1470 -0.2093
  171SAPS  H17X19474   4.322   4.770   4.759 -1.0021  0.8411 -0.9922
  171SAPS  H17Y19475   4.477   4.684   4.697 -0.5070 -0.8254 -2.7015
  171SAPS  C31819476   4.343   4.736   4.546 -0.0042 -0.3040 -0.3534
  171SAPS  H18X19477   4.286   4.827   4.518 -2.3327 -2.2201 -2.2599
  171SAPS  H18Y19478   4.287   4.640   4.544 -0.2057 -0.1912 -0.1740
  171SAPS  H18Z19479   4.418   4.730   4.464  1.2124  0.4306  0.6628
  172SAPS     N19480   4.866   5.969   6.816  0.5242  0.0027 -0.5394
  172SAPS   HN119481   4.820   6.060   6.793  0.4322 -0.4176 -2.1545
  172SAPS   HN219482   4.864   5.947   6.917  1.7804 -0.3717 -0.5866
  172SAPS   HN319483   4.961   5.980   6.775  1.0183 -0.0560  0.5681
  172SAPS   C1219484   4.789   5.860   6.745 -0.2270  0.2752  0.5214
  172SAPS  H12A19485   4.848   5.771   6.764  0.1326  0.2826 -0.5023
  172SAPS   C1319486   4.651   5.835   6.806  0.2346 -0.6956 -0.4389
  172SAPS  O13A19487   4.600   5.905   6.901 -0.5901 -0.5313  0.3353
  172SAPS  O13B19488   4.581   5.751   6.746 -0.4534  0.1606  0.0609
  172SAPS   C1119489   4.779   5.887   6.595 -1.0990  0.3956 -0.1981
  172SAPS  H11A19490   4.705   5.967   6.573 -0.1395  1.7936  1.4377
  172SAPS  H11B19491   4.756   5.791   6.544 -0.4686 -0.0074  0.2569
  172SAPS     P19492   4.949   5.915   6.395  0.1284 -0.2677  0.1507
  172SAPS   O1319493   4.862   6.011   6.324 -0.4852 -0.0088 -0.0010
  172SAPS   O1419494   5.099   5.931   6.387 -0.3758  0.2452  0.1947
  172SAPS   O1219495   4.905   5.938   6.545  0.2162  0.2406  0.4265
  172SAPS   O1119496   4.915   5.761   6.362  0.4491 -0.5648 -0.3625
  172SAPS    C119497   4.799   5.727   6.284  1.3883  0.0502 -0.3044
  172SAPS    HA19498   4.774   5.626   6.323 -0.8545  1.1825  1.4221
  172SAPS    HB19499   4.703   5.783   6.278  0.2145 -2.0289 -2.5695
  172SAPS    C219500   4.831   5.708   6.132 -0.4386 -0.1159  0.2424
  172SAPS    HS19501   4.750   5.643   6.092 -0.3773 -1.0325  1.5476
  172SAPS   O2119502   4.957   5.643   6.100 -0.2731  0.1532  0.3070
  172SAPS   C2119503   4.948   5.515   6.122  0.5228  0.2548  0.1551
  172SAPS   O2219504   4.848   5.461   6.176  0.0113  0.3251 -0.4607
  172SAPS   C2219505   5.062   5.428   6.068  0.0271  0.3176  0.2480
  172SAPS   H2R19506   5.160   5.454   6.113 -0.2011  1.2928  0.2158
  172SAPS   H2S19507   5.043   5.319   6.079 -0.9749  0.5335  0.7867
  172SAPS    C319508   4.821   5.839   6.054 -0.0404 -0.7143  0.1845
  172SAPS    HX19509   4.903   5.903   6.091 -0.0823 -0.4409 -0.1875
  172SAPS    HY19510   4.720   5.879   6.078  0.3882  0.2416  0.4000
  172SAPS   O3119511   4.832   5.819   5.912  0.5262 -0.3910  0.4532
  172SAPS   C3119512   4.840   5.938   5.846  0.2542  0.1008  0.3687
  172SAPS   O3219513   4.831   6.052   5.893 -0.2793 -0.3279  0.0120
  172SAPS   C3219514   4.870   5.906   5.688  0.2841 -0.1504  0.1690
  172SAPS   H2X19515   4.765   5.890   5.653 -0.4040 -1.3425  2.5473
  172SAPS   H2Y19516   4.930   5.813   5.687  1.1821  0.2549  3.8223
  172SAPS   C2319517   5.085   5.448   5.918  0.8364 -0.6180 -0.5738
  172SAPS   H3R19518   5.162   5.377   5.882  1.9246 -0.1465  0.7495
  172SAPS   H3S19519   5.123   5.551   5.905  0.7305 -0.1413  2.2708
  172SAPS   C2419520   4.960   5.428   5.836  0.9510 -0.0298  0.4143
  172SAPS   H4R19521   4.996   5.424   5.731 -1.4431  0.4146 -0.4859
  172SAPS   H4S19522   4.900   5.521   5.850 -0.6834 -0.7911 -1.0276
  172SAPS   C2519523   4.869   5.313   5.869 -0.2675  0.2696 -0.5925
  172SAPS   H5R19524   4.781   5.340   5.929  0.2279  0.9595 -0.1702
  172SAPS   C2619525   4.883   5.194   5.802 -0.1141  0.4759 -0.2914
  172SAPS   H6R19526   4.820   5.110   5.833 -0.0885  1.3555  2.3986
  172SAPS   C2719527   5.000   5.154   5.721  0.3441  0.3607  0.3061
  172SAPS   H7R19528   5.074   5.125   5.798  4.1862  1.4067 -2.6746
  172SAPS   H7S19529   5.043   5.233   5.657  0.2748 -1.9005 -2.7689
  172SAPS   C2819530   4.968   5.051   5.618 -0.2696 -0.0210 -0.3196
  172SAPS   H8R19531   4.876   4.994   5.639 -0.3929 -0.3096 -1.5532
  172SAPS   C2919532   5.053   5.018   5.523  0.0669  0.0529 -0.1044
  172SAPS   H9R19533   5.021   4.954   5.440 -2.5546  0.8751  0.1768
  172SAPS  C21019534   5.191   5.071   5.500  0.0919  0.4471 -0.4679
  172SAPS  H10R19535   5.237   5.099   5.597 -1.8180  2.8599 -0.1558
  172SAPS  H10S19536   5.196   5.166   5.441  1.6532  1.2142  0.8065
  172SAPS  C21119537   5.280   4.969   5.439  0.5953  0.4604 -0.8563
  172SAPS  H11R19538   5.314   4.903   5.520  0.3117 -2.5447 -2.9802
  172SAPS  C21219539   5.298   4.936   5.307  0.8260  0.5296 -0.3204
  172SAPS  H12R19540   5.363   4.850   5.285 -2.8197 -3.0939  1.6756
  172SAPS  C21319541   5.248   5.005   5.180  0.3293  0.0103 -0.5385
  172SAPS  H13R19542   5.186   5.091   5.213  0.0121 -0.1085 -0.8157
  172SAPS  H13S19543   5.177   4.939   5.127  0.6001 -0.3321 -0.4825
  172SAPS  C21419544   5.362   5.060   5.100 -0.7259 -0.4801 -0.4271
  172SAPS  H14R19545   5.418   5.146   5.138  1.4471 -1.6188 -0.9079
  172SAPS  C21519546   5.414   5.005   4.985 -0.4295  0.3896  0.6914
  172SAPS  H15R19547   5.488   5.064   4.930  0.8285 -0.1481  1.7410
  172SAPS  C21619548   5.350   4.887   4.907  0.0364 -0.3236 -0.2662
  172SAPS  H16R19549   5.242   4.883   4.929  0.3043 -0.5328  1.1205
  172SAPS  H16S19550   5.388   4.789   4.942  1.0839  0.2849  0.3688
  172SAPS  C21719551   5.384   4.888   4.756  0.0819 -0.6843 -0.1560
  172SAPS  H17R19552   5.362   4.786   4.719  1.7600 -1.3476  0.5545
  172SAPS  H17S19553   5.493   4.902   4.737  0.0802 -2.3913 -1.7659
  172SAPS  C21819554   5.301   4.989   4.680 -0.3978  0.8078  0.5437
  172SAPS  H18R19555   5.331   4.976   4.574  0.6032  3.5817  0.4103
  172SAPS  H18S19556   5.337   5.093   4.692  0.7706  0.6504 -1.2526
  172SAPS  C21919557   5.144   4.973   4.680 -0.1050 -1.4939 -0.2425
  172SAPS  H19R19558   5.099   5.023   4.592 -0.3649 -0.9604  0.1860
  172SAPS  H19S19559   5.101   5.021   4.771  2.5457 -2.1770  1.4964
  172SAPS  C22019560   5.092   4.829   4.679 -0.9788 -0.4728  0.6602
  172SAPS  H20R19561   5.141   4.782   4.591 -0.7609  0.5544  0.2205
  172SAPS  H20S19562   4.981   4.827   4.676 -1.0446 -0.1579  2.1731
  172SAPS  H20T19563   5.126   4.779   4.773 -1.0918  2.0401  2.1434
  172SAPS   C3319564   4.927   6.021   5.602 -0.0800  0.8088 -0.3188
  172SAPS   H3X19565   5.025   6.045   5.649  0.0980  2.1945 -1.3450
  172SAPS   H3Y19566   4.861   6.110   5.611 -0.3046  0.6692 -0.6040
  172SAPS   C3419567   4.946   5.988   5.454  0.0239  0.2773  0.4091
  172SAPS   H4X19568   4.844   5.985   5.411  1.0595 -2.5353 -2.2696
  172SAPS   H4Y19569   4.998   5.891   5.436  0.2919  0.4399  0.2960
  172SAPS   C3519570   5.015   6.098   5.367  0.2398  0.4771  0.1053
  172SAPS   H5X19571   5.125   6.103   5.386 -0.2411  2.3740  3.1253
  172SAPS   H5Y19572   4.971   6.193   5.405  1.1292  1.2399 -0.6978
  172SAPS   C3619573   4.985   6.097   5.220 -0.5908 -0.0585  0.0198
  172SAPS   H6X19574   5.041   6.178   5.168  0.6653 -0.1136  1.2128
  172SAPS   H6Y19575   4.875   6.108   5.216 -0.7080 -1.2893 -0.3628
  172SAPS   C3719576   5.008   5.967   5.142 -0.0824 -0.7073 -0.3255
  172SAPS   H7X19577   5.003   5.885   5.217  0.1935 -0.6939 -0.2925
  172SAPS   H7Y19578   5.106   5.977   5.091 -1.3586 -0.3040 -2.8235
  172SAPS   C3819579   4.898   5.936   5.045  0.0181  0.0695  0.5329
  172SAPS   H8X19580   4.907   6.007   4.960  1.0316  0.0530  0.6108
  172SAPS   H8Y19581   4.797   5.931   5.089 -0.1743  0.6857  0.1762
  172SAPS   C3919582   4.933   5.801   4.973 -0.2292 -0.5541  0.2436
  172SAPS   H9X19583   4.923   5.725   5.053  1.8328 -0.6338  0.4749
  172SAPS   H9Y19584   5.041   5.786   4.950 -0.5777 -1.9013 -0.6017
  172SAPS  C31019585   4.843   5.764   4.852 -0.4434 -0.7116  0.2308
  172SAPS  H10X19586   4.740   5.778   4.891 -1.2276  0.8387 -2.1711
  172SAPS  H10Y19587   4.852   5.655   4.835  3.2219 -0.7592  1.5952
  172SAPS  C31119588   4.861   5.843   4.722 -0.2319  0.1324  0.0577
  172SAPS  H11X19589   4.822   5.948   4.723 -0.5867  0.0181 -0.8923
  172SAPS  H11Y19590   4.800   5.799   4.640 -2.7004  0.5963  1.5186
  172SAPS  C31219591   5.000   5.827   4.664  0.2557  0.1826 -0.3445
  172SAPS  H12X19592   5.044   5.731   4.700 -0.6670 -0.6310 -1.3079
  172SAPS  H12Y19593   5.074   5.904   4.696  0.9047  0.3211 -2.0581
  172SAPS  C31319594   5.012   5.811   4.516 -0.5443  0.4832  0.3679
  172SAPS  H13X19595   5.118   5.822   4.487  0.1292 -1.3799  1.9124
  172SAPS  H13Y19596   4.957   5.896   4.469  1.6005  1.4496 -0.5214
  172SAPS  C31419597   4.977   5.672   4.462  0.2945 -1.0079  0.4480
  172SAPS  H14X19598   4.890   5.647   4.526  1.9293 -3.0862  2.0088
  172SAPS  H14Y19599   5.051   5.591   4.477 -0.4684 -2.3983 -2.5526
  172SAPS  C31519600   4.921   5.673   4.315  0.2543  0.6849  0.0807
  172SAPS  H15X19601   4.848   5.757   4.308 -1.0858 -0.5060 -1.0203
  172SAPS  H15Y19602   4.862   5.583   4.285  0.1062  0.3460  1.3290
  172SAPS  C31619603   5.030   5.707   4.211 -0.5207  0.9558  0.4299
  172SAPS  H16X19604   4.985   5.686   4.111 -0.4732 -1.2919  0.8267
  172SAPS  H16Y19605   5.063   5.812   4.217 -1.2467  1.1452  1.2296
  172SAPS  C31719606   5.149   5.604   4.217 -0.9370  0.0321  0.1782
  172SAPS  H17X19607   5.108   5.505   4.188 -0.3238  0.0355 -0.7468
  172SAPS  H17Y19608   5.198   5.609   4.317  0.2150  1.8910 -0.4175
  172SAPS  C31819609   5.260   5.639   4.120  0.3730 -0.2123 -1.0130
  172SAPS  H18X19610   5.297   5.739   4.152 -1.4342 -0.4369  2.1598
  172SAPS  H18Y19611   5.219   5.641   4.017 -1.9410 -2.2309 -0.2234
  172SAPS  H18Z19612   5.344   5.567   4.111 -0.2915 -0.9147 -1.7289
  173SAPS     N19613   1.762   5.938   1.843  0.0614  0.4833 -0.7211
  173SAPS   HN119614   1.781   5.842   1.807 -0.5450 -0.5701  1.6244
  173SAPS   HN219615   1.837   5.962   1.911  0.5906 -2.8103  0.0108
  173SAPS   HN319616   1.668   5.939   1.887  0.7641  1.4360  0.8248
  173SAPS   C1219617   1.746   6.046   1.740 -0.3512 -0.1954  0.6326
  173SAPS  H12A19618   1.846   6.082   1.718 -0.4672 -0.1678  0.1405
  173SAPS   C1319619   1.678   5.988   1.611 -0.5675  0.4198 -0.3123
  173SAPS  O13A19620   1.678   5.868   1.600  0.1695  0.4165  0.2039
  173SAPS  O13B19621   1.663   6.072   1.515 -0.2602  0.1270 -0.3188
  173SAPS   C1119622   1.662   6.161   1.800  0.1959 -0.5977 -0.0484
  173SAPS  H11A19623   1.629   6.233   1.722  2.2256 -1.1992 -1.5303
  173SAPS  H11B19624   1.730   6.225   1.860  0.6139  0.7614 -1.9012
  173SAPS     P19625   1.451   6.195   1.947  0.3494 -0.2557  0.1071
  173SAPS   O1319626   1.336   6.230   1.858  0.1989  0.0670 -0.3194
  173SAPS   O1419627   1.413   6.119   2.066  0.4804 -0.2659  0.7106
  173SAPS   O1219628   1.557   6.109   1.875 -0.4345  0.1157  0.4864
  173SAPS   O1119629   1.527   6.324   1.992 -0.2085  0.6859 -0.1028
  173SAPS    C119630   1.626   6.309   2.098  0.2381 -0.4909 -0.7327
  173SAPS    HA19631   1.648   6.203   2.123 -2.0667 -1.7608 -3.4307
  173SAPS    HB19632   1.723   6.358   2.073  2.1709 -3.1158  1.1201
  173SAPS    C219633   1.580   6.397   2.225  0.7065 -0.3783 -0.5055
  173SAPS    HS19634   1.674   6.407   2.283  1.3003  2.6817 -1.8103
  173SAPS   O2119635   1.482   6.323   2.297  0.7644 -1.2984 -0.4186
  173SAPS   C2119636   1.524   6.222   2.354  0.2525  0.4156 -0.3703
  173SAPS   O2219637   1.636   6.172   2.357  0.6483 -0.1224 -0.3173
  173SAPS   C2219638   1.408   6.159   2.436 -0.5896 -0.0958 -0.1104
  173SAPS   H2R19639   1.311   6.138   2.387 -0.3053 -2.6066  0.2637
  173SAPS   H2S19640   1.446   6.059   2.469  0.6889 -1.1151 -4.0555
  173SAPS    C319641   1.524   6.537   2.204 -0.2173 -0.3092  0.4892
  173SAPS    HX19642   1.440   6.523   2.132 -0.5436  0.0956  0.7819
  173SAPS    HY19643   1.607   6.595   2.159 -0.4897  0.6240  1.1688
  173SAPS   O3119644   1.497   6.595   2.332  0.2088 -0.2265 -0.5043
  173SAPS   C3119645   1.380   6.648   2.347 -0.2114 -0.5190  0.2547
  173SAPS   O3219646   1.281   6.637   2.276  0.2344  0.5690 -0.1620
  173SAPS   C3219647   1.388   6.738   2.474  1.0173  0.6461  0.1358
  173SAPS   H2X19648   1.399   6.843   2.439 -0.7070  0.4820 -0.9997
  173SAPS   H2Y19649   1.477   6.701   2.530  0.4522 -0.8060  0.1058
  173SAPS   C2319650   1.373   6.251   2.556  0.1777  0.4402 -0.8492
  173SAPS   H3R19651   1.301   6.202   2.625  0.8425  0.3069 -0.2363
  173SAPS   H3S19652   1.336   6.345   2.509  1.5504 -0.0977 -3.1452
  173SAPS   C2419653   1.495   6.295   2.648  0.3225  0.5341 -0.6799
  173SAPS   H4R19654   1.561   6.355   2.582  1.1972 -1.1441 -1.4064
  173SAPS   H4S19655   1.551   6.204   2.678  0.9656  0.8821 -0.8134
  173SAPS   C2519656   1.454   6.382   2.767  0.0809 -0.7609  0.0620
  173SAPS   H5R19657   1.421   6.485   2.749  0.0221 -0.8684 -0.4532
  173SAPS   C2619658   1.454   6.345   2.901 -0.3301 -0.1289 -0.7229
  173SAPS   H6R19659   1.420   6.420   2.974  0.0572  0.1300 -0.8030
  173SAPS   C2719660   1.488   6.209   2.971  0.3031 -0.2156  0.0087
  173SAPS   H7R19661   1.567   6.148   2.922 -0.1924 -0.0271 -1.0689
  173SAPS   H7S19662   1.400   6.142   2.981 -0.8468  1.2246 -0.0918
  173SAPS   C2819663   1.527   6.241   3.113  0.5490 -0.0203 -0.6309
  173SAPS   H8R19664   1.446   6.218   3.184  1.2601 -2.6684 -0.5857
  173SAPS   C2919665   1.644   6.277   3.174  0.1648  0.7333  0.5024
  173SAPS   H9R19666   1.638   6.290   3.283  1.5637  1.0644  0.5500
  173SAPS  C21019667   1.764   6.313   3.102 -0.6930  0.2676  0.2623
  173SAPS  H10R19668   1.746   6.315   2.993  0.9203 -0.9558 -0.0591
  173SAPS  H10S19669   1.834   6.227   3.104  0.7389  1.3479  3.4567
  173SAPS  C21119670   1.834   6.436   3.149  0.2940  1.0579  0.1692
  173SAPS  H11R19671   1.836   6.504   3.063 -1.1259 -0.9755 -1.5605
  173SAPS  C21219672   1.905   6.458   3.267 -0.4769  0.0739  0.0867
  173SAPS  H12R19673   1.957   6.553   3.286 -0.1790 -0.1098  0.2040
  173SAPS  C21319674   1.925   6.358   3.380  0.2714 -0.2641  0.2502
  173SAPS  H13R19675   1.830   6.321   3.424 -0.7036 -0.6876 -2.0513
  173SAPS  H13S19676   1.976   6.414   3.461 -2.4464  0.6294  1.4699
  173SAPS  C21419677   2.010   6.234   3.355 -0.0291  0.0564 -0.0941
  173SAPS  H14R19678   2.110   6.245   3.310 -0.2832  1.8382 -0.2902
  173SAPS  C21519679   1.971   6.103   3.383 -0.5720  0.6361 -0.2658
  173SAPS  H15R19680   2.035   6.019   3.356  3.4432  3.2740  0.2375
  173SAPS  C21619681   1.845   6.061   3.442  0.1303 -0.8806 -0.0055
  173SAPS  H16R19682   1.758   6.111   3.395 -0.2780 -0.7939  0.8384
  173SAPS  H16S19683   1.844   6.101   3.545 -0.4136  2.1767 -1.1033
  173SAPS  C21719684   1.805   5.911   3.456 -0.1217 -0.0730  0.0127
  173SAPS  H17R19685   1.892   5.858   3.500  1.4854  0.1597 -2.6761
  173SAPS  H17S19686   1.820   5.876   3.352  1.9851  1.4379 -0.2545
  173SAPS  C21819687   1.674   5.884   3.527  0.4359  0.2184 -0.0873
  173SAPS  H18R19688   1.630   5.782   3.520 -2.6544  1.4044  0.5050
  173SAPS  H18S19689   1.606   5.956   3.477 -0.1193  1.7588  2.6697
  173SAPS  C21919690   1.666   5.912   3.675  1.0132  0.2584 -0.9387
  173SAPS  H19R19691   1.556   5.909   3.694  1.0408  1.3008 -0.5469
  173SAPS  H19S19692   1.696   6.018   3.691  1.1233  0.1969 -0.7405
  173SAPS  C22019693   1.747   5.812   3.765 -0.1971  0.0250  0.1113
  173SAPS  H20R19694   1.726   5.704   3.747 -1.2744  0.1263  0.6735
  173SAPS  H20S19695   1.709   5.819   3.869 -1.2771 -1.9047 -0.1057
  173SAPS  H20T19696   1.855   5.838   3.770 -0.5639  2.3540 -2.0707
  173SAPS   C3319697   1.270   6.710   2.563 -0.2212 -0.7064 -0.6009
  173SAPS   H3X19698   1.266   6.601   2.585  0.1080 -0.7781 -0.8974
  173SAPS   H3Y19699   1.172   6.730   2.515 -0.8903 -0.9220  0.6183
  173SAPS   C3419700   1.267   6.782   2.694 -0.4650  0.1946  1.1277
  173SAPS   H4X19701   1.256   6.892   2.689  0.4530  0.3232  1.6897
  173SAPS   H4Y19702   1.367   6.766   2.740  0.4753  0.4612 -0.7498
  173SAPS   C3519703   1.159   6.726   2.790 -0.8057  0.1273  0.0287
  173SAPS   H5X19704   1.169   6.616   2.800 -2.5468  0.1142  2.9124
  173SAPS   H5Y19705   1.063   6.760   2.745 -1.6569 -2.0857  0.0782
  173SAPS   C3619706   1.185   6.780   2.931  0.7416 -0.2257  0.5997
  173SAPS   H6X19707   1.197   6.890   2.940  2.7294 -0.2457 -1.1377
  173SAPS   H6Y19708   1.284   6.734   2.956  0.2394 -1.0893  1.0694
  173SAPS   C3719709   1.070   6.740   3.021  0.4492 -0.1172 -0.6833
  173SAPS   H7X19710   1.056   6.630   3.029  2.4094 -0.3560 -0.0211
  173SAPS   H7Y19711   0.981   6.792   2.978  0.9525 -1.1522 -3.1331
  173SAPS   C3819712   1.094   6.790   3.166  0.3380  1.0153  0.2820
  173SAPS   H8X19713   1.119   6.898   3.178  1.3111  0.6934  1.4193
  173SAPS   H8Y19714   1.177   6.732   3.212 -0.8423  0.0582  1.2943
  173SAPS   C3919715   0.969   6.777   3.257 -0.0688 -0.2218  0.1030
  173SAPS   H9X19716   0.913   6.705   3.194  1.8410 -1.3810 -0.3521
  173SAPS   H9Y19717   0.920   6.875   3.273 -1.4985 -1.0609  1.0393
  173SAPS  C31019718   0.994   6.712   3.392 -0.3261  0.3509  0.1065
  173SAPS  H10X19719   1.053   6.780   3.457  0.3107 -0.4590  0.3916
  173SAPS  H10Y19720   1.039   6.611   3.376  1.1532  1.3560 -2.7676
  173SAPS  C31119721   0.869   6.692   3.473  0.6786 -0.2870  0.6664
  173SAPS  H11X19722   0.789   6.635   3.421 -0.7442  0.6592  1.7597
  173SAPS  H11Y19723   0.826   6.794   3.475  0.2376 -0.3345 -2.0717
  173SAPS  C31219724   0.887   6.650   3.620  0.1393  0.2153  0.0681
  173SAPS  H12X19725   0.791   6.678   3.667 -0.4824 -1.0673 -0.3893
  173SAPS  H12Y19726   0.968   6.711   3.665  0.5156 -2.1977  2.9429
  173SAPS  C31319727   0.918   6.500   3.653  0.0299  0.0571  1.0249
  173SAPS  H13X19728   1.020   6.480   3.614 -0.5737 -1.6708  0.2397
  173SAPS  H13Y19729   0.837   6.442   3.605 -0.8911 -0.2178  2.8219
  173SAPS  C31419730   0.902   6.461   3.802  0.0479 -0.2026 -0.5383
  173SAPS  H14X19731   0.928   6.353   3.799  0.2517 -0.2961  2.0263
  173SAPS  H14Y19732   0.796   6.454   3.836  0.5078 -1.2223  0.8170
  173SAPS  C31519733   0.994   6.538   3.908  0.8496  0.0827 -0.8109
  173SAPS  H15X19734   0.991   6.646   3.884 -1.0794  0.5822  1.2272
  173SAPS  H15Y19735   1.102   6.519   3.890  1.3620  2.4654 -0.5595
  173SAPS  C31619736   0.941   6.525   4.054  0.4140  0.3810 -0.0281
  173SAPS  H16X19737   0.889   6.429   4.075 -0.0957  0.7821  0.6024
  173SAPS  H16Y19738   0.858   6.598   4.068 -0.0223 -0.1962  0.4504
  173SAPS  C31719739   1.046   6.540   4.166  0.1698  0.5987 -0.1201
  173SAPS  H17X19740   1.003   6.552   4.268  0.0283 -2.4641  0.2614
  173SAPS  H17Y19741   1.110   6.629   4.146 -0.3934  0.9500 -0.3645
  173SAPS  C31819742   1.151   6.433   4.179 -0.4930  0.3070 -0.0479
  173SAPS  H18X19743   1.114   6.333   4.211  0.7407 -0.7046 -1.6223
  173SAPS  H18Y19744   1.229   6.467   4.251 -1.9182 -0.2889  1.8755
  173SAPS  H18Z19745   1.203   6.426   4.081 -0.4375  2.5735 -0.2257
  174SAPS     N19746   4.445   1.240   2.173 -0.8024  0.6842 -0.2927
  174SAPS   HN119747   4.431   1.172   2.251  0.0235 -0.4097 -1.0537
  174SAPS   HN219748   4.502   1.318   2.212 -1.0754  0.9478 -0.4204
  174SAPS   HN319749   4.351   1.277   2.148 -0.8564  0.4142 -0.4948
  174SAPS   C1219750   4.503   1.179   2.053 -0.6601 -0.1329  0.1726
  174SAPS  H12A19751   4.437   1.096   2.031 -0.5186 -0.3606  0.6010
  174SAPS   C1319752   4.478   1.289   1.937 -0.6611  0.1244  0.2871
  174SAPS  O13A19753   4.423   1.396   1.959  0.1361 -0.5936 -0.2935
  174SAPS  O13B19754   4.488   1.242   1.824 -0.6376 -0.0619  0.2202
  174SAPS   C1119755   4.651   1.152   2.075  0.3305  0.3139  0.7319
  174SAPS  H11A19756   4.695   1.253   2.064 -0.9142  0.6586 -1.9273
  174SAPS  H11B19757   4.684   1.107   1.979 -2.3805  0.5306 -0.3946
  174SAPS     P19758   4.830   1.042   2.229  0.2548 -0.4285 -0.1801
  174SAPS   O1319759   4.915   1.112   2.130 -0.4171  0.3112 -0.9375
  174SAPS   O1419760   4.869   1.081   2.367 -0.1503 -0.5145 -0.0359
  174SAPS   O1219761   4.684   1.089   2.200 -0.0637  0.5246  1.1321
  174SAPS   O1119762   4.836   0.895   2.215 -0.0852  0.1164 -0.0825
  174SAPS    C119763   4.736   0.796   2.228 -0.1296 -1.0009 -0.4407
  174SAPS    HA19764   4.642   0.830   2.179 -1.2944 -1.1705  1.5597
  174SAPS    HB19765   4.763   0.701   2.177  1.3116 -0.3132 -1.0016
  174SAPS    C219766   4.707   0.761   2.377 -0.3254 -0.6452 -0.7525
  174SAPS    HS19767   4.674   0.855   2.426  2.6653 -0.0953  0.4715
  174SAPS   O2119768   4.831   0.716   2.426  0.1713  0.3267  0.2517
  174SAPS   C2119769   4.854   0.711   2.553  0.6008  0.5109 -0.3880
  174SAPS   O2219770   4.783   0.766   2.637 -0.2417  0.2527 -0.1828
  174SAPS   C2219771   4.989   0.638   2.576 -0.4575  0.3516  0.4912
  174SAPS   H2R19772   4.980   0.544   2.519  1.0877  0.9409 -0.8029
  174SAPS   H2S19773   5.067   0.693   2.519  0.2004  0.1360  1.1778
  174SAPS    C319774   4.593   0.656   2.382 -1.4423  0.6791  0.5269
  174SAPS    HX19775   4.646   0.562   2.354 -0.3602  0.6957  2.3590
  174SAPS    HY19776   4.515   0.679   2.307  1.0937  1.8038 -1.9625
  174SAPS   O3119777   4.547   0.641   2.515  0.4881 -0.2783 -0.3877
  174SAPS   C3119778   4.466   0.738   2.557  0.9495  0.8022 -0.0521
  174SAPS   O3219779   4.435   0.838   2.495 -0.0940 -0.1410  0.2288
  174SAPS   C3219780   4.416   0.697   2.697 -0.6515 -0.1959 -0.1112
  174SAPS   H2X19781   4.505   0.669   2.758 -2.4512 -1.6916  1.9531
  174SAPS   H2Y19782   4.350   0.608   2.691 -0.6045 -0.5360  2.8611
  174SAPS   C2319783   5.024   0.625   2.719 -0.4544 -0.0611  0.0325
  174SAPS   H3R19784   5.104   0.548   2.728 -0.1497  0.4616  2.5124
  174SAPS   H3S19785   4.940   0.584   2.778 -0.9360  0.7792 -0.0490
  174SAPS   C2419786   5.071   0.755   2.782 -0.0844  0.4081 -0.1441
  174SAPS   H4R19787   5.053   0.746   2.891  0.5945 -1.3786 -0.1540
  174SAPS   H4S19788   5.006   0.837   2.745 -1.7813  1.2135  4.0017
  174SAPS   C2519789   5.216   0.779   2.733 -0.4619 -0.2449 -0.2869
  174SAPS   H5R19790   5.228   0.776   2.624  1.3301 -2.1891 -0.1006
  174SAPS   C2619791   5.327   0.786   2.806  0.0072  0.0504 -0.0418
  174SAPS   H6R19792   5.417   0.804   2.745 -1.8485 -0.4048 -3.1194
  174SAPS   C2719793   5.330   0.781   2.956 -0.0365  0.1767  0.9522
  174SAPS   H7R19794   5.346   0.677   2.992  1.6007 -0.2882 -0.9038
  174SAPS   H7S19795   5.236   0.812   3.006 -1.2980 -1.3289 -0.3990
  174SAPS   C2819796   5.446   0.862   3.018  0.6102  0.0369 -0.2178
  174SAPS   H8R19797   5.488   0.936   2.947 -1.4458  0.8617 -0.6330
  174SAPS   C2919798   5.482   0.870   3.152 -0.2284 -0.3598  0.2619
  174SAPS   H9R19799   5.563   0.938   3.181 -0.8178  0.7469 -0.6272
  174SAPS  C21019800   5.419   0.786   3.254 -0.3668  0.3662  0.5968
  174SAPS  H10R19801   5.477   0.777   3.348 -0.6015 -1.1014  0.6207
  174SAPS  H10S19802   5.427   0.684   3.211 -0.9020  0.2319  0.8133
  174SAPS  C21119803   5.281   0.827   3.299 -0.1944  0.2791 -0.3956
  174SAPS  H11R19804   5.215   0.869   3.221  0.6263  1.6045 -0.4001
  174SAPS  C21219805   5.228   0.807   3.421  0.2756  0.7742 -0.0588
  174SAPS  H12R19806   5.129   0.841   3.454  0.1102 -0.3433  0.6315
  174SAPS  C21319807   5.292   0.755   3.548  0.5635  0.0808  0.1048
  174SAPS  H13R19808   5.394   0.711   3.537  0.6903 -0.0101  1.4461
  174SAPS  H13S19809   5.223   0.679   3.590 -0.2979  0.4052 -0.6984
  174SAPS  C21419810   5.313   0.857   3.656 -0.3245 -0.3067  0.6567
  174SAPS  H14R19811   5.419   0.885   3.667 -0.5495  1.3661 -0.7937
  174SAPS  C21519812   5.236   0.905   3.748 -0.1708  0.0398 -0.2750
  174SAPS  H15R19813   5.277   0.966   3.830 -1.1606 -0.5679  0.6967
  174SAPS  C21619814   5.094   0.877   3.765  0.2648  0.0289 -0.0183
  174SAPS  H16R19815   5.036   0.854   3.673  0.1476 -0.3363  0.1432
  174SAPS  H16S19816   5.043   0.967   3.806  3.1775  0.3876  3.3579
  174SAPS  C21719817   5.072   0.762   3.875 -0.3455 -1.2358 -0.1046
  174SAPS  H17R19818   5.129   0.805   3.961 -0.9567 -2.4259  0.9242
  174SAPS  H17S19819   5.130   0.671   3.850  1.1422 -0.4478  0.3776
  174SAPS  C21819820   4.925   0.738   3.916 -0.1596 -0.4346 -0.1657
  174SAPS  H18R19821   4.874   0.726   3.818  0.7672  0.3311 -0.7572
  174SAPS  H18S19822   4.877   0.820   3.973 -0.6113 -1.0224  0.3172
  174SAPS  C21919823   4.907   0.614   4.011  0.0462  0.2906  0.1586
  174SAPS  H19R19824   4.958   0.629   4.109  1.5726 -2.1150 -0.2010
  174SAPS  H19S19825   4.950   0.531   3.952 -1.6371  0.0456 -0.7901
  174SAPS  C22019826   4.761   0.577   4.036  0.0803  0.2552  0.2297
  174SAPS  H20R19827   4.701   0.562   3.943 -1.4549  0.3618  1.1629
  174SAPS  H20S19828   4.703   0.651   4.095 -1.2771 -1.4778  1.1294
  174SAPS  H20T19829   4.748   0.481   4.090 -1.3292  0.9385  1.1523
  174SAPS   C3319830   4.335   0.806   2.769 -0.8991  0.1528  0.2868
  174SAPS   H3X19831   4.303   0.765   2.868  0.3274  0.3504  0.7899
  174SAPS   H3Y19832   4.245   0.839   2.714 -0.6630 -2.6644 -2.0245
  174SAPS   C3419833   4.417   0.931   2.809  0.1410 -0.2469 -0.6221
  174SAPS   H4X19834   4.473   0.973   2.723  0.0064 -0.4839 -0.8259
  174SAPS   H4Y19835   4.488   0.906   2.891 -0.1828 -0.6259 -0.4527
  174SAPS   C3519836   4.320   1.033   2.863  0.7262  0.3764  0.0469
  174SAPS   H5X19837   4.224   0.992   2.900 -0.9872  4.9848  1.3710
  174SAPS   H5Y19838   4.282   1.099   2.782  1.1058  1.4020  0.6856
  174SAPS   C3619839   4.380   1.132   2.957 -0.1953  0.0471 -0.4467
  174SAPS   H6X19840   4.321   1.226   2.960 -1.1584 -0.5065  3.1331
  174SAPS   H6Y19841   4.485   1.153   2.925  0.2499 -1.4039 -0.0116
  174SAPS   C3719842   4.375   1.076   3.101 -0.2068  0.0616  0.6536
  174SAPS   H7X19843   4.451   0.995   3.105  0.7811  0.9316  0.0724
  174SAPS   H7Y19844   4.277   1.033   3.131 -0.4399  1.2758  1.7167
  174SAPS   C3819845   4.427   1.187   3.198  1.1025  0.5685 -0.0802
  174SAPS   H8X19846   4.369   1.282   3.193 -0.1554 -0.0879  1.2453
  174SAPS   H8Y19847   4.536   1.194   3.180  1.2477  1.7739  1.0756
  174SAPS   C3919848   4.424   1.138   3.341 -0.1053  0.4314  0.0483
  174SAPS   H9X19849   4.325   1.112   3.384  0.4930  0.2679  1.3805
  174SAPS   H9Y19850   4.461   1.221   3.405 -0.0884  1.5520 -1.3612
  174SAPS  C31019851   4.497   1.005   3.370 -0.1875  0.0207 -0.1335
  174SAPS  H10X19852   4.600   1.047   3.363 -1.0852  2.1449 -1.8246
  174SAPS  H10Y19853   4.477   0.919   3.303 -0.0922 -0.1741  0.0901
  174SAPS  C31119854   4.473   0.966   3.515  0.5845  0.4135  0.2100
  174SAPS  H11X19855   4.364   0.945   3.516  0.0817  2.7883 -0.0228
  174SAPS  H11Y19856   4.494   1.058   3.574 -0.3933 -1.1053  3.1375
  174SAPS  C31219857   4.562   0.852   3.559  0.0900  0.2285  0.4985
  174SAPS  H12X19858   4.667   0.879   3.535  0.4214 -0.2400  1.3420
  174SAPS  H12Y19859   4.536   0.756   3.509 -0.3113  1.0670 -0.9720
  174SAPS  C31319860   4.551   0.830   3.713 -0.3604 -0.5586 -0.1039
  174SAPS  H13X19861   4.560   0.932   3.755  0.7245 -1.3921  1.8184
  174SAPS  H13Y19862   4.630   0.759   3.747  1.3217  0.7523 -1.1110
  174SAPS  C31419863   4.419   0.773   3.763 -0.0287  0.5099 -0.3163
  174SAPS  H14X19864   4.392   0.683   3.704 -0.6662  0.8663 -0.5701
  174SAPS  H14Y19865   4.341   0.849   3.743  0.9035  0.8239 -3.2212
  174SAPS  C31519866   4.438   0.729   3.913 -0.1487 -1.1844 -0.0965
  174SAPS  H15X19867   4.444   0.827   3.965  1.3128 -2.0595  1.5344
  174SAPS  H15Y19868   4.540   0.685   3.926 -0.1618 -1.2137 -0.0942
  174SAPS  C31619869   4.334   0.641   3.971  0.6522 -0.0040 -0.2801
  174SAPS  H16X19870   4.233   0.671   3.937 -1.1215 -2.2805  2.5564
  174SAPS  H16Y19871   4.333   0.651   4.081 -0.0879 -0.3845 -0.2455
  174SAPS  C31719872   4.362   0.495   3.943 -0.3761 -0.2568 -0.0131
  174SAPS  H17X19873   4.469   0.484   3.974 -0.1592  3.3892  0.9582
  174SAPS  H17Y19874   4.361   0.472   3.835  0.1454  1.4053 -0.4037
  174SAPS  C31819875   4.275   0.393   4.027 -0.7914 -1.3780  0.1504
  174SAPS  H18X19876   4.308   0.289   4.007  2.2199 -0.6179  0.6018
  174SAPS  H18Y19877   4.169   0.417   4.005  0.0527  2.1962 -0.5512
  174SAPS  H18Z19878   4.287   0.413   4.136 -0.1307  0.2745 -0.1978
  175SAPS     N19879   0.762   5.580   1.496 -0.1691  0.4198 -0.1355
  175SAPS   HN119880   0.837   5.542   1.435 -0.4352  0.1982 -0.3321
  175SAPS   HN219881   0.820   5.631   1.565  0.9643 -2.1179  0.9193
  175SAPS   HN319882   0.716   5.499   1.542  0.5550  0.4222  0.6013
  175SAPS   C1219883   0.677   5.674   1.420  0.0681 -0.1494 -0.0955
  175SAPS  H12A19884   0.742   5.746   1.374 -0.0093 -0.1792 -0.2516
  175SAPS   C1319885   0.595   5.609   1.304  0.0143  0.6672  0.5794
  175SAPS  O13A19886   0.628   5.487   1.278 -0.2680  0.1159  0.1817
  175SAPS  O13B19887   0.501   5.664   1.250  0.5714  0.0017 -0.0265
  175SAPS   C1119888   0.592   5.750   1.530  0.1140  0.3594  0.4185
  175SAPS  H11A19889   0.523   5.680   1.583 -1.2452  0.6861 -0.8427
  175SAPS  H11B19890   0.516   5.815   1.481 -1.3498 -1.1170  0.6268
  175SAPS     P19891   0.659   5.821   1.780 -0.5259 -0.0002  0.4393
  175SAPS   O1319892   0.757   5.926   1.817 -0.1296  0.1035  0.5657
  175SAPS   O1419893   0.517   5.850   1.804 -0.0998 -0.0462  0.0836
  175SAPS   O1219894   0.682   5.806   1.624 -0.2900  0.5376  1.0527
  175SAPS   O1119895   0.697   5.677   1.840  0.6275 -0.7499 -0.3613
  175SAPS    C119896   0.598   5.600   1.910  0.6272  0.0726  0.7103
  175SAPS    HA19897   0.509   5.576   1.848  0.1072 -0.1503  1.5392
  175SAPS    HB19898   0.643   5.498   1.916 -0.0917 -0.3384 -0.4475
  175SAPS    C219899   0.575   5.651   2.051  0.0697 -0.2091 -0.4702
  175SAPS    HS19900   0.510   5.742   2.045  0.2005 -0.1295 -0.7333
  175SAPS   O2119901   0.703   5.670   2.110  0.2451 -0.5962 -0.1969
  175SAPS   C2119902   0.739   5.792   2.150 -0.0356 -0.7345 -0.2230
  175SAPS   O2219903   0.668   5.891   2.144 -0.4592  0.3652  0.0823
  175SAPS   C2219904   0.876   5.778   2.217  0.9655 -0.3194 -0.4667
  175SAPS   H2R19905   0.885   5.678   2.264  0.3656  0.4847  1.4574
  175SAPS   H2S19906   0.960   5.792   2.146  0.9910  1.0070 -0.2035
  175SAPS    C319907   0.495   5.557   2.137 -0.2505 -0.0199 -0.4438
  175SAPS    HX19908   0.526   5.451   2.123 -3.0893 -0.9655 -0.3278
  175SAPS    HY19909   0.392   5.543   2.097 -1.6931  0.4662  2.7820
  175SAPS   O3119910   0.484   5.601   2.279  0.2480  0.5689 -0.2372
  175SAPS   C3119911   0.582   5.557   2.351  0.0398  0.0842 -0.0732
  175SAPS   O3219912   0.656   5.462   2.329 -0.4241  0.2908 -0.4591
  175SAPS   C3219913   0.588   5.643   2.476  0.3446 -0.4208 -0.8021
  175SAPS   H2X19914   0.486   5.668   2.510  1.1529  0.0581  1.4812
  175SAPS   H2Y19915   0.633   5.744   2.464 -0.0129  0.3505  2.9750
  175SAPS   C2319916   0.886   5.876   2.335  0.0257 -0.3293  0.7175
  175SAPS   H3R19917   0.793   5.868   2.395 -0.9382 -0.2401 -0.7259
  175SAPS   H3S19918   0.887   5.983   2.305  0.4855 -0.4904  0.1398
  175SAPS   C2419919   1.011   5.854   2.426  0.7018 -0.4617 -0.4491
  175SAPS   H4R19920   0.998   5.930   2.505  0.7043  1.5555 -2.3001
  175SAPS   H4S19921   1.097   5.888   2.364  1.4092 -3.0896 -1.0528
  175SAPS   C2519922   1.030   5.719   2.482 -0.3922  0.5859  0.2601
  175SAPS   H5R19923   1.079   5.648   2.414  0.1047  1.2334 -0.0626
  175SAPS   C2619924   1.018   5.688   2.609 -0.0348  0.2009  0.0969
  175SAPS   H6R19925   1.044   5.585   2.638  0.7509 -0.1656 -1.7585
  175SAPS   C2719926   0.992   5.784   2.722  0.5086  0.8339  0.5712
  175SAPS   H7R19927   0.949   5.726   2.806  1.6972  0.3871  0.8853
  175SAPS   H7S19928   0.909   5.853   2.694 -1.1621 -0.7881  1.3662
  175SAPS   C2819929   1.112   5.857   2.769 -0.2633 -0.1870 -0.9724
  175SAPS   H8R19930   1.157   5.909   2.683  1.6739  2.3407  1.3753
  175SAPS   C2919931   1.158   5.877   2.897 -0.0596  0.2100  0.8486
  175SAPS   H9R19932   1.246   5.943   2.904  0.5624 -0.4423 -0.3756
  175SAPS  C21019933   1.101   5.817   3.022  0.1015  0.9839 -0.1865
  175SAPS  H10R19934   1.181   5.814   3.099  1.0636 -0.0707 -1.1836
  175SAPS  H10S19935   1.066   5.712   3.008  1.0017  0.4885  1.0736
  175SAPS  C21119936   0.970   5.879   3.073  0.5639  0.1289 -0.1712
  175SAPS  H11R19937   0.910   5.931   2.997 -2.1000  0.1432  1.7941
  175SAPS  C21219938   0.922   5.884   3.197 -0.0362  0.0476 -0.7242
  175SAPS  H12R19939   0.830   5.941   3.218  0.4119  0.4971  0.0812
  175SAPS  C21319940   0.991   5.828   3.313 -0.7695  0.5756 -0.9925
  175SAPS  H13R19941   1.027   5.733   3.268  0.2498  0.5761 -0.2198
  175SAPS  H13S19942   0.918   5.795   3.390  0.3504  0.9909  0.2792
  175SAPS  C21419943   1.112   5.901   3.367 -0.0467  0.3385  0.4021
  175SAPS  H14R19944   1.149   5.987   3.309  0.4733  0.1065  0.3773
  175SAPS  C21519945   1.185   5.869   3.478 -0.0196 -0.2936 -0.2296
  175SAPS  H15R19946   1.277   5.928   3.492 -1.1951  1.1319  2.0322
  175SAPS  C21619947   1.166   5.757   3.573  0.3352  0.3153  0.0666
  175SAPS  H16R19948   1.064   5.715   3.557  0.5188  0.4409 -1.5082
  175SAPS  H16S19949   1.167   5.803   3.674  0.2793  0.0167  0.2060
  175SAPS  C21719950   1.270   5.641   3.572  0.5249  1.1538  0.4222
  175SAPS  H17R19951   1.367   5.689   3.597  0.4161  1.1707  0.8206
  175SAPS  H17S19952   1.265   5.607   3.467 -1.4834  0.6235  0.6585
  175SAPS  C21819953   1.252   5.522   3.672  0.1090 -0.2125 -0.1901
  175SAPS  H18R19954   1.347   5.465   3.668  0.3288  0.2060 -1.8129
  175SAPS  H18S19955   1.166   5.459   3.640  0.7812 -0.4071 -1.7254
  175SAPS  C21919956   1.242   5.573   3.815 -0.0356 -0.7828 -0.0800
  175SAPS  H19R19957   1.137   5.609   3.818 -0.1821 -1.2681  2.0378
  175SAPS  H19S19958   1.295   5.666   3.846 -4.2794  1.8011  0.1902
  175SAPS  C22019959   1.254   5.457   3.917 -0.0303 -0.1510  0.7894
  175SAPS  H20R19960   1.211   5.499   4.011 -0.5212  2.2193 -0.4262
  175SAPS  H20S19961   1.358   5.419   3.925 -0.0798 -0.4218  0.2096
  175SAPS  H20T19962   1.196   5.366   3.888  2.2498 -1.4327  0.0065
  175SAPS   C3319963   0.658   5.571   2.598  0.4956  0.2123 -0.1872
  175SAPS   H3X19964   0.766   5.595   2.604  0.4568  0.4126 -0.2629
  175SAPS   H3Y19965   0.632   5.463   2.587  2.1791 -0.1304 -1.0411
  175SAPS   C3419966   0.603   5.613   2.731  0.4223  0.8608 -0.3084
  175SAPS   H4X19967   0.651   5.548   2.807  0.1681  0.5287 -0.4293
  175SAPS   H4Y19968   0.499   5.575   2.727  1.0938 -1.1349  0.3663
  175SAPS   C3519969   0.612   5.750   2.773  0.4210  0.7835 -0.0953
  175SAPS   H5X19970   0.570   5.809   2.688 -1.6175 -0.3579  0.0417
  175SAPS   H5Y19971   0.718   5.771   2.798  0.4893 -0.7063  1.0007
  175SAPS   C3619972   0.520   5.776   2.899 -0.4043 -0.2817 -0.1051
  175SAPS   H6X19973   0.411   5.764   2.879 -0.8375 -0.1156  1.8792
  175SAPS   H6Y19974   0.536   5.883   2.926  3.5607 -1.1716  1.6693
  175SAPS   C3719975   0.566   5.695   3.024  0.4716  0.5827 -0.5229
  175SAPS   H7X19976   0.671   5.716   3.055  0.0390  0.1369  1.3189
  175SAPS   H7Y19977   0.538   5.588   3.016 -1.3357  1.0431 -0.7048
  175SAPS   C3819978   0.482   5.750   3.147  0.0191  0.1667  0.5427
  175SAPS   H8X19979   0.376   5.731   3.122  0.3955  0.4188 -1.4275
  175SAPS   H8Y19980   0.485   5.861   3.155  0.7090  0.1337  0.8490
  175SAPS   C3919981   0.512   5.677   3.280  0.0429  0.3318  0.7291
  175SAPS   H9X19982   0.622   5.670   3.295  0.4427  0.8788 -1.5796
  175SAPS   H9Y19983   0.477   5.572   3.275 -0.1350  0.4093  0.3487
  175SAPS  C31019984   0.447   5.742   3.403  0.9269  0.8631  0.7782
  175SAPS  H10X19985   0.337   5.734   3.410  0.8499  1.0146 -0.1373
  175SAPS  H10Y19986   0.465   5.851   3.395  0.7877  0.7880 -0.9204
  175SAPS  C31119987   0.513   5.693   3.526 -0.7836 -0.0618 -0.5330
  175SAPS  H11X19988   0.624   5.691   3.522 -0.7425 -0.5072  0.4805
  175SAPS  H11Y19989   0.486   5.588   3.551  1.7541 -0.4782  0.7544
  175SAPS  C31219990   0.469   5.788   3.639  0.3009  0.2807  0.1679
  175SAPS  H12X19991   0.359   5.790   3.630  0.3605  3.2287 -1.2219
  175SAPS  H12Y19992   0.502   5.894   3.628  0.2449  0.2845  0.0312
  175SAPS  C31319993   0.513   5.739   3.779 -0.0471  0.3601 -0.4685
  175SAPS  H13X19994   0.623   5.740   3.796 -0.1817  0.5168  0.4294
  175SAPS  H13Y19995   0.478   5.634   3.787  0.8022  0.0195 -0.9952
  175SAPS  C31419996   0.455   5.819   3.900 -0.1858  0.0700 -0.0654
  175SAPS  H14X19997   0.349   5.789   3.912  0.0001 -0.9423 -0.7703
  175SAPS  H14Y19998   0.453   5.928   3.882 -1.3971  0.4555  2.1602
  175SAPS  C31519999   0.525   5.782   4.031  0.2326 -0.5322  0.3120
  175SAPS  H15X20000   0.510   5.865   4.104  0.5058  0.7335 -1.0066
  175SAPS  H15Y20001   0.633   5.768   4.011  0.5425  1.0834  0.6929
  175SAPS  C31620002   0.480   5.646   4.088 -0.2186 -0.0799 -0.3139
  175SAPS  H16X20003   0.561   5.631   4.162  0.4415 -0.9874 -1.1949
  175SAPS  H16Y20004   0.472   5.576   4.002 -0.0677 -1.3199  0.6577
  175SAPS  C31720005   0.344   5.664   4.166  0.4534  0.6856  0.2153
  175SAPS  H17X20006   0.259   5.665   4.095  0.7482 -0.4063 -0.1770
  175SAPS  H17Y20007   0.350   5.764   4.215  1.1040  1.1362 -0.7500
  175SAPS  C31820008   0.326   5.546   4.256  0.0951  0.4911  0.4144
  175SAPS  H18X20009   0.412   5.539   4.326  0.1018  1.0715  0.4697
  175SAPS  H18Y20010   0.326   5.457   4.190  0.2791 -0.0213  1.0873
  175SAPS  H18Z20011   0.231   5.541   4.314  0.3161 -2.3336  0.6761
  176SAPS     N20012   2.161   3.873   1.937  0.7803  0.6787  0.5192
  176SAPS   HN120013   2.197   3.783   1.976 -0.0615 -0.2225 -0.6673
  176SAPS   HN220014   2.174   3.950   2.005 -0.0737  0.6571  0.7206
  176SAPS   HN320015   2.061   3.851   1.915  0.8404 -1.4168  1.9754
  176SAPS   C1220016   2.230   3.915   1.813  0.6113 -0.0527 -0.3106
  176SAPS  H12A20017   2.327   3.946   1.847  1.2778 -0.1509 -2.0460
  176SAPS   C1320018   2.260   3.813   1.703  0.1716  0.3212  0.4048
  176SAPS  O13A20019   2.223   3.697   1.716 -0.5826 -0.0423 -0.6293
  176SAPS  O13B20020   2.336   3.851   1.610  0.2789  0.3104  0.2412
  176SAPS   C1120021   2.161   4.038   1.748  0.1012 -0.5325 -0.2228
  176SAPS  H11A20022   2.051   4.018   1.747  0.4148 -2.4662 -0.2376
  176SAPS  H11B20023   2.180   4.058   1.641  0.5950 -2.0391 -0.4457
  176SAPS     P20024   2.129   4.296   1.781  0.3639 -0.3666 -0.4186
  176SAPS   O1320025   2.179   4.342   1.652 -0.0198  0.4590  0.4059
  176SAPS   O1420026   1.980   4.303   1.809 -0.2086 -0.5384  0.0115
  176SAPS   O1220027   2.181   4.156   1.827  0.2424  0.1989 -0.7522
  176SAPS   O1120028   2.202   4.374   1.900  0.7848 -0.3905 -0.3892
  176SAPS    C120029   2.173   4.334   2.031 -0.1202  0.0735 -0.9210
  176SAPS    HA20030   2.112   4.242   2.033  1.2600 -0.9204 -2.2249
  176SAPS    HB20031   2.276   4.321   2.073  0.0231  1.4510 -0.7867
  176SAPS    C220032   2.077   4.440   2.097  0.0231  0.3325  0.0327
  176SAPS    HS20033   1.988   4.436   2.031  0.6794 -1.1574 -0.8129
  176SAPS   O2120034   2.138   4.566   2.099 -0.1720  0.0707  0.2314
  176SAPS   C2120035   2.065   4.669   2.124  0.3776  0.2319 -0.4635
  176SAPS   O2220036   1.942   4.668   2.120 -0.1503 -0.0084  0.2461
  176SAPS   C2220037   2.152   4.782   2.177 -0.4363  0.0187 -0.2729
  176SAPS   H2R20038   2.174   4.853   2.095 -0.4068  0.3870  0.0494
  176SAPS   H2S20039   2.097   4.827   2.263 -0.1732  0.1582 -0.1780
  176SAPS    C320040   2.044   4.394   2.244 -0.3388  0.3195 -0.2527
  176SAPS    HX20041   1.989   4.297   2.244  0.3599 -0.1314  1.4511
  176SAPS    HY20042   1.970   4.464   2.289  1.9204  1.6389  1.6663
  176SAPS   O3120043   2.165   4.375   2.327 -1.0962  0.2048  0.3266
  176SAPS   C3120044   2.176   4.466   2.421  0.5692 -0.1463 -0.2190
  176SAPS   O3220045   2.105   4.561   2.438 -1.1350  0.1229  0.3306
  176SAPS   C3220046   2.306   4.444   2.502  0.1166  0.0865 -0.0459
  176SAPS   H2X20047   2.382   4.454   2.422 -1.3468  2.3358 -1.2444
  176SAPS   H2Y20048   2.308   4.346   2.554 -4.6334 -0.4172 -0.3900
  176SAPS   C2320049   2.299   4.739   2.226 -0.0648 -0.1214 -0.0851
  176SAPS   H3R20050   2.342   4.669   2.151 -1.6314 -0.4708 -0.6967
  176SAPS   H3S20051   2.299   4.683   2.322  1.2413 -1.3541 -0.7641
  176SAPS   C2420052   2.389   4.856   2.247 -0.3704  0.2546 -0.3731
  176SAPS   H4R20053   2.331   4.921   2.316  1.4624  0.2621  1.2319
  176SAPS   H4S20054   2.405   4.920   2.157  2.7399 -0.5511 -0.4981
  176SAPS   C2520055   2.528   4.828   2.299 -0.1963 -0.0002  0.3184
  176SAPS   H5R20056   2.609   4.824   2.225  0.2733  1.2916  0.7450
  176SAPS   C2620057   2.563   4.820   2.430  0.2406  0.4729 -0.0340
  176SAPS   H6R20058   2.671   4.805   2.448  0.3991  0.4765 -0.9051
  176SAPS   C2720059   2.476   4.833   2.552 -0.3331 -0.1172 -0.4742
  176SAPS   H7R20060   2.513   4.759   2.627  3.1693 -0.1441 -2.0552
  176SAPS   H7S20061   2.370   4.816   2.522 -0.6894 -3.0306  1.9432
  176SAPS   C2820062   2.503   4.971   2.617  0.1044 -0.1552  0.1405
  176SAPS   H8R20063   2.606   5.009   2.622  0.1435 -0.2273 -0.0857
  176SAPS   C2920064   2.407   5.040   2.680 -0.2653  0.0950 -0.2513
  176SAPS   H9R20065   2.443   5.130   2.732  1.0431  0.7919 -2.2319
  176SAPS  C21020066   2.264   5.000   2.706  0.3187  0.1857 -1.0525
  176SAPS  H10R20067   2.235   5.003   2.813  0.0582  0.4292 -1.1297
  176SAPS  H10S20068   2.220   4.910   2.658 -2.3872  2.2769 -2.7746
  176SAPS  C21120069   2.192   5.114   2.637  0.0458  0.4970  0.3293
  176SAPS  H11R20070   2.185   5.095   2.529  1.4440 -1.6692  0.5577
  176SAPS  C21220071   2.127   5.220   2.684 -0.0882 -0.4442 -0.6860
  176SAPS  H12R20072   2.086   5.295   2.614 -1.5837 -0.5681  0.0161
  176SAPS  C21320073   2.111   5.255   2.832 -0.0647  0.2200  0.3177
  176SAPS  H13R20074   2.142   5.361   2.822 -0.1338  0.0740 -2.1183
  176SAPS  H13S20075   2.178   5.192   2.895  0.1917 -1.6870 -1.7119
  176SAPS  C21420076   1.965   5.246   2.867 -0.2744  0.8077  0.0049
  176SAPS  H14R20077   1.914   5.161   2.820  2.8600 -1.3706  0.2155
  176SAPS  C21520078   1.909   5.319   2.968 -0.4385 -0.1476  0.5346
  176SAPS  H15R20079   1.799   5.316   2.973 -0.5000  0.5779 -0.2403
  176SAPS  C21620080   1.985   5.419   3.062  0.0949  0.1361  0.1428
  176SAPS  H16R20081   1.934   5.514   3.036 -0.7752 -0.7606 -1.5925
  176SAPS  H16S20082   2.092   5.427   3.033  0.1400 -0.7459  0.0481
  176SAPS  C21720083   1.969   5.400   3.211  0.0592  0.3834  0.8075
  176SAPS  H17R20084   2.011   5.299   3.230 -1.3516 -0.7374 -1.5984
  176SAPS  H17S20085   1.864   5.411   3.245 -0.1489  1.3127 -0.1136
  176SAPS  C21820086   2.065   5.494   3.284  0.3002  0.2616  0.0798
  176SAPS  H18R20087   2.082   5.589   3.228  0.8406 -0.0889 -0.3577
  176SAPS  H18S20088   2.160   5.443   3.310  0.0639  0.0960  0.6334
  176SAPS  C21920089   2.016   5.539   3.425  0.5275  0.5784  0.3259
  176SAPS  H19R20090   1.988   5.447   3.481  0.7052  0.2748 -0.0731
  176SAPS  H19S20091   1.917   5.586   3.406  0.3056 -0.8702 -2.7405
  176SAPS  C22020092   2.104   5.638   3.493  0.0942 -0.3611 -0.8133
  176SAPS  H20R20093   2.129   5.723   3.427 -1.3075  0.2733 -0.5683
  176SAPS  H20S20094   2.206   5.598   3.512  0.7811  1.4240 -0.6035
  176SAPS  H20T20095   2.059   5.683   3.584 -0.0092  1.3416 -1.6610
  176SAPS   C3320096   2.320   4.535   2.622 -0.4759 -0.5213  0.1838
  176SAPS   H3X20097   2.308   4.644   2.605  0.5247 -0.7269 -2.3729
  176SAPS   H3Y20098   2.429   4.540   2.641 -0.1550 -1.4771 -1.1769
  176SAPS   C3420099   2.258   4.484   2.751  0.3994 -0.6827 -0.6104
  176SAPS   H4X20100   2.260   4.374   2.762  2.6431 -0.5055  1.7597
  176SAPS   H4Y20101   2.153   4.521   2.751  0.5922 -0.0763 -2.0274
  176SAPS   C3520102   2.336   4.535   2.873  0.1848  0.4631 -0.0281
  176SAPS   H5X20103   2.437   4.489   2.866  0.3105  0.4815  1.3944
  176SAPS   H5Y20104   2.309   4.475   2.963  3.1710 -1.3335 -0.2117
  176SAPS   C3620105   2.329   4.686   2.895  0.0408 -0.4765 -0.5732
  176SAPS   H6X20106   2.228   4.711   2.934  0.4712  1.5831 -0.6968
  176SAPS   H6Y20107   2.357   4.740   2.802  2.3553 -0.7451 -0.1036
  176SAPS   C3720108   2.432   4.707   3.012  0.3035  0.0392  0.4661
  176SAPS   H7X20109   2.432   4.814   3.041 -1.2045  0.1046  0.2712
  176SAPS   H7Y20110   2.539   4.692   2.983 -0.1788  1.4719 -2.4805
  176SAPS   C3820111   2.414   4.632   3.144 -0.1082  0.1611  0.4647
  176SAPS   H8X20112   2.430   4.523   3.132 -1.3952 -0.0893  0.8221
  176SAPS   H8Y20113   2.307   4.636   3.175  0.0354  0.5454  0.9313
  176SAPS   C3920114   2.481   4.683   3.272  0.4223 -0.7553  0.5977
  176SAPS   H9X20115   2.434   4.623   3.352 -1.1438  0.9216  0.9916
  176SAPS   H9Y20116   2.468   4.791   3.291 -0.6678 -1.0316  1.4933
  176SAPS  C31020117   2.637   4.648   3.276  0.6926 -0.2451 -0.3344
  176SAPS  H10X20118   2.690   4.719   3.209  2.3180  0.4320  1.5356
  176SAPS  H10Y20119   2.663   4.546   3.242  3.7078  0.9119 -1.9114
  176SAPS  C31120120   2.689   4.669   3.425 -1.0701 -0.0881 -0.0291
  176SAPS  H11X20121   2.648   4.601   3.502 -1.4665 -1.0747 -1.0792
  176SAPS  H11Y20122   2.669   4.772   3.461 -0.6734 -0.0258  0.0247
  176SAPS  C31220123   2.838   4.658   3.445 -0.2164 -0.3999 -0.2214
  176SAPS  H12X20124   2.877   4.758   3.414  2.1099 -0.6553  1.6283
  176SAPS  H12Y20125   2.892   4.590   3.376  2.8624  2.0758 -0.4902
  176SAPS  C31320126   2.886   4.625   3.590 -0.4219 -0.2139  0.2790
  176SAPS  H13X20127   2.995   4.633   3.612 -0.3757  0.1038 -0.0664
  176SAPS  H13Y20128   2.855   4.519   3.604  0.9121 -0.6368  0.1210
  176SAPS  C31420129   2.825   4.714   3.694  0.5563 -0.4996 -0.6228
  176SAPS  H14X20130   2.715   4.724   3.693  0.5430 -0.5068  0.2304
  176SAPS  H14Y20131   2.873   4.814   3.687  1.3845 -1.0053 -3.3139
  176SAPS  C31520132   2.856   4.656   3.829 -0.1770  0.3205  0.0893
  176SAPS  H15X20133   2.965   4.636   3.826 -0.0846  0.6814  0.8614
  176SAPS  H15Y20134   2.809   4.556   3.836  1.2604 -0.4175 -0.3256
  176SAPS  C31620135   2.825   4.751   3.943 -0.0048  0.7060 -0.4051
  176SAPS  H16X20136   2.716   4.775   3.939 -0.6678 -1.8877 -0.0818
  176SAPS  H16Y20137   2.884   4.845   3.939  1.6222 -0.2462  0.3449
  176SAPS  C31720138   2.855   4.694   4.081 -0.6056 -0.8570  0.2896
  176SAPS  H17X20139   2.835   4.776   4.154  0.3494  0.5278 -0.9375
  176SAPS  H17Y20140   2.962   4.666   4.077 -1.1801 -3.7288  2.2354
  176SAPS  C31820141   2.788   4.562   4.120  0.4744 -0.0271  0.6461
  176SAPS  H18X20142   2.806   4.473   4.057  0.6154 -1.7686  3.0076
  176SAPS  H18Y20143   2.679   4.572   4.138  0.4696 -0.8564  1.1094
  176SAPS  H18Z20144   2.820   4.520   4.218 -0.7423  0.1358  1.1243
  177SAPS     N20145   3.103   0.017   1.437  0.4793  0.5743  0.6366
  177SAPS   HN120146   3.191   0.039   1.386  1.3298 -1.1428  1.2797
  177SAPS   HN220147   3.088  -0.085   1.452  0.0207  0.2100 -1.9592
  177SAPS   HN320148   3.020   0.040   1.379 -0.4536  1.1015  2.0995
  177SAPS   C1220149   3.081   0.096   1.565 -0.2218 -0.4910  0.0559
  177SAPS  H12A20150   3.177   0.103   1.614 -1.1071 -2.1839  2.1837
  177SAPS   C1320151   3.009   0.230   1.540  0.1926 -0.4553  0.0424
  177SAPS  O13A20152   2.950   0.250   1.433 -0.0857  0.3977  0.7839
  177SAPS  O13B20153   2.993   0.302   1.642 -0.0304  0.3036  0.0553
  177SAPS   C1120154   2.997   0.018   1.665  0.3647  0.4753 -0.3687
  177SAPS  H11A20155   2.897  -0.001   1.620  0.6907 -0.1495 -0.8476
  177SAPS  H11B20156   2.978   0.076   1.757  0.1890  0.9461 -0.6960
  177SAPS     P20157   2.990  -0.201   1.787 -0.1650 -0.1645 -0.2696
  177SAPS   O1320158   2.848  -0.239   1.748 -0.2993 -0.0992  0.7647
  177SAPS   O1420159   3.085  -0.311   1.818  0.0963 -0.2568  0.7072
  177SAPS   O1220160   3.058  -0.112   1.684  0.0086 -0.3943 -0.2906
  177SAPS   O1120161   2.984  -0.116   1.917  0.0937 -0.5433 -0.5213
  177SAPS    C120162   3.076  -0.126   2.030  0.4013  0.7537  0.4713
  177SAPS    HA20163   3.178  -0.158   2.001 -0.2999 -0.0101 -1.2752
  177SAPS    HB20164   3.088  -0.024   2.073 -0.1050  1.4835 -1.0370
  177SAPS    C220165   3.025  -0.222   2.142  0.2579  0.7807 -0.6674
  177SAPS    HS20166   3.008  -0.319   2.091 -2.6346  0.4988  0.6211
  177SAPS   O2120167   2.894  -0.177   2.199  0.1680 -0.3666 -0.5475
  177SAPS   C2120168   2.814  -0.272   2.249  0.0028 -0.6482 -0.3331
  177SAPS   O2220169   2.830  -0.386   2.221 -0.2840  0.2965  0.2612
  177SAPS   C2220170   2.700  -0.210   2.327  0.6316 -0.2981  0.4187
  177SAPS   H2R20171   2.736  -0.136   2.402  0.6158  0.9130 -0.7486
  177SAPS   H2S20172   2.650  -0.139   2.258  0.5572 -0.2418  0.5304
  177SAPS    C320173   3.133  -0.239   2.249 -0.4443  0.3427  0.9964
  177SAPS    HX20174   3.161  -0.134   2.268 -0.7313  0.7656 -0.7076
  177SAPS    HY20175   3.209  -0.294   2.188 -5.3198 -2.2077 -3.6822
  177SAPS   O3120176   3.079  -0.302   2.369 -0.1487  0.2623 -0.4854
  177SAPS   C3120177   3.123  -0.424   2.388 -0.4776  0.1348 -0.1622
  177SAPS   O3220178   3.216  -0.475   2.331 -0.2775  0.1773 -0.3600
  177SAPS   C3220179   3.060  -0.475   2.512  0.2146 -0.8356  0.1131
  177SAPS   H2X20180   3.035  -0.583   2.504  0.8262 -0.9224 -0.8387
  177SAPS   H2Y20181   2.964  -0.421   2.526  0.5425 -0.3724  0.6021
  177SAPS   C2320182   2.604  -0.312   2.374 -0.6333  0.6070  0.5313
  177SAPS   H3R20183   2.656  -0.366   2.456  0.5771  0.9528  0.0129
  177SAPS   H3S20184   2.591  -0.389   2.294  1.4663  0.4002  0.3297
  177SAPS   C2420185   2.475  -0.251   2.420 -0.7695  0.7108  0.3965
  177SAPS   H4R20186   2.387  -0.318   2.416 -0.8718  0.7353  1.7136
  177SAPS   H4S20187   2.442  -0.172   2.350  0.7696  0.9881 -0.0564
  177SAPS   C2520188   2.468  -0.190   2.557 -0.2043  0.0024 -0.1861
  177SAPS   H5R20189   2.539  -0.108   2.568 -1.2637  1.0564 -0.9421
  177SAPS   C2620190   2.383  -0.210   2.666  0.0009 -0.0160  0.0047
  177SAPS   H6R20191   2.409  -0.162   2.761  0.1647 -2.0175  1.0212
  177SAPS   C2720192   2.269  -0.313   2.664  0.3399  0.2909 -0.2267
  177SAPS   H7R20193   2.310  -0.416   2.664  0.0854  0.1875 -0.7462
  177SAPS   H7S20194   2.218  -0.293   2.567 -1.3481  0.3173  0.6391
  177SAPS   C2820195   2.180  -0.291   2.790 -0.3864 -0.8343 -0.1205
  177SAPS   H8R20196   2.177  -0.189   2.831 -0.3510 -1.8105  2.4848
  177SAPS   C2920197   2.095  -0.385   2.843  0.0882  0.0497  1.1451
  177SAPS   H9R20198   2.040  -0.358   2.935 -0.6803 -1.2672  1.1083
  177SAPS  C21020199   2.095  -0.532   2.797 -0.5997  0.0919 -0.2958
  177SAPS  H10R20200   2.155  -0.549   2.705  0.9200  1.5058  0.3666
  177SAPS  H10S20201   1.992  -0.560   2.767 -0.5237 -1.3552  0.7311
  177SAPS  C21120202   2.149  -0.634   2.894 -0.2243  0.5877  0.5606
  177SAPS  H11R20203   2.247  -0.602   2.933  1.0764 -2.2599 -0.0397
  177SAPS  C21220204   2.096  -0.748   2.928 -0.1350  0.1551 -0.0837
  177SAPS  H12R20205   2.135  -0.794   3.020  0.5639  0.4544 -0.2326
  177SAPS  C21320206   1.968  -0.809   2.860  0.2748 -1.3576  0.1597
  177SAPS  H13R20207   1.976  -0.800   2.749 -0.0285 -0.5484  0.1911
  177SAPS  H13S20208   1.877  -0.751   2.888  1.3427  1.0283 -0.9820
  177SAPS  C21420209   1.929  -0.948   2.892 -1.2476  0.0724  0.1361
  177SAPS  H14R20210   1.944  -0.980   2.996  1.8868 -1.1054 -0.5679
  177SAPS  C21520211   1.872  -1.034   2.804  0.3105  0.4800 -0.4140
  177SAPS  H15R20212   1.864  -1.135   2.847 -1.3293  1.2135  1.1399
  177SAPS  C21620213   1.846  -1.025   2.654 -0.5060  0.2499 -0.5268
  177SAPS  H16R20214   1.866  -1.125   2.610 -0.1791  0.0517  0.0536
  177SAPS  H16S20215   1.921  -0.962   2.602 -1.7789  0.3776 -2.2869
  177SAPS  C21720216   1.698  -0.985   2.620  0.2097  0.0650  0.3384
  177SAPS  H17R20217   1.703  -0.974   2.510 -0.7409 -0.2413  0.2547
  177SAPS  H17S20218   1.667  -0.885   2.658  1.9410  0.0950  1.8049
  177SAPS  C21820219   1.606  -1.097   2.673  0.4048  0.0685  0.6475
  177SAPS  H18R20220   1.615  -1.104   2.783  0.3710 -1.4100  0.5774
  177SAPS  H18S20221   1.641  -1.190   2.624 -0.1645  0.9092 -1.4801
  177SAPS  C21920222   1.462  -1.085   2.650  0.0811  0.1732 -0.0725
  177SAPS  H19R20223   1.462  -1.052   2.544  1.1217  1.9328  0.4303
  177SAPS  H19S20224   1.407  -1.005   2.705  1.9964 -0.6272  3.3014
  177SAPS  C22020225   1.381  -1.217   2.657 -0.1594  0.1800 -0.1992
  177SAPS  H20R20226   1.403  -1.304   2.592 -4.1273  0.2552 -1.9774
  177SAPS  H20S20227   1.273  -1.196   2.643 -0.2034 -0.7019 -1.2893
  177SAPS  H20T20228   1.387  -1.252   2.762  0.4386 -0.2198 -0.3638
  177SAPS   C3320229   3.145  -0.429   2.631 -0.4127  0.3772  0.0737
  177SAPS   H3X20230   3.143  -0.318   2.634  0.0733  0.4616 -1.6398
  177SAPS   H3Y20231   3.251  -0.456   2.612 -0.2997  0.5747  0.4037
  177SAPS   C3420232   3.097  -0.491   2.766  0.1726  0.4180 -0.3416
  177SAPS   H4X20233   2.989  -0.471   2.783 -0.3073 -1.4362 -0.9612
  177SAPS   H4Y20234   3.141  -0.426   2.845  0.2474 -1.0675  0.8840
  177SAPS   C3520235   3.125  -0.640   2.797  0.0652 -0.2844  0.0292
  177SAPS   H5X20236   3.087  -0.704   2.715 -1.8565  0.5147  0.2540
  177SAPS   H5Y20237   3.072  -0.657   2.892 -1.0580  1.2559 -0.2946
  177SAPS   C3620238   3.274  -0.673   2.825  0.0801  0.0532 -0.4022
  177SAPS   H6X20239   3.338  -0.631   2.745 -1.9884  0.9455 -1.6681
  177SAPS   H6Y20240   3.285  -0.784   2.821 -0.4338 -0.0450  0.6336
  177SAPS   C3720241   3.323  -0.608   2.956  0.0461 -0.3531 -0.0279
  177SAPS   H7X20242   3.286  -0.503   2.959  1.5865  0.2143 -0.2436
  177SAPS   H7Y20243   3.433  -0.602   2.973 -0.1624  1.7109  1.0187
  177SAPS   C3820244   3.283  -0.683   3.084  0.0959  0.7474 -0.3103
  177SAPS   H8X20245   3.309  -0.790   3.067 -2.5902 -0.2108  0.9683
  177SAPS   H8Y20246   3.172  -0.690   3.082  0.2077 -2.1716 -0.7500
  177SAPS   C3920247   3.338  -0.626   3.210  0.1748  0.1804 -0.2946
  177SAPS   H9X20248   3.308  -0.520   3.228 -1.4443 -0.6686  2.6710
  177SAPS   H9Y20249   3.446  -0.642   3.227 -0.0572  0.8300  2.3586
  177SAPS  C31020250   3.286  -0.707   3.327  0.6652 -0.0482  0.7288
  177SAPS  H10X20251   3.331  -0.809   3.326  1.1995  0.1451  2.3613
  177SAPS  H10Y20252   3.177  -0.720   3.313  0.8883 -2.8523  1.0379
  177SAPS  C31120253   3.305  -0.653   3.476  0.1193  0.2497  0.5168
  177SAPS  H11X20254   3.261  -0.552   3.484 -0.8964 -0.1265 -0.1541
  177SAPS  H11Y20255   3.414  -0.657   3.497  0.1626  1.6871  0.6414
  177SAPS  C31220256   3.231  -0.742   3.579 -0.5363  0.2300  0.1004
  177SAPS  H12X20257   3.278  -0.842   3.581 -0.4198  0.2565 -0.7482
  177SAPS  H12Y20258   3.123  -0.763   3.561  0.0928 -1.8098 -1.8019
  177SAPS  C31320259   3.247  -0.679   3.721 -0.3504 -0.3533  0.2343
  177SAPS  H13X20260   3.178  -0.592   3.726  0.2060  0.1383 -0.4397
  177SAPS  H13Y20261   3.349  -0.637   3.735  0.7226 -1.8224 -2.4220
  177SAPS  C31420262   3.194  -0.775   3.831 -0.0629 -0.5315 -0.4414
  177SAPS  H14X20263   3.253  -0.868   3.841  0.6272 -0.0849 -0.2728
  177SAPS  H14Y20264   3.088  -0.802   3.812  0.2173 -1.4682 -0.7345
  177SAPS  C31520265   3.194  -0.712   3.971  0.2081 -0.1701  0.4709
  177SAPS  H15X20266   3.131  -0.772   4.039  0.4377  1.3735  2.1307
  177SAPS  H15Y20267   3.136  -0.618   3.957 -0.7201 -0.5773  1.5051
  177SAPS  C31620268   3.337  -0.701   4.034  0.5288  0.1444 -0.4673
  177SAPS  H16X20269   3.415  -0.670   3.961  1.4186 -2.0305 -0.5212
  177SAPS  H16Y20270   3.358  -0.809   4.047  0.2341  0.3293  2.1690
  177SAPS  C31720271   3.352  -0.645   4.181 -0.3404 -0.3001 -0.8471
  177SAPS  H17X20272   3.285  -0.708   4.243 -0.3837  0.9954  0.4985
  177SAPS  H17Y20273   3.312  -0.542   4.188  0.0140 -0.0516 -2.1488
  177SAPS  C31820274   3.499  -0.647   4.227 -0.8095 -0.3318 -0.2420
  177SAPS  H18X20275   3.581  -0.601   4.168  1.1450 -1.8644  1.1404
  177SAPS  H18Y20276   3.538  -0.749   4.246 -0.1764 -0.8723 -3.7790
  177SAPS  H18Z20277   3.497  -0.588   4.321  0.6956  1.3836 -1.2390
  178SAPS     N20278   0.707   1.746   2.055  0.2349  0.3694  0.1682
  178SAPS   HN120279   0.785   1.736   1.988 -0.7081  0.0686 -0.9154
  178SAPS   HN220280   0.737   1.756   2.154 -0.0273 -0.1705  0.3054
  178SAPS   HN320281   0.645   1.663   2.048 -0.3967  0.8478 -0.1131
  178SAPS   C1220282   0.633   1.870   2.023  0.2124 -0.3768 -0.1956
  178SAPS  H12A20283   0.679   1.917   1.938  2.1636  0.4970  1.2741
  178SAPS   C1320284   0.471   1.852   1.990 -0.7237 -0.7653 -0.0604
  178SAPS  O13A20285   0.428   1.742   2.007 -0.3744  0.8042 -0.4031
  178SAPS  O13B20286   0.398   1.952   1.985 -0.4923 -0.2060 -0.6254
  178SAPS   C1120287   0.657   1.965   2.148 -0.4987  0.6111  0.5724
  178SAPS  H11A20288   0.621   1.919   2.242 -0.1949 -1.9558 -0.5011
  178SAPS  H11B20289   0.602   2.056   2.114 -0.0734 -0.7689 -4.8190
  178SAPS     P20290   0.853   2.118   2.223  0.1764 -0.3787 -0.6160
  178SAPS   O1320291   0.989   2.081   2.271  0.0195 -0.7401 -0.1146
  178SAPS   O1420292   0.832   2.234   2.130 -0.2618  0.8379  0.2735
  178SAPS   O1220293   0.795   1.987   2.156  0.1483 -0.3423  0.1327
  178SAPS   O1120294   0.766   2.141   2.354  1.4148  0.3962 -1.2526
  178SAPS    C120295   0.759   2.066   2.480 -0.0601 -0.7111  0.8668
  178SAPS    HA20296   0.655   2.027   2.482 -0.2261 -0.4125 -0.6193
  178SAPS    HB20297   0.832   1.982   2.485 -2.0388 -2.4776  1.3950
  178SAPS    C220298   0.805   2.154   2.600  0.0419 -0.5092 -0.2424
  178SAPS    HS20299   0.914   2.168   2.586 -0.1585 -1.2941 -3.5165
  178SAPS   O2120300   0.783   2.086   2.716 -0.4513  0.9261  0.0806
  178SAPS   C2120301   0.869   2.095   2.816 -0.0864  0.1896 -0.4817
  178SAPS   O2220302   0.971   2.161   2.817 -0.1596  0.1282  0.1766
  178SAPS   C2220303   0.817   2.014   2.934  1.1507 -0.0242  0.8907
  178SAPS   H2R20304   0.741   2.086   2.970  1.4876 -0.1458  1.8820
  178SAPS   H2S20305   0.763   1.923   2.901  1.0116  0.3305  0.1095
  178SAPS    C320306   0.734   2.293   2.596 -0.4421 -0.1663 -0.3786
  178SAPS    HX20307   0.625   2.278   2.604 -0.4019 -0.4523 -0.3692
  178SAPS    HY20308   0.739   2.342   2.496 -1.4524  0.6044 -0.0689
  178SAPS   O3120309   0.778   2.386   2.701 -0.3054  0.0407 -0.3371
  178SAPS   C3120310   0.901   2.443   2.672  0.0553  0.3840  0.0479
  178SAPS   O3220311   0.977   2.411   2.583  0.2023 -0.0127  0.0539
  178SAPS   C3220312   0.931   2.562   2.773  0.2168  0.2785  0.1467
  178SAPS   H2X20313   0.834   2.601   2.812 -0.5780  0.9404 -2.3285
  178SAPS   H2Y20314   0.978   2.641   2.710  0.9268 -0.9690 -0.9417
  178SAPS   C2320315   0.922   1.986   3.040  1.0189 -0.5087  0.4491
  178SAPS   H3R20316   0.939   2.076   3.103  1.0559  0.3940 -0.8096
  178SAPS   H3S20317   1.020   1.957   2.997  0.9913  1.3596 -0.9700
  178SAPS   C2420318   0.886   1.872   3.140  0.2154  0.0572 -0.4566
  178SAPS   H4R20319   0.783   1.890   3.178  0.1321  0.7659 -1.0057
  178SAPS   H4S20320   0.947   1.874   3.233 -1.7142  0.9905  0.8703
  178SAPS   C2520321   0.900   1.730   3.093  0.4907 -0.2269  0.1714
  178SAPS   H5R20322   1.000   1.715   3.050  0.5758  1.2392 -0.2069
  178SAPS   C2620323   0.828   1.620   3.112  0.5880  0.0228 -0.4647
  178SAPS   H6R20324   0.867   1.528   3.066 -2.0205 -1.8136  0.6986
  178SAPS   C2720325   0.689   1.609   3.168  0.0915 -0.0601 -0.3059
  178SAPS   H7R20326   0.651   1.713   3.166  1.3611  0.4215 -2.5252
  178SAPS   H7S20327   0.699   1.578   3.275 -1.7251  0.3518  0.0064
  178SAPS   C2820328   0.615   1.517   3.080  0.1115  0.5968 -0.6885
  178SAPS   H8R20329   0.663   1.480   2.988  1.4063 -1.4737  0.7205
  178SAPS   C2920330   0.497   1.460   3.117 -0.0177  0.4555 -0.0169
  178SAPS   H9R20331   0.448   1.389   3.048  0.9509  0.9671 -1.2942
  178SAPS  C21020332   0.421   1.490   3.245  0.4649 -0.1859  0.0221
  178SAPS  H10R20333   0.469   1.569   3.306 -0.1851 -1.2831  2.0464
  178SAPS  H10S20334   0.422   1.401   3.312  0.6529  1.7038  2.6877
  178SAPS  C21120335   0.274   1.520   3.219 -0.3984 -0.3676  0.3260
  178SAPS  H11R20336   0.255   1.546   3.114 -2.0849  1.7275  1.0633
  178SAPS  C21220337   0.167   1.534   3.304 -0.3359  0.2270  0.0995
  178SAPS  H12R20338   0.065   1.540   3.264 -0.5106 -3.1529 -0.2717
  178SAPS  C21320339   0.167   1.508   3.459  0.8360  0.0567  0.0540
  178SAPS  H13R20340   0.260   1.538   3.513  0.0594 -0.0559  1.4884
  178SAPS  H13S20341   0.170   1.399   3.479 -4.0023  0.0127  1.7780
  178SAPS  C21420342   0.048   1.559   3.533  0.9187 -0.3891 -0.7127
  178SAPS  H14R20343  -0.040   1.516   3.482  0.3748  0.8799 -0.8758
  178SAPS  C21520344   0.035   1.632   3.643  0.2087 -0.5575 -0.3340
  178SAPS  H15R20345  -0.065   1.654   3.684  0.8238  2.5195 -0.2673
  178SAPS  C21620346   0.152   1.696   3.720  0.0934  0.4558  0.2154
  178SAPS  H16R20347   0.171   1.801   3.689  1.1270  1.0367  2.5939
  178SAPS  H16S20348   0.250   1.658   3.686  0.3042  1.8196 -0.8068
  178SAPS  C21720349   0.144   1.693   3.876  0.3154  0.7456 -0.3214
  178SAPS  H17R20350   0.163   1.585   3.897 -0.0409  0.1568 -2.6813
  178SAPS  H17S20351   0.046   1.727   3.916 -0.0916 -0.1557 -0.5043
  178SAPS  C21820352   0.259   1.775   3.944  0.8980  0.0398  0.2986
  178SAPS  H18R20353   0.233   1.796   4.050  1.3300  1.9958  0.0572
  178SAPS  H18S20354   0.268   1.874   3.894 -0.1861  0.1425  0.2766
  178SAPS  C21920355   0.394   1.705   3.935  0.3996  1.1452 -0.1077
  178SAPS  H19R20356   0.419   1.696   3.827 -1.4175 -0.5603 -0.4410
  178SAPS  H19S20357   0.378   1.604   3.979  1.6971  1.0912  0.2805
  178SAPS  C22020358   0.509   1.773   4.011  0.5160 -0.7637 -0.7907
  178SAPS  H20R20359   0.497   1.740   4.117 -1.0933  2.0031 -0.0252
  178SAPS  H20S20360   0.495   1.883   4.012 -0.5025 -0.8625 -1.9483
  178SAPS  H20T20361   0.611   1.751   3.973  2.2425  2.0044  1.7601
  178SAPS   C3320362   1.028   2.527   2.891 -0.4150  0.1837  0.8940
  178SAPS   H3X20363   1.126   2.502   2.845 -0.9862 -2.6116  0.9933
  178SAPS   H3Y20364   0.982   2.447   2.952 -0.5061 -0.9059 -0.5367
  178SAPS   C3420365   1.056   2.649   2.978 -0.1954  0.2709  0.1285
  178SAPS   H4X20366   0.962   2.682   3.028  0.3664 -0.6626  1.8757
  178SAPS   H4Y20367   1.103   2.726   2.913 -0.1023  0.2026  0.1148
  178SAPS   C3520368   1.150   2.620   3.095  0.4087 -0.1714  0.5931
  178SAPS   H5X20369   1.245   2.584   3.051 -0.1518 -1.2627  0.2220
  178SAPS   H5Y20370   1.105   2.543   3.161 -1.5493  1.1386  0.8974
  178SAPS   C3620371   1.173   2.746   3.181 -0.2671 -0.4535  0.5216
  178SAPS   H6X20372   1.090   2.780   3.247 -0.6574  0.4262 -0.4124
  178SAPS   H6Y20373   1.198   2.821   3.103 -4.5081  3.0472  2.1028
  178SAPS   C3720374   1.292   2.731   3.279 -0.1965 -0.2500  0.6283
  178SAPS   H7X20375   1.335   2.830   3.307 -1.0987  0.8338 -1.6217
  178SAPS   H7Y20376   1.376   2.672   3.237  0.3371  0.1428  1.1231
  178SAPS   C3820377   1.255   2.681   3.420  0.5564  0.0860  0.0911
  178SAPS   H8X20378   1.340   2.704   3.488  0.4543  0.8080 -0.0158
  178SAPS   H8Y20379   1.225   2.575   3.409 -3.2354  1.1816 -2.0034
  178SAPS   C3920380   1.131   2.748   3.489  0.0320  0.2669  0.3905
  178SAPS   H9X20381   1.034   2.713   3.449  0.7459 -1.7095  0.2394
  178SAPS   H9Y20382   1.136   2.851   3.447  1.5315  0.2174  0.3850
  178SAPS  C31020383   1.129   2.758   3.640  0.3561 -0.0175  0.1170
  178SAPS  H10X20384   1.214   2.821   3.671  0.3404 -0.5947  1.3769
  178SAPS  H10Y20385   1.138   2.656   3.683 -3.8132 -0.3733  0.6252
  178SAPS  C31120386   0.995   2.812   3.699 -0.5672  0.6928 -0.6711
  178SAPS  H11X20387   0.906   2.762   3.655 -0.8778 -0.2560  0.9610
  178SAPS  H11Y20388   0.988   2.923   3.696  0.2631  0.7507 -0.7395
  178SAPS  C31220389   0.973   2.781   3.846  0.1824  0.1642 -0.1289
  178SAPS  H12X20390   0.983   2.672   3.866 -0.6040  0.3615  1.5021
  178SAPS  H12Y20391   0.867   2.809   3.865  0.6503  0.6443  2.0515
  178SAPS  C31320392   1.062   2.868   3.935  0.3723 -0.7332  0.0709
  178SAPS  H13X20393   1.035   2.975   3.921  2.2216 -0.1569  0.6195
  178SAPS  H13Y20394   1.172   2.864   3.915  1.0602 -1.6312  3.4387
  178SAPS  C31420395   1.045   2.832   4.086 -0.5632  0.0040  0.3064
  178SAPS  H14X20396   1.097   2.735   4.103  2.1587  1.4157  0.5907
  178SAPS  H14Y20397   0.940   2.827   4.122 -0.3597  0.6615  1.0017
  178SAPS  C31520398   1.101   2.940   4.181 -0.2322 -0.5545  0.0985
  178SAPS  H15X20399   1.033   3.028   4.177  0.7950  0.2294 -0.2994
  178SAPS  H15Y20400   1.196   2.987   4.151 -1.0308  1.1670  0.1382
  178SAPS  C31620401   1.125   2.905   4.329 -0.4188 -0.0517  0.0147
  178SAPS  H16X20402   1.214   2.843   4.355  0.0531  0.7140  0.2910
  178SAPS  H16Y20403   1.045   2.839   4.367  0.1667 -0.3615  0.7372
  178SAPS  C31720404   1.147   3.028   4.423  0.1497 -0.5261  0.7460
  178SAPS  H17X20405   1.056   3.092   4.424 -0.4579 -1.3546  2.3854
  178SAPS  H17Y20406   1.228   3.097   4.391  0.6495 -0.8312  1.3435
  178SAPS  C31820407   1.163   2.993   4.573 -0.4521  0.4584 -0.3551
  178SAPS  H18X20408   1.169   3.081   4.641 -2.2641  0.3590 -0.0309
  178SAPS  H18Y20409   1.260   2.941   4.592  1.6998  4.0348 -0.5929
  178SAPS  H18Z20410   1.076   2.939   4.615 -1.3968  2.4889  0.4436
  179SAPS     N20411   3.497   3.997   1.783  0.1408 -0.1552 -0.8906
  179SAPS   HN120412   3.486   3.938   1.698 -2.8355 -4.0293  1.7654
  179SAPS   HN220413   3.469   4.097   1.775  1.4589  0.3300  0.1865
  179SAPS   HN320414   3.594   3.994   1.820 -0.1156 -0.1284 -0.1961
  179SAPS   C1220415   3.401   3.938   1.871  0.2699  0.0761 -0.6068
  179SAPS  H12A20416   3.305   3.967   1.833 -1.0066 -0.7569  1.7493
  179SAPS   C1320417   3.399   3.781   1.863 -0.1364 -0.2813 -0.0456
  179SAPS  O13A20418   3.450   3.727   1.761  0.3451  0.5284  0.1089
  179SAPS  O13B20419   3.319   3.713   1.932 -0.1906  0.0151  0.2139
  179SAPS   C1120420   3.406   4.007   2.011 -0.2604  0.5492  0.4002
  179SAPS  H11A20421   3.508   3.994   2.052  1.2259 -0.7743 -3.3256
  179SAPS  H11B20422   3.332   3.957   2.077  0.8837 -0.4598  0.9573
  179SAPS     P20423   3.237   4.204   2.025  0.1151  0.4424  0.6744
  179SAPS   O1320424   3.241   4.349   2.000  0.5144 -0.1872 -0.1067
  179SAPS   O1420425   3.138   4.130   1.940 -0.0584 -0.1345 -0.2465
  179SAPS   O1220426   3.380   4.142   1.995 -0.6489 -0.6522  0.1520
  179SAPS   O1120427   3.223   4.174   2.174  0.9884 -0.1931  0.1708
  179SAPS    C120428   3.313   4.240   2.264  0.5150 -0.4515 -0.2874
  179SAPS    HA20429   3.358   4.328   2.213  2.2720 -1.8257 -1.2083
  179SAPS    HB20430   3.254   4.271   2.354  0.8310 -1.5718  0.3340
  179SAPS    C220431   3.427   4.153   2.337 -0.5452 -0.1301  0.0162
  179SAPS    HS20432   3.485   4.118   2.248 -0.5689 -0.4678  0.1318
  179SAPS   O2120433   3.363   4.038   2.395  0.0650  0.0543  0.1736
  179SAPS   C2120434   3.440   3.934   2.403  0.7284 -0.4911 -0.4963
  179SAPS   O2220435   3.561   3.931   2.372 -0.2668 -0.0367 -0.1768
  179SAPS   C2220436   3.363   3.817   2.475  0.3163 -0.1725 -0.0403
  179SAPS   H2R20437   3.253   3.828   2.461  0.0925  0.9615  2.1723
  179SAPS   H2S20438   3.408   3.726   2.429  2.0786  0.6472 -0.0048
  179SAPS    C320439   3.530   4.240   2.425 -0.3791 -0.2557  0.1161
  179SAPS    HX20440   3.581   4.321   2.369 -1.8668  0.1954 -0.6212
  179SAPS    HY20441   3.608   4.166   2.457  0.2343  1.3496  2.6207
  179SAPS   O3120442   3.454   4.308   2.526 -0.1107  0.7838 -0.3493
  179SAPS   C3120443   3.463   4.259   2.646 -0.1671  0.2598 -0.0267
  179SAPS   O3220444   3.545   4.168   2.679  0.3113  0.1866 -0.2673
  179SAPS   C3220445   3.347   4.325   2.740  0.0814 -0.1586  0.6632
  179SAPS   H2X20446   3.256   4.261   2.741 -0.2127  0.1967 -0.6693
  179SAPS   H2Y20447   3.321   4.421   2.691 -1.2210 -1.8368 -2.2172
  179SAPS   C2320448   3.396   3.814   2.626 -0.0659  0.5346 -0.6693
  179SAPS   H3R20449   3.332   3.886   2.681  1.9530  0.8092  1.4432
  179SAPS   H3S20450   3.499   3.852   2.642  0.2400 -0.5970  0.1407
  179SAPS   C2420451   3.375   3.676   2.701 -0.0195 -0.0979 -0.3434
  179SAPS   H4R20452   3.394   3.692   2.809 -3.3446  1.4626  0.1369
  179SAPS   H4S20453   3.432   3.589   2.662  2.1967  0.9844  0.3400
  179SAPS   C2520454   3.230   3.645   2.678 -0.3463  0.3044 -0.1955
  179SAPS   H5R20455   3.217   3.618   2.572 -0.7136  0.0631 -0.0884
  179SAPS   C2620456   3.131   3.686   2.762 -0.1502  0.0971  0.5194
  179SAPS   H6R20457   3.025   3.676   2.733 -0.1814  0.0100  0.6624
  179SAPS   C2720458   3.155   3.738   2.900  0.2075 -0.1386 -0.6559
  179SAPS   H7R20459   3.241   3.692   2.952 -1.8342 -1.7393  1.5509
  179SAPS   H7S20460   3.066   3.707   2.959 -0.1940  1.8264 -0.1653
  179SAPS   C2820461   3.163   3.887   2.916 -0.4824 -0.3221 -0.3012
  179SAPS   H8R20462   3.188   3.948   2.828  0.0592  0.6529  0.5042
  179SAPS   C2920463   3.165   3.957   3.031 -0.0625 -0.2046 -0.4156
  179SAPS   H9R20464   3.183   4.066   3.024 -1.7674  0.0068 -3.1502
  179SAPS  C21020465   3.141   3.897   3.166 -0.3497 -0.1572  0.1516
  179SAPS  H10R20466   3.164   3.788   3.163 -0.1281 -0.1327  0.8038
  179SAPS  H10S20467   3.034   3.914   3.191  0.1106 -0.1216  2.2721
  179SAPS  C21120468   3.219   3.965   3.274  0.2770  0.0726 -0.2632
  179SAPS  H11R20469   3.230   4.074   3.263 -3.6598  0.5513 -0.9201
  179SAPS  C21220470   3.269   3.907   3.386  0.0282  0.0965  0.6326
  179SAPS  H12R20471   3.313   3.972   3.463 -2.2830  0.5408  1.6616
  179SAPS  C21320472   3.242   3.762   3.422 -0.5771  0.0425  0.3798
  179SAPS  H13R20473   3.329   3.712   3.374  0.7211  0.2857  2.3713
  179SAPS  H13S20474   3.147   3.739   3.369  0.3288  0.7097 -1.6574
  179SAPS  C21420475   3.228   3.735   3.575 -0.7718 -0.0577 -0.3191
  179SAPS  H14R20476   3.315   3.686   3.621  0.8685  1.0908 -2.0714
  179SAPS  C21520477   3.114   3.763   3.653 -0.0921  0.3487 -0.0767
  179SAPS  H15R20478   3.114   3.728   3.757  0.8647  0.5290 -0.0021
  179SAPS  C21620479   2.992   3.849   3.617 -1.0597 -0.1933 -0.0810
  179SAPS  H16R20480   2.907   3.784   3.649 -0.4655 -0.2277  1.5245
  179SAPS  H16S20481   2.977   3.864   3.508 -1.1601  1.1298  0.0962
  179SAPS  C21720482   2.982   3.981   3.689 -0.0035  0.0771 -0.0605
  179SAPS  H17R20483   2.881   4.027   3.683 -1.2013 -2.3128  0.4136
  179SAPS  H17S20484   3.039   4.050   3.623 -0.9477  0.3202 -0.6361
  179SAPS  C21820485   3.026   3.979   3.837 -1.0226  0.5819  0.1330
  179SAPS  H18R20486   3.136   3.965   3.836 -1.1384 -0.3581 -1.1212
  179SAPS  H18S20487   2.982   3.896   3.896 -0.6633  0.0807 -0.2987
  179SAPS  C21920488   2.984   4.114   3.907  0.1345  0.1387 -0.2149
  179SAPS  H19R20489   2.897   4.156   3.851 -0.1552 -1.3522 -0.9483
  179SAPS  H19S20490   3.057   4.194   3.882 -0.0464  0.0140 -1.2139
  179SAPS  C22020491   2.967   4.114   4.062 -0.1424  1.0235  0.3180
  179SAPS  H20R20492   2.931   4.213   4.095 -0.6751  1.1145 -0.5097
  179SAPS  H20S20493   3.066   4.087   4.104 -0.8980 -1.5282  0.6454
  179SAPS  H20T20494   2.888   4.041   4.092 -0.2630  0.6091 -0.9471
  179SAPS   C3320495   3.390   4.347   2.890 -0.3561  0.0744 -0.6274
  179SAPS   H3X20496   3.466   4.426   2.905 -1.2619  0.8189  0.1622
  179SAPS   H3Y20497   3.425   4.251   2.934 -0.8932  0.4733  0.7039
  179SAPS   C3420498   3.274   4.383   2.988  0.0956 -0.0956  0.0579
  179SAPS   H4X20499   3.188   4.316   2.965 -0.5674  0.4232  0.9477
  179SAPS   H4Y20500   3.240   4.486   2.962  1.9407  0.5552  0.1299
  179SAPS   C3520501   3.309   4.368   3.139  0.8500 -0.7532  0.8976
  179SAPS   H5X20502   3.397   4.430   3.168 -0.6331  1.3857  1.0766
  179SAPS   H5Y20503   3.346   4.265   3.156  0.4783 -1.7432 -3.1963
  179SAPS   C3620504   3.196   4.398   3.233  0.3561 -0.7317  0.2880
  179SAPS   H6X20505   3.110   4.328   3.221 -0.8734  0.7806 -0.1003
  179SAPS   H6Y20506   3.159   4.500   3.210  0.3476 -0.6532  0.6440
  179SAPS   C3720507   3.238   4.382   3.378  0.3534 -0.3823 -0.4645
  179SAPS   H7X20508   3.337   4.430   3.389  0.3251  0.3333 -2.9140
  179SAPS   H7Y20509   3.249   4.271   3.386 -2.0812 -0.7174 -1.0732
  179SAPS   C3820510   3.129   4.425   3.481 -0.5996 -0.0549  1.1021
  179SAPS   H8X20511   3.029   4.383   3.457 -1.0934  1.4481  0.3691
  179SAPS   H8Y20512   3.126   4.535   3.466  2.4041 -0.0222  0.1250
  179SAPS   C3920513   3.169   4.388   3.630  0.2829  0.7302  1.0291
  179SAPS   H9X20514   3.156   4.278   3.640  0.2781  0.7239  0.9582
  179SAPS   H9Y20515   3.103   4.441   3.702 -2.6017 -1.6680  0.3497
  179SAPS  C31020516   3.314   4.435   3.660  0.8545 -0.0849  0.4974
  179SAPS  H10X20517   3.336   4.533   3.613  0.2130  0.7323  1.8354
  179SAPS  H10Y20518   3.372   4.362   3.599 -1.4347 -1.3055 -0.3591
  179SAPS  C31120519   3.348   4.419   3.809 -0.1058  0.3629 -0.3916
  179SAPS  H11X20520   3.258   4.423   3.874 -1.4706 -1.9342 -1.9759
  179SAPS  H11Y20521   3.417   4.501   3.838 -0.2191  0.0365  0.8681
  179SAPS  C31220522   3.412   4.282   3.845 -0.1178 -0.7083 -0.0512
  179SAPS  H12X20523   3.467   4.258   3.752 -1.7267 -1.1890 -0.9324
  179SAPS  H12Y20524   3.322   4.217   3.851 -0.2674 -0.6683 -1.4842
  179SAPS  C31320525   3.484   4.279   3.983 -0.1981  0.0624 -0.4693
  179SAPS  H13X20526   3.405   4.314   4.053 -0.5258 -1.1062 -0.2355
  179SAPS  H13Y20527   3.570   4.349   3.979 -2.5311  3.3596  1.7507
  179SAPS  C31420528   3.519   4.141   4.027  0.1042  0.0364  0.2905
  179SAPS  H14X20529   3.581   4.090   3.950  1.8063  1.5734  0.5742
  179SAPS  H14Y20530   3.421   4.089   4.039 -0.7970  1.6192  0.0896
  179SAPS  C31520531   3.591   4.138   4.168 -0.0985 -0.0296  0.4429
  179SAPS  H15X20532   3.574   4.039   4.213  0.4633 -0.4425 -0.2187
  179SAPS  H15Y20533   3.534   4.210   4.230 -1.2661  0.3789 -1.0286
  179SAPS  C31620534   3.743   4.161   4.151  0.6627 -0.2454  0.2670
  179SAPS  H16X20535   3.770   4.248   4.089 -0.1234  1.2042  1.8657
  179SAPS  H16Y20536   3.787   4.073   4.100  1.7604  0.6383 -0.3542
  179SAPS  C31720537   3.792   4.178   4.295  0.2393 -0.4629 -0.9108
  179SAPS  H17X20538   3.782   4.078   4.344 -0.7164  0.3958  0.7600
  179SAPS  H17Y20539   3.726   4.247   4.351 -0.7260 -0.5563 -1.9212
  179SAPS  C31820540   3.934   4.220   4.294  0.0676  0.0102  0.2815
  179SAPS  H18X20541   3.977   4.202   4.395  0.7254 -3.1796 -0.4511
  179SAPS  H18Y20542   3.948   4.330   4.284 -1.1922  0.2189  0.7112
  179SAPS  H18Z20543   4.003   4.168   4.224 -1.8803 -2.1884 -0.1180
  180SAPS     N20544   3.648   0.550   1.887  0.1069  0.4009 -1.0614
  180SAPS   HN120545   3.649   0.653   1.875 -0.1357  0.9173  2.4483
  180SAPS   HN220546   3.733   0.525   1.942 -0.8726 -0.3992  0.1588
  180SAPS   HN320547   3.648   0.497   1.797  0.5915 -0.5596 -0.5167
  180SAPS   C1220548   3.530   0.513   1.970  0.1793 -0.0108  0.5609
  180SAPS  H12A20549   3.545   0.568   2.062  1.3668 -0.3853  0.6135
  180SAPS   C1320550   3.390   0.541   1.902 -0.3688  0.6077  0.6868
  180SAPS  O13A20551   3.377   0.606   1.794  0.1829 -0.0409 -0.0639
  180SAPS  O13B20552   3.296   0.543   1.984  0.1831 -0.8685  0.2160
  180SAPS   C1120553   3.530   0.370   2.013 -0.3272  0.1199  0.2552
  180SAPS  H11A20554   3.536   0.302   1.926 -2.1514 -1.3793  1.2288
  180SAPS  H11B20555   3.435   0.341   2.063 -0.8285 -2.1093 -1.7935
  180SAPS     P20556   3.666   0.198   2.163  0.1588 -0.0576  0.5731
  180SAPS   O1320557   3.543   0.111   2.164 -0.8569  0.0090 -0.2346
  180SAPS   O1420558   3.794   0.138   2.113  0.2541  0.1449 -0.1237
  180SAPS   O1220559   3.646   0.341   2.095  0.0527  0.3892 -0.1097
  180SAPS   O1120560   3.691   0.238   2.317  0.4352  0.2453  0.3545
  180SAPS    C120561   3.641   0.366   2.367 -0.3767 -0.1632 -0.1621
  180SAPS    HA20562   3.567   0.411   2.296 -0.4779  0.8129  0.5380
  180SAPS    HB20563   3.583   0.341   2.459 -2.5115 -0.7174 -1.5635
  180SAPS    C220564   3.756   0.459   2.394 -0.2514 -0.2803 -0.4354
  180SAPS    HS20565   3.800   0.458   2.292 -1.7493  1.0724 -1.1245
  180SAPS   O2120566   3.842   0.405   2.497  0.1392  0.4070  0.1280
  180SAPS   C2120567   3.966   0.440   2.494 -1.4234  0.3195  0.2022
  180SAPS   O2220568   4.025   0.505   2.406  0.1263 -0.6061  0.4401
  180SAPS   C2220569   4.039   0.408   2.629  0.6002  0.2147  0.3390
  180SAPS   H2R20570   4.138   0.459   2.623 -0.0940  1.4599 -1.8910
  180SAPS   H2S20571   3.980   0.459   2.707  1.5072  0.7710  0.6733
  180SAPS    C320572   3.709   0.607   2.425  0.2963  0.6161 -0.4538
  180SAPS    HX20573   3.652   0.628   2.333 -0.5471 -1.1291 -0.3700
  180SAPS    HY20574   3.804   0.664   2.428  0.7548 -0.1426 -0.2569
  180SAPS   O3120575   3.639   0.622   2.552 -0.1008  0.2314 -0.0535
  180SAPS   C3120576   3.515   0.611   2.560  0.3420 -0.5713  0.1453
  180SAPS   O3220577   3.436   0.605   2.465 -0.6823 -0.2561  0.8797
  180SAPS   C3220578   3.476   0.588   2.710 -0.4616  0.6491 -0.5010
  180SAPS   H2X20579   3.501   0.674   2.775  1.2620  1.8182 -2.5715
  180SAPS   H2Y20580   3.527   0.491   2.727 -1.6335 -0.4110 -2.5868
  180SAPS   C2320581   4.056   0.248   2.658  0.6932 -0.9220  0.3726
  180SAPS   H3R20582   4.135   0.212   2.588  0.4716  0.6811 -0.7498
  180SAPS   H3S20583   3.962   0.200   2.622  0.0578  0.9972 -0.6796
  180SAPS   C2420584   4.092   0.226   2.809  0.3505 -0.3593 -0.3032
  180SAPS   H4R20585   4.114   0.118   2.823  0.0159 -0.5873 -1.3952
  180SAPS   H4S20586   4.001   0.243   2.870  0.3639 -0.0857 -0.3543
  180SAPS   C2520587   4.204   0.315   2.870 -0.8272  0.0304 -0.0791
  180SAPS   H5R20588   4.309   0.293   2.846 -0.8798  0.6047 -0.8635
  180SAPS   C2620589   4.196   0.402   2.973 -1.0717  0.4183  0.2273
  180SAPS   H6R20590   4.294   0.435   3.013 -0.8712  2.0417 -1.4541
  180SAPS   C2720591   4.078   0.445   3.049 -0.2718 -0.9098  0.2174
  180SAPS   H7R20592   3.990   0.421   2.986 -0.5746  0.5199  0.0613
  180SAPS   H7S20593   4.081   0.556   3.049  2.4017 -0.9058  1.5881
  180SAPS   C2820594   4.078   0.394   3.185 -0.0364  0.1961 -0.9892
  180SAPS   H8R20595   4.125   0.303   3.225 -2.4293 -0.0280  1.7175
  180SAPS   C2920596   4.035   0.458   3.297  0.8199  0.6174  0.6594
  180SAPS   H9R20597   4.040   0.416   3.399  0.6747 -0.5606  0.1997
  180SAPS  C21020598   3.980   0.602   3.299  0.3558  0.0075 -0.1423
  180SAPS  H10R20599   3.879   0.597   3.345  0.1856  1.1926 -0.3464
  180SAPS  H10S20600   3.971   0.637   3.194 -0.2368 -0.6521 -0.3187
  180SAPS  C21120601   4.047   0.704   3.382 -0.2449 -0.0323 -0.1027
  180SAPS  H11R20602   4.129   0.756   3.330  0.0182 -0.6263 -0.2960
  180SAPS  C21220603   4.033   0.728   3.511 -0.2767  0.1417 -0.8005
  180SAPS  H12R20604   4.109   0.792   3.558  0.7512 -1.9673  0.5471
  180SAPS  C21320605   3.934   0.660   3.604  0.0356 -0.2891  0.3688
  180SAPS  H13R20606   3.875   0.594   3.537  0.8360  0.3090 -0.9707
  180SAPS  H13S20607   3.857   0.736   3.630 -0.7123 -0.3562 -1.4995
  180SAPS  C21420608   3.991   0.579   3.713 -0.0144 -0.3438  0.0416
  180SAPS  H14R20609   4.076   0.516   3.683 -0.3657 -0.3506 -0.9710
  180SAPS  C21520610   3.936   0.567   3.835  0.3743  0.3353  0.7830
  180SAPS  H15R20611   3.986   0.512   3.916  1.2094  2.2216  1.6279
  180SAPS  C21620612   3.818   0.640   3.896 -0.4024  0.4731  0.4534
  180SAPS  H16R20613   3.717   0.593   3.883  0.0348 -0.5312  0.5973
  180SAPS  H16S20614   3.810   0.745   3.861 -4.0171  0.3929  0.6380
  180SAPS  C21720615   3.836   0.659   4.050 -0.7746 -0.2931 -0.0021
  180SAPS  H17R20616   3.922   0.730   4.062  1.2735 -2.9223  2.0751
  180SAPS  H17S20617   3.868   0.565   4.099  2.0304  1.2724  1.4448
  180SAPS  C21820618   3.723   0.735   4.115 -0.1056  0.2401 -0.4979
  180SAPS  H18R20619   3.631   0.676   4.099  1.1822 -1.3767 -2.3217
  180SAPS  H18S20620   3.701   0.833   4.066 -1.3172  0.4401  0.3845
  180SAPS  C21920621   3.751   0.753   4.261  0.0620  0.1116  0.9385
  180SAPS  H19R20622   3.847   0.809   4.270  0.1166  0.2172 -0.2334
  180SAPS  H19S20623   3.739   0.647   4.294  1.0415 -0.2763  0.0810
  180SAPS  C22020624   3.646   0.838   4.331 -0.3017 -0.4784  0.2355
  180SAPS  H20R20625   3.672   0.872   4.434  1.8214 -0.5325 -0.2381
  180SAPS  H20S20626   3.642   0.938   4.282  2.9702 -0.4728 -0.2381
  180SAPS  H20T20627   3.547   0.788   4.343 -1.3274  1.7790  2.0752
  180SAPS   C3320628   3.327   0.556   2.726 -0.6196  0.1308  0.0158
  180SAPS   H3X20629   3.306   0.478   2.651  4.1760 -1.7113  0.2481
  180SAPS   H3Y20630   3.265   0.642   2.692  2.5360  1.9452 -1.5299
  180SAPS   C3420631   3.291   0.498   2.864 -0.0020 -0.2841  0.2747
  180SAPS   H4X20632   3.325   0.573   2.939 -2.7736  1.7709 -0.3740
  180SAPS   H4Y20633   3.345   0.405   2.890 -2.0208 -1.2304  1.3647
  180SAPS   C3520634   3.140   0.466   2.879 -0.5534 -0.7360 -0.0110
  180SAPS   H5X20635   3.113   0.388   2.804 -0.6176  0.9153 -1.7926
  180SAPS   H5Y20636   3.086   0.556   2.843  0.9545  0.1427 -0.1789
  180SAPS   C3620637   3.086   0.442   3.021 -0.1097  0.1170 -0.2100
  180SAPS   H6X20638   3.034   0.535   3.051  0.3340  0.8334 -1.6070
  180SAPS   H6Y20639   3.169   0.417   3.090  0.5015 -2.2386 -1.6832
  180SAPS   C3720640   2.988   0.327   3.026  0.2746  0.0922  1.1360
  180SAPS   H7X20641   3.029   0.236   2.977 -0.7003  0.1896  0.0825
  180SAPS   H7Y20642   2.886   0.340   2.983  0.4133 -0.6468  0.5584
  180SAPS   C3820643   2.963   0.280   3.173  0.1979  0.7707  0.1117
  180SAPS   H8X20644   2.916   0.362   3.231  1.6085  0.2115  2.1329
  180SAPS   H8Y20645   3.063   0.262   3.217 -0.4428  1.1820  1.8394
  180SAPS   C3920646   2.885   0.151   3.189 -0.7052  0.6874  0.4641
  180SAPS   H9X20647   2.949   0.065   3.158 -0.0625  0.9614  1.0146
  180SAPS   H9Y20648   2.793   0.158   3.126 -0.4507  1.5085  0.1703
  180SAPS  C31020649   2.835   0.126   3.329  0.4870  0.5031 -0.0842
  180SAPS  H10X20650   2.774   0.214   3.360 -1.2801 -0.7972  0.3127
  180SAPS  H10Y20651   2.925   0.117   3.393 -0.3480 -3.0012  0.7652
  180SAPS  C31120652   2.749   0.006   3.349  0.2167 -0.9243 -0.1116
  180SAPS  H11X20653   2.792  -0.093   3.322 -0.8871 -1.4900  0.1390
  180SAPS  H11Y20654   2.662   0.017   3.281 -0.2488 -0.4600  0.5531
  180SAPS  C31220655   2.690   0.001   3.492  0.2990  0.0218  0.6851
  180SAPS  H12X20656   2.611  -0.077   3.480 -1.2026  1.6863 -0.9264
  180SAPS  H12Y20657   2.635   0.093   3.522  0.1311  0.4608 -0.8903
  180SAPS  C31320658   2.778  -0.030   3.610 -1.1776  0.6383  0.8887
  180SAPS  H13X20659   2.859   0.044   3.626  0.3042 -0.1048 -2.2924
  180SAPS  H13Y20660   2.828  -0.127   3.591  0.5836  1.7801 -0.7339
  180SAPS  C31420661   2.707  -0.037   3.741  0.0226  0.1652 -0.3844
  180SAPS  H14X20662   2.654   0.056   3.770 -2.1408 -0.5902 -1.6774
  180SAPS  H14Y20663   2.785  -0.059   3.818  1.0259 -2.3794 -1.9747
  180SAPS  C31520664   2.614  -0.164   3.757  0.1453 -0.2577 -1.0712
  180SAPS  H15X20665   2.661  -0.248   3.702  1.4171  0.6918 -1.4731
  180SAPS  H15Y20666   2.517  -0.142   3.707 -1.1775 -1.0195  0.9908
  180SAPS  C31620667   2.573  -0.216   3.900 -0.7993  0.7099 -0.8885
  180SAPS  H16X20668   2.489  -0.288   3.907  1.3641 -1.8443  1.3495
  180SAPS  H16Y20669   2.539  -0.126   3.955  0.1287 -0.7832  2.3718
  180SAPS  C31720670   2.697  -0.274   3.977 -1.2027  0.2102 -0.1711
  180SAPS  H17X20671   2.776  -0.197   3.987 -1.9890  0.7382  2.8221
  180SAPS  H17Y20672   2.738  -0.352   3.909  0.1197 -0.4174  1.2792
  180SAPS  C31820673   2.660  -0.320   4.119  0.0610 -0.1701 -0.2903
  180SAPS  H18X20674   2.585  -0.401   4.129 -1.7442  1.6527  2.0973
  180SAPS  H18Y20675   2.638  -0.230   4.180 -1.0747 -0.6091 -0.0249
  180SAPS  H18Z20676   2.756  -0.345   4.168  1.1894  3.7244 -0.1450
  181POPC     N20677   6.748   2.455   6.875 -0.2204  0.2414  0.6551
  181POPC   C1220678   6.760   2.356   6.761  0.6257  0.0657  0.2018
  181POPC  H12A20679   6.779   2.257   6.799  1.5309  0.0985 -0.1516
  181POPC  H12B20680   6.854   2.374   6.711 -0.3688 -1.9565 -2.6011
  181POPC   C1320681   6.684   2.379   6.988 -0.4324  1.0856 -0.2632
  181POPC  H13A20682   6.745   2.300   7.028 -0.3795  1.4961  0.4915
  181POPC  H13B20683   6.669   2.432   7.081  2.6067  0.6239  0.5796
  181POPC  H13C20684   6.595   2.331   6.951  1.0168 -2.7735  0.8199
  181POPC   C1420685   6.889   2.501   6.926 -0.3230 -0.4332  0.2736
  181POPC  H14A20686   6.955   2.416   6.930  1.2244  0.7467  1.2847
  181POPC  H14B20687   6.926   2.573   6.854 -0.9752  0.6745  1.0104
  181POPC  H14C20688   6.867   2.544   7.023  1.5761 -0.1895  0.6349
  181POPC   C1520689   6.667   2.580   6.850 -0.3029 -0.0204 -0.3064
  181POPC  H15A20690   6.663   2.633   6.944  0.1769  1.8331 -1.2661
  181POPC  H15B20691   6.568   2.556   6.814  0.3196 -0.1148 -2.0836
  181POPC  H15C20692   6.709   2.659   6.788  1.9764 -0.3031  0.7723
  181POPC   C1120693   6.642   2.364   6.657 -0.7007  0.0431  0.2546
  181POPC  H11A20694   6.664   2.285   6.583  0.1713 -0.9584  1.5280
  181POPC  H11B20695   6.649   2.466   6.615 -0.0027  0.3889  1.1792
  181POPC     P20696   6.458   2.201   6.745  0.1867  0.2746  0.1066
  181POPC   O1320697   6.370   2.200   6.863  0.4456  0.0427  0.0004
  181POPC   O1420698   6.570   2.103   6.744 -0.1670  0.3101  0.1398
  181POPC   O1220699   6.513   2.344   6.712  0.3444  0.0858  0.1890
  181POPC   O1120700   6.364   2.157   6.626 -0.6652 -0.2093 -0.1044
  181POPC    C120701   6.417   2.135   6.497  0.4886  0.3871  0.2191
  181POPC    HA20702   6.404   2.028   6.471 -0.0225  0.5855 -0.4039
  181POPC    HB20703   6.525   2.162   6.493  1.1188 -1.5748  2.5282
  181POPC    C220704   6.343   2.217   6.389 -0.4389 -0.6582 -0.0199
  181POPC    HS20705   6.285   2.289   6.451 -0.1879 -0.6369  0.1913
  181POPC   O2120706   6.252   2.139   6.311  0.3944  0.1798  0.1023
  181POPC   C2120707   6.150   2.212   6.268 -0.1651 -0.1234  0.4914
  181POPC   O2220708   6.131   2.333   6.286 -0.5219  0.4354 -0.0683
  181POPC   C2220709   6.052   2.133   6.184  0.3103 -0.4123  0.8805
  181POPC   H2R20710   5.962   2.140   6.249 -0.4454  0.2205 -0.1862
  181POPC   H2S20711   6.078   2.025   6.170  0.3207 -0.3015 -0.0570
  181POPC    C320712   6.451   2.293   6.301  0.4817  0.2467  0.1750
  181POPC    HX20713   6.516   2.208   6.273 -0.7823 -0.1575 -1.7046
  181POPC    HY20714   6.504   2.371   6.360  0.0542  2.6403 -2.3591
  181POPC   O3120715   6.396   2.347   6.179  0.1690 -0.0655  0.3734
  181POPC   C3120716   6.394   2.482   6.167  0.1330 -0.3583  0.2429
  181POPC   O3220717   6.441   2.558   6.247  0.6347  0.0471 -0.0656
  181POPC   C3220718   6.342   2.534   6.029 -0.3865  0.3059 -0.1199
  181POPC   H2X20719   6.313   2.640   6.048  0.4729  0.8193 -1.4996
  181POPC   H2Y20720   6.248   2.482   5.999  0.4360 -1.1422 -0.2634
  181POPC   C2320721   6.014   2.212   6.051  0.8086  0.3037  0.4807
  181POPC   H3R20722   6.009   2.319   6.081 -1.3242  0.2265  0.5544
  181POPC   H3S20723   5.918   2.182   6.003  1.8490 -2.8077  0.1461
  181POPC   C2420724   6.113   2.190   5.934  0.5119 -0.0095  0.0879
  181POPC   H4R20725   6.117   2.080   5.920 -0.7589 -0.4352  2.5523
  181POPC   H4S20726   6.216   2.227   5.954  0.7990 -1.2457  1.0507
  181POPC   C2520727   6.052   2.265   5.812  0.3620 -0.1277 -0.4021
  181POPC   H5R20728   6.133   2.310   5.751 -1.3321  2.1300 -1.0990
  181POPC   H5S20729   5.991   2.348   5.852 -0.3185 -1.0078  0.4441
  181POPC   C2620730   5.964   2.176   5.720 -0.3391  0.2373  0.7370
  181POPC   H6R20731   5.884   2.137   5.787  1.6682  0.6794  3.5893
  181POPC   H6S20732   6.030   2.098   5.676  0.6929 -0.0579  2.6903
  181POPC   C2720733   5.887   2.278   5.631  0.4908  0.7882  0.0826
  181POPC   H7R20734   5.874   2.377   5.680 -0.9897  0.9357 -0.5411
  181POPC   H7S20735   5.784   2.238   5.617  0.9510 -0.9249  1.2117
  181POPC   C2820736   5.956   2.271   5.491  0.4814  0.2764 -0.5103
  181POPC   H8R20737   5.939   2.166   5.460 -2.6630  0.5130  0.0521
  181POPC   H8S20738   6.065   2.272   5.510  0.4031  1.8515 -0.0116
  181POPC   C2920739   5.915   2.376   5.389 -0.4513 -0.4219  0.1119
  181POPC   H9120740   5.970   2.471   5.397 -2.0004  0.4205  1.7154
  181POPC  C21020741   5.817   2.353   5.300  0.3437  0.8213 -0.0896
  181POPC  H10120742   5.781   2.428   5.227  0.2672  1.4665  0.5937
  181POPC  C21120743   5.742   2.223   5.270  0.4223 -0.0189 -0.2058
  181POPC  H11R20744   5.661   2.243   5.197  0.0424 -0.7693 -0.0033
  181POPC  H11S20745   5.689   2.178   5.357  1.3789 -1.7670 -0.4882
  181POPC  C21220746   5.833   2.113   5.208 -0.6194  0.1559  0.5292
  181POPC  H12R20747   5.765   2.030   5.181  0.4784 -0.7840  0.5743
  181POPC  H12S20748   5.907   2.082   5.284 -1.6448  1.0603  1.9460
  181POPC  C21320749   5.901   2.143   5.076 -0.0707  0.2047 -0.4488
  181POPC  H13R20750   5.960   2.051   5.053 -0.8033 -0.0102 -1.5307
  181POPC  H13S20751   5.975   2.226   5.079 -0.0044  0.1191  0.7637
  181POPC  C21420752   5.803   2.156   4.965  0.7051 -0.5448  0.2179
  181POPC  H14R20753   5.833   2.236   4.894 -0.1497  2.5343  3.1107
  181POPC  H14S20754   5.712   2.209   5.000  1.9581  1.3094  0.7724
  181POPC  C21520755   5.785   2.030   4.889  0.5155 -0.0738 -0.0360
  181POPC  H15R20756   5.755   1.955   4.966 -1.2197  0.4762 -0.1277
  181POPC  H15S20757   5.882   1.998   4.846 -0.2094 -2.2397 -0.2325
  181POPC  C21620758   5.682   2.040   4.773  0.3206  0.2678  0.4475
  181POPC  H16R20759   5.593   2.099   4.805  0.1809  0.0109  0.5300
  181POPC  H16S20760   5.633   1.944   4.747  1.7192 -0.1558 -0.7327
  181POPC  C21720761   5.740   2.099   4.640  0.0140  0.3094  0.1637
  181POPC  H17R20762   5.827   2.040   4.604  0.0480  0.1988  0.4246
  181POPC  H17S20763   5.769   2.204   4.665 -0.1060  0.2603  0.5148
  181POPC  C21820764   5.631   2.102   4.531 -0.9447  0.1086 -0.1072
  181POPC  H18R20765   5.596   1.998   4.512  4.3024 -2.5166  2.3274
  181POPC  H18S20766   5.679   2.146   4.441  0.8483 -4.0243 -1.4424
  181POPC  H18T20767   5.552   2.169   4.571  0.0834  2.2107 -1.4625
  181POPC   C3320768   6.455   2.537   5.923 -0.6466  0.1455  0.2463
  181POPC   H3X20769   6.483   2.434   5.892  1.8225  0.3654  1.5180
  181POPC   H3Y20770   6.537   2.601   5.963 -2.3848  1.9844  1.0369
  181POPC   C3420771   6.430   2.615   5.785 -0.4443  0.1502 -0.5080
  181POPC   H4X20772   6.528   2.638   5.739 -0.3265 -0.0110 -0.3440
  181POPC   H4Y20773   6.387   2.714   5.812  0.0556  0.3792 -0.5424
  181POPC   C3520774   6.354   2.529   5.684  0.6180 -0.3812  0.3006
  181POPC   H5X20775   6.249   2.515   5.719  0.2702 -1.2985 -1.0307
  181POPC   H5Y20776   6.403   2.429   5.677 -1.0826 -1.1426 -2.0821
  181POPC   C3620777   6.361   2.584   5.546  0.2303  0.9701 -0.3024
  181POPC   H6X20778   6.466   2.591   5.511  0.4951  0.6527  0.3920
  181POPC   H6Y20779   6.324   2.689   5.547  1.5603  1.4578  0.4381
  181POPC   C3720780   6.283   2.497   5.443 -0.6153 -0.0488 -0.1555
  181POPC   H7X20781   6.176   2.508   5.471  0.1663  0.9810  2.7229
  181POPC   H7Y20782   6.293   2.388   5.462 -3.6753 -1.0192 -3.0232
  181POPC   C3820783   6.316   2.534   5.298 -0.2000  0.5755  0.7937
  181POPC   H8X20784   6.402   2.467   5.276  0.0175  1.7290 -2.3695
  181POPC   H8Y20785   6.331   2.643   5.285  1.1729  0.1597 -1.7330
  181POPC   C3920786   6.195   2.492   5.209 -0.6235  0.3690 -0.0446
  181POPC   H9X20787   6.131   2.583   5.208 -1.5400 -0.1694  2.3450
  181POPC   H9Y20788   6.137   2.402   5.239  1.9384 -1.4593 -0.1811
  181POPC  C31020789   6.226   2.460   5.067  0.0162 -0.0769  0.2900
  181POPC  H10X20790   6.124   2.447   5.024  0.2433 -2.9390  0.4247
  181POPC  H10Y20791   6.288   2.371   5.044 -0.0575 -0.1798  0.4849
  181POPC  C31120792   6.295   2.574   4.991 -0.1590  1.0102  0.1275
  181POPC  H11X20793   6.389   2.603   5.043  0.7360  0.0424 -0.9014
  181POPC  H11Y20794   6.237   2.668   5.008 -0.1525  0.6473  2.4517
  181POPC  C31220795   6.314   2.560   4.844 -1.0445 -0.0336 -0.4838
  181POPC  H12X20796   6.377   2.473   4.815 -1.6018 -0.6209  0.0063
  181POPC  H12Y20797   6.368   2.652   4.815  1.6294 -0.8665  1.4243
  181POPC  C31320798   6.179   2.536   4.768  0.0592  0.0787  0.6457
  181POPC  H13X20799   6.123   2.631   4.773  1.3850  0.8559  1.2844
  181POPC  H13Y20800   6.115   2.457   4.812 -0.0682  0.5463  1.3078
  181POPC  C31420801   6.201   2.488   4.622  0.3305 -0.1560  0.2516
  181POPC  H14X20802   6.246   2.387   4.610 -2.6811 -1.5502 -0.1477
  181POPC  H14Y20803   6.262   2.570   4.578  3.8541 -1.3916  2.4126
  181POPC  C31520804   6.068   2.474   4.544 -0.1565  0.1196  0.4675
  181POPC  H15X20805   6.026   2.575   4.560 -0.8235 -0.0926  0.0765
  181POPC  H15Y20806   6.007   2.403   4.602  0.4938 -0.0919  0.9047
  181POPC  C31620807   6.098   2.432   4.405 -0.8363  0.0136  0.3418
  181POPC  H16X20808   6.146   2.516   4.350 -0.9899  1.2605  2.0257
  181POPC  H16Y20809   6.002   2.397   4.360 -0.7895  0.6387 -0.2708
  181POPC  H16Z20810   6.175   2.352   4.406  0.4509  1.0369 -3.0980
  182POPC     N20811   5.409   5.939   6.758 -0.7430 -0.0930  1.0251
  182POPC   C1220812   5.490   5.963   6.631 -0.4863  0.5862 -0.6220
  182POPC  H12A20813   5.446   6.042   6.572 -0.5055 -0.5846 -2.2515
  182POPC  H12B20814   5.480   5.874   6.570 -1.6182 -0.4766  1.0307
  182POPC   C1320815   5.268   5.935   6.727 -0.0745 -0.2055  0.0232
  182POPC  H13A20816   5.211   5.937   6.819  0.5469  0.7891  0.3946
  182POPC  H13B20817   5.244   6.020   6.665  1.2107  1.5882  1.8648
  182POPC  H13C20818   5.235   5.845   6.677 -0.1424  0.2169 -0.6954
  182POPC   C1420819   5.458   5.819   6.836 -0.3200  0.4960 -0.4152
  182POPC  H14A20820   5.416   5.824   6.936  3.0569 -1.1767  1.2537
  182POPC  H14B20821   5.442   5.721   6.793  1.4336  0.4012 -0.9227
  182POPC  H14C20822   5.565   5.823   6.854 -0.2972 -0.0382 -0.4010
  182POPC   C1520823   5.425   6.055   6.850 -0.4885 -0.5150 -0.0030
  182POPC  H15A20824   5.361   6.050   6.937 -1.4449  0.9832 -0.5792
  182POPC  H15B20825   5.404   6.140   6.786 -1.2794 -2.0890 -1.9396
  182POPC  H15C20826   5.531   6.065   6.869  0.1498 -0.4118 -3.0967
  182POPC   C1120827   5.640   5.993   6.645 -0.4242  0.4811  0.3996
  182POPC  H11A20828   5.691   5.970   6.549 -1.5073 -0.9204  0.1187
  182POPC  H11B20829   5.678   5.917   6.716 -0.7367  0.8364  0.9526
  182POPC     P20830   5.650   6.247   6.605  0.3055 -0.0660  0.3116
  182POPC   O1320831   5.761   6.342   6.638 -0.3243  0.8083  0.0223
  182POPC   O1420832   5.519   6.308   6.639 -0.0962  0.2398  0.3868
  182POPC   O1220833   5.672   6.120   6.691  0.2811  0.0950 -0.1910
  182POPC   O1120834   5.656   6.201   6.456  0.6167 -0.7184 -0.2950
  182POPC    C120835   5.763   6.246   6.369 -0.1660  0.0729 -0.6660
  182POPC    HA20836   5.793   6.164   6.300  1.5925  2.6854 -3.1839
  182POPC    HB20837   5.855   6.270   6.426 -0.1890 -1.4870  0.0917
  182POPC    C220838   5.721   6.367   6.276  0.2270 -0.1424 -0.1938
  182POPC    HS20839   5.721   6.452   6.347  1.0004 -0.0813 -0.2555
  182POPC   O2120840   5.586   6.337   6.230 -0.2620 -0.4044  0.1941
  182POPC   C2120841   5.532   6.440   6.165  0.7004 -0.3697  0.6253
  182POPC   O2220842   5.571   6.550   6.159  0.1830 -0.5847 -0.5906
  182POPC   C2220843   5.405   6.390   6.097  0.4028 -0.6877 -0.5145
  182POPC   H2R20844   5.321   6.380   6.170 -1.3497  0.2316 -2.3036
  182POPC   H2S20845   5.421   6.287   6.058  2.1086 -0.2919 -0.9152
  182POPC    C320846   5.829   6.391   6.169  0.0489 -0.0627  0.1708
  182POPC    HX20847   5.920   6.418   6.226 -0.0228 -1.0105  0.7469
  182POPC    HY20848   5.796   6.479   6.108  1.8128  1.2794  1.0548
  182POPC   O3120849   5.842   6.267   6.093 -0.3654  0.2559 -0.2750
  182POPC   C3120850   5.956   6.253   6.038  0.3568 -0.1915  1.3782
  182POPC   O3220851   6.051   6.330   6.039 -0.2838  0.0872  0.5517
  182POPC   C3220852   5.968   6.105   5.978 -0.1135 -0.2007 -0.5052
  182POPC   H2X20853   5.866   6.065   5.960  1.1068 -3.2746 -1.3245
  182POPC   H2Y20854   6.019   6.048   6.058  1.4607 -0.4938 -1.6687
  182POPC   C2320855   5.370   6.477   5.976  0.1008  0.2176 -0.8193
  182POPC   H3R20856   5.380   6.587   5.989  1.9072 -0.2607  3.7550
  182POPC   H3S20857   5.267   6.454   5.942 -0.2789  0.0293  0.4188
  182POPC   C2420858   5.456   6.450   5.848 -0.0583 -0.2146 -0.2455
  182POPC   H4R20859   5.427   6.496   5.751 -0.7173 -1.6720 -0.7711
  182POPC   H4S20860   5.451   6.342   5.824 -0.6827 -0.6074  1.5110
  182POPC   C2520861   5.602   6.489   5.871  0.7023  0.2743  0.3956
  182POPC   H5R20862   5.648   6.425   5.949  1.6499  1.1691  0.5918
  182POPC   H5S20863   5.613   6.587   5.921  2.3279 -0.7406  2.1438
  182POPC   C2620864   5.675   6.483   5.742 -0.3130 -0.5902 -0.8651
  182POPC   H6R20865   5.632   6.560   5.675 -0.2970  0.5670  0.4207
  182POPC   H6S20866   5.668   6.382   5.695  0.4505 -2.5280  2.7390
  182POPC   C2720867   5.827   6.524   5.770 -0.1453 -0.0212 -0.4700
  182POPC   H7R20868   5.874   6.454   5.841  1.1026  0.1335 -1.1066
  182POPC   H7S20869   5.825   6.624   5.819  0.1481  0.3474 -1.1938
  182POPC   C2820870   5.903   6.537   5.639  0.4053  0.1104 -1.0407
  182POPC   H8R20871   5.928   6.440   5.592  2.5468  1.1487 -2.1774
  182POPC   H8S20872   6.002   6.586   5.655  0.4479 -0.1389 -0.5075
  182POPC   C2920873   5.848   6.631   5.543 -0.1391 -0.6171  0.5216
  182POPC   H9120874   5.810   6.725   5.585 -0.1578  0.1487 -1.1100
  182POPC  C21020875   5.844   6.632   5.409  0.5595 -0.0753  0.6656
  182POPC  H10120876   5.791   6.719   5.366 -2.1178 -2.3715 -1.0108
  182POPC  C21120877   5.880   6.526   5.316 -0.1496 -0.0107  0.0014
  182POPC  H11R20878   5.803   6.522   5.237 -1.2507  0.9082  0.9799
  182POPC  H11S20879   5.872   6.423   5.356 -4.7758  0.6412  1.4319
  182POPC  C21220880   6.016   6.558   5.239  0.4148  0.3169  0.3236
  182POPC  H12R20881   6.020   6.663   5.203  0.3509  0.5862  1.1016
  182POPC  H12S20882   6.022   6.478   5.162 -2.6337  0.3337 -0.0764
  182POPC  C21320883   6.140   6.541   5.336 -0.8859  0.1422  0.4852
  182POPC  H13R20884   6.139   6.433   5.364 -0.3387 -0.0907 -0.3643
  182POPC  H13S20885   6.118   6.596   5.430 -2.1721 -0.4135  0.5357
  182POPC  C21420886   6.268   6.563   5.260 -0.6376 -0.1001  0.0015
  182POPC  H14R20887   6.266   6.669   5.227  3.7628  0.3161  0.4684
  182POPC  H14S20888   6.268   6.503   5.167  0.8865 -1.4061  0.8042
  182POPC  C21520889   6.397   6.525   5.331 -0.3743 -0.2230 -0.4994
  182POPC  H15R20890   6.376   6.431   5.386  0.9041 -0.8269 -1.0072
  182POPC  H15S20891   6.421   6.601   5.408 -2.5128  0.7404 -0.6945
  182POPC  C21620892   6.521   6.511   5.250  0.5961  0.9376  0.1142
  182POPC  H16R20893   6.499   6.426   5.182  1.6559 -0.1175  1.0497
  182POPC  H16S20894   6.612   6.477   5.304  0.8722 -2.2666 -2.0766
  182POPC  C21720895   6.550   6.642   5.180 -0.0024 -0.0211  0.5950
  182POPC  H17R20896   6.540   6.722   5.257  2.5775  0.7807  0.1705
  182POPC  H17S20897   6.476   6.664   5.100 -0.4828 -2.3005  0.3405
  182POPC  C21820898   6.689   6.653   5.129 -0.0215 -0.4761 -0.0841
  182POPC  H18R20899   6.685   6.712   5.035  2.2524  0.2703  0.2382
  182POPC  H18S20900   6.745   6.558   5.112 -1.2839 -1.1851 -0.4034
  182POPC  H18T20901   6.740   6.714   5.206  0.6884 -1.1522  0.0011
  182POPC   C3320902   6.049   6.091   5.847 -0.1569 -0.0604  0.4373
  182POPC   H3X20903   6.093   5.989   5.849  1.7845  0.7381  0.9974
  182POPC   H3Y20904   6.134   6.162   5.833 -0.7531  0.6025  0.1080
  182POPC   C3420905   5.966   6.108   5.717 -0.7004  0.0686 -0.2769
  182POPC   H4X20906   5.902   6.199   5.718  3.0733  2.9447  1.5457
  182POPC   H4Y20907   5.894   6.026   5.696 -2.1126  1.3228 -0.5593
  182POPC   C3520908   6.064   6.120   5.592  0.0858 -0.1884 -0.0633
  182POPC   H5X20909   6.138   6.036   5.592 -0.4964 -0.7732 -2.4040
  182POPC   H5Y20910   6.122   6.214   5.603  0.3345 -0.2564 -0.7430
  182POPC   C3620911   5.981   6.133   5.464 -0.3780 -0.1453 -0.0830
  182POPC   H6X20912   5.918   6.224   5.471 -2.1108 -1.3831  1.3548
  182POPC   H6Y20913   5.905   6.053   5.468 -0.0733 -0.4106  0.7816
  182POPC   C3720914   6.051   6.127   5.335 -0.4723 -0.0866  0.9503
  182POPC   H7X20915   6.087   6.025   5.312  1.5048  0.7237  0.2186
  182POPC   H7Y20916   6.140   6.190   5.354 -0.1103 -0.0585 -0.6915
  182POPC   C3820917   5.961   6.170   5.215 -0.3045 -0.2872 -0.2406
  182POPC   H8X20918   5.892   6.250   5.249  0.0618  0.0937 -0.3764
  182POPC   H8Y20919   5.898   6.081   5.195 -1.1754  0.7690 -2.6757
  182POPC   C3920920   6.049   6.214   5.090  0.6759  0.1080  0.4059
  182POPC   H9X20921   6.125   6.140   5.059  1.5301  1.4032 -0.7102
  182POPC   H9Y20922   6.109   6.301   5.125 -0.0262  0.8766 -0.2616
  182POPC  C31020923   5.960   6.247   4.969 -0.6477  0.2438 -0.3580
  182POPC  H10X20924   5.879   6.318   4.997  0.8250  0.9301  2.5769
  182POPC  H10Y20925   5.917   6.152   4.930 -3.2545  0.8393  0.7868
  182POPC  C31120926   6.044   6.308   4.856 -0.5605 -0.5918  0.4330
  182POPC  H11X20927   6.132   6.245   4.834  1.5639  2.3359 -0.0063
  182POPC  H11Y20928   6.087   6.405   4.887 -1.5529  0.4750 -1.3281
  182POPC  C31220929   5.966   6.321   4.724 -0.3261 -0.3480  0.6739
  182POPC  H12X20930   5.885   6.393   4.749  0.6482  1.0818 -0.1711
  182POPC  H12Y20931   5.917   6.222   4.709  0.6618 -0.9002  0.9833
  182POPC  C31320932   6.049   6.365   4.609 -0.1854  0.5876  0.1788
  182POPC  H13X20933   6.144   6.310   4.622 -1.4113 -1.4377  0.9508
  182POPC  H13Y20934   6.065   6.474   4.625 -1.8218  0.8801 -0.0162
  182POPC  C31420935   5.990   6.337   4.469  0.2408 -0.3234  0.3084
  182POPC  H14X20936   5.960   6.230   4.464  0.1661 -0.3747  1.4898
  182POPC  H14Y20937   6.062   6.378   4.395 -3.6583  2.7568 -2.2056
  182POPC  C31520938   5.853   6.404   4.447 -0.2951  0.3361 -0.0724
  182POPC  H15X20939   5.867   6.506   4.489  1.3180 -1.2308  3.5532
  182POPC  H15Y20940   5.780   6.349   4.509  1.4595 -1.5597  0.4161
  182POPC  C31620941   5.809   6.396   4.298 -0.2124 -0.5619  0.2072
  182POPC  H16X20942   5.882   6.458   4.242  0.3331 -1.6300 -0.2955
  182POPC  H16Y20943   5.705   6.433   4.286  0.2394  0.6017 -0.2284
  182POPC  H16Z20944   5.820   6.292   4.263  3.1451 -0.0943 -0.4459
  183POPC     N20945   1.999   5.260   6.410  0.5360  0.8113  0.0646
  183POPC   C1220946   1.910   5.273   6.278 -0.2744  0.1265 -0.8846
  183POPC  H12A20947   1.811   5.251   6.315 -0.1555  0.8549 -0.0929
  183POPC  H12B20948   1.935   5.186   6.220 -1.8956 -0.8211 -0.2459
  183POPC   C1320949   2.135   5.264   6.372  0.4168  0.3147  0.5302
  183POPC  H13A20950   2.146   5.364   6.333 -2.1864 -0.2167 -1.8768
  183POPC  H13B20951   2.200   5.241   6.455  0.5220  1.6007  0.8268
  183POPC  H13C20952   2.167   5.190   6.299 -0.0312  0.7585 -0.1272
  183POPC   C1420953   1.974   5.371   6.497 -0.2358 -0.1940 -0.3285
  183POPC  H14A20954   1.878   5.368   6.546  0.2479 -1.7846  0.5702
  183POPC  H14B20955   2.052   5.363   6.571 -0.2489  0.2039 -0.2679
  183POPC  H14C20956   1.957   5.465   6.446 -0.3069  1.1146  1.9618
  183POPC   C1520957   1.951   5.132   6.474  0.1355 -0.5357 -0.5397
  183POPC  H15A20958   1.843   5.133   6.483  0.1247 -0.3293 -0.6794
  183POPC  H15B20959   1.991   5.132   6.575 -0.2429  2.5391 -0.2696
  183POPC  H15C20960   1.976   5.044   6.418 -0.6443 -0.1915 -1.4431
  183POPC   C1120961   1.901   5.413   6.215  0.3011  0.2839  0.4752
  183POPC  H11A20962   1.875   5.409   6.107 -0.2702  3.4281  0.3991
  183POPC  H11B20963   1.998   5.467   6.213  0.0279  0.7717 -0.4669
  183POPC     P20964   1.636   5.470   6.271  0.2253  0.0667 -0.1220
  183POPC   O1320965   1.568   5.527   6.390  0.2161  0.4578 -0.2370
  183POPC   O1420966   1.615   5.326   6.231 -0.0665 -0.3800 -0.6276
  183POPC   O1220967   1.792   5.491   6.284  0.2041 -0.1051 -0.5298
  183POPC   O1120968   1.601   5.565   6.145 -0.1322 -0.0721  0.1383
  183POPC    C120969   1.670   5.686   6.112  0.4686 -0.8556  0.5151
  183POPC    HA20970   1.777   5.682   6.138  0.8580 -0.8007 -0.9551
  183POPC    HB20971   1.629   5.773   6.167 -0.3306 -1.9111  1.6567
  183POPC    C220972   1.650   5.725   5.959 -0.5801 -0.2857 -0.6370
  183POPC    HS20973   1.697   5.826   5.954  1.2160 -1.0132  0.3508
  183POPC   O2120974   1.517   5.743   5.933  0.2025  0.1205  0.2105
  183POPC   C2120975   1.485   5.831   5.836  0.3203  0.0568 -0.3782
  183POPC   O2220976   1.558   5.903   5.776  0.3782 -0.4490  0.0887
  183POPC   C2220977   1.331   5.820   5.821  0.0575 -0.6415  0.0766
  183POPC   H2R20978   1.294   5.894   5.895  0.4335  1.1522 -1.4627
  183POPC   H2S20979   1.294   5.717   5.841  3.0854 -1.5078  1.6887
  183POPC    C320980   1.728   5.628   5.863  0.0152  0.0251  0.2241
  183POPC    HX20981   1.708   5.523   5.895 -0.4628 -0.7235 -2.3548
  183POPC    HY20982   1.836   5.648   5.879 -0.2233  0.0233  2.1676
  183POPC   O3120983   1.685   5.629   5.726  0.2665  0.5221  0.1056
  183POPC   C3120984   1.741   5.710   5.644 -0.2724 -0.7650  0.1945
  183POPC   O3220985   1.834   5.784   5.678  0.1819 -0.5068  0.6980
  183POPC   C3220986   1.663   5.725   5.515  0.6793  0.4054 -0.1610
  183POPC   H2X20987   1.636   5.832   5.498  1.0784  0.4129 -0.7558
  183POPC   H2Y20988   1.567   5.668   5.516  1.1409 -0.7057 -3.8229
  183POPC   C2320989   1.276   5.872   5.684 -0.3390  0.3256  0.6901
  183POPC   H3R20990   1.331   5.830   5.598  0.8764  0.5058  1.3533
  183POPC   H3S20991   1.302   5.980   5.673  1.8267 -0.2204 -0.1803
  183POPC   C2420992   1.124   5.861   5.669 -1.1121  0.4078 -0.2317
  183POPC   H4R20993   1.076   5.927   5.744  0.3369 -0.4649  1.5447
  183POPC   H4S20994   1.094   5.759   5.701  0.1667  0.2117  0.3943
  183POPC   C2520995   1.086   5.917   5.535  0.0719  0.9560  0.0952
  183POPC   H5R20996   1.154   5.997   5.499  0.6665  0.3857 -0.0570
  183POPC   H5S20997   0.980   5.952   5.544  0.1658  1.1256  0.5800
  183POPC   C2620998   1.094   5.809   5.428 -0.4097  0.0119  0.7715
  183POPC   H6R20999   1.100   5.704   5.464  1.4998 -0.8301 -1.6815
  183POPC   H6S21000   1.193   5.827   5.379 -0.6906 -0.1221  0.1458
  183POPC   C2721001   0.980   5.821   5.326 -0.5377 -0.3844 -0.2711
  183POPC   H7R21002   0.967   5.931   5.312  1.5887 -0.2762 -2.0833
  183POPC   H7S21003   0.889   5.776   5.370 -0.5454 -0.8210 -0.7278
  183POPC   C2821004   1.005   5.750   5.194  0.0254  0.2789 -0.0109
  183POPC   H8R21005   1.082   5.800   5.132  3.2889 -3.0005  1.1094
  183POPC   H8S21006   0.906   5.746   5.144  0.8499 -0.9184 -1.5928
  183POPC   C2921007   1.042   5.599   5.203  0.3528  0.1940 -0.4204
  183POPC   H9121008   0.985   5.544   5.279  0.3884 -0.0409 -0.5627
  183POPC  C21021009   1.131   5.539   5.123 -0.0496 -0.1551  0.4512
  183POPC  H10121010   1.149   5.431   5.128  1.7566  0.1639  1.6808
  183POPC  C21121011   1.215   5.595   5.012 -0.0858 -0.1177  0.4120
  183POPC  H11R21012   1.308   5.536   4.994  1.0338  1.7782 -0.2614
  183POPC  H11S21013   1.262   5.690   5.046 -1.1766  0.1089  1.3565
  183POPC  C21221014   1.153   5.603   4.876  0.3717 -0.4904  0.3822
  183POPC  H12R21015   1.064   5.669   4.881  1.5139  1.0542  0.7833
  183POPC  H12S21016   1.104   5.507   4.847  1.7869 -0.4350 -2.5201
  183POPC  C21321017   1.250   5.635   4.772  0.5654  0.1920  0.1708
  183POPC  H13R21018   1.343   5.576   4.788  0.1032 -0.7175 -0.4171
  183POPC  H13S21019   1.289   5.739   4.777 -0.4584  0.5662  0.6898
  183POPC  C21421020   1.203   5.607   4.622 -0.4741  0.5977 -0.4504
  183POPC  H14R21021   1.110   5.660   4.591 -0.7673 -0.2599 -1.0600
  183POPC  H14S21022   1.187   5.497   4.619 -0.9609  0.5569  1.5630
  183POPC  C21521023   1.325   5.631   4.536 -0.4876 -0.0399 -0.3052
  183POPC  H15R21024   1.410   5.585   4.592 -1.1314  0.5132  1.1853
  183POPC  H15S21025   1.348   5.740   4.531  0.0671 -0.2194 -2.9715
  183POPC  C21621026   1.324   5.583   4.392  0.4714 -0.6723  0.8241
  183POPC  H16R21027   1.235   5.625   4.341  0.5721 -2.0400 -0.5428
  183POPC  H16S21028   1.304   5.474   4.387 -2.1538 -0.1916 -1.7523
  183POPC  C21721029   1.456   5.611   4.321 -0.5627 -0.9638 -0.8142
  183POPC  H17R21030   1.541   5.597   4.391 -1.9176  1.1369  1.4236
  183POPC  H17S21031   1.463   5.722   4.310 -1.8859 -0.6705  0.8001
  183POPC  C21821032   1.482   5.542   4.187  0.6876  0.0410  0.1587
  183POPC  H18R21033   1.569   5.586   4.133 -1.1438  0.5664 -2.5330
  183POPC  H18S21034   1.395   5.550   4.119  1.1355  0.3585 -0.3875
  183POPC  H18T21035   1.498   5.432   4.193  0.4308 -0.2039 -2.3777
  183POPC   C3321036   1.743   5.679   5.384 -0.1735 -0.1093 -0.1740
  183POPC   H3X21037   1.770   5.571   5.392  0.8705  0.2316  1.3265
  183POPC   H3Y21038   1.838   5.737   5.389  0.9018 -1.8732  1.4201
  183POPC   C3421039   1.662   5.711   5.258  0.2729 -0.2328 -0.6582
  183POPC   H4X21040   1.614   5.811   5.269 -0.8161 -0.6299 -1.5549
  183POPC   H4Y21041   1.582   5.635   5.248 -0.3357  0.3317 -0.2001
  183POPC   C3521042   1.739   5.718   5.121 -0.0704 -0.0667  0.4966
  183POPC   H5X21043   1.809   5.633   5.102 -1.1300 -0.5830 -1.3923
  183POPC   H5Y21044   1.800   5.811   5.119 -0.6408  0.3023 -0.0521
  183POPC   C3621045   1.641   5.702   5.009  0.4562 -0.6398  0.0400
  183POPC   H6X21046   1.566   5.784   5.012 -0.2637 -1.3008  0.5610
  183POPC   H6Y21047   1.574   5.615   5.025 -1.4135  0.3982 -1.6409
  183POPC   C3721048   1.722   5.702   4.873 -0.1405  1.0087 -0.1230
  183POPC   H7X21049   1.773   5.604   4.862  1.2174  1.6731  0.1675
  183POPC   H7Y21050   1.791   5.789   4.872 -0.5787  1.4672 -3.6652
  183POPC   C3821051   1.637   5.730   4.752 -0.0635  0.5444  0.4440
  183POPC   H8X21052   1.588   5.830   4.755  0.8611  1.0139  0.4195
  183POPC   H8Y21053   1.555   5.656   4.762  0.4470  0.0365  0.9666
  183POPC   C3921054   1.699   5.720   4.610 -0.8003  1.3029 -0.3651
  183POPC   H9X21055   1.617   5.723   4.536  0.3965  1.2724 -1.7410
  183POPC   H9Y21056   1.747   5.620   4.606 -1.7781  0.7863  0.4439
  183POPC  C31021057   1.787   5.837   4.570 -0.3309  0.2399  0.1391
  183POPC  H10X21058   1.863   5.847   4.651 -1.0399 -0.2667  0.8831
  183POPC  H10Y21059   1.733   5.934   4.564 -1.3576 -0.3650 -0.5583
  183POPC  C31121060   1.860   5.807   4.434  0.9194 -0.7376  0.1183
  183POPC  H11X21061   1.895   5.702   4.423  1.7836 -0.7046  2.0294
  183POPC  H11Y21062   1.950   5.872   4.441  0.9726 -0.9848  2.4481
  183POPC  C31221063   1.789   5.842   4.303 -0.0375  0.1083  0.7157
  183POPC  H12X21064   1.696   5.786   4.281 -0.5731  1.3879 -0.4331
  183POPC  H12Y21065   1.864   5.822   4.223  0.2931  0.7921  0.8450
  183POPC  C31321066   1.755   5.989   4.297 -0.7695  0.0336  0.4024
  183POPC  H13X21067   1.846   6.049   4.321  0.1207 -1.3449  0.5805
  183POPC  H13Y21068   1.678   5.997   4.376 -2.0411 -1.9537 -0.5762
  183POPC  C31421069   1.680   6.047   4.175 -0.0828  0.6615 -0.4342
  183POPC  H14X21070   1.592   6.108   4.204  0.1308  0.8385 -0.1600
  183POPC  H14Y21071   1.633   5.960   4.124 -0.3198  0.2036  0.5516
  183POPC  C31521072   1.765   6.116   4.069  0.2379  0.4038 -0.3580
  183POPC  H15X21073   1.840   6.041   4.034 -0.1299 -0.7773  1.2595
  183POPC  H15Y21074   1.828   6.204   4.097  3.6265 -1.2268 -2.1711
  183POPC  C31621075   1.680   6.151   3.950 -0.1649 -1.0198 -0.3998
  183POPC  H16X21076   1.742   6.178   3.862  0.5529  0.6519  0.5764
  183POPC  H16Y21077   1.618   6.240   3.976  2.1280  0.7258 -0.5848
  183POPC  H16Z21078   1.607   6.071   3.924  1.3139 -2.1880 -1.0584
  184POPC     N21079   0.291   6.453   6.224  0.8808  0.0330 -0.5665
  184POPC   C1221080   0.176   6.363   6.188  0.1402 -0.6099  0.5201
  184POPC  H12A21081   0.144   6.373   6.085 -0.9492 -0.3110  0.8781
  184POPC  H12B21082   0.087   6.382   6.246  0.0867  2.3526 -0.3967
  184POPC   C1321083   0.312   6.445   6.375  1.0644 -0.0257  0.5043
  184POPC  H13A21084   0.414   6.476   6.395  0.8360  0.5169  0.8530
  184POPC  H13B21085   0.244   6.496   6.442  0.4817  0.4845 -0.4425
  184POPC  H13C21086   0.299   6.341   6.400 -0.3058 -0.0770 -0.3670
  184POPC   C1421087   0.412   6.407   6.154 -0.2080  0.0476  0.1152
  184POPC  H14A21088   0.399   6.426   6.048  0.6568 -0.1080 -0.0256
  184POPC  H14B21089   0.497   6.461   6.191 -0.2616 -0.9503  1.8001
  184POPC  H14C21090   0.429   6.301   6.165  1.9603  0.1956 -1.2822
  184POPC   C1521091   0.260   6.599   6.193 -0.2950  0.0945  0.7917
  184POPC  H15A21092   0.253   6.632   6.091 -3.7133  3.6186  1.8963
  184POPC  H15B21093   0.335   6.662   6.238  1.9593 -0.4092 -1.9482
  184POPC  H15C21094   0.167   6.630   6.239  0.2861  2.1401  0.6902
  184POPC   C1121095   0.203   6.211   6.201  0.1155  0.1789 -0.5363
  184POPC  H11A21096   0.283   6.181   6.131 -0.6426  0.4339 -1.5370
  184POPC  H11B21097   0.115   6.155   6.165  0.0755 -0.2123  0.1585
  184POPC     P21098   0.317   6.039   6.358 -0.5875  0.2023 -0.2040
  184POPC   O1321099   0.286   5.981   6.494  0.2386 -0.4990  0.2448
  184POPC   O1421100   0.459   6.075   6.334  0.5425  0.0545 -0.0715
  184POPC   O1221101   0.225   6.167   6.334 -0.1023 -0.0501 -0.6369
  184POPC   O1121102   0.279   5.946   6.243 -0.0504  0.2933  0.1622
  184POPC    C121103   0.248   5.810   6.264  0.1202  0.4921 -0.1442
  184POPC    HA21104   0.145   5.780   6.291  0.4611  0.6017  1.3893
  184POPC    HB21105   0.305   5.764   6.347 -0.4782 -0.2862 -0.1596
  184POPC    C221106   0.283   5.723   6.138  0.6514  0.4195  0.4331
  184POPC    HS21107   0.380   5.672   6.156  0.3108 -0.0547  0.9295
  184POPC   O2121108   0.288   5.801   6.015  0.3033 -0.1006 -0.2144
  184POPC   C2121109   0.410   5.846   5.977 -0.5138 -0.0590  0.4117
  184POPC   O2221110   0.513   5.819   6.030 -0.2368  0.1439 -0.3669
  184POPC   C2221111   0.395   5.949   5.864 -0.0766  0.1734 -0.0883
  184POPC   H2R21112   0.319   6.021   5.903 -0.5483  0.7546 -2.0019
  184POPC   H2S21113   0.355   5.903   5.771  0.5637  1.3440 -0.9590
  184POPC    C321114   0.177   5.614   6.122  0.6623 -0.2735  0.7062
  184POPC    HX21115   0.083   5.669   6.102  1.2247  0.4272 -0.0526
  184POPC    HY21116   0.167   5.567   6.223 -1.4928  0.1451  0.7400
  184POPC   O3121117   0.213   5.517   6.019 -0.0973  0.0870  0.4269
  184POPC   C3121118   0.120   5.499   5.929  0.2150  0.3950  0.4552
  184POPC   O3221119   0.003   5.531   5.939  0.3158  0.2846  0.9432
  184POPC   C3221120   0.179   5.399   5.818  0.5210 -0.2502  0.0486
  184POPC   H2X21121   0.180   5.298   5.863  0.6907 -1.2176 -2.0006
  184POPC   H2Y21122   0.281   5.439   5.798  0.5721  0.4750  1.6173
  184POPC   C2321123   0.529   6.027   5.836 -0.5306  0.3149 -0.1832
  184POPC   H3R21124   0.584   6.051   5.929 -0.9883  0.3449  0.0827
  184POPC   H3S21125   0.499   6.127   5.796 -0.5541  0.7375  0.8504
  184POPC   C2421126   0.604   5.970   5.717  0.2942 -0.2370  0.7036
  184POPC   H4R21127   0.618   5.860   5.726  1.2513 -0.2254 -0.4225
  184POPC   H4S21128   0.703   6.019   5.722  0.1503  0.0267  1.0045
  184POPC   C2521129   0.557   6.005   5.571 -0.4446 -0.5437  0.0397
  184POPC   H5R21130   0.567   6.115   5.559  2.2719 -0.5970  1.1200
  184POPC   H5S21131   0.446   5.996   5.576 -0.6106  1.5934  1.5564
  184POPC   C2621132   0.626   5.935   5.454 -0.1734  1.0051  0.0820
  184POPC   H6R21133   0.619   5.824   5.463  3.1674  0.5123 -1.7207
  184POPC   H6S21134   0.736   5.949   5.443 -0.1182 -0.5930 -2.4645
  184POPC   C2721135   0.565   5.968   5.310  0.1083  0.0313  0.9432
  184POPC   H7R21136   0.587   6.075   5.292 -1.6639  0.4102  0.8463
  184POPC   H7S21137   0.455   5.953   5.313  0.1839 -1.2068 -0.6575
  184POPC   C2821138   0.618   5.858   5.207 -0.3438 -0.2281  0.0439
  184POPC   H8R21139   0.620   5.764   5.266  0.6193  0.8463  1.8141
  184POPC   H8S21140   0.725   5.890   5.205 -0.5461  0.5075  0.4496
  184POPC   C2921141   0.559   5.843   5.063 -0.5093  0.1513  0.0095
  184POPC   H9121142   0.469   5.781   5.061 -0.1575 -0.5276  2.2287
  184POPC  C21021143   0.612   5.893   4.950  0.3571 -0.1541 -0.1299
  184POPC  H10121144   0.562   5.867   4.855  0.1061 -1.1432  0.2608
  184POPC  C21121145   0.717   5.999   4.937 -0.3601  0.4311 -0.9493
  184POPC  H11R21146   0.762   6.025   5.035 -1.7898 -2.7418  0.7266
  184POPC  H11S21147   0.670   6.089   4.892 -3.5577 -1.3812 -1.5446
  184POPC  C21221148   0.827   5.936   4.849 -0.5018  0.8072  0.0162
  184POPC  H12R21149   0.875   5.847   4.894 -0.3338  1.2899  0.8189
  184POPC  H12S21150   0.911   6.009   4.851  1.1253 -1.0157  0.2548
  184POPC  C21321151   0.780   5.926   4.697  0.1963  0.2680 -0.1704
  184POPC  H13R21152   0.754   6.033   4.683 -0.1659  0.1962 -0.0533
  184POPC  H13S21153   0.693   5.860   4.681  0.4527 -0.1782  0.2608
  184POPC  C21421154   0.873   5.868   4.595 -0.3016  0.0201  0.0382
  184POPC  H14R21155   0.910   5.772   4.637  1.2769  1.3249  1.7654
  184POPC  H14S21156   0.969   5.917   4.569 -0.3418 -1.1235 -2.5196
  184POPC  C21521157   0.809   5.842   4.456  0.2266  0.4061 -0.8639
  184POPC  H15R21158   0.745   5.924   4.416  0.7394  0.9558 -0.5879
  184POPC  H15S21159   0.749   5.748   4.455 -2.9802  2.2844 -0.4321
  184POPC  C21621160   0.920   5.839   4.354  0.2465 -0.2485 -0.2163
  184POPC  H16R21161   1.002   5.767   4.376 -0.5521 -0.5125  2.2036
  184POPC  H16S21162   0.974   5.936   4.354 -0.3046  0.1001  1.5092
  184POPC  C21721163   0.861   5.803   4.216  0.0728 -0.4021 -0.2958
  184POPC  H17R21164   0.788   5.874   4.171  0.9876 -0.4058 -1.9039
  184POPC  H17S21165   0.805   5.714   4.250 -0.7304  0.3667  0.4620
  184POPC  C21821166   0.961   5.759   4.106 -0.5774 -0.6391 -0.4232
  184POPC  H18R21167   1.032   5.685   4.149  0.8507  0.9281  0.0503
  184POPC  H18S21168   1.022   5.849   4.085 -1.7118  0.2456 -0.0851
  184POPC  H18T21169   0.919   5.723   4.010 -1.5982 -0.4383 -0.0667
  184POPC   C3321170   0.115   5.397   5.674 -0.5468  0.2170 -0.8273
  184POPC   H3X21171   0.115   5.496   5.624 -0.2551 -0.1064 -1.4703
  184POPC   H3Y21172   0.011   5.361   5.687 -1.1389  1.3937 -2.1343
  184POPC   C3421173   0.193   5.293   5.594 -0.3612  0.0617 -0.4625
  184POPC   H4X21174   0.175   5.194   5.641 -0.0508  0.1490 -0.1547
  184POPC   H4Y21175   0.303   5.309   5.595 -0.4803  0.9612 -0.5129
  184POPC   C3521176   0.145   5.267   5.454  0.6111  0.5215 -0.0091
  184POPC   H5X21177   0.035   5.260   5.465  0.6194  1.6212  1.0742
  184POPC   H5Y21178   0.181   5.164   5.434 -2.6602 -1.5561  3.4278
  184POPC   C3621179   0.200   5.364   5.350  0.5849 -0.2479 -0.4371
  184POPC   H6X21180   0.307   5.348   5.373  0.2403 -1.2545  0.5901
  184POPC   H6Y21181   0.177   5.469   5.375  1.0557  0.1464 -1.6087
  184POPC   C3721182   0.171   5.331   5.201 -0.1234  0.8240  0.4371
  184POPC   H7X21183   0.061   5.330   5.191 -0.1503  1.0502  0.6967
  184POPC   H7Y21184   0.225   5.236   5.177 -1.6045  0.4210 -1.5321
  184POPC   C3821185   0.234   5.432   5.107  0.5814 -1.1372  0.3079
  184POPC   H8X21186   0.345   5.435   5.110  0.5883  0.1144 -0.4481
  184POPC   H8Y21187   0.192   5.529   5.142  1.0068  0.1512 -2.4229
  184POPC   C3921188   0.184   5.410   4.963 -0.1151 -0.1154  0.3963
  184POPC   H9X21189   0.076   5.434   4.972 -0.1546 -0.3430  0.5451
  184POPC   H9Y21190   0.195   5.307   4.922 -0.3655 -0.6350  1.5755
  184POPC  C31021191   0.247   5.505   4.857 -1.4959 -0.7889 -0.0627
  184POPC  H10X21192   0.356   5.489   4.865 -1.5001 -0.4088  0.8951
  184POPC  H10Y21193   0.223   5.611   4.881 -2.0099 -1.0034  0.3970
  184POPC  C31121194   0.200   5.498   4.711 -0.0473  0.2271  0.0485
  184POPC  H11X21195   0.102   5.547   4.690 -0.5858 -1.2719 -1.0988
  184POPC  H11Y21196   0.190   5.398   4.665 -0.5804  0.5822 -0.6296
  184POPC  C31221197   0.295   5.577   4.605  0.0846  0.0216 -0.3371
  184POPC  H12X21198   0.234   5.589   4.513 -0.3682  0.4023  0.0065
  184POPC  H12Y21199   0.397   5.538   4.590  1.3488  3.0691 -0.3967
  184POPC  C31321200   0.332   5.727   4.648 -0.4500  0.5282 -0.6100
  184POPC  H13X21201   0.390   5.723   4.743  0.1411  0.1885 -0.9744
  184POPC  H13Y21202   0.234   5.772   4.672  0.1325  0.7710  1.5194
  184POPC  C31421203   0.400   5.806   4.530 -0.0938  0.1927 -0.1404
  184POPC  H14X21204   0.333   5.777   4.447 -2.0609 -0.7510  1.6837
  184POPC  H14Y21205   0.503   5.764   4.522  0.0201 -0.1448  2.3696
  184POPC  C31521206   0.413   5.956   4.552  0.2666  0.0941 -0.0693
  184POPC  H15X21207   0.497   5.981   4.621  1.2334  0.7264 -1.4161
  184POPC  H15Y21208   0.317   5.995   4.592 -0.2070 -1.4162  0.3337
  184POPC  C31621209   0.448   6.030   4.420 -0.3161  0.2151 -0.3439
  184POPC  H16X21210   0.416   6.136   4.415  1.3122  0.6800 -1.7920
  184POPC  H16Y21211   0.401   5.978   4.334  0.6426 -2.6095  0.7304
  184POPC  H16Z21212   0.558   6.030   4.411 -0.1996  2.1192  0.6399
  185POPC     N21213   0.375   6.151   1.604 -0.5816  0.3441  0.2916
  185POPC   C1221214   0.389   6.205   1.743 -0.5663 -0.0943 -0.2705
  185POPC  H12A21215   0.483   6.257   1.757  1.3739 -3.9136  2.7192
  185POPC  H12B21216   0.392   6.124   1.814  0.7731 -0.4614 -0.7267
  185POPC   C1321217   0.247   6.082   1.581 -0.3834  0.4558 -0.9259
  185POPC  H13A21218   0.229   6.045   1.481 -1.3782  2.4170 -1.5307
  185POPC  H13B21219   0.240   5.996   1.645 -0.5870 -1.6397 -3.5665
  185POPC  H13C21220   0.161   6.144   1.600 -3.0376 -3.4401  1.1695
  185POPC   C1421221   0.384   6.265   1.498 -0.1808 -0.0481 -0.5017
  185POPC  H14A21222   0.356   6.225   1.402 -2.2965 -0.3024  0.1608
  185POPC  H14B21223   0.327   6.353   1.522  0.0656  0.0931 -0.4317
  185POPC  H14C21224   0.485   6.302   1.507  0.0820 -1.2986  3.0263
  185POPC   C1521225   0.482   6.055   1.569  0.5618  0.1792  0.5187
  185POPC  H15A21226   0.469   6.004   1.474  0.3359 -0.5465  0.9309
  185POPC  H15B21227   0.482   5.971   1.636  0.1864 -0.8963 -0.7712
  185POPC  H15C21228   0.580   6.099   1.559  1.5077 -2.3055 -3.9022
  185POPC   C1121229   0.278   6.296   1.788  1.3000 -0.2746 -0.4639
  185POPC  H11A21230   0.254   6.361   1.701 -0.1315 -1.4844 -1.0210
  185POPC  H11B21231   0.312   6.370   1.864  3.5126 -1.6120 -0.0628
  185POPC     P21232   0.129   6.184   1.974 -0.2728  0.3779  0.0123
  185POPC   O1321233   0.042   6.068   1.964 -0.3510 -0.6883  0.1131
  185POPC   O1421234   0.087   6.304   2.056  0.0507  0.0598 -0.0432
  185POPC   O1221235   0.162   6.225   1.830 -0.0590  0.8456  0.6116
  185POPC   O1121236   0.267   6.143   2.033 -0.1612 -0.0586  0.2599
  185POPC    C121237   0.294   6.012   2.087 -0.2185 -0.2231  0.1033
  185POPC    HA21238   0.388   5.968   2.048 -0.0571  0.9277 -0.8607
  185POPC    HB21239   0.214   5.938   2.069 -1.5966  1.6705 -2.0621
  185POPC    C221240   0.303   6.022   2.243  0.3800  0.6606  0.4408
  185POPC    HS21241   0.202   6.050   2.279  0.3685 -2.3727  3.3865
  185POPC   O2121242   0.400   6.120   2.281 -0.6282  0.0807  0.1298
  185POPC   C2121243   0.370   6.199   2.383 -0.7475 -0.0478  0.4088
  185POPC   O2221244   0.271   6.200   2.452 -0.3747 -0.2202 -0.5313
  185POPC   C2221245   0.478   6.290   2.410  0.3425 -0.5900 -0.1957
  185POPC   H2R21246   0.426   6.388   2.419 -2.8133 -2.1431 -0.0606
  185POPC   H2S21247   0.549   6.282   2.325  1.2371 -3.2777  0.6852
  185POPC    C321248   0.345   5.886   2.312 -0.1763  0.3109 -0.1142
  185POPC    HX21249   0.449   5.854   2.289 -0.0187  0.5897  0.1988
  185POPC    HY21250   0.286   5.799   2.278 -0.0885 -1.0611  2.9516
  185POPC   O3121251   0.325   5.901   2.451  0.3710  0.3918  0.2713
  185POPC   C3121252   0.212   5.852   2.508  0.0103 -0.3798 -0.1538
  185POPC   O3221253   0.122   5.793   2.454  0.3971  0.0944 -0.8475
  185POPC   C3221254   0.213   5.899   2.653  0.7887  0.6058  0.0603
  185POPC   H2X21255   0.253   6.000   2.671  0.3659  0.4698  1.9091
  185POPC   H2Y21256   0.281   5.835   2.712  0.4119 -0.3668 -0.5330
  185POPC   C2321257   0.551   6.245   2.541  0.2319 -0.5508 -0.3440
  185POPC   H3R21258   0.481   6.211   2.620 -1.8225 -1.5594 -2.4989
  185POPC   H3S21259   0.609   6.334   2.575 -0.2814  0.8506 -2.9029
  185POPC   C2421260   0.647   6.124   2.512  0.2149 -0.6932  0.8012
  185POPC   H4R21261   0.734   6.147   2.446 -0.5705 -0.5889 -0.2367
  185POPC   H4S21262   0.588   6.041   2.468 -1.6755 -0.4601  2.7578
  185POPC   C2521263   0.700   6.060   2.634 -0.1355 -0.3475  0.1474
  185POPC   H5R21264   0.759   5.968   2.614  0.2947 -0.8794  3.3427
  185POPC   H5S21265   0.614   6.020   2.692 -0.6784  0.0734 -0.3441
  185POPC   C2621266   0.785   6.156   2.711 -0.4211 -0.4259 -0.1921
  185POPC   H6R21267   0.835   6.090   2.785 -2.7405 -0.9794  0.9818
  185POPC   H6S21268   0.733   6.239   2.764 -0.9877 -0.1834 -1.0938
  185POPC   C2721269   0.891   6.230   2.633 -0.4839  0.4959  0.4948
  185POPC   H7R21270   0.848   6.307   2.565 -1.3118 -1.5033 -1.3302
  185POPC   H7S21271   0.946   6.165   2.562 -0.0830 -0.3507  1.5473
  185POPC   C2821272   1.012   6.287   2.715  0.1720  0.4219  1.0137
  185POPC   H8R21273   1.094   6.330   2.653  0.7377 -0.1895  1.3179
  185POPC   H8S21274   1.053   6.195   2.762 -2.2108 -1.3064 -0.0853
  185POPC   C2921275   0.956   6.391   2.806 -0.1027  0.0589 -0.0045
  185POPC   H9121276   0.896   6.470   2.758 -0.5727  1.5149  2.7943
  185POPC  C21021277   0.961   6.390   2.938  0.4573 -0.0170 -0.1094
  185POPC  H10121278   0.910   6.477   2.982  3.6163  0.5044  2.9682
  185POPC  C21121279   1.034   6.291   3.034  0.5719  0.4309 -0.2000
  185POPC  H11R21280   1.099   6.225   2.971 -1.2219  0.1382 -1.8502
  185POPC  H11S21281   0.960   6.228   3.088 -0.1827  0.2904 -1.3529
  185POPC  C21221282   1.104   6.389   3.134  0.3840  0.1104  0.0364
  185POPC  H12R21283   1.035   6.469   3.168  2.9456  3.2189 -1.5179
  185POPC  H12S21284   1.191   6.438   3.085 -1.2378  2.2225 -0.9002
  185POPC  C21321285   1.154   6.321   3.256 -0.1435  0.7228  0.4306
  185POPC  H13R21286   1.198   6.227   3.216 -2.1054  1.0923 -2.9259
  185POPC  H13S21287   1.067   6.292   3.318  0.2715 -1.0224  0.2408
  185POPC  C21421288   1.261   6.398   3.335  0.6262  0.3894  0.2999
  185POPC  H14R21289   1.219   6.500   3.353 -0.2042  0.2075 -0.5477
  185POPC  H14S21290   1.356   6.406   3.277  1.3462 -1.5411  1.1204
  185POPC  C21521291   1.303   6.332   3.469 -0.1558 -0.5939 -0.2391
  185POPC  H15R21292   1.321   6.224   3.454  1.7300 -0.3642  0.1126
  185POPC  H15S21293   1.221   6.336   3.544  1.6870 -1.5777  1.9390
  185POPC  C21621294   1.441   6.391   3.521  0.0530  0.0653 -0.0999
  185POPC  H16R21295   1.432   6.501   3.528  2.1556  0.4257 -1.9967
  185POPC  H16S21296   1.516   6.376   3.440  2.2539  1.6451  1.5208
  185POPC  C21721297   1.491   6.341   3.650 -0.0550 -0.2939  0.0997
  185POPC  H17R21298   1.498   6.231   3.639 -1.1620 -0.3967  0.2738
  185POPC  H17S21299   1.423   6.357   3.736 -1.7338  0.8740 -1.3657
  185POPC  C21821300   1.628   6.398   3.669  0.0001  0.0356  0.3989
  185POPC  H18R21301   1.703   6.351   3.601 -1.6878  1.7023 -2.8872
  185POPC  H18S21302   1.661   6.378   3.773 -0.5210 -2.3310  0.1702
  185POPC  H18T21303   1.629   6.507   3.646 -1.5419 -0.2304 -1.1510
  185POPC   C3321304   0.077   5.866   2.718 -0.0469 -0.0656  0.5376
  185POPC   H3X21305   0.065   5.756   2.722  2.5637 -0.4539  0.0386
  185POPC   H3Y21306   0.002   5.905   2.646  1.1253  0.3001 -0.5420
  185POPC   C3421307   0.057   5.926   2.855  0.2225  0.7473 -0.1002
  185POPC   H4X21308  -0.052   5.929   2.876  0.1603 -0.6950 -0.1142
  185POPC   H4Y21309   0.095   6.030   2.862  1.1686  0.3928  0.2046
  185POPC   C3521310   0.113   5.856   2.982  0.0232 -0.3004  0.5908
  185POPC   H5X21311   0.222   5.839   2.973 -0.2061 -1.0244 -1.0728
  185POPC   H5Y21312   0.066   5.756   2.995 -1.8726  0.8089  3.5302
  185POPC   C3621313   0.052   5.931   3.104 -0.2956 -0.0670 -0.9646
  185POPC   H6X21314  -0.055   5.908   3.087  0.6275 -3.2570 -3.4614
  185POPC   H6Y21315   0.080   6.038   3.093 -0.3089 -0.0022 -0.4013
  185POPC   C3721316   0.120   5.887   3.235 -0.1539  0.0486  0.1527
  185POPC   H7X21317   0.231   5.882   3.229  0.0280  1.7018  1.6443
  185POPC   H7Y21318   0.091   5.780   3.245  2.3317 -0.5640  1.9375
  185POPC   C3821319   0.068   5.972   3.347 -0.1081  0.1804 -0.1382
  185POPC   H8X21320  -0.041   5.964   3.363 -0.3037 -0.9667 -1.7494
  185POPC   H8Y21321   0.091   6.076   3.313  2.2491 -0.6019 -1.1456
  185POPC   C3921322   0.139   5.949   3.482 -0.4861  0.4453 -0.0741
  185POPC   H9X21323   0.245   5.970   3.458 -1.1071  1.7662 -1.8951
  185POPC   H9Y21324   0.141   5.840   3.506 -1.6306  0.5644  0.6720
  185POPC  C31021325   0.090   6.039   3.590  0.0379  1.0908  0.3572
  185POPC  H10X21326   0.007   5.986   3.641  0.3834 -0.4085 -0.5851
  185POPC  H10Y21327   0.049   6.136   3.554 -0.3377  2.1143  3.2507
  185POPC  C31121328   0.192   6.065   3.702 -0.0524 -0.2577 -0.1574
  185POPC  H11X21329   0.279   6.123   3.662  1.8875 -2.9891 -0.1794
  185POPC  H11Y21330   0.219   5.962   3.734  0.3458  0.1673  0.9230
  185POPC  C31221331   0.134   6.139   3.826  1.1956 -0.1442  0.3517
  185POPC  H12X21332   0.044   6.082   3.857  0.7171  0.6285  0.4011
  185POPC  H12Y21333   0.099   6.234   3.781  0.5212 -1.2725 -1.6108
  185POPC  C31321334   0.225   6.141   3.949 -0.6120 -0.7652  0.2317
  185POPC  H13X21335   0.242   6.042   3.997 -0.1230 -0.3617  0.9139
  185POPC  H13Y21336   0.184   6.207   4.029  0.3469 -0.3577  0.4082
  185POPC  C31421337   0.369   6.197   3.929  0.0845  0.1393 -0.2533
  185POPC  H14X21338   0.358   6.304   3.899 -1.0718  0.3428  0.8273
  185POPC  H14Y21339   0.431   6.143   3.854  0.1729  0.0266 -0.0994
  185POPC  C31521340   0.446   6.160   4.050 -0.5689 -0.6012 -0.1100
  185POPC  H15X21341   0.485   6.056   4.062  1.0500 -0.3025 -2.1763
  185POPC  H15Y21342   0.374   6.174   4.133  0.4600 -0.6844  0.8215
  185POPC  C31621343   0.568   6.253   4.059 -0.9399  0.2047  0.4757
  185POPC  H16X21344   0.630   6.218   3.973 -0.9792  0.4033  0.3666
  185POPC  H16Y21345   0.630   6.245   4.151  4.6632 -0.9341 -2.8844
  185POPC  H16Z21346   0.539   6.359   4.049  1.8424  1.1592  1.6099
  186POPC     N21347   4.243   1.781   2.365 -0.3785 -0.3830 -0.1432
  186POPC   C1221348   4.373   1.824   2.433 -0.0467 -0.2534  0.2875
  186POPC  H12A21349   4.454   1.788   2.372  1.2763  1.4776  0.9424
  186POPC  H12B21350   4.379   1.774   2.529 -0.4520 -0.4980  0.1882
  186POPC   C1321351   4.249   1.808   2.214  0.5815  0.7963  0.0938
  186POPC  H13A21352   4.319   1.742   2.164  0.7335  0.5639  0.6078
  186POPC  H13B21353   4.157   1.779   2.166  1.2492 -0.7566 -0.2958
  186POPC  H13C21354   4.275   1.911   2.191  1.8321  0.9929  2.1461
  186POPC   C1421355   4.229   1.634   2.391 -0.1928 -0.2249 -0.1876
  186POPC  H14A21356   4.138   1.592   2.350  0.6960 -1.3530 -1.0660
  186POPC  H14B21357   4.316   1.592   2.343 -1.0193 -1.1751 -0.8796
  186POPC  H14C21358   4.243   1.615   2.497  0.2596  1.1463  0.0168
  186POPC   C1521359   4.119   1.854   2.415  0.7023  0.4593 -0.2475
  186POPC  H15A21360   4.128   1.961   2.398  1.4118  0.0952 -2.4651
  186POPC  H15B21361   4.101   1.843   2.521 -1.0278  2.7742 -0.2023
  186POPC  H15C21362   4.033   1.810   2.367  0.0516  2.7103 -1.3257
  186POPC   C1121363   4.390   1.970   2.468  0.6373 -0.0046  0.0263
  186POPC  H11A21364   4.478   1.994   2.532  0.6866 -1.6615  0.6293
  186POPC  H11B21365   4.304   2.012   2.526  0.0032  0.0410 -0.9282
  186POPC     P21366   4.335   2.174   2.300  0.0083  0.1083  0.1787
  186POPC   O1321367   4.188   2.171   2.316  0.2542  0.0970  0.1020
  186POPC   O1421368   4.394   2.210   2.172  0.5282  0.6385  0.1427
  186POPC   O1221369   4.405   2.040   2.345  0.0691 -0.1088  0.4624
  186POPC   O1121370   4.384   2.277   2.408  0.4843  0.0641  0.3925
  186POPC    C121371   4.516   2.281   2.466  0.4182 -0.1224  0.2071
  186POPC    HA21372   4.566   2.376   2.437 -0.7615 -0.1917 -2.3709
  186POPC    HB21373   4.583   2.203   2.425 -0.0682 -0.2207 -0.4107
  186POPC    C221374   4.515   2.285   2.622  0.5075 -0.3375  0.5044
  186POPC    HS21375   4.446   2.206   2.658 -0.7521 -0.5503 -2.1182
  186POPC   O2121376   4.482   2.421   2.668 -0.0434  0.3460  0.2931
  186POPC   C2121377   4.349   2.427   2.676 -0.1798  0.0287 -0.0800
  186POPC   O2221378   4.267   2.339   2.673 -0.5327 -0.3219 -0.1647
  186POPC   C2221379   4.308   2.575   2.691 -0.6160 -0.4328  0.3954
  186POPC   H2R21380   4.273   2.604   2.590  2.0961  1.9520  0.0123
  186POPC   H2S21381   4.395   2.641   2.715  0.3692 -0.8727 -1.6993
  186POPC    C321382   4.662   2.266   2.671  0.5583 -0.0065 -0.2140
  186POPC    HX21383   4.717   2.344   2.615 -3.0104  3.3451  0.5159
  186POPC    HY21384   4.693   2.164   2.638  2.2536  0.2248  0.5861
  186POPC   O3121385   4.671   2.269   2.816  0.0160 -0.0750 -0.1727
  186POPC   C3121386   4.702   2.391   2.872 -0.4162 -0.0608 -0.0899
  186POPC   O3221387   4.735   2.493   2.816 -0.1087  0.0138 -0.1425
  186POPC   C3221388   4.680   2.384   3.017  0.2209  0.6121  0.2701
  186POPC   H2X21389   4.762   2.315   3.047  0.2879 -0.2869 -1.7880
  186POPC   H2Y21390   4.582   2.334   3.038  1.0598 -1.7175 -0.9383
  186POPC   C2321391   4.205   2.605   2.805 -0.1596 -0.6568 -0.2001
  186POPC   H3R21392   4.110   2.547   2.805  0.0747 -1.0630  0.5655
  186POPC   H3S21393   4.181   2.713   2.802  0.5036 -0.3184  3.0084
  186POPC   C2421394   4.266   2.577   2.942 -0.5152 -0.1194 -0.2382
  186POPC   H4R21395   4.354   2.644   2.950 -0.3603 -0.5264  2.0768
  186POPC   H4S21396   4.312   2.479   2.966  0.0938  0.0226 -0.8031
  186POPC   C2521397   4.177   2.618   3.060 -0.7357  0.6400  0.1524
  186POPC   H5R21398   4.073   2.580   3.065  0.2103 -2.2453 -0.2773
  186POPC   H5S21399   4.154   2.725   3.041 -1.5014  0.7837  1.7159
  186POPC   C2621400   4.246   2.599   3.192  0.4286  0.8922 -0.5962
  186POPC   H6R21401   4.343   2.653   3.182  0.5290  0.6260 -1.1157
  186POPC   H6S21402   4.274   2.495   3.216 -1.6098  0.5555  0.5679
  186POPC   C2721403   4.183   2.674   3.314 -0.7283  0.3092  0.2514
  186POPC   H7R21404   4.096   2.618   3.355 -0.5893 -1.2144 -1.4072
  186POPC   H7S21405   4.145   2.773   3.281 -1.3963  0.2440  0.8170
  186POPC   C2821406   4.285   2.701   3.430  0.1759  0.9352 -0.0871
  186POPC   H8R21407   4.251   2.784   3.496 -3.5297  0.2108 -0.8760
  186POPC   H8S21408   4.384   2.717   3.381 -0.4709  0.6723 -1.5340
  186POPC   C2921409   4.285   2.575   3.514  0.4059  0.1406  0.4213
  186POPC   H9121410   4.325   2.486   3.463 -3.2600 -0.1680 -2.3640
  186POPC  C21021411   4.228   2.553   3.632  0.1756 -0.1746  0.4116
  186POPC  H10121412   4.240   2.455   3.680 -2.6229 -0.5129  0.6087
  186POPC  C21121413   4.181   2.656   3.730  0.4215  0.1856 -0.1186
  186POPC  H11R21414   4.071   2.668   3.719  0.3828  0.6141  0.6364
  186POPC  H11S21415   4.223   2.758   3.715 -2.8742  1.7195  0.0148
  186POPC  C21221416   4.199   2.610   3.871 -0.3404  0.1020 -1.3690
  186POPC  H12R21417   4.173   2.700   3.931  1.1366 -0.2496 -0.1345
  186POPC  H12S21418   4.303   2.582   3.898 -1.2464 -1.4182  0.8002
  186POPC  C21321419   4.108   2.503   3.927 -0.6156  0.2101 -0.2855
  186POPC  H13R21420   4.129   2.400   3.891  0.3620  0.1005  0.5810
  186POPC  H13S21421   4.002   2.530   3.903 -1.3452 -1.0423  1.3515
  186POPC  C21421422   4.103   2.500   4.080 -0.2090 -0.3815  0.3925
  186POPC  H14R21423   4.020   2.434   4.116  0.7033 -1.9780 -0.3024
  186POPC  H14S21424   4.075   2.602   4.113 -0.8647 -0.1259 -0.8704
  186POPC  C21521425   4.225   2.451   4.147 -0.6097  0.9820 -0.4535
  186POPC  H15R21426   4.317   2.488   4.097  1.0255 -1.9446  0.1269
  186POPC  H15S21427   4.231   2.343   4.124 -0.8383  0.5656  1.2875
  186POPC  C21621428   4.212   2.467   4.296  0.0558  0.1294 -0.2369
  186POPC  H16R21429   4.123   2.406   4.321  0.6904 -0.5044  0.5491
  186POPC  H16S21430   4.206   2.574   4.321  0.4412  1.0118 -3.3862
  186POPC  C21721431   4.318   2.394   4.385 -1.0500 -0.0026  0.7513
  186POPC  H17R21432   4.412   2.408   4.327 -0.1979 -1.1320  1.7862
  186POPC  H17S21433   4.301   2.285   4.366  0.7158 -0.0074 -1.1500
  186POPC  C21821434   4.334   2.428   4.524  0.2307  0.2727 -0.5466
  186POPC  H18R21435   4.379   2.527   4.545 -3.0226  1.8110 -0.2085
  186POPC  H18S21436   4.237   2.427   4.579 -0.2597 -4.6676 -1.0772
  186POPC  H18T21437   4.409   2.361   4.570 -0.7347 -0.1926  0.3993
  186POPC   C3321438   4.678   2.517   3.088 -0.5699 -0.5634 -0.6826
  186POPC   H3X21439   4.612   2.586   3.032 -0.0898  1.9338  1.6499
  186POPC   H3Y21440   4.782   2.554   3.083 -0.5117 -0.5530  0.4565
  186POPC   C3421441   4.634   2.507   3.238 -0.2722 -0.0393 -0.0927
  186POPC   H4X21442   4.529   2.473   3.239 -0.2667 -0.0907  1.5463
  186POPC   H4Y21443   4.652   2.614   3.264  3.3265 -0.0258 -1.9580
  186POPC   C3521444   4.720   2.429   3.336 -0.1458 -0.0015  0.3207
  186POPC   H5X21445   4.828   2.451   3.326 -0.4100  0.8661 -0.9749
  186POPC   H5Y21446   4.708   2.321   3.311 -1.0173  0.2404 -0.3687
  186POPC   C3621447   4.679   2.448   3.488 -0.5686  0.5200 -0.4334
  186POPC   H6X21448   4.713   2.355   3.537 -1.6747  0.1067 -0.4082
  186POPC   H6Y21449   4.568   2.457   3.499 -0.4467  2.6300 -0.5926
  186POPC   C3721450   4.739   2.561   3.563 -0.9905  0.1856  0.8196
  186POPC   H7X21451   4.703   2.661   3.532 -2.7189 -0.5278  0.3760
  186POPC   H7Y21452   4.845   2.545   3.535 -1.5922 -0.7374 -1.0778
  186POPC   C3821453   4.724   2.549   3.717  0.0888 -1.4099 -0.3017
  186POPC   H8X21454   4.746   2.445   3.750 -0.4150 -0.5794  2.9964
  186POPC   H8Y21455   4.617   2.558   3.742  0.0813 -1.0088 -0.4841
  186POPC   C3921456   4.821   2.638   3.792  0.4035  0.8945 -0.3600
  186POPC   H9X21457   4.789   2.744   3.800  1.2832  1.1117  0.6274
  186POPC   H9Y21458   4.920   2.643   3.741  0.3804  0.3008 -0.4786
  186POPC  C31021459   4.849   2.605   3.944  0.6020 -0.2946  0.1709
  186POPC  H10X21460   4.930   2.665   3.989 -1.1095  1.8535  0.5560
  186POPC  H10Y21461   4.886   2.500   3.950  3.1520  0.4801 -0.7547
  186POPC  C31121462   4.721   2.629   4.031  0.8279 -0.5755  0.4808
  186POPC  H11X21463   4.632   2.583   3.983  0.9468 -1.9150  1.5010
  186POPC  H11Y21464   4.714   2.740   4.036 -3.7336 -0.6023 -1.1039
  186POPC  C31221465   4.734   2.573   4.172  0.2995  0.7033 -0.2236
  186POPC  H12X21466   4.822   2.617   4.225 -1.7642  2.0380  2.3439
  186POPC  H12Y21467   4.745   2.463   4.159 -0.0053  0.4931  1.1444
  186POPC  C31321468   4.607   2.600   4.256  0.0676  0.5655  0.1528
  186POPC  H13X21469   4.608   2.538   4.348 -2.5551  2.1182  1.3361
  186POPC  H13Y21470   4.525   2.568   4.190 -1.0132  1.9676  0.7599
  186POPC  C31421471   4.591   2.745   4.297 -0.3964  1.2384 -0.1656
  186POPC  H14X21472   4.630   2.820   4.224 -1.0781  1.4407 -0.3400
  186POPC  H14Y21473   4.640   2.755   4.396 -0.6571  1.1589 -0.0272
  186POPC  C31521474   4.447   2.791   4.311 -0.1448 -0.3921 -0.4961
  186POPC  H15X21475   4.386   2.736   4.386  3.0976  0.1248  2.7897
  186POPC  H15Y21476   4.407   2.786   4.207  0.5215 -0.8554 -0.7356
  186POPC  C31621477   4.437   2.949   4.341 -0.7062 -0.3219  0.3277
  186POPC  H16X21478   4.487   2.980   4.436  0.0660  0.2403 -0.2544
  186POPC  H16Y21479   4.332   2.986   4.346 -0.2092  1.0672  1.2139
  186POPC  H16Z21480   4.488   3.017   4.270 -1.8814  1.1650  0.8229
  187POPC     N21481   6.486   0.485   2.025  0.1537 -0.5940 -0.2601
  187POPC   C1221482   6.560   0.485   2.157 -0.4417 -0.4147 -0.3088
  187POPC  H12A21483   6.494   0.493   2.242  0.0368  1.2237 -0.0470
  187POPC  H12B21484   6.618   0.576   2.165 -0.2451 -0.5215 -0.5114
  187POPC   C1321485   6.570   0.459   1.906 -0.2657 -0.6739 -0.4716
  187POPC  H13A21486   6.650   0.530   1.889  0.0190 -1.0173 -0.5828
  187POPC  H13B21487   6.628   0.370   1.927  1.4367  0.4888  0.0302
  187POPC  H13C21488   6.503   0.442   1.824 -2.6581  0.1435  1.1886
  187POPC   C1421489   6.387   0.371   2.034 -0.4812  0.0150 -0.6403
  187POPC  H14A21490   6.331   0.384   2.125  2.7167  0.3741  1.4614
  187POPC  H14B21491   6.316   0.383   1.954 -0.7412  1.7115 -0.1883
  187POPC  H14C21492   6.433   0.275   2.056 -0.1164  0.9956  3.8279
  187POPC   C1521493   6.408   0.613   2.009  0.0725 -0.3855 -0.5746
  187POPC  H15A21494   6.356   0.649   2.097  0.9221  1.4587 -0.7859
  187POPC  H15B21495   6.347   0.599   1.921  1.1195  0.0432 -1.3880
  187POPC  H15C21496   6.472   0.695   1.980  0.4794 -0.5969 -0.2870
  187POPC   C1121497   6.666   0.368   2.178 -0.4534 -0.3143 -0.1693
  187POPC  H11A21498   6.705   0.400   2.277  0.3608  2.5709 -1.3323
  187POPC  H11B21499   6.752   0.374   2.107  0.4733 -1.2213  0.8205
  187POPC     P21500   6.519   0.199   2.311 -0.1272 -0.0021  0.2375
  187POPC   O1321501   6.425   0.105   2.248  0.4085  0.5622  0.2793
  187POPC   O1421502   6.477   0.316   2.386 -0.0673  0.2908  0.0612
  187POPC   O1221503   6.596   0.243   2.181 -0.3685  0.6469 -0.1986
  187POPC   O1121504   6.633   0.122   2.383  0.1523  0.9548 -0.0627
  187POPC    C121505   6.693  -0.005   2.341  0.7263  0.3250  0.2839
  187POPC    HA21506   6.793  -0.011   2.390  1.3923  1.9064 -0.8030
  187POPC    HB21507   6.706  -0.011   2.231 -3.1552 -2.3364 -0.2491
  187POPC    C221508   6.624  -0.137   2.383  0.5233  0.0728  0.6366
  187POPC    HS21509   6.524  -0.131   2.335 -0.6887  0.5615  3.0888
  187POPC   O2121510   6.601  -0.141   2.527 -0.1225 -0.1868 -0.9445
  187POPC   C2121511   6.518  -0.233   2.562  0.5922 -0.0776  0.0587
  187POPC   O2221512   6.452  -0.308   2.487 -0.0229  0.5282 -0.0880
  187POPC   C2221513   6.515  -0.250   2.713  0.4663  0.0760  0.0433
  187POPC   H2R21514   6.451  -0.339   2.733  2.8050 -1.7712 -0.2278
  187POPC   H2S21515   6.463  -0.162   2.757  1.2186 -0.2928  1.7764
  187POPC    C321516   6.698  -0.263   2.323 -0.0890 -0.0986 -0.9513
  187POPC    HX21517   6.709  -0.242   2.214  0.9804  2.3281 -0.4607
  187POPC    HY21518   6.640  -0.355   2.340 -0.9224  0.4189 -0.9489
  187POPC   O3121519   6.836  -0.264   2.366 -0.3111 -0.0290  0.1053
  187POPC   C3121520   6.862  -0.337   2.477 -0.0297 -0.1210  0.3863
  187POPC   O3221521   6.799  -0.430   2.515  0.0412 -0.0161 -0.1347
  187POPC   C3221522   6.983  -0.273   2.552  0.3695  0.4019 -0.6045
  187POPC   H2X21523   6.945  -0.200   2.626  3.1437 -2.2787  3.9617
  187POPC   H2Y21524   7.060  -0.227   2.486  0.0700  2.5336  0.4573
  187POPC   C2321525   6.646  -0.253   2.792 -0.1906  0.2422  0.3580
  187POPC   H3R21526   6.691  -0.152   2.800  0.4766 -0.0737  0.7173
  187POPC   H3S21527   6.725  -0.321   2.753  2.8990  2.4182  2.3870
  187POPC   C2421528   6.624  -0.298   2.944 -0.2258  0.1217  0.2700
  187POPC   H4R21529   6.615  -0.408   2.951  1.3712 -0.1906 -1.5124
  187POPC   H4S21530   6.525  -0.257   2.973  0.6835  3.1234 -0.4757
  187POPC   C2521531   6.743  -0.261   3.038 -0.0183  0.2675  0.4394
  187POPC   H5R21532   6.726  -0.155   3.066  0.2089  0.1200  1.1528
  187POPC   H5S21533   6.839  -0.269   2.981 -0.7913  3.3826 -1.4999
  187POPC   C2621534   6.747  -0.324   3.176 -0.2990  0.3095  0.0124
  187POPC   H6R21535   6.648  -0.318   3.227  0.3453  0.6929  1.2597
  187POPC   H6S21536   6.814  -0.272   3.248 -1.8759  0.4850  1.4216
  187POPC   C2721537   6.774  -0.474   3.166  0.0021  0.0471 -0.3923
  187POPC   H7R21538   6.867  -0.512   3.120  1.3496 -1.0922  2.9502
  187POPC   H7S21539   6.693  -0.527   3.112  0.3294 -0.4766 -0.3798
  187POPC   C2821540   6.776  -0.537   3.309 -0.1873  0.1823  0.0410
  187POPC   H8R21541   6.797  -0.645   3.292 -1.0241  0.3149 -2.0593
  187POPC   H8S21542   6.668  -0.534   3.335 -0.3923  2.5403 -0.8934
  187POPC   C2921543   6.869  -0.480   3.412 -0.3971 -0.4655  0.5876
  187POPC   H9121544   6.978  -0.491   3.405 -0.1974  1.0253  0.8998
  187POPC  C21021545   6.827  -0.403   3.513 -0.2204 -0.1250 -0.6916
  187POPC  H10121546   6.895  -0.354   3.585 -2.0235  0.5689  0.6077
  187POPC  C21121547   6.682  -0.378   3.564  0.0321 -0.2741 -0.1634
  187POPC  H11R21548   6.615  -0.458   3.527  1.0713 -1.8651  1.2134
  187POPC  H11S21549   6.640  -0.280   3.535  0.6667 -0.0887 -0.4830
  187POPC  C21221550   6.668  -0.381   3.717  0.0781  0.0768  0.4389
  187POPC  H12R21551   6.561  -0.360   3.735 -0.3282 -0.8504 -0.7386
  187POPC  H12S21552   6.737  -0.310   3.768 -0.3789  0.6263  0.2912
  187POPC  C21321553   6.685  -0.523   3.779  0.0533 -0.1348 -0.4636
  187POPC  H13R21554   6.788  -0.562   3.761 -0.5627 -3.5980  2.4219
  187POPC  H13S21555   6.606  -0.579   3.725 -0.7691  1.5317 -1.0593
  187POPC  C21421556   6.647  -0.516   3.932 -0.5769  0.5020 -0.4778
  187POPC  H14R21557   6.542  -0.481   3.925 -0.9780 -0.5800 -0.0790
  187POPC  H14S21558   6.710  -0.443   3.986 -0.7445 -0.4775  1.1156
  187POPC  C21521559   6.653  -0.659   4.004 -0.1723 -0.5157  0.4191
  187POPC  H15R21560   6.756  -0.697   3.987 -0.2569 -1.1182  1.2152
  187POPC  H15S21561   6.583  -0.725   3.950  2.1976 -0.4759 -3.0142
  187POPC  C21621562   6.614  -0.661   4.154 -0.5181  0.2256  0.3398
  187POPC  H16R21563   6.592  -0.765   4.185 -2.0189  0.3525 -0.2070
  187POPC  H16S21564   6.522  -0.603   4.178 -0.6360 -1.1284  3.7374
  187POPC  C21721565   6.725  -0.610   4.248 -0.3359 -0.0853  0.6272
  187POPC  H17R21566   6.735  -0.500   4.248  1.3018 -0.2026  1.6751
  187POPC  H17S21567   6.820  -0.640   4.200  0.1065  1.9567  0.1433
  187POPC  C21821568   6.725  -0.664   4.388 -0.4622  0.3636  0.7960
  187POPC  H18R21569   6.652  -0.746   4.402 -0.0699 -0.0179  0.5936
  187POPC  H18S21570   6.694  -0.594   4.468 -1.4968  0.1521  0.5970
  187POPC  H18T21571   6.820  -0.713   4.415 -1.6017 -1.7501  1.1461
  187POPC   C3321572   7.068  -0.384   2.631 -0.1850  0.2208  0.7233
  187POPC   H3X21573   7.168  -0.339   2.652 -0.3618  1.4725 -0.9214
  187POPC   H3Y21574   7.090  -0.469   2.563  2.3968  2.6825 -1.7936
  187POPC   C3421575   7.018  -0.442   2.761  0.2883 -0.2135  0.7722
  187POPC   H4X21576   6.909  -0.452   2.748  0.5679 -0.4512 -1.9969
  187POPC   H4Y21577   7.040  -0.363   2.837  0.0353 -0.1442  0.7734
  187POPC   C3521578   7.093  -0.572   2.790 -0.3339  0.0187  0.0259
  187POPC   H5X21579   7.081  -0.646   2.708  1.8682  1.0394 -1.3241
  187POPC   H5Y21580   7.046  -0.623   2.877  1.8171 -1.5386  0.3580
  187POPC   C3621581   7.233  -0.547   2.834  0.7689 -0.0682 -0.1618
  187POPC   H6X21582   7.231  -0.462   2.906  2.5867  0.9014 -1.1846
  187POPC   H6Y21583   7.305  -0.514   2.756  1.0984 -0.6863 -0.1187
  187POPC   C3721584   7.288  -0.673   2.895  0.0457  0.1067 -0.1657
  187POPC   H7X21585   7.307  -0.747   2.815  1.5602 -0.5479  0.7548
  187POPC   H7Y21586   7.214  -0.717   2.965 -0.2734  1.9597  0.7405
  187POPC   C3821587   7.415  -0.644   2.974 -0.6590 -0.8890  0.3188
  187POPC   H8X21588   7.395  -0.556   3.040  0.9066  2.1052 -2.8590
  187POPC   H8Y21589   7.490  -0.608   2.901 -1.9404 -0.4505 -0.8079
  187POPC   C3921590   7.467  -0.760   3.067  0.4983 -0.6741 -0.4112
  187POPC   H9X21591   7.511  -0.836   2.999  0.9186  0.1327 -1.0519
  187POPC   H9Y21592   7.380  -0.800   3.124  1.1570 -1.4811  0.0640
  187POPC  C31021593   7.568  -0.703   3.170  0.2555 -0.9593 -0.2807
  187POPC  H10X21594   7.635  -0.626   3.125  0.0962 -0.1244  0.8718
  187POPC  H10Y21595   7.639  -0.784   3.198  0.3375 -0.9122 -0.3526
  187POPC  C31121596   7.511  -0.659   3.306  0.2609 -0.1818  0.5104
  187POPC  H11X21597   7.459  -0.744   3.356  0.5426 -2.2845 -2.5062
  187POPC  H11Y21598   7.444  -0.571   3.299  1.0680  0.3200 -1.4364
  187POPC  C31221599   7.625  -0.598   3.395  0.2422  0.5423  0.1616
  187POPC  H12X21600   7.580  -0.542   3.479  1.4537 -1.6831  2.4177
  187POPC  H12Y21601   7.692  -0.533   3.334 -1.2240  1.1814 -0.8328
  187POPC  C31321602   7.711  -0.702   3.466 -0.3464 -0.3625 -0.1052
  187POPC  H13X21603   7.796  -0.647   3.513 -1.3617  2.1081 -1.0215
  187POPC  H13Y21604   7.750  -0.778   3.395 -0.2203 -1.8150  1.4433
  187POPC  C31421605   7.638  -0.771   3.580  0.7153 -0.0696 -0.0895
  187POPC  H14X21606   7.540  -0.810   3.545  0.4959  1.2447 -1.0338
  187POPC  H14Y21607   7.617  -0.704   3.666 -4.5501 -0.2975 -0.8991
  187POPC  C31521608   7.718  -0.894   3.625 -0.3454 -0.7208  1.0079
  187POPC  H15X21609   7.824  -0.862   3.621 -0.6034  0.2215  1.4789
  187POPC  H15Y21610   7.715  -0.974   3.548  0.8781 -1.0329  1.2658
  187POPC  C31621611   7.688  -0.941   3.764 -0.9177  0.0440 -0.3614
  187POPC  H16X21612   7.580  -0.956   3.788 -0.3030 -1.3270  1.8626
  187POPC  H16Y21613   7.715  -0.854   3.828  1.1234 -2.0629  1.8706
  187POPC  H16Z21614   7.748  -1.026   3.803  0.0381  0.9427  0.1570
  188POPC     N21615   1.368   6.640   1.737 -0.0570  0.3257  0.2659
  188POPC   C1221616   1.324   6.699   1.871 -0.2074  0.0350  0.3324
  188POPC  H12A21617   1.320   6.619   1.943  1.4793  0.2817  0.7401
  188POPC  H12B21618   1.225   6.741   1.868 -0.3455 -0.0015  2.6494
  188POPC   C1321619   1.471   6.528   1.758  0.3514 -0.4316 -0.1847
  188POPC  H13A21620   1.534   6.559   1.841  0.5191  1.8903 -1.0814
  188POPC  H13B21621   1.430   6.432   1.785  2.1978 -1.2203 -0.0419
  188POPC  H13C21622   1.537   6.518   1.672 -2.3707 -1.5879 -2.2698
  188POPC   C1421623   1.251   6.563   1.682  0.2460  0.2403  0.6702
  188POPC  H14A21624   1.221   6.481   1.745  4.1506 -0.3499  1.9963
  188POPC  H14B21625   1.177   6.632   1.644  1.2013  0.6286 -0.5649
  188POPC  H14C21626   1.277   6.508   1.593  0.5756  0.1639  0.8139
  188POPC   C1521627   1.413   6.742   1.643 -0.3796 -0.2986  0.0000
  188POPC  H15A21628   1.504   6.785   1.682 -1.1304  0.7475  0.6462
  188POPC  H15B21629   1.341   6.820   1.625  1.8415  1.7394 -0.5733
  188POPC  H15C21630   1.426   6.692   1.548 -0.8114 -1.4736  0.5375
  188POPC   C1121631   1.419   6.802   1.938 -0.1998 -0.1538  0.2172
  188POPC  H11A21632   1.367   6.827   2.033  0.0951 -0.4040  0.4443
  188POPC  H11B21633   1.425   6.898   1.882 -0.2736 -1.2909 -1.8387
  188POPC     P21634   1.683   6.792   1.942  0.3499  0.4359  0.5686
  188POPC   O1321635   1.689   6.808   1.796  0.0227 -0.1391 -0.2866
  188POPC   O1421636   1.785   6.702   1.996 -0.3072  0.5693  0.1626
  188POPC   O1221637   1.541   6.747   1.983  0.0923 -0.0607 -0.2893
  188POPC   O1121638   1.702   6.938   2.005  0.0222 -0.3121 -0.3823
  188POPC    C121639   1.677   6.961   2.140  0.0214 -0.3283  0.7884
  188POPC    HA21640   1.773   6.946   2.194  1.2164  0.1208 -1.1240
  188POPC    HB21641   1.600   6.893   2.183  0.8546 -0.4644  2.1150
  188POPC    C221642   1.630   7.105   2.155 -0.6353  0.5463 -0.0380
  188POPC    HS21643   1.716   7.165   2.117  2.0979 -2.1822  1.3590
  188POPC   O2121644   1.607   7.131   2.294 -0.6402  0.2399 -0.2641
  188POPC   C2121645   1.724   7.139   2.371  0.5651  0.0001 -0.9399
  188POPC   O2221646   1.835   7.131   2.320 -0.4485  0.0165  0.1515
  188POPC   C2221647   1.695   7.170   2.516  0.3913  0.0820 -0.1811
  188POPC   H2R21648   1.667   7.277   2.513  0.4903  0.1766  1.5819
  188POPC   H2S21649   1.792   7.161   2.569  0.2973  0.3151  0.0319
  188POPC    C321650   1.501   7.136   2.068 -0.6040  0.2676  0.1170
  188POPC    HX21651   1.523   7.097   1.966 -0.2429  1.7498 -0.4103
  188POPC    HY21652   1.478   7.245   2.073  0.1170  0.3776  1.6984
  188POPC   O3121653   1.395   7.063   2.126  0.1133 -0.1469  0.0202
  188POPC   C3121654   1.275   7.111   2.125  1.3118 -0.6044  0.5684
  188POPC   O3221655   1.240   7.214   2.069 -0.0043 -0.3205  0.0623
  188POPC   C3221656   1.183   7.008   2.195  0.1067  0.9078  0.1845
  188POPC   H2X21657   1.240   6.922   2.234  1.4003  1.7466  0.2000
  188POPC   H2Y21658   1.107   6.966   2.126  0.4805 -1.0256  0.9042
  188POPC   C2321659   1.571   7.093   2.572 -0.0925 -0.1159 -0.4232
  188POPC   H3R21660   1.583   6.982   2.577 -0.3749 -0.1345 -0.0891
  188POPC   H3S21661   1.479   7.115   2.514 -1.6190  3.0753  2.7967
  188POPC   C2421662   1.549   7.144   2.716  0.3295 -0.7771  0.1187
  188POPC   H4R21663   1.544   7.255   2.722 -1.6589 -0.8836  1.2585
  188POPC   H4S21664   1.647   7.119   2.762  0.7324  0.2148 -0.1583
  188POPC   C2521665   1.429   7.090   2.793  0.4100  1.0002  0.2939
  188POPC   H5R21666   1.457   6.983   2.807 -1.6850  0.4440  0.5427
  188POPC   H5S21667   1.338   7.101   2.731  0.5419  2.0702  0.2660
  188POPC   C2621668   1.413   7.157   2.934  0.3712  0.6478 -0.7253
  188POPC   H6R21669   1.327   7.227   2.927 -0.5779 -0.4847 -0.5778
  188POPC   H6S21670   1.498   7.226   2.953 -0.6268  2.1457 -1.4684
  188POPC   C2721671   1.390   7.069   3.058 -0.3345  0.3433 -0.5078
  188POPC   H7R21672   1.452   6.977   3.050  0.0804  0.3061  2.2392
  188POPC   H7S21673   1.287   7.028   3.060  0.8762 -2.9942 -0.3524
  188POPC   C2821674   1.427   7.124   3.194 -0.2269  0.3788 -0.5449
  188POPC   H8R21675   1.535   7.147   3.191 -0.1668  0.0780 -0.7140
  188POPC   H8S21676   1.420   7.034   3.260  3.9923 -0.7567 -1.3298
  188POPC   C2921677   1.344   7.238   3.240  0.2008  0.5699  0.3616
  188POPC   H9121678   1.381   7.339   3.218 -1.0810  0.6458 -1.6056
  188POPC  C21021679   1.249   7.230   3.333  0.1484 -0.2838  0.7366
  188POPC  H10121680   1.185   7.317   3.352 -0.7629 -1.1957  1.9462
  188POPC  C21121681   1.196   7.108   3.387  0.5126  0.2370  0.0838
  188POPC  H11R21682   1.273   7.027   3.392 -0.7919 -1.1514 -1.1380
  188POPC  H11S21683   1.119   7.064   3.320  0.2724  0.5413  0.1569
  188POPC  C21221684   1.126   7.123   3.522 -0.2314  0.1577  0.5532
  188POPC  H12R21685   1.083   7.025   3.551  1.3740 -0.2910  1.5250
  188POPC  H12S21686   1.037   7.189   3.513 -0.7785 -0.6087  0.1472
  188POPC  C21321687   1.205   7.188   3.643  0.1706 -0.1249 -0.1036
  188POPC  H13R21688   1.235   7.290   3.610 -2.2241  0.2364 -1.3746
  188POPC  H13S21689   1.289   7.119   3.666  1.1179  0.1781 -2.3025
  188POPC  C21421690   1.120   7.209   3.766  0.3572  0.2916 -0.0025
  188POPC  H14R21691   1.013   7.238   3.753 -0.6260 -2.2997  1.3813
  188POPC  H14S21692   1.162   7.290   3.830 -1.2519  1.3652 -0.2455
  188POPC  C21521693   1.112   7.076   3.850  0.4023  0.1076  0.1527
  188POPC  H15R21694   1.213   7.053   3.891  0.5413  0.4849  0.0273
  188POPC  H15S21695   1.081   6.989   3.790 -0.7155  0.4490  0.2194
  188POPC  C21621696   0.996   7.082   3.952 -0.3942 -0.2868 -0.6479
  188POPC  H16R21697   0.909   7.074   3.883  0.2626  1.9138 -1.8290
  188POPC  H16S21698   1.008   7.177   4.008  1.7381 -0.6144 -0.4385
  188POPC  C21721699   0.994   6.969   4.051 -0.0714  0.4806  0.3937
  188POPC  H17R21700   0.961   6.875   4.003  0.2417  0.3465  0.4360
  188POPC  H17S21701   0.920   7.001   4.127  0.7675 -0.4839  1.6619
  188POPC  C21821702   1.124   6.923   4.118 -0.2214  0.1046  0.0341
  188POPC  H18R21703   1.207   6.885   4.055  0.3637 -1.7032  1.8187
  188POPC  H18S21704   1.098   6.842   4.189 -2.6328 -1.1938 -2.1350
  188POPC  H18T21705   1.153   7.008   4.183 -1.1574 -0.5555  1.3601
  188POPC   C3321706   1.100   7.080   2.303 -0.7201 -0.1097 -0.5368
  188POPC   H3X21707   1.039   7.009   2.364  2.3017 -2.3053  0.1447
  188POPC   H3Y21708   1.029   7.153   2.258 -1.4514 -0.2374  0.3791
  188POPC   C3421709   1.176   7.163   2.404 -0.3059 -0.6450  0.8514
  188POPC   H4X21710   1.226   7.240   2.342 -0.7170 -0.4733  0.7300
  188POPC   H4Y21711   1.262   7.106   2.446  0.0981 -1.4348 -0.9900
  188POPC   C3521712   1.085   7.210   2.523  0.1078 -0.0423 -0.1989
  188POPC   H5X21713   0.999   7.264   2.477  0.1267  0.4335  0.3103
  188POPC   H5Y21714   1.158   7.278   2.573  0.2007  1.8883 -2.7557
  188POPC   C3621715   1.031   7.118   2.630  0.8323 -0.4137 -0.0625
  188POPC   H6X21716   1.093   7.028   2.647  0.1185 -1.4652 -2.5698
  188POPC   H6Y21717   0.932   7.078   2.598 -0.2054  0.2118  2.1185
  188POPC   C3721718   0.994   7.197   2.756 -0.0501 -0.4982 -0.6301
  188POPC   H7X21719   0.919   7.273   2.725  2.8084  2.5410 -0.6765
  188POPC   H7Y21720   1.080   7.255   2.796 -0.6533  1.1252 -1.5930
  188POPC   C3821721   0.906   7.115   2.849 -0.1578 -0.2886 -0.4034
  188POPC   H8X21722   0.970   7.035   2.892  0.4453  1.0938  1.3856
  188POPC   H8Y21723   0.826   7.065   2.791 -2.4213  0.2985  2.0691
  188POPC   C3921724   0.852   7.184   2.965  0.4469 -0.0256 -0.3979
  188POPC   H9X21725   0.783   7.266   2.935  2.2256  1.5347 -0.4302
  188POPC   H9Y21726   0.936   7.224   3.026 -0.1372 -0.6222  0.8451
  188POPC  C31021727   0.776   7.089   3.065  0.2697  0.5696 -0.0442
  188POPC  H10X21728   0.858   7.028   3.108 -0.4085 -1.5875 -1.6336
  188POPC  H10Y21729   0.715   7.012   3.012  0.5940 -1.5303  2.4600
  188POPC  C31121730   0.710   7.164   3.183 -0.2202 -0.3985  0.6235
  188POPC  H11X21731   0.638   7.105   3.243  0.3284 -2.6614 -0.8377
  188POPC  H11Y21732   0.639   7.233   3.131  0.9622  0.4040  0.0316
  188POPC  C31221733   0.805   7.236   3.274 -0.2774 -0.1330 -0.4181
  188POPC  H12X21734   0.879   7.299   3.222 -0.2177  0.1028 -0.0496
  188POPC  H12Y21735   0.882   7.165   3.311 -0.7147 -1.3636 -1.7316
  188POPC  C31321736   0.726   7.313   3.389 -0.0123  0.3455  0.1889
  188POPC  H13X21737   0.617   7.310   3.367 -0.2283  1.4166  1.0214
  188POPC  H13Y21738   0.751   7.421   3.390  0.2329  0.2909  1.3003
  188POPC  C31421739   0.753   7.253   3.533  0.2749 -0.1886 -0.0423
  188POPC  H14X21740   0.860   7.260   3.561 -0.3022  2.3341  1.8154
  188POPC  H14Y21741   0.721   7.146   3.529  1.6859 -0.8385  2.8807
  188POPC  C31521742   0.677   7.327   3.644  0.5819 -0.7183 -0.4348
  188POPC  H15X21743   0.566   7.336   3.633  0.3074  1.6829  2.7092
  188POPC  H15Y21744   0.710   7.433   3.655 -0.6917 -0.4048  0.7638
  188POPC  C31621745   0.701   7.260   3.788 -0.2674  0.1462 -0.1893
  188POPC  H16X21746   0.809   7.263   3.813 -0.3463  0.3004  0.1402
  188POPC  H16Y21747   0.679   7.152   3.772  2.0299 -0.2559 -1.0034
  188POPC  H16Z21748   0.637   7.310   3.864  0.2897 -1.1204  1.1594
  189SAPI   C1221749   6.748   1.449   6.853  0.0440  0.5946  0.1183
  189SAPI    H221750   6.714   1.526   6.780  1.6503  0.4093 -0.8755
  189SAPI    O221751   6.891   1.455   6.874  0.2531  0.0495  0.1974
  189SAPI   HO221752   6.931   1.435   6.790 -2.0278  0.6570 -1.1248
  189SAPI   C1321753   6.670   1.463   6.985  0.1657 -0.1265 -0.4722
  189SAPI    H321754   6.564   1.440   6.960  0.4010  0.5920 -2.3244
  189SAPI    O321755   6.680   1.599   7.037 -0.1280  0.2450 -0.4421
  189SAPI   HO321756   6.603   1.646   7.004  0.5342  1.7271  0.0489
  189SAPI   C1421757   6.713   1.369   7.092  1.1488 -1.0544  0.0823
  189SAPI    H421758   6.811   1.408   7.126  0.3371 -0.0496  1.3462
  189SAPI    O421759   6.627   1.364   7.208 -0.5063 -0.3184 -0.5050
  189SAPI   HO421760   6.655   1.435   7.267 -0.6364  0.8406 -1.7787
  189SAPI   C1521761   6.740   1.222   7.043 -0.7959  0.2067 -0.2435
  189SAPI    H521762   6.641   1.177   7.066 -0.6301 -0.3056 -0.5098
  189SAPI    O521763   6.834   1.159   7.126 -0.2236 -0.5455 -0.1864
  189SAPI   HO521764   6.791   1.077   7.150  0.4539 -1.1779 -1.0209
  189SAPI   C1621765   6.761   1.199   6.894 -0.7543  0.2874  0.3275
  189SAPI    H621766   6.871   1.184   6.882 -0.7952  0.1366  0.1298
  189SAPI    O621767   6.705   1.072   6.857  0.1368  0.0155 -0.3612
  189SAPI   HO621768   6.752   1.041   6.779 -0.6913 -0.7334 -0.5890
  189SAPI   C1121769   6.718   1.313   6.791  0.1514  0.0029  0.2028
  189SAPI    H121770   6.608   1.317   6.774  0.1120 -1.1164  0.1156
  189SAPI     P21771   6.722   1.244   6.526 -0.1915 -0.3414  0.2406
  189SAPI   O1321772   6.585   1.189   6.553  0.0545 -0.4845  0.3272
  189SAPI   O1421773   6.822   1.155   6.458 -0.0549 -0.2337  0.0620
  189SAPI   O1221774   6.788   1.302   6.664 -0.1245  0.2028 -0.7116
  189SAPI   O1121775   6.695   1.379   6.441 -0.0211  0.3786 -0.6741
  189SAPI    C121776   6.789   1.479   6.427  0.0989  0.0586 -0.1435
  189SAPI    HA21777   6.794   1.546   6.515  0.2277 -1.9337  1.4407
  189SAPI    HB21778   6.887   1.432   6.405  1.7403  1.5610  3.2803
  189SAPI    C221779   6.767   1.566   6.301  0.4870  0.3307  0.4385
  189SAPI    HS21780   6.669   1.616   6.314 -0.8530 -2.1523  0.5651
  189SAPI   O2121781   6.766   1.481   6.177  0.1234  0.0758 -0.1311
  189SAPI   C2121782   6.687   1.538   6.083 -1.4756  0.7383  0.3160
  189SAPI   O2221783   6.581   1.599   6.104  0.3153  0.1025  0.1780
  189SAPI   C2221784   6.755   1.520   5.943 -0.4744 -0.1594 -0.2278
  189SAPI   H2R21785   6.863   1.544   5.944 -0.1015 -1.7097 -0.2715
  189SAPI   H2S21786   6.744   1.411   5.923  1.5154 -0.8048  1.8123
  189SAPI    C321787   6.879   1.674   6.292  0.3641 -0.7016 -0.3957
  189SAPI    HX21788   6.967   1.615   6.259 -0.9381 -2.1055 -1.4890
  189SAPI    HY21789   6.897   1.716   6.393  0.1164 -3.9274  1.0946
  189SAPI   O3121790   6.843   1.770   6.195  0.4529 -0.2084 -0.3853
  189SAPI   C3121791   6.746   1.860   6.223 -0.8139  0.3905 -0.7003
  189SAPI   O3221792   6.672   1.850   6.320 -0.5271 -0.1252  0.3528
  189SAPI   C3221793   6.727   1.959   6.112 -0.2486 -0.1323 -0.5640
  189SAPI   H2X21794   6.780   1.921   6.022  1.3735  0.9179 -0.0947
  189SAPI   H2Y21795   6.768   2.059   6.137  0.7876 -0.2890 -1.5262
  189SAPI   C2321796   6.685   1.604   5.834 -0.5279 -0.2953 -0.6854
  189SAPI   H3R21797   6.670   1.707   5.873 -1.5005 -1.3181  1.8365
  189SAPI   H3S21798   6.582   1.568   5.818 -0.8017  0.4461 -0.6446
  189SAPI   C2421799   6.761   1.604   5.698 -0.0626  0.6680 -0.3881
  189SAPI   H4R21800   6.791   1.497   5.685 -0.6289  0.2179  1.7018
  189SAPI   H4S21801   6.854   1.662   5.714  0.1691  0.2741 -0.2783
  189SAPI   C2521802   6.679   1.641   5.575  0.3596 -0.4705  0.2149
  189SAPI   H5R21803   6.658   1.749   5.571 -0.6851 -0.6656  0.3392
  189SAPI   C2621804   6.626   1.564   5.474  0.4696  0.6664 -0.1676
  189SAPI   H6R21805   6.589   1.607   5.380 -1.5208 -2.4102 -0.9203
  189SAPI   C2721806   6.623   1.414   5.454 -0.6654 -0.2368 -0.3155
  189SAPI   H7R21807   6.517   1.383   5.461 -1.1955  1.7723  1.4520
  189SAPI   H7S21808   6.680   1.371   5.539 -0.5035  0.4042 -0.0876
  189SAPI   C2821809   6.679   1.359   5.325 -0.0181  0.0622 -0.7412
  189SAPI   H8R21810   6.787   1.339   5.330  0.6179  3.3063  1.7874
  189SAPI   C2921811   6.610   1.350   5.204 -0.3305  0.6362  0.3825
  189SAPI   H9R21812   6.662   1.294   5.125 -2.0872 -1.6261  0.7447
  189SAPI  C21021813   6.470   1.390   5.179  0.2822 -0.1918 -0.3418
  189SAPI  H10R21814   6.462   1.492   5.223  1.0480 -0.4847  0.5130
  189SAPI  H10S21815   6.405   1.327   5.242  1.9286 -1.0838  0.5398
  189SAPI  C21121816   6.435   1.383   5.029  0.1041  0.5024 -0.2702
  189SAPI  H11R21817   6.378   1.294   4.999  0.9756 -0.1550 -0.0387
  189SAPI  C21221818   6.453   1.479   4.942 -0.9663 -0.5116  0.5074
  189SAPI  H12R21819   6.403   1.451   4.848 -2.6391 -1.5321  1.6474
  189SAPI  C21321820   6.515   1.615   4.954  0.9427  0.0316  0.0621
  189SAPI  H13R21821   6.505   1.652   5.058 -0.4212  1.2778 -0.4679
  189SAPI  H13S21822   6.444   1.685   4.905 -1.2759 -0.1973  2.7135
  189SAPI  C21421823   6.657   1.619   4.903  0.2166 -0.2900  0.2297
  189SAPI  H14R21824   6.730   1.581   4.976  0.5585 -0.8241 -0.3850
  189SAPI  C21521825   6.711   1.645   4.780 -0.7195 -0.8334  0.7400
  189SAPI  H15R21826   6.818   1.651   4.758 -0.9395  1.2302 -0.0330
  189SAPI  C21621827   6.634   1.681   4.651  0.2272  0.8380 -0.1568
  189SAPI  H16R21828   6.666   1.779   4.610 -0.5399  1.2665  0.2548
  189SAPI  H16S21829   6.527   1.691   4.680  0.9418  3.0186  1.9688
  189SAPI  C21721830   6.625   1.580   4.533 -0.3244 -0.2305  0.0565
  189SAPI  H17R21831   6.608   1.477   4.570 -3.5632 -0.6309 -2.1962
  189SAPI  H17S21832   6.727   1.580   4.487 -0.5988  0.0709 -0.5633
  189SAPI  C21821833   6.510   1.622   4.446  0.3161 -0.3053 -0.2513
  189SAPI  H18R21834   6.526   1.730   4.428  1.3328  0.2033  2.9580
  189SAPI  H18S21835   6.410   1.622   4.494  0.6392  5.5199  1.1220
  189SAPI  C21921836   6.485   1.547   4.306 -0.4460 -0.1925 -0.9191
  189SAPI  H19R21837   6.454   1.442   4.328 -2.0220  0.7900  2.2715
  189SAPI  H19S21838   6.585   1.556   4.260  0.5188  0.3536  1.1348
  189SAPI  C22021839   6.388   1.625   4.215 -0.4220  0.3607 -0.4425
  189SAPI  H20R21840   6.370   1.563   4.124 -1.8303 -1.4205  0.9698
  189SAPI  H20S21841   6.429   1.724   4.186 -1.1490  0.2948 -1.7912
  189SAPI  H20T21842   6.289   1.639   4.264 -0.2900 -0.2540  0.0142
  189SAPI   C3321843   6.577   1.957   6.084 -0.2598  0.0645 -0.4757
  189SAPI   H3X21844   6.521   1.987   6.175  0.2085 -1.8020  0.4943
  189SAPI   H3Y21845   6.532   1.860   6.055 -1.7202  0.5369  0.1261
  189SAPI   C3421846   6.530   2.066   5.983  0.8025  0.7707 -0.1002
  189SAPI   H4X21847   6.562   2.170   6.007  0.8857  0.2690  2.2239
  189SAPI   H4Y21848   6.419   2.058   5.981  0.9037 -0.6305 -1.3095
  189SAPI   C3521849   6.581   2.037   5.839 -0.4424  0.3084  0.0041
  189SAPI   H5X21850   6.547   1.934   5.815  2.6834 -0.9145  0.2898
  189SAPI   H5Y21851   6.692   2.040   5.836 -0.4531 -0.0730 -2.5441
  189SAPI   C3621852   6.522   2.141   5.742  0.4089 -0.4468  0.4755
  189SAPI   H6X21853   6.596   2.221   5.767  1.9606 -1.0027 -1.9846
  189SAPI   H6Y21854   6.424   2.180   5.776 -0.1424 -0.4123 -1.1038
  189SAPI   C3721855   6.515   2.091   5.598 -0.8010  0.3551 -0.0208
  189SAPI   H7X21856   6.613   2.041   5.582 -0.4039  0.3307  2.1377
  189SAPI   H7Y21857   6.496   2.179   5.534 -0.2198 -0.2777 -1.0906
  189SAPI   C3821858   6.402   1.991   5.570  0.5419 -0.0870  0.1017
  189SAPI   H8X21859   6.336   1.979   5.658  1.1467  0.3178  0.6215
  189SAPI   H8Y21860   6.440   1.889   5.547 -1.0051 -0.8595  0.8089
  189SAPI   C3921861   6.303   2.020   5.455 -0.9556  0.5063  0.4627
  189SAPI   H9X21862   6.271   2.126   5.456 -1.2867  0.5225 -2.5364
  189SAPI   H9Y21863   6.228   1.938   5.461 -0.4388 -0.1803 -1.5051
  189SAPI  C31021864   6.372   2.008   5.316 -0.6799  0.5164 -0.5503
  189SAPI  H10X21865   6.410   1.904   5.303 -1.4656  0.4730 -3.0663
  189SAPI  H10Y21866   6.460   2.075   5.314 -1.1744  1.1939 -0.0054
  189SAPI  C31121867   6.295   2.035   5.185 -0.2661  0.5217  1.0174
  189SAPI  H11X21868   6.240   2.131   5.189  1.1295  1.4383 -0.5249
  189SAPI  H11Y21869   6.215   1.961   5.166  1.7890 -1.9604  1.4268
  189SAPI  C31221870   6.392   2.033   5.065  0.0025 -0.3520 -0.0370
  189SAPI  H12X21871   6.433   1.930   5.064 -0.5001 -0.5886  1.7040
  189SAPI  H12Y21872   6.469   2.111   5.085 -0.8226  0.2542  0.8797
  189SAPI  C31321873   6.324   2.068   4.934  0.4371 -0.1392 -0.0341
  189SAPI  H13X21874   6.291   2.173   4.921 -1.8759 -0.9058 -0.8415
  189SAPI  H13Y21875   6.228   2.011   4.930  0.4149 -0.1580  0.6354
  189SAPI  C31421876   6.421   2.035   4.818  0.2176 -0.1699 -0.1865
  189SAPI  H14X21877   6.471   1.937   4.838  1.5279  0.9096  2.2389
  189SAPI  H14Y21878   6.509   2.101   4.835  0.7519 -0.8051 -0.4298
  189SAPI  C31521879   6.364   2.051   4.676 -0.7040 -0.1844 -0.7058
  189SAPI  H15X21880   6.442   2.044   4.596  0.9226 -3.0798  0.9758
  189SAPI  H15Y21881   6.327   2.155   4.665 -0.6428  0.0500  1.0078
  189SAPI  C31621882   6.261   1.949   4.653  0.9814  0.1856  0.0698
  189SAPI  H16X21883   6.170   1.968   4.712  1.2430 -3.7461  2.0640
  189SAPI  H16Y21884   6.308   1.856   4.692 -0.5103  0.0693  1.7011
  189SAPI  C31721885   6.216   1.931   4.507 -0.7629 -0.4530 -0.1951
  189SAPI  H17X21886   6.152   1.841   4.500  0.7805 -1.6373  0.3956
  189SAPI  H17Y21887   6.308   1.896   4.456  0.0617 -0.9629  1.5544
  189SAPI  C31821888   6.156   2.051   4.431  0.0505  0.2934  0.0486
  189SAPI  H18X21889   6.073   2.105   4.482 -3.2372 -1.1301 -3.2663
  189SAPI  H18Y21890   6.111   2.012   4.337 -0.7000 -0.7057  0.7904
  189SAPI  H18Z21891   6.235   2.123   4.405  0.7590  0.4205  2.3354
  190SAPI   C1221892   0.353   0.804   6.163 -0.8528 -0.3326 -0.2146
  190SAPI    H221893   0.367   0.769   6.058 -0.0649 -1.4531  0.2374
  190SAPI    O221894   0.322   0.939   6.159 -0.1562  0.5647  0.4335
  190SAPI   HO221895   0.399   0.985   6.193 -0.1454  0.1222  1.0224
  190SAPI   C1321896   0.245   0.720   6.227  0.2710 -0.5109  0.7932
  190SAPI    H321897   0.299   0.623   6.239  2.6882  0.7422  0.6571
  190SAPI    O321898   0.125   0.712   6.150  0.1689  0.4569 -0.5690
  190SAPI   HO321899   0.082   0.795   6.130  0.3325  0.3860 -1.2536
  190SAPI   C1421900   0.211   0.771   6.367  0.0068  0.0279  0.1807
  190SAPI    H421901   0.149   0.862   6.354 -0.6589 -0.2828  1.0903
  190SAPI    O421902   0.125   0.684   6.438  0.3588  0.3132  0.4272
  190SAPI   HO421903   0.033   0.710   6.426  0.8304  1.4086 -1.0324
  190SAPI   C1521904   0.334   0.808   6.451 -0.3186 -0.2765 -0.3343
  190SAPI    H521905   0.348   0.729   6.528 -0.5282  3.0580  3.4119
  190SAPI    O521906   0.305   0.919   6.531 -0.3204  0.0402 -0.2400
  190SAPI   HO521907   0.308   0.887   6.622 -2.0786 -0.3256 -0.2853
  190SAPI   C1621908   0.470   0.828   6.381 -0.2444  0.5082 -0.8921
  190SAPI    H621909   0.478   0.938   6.366 -0.2009  0.5788 -0.3420
  190SAPI    O621910   0.580   0.781   6.461  0.1112  0.2323 -0.1366
  190SAPI   HO621911   0.638   0.725   6.408  0.1796 -2.3366  2.3737
  190SAPI   C1121912   0.480   0.780   6.242 -0.0861  0.4036 -0.5603
  190SAPI    H121913   0.502   0.672   6.254  1.7718  0.7905 -0.1864
  190SAPI     P21914   0.664   0.793   6.024 -0.0421 -0.0009  0.0930
  190SAPI   O1321915   0.645   0.651   6.003  0.7726  0.1856  0.3718
  190SAPI   O1421916   0.805   0.842   6.025  0.4110  0.4164  0.1628
  190SAPI   O1221917   0.599   0.838   6.171 -0.3078  0.1450  0.0290
  190SAPI   O1121918   0.568   0.874   5.929  0.0322 -0.0918 -0.2554
  190SAPI    C121919   0.545   1.013   5.947  0.0856 -0.1772  0.0588
  190SAPI    HA21920   0.440   1.038   5.919  0.3179  0.0594 -0.6286
  190SAPI    HB21921   0.568   1.048   6.049  2.4792 -4.7704  1.3859
  190SAPI    C221922   0.625   1.086   5.828 -0.2627 -0.3115  0.0475
  190SAPI    HS21923   0.736   1.076   5.836 -0.0589 -1.2044 -3.0098
  190SAPI   O2121924   0.591   1.220   5.807  0.2189  0.5056  0.1880
  190SAPI   C2121925   0.638   1.297   5.898 -0.0271 -0.0815  0.1567
  190SAPI   O2221926   0.693   1.263   6.000 -0.1659  0.5023  0.2398
  190SAPI   C2221927   0.594   1.439   5.862  0.8533 -0.6023  0.0790
  190SAPI   H2R21928   0.513   1.444   5.787 -1.0217  0.0669  2.0349
  190SAPI   H2S21929   0.549   1.482   5.954  0.5420 -0.6653 -0.0429
  190SAPI    C321930   0.615   1.012   5.686  0.1906 -0.6615  0.6866
  190SAPI    HX21931   0.506   1.003   5.672  0.0715 -1.2143  1.8413
  190SAPI    HY21932   0.649   0.907   5.695  0.8272 -0.6380 -1.0959
  190SAPI   O3121933   0.691   1.083   5.580  0.7002 -0.8104 -0.8443
  190SAPI   C3121934   0.814   1.035   5.556 -0.3079 -0.4827 -0.1581
  190SAPI   O3221935   0.877   0.964   5.632 -0.2925  0.4155 -0.5753
  190SAPI   C3221936   0.860   1.096   5.417  0.0658 -0.3419 -0.8979
  190SAPI   H2X21937   0.966   1.068   5.397  0.1701 -0.7982  0.2320
  190SAPI   H2Y21938   0.845   1.206   5.421  0.6902 -0.2709  3.3589
  190SAPI   C2321939   0.714   1.523   5.815  0.2843  0.0535  0.6433
  190SAPI   H3R21940   0.795   1.520   5.892 -0.7463 -0.8895  1.7184
  190SAPI   H3S21941   0.672   1.625   5.803  2.4376  1.1174  1.5238
  190SAPI   C2421942   0.790   1.476   5.686  0.1868  1.1122  0.0973
  190SAPI   H4R21943   0.852   1.389   5.714 -0.7319 -0.5872 -2.7465
  190SAPI   H4S21944   0.872   1.543   5.652  0.5699  0.8160  0.4359
  190SAPI   C2521945   0.697   1.457   5.563  0.2806  0.7446 -0.1309
  190SAPI   H5R21946   0.642   1.361   5.562  1.9341 -0.2558 -0.9045
  190SAPI   C2621947   0.700   1.532   5.446  0.8350 -0.1641 -0.2189
  190SAPI   H6R21948   0.631   1.509   5.364  1.0240  0.3135 -0.5224
  190SAPI   C2721949   0.793   1.652   5.415  0.2791  0.8590  0.3985
  190SAPI   H7R21950   0.876   1.612   5.352 -0.6451 -2.3260  1.0224
  190SAPI   H7S21951   0.842   1.682   5.510  0.5518  1.4620  0.0750
  190SAPI   C2821952   0.729   1.768   5.360  0.6481 -1.2778  0.7336
  190SAPI   H8R21953   0.624   1.775   5.392 -0.1902 -0.5025 -1.8947
  190SAPI   C2921954   0.771   1.852   5.265  0.3051  0.4711  0.2688
  190SAPI   H9R21955   0.706   1.939   5.244  0.3854  0.0565 -1.9546
  190SAPI  C21021956   0.909   1.845   5.205 -0.3422 -0.0639  0.4231
  190SAPI  H10R21957   0.925   1.747   5.157 -2.8637  0.1960 -1.1619
  190SAPI  H10S21958   0.990   1.842   5.281  1.6193 -1.4932 -1.6257
  190SAPI  C21121959   0.928   1.965   5.118 -0.3054  0.7826  0.1804
  190SAPI  H11R21960   0.949   2.057   5.175 -0.6668 -0.0503  1.7311
  190SAPI  C21221961   0.920   1.958   4.985 -0.3006  0.3552 -0.8630
  190SAPI  H12R21962   0.933   2.052   4.929  2.3794 -0.1024 -1.1620
  190SAPI  C21321963   0.909   1.838   4.902 -0.1189  0.5478 -0.0217
  190SAPI  H13R21964   0.882   1.862   4.797  0.4592  2.3765  0.2088
  190SAPI  H13S21965   0.825   1.773   4.936  0.1840  0.0757 -0.1768
  190SAPI  C21421966   1.049   1.779   4.892 -0.3858 -0.1034  0.0738
  190SAPI  H14R21967   1.109   1.769   4.985  1.1589  0.4652 -0.8177
  190SAPI  C21521968   1.098   1.720   4.777  0.0028 -0.2663 -0.5521
  190SAPI  H15R21969   1.200   1.684   4.796  0.1673 -1.1117 -2.7489
  190SAPI  C21621970   1.042   1.704   4.642 -0.3953  0.3467  0.5804
  190SAPI  H16R21971   0.933   1.686   4.656 -1.3457  1.7234 -3.6614
  190SAPI  H16S21972   1.079   1.609   4.598 -0.9936  0.1489  0.4979
  190SAPI  C21721973   1.059   1.804   4.529  0.7486  0.6181 -0.8216
  190SAPI  H17R21974   1.012   1.895   4.572 -0.6517 -0.3325 -0.2550
  190SAPI  H17S21975   1.017   1.762   4.435  1.0596  0.0141 -0.7006
  190SAPI  C21821976   1.210   1.836   4.498 -0.5527 -0.2884 -0.3664
  190SAPI  H18R21977   1.244   1.736   4.463  1.4965 -0.5110  1.9855
  190SAPI  H18S21978   1.270   1.867   4.586 -2.0821 -1.4819  1.1619
  190SAPI  C21921979   1.228   1.938   4.389  0.1274 -1.0184 -0.0382
  190SAPI  H19R21980   1.190   1.898   4.292  1.7110 -0.9724 -0.7061
  190SAPI  H19S21981   1.336   1.953   4.369 -0.1226  1.2896  0.1067
  190SAPI  C22021982   1.170   2.075   4.418 -0.2140 -0.2097 -0.5490
  190SAPI  H20R21983   1.228   2.124   4.499 -0.0263  1.4035 -1.6093
  190SAPI  H20S21984   1.063   2.064   4.445 -0.1959 -2.7186 -1.3078
  190SAPI  H20T21985   1.174   2.144   4.330  0.4176  0.0843 -0.2965
  190SAPI   C3321986   0.783   1.029   5.295  0.0491 -0.5449 -0.5556
  190SAPI   H3X21987   0.816   1.093   5.209  1.1230 -2.2567 -1.4702
  190SAPI   H3Y21988   0.673   1.035   5.308  0.1666 -0.2755  0.3570
  190SAPI   C3421989   0.822   0.885   5.267 -0.5221  0.1147 -0.3680
  190SAPI   H4X21990   0.787   0.834   5.359  1.2578  0.7403  0.7081
  190SAPI   H4Y21991   0.933   0.877   5.268 -0.2366  2.2214  2.9622
  190SAPI   C3521992   0.761   0.839   5.133  0.1226  0.2353 -0.0787
  190SAPI   H5X21993   0.652   0.844   5.155 -0.1132  0.4885 -1.2172
  190SAPI   H5Y21994   0.786   0.733   5.111  0.5297 -0.2754  2.4915
  190SAPI   C3621995   0.791   0.918   5.007  0.5658  0.2297  0.1570
  190SAPI   H6X21996   0.896   0.891   4.981 -0.3239 -2.6481 -0.8767
  190SAPI   H6Y21997   0.773   1.027   5.013 -0.7764 -0.0585  2.5172
  190SAPI   C3721998   0.699   0.864   4.890  0.2713 -0.4212  0.0387
  190SAPI   H7X21999   0.594   0.895   4.909  0.7042  0.4117  1.1890
  190SAPI   H7Y22000   0.692   0.754   4.885 -2.5477 -0.3480  0.7111
  190SAPI   C3822001   0.756   0.900   4.746  0.0250 -1.0169  0.3240
  190SAPI   H8X22002   0.865   0.880   4.742  0.3277  0.1335  1.7256
  190SAPI   H8Y22003   0.742   1.008   4.726  0.2645 -0.3799  3.0945
  190SAPI   C3922004   0.697   0.818   4.629  0.8798 -0.9891 -0.0205
  190SAPI   H9X22005   0.731   0.714   4.643 -0.3281 -1.7474 -2.2204
  190SAPI   H9Y22006   0.738   0.857   4.533 -1.6081  0.0729 -0.7400
  190SAPI  C31022007   0.543   0.817   4.622 -0.2008  0.2352 -0.8174
  190SAPI  H10X22008   0.500   0.786   4.720  0.7113  0.8192 -0.2222
  190SAPI  H10Y22009   0.501   0.746   4.548  1.1630 -0.8343 -0.6087
  190SAPI  C31122010   0.485   0.956   4.586  0.2397 -0.1776  0.5521
  190SAPI  H11X22011   0.498   1.040   4.657 -0.5331  1.3319 -1.0223
  190SAPI  H11Y22012   0.377   0.931   4.590  0.1295  0.3167  0.7793
  190SAPI  C31222013   0.518   1.007   4.443  0.2602 -0.4094  0.0924
  190SAPI  H12X22014   0.507   0.930   4.364  0.7972 -0.4803  0.0830
  190SAPI  H12Y22015   0.626   1.036   4.449  0.2155 -0.4029  1.1342
  190SAPI  C31322016   0.421   1.118   4.393 -0.0142  0.1426 -1.0504
  190SAPI  H13X22017   0.322   1.071   4.378  0.5078 -0.6090 -2.3486
  190SAPI  H13Y22018   0.447   1.162   4.294 -0.9261  2.3886 -0.3552
  190SAPI  C31422019   0.401   1.236   4.484  0.1760  0.0739  0.4280
  190SAPI  H14X22020   0.495   1.295   4.480  0.7824 -0.9116 -0.3186
  190SAPI  H14Y22021   0.377   1.187   4.580 -2.2669  1.8095  0.8069
  190SAPI  C31522022   0.285   1.336   4.444  0.4039  0.0684  0.1345
  190SAPI  H15X22023   0.275   1.418   4.518 -2.1371 -0.9253  1.0257
  190SAPI  H15Y22024   0.187   1.285   4.458 -0.6999  1.4821 -1.9859
  190SAPI  C31622025   0.289   1.398   4.306 -0.4568 -0.1781  0.0013
  190SAPI  H16X22026   0.289   1.317   4.231  0.7309  1.7882 -2.2771
  190SAPI  H16Y22027   0.383   1.457   4.296 -0.9048  0.3519 -1.2359
  190SAPI  C31722028   0.175   1.497   4.258  0.8205 -0.0827  0.8649
  190SAPI  H17X22029   0.189   1.541   4.157 -1.0443 -0.3036  0.4730
  190SAPI  H17Y22030   0.184   1.579   4.333  1.2121  1.0010 -0.3328
  190SAPI  C31822031   0.033   1.440   4.254  0.3566  0.0300  0.3792
  190SAPI  H18X22032  -0.051   1.512   4.248 -1.6080 -2.2701 -2.2344
  190SAPI  H18Y22033   0.023   1.362   4.333  0.3456 -1.1012 -0.7052
  190SAPI  H18Z22034   0.023   1.379   4.162  1.0072 -0.3033  0.5168
  191SAPI   C1222035   5.844   4.489   2.137  0.2118 -0.7880 -0.3348
  191SAPI    H222036   5.798   4.402   2.188  0.9115 -1.5278 -0.9312
  191SAPI    O222037   5.771   4.505   2.016  0.3580  0.8061 -0.0033
  191SAPI   HO222038   5.768   4.415   1.981 -2.6738 -0.5649  3.0863
  191SAPI   C1322039   5.843   4.619   2.214 -0.3162  0.6541  0.0339
  191SAPI    H322040   5.920   4.615   2.294 -1.5921 -1.3874  1.2577
  191SAPI    O322041   5.721   4.638   2.286 -0.8610 -0.0469 -0.1791
  191SAPI   HO322042   5.649   4.591   2.243 -1.2049 -1.5273  1.8543
  191SAPI   C1422043   5.865   4.736   2.119  0.0212 -0.0238  0.1382
  191SAPI    H422044   5.776   4.746   2.054 -2.8221 -2.1545  3.3395
  191SAPI    O422045   5.864   4.858   2.187 -0.2373  0.0106  0.1928
  191SAPI   HO422046   5.778   4.883   2.221  0.0636 -1.0709  1.8635
  191SAPI   C1522047   5.982   4.719   2.025 -0.0395 -0.0798  0.7125
  191SAPI    H522048   6.066   4.781   2.062 -0.0022  0.7694 -0.7118
  191SAPI    O522049   5.971   4.779   1.895 -0.0028  0.0519  0.1779
  191SAPI   HO522050   5.989   4.873   1.906 -0.7823  0.0991  1.1992
  191SAPI   C1622051   6.051   4.577   2.010  0.6868 -0.4758  0.0260
  191SAPI    H622052   6.025   4.539   1.909  1.1905 -0.5318 -0.0843
  191SAPI    O622053   6.192   4.582   2.002  0.2619 -0.1993  0.5408
  191SAPI   HO622054   6.218   4.491   1.984  0.3011 -0.1779  0.4866
  191SAPI   C1122055   5.992   4.461   2.100 -0.2115 -0.6084 -0.2290
  191SAPI    H122056   6.043   4.466   2.199 -1.4240 -2.5058  0.5474
  191SAPI     P22057   6.141   4.251   2.020  0.3086 -0.0748  0.5942
  191SAPI   O1322058   6.237   4.335   1.949  0.1023  0.1714  0.3356
  191SAPI   O1422059   6.100   4.128   1.944  0.2311 -0.6387 -0.4034
  191SAPI   O1222060   6.004   4.331   2.045 -0.2076 -0.2385 -0.8183
  191SAPI   O1122061   6.197   4.215   2.165  1.1326 -0.0105  0.5752
  191SAPI    C122062   6.161   4.082   2.209 -0.1066  0.3280  0.0290
  191SAPI    HA22063   6.172   3.999   2.135  3.3488 -0.8873  1.6921
  191SAPI    HB22064   6.232   4.048   2.288 -1.9050 -1.8725  0.8061
  191SAPI    C222065   6.023   4.079   2.271  0.1024 -0.3096  0.0638
  191SAPI    HS22066   5.938   4.089   2.201 -1.5042  0.8516  2.0763
  191SAPI   O2122067   6.017   4.187   2.370 -0.1939  0.1751 -0.3731
  191SAPI   C2122068   5.894   4.222   2.413 -0.3145 -0.4944  0.0789
  191SAPI   O2222069   5.792   4.184   2.374  0.1541  0.0080 -0.1034
  191SAPI   C2222070   5.910   4.341   2.506 -0.1599  0.2762 -0.5986
  191SAPI   H2R22071   5.856   4.427   2.461  0.2459  0.6759 -0.3325
  191SAPI   H2S22072   5.848   4.312   2.593  1.0586 -0.9460 -0.0873
  191SAPI    C322073   5.999   3.936   2.338  0.0708 -0.0408  0.3122
  191SAPI    HX22074   6.011   3.861   2.257 -1.1353  2.5966 -2.5105
  191SAPI    HY22075   5.893   3.931   2.372 -0.0516 -1.1525 -0.1783
  191SAPI   O3122076   6.097   3.905   2.436 -0.1322 -0.6714 -0.0761
  191SAPI   C3122077   6.055   3.921   2.567 -0.0912  0.4478 -0.1153
  191SAPI   O3222078   5.940   3.939   2.603 -0.4065 -0.2516 -0.0399
  191SAPI   C3222079   6.174   3.933   2.666 -0.4371  0.1580  0.1704
  191SAPI   H2X22080   6.161   4.028   2.722 -0.3931  0.6548 -0.6424
  191SAPI   H2Y22081   6.261   3.933   2.597 -1.8088  0.8170 -1.6380
  191SAPI   C2322082   6.050   4.394   2.534 -0.1297 -0.2669 -0.2235
  191SAPI   H3R22083   6.046   4.502   2.561 -0.2121 -0.9888  3.1699
  191SAPI   H3S22084   6.120   4.384   2.448 -0.6922 -1.0832 -0.5961
  191SAPI   C2422085   6.124   4.315   2.642 -0.5150 -0.6264  0.0305
  191SAPI   H4R22086   6.223   4.360   2.663 -1.8033  2.9042 -0.7203
  191SAPI   H4S22087   6.157   4.221   2.594 -1.2841 -1.2591  0.7153
  191SAPI   C2522088   6.047   4.278   2.761 -0.1866  0.2659 -0.6099
  191SAPI   H5R22089   5.962   4.209   2.748 -1.0609  1.2463 -0.2080
  191SAPI   C2622090   6.059   4.344   2.875 -0.2018 -0.1005 -0.0923
  191SAPI   H6R22091   5.994   4.330   2.962 -0.5088  0.4908 -0.2267
  191SAPI   C2722092   6.157   4.449   2.907 -0.3260  0.2056 -0.0132
  191SAPI   H7R22093   6.221   4.487   2.825 -0.1722 -0.6333 -0.2964
  191SAPI   H7S22094   6.224   4.382   2.965 -3.5440 -3.6038 -0.2633
  191SAPI   C2822095   6.112   4.568   2.993 -0.2929  0.2901 -0.6413
  191SAPI   H8R22096   6.063   4.649   2.937 -0.6767  2.6462  2.7990
  191SAPI   C2922097   6.124   4.583   3.122 -0.2237  0.3744 -0.5779
  191SAPI   H9R22098   6.087   4.675   3.170  1.3813  0.1460  1.2641
  191SAPI  C21022099   6.183   4.484   3.215  0.0417  0.6384  0.2538
  191SAPI  H10R22100   6.262   4.528   3.279  1.0845  2.8328 -2.3626
  191SAPI  H10S22101   6.231   4.394   3.171 -1.8003 -1.0664  1.5715
  191SAPI  C21122102   6.070   4.428   3.302 -0.1536  0.9264  0.1045
  191SAPI  H11R22103   6.023   4.339   3.259  0.9637  0.7797 -0.8700
  191SAPI  C21222104   6.041   4.473   3.423 -0.0319 -0.1422  0.4214
  191SAPI  H12R22105   5.976   4.411   3.487  0.6887  0.0362  1.3449
  191SAPI  C21322106   6.077   4.606   3.482  0.9474 -0.4743 -0.6923
  191SAPI  H13R22107   6.000   4.650   3.549  1.6666  0.1498 -0.2621
  191SAPI  H13S22108   6.078   4.679   3.398  0.8128  0.1674 -0.1456
  191SAPI  C21422109   6.208   4.612   3.557  0.1983  0.4584  0.1710
  191SAPI  H14R22110   6.301   4.624   3.500 -0.1084 -2.0816 -0.9966
  191SAPI  C21522111   6.231   4.617   3.692  0.2718 -0.9342  0.5415
  191SAPI  H15R22112   6.333   4.634   3.728  1.2995 -0.6311 -2.2778
  191SAPI  C21622113   6.132   4.611   3.796  0.3878  0.2326 -0.4050
  191SAPI  H16R22114   6.153   4.533   3.873  0.6288  1.9696  1.3777
  191SAPI  H16S22115   6.028   4.589   3.763 -0.2852  0.3620  1.4787
  191SAPI  C21722116   6.121   4.737   3.888 -0.3962  0.7485 -0.0839
  191SAPI  H17R22117   6.212   4.752   3.949 -0.8806 -1.8839  1.4265
  191SAPI  H17S22118   6.051   4.719   3.972  1.5007  0.8055  1.5722
  191SAPI  C21822119   6.086   4.870   3.817 -0.2431  0.2076 -0.0555
  191SAPI  H18R22120   5.993   4.859   3.758  0.3226 -2.7838 -0.5657
  191SAPI  H18S22121   6.167   4.891   3.744  0.4313 -1.1432  0.2616
  191SAPI  C21922122   6.085   4.983   3.916 -0.1671  0.0533  0.1845
  191SAPI  H19R22123   6.175   4.983   3.981 -0.1918  1.2937  0.2349
  191SAPI  H19S22124   5.999   4.956   3.980 -0.7908  2.0930  0.2664
  191SAPI  C22022125   6.067   5.130   3.859 -0.0523 -0.0873  0.1845
  191SAPI  H20R22126   6.043   5.199   3.942  0.8469 -0.6958  0.9665
  191SAPI  H20S22127   5.977   5.125   3.793 -0.2631 -2.2084  0.5636
  191SAPI  H20T22128   6.147   5.169   3.792 -2.0854  1.3095 -1.5838
  191SAPI   C3322129   6.198   3.812   2.767 -0.3858 -0.9110  0.3861
  191SAPI   H3X22130   6.303   3.828   2.800  0.9847 -2.2721 -2.8601
  191SAPI   H3Y22131   6.192   3.723   2.700 -1.4438  0.4309 -1.4047
  191SAPI   C3422132   6.093   3.790   2.880 -0.8116 -0.0663  0.0513
  191SAPI   H4X22133   6.116   3.701   2.943 -2.0398 -0.0577  0.5424
  191SAPI   H4Y22134   5.999   3.760   2.828 -0.2911 -2.5681  0.4180
  191SAPI   C3522135   6.061   3.911   2.966  0.2135 -0.2553  0.7789
  191SAPI   H5X22136   5.972   3.897   3.031 -0.5489  0.1507 -0.1552
  191SAPI   H5Y22137   6.013   3.990   2.904  0.9244  0.2736  0.8967
  191SAPI   C3622138   6.184   3.960   3.051 -0.0786  0.3465  0.5540
  191SAPI   H6X22139   6.197   4.071   3.049  1.1687  0.2219 -2.5317
  191SAPI   H6Y22140   6.276   3.914   3.008  0.6483  1.7815  0.4952
  191SAPI   C3722141   6.179   3.919   3.196 -0.6215  0.2393  0.0097
  191SAPI   H7X22142   6.273   3.952   3.246 -0.5965  0.3631 -0.1155
  191SAPI   H7Y22143   6.164   3.810   3.209  0.5525 -0.0854 -1.0878
  191SAPI   C3822144   6.073   3.991   3.276 -0.6380  0.1914  0.3362
  191SAPI   H8X22145   5.973   3.942   3.279 -1.0358  1.0376  1.1761
  191SAPI   H8Y22146   6.054   4.095   3.242  1.5183  0.2186 -0.9608
  191SAPI   C3922147   6.125   4.009   3.421  0.2188  0.1957 -0.3645
  191SAPI   H9X22148   6.218   4.069   3.432 -0.4798  1.0937  0.8903
  191SAPI   H9Y22149   6.153   3.907   3.458  1.8719  0.3313 -1.1600
  191SAPI  C31022150   6.026   4.076   3.501 -0.5599 -0.2846 -0.6990
  191SAPI  H10X22151   5.938   4.008   3.508  1.1702 -2.6312 -0.2280
  191SAPI  H10Y22152   5.986   4.165   3.449  1.2885 -0.1703 -2.0497
  191SAPI  C31122153   6.082   4.096   3.640 -0.5433 -0.6661 -0.1472
  191SAPI  H11X22154   6.172   4.161   3.637 -0.7064 -0.3993  0.6722
  191SAPI  H11Y22155   6.116   3.995   3.670 -1.3470 -1.6697 -2.3968
  191SAPI  C31222156   5.982   4.162   3.737  0.1145 -0.1493  0.2412
  191SAPI  H12X22157   5.890   4.102   3.722 -0.3366  0.4334  0.6313
  191SAPI  H12Y22158   5.960   4.269   3.719  0.9460  0.1597  1.0029
  191SAPI  C31322159   6.021   4.126   3.877 -0.1845  0.8519  0.2752
  191SAPI  H13X22160   6.118   4.173   3.902 -1.6562  3.0585  2.3939
  191SAPI  H13Y22161   6.028   4.015   3.882  2.9900  0.9339 -0.6079
  191SAPI  C31422162   5.913   4.180   3.976  0.4940 -0.3331  0.1853
  191SAPI  H14X22163   5.809   4.158   3.946  1.2221 -0.4320 -2.4928
  191SAPI  H14Y22164   5.928   4.289   3.965 -0.8347 -0.2324 -0.7792
  191SAPI  C31522165   5.927   4.122   4.116  0.4119  0.7100  0.4745
  191SAPI  H15X22166   5.872   4.187   4.188 -2.0140 -1.3769  0.6805
  191SAPI  H15Y22167   6.032   4.132   4.149  0.4151  1.7945  0.1484
  191SAPI  C31622168   5.867   3.979   4.149  0.5893 -0.1712  0.2106
  191SAPI  H16X22169   5.900   3.903   4.075 -0.0068 -0.1605 -0.0718
  191SAPI  H16Y22170   5.757   3.967   4.139  0.2464  2.3053  0.3455
  191SAPI  C31722171   5.914   3.928   4.292  0.1189  0.0300  0.5959
  191SAPI  H17X22172   5.889   4.018   4.351 -0.1884  0.8036 -0.6776
  191SAPI  H17Y22173   6.024   3.910   4.294 -0.3128 -3.0559  0.8760
  191SAPI  C31822174   5.830   3.810   4.330 -0.1718  0.5663 -0.0477
  191SAPI  H18X22175   5.834   3.790   4.439 -0.4174 -2.7306 -0.5479
  191SAPI  H18Y22176   5.871   3.723   4.274 -0.8502 -1.4233  2.3829
  191SAPI  H18Z22177   5.722   3.827   4.311 -0.6670 -0.5560  1.5499
  192SAPI   C1222178   1.995   0.638   2.191  0.3482  0.0529 -0.7081
  192SAPI    H222179   2.036   0.634   2.294 -1.4323  1.6300  0.1201
  192SAPI    O222180   2.031   0.765   2.146 -0.5000  0.1604 -0.6008
  192SAPI   HO222181   2.071   0.808   2.223  1.0458 -0.4468 -1.0243
  192SAPI   C1322182   2.063   0.537   2.107 -0.2217  1.0274  0.4263
  192SAPI    H322183   2.041   0.441   2.158  0.8854 -0.2617 -1.3831
  192SAPI    O322184   2.207   0.544   2.115 -0.1834 -0.2259 -0.1331
  192SAPI   HO322185   2.231   0.454   2.092  1.8585 -0.0618  1.1666
  192SAPI   C1422186   2.007   0.534   1.965 -0.2105 -0.5987 -0.5323
  192SAPI    H422187   2.037   0.633   1.924 -1.2710 -0.7890 -1.8193
  192SAPI    O422188   2.081   0.451   1.870  0.1482 -0.4969 -0.1977
  192SAPI   HO422189   2.046   0.361   1.865  0.4315 -0.6465  0.3906
  192SAPI   C1522190   1.859   0.535   1.950  0.9098 -0.1908  0.0992
  192SAPI    H522191   1.834   0.427   1.945  2.2341 -0.4659 -1.0627
  192SAPI    O522192   1.821   0.584   1.817 -0.1505 -0.5192  0.3067
  192SAPI   HO522193   1.844   0.518   1.751  0.8599  1.3068 -1.2662
  192SAPI   C1622194   1.775   0.604   2.066  0.3113 -0.1576  0.2346
  192SAPI    H622195   1.758   0.706   2.027  0.4466 -1.1844 -2.8596
  192SAPI    O622196   1.643   0.550   2.077  0.0486 -0.0872  0.5952
  192SAPI   HO622197   1.606   0.581   2.159  2.5490  0.2508  1.6836
  192SAPI   C1122198   1.842   0.614   2.202 -0.0649 -0.7129  0.0916
  192SAPI    H122199   1.837   0.516   2.256  0.4549 -0.6316  0.2934
  192SAPI     P22200   1.676   0.675   2.409  0.2993 -0.4044  0.2622
  192SAPI   O1322201   1.578   0.578   2.352 -0.1892  0.6557 -0.0497
  192SAPI   O1422202   1.609   0.800   2.463 -0.5335  0.2248 -0.1724
  192SAPI   O1222203   1.778   0.712   2.284  0.4668 -0.1496  0.4915
  192SAPI   O1122204   1.772   0.594   2.506  0.7792  0.0057 -0.4676
  192SAPI    C122205   1.885   0.661   2.561  0.3640 -0.0034  0.1664
  192SAPI    HA22206   1.968   0.650   2.489 -0.0961  0.0310 -0.3779
  192SAPI    HB22207   1.873   0.770   2.576 -0.5700  0.6887 -4.2342
  192SAPI    C222208   1.937   0.571   2.681 -0.0159 -0.0140 -0.6421
  192SAPI    HS22209   2.014   0.627   2.738 -1.2916  1.2636 -0.1068
  192SAPI   O2122210   1.986   0.446   2.636  1.0828  0.1178 -0.1402
  192SAPI   C2122211   2.088   0.434   2.560  0.1048 -0.0821 -0.1333
  192SAPI   O2222212   2.154   0.526   2.520 -0.4628 -0.3075 -0.0244
  192SAPI   C2222213   2.120   0.286   2.534  0.4325 -0.2305 -0.8162
  192SAPI   H2R22214   2.138   0.257   2.640  1.6386  1.1837 -0.5992
  192SAPI   H2S22215   2.030   0.234   2.495  0.4044  1.2107 -2.8344
  192SAPI    C322216   1.818   0.533   2.769 -0.3813  0.0171 -0.0205
  192SAPI    HX22217   1.742   0.486   2.703 -1.4824  1.7501 -0.0385
  192SAPI    HY22218   1.763   0.617   2.817 -0.9327 -0.0712 -0.4805
  192SAPI   O3122219   1.854   0.447   2.871 -0.9588 -0.4254  0.5056
  192SAPI   C3122220   1.916   0.507   2.974 -0.2500  0.3879  0.3288
  192SAPI   O3222221   1.929   0.626   2.991  0.3497 -0.1394 -0.2679
  192SAPI   C3222222   1.941   0.399   3.085  0.1802 -0.5082  0.2582
  192SAPI   H2X22223   2.015   0.329   3.042 -1.8204 -1.0257 -2.6638
  192SAPI   H2Y22224   1.842   0.350   3.094  0.4665 -1.7827 -2.4400
  192SAPI   C2322225   2.255   0.273   2.454 -0.1869 -0.7580 -0.3283
  192SAPI   H3R22226   2.250   0.332   2.359 -0.6713 -0.5050 -0.1518
  192SAPI   H3S22227   2.252   0.170   2.412 -0.1636 -0.3587 -1.3413
  192SAPI   C2422228   2.382   0.301   2.539 -0.8346 -0.6767  0.2461
  192SAPI   H4R22229   2.388   0.401   2.587  2.0948 -1.5682  2.0338
  192SAPI   H4S22230   2.458   0.297   2.458  0.3218  3.8160  0.8616
  192SAPI   C2522231   2.411   0.188   2.641  0.9565 -0.2856 -0.3420
  192SAPI   H5R22232   2.396   0.091   2.591 -0.7020 -0.4780  0.4609
  192SAPI   C2622233   2.452   0.192   2.770 -0.4962 -0.9956  0.9718
  192SAPI   H6R22234   2.482   0.102   2.827  5.9660 -1.6168 -2.4820
  192SAPI   C2722235   2.494   0.320   2.842  0.2236 -0.4464  0.6622
  192SAPI   H7R22236   2.549   0.384   2.770  2.1835 -2.9968 -0.2525
  192SAPI   H7S22237   2.571   0.288   2.915 -1.5210 -0.3136  2.6618
  192SAPI   C2822238   2.380   0.388   2.915  0.3121 -0.5219  0.7640
  192SAPI   H8R22239   2.342   0.477   2.862  0.3356 -1.2430 -0.4953
  192SAPI   C2922240   2.322   0.352   3.030 -0.0812  0.1903  0.1884
  192SAPI   H9R22241   2.228   0.406   3.047 -0.0108  0.4889 -0.3695
  192SAPI  C21022242   2.353   0.238   3.115 -0.2457 -0.4774 -0.6750
  192SAPI  H10R22243   2.436   0.173   3.080 -0.2739  0.4790 -2.6331
  192SAPI  H10S22244   2.270   0.164   3.117  0.0585 -0.8133  1.6696
  192SAPI  C21122245   2.385   0.284   3.260 -0.8365  0.0851  0.9912
  192SAPI  H11R22246   2.418   0.385   3.288 -1.6633  0.3414  1.0715
  192SAPI  C21222247   2.371   0.194   3.358  0.3488 -0.5829  0.1521
  192SAPI  H12R22248   2.403   0.228   3.457 -0.5039  0.7419 -0.0128
  192SAPI  C21322249   2.318   0.054   3.348  1.0567  0.5628 -0.4946
  192SAPI  H13R22250   2.375   0.003   3.267  1.6408  1.5121 -0.6937
  192SAPI  H13S22251   2.211   0.058   3.317  1.4783 -0.6692 -2.2620
  192SAPI  C21422252   2.325  -0.016   3.483  0.3467 -0.0935  0.1499
  192SAPI  H14R22253   2.422  -0.061   3.509  0.1586 -0.9594 -0.6275
  192SAPI  C21522254   2.219  -0.018   3.575 -0.3378  0.4056  0.1197
  192SAPI  H15R22255   2.229  -0.074   3.669 -1.6756 -1.7502 -0.9314
  192SAPI  C21622256   2.087   0.035   3.538 -0.0941  0.1531 -0.0184
  192SAPI  H16R22257   2.051  -0.011   3.444  0.2379 -1.0589  0.4256
  192SAPI  H16S22258   2.082   0.146   3.534 -1.3163  0.0916 -0.5004
  192SAPI  C21722259   1.979  -0.016   3.636 -0.0279 -0.1178 -0.4577
  192SAPI  H17R22260   1.965  -0.125   3.621  1.7524 -0.2729 -1.2623
  192SAPI  H17S22261   1.882   0.034   3.616 -0.5589 -0.8581  0.2259
  192SAPI  C21822262   2.012   0.010   3.787 -0.4570  0.7031  0.1940
  192SAPI  H18R22263   2.051   0.112   3.805  1.8552 -0.2978  1.2343
  192SAPI  H18S22264   2.080  -0.065   3.833 -0.2279  1.5236  1.2249
  192SAPI  C21922265   1.882  -0.009   3.868  0.1372  0.2173  0.0209
  192SAPI  H19R22266   1.861  -0.117   3.878  1.1559  0.2282  4.5532
  192SAPI  H19S22267   1.800   0.049   3.820 -1.9613  0.1545  3.2047
  192SAPI  C22022268   1.901   0.038   4.009 -0.1030 -0.7645 -0.4158
  192SAPI  H20R22269   1.988  -0.018   4.049 -0.2531 -0.4021  0.4346
  192SAPI  H20S22270   1.812  -0.002   4.062  0.8008 -2.5635 -0.2005
  192SAPI  H20T22271   1.909   0.149   4.018 -1.2292 -0.4803 -2.3116
  192SAPI   C3322272   1.987   0.439   3.227  0.1214 -0.1243 -1.0056
  192SAPI   H3X22273   1.909   0.504   3.271 -1.0840 -1.4884 -1.0678
  192SAPI   H3Y22274   2.085   0.492   3.221  0.4648 -0.5402  0.4499
  192SAPI   C3422275   1.994   0.316   3.316  0.0002  0.6409 -0.1311
  192SAPI   H4X22276   2.061   0.335   3.402 -0.4563 -0.6571  0.5471
  192SAPI   H4Y22277   2.040   0.233   3.259  0.0538  0.5941 -0.0198
  192SAPI   C3522278   1.859   0.268   3.379 -0.7446 -0.2423  0.0480
  192SAPI   H5X22279   1.863   0.161   3.410  0.2326 -0.7752 -1.7619
  192SAPI   H5Y22280   1.779   0.276   3.302 -1.9833  0.7639  1.3931
  192SAPI   C3622281   1.818   0.359   3.498 -0.1398 -0.3271  0.2924
  192SAPI   H6X22282   1.828   0.465   3.465  2.7482 -1.0008 -1.3837
  192SAPI   H6Y22283   1.899   0.348   3.575 -0.5899  3.2484  1.4594
  192SAPI   C3722284   1.680   0.330   3.558  0.6275 -0.6226 -0.9281
  192SAPI   H7X22285   1.686   0.226   3.596  2.6273 -0.0563  0.4529
  192SAPI   H7Y22286   1.603   0.339   3.479  0.4642 -0.0101 -0.7069
  192SAPI   C3822287   1.661   0.421   3.682 -0.2083 -0.4743 -0.3636
  192SAPI   H8X22288   1.557   0.459   3.676 -0.4364 -1.2251 -1.6631
  192SAPI   H8Y22289   1.727   0.510   3.684 -1.7693  0.7545  2.4234
  192SAPI   C3922290   1.678   0.343   3.820 -0.4507 -0.2888  0.0763
  192SAPI   H9X22291   1.786   0.318   3.829  0.2969  2.1815 -1.0936
  192SAPI   H9Y22292   1.608   0.257   3.820  0.6812 -1.2718 -1.6627
  192SAPI  C31022293   1.648   0.426   3.948  0.9188 -0.1845 -0.4399
  192SAPI  H10X22294   1.543   0.461   3.949  0.6766 -0.9043 -0.1857
  192SAPI  H10Y22295   1.716   0.514   3.943  1.3920 -0.4401  1.0660
  192SAPI  C31122296   1.654   0.348   4.080 -0.0314 -1.1452 -1.0312
  192SAPI  H11X22297   1.656   0.420   4.164 -0.0497 -1.2863 -0.9092
  192SAPI  H11Y22298   1.757   0.308   4.081 -0.5530 -2.5696 -0.7718
  192SAPI  C31222299   1.556   0.234   4.101 -0.3626 -0.1751  0.1298
  192SAPI  H12X22300   1.544   0.170   4.012  0.1981  1.7986 -1.4326
  192SAPI  H12Y22301   1.458   0.286   4.107  0.2322  0.9045  0.8694
  192SAPI  C31322302   1.581   0.166   4.234  0.4134 -0.0023 -0.3269
  192SAPI  H13X22303   1.608   0.243   4.310  2.2486  0.1326 -1.0778
  192SAPI  H13Y22304   1.676   0.112   4.215 -1.0289 -2.1493 -1.8756
  192SAPI  C31422305   1.474   0.075   4.285  0.2815 -0.3122 -0.0018
  192SAPI  H14X22306   1.474  -0.022   4.231 -0.8058 -0.0680 -0.4672
  192SAPI  H14Y22307   1.377   0.126   4.264  0.7438 -0.2222 -2.1529
  192SAPI  C31522308   1.492   0.056   4.440  1.1318 -0.2376 -1.1451
  192SAPI  H15X22309   1.397   0.025   4.490  3.4915 -2.6622  2.2706
  192SAPI  H15Y22310   1.502   0.149   4.501 -0.0561 -1.8962  1.8094
  192SAPI  C31622311   1.614  -0.027   4.490  0.7342  0.0409 -0.3650
  192SAPI  H16X22312   1.703   0.013   4.438 -0.6094  1.1276 -1.9207
  192SAPI  H16Y22313   1.610  -0.136   4.467 -0.1145  0.2008 -0.9974
  192SAPI  C31722314   1.626  -0.018   4.648  0.8238  0.4084  0.0446
  192SAPI  H17X22315   1.538  -0.077   4.681  0.7669  1.3759  1.7521
  192SAPI  H17Y22316   1.612   0.088   4.680  0.6214  0.1960  0.6779
  192SAPI  C31822317   1.745  -0.077   4.720 -0.4359 -0.6736  0.9191
  192SAPI  H18X22318   1.839  -0.059   4.663 -1.2856  2.1681  0.2436
  192SAPI  H18Y22319   1.728  -0.186   4.734 -1.6936 -0.2995  2.6365
  192SAPI  H18Z22320   1.768  -0.054   4.826  0.4641 -0.2745  0.6454
  193SOD    SOD22321   5.730   0.490   1.071 -0.3692  0.0589 -0.2659
  194SOD    SOD22322   5.131   4.362   0.281 -0.2085 -0.2806 -0.0879
  195SOD    SOD22323   1.409   0.680   8.038 -0.0601 -0.1972  0.0736
  196SOD    SOD22324   6.312   6.883   2.086  0.4867 -0.3874  0.1985
  197SOD    SOD22325   3.027   0.371   6.895 -0.3894  0.1372  0.7216
  198SOD    SOD22326   4.207   3.037   7.263 -0.2194  0.2665  0.0792
  199SOD    SOD22327   6.720   2.601   7.847  0.0866 -0.2310  0.2854
  200SOD    SOD22328   0.911   5.678   8.563  0.2338 -0.6699 -0.4741
  201SOD    SOD22329   1.066   0.613   1.114 -0.1305 -0.1492 -0.0947
  202SOD    SOD22330   2.898   1.263   0.053  0.1406  0.5112 -0.1421
  203SOD    SOD22331   4.500   0.248   1.701 -0.7840  0.0365 -0.0907
  204SOD    SOD22332   0.742   5.870   6.745 -0.0186 -0.1984 -0.3019
  205SOD    SOD22333   3.861   4.944   7.407 -0.2732  0.3424  0.0973
  206SOD    SOD22334   3.967   5.771   6.361 -0.0567 -0.3820 -0.3007
  207SOD    SOD22335   6.686   4.696   6.908  0.6633  0.1939  0.7323
  208SOD    SOD22336   3.617   2.597   7.200 -0.4551 -0.5739 -0.2139
  209SOD    SOD22337   1.061   2.437   1.758  0.0540  0.2714  0.3503
  210SOD    SOD22338   2.215   4.215   0.716  0.4047 -0.1187 -0.1621
  211SOD    SOD22339   0.150   0.909   1.300 -0.0703  0.0218 -0.2587
  212SOD    SOD22340   1.257   3.659   7.667  0.7676  0.6462  0.5337
  213SOD    SOD22341   1.781   3.012   1.231  0.5196 -0.4749 -0.0242
  214SOD    SOD22342   6.605   6.856   0.380  0.2346 -0.1664 -0.4267
  215SOD    SOD22343   1.047   3.074   0.706 -0.3904 -0.2122  0.3313
  216SOD    SOD22344   6.675   4.565   1.939  0.1463  0.6711  0.2190
  217SOD    SOD22345   2.658   0.457   1.594  0.0824 -0.1481 -0.4651
  218SOD    SOD22346   4.809   3.291   8.175 -0.0459 -0.1538 -0.3923
  219SOD    SOD22347   1.742   5.563   2.158  0.3369 -0.3805 -0.5291
  220SOD    SOD22348   4.785   2.674   0.556  0.0322 -0.0701 -0.1568
  221SOD    SOD22349   6.442   0.121   6.709  0.0354  0.7737 -0.3951
  222SOD    SOD22350   0.128   5.686   6.696 -0.4391 -0.0377  0.7796
  223SOD    SOD22351   1.121   1.051   6.690  0.3881  0.2760  0.0142
  224SOD    SOD22352   2.553   4.242   7.120  0.0265  0.3280 -0.0737
  225SOD    SOD22353   3.222   3.183   8.422  0.0214 -0.1008 -0.4009
  226SOD    SOD22354   5.189   3.696   2.145 -0.0302  0.0677  0.0200
  227SOD    SOD22355   3.417   2.374   2.548  0.0508  0.2600 -0.1627
  228SOD    SOD22356   0.838   1.476   7.056  0.6484  0.0918 -0.1926
  229SOD    SOD22357   3.092   0.868   7.133  0.4754  0.7888  0.1883
  230CLA    CLA22358   1.145   1.573   7.603  0.3961 -0.0701 -0.3022
  231CLA    CLA22359   3.609   1.216   7.922  0.1959 -0.3019 -0.3550
  232CLA    CLA22360   1.913   1.603   1.359  0.4928  0.4690 -0.4287
  233CLA    CLA22361   4.953   0.352   0.584  0.3259  0.2820  0.4061
  234CLA    CLA22362   6.713   2.525   8.408 -0.0424  0.2045  0.0924
  235CLA    CLA22363   6.400   0.083   1.845  0.4977  0.0934 -0.1032
  236CLA    CLA22364   2.338   1.674   8.183 -0.0492  0.0476 -0.4635
  237CLA    CLA22365   0.199   3.196   0.897  0.3248 -0.1290  0.1924
  238CLA    CLA22366   3.248   0.035   8.385 -0.1824  0.0673 -0.0735
  239CLA    CLA22367   5.330   0.160   8.280 -0.1091 -0.0745  0.1487
  240CLA    CLA22368   5.074   3.701   8.351  0.1236  0.0654 -0.2085
  241CLA    CLA22369   4.577   1.849   1.641 -0.1841 -0.1658 -0.0421
  242CLA    CLA22370   1.386   0.509   0.727  0.4368 -0.1358  0.0301
  243CLA    CLA22371   0.926   4.224   7.212  0.1723  0.2049  0.2303
  244CLA    CLA22372   1.326   0.060   1.226  0.0378  0.3869 -0.3276
  245CLA    CLA22373   1.916   2.607   1.554  0.0937 -0.0667  0.2687
  246CLA    CLA22374   4.006   2.403   7.632  0.0885  0.1724 -0.1609
  247TIP3   OH222375   4.863   3.808   1.335  0.2828  0.6605 -1.2760
  247TIP3    H122376   4.925   3.824   1.406  0.0151  0.1473 -0.9151
  247TIP3    H222377   4.885   3.721   1.303 -1.0604 -0.0994 -0.2637
  248TIP3   OH222378   1.236   1.733   8.007 -0.7838 -0.2627 -0.2432
  248TIP3    H122379   1.186   1.793   7.952 -0.4140 -0.8124 -1.2088
  248TIP3    H222380   1.208   1.753   8.096 -1.1216  0.9049 -0.5945
  249TIP3   OH222381   2.794   0.461   1.389  0.5690 -0.4307  0.2655
  249TIP3    H122382   2.746   0.435   1.310  0.2362 -1.0998  0.6809
  249TIP3    H222383   2.853   0.388   1.406  0.4673 -0.3960  0.7723
  250TIP3   OH222384   3.331   0.444   0.810 -0.9278  0.4688  0.7292
  250TIP3    H122385   3.312   0.530   0.847 -0.2624  0.2782  1.5156
  250TIP3    H222386   3.361   0.391   0.884  3.7840  1.0255 -0.4417
  251TIP3   OH222387   3.466   0.962   7.117 -0.1000 -0.5479  0.0981
  251TIP3    H122388   3.407   0.898   7.076  0.7003 -0.6479 -0.9495
  251TIP3    H222389   3.542   0.964   7.059 -0.2172  1.5673 -0.0336
  252TIP3   OH222390   2.793   4.270   1.650  0.2245 -0.2631 -0.5338
  252TIP3    H122391   2.723   4.311   1.702  0.6788 -0.0861 -0.0506
  252TIP3    H222392   2.840   4.214   1.713  0.9559  0.1678 -0.6847
  253TIP3   OH222393   3.918   5.688   6.592 -0.8685 -0.4651  0.7658
  253TIP3    H122394   3.957   5.650   6.670  0.8849 -0.2025  0.0587
  253TIP3    H222395   3.910   5.781   6.612  0.3480 -0.2560  0.3680
  254TIP3   OH222396   0.860   1.941   0.021 -0.3633 -0.3683  0.3087
  254TIP3    H122397   0.855   1.864   0.077 -0.8416  0.1217  0.9588
  254TIP3    H222398   0.797   1.925  -0.049  0.9676 -1.4364 -0.6929
  255TIP3   OH222399   1.458   6.443   1.302  0.2444 -0.1322 -0.0434
  255TIP3    H122400   1.531   6.406   1.352 -0.1131  1.8591  2.1036
  255TIP3    H222401   1.492   6.525   1.268 -0.6608  0.2994  0.0768
  256TIP3   OH222402   2.200   4.526   6.967 -0.1651  0.2825 -0.1216
  256TIP3    H122403   2.128   4.465   6.979 -0.5433  0.5526 -0.9287
  256TIP3    H222404   2.202   4.543   6.872 -0.4820  1.9864  0.1383
  257TIP3   OH222405   1.311   5.689   2.185  0.3702  0.0923 -0.3466
  257TIP3    H122406   1.286   5.625   2.118  0.6637 -0.2874 -0.0942
  257TIP3    H222407   1.272   5.772   2.154  0.9399  0.0365 -1.2492
  258TIP3   OH222408   4.983   1.318   6.969 -0.1515 -0.0781  0.4278
  258TIP3    H122409   4.985   1.238   6.917  1.5554 -0.1406  0.5362
  258TIP3    H222410   4.932   1.379   6.917 -1.6227 -1.2449  0.4135
  259TIP3   OH222411   0.812   2.982   0.808 -0.1105  0.6999 -0.1593
  259TIP3    H122412   0.772   2.918   0.748  2.4339 -1.2298  0.0359
  259TIP3    H222413   0.770   2.965   0.892  0.0086 -0.2591 -0.2772
  260TIP3   OH222414   4.023   0.662   7.392 -0.3593 -0.2480  0.9232
  260TIP3    H122415   4.064   0.616   7.318  0.1174  0.5443  0.6792
  260TIP3    H222416   4.093   0.716   7.427 -1.1363  0.9627  0.6514
  261TIP3   OH222417   2.893   4.159   0.714 -0.0977 -0.1167 -0.3933
  261TIP3    H122418   2.982   4.128   0.733 -0.4737 -0.8955  0.1444
  261TIP3    H222419   2.837   4.106   0.771 -0.8376  0.9429 -0.1077
  262TIP3   OH222420   2.645   2.692   0.397 -0.0734  0.1061  0.0362
  262TIP3    H122421   2.630   2.611   0.445 -2.8081 -0.0466 -0.9528
  262TIP3    H222422   2.633   2.761   0.462  0.4795 -0.2078  0.4809
  263TIP3   OH222423   0.261   1.177   7.980 -0.2023 -0.1186  0.2343
  263TIP3    H122424   0.294   1.267   7.980  0.1795 -0.2562  0.2023
  263TIP3    H222425   0.248   1.156   7.888 -2.3263  0.6279  0.3131
  264TIP3   OH222426   4.364   6.729   7.273  0.0968  0.4010  0.1193
  264TIP3    H122427   4.314   6.731   7.192 -0.2184  0.4931  0.3141
  264TIP3    H222428   4.354   6.639   7.305  0.9819  0.0936 -0.4082
  265TIP3   OH222429   4.674   2.418   1.176  0.2208 -0.1715  1.0971
  265TIP3    H122430   4.683   2.327   1.147 -1.2635 -0.3435  1.0619
  265TIP3    H222431   4.701   2.470   1.100  0.5908 -0.5919  0.9363
  266TIP3   OH222432   3.586   1.682   0.562  0.6301 -0.0681 -0.1485
  266TIP3    H122433   3.650   1.711   0.496  0.6123  0.4154  0.0429
  266TIP3    H222434   3.630   1.697   0.645  0.1493  0.5799  0.0004
  267TIP3   OH222435   5.398   1.937   8.619  0.6100  0.3872 -0.6339
  267TIP3    H122436   5.349   1.990   8.682 -1.8460 -0.6473 -1.5321
  267TIP3    H222437   5.444   2.001   8.564  0.5990  1.4042  0.5020
  268TIP3   OH222438   4.849   3.078   8.251 -0.0358  0.2640  0.1376
  268TIP3    H122439   4.910   3.007   8.274  0.4654  1.0862  1.4460
  268TIP3    H222440   4.783   3.036   8.195 -0.0646 -1.3505  1.3266
  269TIP3   OH222441   2.407   4.232   8.288 -0.5045  0.1196  0.6911
  269TIP3    H122442   2.413   4.320   8.324 -2.4157  1.4480 -1.9150
  269TIP3    H222443   2.497   4.198   8.292  0.8353  3.2088 -0.5380
  270TIP3   OH222444   2.881   3.649   8.153 -0.1514 -0.3389 -0.6093
  270TIP3    H122445   2.827   3.662   8.231 -0.2073 -0.1240 -0.6812
  270TIP3    H222446   2.870   3.557   8.130  0.4509 -0.5950  0.0710
  271TIP3   OH222447   2.649   6.028   0.724  0.1036  0.0169  0.0094
  271TIP3    H122448   2.625   5.987   0.641  0.4215 -0.4419  0.1385
  271TIP3    H222449   2.642   6.122   0.708  3.2749  0.1220 -1.5143
  272TIP3   OH222450   5.725   3.931   7.533 -0.5633  0.7199  0.1719
  272TIP3    H122451   5.785   3.855   7.528 -0.1673  1.1038 -1.7442
  272TIP3    H222452   5.778   4.000   7.572 -0.2525  0.5954 -0.0206
  273TIP3   OH222453   6.861   1.781   2.009 -0.2428 -0.8888 -0.1047
  273TIP3    H122454   6.930   1.716   1.996  0.3840  0.0572 -1.8749
  273TIP3    H222455   6.885   1.826   2.090  0.5956 -1.3217 -0.0991
  274TIP3   OH222456   0.661   1.258   8.302 -0.2418 -0.1655 -0.0508
  274TIP3    H122457   0.595   1.325   8.285  0.6219  0.6918 -0.1399
  274TIP3    H222458   0.720   1.263   8.227 -0.4786 -1.4321 -0.3398
  275TIP3   OH222459   4.807   1.985   8.063 -0.1272 -0.3275  0.5273
  275TIP3    H122460   4.729   1.978   8.118  0.2179  1.1366  1.2619
  275TIP3    H222461   4.779   1.955   7.977 -0.8621 -2.0290  1.3195
  276TIP3   OH222462   3.500   2.783   0.856  0.4395  0.2641  0.3600
  276TIP3    H122463   3.588   2.777   0.894  0.8011 -1.1395 -0.5794
  276TIP3    H222464   3.516   2.805   0.764 -0.1267 -0.6540  0.0260
  277TIP3   OH222465   6.350   0.445   2.562  0.5812  0.1143  0.8839
  277TIP3    H122466   6.385   0.521   2.515  0.6595  0.4269  1.4479
  277TIP3    H222467   6.397   0.370   2.524  0.3452  0.3222  0.1756
  278TIP3   OH222468   4.139   5.900   6.485  0.3894  0.4939 -0.9219
  278TIP3    H122469   4.215   5.892   6.428  1.0709  1.0355 -0.1195
  278TIP3    H222470   4.176   5.906   6.574 -0.6450 -0.5020 -0.3966
  279TIP3   OH222471   3.630   3.032   8.258 -0.3854 -0.6536 -0.3380
  279TIP3    H122472   3.619   3.019   8.164 -0.9556 -1.0858 -0.2189
  279TIP3    H222473   3.720   3.062   8.268 -0.2947 -0.6836 -1.0124
  280TIP3   OH222474   3.719   1.523   7.900  0.1144  0.1420 -0.3959
  280TIP3    H122475   3.686   1.436   7.921 -1.4210  0.5157 -1.1364
  280TIP3    H222476   3.650   1.564   7.848  0.3075  2.2092  0.8273
  281TIP3   OH222477   3.701   3.154   6.380 -0.1457 -0.2177  0.3349
  281TIP3    H122478   3.659   3.079   6.338 -1.0367 -0.9718  2.4175
  281TIP3    H222479   3.773   3.177   6.322 -0.1169 -2.4205 -0.5929
  282TIP3   OH222480   2.411   3.355   7.503  0.1211  0.2502  0.0775
  282TIP3    H122481   2.405   3.325   7.412 -1.0185  2.1959 -0.5443
  282TIP3    H222482   2.504   3.374   7.516  0.0754  1.4876 -1.2239
  283TIP3   OH222483   4.399   5.990   0.349  0.0924 -0.1271 -0.3194
  283TIP3    H122484   4.459   5.924   0.315  1.1786  1.2445 -1.1977
  283TIP3    H222485   4.330   5.940   0.393  1.6438 -1.7881  0.3662
  284TIP3   OH222486   1.316   4.380   7.210 -0.3864  0.4416 -0.3228
  284TIP3    H122487   1.398   4.416   7.244  0.5320 -0.3124 -1.6635
  284TIP3    H222488   1.261   4.457   7.196  0.2257  0.9973  0.2173
  285TIP3   OH222489   5.101   5.918   7.884 -0.4071 -0.1981  0.1982
  285TIP3    H122490   5.152   5.871   7.819 -0.4249  0.0769 -0.0203
  285TIP3    H222491   5.076   5.852   7.948  2.4709  0.0918  1.7739
  286TIP3   OH222492   6.309   2.630   7.471 -0.0779  0.2357  0.0202
  286TIP3    H122493   6.313   2.711   7.522 -2.0370  1.6467 -1.9089
  286TIP3    H222494   6.291   2.658   7.382  0.4336 -2.2937 -0.9697
  287TIP3   OH222495   3.670   6.111   7.602 -0.7855  0.2818  0.4313
  287TIP3    H122496   3.672   6.053   7.525 -3.7464  1.2031 -0.4639
  287TIP3    H222497   3.659   6.199   7.566  1.1505  1.1894  1.8633
  288TIP3   OH222498   6.375   4.820   6.959 -0.0387  0.2619 -0.1502
  288TIP3    H122499   6.378   4.864   6.874 -2.1020  2.6225  0.8871
  288TIP3    H222500   6.386   4.890   7.022  1.1208 -1.4049  1.6086
  289TIP3   OH222501   1.177   1.984   0.419  0.4081 -0.4880 -0.2100
  289TIP3    H122502   1.121   1.940   0.483  1.6107 -0.7251  0.7120
  289TIP3    H222503   1.129   1.976   0.336 -0.4923 -1.4650  0.3787
  290TIP3   OH222504   5.602   0.072   8.373 -0.4928  0.5149  0.2157
  290TIP3    H122505   5.514   0.093   8.343 -0.3159 -0.5813 -1.1516
  290TIP3    H222506   5.645   0.156   8.384 -0.9620  0.9975 -1.4548
  291TIP3   OH222507   0.154   0.316   6.358  0.3318  0.1835  0.2167
  291TIP3    H122508   0.101   0.354   6.288  1.4424  0.5473 -0.4504
  291TIP3    H222509   0.244   0.338   6.334  0.8582 -1.2058  0.8417
  292TIP3   OH222510   6.225   1.505   7.902 -0.3970  0.0895  0.4772
  292TIP3    H122511   6.132   1.510   7.922 -0.1796 -0.4712  1.7458
  292TIP3    H222512   6.232   1.528   7.809 -1.8511 -0.4416  0.2227
  293TIP3   OH222513   1.834   2.254   7.036 -0.3756  0.2494  0.0016
  293TIP3    H122514   1.753   2.214   7.006  0.5438 -0.6367 -1.4232
  293TIP3    H222515   1.889   2.181   7.064  0.1033  0.7960  0.5242
  294TIP3   OH222516   2.765   3.531   1.591 -0.2642  0.5512 -0.2061
  294TIP3    H122517   2.844   3.556   1.637 -0.9566 -0.4295  1.5889
  294TIP3    H222518   2.704   3.603   1.608 -0.2401  0.6045 -0.3437
  295TIP3   OH222519   4.929   0.996   6.704  0.2086 -0.0092 -0.1684
  295TIP3    H122520   4.839   0.964   6.699  0.1891  0.1683 -1.5167
  295TIP3    H222521   4.964   0.982   6.616  1.0127  1.2944 -0.0933
  296TIP3   OH222522   2.914   1.548   7.066  0.6321  0.5083  0.2718
  296TIP3    H122523   2.932   1.503   7.148 -0.4125 -1.6274 -0.5983
  296TIP3    H222524   2.821   1.572   7.071  1.0142  2.1090  0.4530
  297TIP3   OH222525   3.861   0.291   0.207 -0.2536  0.3722 -1.1854
  297TIP3    H122526   3.809   0.295   0.288 -1.9884  0.1235 -2.2453
  297TIP3    H222527   3.901   0.377   0.200  1.0580 -0.0299  0.6308
  298TIP3   OH222528   2.401   6.823   6.396  0.6362 -0.1284 -0.5933
  298TIP3    H122529   2.424   6.802   6.305 -1.4045 -0.8834 -0.9870
  298TIP3    H222530   2.437   6.750   6.447  1.8727  0.3463 -0.7596
  299TIP3   OH222531   3.093   1.670   7.785 -0.0832  0.0561  0.0483
  299TIP3    H122532   3.170   1.626   7.819 -1.0179 -1.4834  0.2448
  299TIP3    H222533   3.110   1.763   7.801  1.4599 -0.2926  0.6038
  300TIP3   OH222534   0.873   5.773   0.069 -0.4410  0.6188  0.0745
  300TIP3    H122535   0.933   5.814   0.131  1.5678 -2.5624  0.4651
  300TIP3    H222536   0.820   5.715   0.123  0.6387 -1.4318 -0.9577
  301TIP3   OH222537   6.173   0.083   6.167 -0.0120 -0.2539  0.3462
  301TIP3    H122538   6.174   0.117   6.078  1.3098 -2.8892 -0.7715
  301TIP3    H222539   6.081   0.087   6.194 -0.2994  1.3845 -0.7690
  302TIP3   OH222540   5.930   3.136   0.472  0.3561  0.3127 -0.1067
  302TIP3    H122541   5.845   3.160   0.510 -0.6417  2.8857 -3.5000
  302TIP3    H222542   5.910   3.063   0.413  0.4033  1.0776 -1.0891
  303TIP3   OH222543   4.131   2.299   8.558 -0.2103 -0.7259  0.1705
  303TIP3    H122544   4.086   2.310   8.641  3.8852 -1.3020  2.7523
  303TIP3    H222545   4.167   2.386   8.539 -1.7668 -0.3994 -1.5444
  304TIP3   OH222546   0.464   2.850   8.453  0.6396 -0.3909  0.5074
  304TIP3    H122547   0.559   2.842   8.457  0.9237  0.2660 -2.4652
  304TIP3    H222548   0.445   2.931   8.499  1.7854  0.4820 -0.4794
  305TIP3   OH222549   6.674   4.939   7.657  0.2278  0.1283 -0.1391
  305TIP3    H122550   6.705   5.024   7.625 -2.9625  1.6610  0.4884
  305TIP3    H222551   6.671   4.949   7.752 -1.0486 -0.3393 -0.1173
  306TIP3   OH222552   2.546   0.158   1.887  0.1336 -0.1181 -0.0879
  306TIP3    H122553   2.576   0.080   1.839  0.4014  0.1377 -0.3429
  306TIP3    H222554   2.585   0.149   1.974  0.8536  0.1432 -0.3743
  307TIP3   OH222555   4.942   4.967   0.793  0.1985 -0.3058 -0.4119
  307TIP3    H122556   4.847   4.972   0.796  0.1324 -1.3950  0.0293
  307TIP3    H222557   4.967   5.021   0.718 -0.8466 -0.8507 -1.1754
  308TIP3   OH222558   1.231   0.834   6.776  0.2739 -0.2509 -0.6178
  308TIP3    H122559   1.281   0.836   6.857  0.3776  0.2398 -0.6949
  308TIP3    H222560   1.275   0.766   6.723  0.0249 -0.7768 -0.1554
  309TIP3   OH222561   5.040   6.397   7.689 -0.6562 -0.0890  0.0329
  309TIP3    H122562   5.076   6.369   7.773 -1.3001 -0.0684  0.3211
  309TIP3    H222563   4.987   6.474   7.709 -1.4363 -0.5298 -0.2576
  310TIP3   OH222564   6.396   2.168   1.719 -0.1651 -0.4657  0.0339
  310TIP3    H122565   6.467   2.176   1.784  0.8657  0.6575 -1.1818
  310TIP3    H222566   6.328   2.226   1.752  0.3319  0.0663  0.1478
  311TIP3   OH222567   1.159   2.298   8.369 -0.5860  0.6556  0.1476
  311TIP3    H122568   1.073   2.335   8.352  0.1122  2.3669  0.1630
  311TIP3    H222569   1.172   2.235   8.298 -1.4667  1.0618 -0.3931
  312TIP3   OH222570   5.663   4.563   7.021 -0.0094 -0.3773  0.2394
  312TIP3    H122571   5.605   4.621   6.972  0.1577  1.0872  1.6963
  312TIP3    H222572   5.725   4.530   6.956 -1.9236 -1.3194 -1.1966
  313TIP3   OH222573   5.096   5.665   1.141  0.1133 -0.6299 -0.0887
  313TIP3    H122574   5.140   5.749   1.142 -0.2389 -0.4291 -0.7209
  313TIP3    H222575   5.066   5.655   1.051 -1.3415 -0.6478  0.3762
  314TIP3   OH222576   4.545   2.345   0.872 -0.2712 -0.3100  0.5419
  314TIP3    H122577   4.524   2.301   0.955  1.4052  0.4710  1.4194
  314TIP3    H222578   4.493   2.425   0.874  0.8945  0.4554  1.5880
  315TIP3   OH222579   4.203   0.820   0.087  0.2843 -0.9044 -1.0246
  315TIP3    H122580   4.223   0.794  -0.003 -1.1408 -2.4690 -0.9437
  315TIP3    H222581   4.108   0.826   0.090  0.3567  0.0184  0.1686
  316TIP3   OH222582   5.610   4.767   1.475  0.1045 -0.1614 -0.0952
  316TIP3    H122583   5.568   4.814   1.547  0.4696  1.7393 -1.0671
  316TIP3    H222584   5.575   4.809   1.396  0.5751 -1.4456 -1.0120
  317TIP3   OH222585   1.135   3.002   1.965 -0.2054 -0.2172 -1.1018
  317TIP3    H122586   1.163   3.093   1.976  0.4593 -0.5101 -0.2965
  317TIP3    H222587   1.215   2.951   1.975 -1.0051 -1.1197  1.5870
  318TIP3   OH222588   2.939   2.227   0.951 -0.5854  0.2699 -0.1319
  318TIP3    H122589   3.009   2.191   0.896 -1.5329 -0.3750 -0.9590
  318TIP3    H222590   2.928   2.316   0.919 -0.7292  0.0874 -0.6118
  319TIP3   OH222591   5.803   3.502   7.608  0.5077  0.2750  0.3942
  319TIP3    H122592   5.741   3.561   7.652 -1.2962 -0.3908 -1.1604
  319TIP3    H222593   5.792   3.418   7.652  0.6215  0.2564  0.3882
  320TIP3   OH222594   2.352   1.966   7.648 -0.4375 -0.1531  0.1296
  320TIP3    H122595   2.387   2.001   7.729 -0.2763  0.1476 -0.0702
  320TIP3    H222596   2.262   2.000   7.644 -0.5096 -0.3231  0.2732
  321TIP3   OH222597   6.575   3.404   0.294 -0.1004  0.0656 -0.4909
  321TIP3    H122598   6.648   3.410   0.232  1.0406 -2.6923  0.4198
  321TIP3    H222599   6.611   3.432   0.378  0.0482 -1.5181  0.0110
  322TIP3   OH222600   6.301   2.749   1.152 -0.3146  0.2653  0.5151
  322TIP3    H122601   6.375   2.801   1.120  2.1688 -2.2589  1.7547
  322TIP3    H222602   6.283   2.784   1.239 -0.5223  0.8033  0.2622
  323TIP3   OH222603   1.443   3.983   6.438 -0.4410  0.1899  0.3913
  323TIP3    H122604   1.409   3.962   6.351  0.6655  1.0371 -0.2720
  323TIP3    H222605   1.409   4.071   6.456 -0.7381 -0.0140  0.8780
  324TIP3   OH222606   3.038   2.833   0.707  0.0913 -0.2200  0.2127
  324TIP3    H122607   3.113   2.892   0.716  1.0597 -1.6090  2.0085
  324TIP3    H222608   2.962   2.891   0.709  1.0430  1.0829  0.1950
  325TIP3   OH222609   0.281   2.159   1.074 -0.4543 -0.2720  0.0649
  325TIP3    H122610   0.356   2.166   1.015 -0.6337  1.6865  0.0145
  325TIP3    H222611   0.319   2.136   1.159  0.3571  1.6523  0.2709
  326TIP3   OH222612   2.005   1.061   6.719  0.7046  0.2054 -0.0568
  326TIP3    H122613   2.035   0.973   6.697  0.4315 -0.1075  0.7635
  326TIP3    H222614   1.937   1.047   6.785  1.0842  1.0538  0.5352
  327TIP3   OH222615   4.957   2.242   6.478 -0.6840 -0.1269 -0.6487
  327TIP3    H122616   4.885   2.237   6.416 -1.2407  1.1788 -0.1370
  327TIP3    H222617   4.997   2.328   6.463 -0.9364  0.2940  0.8784
  328TIP3   OH222618   6.207   5.581   0.059 -0.0966  0.4972 -0.5934
  328TIP3    H122619   6.226   5.550   0.148 -0.7140  2.8515  0.4348
  328TIP3    H222620   6.112   5.578   0.053 -0.0145 -1.0776 -1.7912
  329TIP3   OH222621   0.384   4.739   2.235 -0.0654  0.0598 -0.1119
  329TIP3    H122622   0.419   4.708   2.319 -0.2649  0.3528  0.0772
  329TIP3    H222623   0.290   4.725   2.241 -0.3721  2.1641  0.6025
  330TIP3   OH222624   5.974   6.045   0.430 -0.0978 -0.0431  0.1520
  330TIP3    H122625   6.036   6.050   0.503  2.2319  1.0491 -1.7952
  330TIP3    H222626   5.988   5.958   0.393  1.4344  0.7374 -1.1950
  331TIP3   OH222627   1.913   4.339   5.876  0.0231  0.6572  0.3305
  331TIP3    H122628   1.885   4.422   5.914 -2.4854 -0.6429  1.5075
  331TIP3    H222629   1.960   4.294   5.946  0.6213  0.7066 -0.0301
  332TIP3   OH222630   4.871   0.114   0.386  0.4867  0.5846 -0.0733
  332TIP3    H122631   4.821   0.033   0.395 -0.1964  0.7024 -2.2007
  332TIP3    H222632   4.851   0.164   0.465 -3.3077  0.8728 -1.0220
  333TIP3   OH222633   3.749   4.266   1.773  0.2357  0.1169 -0.2444
  333TIP3    H122634   3.724   4.349   1.732  0.3524 -0.0257 -0.6076
  333TIP3    H222635   3.695   4.261   1.852  0.0285  0.4063 -0.3662
  334TIP3   OH222636   6.495   4.400   1.921  0.5286  0.4150  0.5596
  334TIP3    H122637   6.409   4.389   1.961  1.3621 -1.1593  2.0617
  334TIP3    H222638   6.492   4.347   1.841 -0.0725  0.8216  0.3139
  335TIP3   OH222639   1.461   6.677   7.408  0.3345 -0.1346  0.0779
  335TIP3    H122640   1.493   6.725   7.331  0.6061 -2.4646 -1.3509
  335TIP3    H222641   1.496   6.725   7.483  1.3049  1.3639 -1.2782
  336TIP3   OH222642   0.289   3.517   7.686  0.2566 -0.3260  0.6737
  336TIP3    H122643   0.288   3.487   7.777  1.9003  1.7452  1.4565
  336TIP3    H222644   0.376   3.558   7.675 -0.5354  0.9838 -1.2853
  337TIP3   OH222645   0.542   2.789   6.884 -0.1169 -0.7033  0.4075
  337TIP3    H122646   0.588   2.802   6.801  2.2480 -1.1630  1.5769
  337TIP3    H222647   0.464   2.738   6.860 -1.0249  1.5156 -1.8665
  338TIP3   OH222648   0.768   3.046   0.052  0.6948  0.0112  0.0539
  338TIP3    H122649   0.722   2.972   0.090  1.4363  0.0151  0.9847
  338TIP3    H222650   0.698   3.109   0.032  0.1348 -0.6375 -0.0899
  339TIP3   OH222651   4.292   6.262   0.344 -0.0608  0.3019 -0.6006
  339TIP3    H122652   4.265   6.305   0.263 -2.0686 -0.1583 -0.2165
  339TIP3    H222653   4.341   6.185   0.315  1.5131  1.5048 -1.3087
  340TIP3   OH222654   1.224   0.365   7.718 -0.5025 -0.5749  0.3410
  340TIP3    H122655   1.206   0.294   7.780 -2.0485 -0.6498 -0.1550
  340TIP3    H222656   1.179   0.441   7.755  1.6506  0.3609  1.1903
  341TIP3   OH222657   5.531   2.969   0.304 -0.3682 -0.3113 -0.3559
  341TIP3    H122658   5.507   3.062   0.299 -1.5440 -0.4581  1.6291
  341TIP3    H222659   5.578   2.952   0.222 -1.0026  1.7773 -1.2175
  342TIP3   OH222660   2.272   3.665   6.529  0.0052  0.2803  0.1363
  342TIP3    H122661   2.251   3.755   6.556 -1.2232 -0.3111  1.2611
  342TIP3    H222662   2.361   3.651   6.562 -0.2174  0.7227  0.9499
  343TIP3   OH222663   1.145   6.698   6.729 -0.0879  0.6130 -0.1233
  343TIP3    H122664   1.113   6.745   6.652  1.8534 -0.7262 -1.8547
  343TIP3    H222665   1.072   6.641   6.753 -0.7521  1.0728 -0.9684
  344TIP3   OH222666   0.632   4.800   0.106  0.0594  0.1778  0.1989
  344TIP3    H122667   0.562   4.864   0.094  0.8998  1.2255  0.7230
  344TIP3    H222668   0.594   4.732   0.162 -0.2099  1.2829  1.3963
  345TIP3   OH222669   5.379   0.516   6.625  0.3015 -0.3843 -0.1649
  345TIP3    H122670   5.405   0.576   6.555  0.3015 -0.3158 -0.1067
  345TIP3    H222671   5.289   0.493   6.605 -0.2539  0.9066  0.6866
  346TIP3   OH222672   0.532   4.261   8.632  0.2260  0.2387 -0.2325
  346TIP3    H122673   0.546   4.355   8.640  3.4646  0.0738 -2.1051
  346TIP3    H222674   0.494   4.249   8.544  0.0039 -0.2148 -0.0797
  347TIP3   OH222675   0.588   4.497   1.895  0.7381  0.4043 -0.2110
  347TIP3    H122676   0.552   4.411   1.872  0.4038  0.6516 -0.6092
  347TIP3    H222677   0.558   4.512   1.984  0.4942  0.2691 -0.2688
  348TIP3   OH222678   1.524   2.596   0.700  0.3601  0.2649  0.1242
  348TIP3    H122679   1.500   2.525   0.761 -0.2039 -1.2511 -1.7450
  348TIP3    H222680   1.604   2.566   0.658 -0.5443  0.0636 -1.5884
  349TIP3   OH222681   4.660   0.504   0.841 -0.1477  0.3968 -0.0927
  349TIP3    H122682   4.677   0.537   0.753  0.1795  0.7604  0.1036
  349TIP3    H222683   4.694   0.572   0.900  0.4183 -0.2188  0.3178
  350TIP3   OH222684   6.846   3.631   0.339  0.3929  0.1857  0.4228
  350TIP3    H122685   6.934   3.620   0.305  0.0209 -1.8024  0.0264
  350TIP3    H222686   6.855   3.624   0.434  0.5009 -1.4743  0.3117
  351TIP3   OH222687   3.499   5.381   6.896  0.2610 -0.3518 -0.2548
  351TIP3    H122688   3.433   5.435   6.852 -2.1836 -2.0228  1.1249
  351TIP3    H222689   3.483   5.292   6.863 -1.0717 -1.5236  3.0732
  352TIP3   OH222690   6.282   2.571   0.585  0.5334  0.3249  0.0967
  352TIP3    H122691   6.228   2.522   0.647 -1.0617  0.8123 -0.8457
  352TIP3    H222692   6.371   2.540   0.601 -0.1666 -1.3867  0.8978
  353TIP3   OH222693   6.672   6.290   1.520  0.0883 -0.2777 -0.0382
  353TIP3    H122694   6.730   6.303   1.595 -1.4274 -1.9414  1.5312
  353TIP3    H222695   6.657   6.195   1.518 -1.8018 -0.0025 -0.9451
  354TIP3   OH222696   3.952   2.494   1.003  0.2630  0.3100 -0.2912
  354TIP3    H122697   4.023   2.438   0.973  0.6844  0.1441  0.9626
  354TIP3    H222698   3.988   2.541   1.078 -1.4886 -1.2423  1.6537
  355TIP3   OH222699   4.537   4.921   6.264 -0.0196  0.2521 -0.0918
  355TIP3    H122700   4.618   4.966   6.289  1.6542 -1.9579 -1.2628
  355TIP3    H222701   4.514   4.960   6.179  0.7203 -0.1694 -0.5010
  356TIP3   OH222702   6.112   4.568   7.737 -0.7543 -0.5248 -0.2462
  356TIP3    H122703   6.048   4.617   7.789 -0.9564 -1.7758  0.7468
  356TIP3    H222704   6.074   4.565   7.649 -0.7611  1.0066 -0.3160
  357TIP3   OH222705   1.111   3.110   0.922  0.1224  0.8452 -0.4630
  357TIP3    H122706   1.193   3.148   0.953 -0.5045  1.6840  0.2196
  357TIP3    H222707   1.045   3.137   0.987 -0.9298  1.3103 -1.6685
  358TIP3   OH222708   4.344   0.622   2.115 -0.0850 -0.3383 -0.0818
  358TIP3    H122709   4.337   0.550   2.177 -0.5624 -0.5212 -0.3424
  358TIP3    H222710   4.433   0.616   2.081 -0.6700 -1.9202 -1.4354
  359TIP3   OH222711   1.547   0.428   1.804 -0.2956  0.2330  0.2322
  359TIP3    H122712   1.621   0.395   1.753 -0.5716  1.2331 -0.8741
  359TIP3    H222713   1.585   0.456   1.887  0.5630  0.5861 -0.2614
  360TIP3   OH222714   3.226   0.696   0.882 -0.5128 -0.2989  0.6625
  360TIP3    H122715   3.140   0.716   0.918 -0.5178  1.4812 -0.1755
  360TIP3    H222716   3.267   0.782   0.871  1.1984 -1.0823  0.6316
  361TIP3   OH222717   5.703   4.291   7.355 -0.5001 -0.3826  0.5169
  361TIP3    H122718   5.712   4.360   7.289  2.1443  1.7805  2.8888
  361TIP3    H222719   5.750   4.216   7.318 -0.9564 -0.0132 -0.9006
  362TIP3   OH222720   5.600   1.036   8.183  0.3245 -0.5487  0.2587
  362TIP3    H122721   5.570   0.950   8.212  1.7810 -0.3536  2.5407
  362TIP3    H222722   5.551   1.098   8.237  0.3802  0.0148 -0.3214
  363TIP3   OH222723   2.440   0.479   1.518  0.1731 -0.0461 -0.0490
  363TIP3    H122724   2.405   0.422   1.450 -0.4936  0.8872 -0.5196
  363TIP3    H222725   2.459   0.561   1.472  0.7007  0.2569  0.6887
  364TIP3   OH222726   6.763   1.292   7.830 -0.1602 -0.0251  0.3682
  364TIP3    H122727   6.702   1.353   7.872  2.1411  1.1315  2.2723
  364TIP3    H222728   6.821   1.347   7.778  1.6477 -0.5609  1.7166
  365TIP3   OH222729   0.525   6.445   1.216  0.2364  0.0899 -0.0315
  365TIP3    H122730   0.527   6.516   1.152  2.2169  0.7256  0.6836
  365TIP3    H222731   0.495   6.369   1.166  1.2006  0.6915 -1.5820
  366TIP3   OH222732   4.842   4.120   2.013  0.1317  0.6859 -0.0357
  366TIP3    H122733   4.878   4.156   1.933  0.3139 -0.1316 -0.3284
  366TIP3    H222734   4.911   4.131   2.079 -0.4894  2.5415  0.3593
  367TIP3   OH222735   1.809   6.618   6.549  0.0339  0.1786  0.7265
  367TIP3    H122736   1.736   6.574   6.592 -0.7470  0.5529 -0.1702
  367TIP3    H222737   1.774   6.704   6.524  0.7416  0.3211  0.1856
  368TIP3   OH222738   2.795   1.894   0.715 -0.5246 -0.3923  0.6540
  368TIP3    H122739   2.705   1.926   0.715 -0.1339  0.8590 -0.7492
  368TIP3    H222740   2.829   1.918   0.801 -1.4250 -0.5564  1.0625
  369TIP3   OH222741   2.619   0.422   1.847 -0.2756  0.3085  0.0274
  369TIP3    H122742   2.590   0.332   1.853 -2.7756  1.1332  1.7786
  369TIP3    H222743   2.673   0.435   1.926  1.7063 -0.0855 -1.1750
  370TIP3   OH222744   3.935   3.788   6.796  0.3591  0.1109 -0.4307
  370TIP3    H122745   3.899   3.763   6.711 -0.3738 -0.1677 -0.0481
  370TIP3    H222746   3.896   3.726   6.857  2.3816 -0.9570 -0.1368
  371TIP3   OH222747   2.262   5.924   7.129 -0.3935  0.6016  0.1746
  371TIP3    H122748   2.216   5.974   7.197 -1.1694  0.4244 -0.1997
  371TIP3    H222749   2.203   5.851   7.110  1.3067 -1.2346  1.6245
  372TIP3   OH222750   0.907   4.858   1.995  0.0044 -0.0584 -0.1769
  372TIP3    H122751   0.996   4.892   2.007  0.3577 -0.4539 -1.5148
  372TIP3    H222752   0.857   4.897   2.067  0.8377  1.6470 -0.4575
  373TIP3   OH222753   6.100   0.299   1.075  0.0154  0.3687  0.1014
  373TIP3    H122754   6.159   0.229   1.101  0.6166  0.7805 -0.1114
  373TIP3    H222755   6.042   0.260   1.010  1.3420  0.4358 -1.1773
  374TIP3   OH222756   4.681   6.626   8.186  0.0953 -0.3814  0.0825
  374TIP3    H122757   4.633   6.645   8.105  0.5365 -2.3835 -0.7154
  374TIP3    H222758   4.651   6.538   8.211  0.2416  0.0419  1.9272
  375TIP3   OH222759   0.912   6.230   1.009  0.0765  0.4175 -0.2354
  375TIP3    H122760   0.823   6.245   0.978 -0.0346 -0.2083 -0.2369
  375TIP3    H222761   0.956   6.314   0.997 -0.4626  0.6832 -0.3991
  376TIP3   OH222762   0.732   6.294   0.782 -0.3615  0.5430 -0.1639
  376TIP3    H122763   0.763   6.260   0.698 -3.3249 -1.6301 -0.5437
  376TIP3    H222764   0.717   6.387   0.766 -2.1382 -0.0546 -2.5533
  377TIP3   OH222765   3.015   5.066   1.475 -0.2585 -0.3947  0.4534
  377TIP3    H122766   2.996   5.032   1.388  1.3233 -0.9573  0.3109
  377TIP3    H222767   3.041   4.990   1.527  0.1002  0.1187  1.0514
  378TIP3   OH222768   4.756   1.314   1.747 -0.4300 -0.0846  0.0157
  378TIP3    H122769   4.732   1.386   1.805 -0.6295 -1.0127  1.1264
  378TIP3    H222770   4.673   1.267   1.730 -0.1649 -0.5650  0.0220
  379TIP3   OH222771   6.555   5.239   2.266  0.0181  0.1998  0.0346
  379TIP3    H122772   6.606   5.320   2.256 -0.9871  0.9094  0.5342
  379TIP3    H222773   6.558   5.199   2.179  0.8838  0.5430 -0.1145
  380TIP3   OH222774   2.170   4.748   0.304 -0.0959 -0.5775 -0.2597
  380TIP3    H122775   2.236   4.706   0.248 -1.3908 -0.8080 -1.7074
  380TIP3    H222776   2.212   4.828   0.334  0.5724 -0.2739 -1.8624
  381TIP3   OH222777   1.287   6.800   7.925  0.2182  0.4093 -0.2013
  381TIP3    H122778   1.295   6.827   7.833 -0.7420 -0.3741 -0.5330
  381TIP3    H222779   1.193   6.805   7.943  0.2850 -0.4407  0.4277
  382TIP3   OH222780   4.569   6.423   6.937 -0.1310 -0.3170  0.1857
  382TIP3    H122781   4.475   6.424   6.922  0.0298  0.6281 -0.9044
  382TIP3    H222782   4.601   6.503   6.895  1.1033 -0.3818  0.9407
  383TIP3   OH222783   3.952   1.934   1.055 -0.3473  0.1459  0.2213
  383TIP3    H122784   3.871   1.977   1.027  0.3015  1.4763  0.3151
  383TIP3    H222785   4.020   1.975   1.001  0.3680 -0.3595  0.7337
  384TIP3   OH222786   1.889   4.232   7.660 -0.0120  0.8689  0.0676
  384TIP3    H122787   1.942   4.225   7.581  0.6260  2.1656  0.3380
  384TIP3    H222788   1.824   4.299   7.639  0.0769  1.1230  0.5775
  385TIP3   OH222789   1.259   5.944   6.254  0.1641 -0.3122  0.4461
  385TIP3    H122790   1.246   6.038   6.239  2.1768 -0.3765 -2.5236
  385TIP3    H222791   1.178   5.904   6.224 -0.2009  0.3822  0.4731
  386TIP3   OH222792   5.689   2.858   6.940  0.3876 -0.3349 -0.4605
  386TIP3    H122793   5.658   2.928   6.997  0.6910  0.3655 -1.1493
  386TIP3    H222794   5.620   2.848   6.874 -0.1478 -1.4127  0.2409
  387TIP3   OH222795   1.669   2.344   0.628 -0.3091 -0.5510  0.1428
  387TIP3    H122796   1.753   2.326   0.585  0.8768 -0.5631  2.2808
  387TIP3    H222797   1.603   2.325   0.562  1.3856 -0.1260 -1.7605
  388TIP3   OH222798   4.036   2.570   1.729  0.0543  0.2466  0.2111
  388TIP3    H122799   4.009   2.610   1.812 -1.3372 -0.7298  0.2776
  388TIP3    H222800   4.098   2.501   1.755 -1.2465 -0.8287  0.6043
  389TIP3   OH222801   0.539   2.068   7.561 -0.1280  0.0280 -0.3989
  389TIP3    H122802   0.449   2.063   7.529  0.2560 -0.3584 -1.4517
  389TIP3    H222803   0.589   2.013   7.501  1.1692  1.8821 -1.0892
  390TIP3   OH222804   4.465   5.029   1.851  0.1088 -0.0203  0.5355
  390TIP3    H122805   4.530   4.962   1.871 -0.9746 -0.8797  1.3251
  390TIP3    H222806   4.388   5.003   1.901 -1.2264  0.3298 -1.2318
  391TIP3   OH222807   5.584   6.471   7.474 -0.1089  0.0391  0.2081
  391TIP3    H122808   5.587   6.400   7.410  0.5971  0.2039  0.0438
  391TIP3    H222809   5.662   6.457   7.528  0.3895  1.0422 -0.2241
  392TIP3   OH222810   2.497   3.074   6.590  0.5782  0.1221 -0.1659
  392TIP3    H122811   2.485   3.161   6.629  0.2575  0.2741 -0.5909
  392TIP3    H222812   2.589   3.054   6.604  0.8395  0.8610 -0.7184
  393TIP3   OH222813   0.774   6.648   8.083 -0.7884 -0.3655  0.3391
  393TIP3    H122814   0.696   6.688   8.122 -1.6883  0.9903 -2.5952
  393TIP3    H222815   0.743   6.565   8.047 -0.4855 -0.5909  0.5989
  394TIP3   OH222816   1.920   2.924   0.551 -0.4272 -0.0518 -0.5286
  394TIP3    H122817   1.999   2.972   0.578 -1.2738  0.5330  1.0126
  394TIP3    H222818   1.943   2.888   0.465  0.7849  1.8640 -1.0867
  395TIP3   OH222819   2.409   6.095   7.491 -0.2951  0.8553  0.0910
  395TIP3    H122820   2.330   6.133   7.451 -1.1886  1.1564  2.0201
  395TIP3    H222821   2.452   6.168   7.534 -1.5920  0.0122  3.1401
  396TIP3   OH222822   3.810   0.540   0.911  0.2337  0.0147  0.1684
  396TIP3    H122823   3.755   0.601   0.862  0.5027 -1.8081 -2.6243
  396TIP3    H222824   3.899   0.569   0.893  0.3237  0.1105  0.7336
  397TIP3   OH222825   1.491   2.429   2.420 -0.2486 -0.3240  0.3763
  397TIP3    H122826   1.414   2.391   2.462  0.6412 -1.1466  1.3160
  397TIP3    H222827   1.460   2.513   2.385 -2.7237 -2.4509 -3.2050
  398TIP3   OH222828   3.121   5.521   1.897 -0.3969 -0.1983 -0.3236
  398TIP3    H122829   3.066   5.584   1.850  2.0699  2.5642  0.1909
  398TIP3    H222830   3.059   5.463   1.940 -2.9592  2.6131  0.1253
  399TIP3   OH222831   6.346   3.448   7.194  0.1312 -0.3127  0.0960
  399TIP3    H122832   6.267   3.420   7.148 -0.2547 -0.4637  0.8331
  399TIP3    H222833   6.412   3.457   7.125 -0.3489 -0.8204 -0.4453
  400TIP3   OH222834   3.055   0.275   1.161 -0.1048 -0.1553 -0.0258
  400TIP3    H122835   3.007   0.203   1.120 -0.1122  0.0811 -0.4417
  400TIP3    H222836   3.035   0.267   1.254  0.9507 -1.4727  0.1029
  401TIP3   OH222837   1.179   6.288   8.614 -0.2891 -0.0040 -0.0238
  401TIP3    H122838   1.154   6.366   8.663 -0.2464 -0.2307  0.3567
  401TIP3    H222839   1.273   6.279   8.629 -0.3400 -0.2746  0.1425
  402TIP3   OH222840   5.834   5.116   0.848  0.2364  0.1341 -0.6630
  402TIP3    H122841   5.844   5.211   0.857 -2.2961  0.2806  2.1492
  402TIP3    H222842   5.759   5.105   0.789 -0.0376 -0.0549 -0.2886
  403TIP3   OH222843   4.804   4.641   8.035 -0.3297 -0.1658  0.0218
  403TIP3    H122844   4.804   4.662   7.942 -1.2973 -1.1454 -0.2329
  403TIP3    H222845   4.735   4.696   8.072  0.2784  0.4672  0.2355
  404TIP3   OH222846   4.683   5.529   6.649  0.1938 -0.0199 -0.0335
  404TIP3    H122847   4.760   5.565   6.605  0.1914 -0.0190 -0.0369
  404TIP3    H222848   4.626   5.604   6.664 -0.0843 -0.1096 -0.5850
  405TIP3   OH222849   6.274   3.198   0.249  0.7084  0.2858  0.6452
  405TIP3    H122850   6.260   3.292   0.259 -0.6963  0.3699 -1.4139
  405TIP3    H222851   6.358   3.191   0.204 -0.0659  0.7118 -0.9316
  406TIP3   OH222852   1.128   5.702   7.213 -0.0699  0.5540  0.2029
  406TIP3    H122853   1.207   5.753   7.194  0.0729  0.7908  1.3704
  406TIP3    H222854   1.161   5.622   7.253 -0.3883  0.3424  0.0408
  407TIP3   OH222855   5.085   1.859   7.632 -0.0474 -0.6863 -0.2311
  407TIP3    H122856   5.024   1.849   7.558  0.7716  0.0446 -1.0200
  407TIP3    H222857   5.172   1.846   7.593  0.4180  0.0501  0.5449
  408TIP3   OH222858   1.748   6.642   6.970  0.6633 -0.1932 -0.1472
  408TIP3    H122859   1.752   6.565   6.913  0.6499  0.5599 -1.2104
  408TIP3    H222860   1.665   6.684   6.948  0.5008 -0.0558  0.6841
  409TIP3   OH222861   2.934   1.003   1.453  0.2543  0.0870  0.1916
  409TIP3    H122862   2.930   0.907   1.448 -0.2587  0.0784  0.6347
  409TIP3    H222863   2.842   1.030   1.461  0.0181  0.8452 -3.4727
  410TIP3   OH222864   0.769   3.841   0.558  0.1610 -0.0997 -0.0347
  410TIP3    H122865   0.736   3.759   0.521  1.5244 -2.2121  3.0395
  410TIP3    H222866   0.794   3.819   0.647  2.1162  3.3325  0.4446
  411TIP3   OH222867   0.471   2.445   0.263 -0.5197 -0.2559  0.1421
  411TIP3    H122868   0.417   2.415   0.190 -0.1115 -0.5214 -0.0560
  411TIP3    H222869   0.464   2.375   0.328  0.1027 -0.5983 -0.1515
  412TIP3   OH222870   5.107   4.029   6.542  0.4362 -0.3763 -0.2356
  412TIP3    H122871   5.111   3.948   6.592 -1.7110 -0.3683  0.0525
  412TIP3    H222872   5.061   4.005   6.461  1.5506  0.1634 -1.0567
  413TIP3   OH222873   1.177   1.820   0.826 -0.5060  0.3506  0.2970
  413TIP3    H122874   1.117   1.777   0.887 -1.7174 -0.0370 -1.1254
  413TIP3    H222875   1.218   1.889   0.878 -1.2155 -0.2090  1.6491
  414TIP3   OH222876   0.889   0.901   7.692  0.3213  0.3954  0.4111
  414TIP3    H122877   0.854   0.973   7.640 -3.7422 -2.0732 -0.7246
  414TIP3    H222878   0.896   0.828   7.630  3.7566 -0.4468  1.6208
  415TIP3   OH222879   4.854   6.018   8.129 -0.6361  0.0920  0.7731
  415TIP3    H122880   4.924   5.961   8.098 -0.0720  0.4221  1.4136
  415TIP3    H222881   4.795   5.961   8.176 -1.1848 -0.3124 -0.3775
  416TIP3   OH222882   2.454   5.401   1.268 -0.3054  0.4818 -0.6868
  416TIP3    H122883   2.471   5.368   1.179 -0.9799 -1.2788 -0.2041
  416TIP3    H222884   2.534   5.384   1.316 -0.5781 -0.3031 -0.4947
  417TIP3   OH222885   2.094   6.289   1.628  0.2532  0.1851  0.1469
  417TIP3    H122886   2.097   6.195   1.607 -0.9922  0.3418 -0.8185
  417TIP3    H222887   2.123   6.333   1.548 -1.0435  0.6672 -0.0845
  418TIP3   OH222888   2.168   0.534   5.836 -0.2177 -0.1616 -0.2184
  418TIP3    H122889   2.171   0.548   5.931  2.4409 -0.2665 -0.2153
  418TIP3    H222890   2.192   0.443   5.824 -1.9036 -0.5486 -0.9904
  419TIP3   OH222891   5.950   3.353   6.877  0.3276  0.1198 -0.4784
  419TIP3    H122892   5.966   3.392   6.792 -1.0768 -0.6710 -1.1319
  419TIP3    H222893   5.877   3.402   6.914 -0.1597 -0.5917 -0.4650
  420TIP3   OH222894   2.813   0.535   8.063 -0.3321  0.0222 -0.8422
  420TIP3    H122895   2.733   0.579   8.035  1.0134  2.2696 -1.4568
  420TIP3    H222896   2.879   0.561   7.998  2.0727  2.4688  2.2342
  421TIP3   OH222897   2.293   5.897   0.319 -0.3867 -0.1566  0.4443
  421TIP3    H122898   2.299   5.985   0.283  0.9046  0.1360  1.2780
  421TIP3    H222899   2.217   5.899   0.377 -0.0778  0.5747  0.8387
  422TIP3   OH222900   6.047   2.297   0.552  0.7438 -0.7728  0.5767
  422TIP3    H122901   6.060   2.234   0.481  1.9446  0.9452 -0.8462
  422TIP3    H222902   6.095   2.260   0.626 -1.9624 -3.4547  1.1545
  423TIP3   OH222903   0.315   5.069   6.514  0.8319 -0.6726  0.1171
  423TIP3    H122904   0.289   5.097   6.427 -0.3928 -0.5116  0.5263
  423TIP3    H222905   0.379   4.999   6.498  0.4846 -0.7755 -0.8958
  424TIP3   OH222906   1.494   5.672   0.538 -0.2046 -0.1669  0.6735
  424TIP3    H122907   1.489   5.764   0.509 -2.0380 -0.2257  0.6982
  424TIP3    H222908   1.413   5.633   0.507 -0.2591 -1.3418  2.1897
  425TIP3   OH222909   4.568   3.993   1.153 -0.0123  0.3717 -0.2288
  425TIP3    H122910   4.522   3.909   1.158  0.4391  0.1340  0.0547
  425TIP3    H222911   4.517   4.051   1.209  0.6604 -0.2072  1.0486
  426TIP3   OH222912   2.871   1.166   0.572 -0.5561  0.4339  0.2214
  426TIP3    H122913   2.912   1.103   0.632  1.0170  0.7839 -0.4378
  426TIP3    H222914   2.932   1.172   0.498 -1.7476  1.0993 -0.7500
  427TIP3   OH222915   3.275   4.435   1.445  0.2573  0.0277  0.2262
  427TIP3    H122916   3.286   4.520   1.487  2.8822 -1.0587  1.9416
  427TIP3    H222917   3.258   4.456   1.353 -1.5583  2.3956  1.0128
  428TIP3   OH222918   2.644   2.218   8.115 -0.3683 -0.4149  0.2816
  428TIP3    H122919   2.629   2.260   8.200 -0.9639 -0.2420  0.0928
  428TIP3    H222920   2.594   2.136   8.120 -1.8058  0.3741 -0.5189
  429TIP3   OH222921   6.201   0.881   6.978  0.0429  0.2930 -0.0348
  429TIP3    H122922   6.110   0.855   6.964  0.2724 -1.3711  1.2783
  429TIP3    H222923   6.205   0.909   7.070  1.0171 -0.4706  0.1774
  430TIP3   OH222924   4.034   5.391   1.501  0.0851  0.2674  0.0793
  430TIP3    H122925   3.963   5.454   1.485 -1.0293 -1.6317 -3.5084
  430TIP3    H222926   4.061   5.409   1.591 -3.6317  2.3950  1.0178
  431TIP3   OH222927   5.225   4.321   6.983  0.1431  0.2259  0.4666
  431TIP3    H122928   5.268   4.385   6.926 -0.9661  0.7183  0.1508
  431TIP3    H222929   5.268   4.332   7.068  0.5734  0.7739  0.1878
  432TIP3   OH222930   0.521   5.888   6.859  0.0675  0.0418 -0.1396
  432TIP3    H122931   0.465   5.823   6.903  1.9359 -1.0394  0.7920
  432TIP3    H222932   0.472   5.970   6.866 -1.7283 -0.9624 -0.0595
  433TIP3   OH222933   2.193   5.813   1.125  0.7632  0.3549  0.5928
  433TIP3    H122934   2.133   5.761   1.072  0.1224  0.1450  1.4948
  433TIP3    H222935   2.255   5.750   1.161  1.2282  0.5039  0.0683
  434TIP3   OH222936   2.663   3.336   0.108  0.2031 -0.0743  0.4272
  434TIP3    H122937   2.676   3.429   0.127  1.8231 -0.4606  1.4000
  434TIP3    H222938   2.568   3.324   0.111 -0.1828  1.8861 -1.5708
  435TIP3   OH222939   3.507   6.675   0.834  0.4881  0.0919  0.1770
  435TIP3    H122940   3.473   6.688   0.746 -0.0948  1.8964  0.6198
  435TIP3    H222941   3.473   6.590   0.861  0.8220 -0.5721 -1.3766
  436TIP3   OH222942   4.301   2.178   8.326 -0.5373  0.2921  0.3935
  436TIP3    H122943   4.259   2.093   8.335  0.3638 -0.1257  0.7923
  436TIP3    H222944   4.245   2.238   8.375 -0.8964 -0.1680  0.5493
  437TIP3   OH222945   4.354   3.724   1.450  0.0002  0.1670  0.2577
  437TIP3    H122946   4.341   3.703   1.542  1.0403  1.6482  0.7747
  437TIP3    H222947   4.448   3.723   1.438  0.0347  2.6615 -0.0889
  438TIP3   OH222948   4.424   4.750   0.587 -0.1025  0.1510 -0.5308
  438TIP3    H122949   4.414   4.835   0.629  0.4440  0.2900 -0.6789
  438TIP3    H222950   4.400   4.687   0.655  1.0953  0.3566  0.1170
  439TIP3   OH222951   3.414   2.845   0.084  0.8668  0.1243  0.1479
  439TIP3    H122952   3.417   2.934   0.118 -0.8898  0.6573 -0.9371
  439TIP3    H222953   3.321   2.821   0.087  1.0571 -0.9700 -1.2626
  440TIP3   OH222954   5.550   2.465   0.816 -0.3679  0.3329  0.4072
  440TIP3    H122955   5.632   2.419   0.832  0.2776  1.9095  1.9327
  440TIP3    H222956   5.523   2.436   0.728  0.4260 -2.1950  0.9086
  441TIP3   OH222957   5.218   3.900   7.661  0.4449  0.2318 -0.4210
  441TIP3    H122958   5.178   3.846   7.729  1.4747  0.8653  0.7354
  441TIP3    H222959   5.186   3.863   7.579 -1.0438 -0.3855  0.4053
  442TIP3   OH222960   4.067   6.402   1.645  0.1916 -0.4794 -0.3769
  442TIP3    H122961   3.998   6.337   1.627 -0.8705  0.3379  0.6266
  442TIP3    H222962   4.124   6.359   1.709 -1.4360  0.1043  1.5815
  443TIP3   OH222963   3.524   0.774   7.778  0.9105  0.0867  0.7343
  443TIP3    H122964   3.610   0.800   7.811  1.8911 -1.3340 -0.5826
  443TIP3    H222965   3.511   0.828   7.701  1.4518 -0.9357 -0.0919
  444TIP3   OH222966   2.014   1.779   0.463  0.6916 -0.2348  0.0625
  444TIP3    H122967   2.015   1.753   0.555 -2.4487  1.8195  0.8443
  444TIP3    H222968   1.992   1.700   0.415  1.1368 -1.0651  1.1945
  445TIP3   OH222969   3.977   4.775   0.872 -0.0499 -0.3380 -0.3875
  445TIP3    H122970   3.969   4.800   0.780  1.1908 -0.2365 -0.4861
  445TIP3    H222971   4.066   4.741   0.880  0.2445  0.6664  0.9965
  446TIP3   OH222972   1.664   6.838   0.899 -0.0386 -0.0911 -0.2434
  446TIP3    H122973   1.691   6.928   0.917 -2.6277  0.8415 -0.5464
  446TIP3    H222974   1.736   6.801   0.848  0.1469  2.6124 -2.1984
  447TIP3   OH222975   6.719   3.063   8.156 -0.0416 -0.6568  0.1015
  447TIP3    H122976   6.804   3.064   8.200 -0.7346 -0.7673  1.4696
  447TIP3    H222977   6.730   3.123   8.082  0.6374  0.9132  1.4166
  448TIP3   OH222978   4.066   4.279   7.821 -0.3917 -0.2652  0.1942
  448TIP3    H122979   4.115   4.260   7.901 -0.8261 -0.5191  0.4036
  448TIP3    H222980   4.020   4.361   7.840  1.4988  1.0807 -0.7151
  449TIP3   OH222981   4.516   2.958   0.720  0.6263 -0.3259  0.5976
  449TIP3    H122982   4.596   3.009   0.731  0.0929  0.5028  0.7222
  449TIP3    H222983   4.494   2.968   0.627  0.1365  0.2783  0.7686
  450TIP3   OH222984   4.846   3.819   8.120  0.1137  0.6793 -0.1928
  450TIP3    H122985   4.898   3.742   8.141  1.2897  1.6057  0.4731
  450TIP3    H222986   4.780   3.788   8.058  1.1311 -0.6579 -0.6520
  451TIP3   OH222987   3.418   3.897   1.542  0.2512 -0.2340 -0.4309
  451TIP3    H122988   3.430   3.807   1.510  2.3744 -0.5680  1.0080
  451TIP3    H222989   3.409   3.950   1.464 -1.0603 -1.6878 -1.3238
  452TIP3   OH222990   2.396   1.308   0.181 -0.2039 -0.0422  0.5360
  452TIP3    H122991   2.340   1.370   0.229 -0.0545  1.1422 -0.7557
  452TIP3    H222992   2.484   1.342   0.192 -0.1841  0.3278 -0.6636
  453TIP3   OH222993   3.811   5.064   0.620  0.2228 -0.1586  0.0123
  453TIP3    H122994   3.810   5.035   0.529  0.9361  0.9179 -0.3475
  453TIP3    H222995   3.890   5.024   0.657  1.5314  1.7186 -0.6417
  454TIP3   OH222996   1.226   5.682   0.350  0.1399  0.2144 -0.1959
  454TIP3    H122997   1.248   5.747   0.283  2.2367 -1.8807 -1.7180
  454TIP3    H222998   1.169   5.620   0.305  1.7503 -1.3381 -0.1985
  455TIP3   OH222999   4.960   5.403   0.502  0.5183 -0.1292  0.0205
  455TIP3    H123000   4.923   5.315   0.489 -0.1356 -0.0255  1.0919
  455TIP3    H223001   4.999   5.400   0.589  2.9304 -0.1637 -0.9910
  456TIP3   OH223002   6.498   0.890   2.330  0.5955 -0.0608  0.1140
  456TIP3    H123003   6.583   0.933   2.321 -0.1314  1.3962 -0.1412
  456TIP3    H223004   6.437   0.962   2.348 -0.2438 -1.2944  2.7631
  457TIP3   OH223005   3.021   2.654   1.102 -0.2324  0.2754  0.0699
  457TIP3    H123006   3.009   2.743   1.068  1.1305  0.3766 -0.1827
  457TIP3    H223007   3.112   2.632   1.082  0.2864 -0.1337  2.5860
  458TIP3   OH223008   0.048   4.086   6.555 -0.2715 -0.1880 -0.1186
  458TIP3    H123009  -0.028   4.091   6.497 -0.3368 -0.7678 -0.0884
  458TIP3    H223010   0.064   3.992   6.566 -0.1763 -0.0855  0.6931
  459TIP3   OH223011   4.055   5.911   6.825 -0.1157  0.0643  0.0972
  459TIP3    H123012   4.133   5.948   6.866 -0.2427 -0.0815  0.4727
  459TIP3    H223013   4.064   5.816   6.836  0.2693 -0.0367 -0.9703
  460TIP3   OH223014   5.352   2.633   7.857 -0.2860 -0.1400 -0.3582
  460TIP3    H123015   5.404   2.578   7.799 -0.2689 -0.7965  0.2588
  460TIP3    H223016   5.323   2.574   7.926 -1.1079  0.4148 -0.2133
  461TIP3   OH223017   5.561   1.382   6.839  0.1187  0.2158 -0.3854
  461TIP3    H123018   5.581   1.341   6.923  0.8322  2.2042  0.4821
  461TIP3    H223019   5.465   1.384   6.836  0.0571 -1.3651 -0.4342
  462TIP3   OH223020   5.824   6.080   7.097 -0.3661  0.3525 -0.0723
  462TIP3    H123021   5.860   6.075   7.009  0.3062 -1.1095  0.2474
  462TIP3    H223022   5.823   6.173   7.118  0.5005  0.6347 -1.2013
  463TIP3   OH223023   4.393   1.735   8.034  0.2282 -0.3583  0.1509
  463TIP3    H123024   4.416   1.721   7.942 -0.0214 -0.8895  0.1662
  463TIP3    H223025   4.404   1.830   8.047 -0.1600 -0.2056 -0.5443
  464TIP3   OH223026   1.800   1.994   8.182 -0.3891  0.0339  0.4661
  464TIP3    H123027   1.855   2.014   8.107  0.6199 -0.6969  0.9923
  464TIP3    H223028   1.771   1.904   8.168 -0.6011  0.0616  0.7076
  465TIP3   OH223029   3.492   1.286   2.056  0.0534 -0.1107 -0.1134
  465TIP3    H123030   3.545   1.348   2.006  0.3310 -1.0377 -0.9931
  465TIP3    H223031   3.414   1.336   2.081  0.7416  0.8949  0.1172
  466TIP3   OH223032   5.217   5.258   6.261 -0.0672 -0.6491 -0.1410
  466TIP3    H123033   5.251   5.283   6.175 -1.3050 -0.9734 -0.7501
  466TIP3    H223034   5.294   5.250   6.317  0.6421  1.1033 -0.8136
  467TIP3   OH223035   3.394   2.110   0.719 -0.6008  0.5234 -0.1550
  467TIP3    H123036   3.364   2.199   0.701  0.6764  1.1032  0.4323
  467TIP3    H223037   3.463   2.095   0.653 -0.1831  0.3249  0.3208
  468TIP3   OH223038   2.172   3.987   7.334  0.0682  0.0934  0.2165
  468TIP3    H123039   2.194   3.900   7.301 -0.2136  0.2348 -0.3759
  468TIP3    H223040   2.231   4.001   7.408  0.1906 -0.5535  0.2478
  469TIP3   OH223041   3.583   0.030   1.449 -0.0989 -0.0875  0.0763
  469TIP3    H123042   3.514   0.096   1.442  0.4460  0.3191 -2.3404
  469TIP3    H223043   3.663   0.080   1.465 -0.1705 -0.4777  1.8017
  470TIP3   OH223044   6.754   4.357   7.291 -0.7749 -0.6553  0.2175
  470TIP3    H123045   6.839   4.400   7.288 -0.1924 -1.5496  2.2625
  470TIP3    H223046   6.696   4.423   7.331 -0.3674 -0.9903  1.4030
  471TIP3   OH223047   2.956   5.571   7.226  0.1373 -0.0894 -0.1504
  471TIP3    H123048   3.008   5.591   7.148 -1.0689  0.8639 -0.7497
  471TIP3    H223049   3.018   5.577   7.299  0.5284  2.8357 -0.6284
  472TIP3   OH223050   0.334   2.309   1.673  0.0562 -0.2098 -0.1065
  472TIP3    H123051   0.400   2.378   1.665  0.1421 -0.1939  0.6192
  472TIP3    H223052   0.252   2.352   1.649  0.0819  0.2073  0.5062
  473TIP3   OH223053   2.081   5.432   1.069 -0.0150  0.2846  0.2918
  473TIP3    H123054   2.155   5.468   1.020 -1.5134 -1.0535 -3.3034
  473TIP3    H223055   2.122   5.377   1.137  2.2498  0.9337 -0.4480
  474TIP3   OH223056   3.395   5.983   8.018 -0.6602 -0.4687  0.3091
  474TIP3    H123057   3.400   6.076   8.040 -0.0934 -0.5311  0.4753
  474TIP3    H223058   3.424   5.977   7.927  1.1560 -0.6730  0.8472
  475TIP3   OH223059   5.329   6.821   7.683 -0.2389  0.5613 -1.0986
  475TIP3    H123060   5.350   6.767   7.607  1.5894  0.1190 -0.3197
  475TIP3    H223061   5.370   6.905   7.665 -1.4703  1.1038 -1.4542
  476TIP3   OH223062   0.360   6.431   6.706 -0.0775  0.4501 -0.2393
  476TIP3    H123063   0.311   6.507   6.737  0.3391  0.5584  0.1577
  476TIP3    H223064   0.440   6.467   6.669  0.0246  0.2183 -0.2481
  477TIP3   OH223065   4.837   1.965   2.448  0.4309  0.1203 -0.2271
  477TIP3    H123066   4.759   1.940   2.398 -1.2825  0.3195  2.1740
  477TIP3    H223067   4.833   1.911   2.527  2.1388  0.9541  0.4756
  478TIP3   OH223068   6.228   0.664   0.787 -0.3488  0.0373  0.4816
  478TIP3    H123069   6.139   0.647   0.817 -0.8791 -0.4673 -1.2491
  478TIP3    H223070   6.241   0.758   0.802 -0.5521 -0.1849  2.2248
  479TIP3   OH223071   4.322   6.032   1.421  0.0044  0.5072 -0.2583
  479TIP3    H123072   4.247   6.092   1.418 -0.4840 -0.1049 -0.5887
  479TIP3    H223073   4.286   5.948   1.394  1.2888  0.6766 -2.7967
  480TIP3   OH223074   1.710   4.108   8.494 -0.4134  0.0917 -0.5148
  480TIP3    H123075   1.671   4.075   8.414  1.2790 -1.8371 -0.6168
  480TIP3    H223076   1.659   4.068   8.564 -0.6725  0.2124 -0.6352
  481TIP3   OH223077   0.946   3.310   0.718  0.1128  0.0161 -0.0124
  481TIP3    H123078   0.991   3.383   0.676  2.1327 -0.7076  0.7853
  481TIP3    H223079   0.920   3.344   0.804 -1.5922  0.6434 -0.7166
  482TIP3   OH223080   3.493   5.991   2.238 -0.2892  0.5284 -0.0687
  482TIP3    H123081   3.464   6.047   2.166 -1.3022  0.3884  0.2109
  482TIP3    H223082   3.548   6.047   2.292  0.9846  0.4773 -1.2480
  483TIP3   OH223083   0.020   2.821   6.949  0.3541 -0.3789 -0.2806
  483TIP3    H123084  -0.045   2.784   7.009  0.6777  1.5082  1.3354
  483TIP3    H223085   0.103   2.816   6.998  0.3611  2.6767  0.2175
  484TIP3   OH223086   6.676   3.433   0.530 -0.0626 -0.3319  0.2218
  484TIP3    H123087   6.728   3.362   0.567  0.7275  0.4320  0.6238
  484TIP3    H223088   6.726   3.512   0.551 -1.2445  0.4000  0.3619
  485TIP3   OH223089   1.742   0.378   1.332 -0.5500  0.5275  0.1851
  485TIP3    H123090   1.714   0.302   1.282  0.8900  0.9606 -1.3803
  485TIP3    H223091   1.744   0.449   1.268 -0.0862  1.4455  1.1900
  486TIP3   OH223092   4.143   5.169   1.416 -0.1374 -0.3535 -0.0455
  486TIP3    H123093   4.220   5.183   1.471  0.2544  1.6460 -0.9840
  486TIP3    H223094   4.089   5.246   1.432 -0.0091  0.3078 -2.3711
  487TIP3   OH223095   4.374   0.098   8.139  0.3662 -0.4163  0.0457
  487TIP3    H123096   4.280   0.103   8.120  0.7935  1.0556 -2.0254
  487TIP3    H223097   4.381   0.030   8.206 -2.0738 -1.1658 -0.3463
  488TIP3   OH223098   2.601   1.490   0.209 -0.5114  0.1183 -0.2941
  488TIP3    H123099   2.599   1.552   0.136  0.1275 -1.0125 -1.3097
  488TIP3    H223100   2.622   1.543   0.285  0.9098  1.0279 -1.2769
  489TIP3   OH223101   1.604   5.448   7.137  0.4045 -0.3148  0.3931
  489TIP3    H123102   1.569   5.369   7.096 -0.4975  0.4318 -0.3122
  489TIP3    H223103   1.640   5.498   7.063 -0.3160  0.5778  0.6308
  490TIP3   OH223104   2.002   2.802   1.040  0.5729 -0.5444  0.0943
  490TIP3    H123105   1.983   2.814   1.133 -0.4519  1.6352 -0.3297
  490TIP3    H223106   2.097   2.811   1.034  0.4763  1.3102  0.7266
  491TIP3   OH223107   3.424   6.224   6.728  0.2964  0.0030 -0.4361
  491TIP3    H123108   3.362   6.287   6.762  1.4750  0.1058  1.6634
  491TIP3    H223109   3.434   6.248   6.635 -1.9630  0.5927 -0.5777
  492TIP3   OH223110   1.095   3.358   8.695 -0.2084 -0.8203 -0.8506
  492TIP3    H123111   1.144   3.350   8.614  1.3877  0.6793 -0.1093
  492TIP3    H223112   1.137   3.431   8.741 -2.9432  0.3428  0.0039
  493TIP3   OH223113   5.592   5.627   1.282 -0.3459  0.1383 -0.9120
  493TIP3    H123114   5.687   5.637   1.292 -0.5536  1.8886 -0.2624
  493TIP3    H223115   5.559   5.612   1.370 -0.9008  2.4302 -0.6450
  494TIP3   OH223116   2.804   0.942   1.174  0.1968  0.6265 -0.5790
  494TIP3    H123117   2.850   1.020   1.143  0.4932  0.2222 -1.1829
  494TIP3    H223118   2.719   0.973   1.204  1.3282  1.6375  1.9103
  495TIP3   OH223119   0.278   0.942   8.371 -0.1446 -0.1371  0.6500
  495TIP3    H123120   0.257   0.867   8.427  0.5512 -0.5004  0.4353
  495TIP3    H223121   0.349   0.986   8.417 -1.1469  0.9257  1.2300
  496TIP3   OH223122   4.841   0.003   7.808 -0.2413 -0.1414 -0.3027
  496TIP3    H123123   4.843   0.041   7.896  1.9270  0.5774 -0.5922
  496TIP3    H223124   4.852   0.078   7.750  0.3845 -0.8193 -1.0745
  497TIP3   OH223125   4.143   4.924   7.349  0.4368 -0.1240  0.6294
  497TIP3    H123126   4.207   4.948   7.416  1.0531 -0.2628  0.1082
  497TIP3    H223127   4.194   4.873   7.285 -0.0674  0.2766 -0.0978
  498TIP3   OH223128   3.987   4.217   1.620 -0.4495 -0.2027 -0.0823
  498TIP3    H123129   3.909   4.250   1.664  0.6817  0.9234  1.2005
  498TIP3    H223130   3.987   4.261   1.534 -1.2011 -0.1924 -0.0781
  499TIP3   OH223131   1.628   6.144   8.369 -0.0013 -0.0089  0.5370
  499TIP3    H123132   1.598   6.227   8.331 -1.7486  0.1914  2.1821
  499TIP3    H223133   1.684   6.106   8.302  0.9479  2.5384 -0.2419
  500TIP3   OH223134   0.067   1.077   7.757  0.0447  0.0761 -0.4228
  500TIP3    H123135   0.069   0.989   7.720 -1.2482 -1.2098  2.2510
  500TIP3    H223136  -0.026   1.093   7.774  0.5307  0.3616  2.4560
  501TIP3   OH223137   2.540   2.180   1.206 -0.1904  0.0527  0.1048
  501TIP3    H123138   2.468   2.132   1.248  1.1135  1.0943  3.9435
  501TIP3    H223139   2.502   2.266   1.186 -0.1051  0.6747  2.3129
  502TIP3   OH223140   6.420   0.636   2.358 -0.0727  0.6303  0.7784
  502TIP3    H123141   6.451   0.727   2.365 -0.0251  0.7732 -0.9497
  502TIP3    H223142   6.342   0.641   2.303  0.0181 -0.4069  0.5328
  503TIP3   OH223143   0.134   1.519   7.242 -0.0249 -0.1291 -0.4430
  503TIP3    H123144   0.094   1.498   7.158 -3.1102  0.9301  0.6222
  503TIP3    H223145   0.157   1.434   7.279 -0.8386 -0.7740 -1.3490
  504TIP3   OH223146   1.365   6.024   8.350  0.4685 -0.1898 -0.0332
  504TIP3    H123147   1.352   5.950   8.290  0.7123  0.2031 -0.5730
  504TIP3    H223148   1.452   6.057   8.329 -0.3889  1.4636 -1.1479
  505TIP3   OH223149   1.112   3.253   2.104  0.6123  0.0024  0.1255
  505TIP3    H123150   1.078   3.326   2.053  0.8755 -1.5307 -2.4251
  505TIP3    H223151   1.033   3.209   2.137  0.3977  0.4498  0.2185
  506TIP3   OH223152   2.237   0.636   7.156 -0.1268 -0.0803  0.5556
  506TIP3    H123153   2.261   0.653   7.247  1.1341 -0.3973  0.3049
  506TIP3    H223154   2.280   0.553   7.136 -2.6156 -1.4578  0.4742
  507TIP3   OH223155   1.477   5.295   6.952  0.3351 -0.4224 -0.0354
  507TIP3    H123156   1.421   5.372   6.943  0.9118  0.2703  1.8158
  507TIP3    H223157   1.474   5.252   6.866  1.1983  2.4662 -1.6305
  508TIP3   OH223158   5.645   1.749   0.672  0.2185  0.1019 -0.0959
  508TIP3    H123159   5.737   1.775   0.667  1.6718 -4.4531 -2.9017
  508TIP3    H223160   5.608   1.773   0.587 -0.0532 -1.3073 -0.4086
  509TIP3   OH223161   1.156   1.396   1.340  0.4789  0.2968  0.8324
  509TIP3    H123162   1.209   1.321   1.310  0.5897  0.3667  0.8542
  509TIP3    H223163   1.171   1.399   1.434  1.7426  1.3236  0.6347
  510TIP3   OH223164   5.319   2.082   0.539 -0.1004 -0.2165  0.4334
  510TIP3    H123165   5.299   2.000   0.496  0.4404  0.5062 -1.2821
  510TIP3    H223166   5.334   2.058   0.631  1.8204 -2.3358 -0.3283
  511TIP3   OH223167   1.290   6.221   8.090 -0.2573 -0.2238 -0.3838
  511TIP3    H123168   1.367   6.205   8.037  2.2230 -1.2286  3.1296
  511TIP3    H223169   1.262   6.134   8.118 -2.7961  0.1196 -1.5906
  512TIP3   OH223170   0.919   0.817   1.492 -0.4269 -0.0485 -0.2329
  512TIP3    H123171   0.967   0.753   1.545  0.7418  0.8779 -0.1521
  512TIP3    H223172   0.848   0.846   1.549  1.2490  1.4896  1.1795
  513TIP3   OH223173   3.476   4.101   0.642  0.4124 -0.2902  0.3703
  513TIP3    H123174   3.563   4.120   0.607  0.9268 -0.8627  1.2905
  513TIP3    H223175   3.437   4.040   0.579  0.3658  0.5760 -0.4498
  514TIP3   OH223176   3.087   4.570   6.008  1.1471  0.2098 -0.8039
  514TIP3    H123177   3.102   4.480   5.979 -0.2419  0.2852 -1.8446
  514TIP3    H223178   3.086   4.564   6.103 -2.0655 -1.5056 -0.8139
  515TIP3   OH223179   2.996   5.836   8.418 -0.6387  0.5920 -0.5565
  515TIP3    H123180   3.064   5.888   8.461  0.0909 -1.1634  0.5069
  515TIP3    H223181   2.940   5.806   8.490 -0.0763 -1.4375 -0.9139
  516TIP3   OH223182   4.471   1.106   2.450  0.1167 -0.0064  0.2646
  516TIP3    H123183   4.535   1.109   2.521  0.6338 -1.6412 -0.0958
  516TIP3    H223184   4.408   1.038   2.477 -1.4028  1.4272  0.5240
  517TIP3   OH223185   3.038   1.841   7.371 -0.1448  0.7413  0.3171
  517TIP3    H123186   3.047   1.753   7.406  0.6364  0.2324 -1.0614
  517TIP3    H223187   3.027   1.897   7.448  1.2884 -0.3329  1.3574
  518TIP3   OH223188   6.870   6.694   6.378 -0.0999 -0.1897  0.2826
  518TIP3    H123189   6.878   6.788   6.360 -0.6664 -0.4217 -1.3775
  518TIP3    H223190   6.782   6.671   6.348 -0.1233 -1.1724  1.0705
  519TIP3   OH223191   2.974   3.755   1.812  0.5920  0.4492  0.9759
  519TIP3    H123192   3.070   3.756   1.817  0.5843 -0.3969  1.3892
  519TIP3    H223193   2.953   3.672   1.770  0.1015  1.5014 -1.0042
  520TIP3   OH223194   5.490   2.573   1.317  0.0611 -0.5056 -0.2799
  520TIP3    H123195   5.568   2.541   1.272 -0.0718 -0.3537 -0.6237
  520TIP3    H223196   5.504   2.550   1.408  0.9075  0.2753 -0.1946
  521TIP3   OH223197   2.761   0.278   0.025 -0.5876  0.2907  0.2184
  521TIP3    H123198   2.745   0.275  -0.070 -0.3005 -1.1524  0.1911
  521TIP3    H223199   2.679   0.249   0.064 -0.2553 -0.5191  0.3388
  522TIP3   OH223200   5.905   1.581   8.556  0.6708 -0.7130  0.2287
  522TIP3    H123201   5.871   1.608   8.471 -1.9522 -1.1253  1.0409
  522TIP3    H223202   5.912   1.662   8.607  1.0489 -0.6150  0.0263
  523TIP3   OH223203   1.653   4.402   7.577 -0.0234  0.2418 -0.4339
  523TIP3    H123204   1.676   4.421   7.668 -0.9912  0.2791 -0.1907
  523TIP3    H223205   1.708   4.461   7.526  1.6417 -0.8103  0.0317
  524TIP3   OH223206   2.613   5.696   0.054 -0.3052  0.3356 -0.0824
  524TIP3    H123207   2.542   5.760   0.057 -1.3881 -0.8038  3.8260
  524TIP3    H223208   2.627   5.671   0.145  3.0911 -1.7727 -0.9961
  525TIP3   OH223209   6.371   3.358   1.915 -0.0486  0.2755  0.1911
  525TIP3    H123210   6.374   3.454   1.909  0.7105  0.3517  1.3905
  525TIP3    H223211   6.303   3.341   1.981  0.4968  0.0374  0.7001
  526TIP3   OH223212   1.131   4.002   1.096  0.6158 -0.5603 -0.0641
  526TIP3    H123213   1.062   3.941   1.122  1.0132 -0.5641  1.0289
  526TIP3    H223214   1.136   4.065   1.168 -0.2509  1.2065 -1.4700
  527TIP3   OH223215   0.158   6.334   1.298 -0.3895 -0.4470 -0.0495
  527TIP3    H123216   0.217   6.366   1.229  2.9165 -1.0993  2.2065
  527TIP3    H223217   0.166   6.399   1.368 -1.2285 -1.3105  0.8844
  528TIP3   OH223218   2.695   5.068   1.409 -0.1479  0.8794  0.3587
  528TIP3    H123219   2.714   5.015   1.486  0.7946  0.5632 -0.0774
  528TIP3    H223220   2.603   5.049   1.389  0.4295 -1.4874 -0.4291
  529TIP3   OH223221   2.988   4.229   6.692 -0.1066  0.4112  0.4271
  529TIP3    H123222   3.080   4.235   6.666 -0.2682 -0.6690 -0.4691
  529TIP3    H223223   2.942   4.280   6.625 -0.1863  0.8777  0.8276
  530TIP3   OH223224   2.549   5.315   6.878 -0.3823 -0.3613 -0.4226
  530TIP3    H123225   2.593   5.339   6.797  1.5954  2.4861  1.2915
  530TIP3    H223226   2.491   5.388   6.896 -0.5085 -0.7583  0.9015
  531TIP3   OH223227   5.814   0.958   7.078  0.1739 -0.2516 -0.4270
  531TIP3    H123228   5.842   0.882   7.026 -0.6943 -0.3454 -0.7836
  531TIP3    H223229   5.865   1.031   7.043  0.0957 -0.4435 -0.9517
  532TIP3   OH223230   2.389   0.075   1.295 -0.0296  0.0371  0.2793
  532TIP3    H123231   2.406   0.126   1.216  0.1857 -2.1054 -1.1521
  532TIP3    H223232   2.341   0.134   1.353 -0.4875  1.5755 -1.5795
  533TIP3   OH223233   5.901   0.775   8.547  0.5624 -0.0154 -0.1029
  533TIP3    H123234   5.810   0.749   8.558  0.7247 -0.0143  1.3524
  533TIP3    H223235   5.899   0.845   8.481 -0.5698  0.5132  0.4789
  534TIP3   OH223236   2.148   0.419   6.780  0.4362 -0.5106  0.3037
  534TIP3    H123237   2.112   0.497   6.823 -0.4697 -0.5166 -0.4046
  534TIP3    H223238   2.198   0.453   6.707 -1.3643 -0.6013 -1.0456
  535TIP3   OH223239   1.905   6.465   7.681 -0.3088 -0.3217 -0.3546
  535TIP3    H123240   1.906   6.551   7.723 -0.4805  0.0018 -0.9842
  535TIP3    H223241   1.996   6.449   7.657 -0.3808  0.0301 -0.8932
  536TIP3   OH223242   2.232   1.367   8.167 -0.4712  0.1109 -0.2820
  536TIP3    H123243   2.249   1.355   8.261  1.0246 -0.6455 -0.6282
  536TIP3    H223244   2.263   1.455   8.148 -1.4475  0.5487  0.0517
  537TIP3   OH223245   6.805   1.706   7.863  0.4306 -0.0903 -0.0903
  537TIP3    H123246   6.747   1.707   7.786 -1.8425  3.0005  1.4347
  537TIP3    H223247   6.747   1.683   7.936  1.5654  1.0876  1.2409
  538TIP3   OH223248   3.176   1.943   6.988 -0.3206  0.1611 -0.3336
  538TIP3    H123249   3.214   1.916   6.904 -1.2406 -1.5495 -0.2383
  538TIP3    H223250   3.211   1.880   7.051  0.3230  1.4022  0.5937
  539TIP3   OH223251   1.295   1.734   8.653 -0.4181  0.2454 -0.9343
  539TIP3    H123252   1.255   1.801   8.596 -0.4046  1.0931  0.0213
  539TIP3    H223253   1.294   1.774   8.740  0.8197 -0.4752 -0.5753
  540TIP3   OH223254   4.731   4.933   0.187  0.0288  0.3466  0.2913
  540TIP3    H123255   4.660   4.881   0.150 -0.6941  0.5041  1.4015
  540TIP3    H223256   4.687   4.997   0.244  1.0208  0.8410  0.5259
  541TIP3   OH223257   2.128   3.541   8.413 -0.2419 -0.8779  0.2134
  541TIP3    H123258   2.064   3.604   8.380 -1.3374 -1.3911  1.2791
  541TIP3    H223259   2.128   3.470   8.350  0.1494 -0.3576 -0.3912
  542TIP3   OH223260   3.109   0.423   7.120 -0.0445  0.4077 -0.4994
  542TIP3    H123261   3.141   0.365   7.188 -1.5060 -0.4866 -0.5205
  542TIP3    H223262   3.120   0.511   7.156  1.3511  0.0802 -0.0915
  543TIP3   OH223263   6.413   4.970   8.037  1.1168  0.3743 -0.8912
  543TIP3    H123264   6.370   5.048   8.072  0.8393  0.8663 -2.2781
  543TIP3    H223265   6.349   4.901   8.047  0.6332  0.7431 -1.4075
  544TIP3   OH223266   6.195   0.534   1.133 -0.1891  0.5818  0.2985
  544TIP3    H123267   6.177   0.441   1.121 -0.0087  0.5502  0.2741
  544TIP3    H223268   6.122   0.566   1.187 -0.3045  0.4490  0.2222
  545TIP3   OH223269   5.535   3.921   0.941  0.1358  0.2403  0.0876
  545TIP3    H123270   5.535   3.981   0.866 -0.3863 -0.6792 -0.6790
  545TIP3    H223271   5.581   3.844   0.909 -3.2137 -1.6628 -0.6049
  546TIP3   OH223272   5.668   0.638   8.674 -0.6117  0.8377  0.0259
  546TIP3    H123273   5.584   0.632   8.720 -0.3536  1.1040  0.5357
  546TIP3    H223274   5.662   0.571   8.606 -0.5286 -0.4139  1.2067
  547TIP3   OH223275   4.388   6.070   0.060  0.2972  0.0463 -1.0204
  547TIP3    H123276   4.370   6.131  -0.012 -1.6219  0.6576 -0.0960
  547TIP3    H223277   4.310   6.014   0.064  1.4641 -1.6453 -0.9937
  548TIP3   OH223278   1.879   4.031   7.320 -0.3174 -0.3474 -0.4834
  548TIP3    H123279   1.805   4.091   7.330  0.1972  0.2908 -0.3834
  548TIP3    H223280   1.955   4.083   7.348  0.0924 -1.1806 -0.0059
  549TIP3   OH223281   1.529   3.378   0.113  0.3804 -0.3209 -0.0507
  549TIP3    H123282   1.443   3.361   0.075 -0.1913  0.2625  0.9197
  549TIP3    H223283   1.517   3.363   0.207  1.6440 -1.3439 -0.0306
  550TIP3   OH223284   1.024   1.308   7.545  0.2601  0.4677 -0.0361
  550TIP3    H123285   1.047   1.266   7.628 -0.4864 -0.2829 -0.1918
  550TIP3    H223286   1.055   1.399   7.555  1.0576  0.1380  0.6719
  551TIP3   OH223287   1.588   2.033   7.493  0.7476  0.1955 -0.4135
  551TIP3    H123288   1.668   1.985   7.473  0.5265 -0.5780  0.4942
  551TIP3    H223289   1.518   1.968   7.482  0.4173  0.3874  0.5312
  552TIP3   OH223290   2.122   6.815   6.420  0.4521  0.2917  0.0439
  552TIP3    H123291   2.107   6.767   6.339  0.1297 -1.7040  1.2330
  552TIP3    H223292   2.207   6.859   6.406  0.8670 -0.7913 -1.0077
  553TIP3   OH223293   5.779   5.407   7.110  0.1828 -0.4407  0.6233
  553TIP3    H123294   5.873   5.414   7.094  0.3453  1.0502  1.9743
  553TIP3    H223295   5.772   5.354   7.190 -0.1272 -0.6754  0.4409
  554TIP3   OH223296   1.180   4.954   7.764  0.4715  0.2725  0.0911
  554TIP3    H123297   1.095   4.938   7.723 -0.3718 -1.8453  2.3637
  554TIP3    H223298   1.203   5.043   7.739 -1.6756  0.3792 -1.8268
  555TIP3   OH223299   1.777   1.368   8.576 -0.2326  0.7482  0.1294
  555TIP3    H123300   1.721   1.335   8.506 -1.8275  1.0490  1.2075
  555TIP3    H223301   1.866   1.360   8.541 -0.7205 -2.0678 -0.6999
  556TIP3   OH223302   0.804   4.665   0.692  0.2268  0.4783  0.2893
  556TIP3    H123303   0.793   4.760   0.696  0.3523  0.4815  0.5328
  556TIP3    H223304   0.887   4.652   0.647  0.7872  0.5038  1.2986
  557TIP3   OH223305   6.576   6.502   6.185 -0.1216 -0.3796 -0.0685
  557TIP3    H123306   6.522   6.492   6.107 -0.7109  1.2810  0.0785
  557TIP3    H223307   6.529   6.454   6.253  0.0151 -1.2195 -0.5619
  558TIP3   OH223308   6.369   3.155   7.341 -0.1855  0.0586  0.4475
  558TIP3    H123309   6.394   3.245   7.317 -0.2844  0.0708  0.3878
  558TIP3    H223310   6.280   3.146   7.307  0.2702 -0.4758 -0.6622
  559TIP3   OH223311   5.929   1.936   1.261 -0.1309  0.1431 -0.0509
  559TIP3    H123312   5.847   1.962   1.219 -0.2488  0.1774  0.1970
  559TIP3    H223313   5.993   1.934   1.190 -0.3480  0.1110 -0.2459
  560TIP3   OH223314   1.195   1.326   8.481  0.0056 -0.2528  0.2540
  560TIP3    H123315   1.238   1.300   8.562  1.4956  2.6946  0.5509
  560TIP3    H223316   1.159   1.413   8.499 -1.9386 -0.5918 -1.4965
  561TIP3   OH223317   5.882   5.558   1.316 -0.2864  0.4682  0.1835
  561TIP3    H123318   5.977   5.571   1.320 -0.6000  2.8436  2.5458
  561TIP3    H223319   5.869   5.474   1.360  0.6974  0.2231  0.0401
  562TIP3   OH223320   1.216   2.803   0.025  0.0143  0.2057 -0.5032
  562TIP3    H123321   1.240   2.842  -0.059  1.2774  1.4373  0.3708
  562TIP3    H223322   1.121   2.817   0.032  0.2895  2.5432 -0.5841
  563TIP3   OH223323   0.181   6.519   1.026  0.0871  0.2630 -0.0174
  563TIP3    H123324   0.248   6.489   0.964  1.1324  0.4267  0.9783
  563TIP3    H223325   0.129   6.583   0.977  0.9219  0.4370 -0.7014
  564TIP3   OH223326   6.468   2.363   7.318  0.0690 -0.0720 -0.2392
  564TIP3    H123327   6.440   2.360   7.227  0.0187  0.2648 -0.2362
  564TIP3    H223328   6.495   2.454   7.332 -2.1542  0.5007  0.7421
  565TIP3   OH223329   3.541   6.306   1.096 -0.1191  0.0424 -0.1724
  565TIP3    H123330   3.483   6.263   1.034  0.1246  0.9079 -1.0335
  565TIP3    H223331   3.486   6.373   1.138  0.1468  0.6445 -0.7551
  566TIP3   OH223332   1.217   6.026   1.728  0.1147  0.1450 -0.1508
  566TIP3    H123333   1.241   6.101   1.783 -0.0523  0.3052 -0.2973
  566TIP3    H223334   1.190   5.958   1.791 -1.8410  0.9252 -0.0676
  567TIP3   OH223335   5.202   5.911   1.286 -0.0948 -0.0434  0.8665
  567TIP3    H123336   5.134   5.866   1.337 -2.0447  2.0636  0.2957
  567TIP3    H223337   5.154   5.958   1.218  2.0282  1.0198  0.0185
  568TIP3   OH223338   6.316   0.314   7.418  0.0853 -0.1375 -0.0990
  568TIP3    H123339   6.251   0.384   7.409 -0.5051 -0.6603  0.0111
  568TIP3    H223340   6.391   0.356   7.459 -0.6165  0.2253  0.8597
  569TIP3   OH223341   4.198   2.963   0.217 -0.1491 -0.1931  0.5755
  569TIP3    H123342   4.227   3.023   0.285 -0.0561 -1.6866  1.8974
  569TIP3    H223343   4.279   2.939   0.171  0.2520 -1.5370  1.9246
  570TIP3   OH223344   2.147   5.827   8.019 -0.0322  0.4641 -0.2181
  570TIP3    H123345   2.222   5.849   7.962 -0.3671  0.3290 -0.7183
  570TIP3    H223346   2.184   5.827   8.107  0.5485  0.4644 -0.4522
  571TIP3   OH223347   5.110   5.853   1.694 -0.5186  0.0758 -0.0217
  571TIP3    H123348   5.150   5.769   1.713 -0.8216 -0.1108 -0.1966
  571TIP3    H223349   5.147   5.913   1.758  1.5300  0.3543 -1.3669
  572TIP3   OH223350   1.916   3.213   7.816 -0.0160 -0.1876 -0.0852
  572TIP3    H123351   1.840   3.262   7.785  0.7578  0.5294 -0.9032
  572TIP3    H223352   1.880   3.128   7.843 -1.0722  0.0527 -0.6674
  573TIP3   OH223353   3.093   0.465   7.758 -0.2291 -0.0534  0.1781
  573TIP3    H123354   3.168   0.515   7.789 -0.2837  0.7108 -0.8568
  573TIP3    H223355   3.092   0.386   7.812  0.5325  0.5333  1.0837
  574TIP3   OH223356   4.043   4.355   8.265  0.2936  0.0073 -0.1268
  574TIP3    H123357   4.111   4.302   8.223  0.7285  1.8014 -1.8456
  574TIP3    H223358   4.091   4.431   8.300 -0.4695 -0.0844  1.1692
  575TIP3   OH223359   6.302   2.223   7.753 -0.7320 -0.1392  0.0650
  575TIP3    H123360   6.263   2.300   7.711  0.5161  1.0312  0.9413
  575TIP3    H223361   6.332   2.168   7.680 -1.7473  0.1378 -0.5798
  576TIP3   OH223362   5.330   6.405   6.791  0.4727  0.2547  0.8791
  576TIP3    H123363   5.356   6.491   6.824  0.1176 -0.4185  3.0974
  576TIP3    H223364   5.409   6.370   6.750  1.5808  0.3811  2.7935
  577TIP3   OH223365   1.482   3.288   1.038  0.4229 -0.0009  0.4075
  577TIP3    H123366   1.479   3.313   0.946 -1.8450  1.7477  0.8501
  577TIP3    H223367   1.509   3.368   1.084  0.1344 -0.4217  1.3431
  578TIP3   OH223368   6.337   6.746   6.167  0.2466  0.4192  0.3529
  578TIP3    H123369   6.300   6.693   6.096 -2.2344 -0.4897  2.2100
  578TIP3    H223370   6.276   6.819   6.177  0.3281  0.3082  1.8077
  579TIP3   OH223371   5.684   5.807   2.364  0.2673 -0.2479 -0.5747
  579TIP3    H123372   5.699   5.775   2.275  1.5322 -0.6431 -0.2459
  579TIP3    H223373   5.749   5.760   2.418  0.8917  1.4428  0.2299
  580TIP3   OH223374   6.042   0.423   7.596  0.4188 -0.2858 -0.0146
  580TIP3    H123375   6.034   0.340   7.550 -0.1449 -0.3408  0.1862
  580TIP3    H223376   6.090   0.479   7.535  0.9371 -0.8007 -0.0898
  581TIP3   OH223377   4.818   5.638   1.754  0.4830  0.5981 -0.4829
  581TIP3    H123378   4.765   5.589   1.816  0.3274  1.5040  0.1283
  581TIP3    H223379   4.904   5.596   1.757 -0.1501 -0.8432 -1.4436
  582TIP3   OH223380   4.926   6.108   0.325  0.2578 -0.2546  0.4482
  582TIP3    H123381   4.993   6.134   0.389  1.5177 -1.8005 -0.1748
  582TIP3    H223382   4.919   6.183   0.266  1.2381  0.0556  0.6985
  583TIP3   OH223383   3.811   2.532   7.065 -0.4356 -0.1083  0.2859
  583TIP3    H123384   3.884   2.594   7.053 -0.4153 -0.3989 -1.3381
  583TIP3    H223385   3.832   2.460   7.006 -0.9606 -1.2242  1.4343
  584TIP3   OH223386   4.052   1.974   0.017 -0.3711  0.0938  0.4731
  584TIP3    H123387   4.088   1.918   0.086  1.5811 -0.4387 -0.8920
  584TIP3    H223388   3.968   1.935  -0.003 -1.4673  0.8177  3.1325
  585TIP3   OH223389   3.130   3.254   1.065 -0.0440 -0.4681 -0.2358
  585TIP3    H123390   3.097   3.200   0.994  0.0765 -0.5004 -0.2671
  585TIP3    H223391   3.065   3.245   1.135 -0.7440  0.4492 -0.7495
  586TIP3   OH223392   2.287   1.391   0.990 -0.2936  0.1353 -0.6762
  586TIP3    H123393   2.342   1.414   1.065 -0.2900 -0.5328 -0.4693
  586TIP3    H223394   2.341   1.412   0.913 -0.6894  1.8095 -0.5273
  587TIP3   OH223395   6.841   0.941   6.113  0.4386  0.5136 -0.0376
  587TIP3    H123396   6.788   1.017   6.088  1.1102  1.0276  0.0778
  587TIP3    H223397   6.792   0.866   6.080  0.3450  1.0565 -1.2004
  588TIP3   OH223398   0.269   6.662   0.793 -1.1324  0.4018 -0.6959
  588TIP3    H123399   0.303   6.751   0.787 -0.7667  0.2091 -1.6906
  588TIP3    H223400   0.179   6.670   0.761 -1.7727  0.7557  1.1127
  589TIP3   OH223401   4.239   2.078   1.280 -0.1519 -0.3931 -0.9989
  589TIP3    H123402   4.307   2.080   1.347 -0.2277  0.6667 -0.9314
  589TIP3    H223403   4.158   2.098   1.327 -0.5036 -1.4848 -1.1065
  590TIP3   OH223404   6.562   0.442   0.414 -0.2236 -0.0400 -1.2817
  590TIP3    H123405   6.485   0.385   0.420  0.2242 -0.6939 -1.6094
  590TIP3    H223406   6.618   0.414   0.486 -0.0826  0.1173 -1.3303
  591TIP3   OH223407   0.063   6.651   8.431 -0.0094  0.2219  0.6289
  591TIP3    H123408   0.156   6.638   8.411  0.5684  1.5937  2.1783
  591TIP3    H223409   0.023   6.670   8.346  1.0715 -0.6033 -0.0976
  592TIP3   OH223410   3.220   5.733   1.063 -0.2992  0.0658  0.3797
  592TIP3    H123411   3.141   5.719   1.115 -0.6318 -0.4885 -0.2508
  592TIP3    H223412   3.268   5.651   1.069 -1.2902 -0.7677 -1.7253
  593TIP3   OH223413   6.684   1.236   0.178  0.0458 -0.3433  0.3306
  593TIP3    H123414   6.694   1.278   0.093 -3.7834 -0.1971 -0.2228
  593TIP3    H223415   6.669   1.309   0.239 -0.3552 -0.5693  0.5105
  594TIP3   OH223416   1.631   3.766   7.353 -0.0149 -0.3401 -0.1199
  594TIP3    H123417   1.639   3.837   7.416  2.2816  0.0873 -0.8037
  594TIP3    H223418   1.585   3.805   7.279 -0.7619 -0.2363  0.3808
  595TIP3   OH223419   1.860   0.811   7.315 -0.1252  0.9940 -0.0623
  595TIP3    H123420   1.893   0.724   7.293  0.5870  0.2344  3.4061
  595TIP3    H223421   1.929   0.871   7.285  0.5912  0.1338 -0.1695
  596TIP3   OH223422   1.523   0.495   7.253 -0.8969 -0.1304  0.1829
  596TIP3    H123423   1.458   0.481   7.184 -0.6249  2.9268 -0.8373
  596TIP3    H223424   1.591   0.548   7.212 -0.6350  1.6664  2.7276
  597TIP3   OH223425   6.455   6.698   2.059  0.1501 -0.6948 -0.1017
  597TIP3    H123426   6.453   6.607   2.086  0.9513 -0.5858  0.3393
  597TIP3    H223427   6.463   6.695   1.964  0.4568 -1.0811 -0.0634
  598TIP3   OH223428   5.473   0.079   8.040 -0.2207 -0.2201  0.2636
  598TIP3    H123429   5.419   0.116   8.110 -1.2761 -0.1709 -0.5505
  598TIP3    H223430   5.440  -0.010   8.029  1.3528 -0.9494  1.2413
  599TIP3   OH223431   2.168   1.609   7.652 -0.0180  0.2932  0.7472
  599TIP3    H123432   2.202   1.661   7.725 -2.6595  1.2455  1.3839
  599TIP3    H223433   2.179   1.518   7.680  0.9836  0.5884  1.3554
  600TIP3   OH223434   3.847   3.938   2.309 -0.2580  0.6690 -0.1039
  600TIP3    H123435   3.771   3.969   2.358 -0.8038  2.9848 -2.2310
  600TIP3    H223436   3.820   3.855   2.271 -1.5951  1.2713 -0.5036
  601TIP3   OH223437   3.850   3.459   1.317 -0.4235  0.1061 -0.4373
  601TIP3    H123438   3.933   3.422   1.287 -0.1554  1.1866 -1.0881
  601TIP3    H223439   3.785   3.424   1.255 -0.1580  0.7799 -1.1125
  602TIP3   OH223440   6.232   6.539   6.983 -0.2965 -0.2182 -0.5288
  602TIP3    H123441   6.228   6.560   6.890  3.6850 -1.4121 -1.1747
  602TIP3    H223442   6.232   6.624   7.027  0.8456  0.5569 -1.9308
  603TIP3   OH223443   0.034   5.281   1.990  0.2802 -0.3451  0.5628
  603TIP3    H123444   0.044   5.365   2.036  0.7289 -0.0199 -0.1157
  603TIP3    H223445  -0.003   5.222   2.056 -0.1003  0.4023  1.0312
  604TIP3   OH223446   6.078   4.420   0.902  0.0136 -0.9594 -0.0615
  604TIP3    H123447   6.121   4.471   0.970 -1.6384  1.0238 -0.4150
  604TIP3    H223448   6.149   4.392   0.845  1.2312 -1.1464  1.4613
  605TIP3   OH223449   6.825   0.755   0.798 -0.7868 -0.2447  0.3274
  605TIP3    H123450   6.768   0.785   0.868  1.0469 -0.0073  1.7809
  605TIP3    H223451   6.766   0.713   0.735 -2.5156 -0.1925  1.8530
  606TIP3   OH223452   4.757   4.115   0.271  0.0601  0.1239 -0.1552
  606TIP3    H123453   4.736   4.066   0.192  0.2156  1.3412 -0.9709
  606TIP3    H223454   4.770   4.048   0.338 -0.7219 -0.8928 -0.9961
  607TIP3   OH223455   4.322   6.245   8.554  0.3474  0.6928 -0.0242
  607TIP3    H123456   4.357   6.193   8.482  0.6843 -0.7446  1.1365
  607TIP3    H223457   4.382   6.320   8.561  1.2150  0.0251 -0.2353
  608TIP3   OH223458   3.724   1.346   6.665 -0.5174 -0.0926  0.4622
  608TIP3    H123459   3.772   1.403   6.726  1.9520  0.5921 -1.9207
  608TIP3    H223460   3.671   1.406   6.613 -1.4069 -0.4977  0.8877
  609TIP3   OH223461   2.672   6.758   0.945 -0.3085  0.1871  0.2075
  609TIP3    H123462   2.636   6.771   1.033 -1.7062  0.3952 -0.3643
  609TIP3    H223463   2.738   6.689   0.956  1.6068  2.1352  1.8932
  610TIP3   OH223464   0.502   5.014   0.618  0.4338  0.3843 -0.2607
  610TIP3    H123465   0.442   5.087   0.628 -0.9939 -0.8688  0.7403
  610TIP3    H223466   0.569   5.029   0.685  0.5827  1.1541 -0.5703
  611TIP3   OH223467   4.812   1.278   6.728 -0.0109 -0.1812  0.1010
  611TIP3    H123468   4.818   1.193   6.685 -1.4094 -0.2329 -0.0257
  611TIP3    H223469   4.884   1.329   6.690  0.5427 -1.1531 -0.1686
  612TIP3   OH223470   6.644   3.140   8.588  0.3263  0.4228  0.1496
  612TIP3    H123471   6.737   3.119   8.586  0.0442 -1.1673  1.7118
  612TIP3    H223472   6.605   3.081   8.524 -0.0144 -1.4951  2.0346
  613TIP3   OH223473   6.139   6.806   0.769  0.2340  0.6213 -0.0747
  613TIP3    H123474   6.226   6.765   0.770  0.0820  0.2370 -1.0769
  613TIP3    H223475   6.079   6.733   0.783  0.0328  0.7163 -0.4311
  614TIP3   OH223476   2.469   2.319   7.676  0.5164  0.0062 -0.3237
  614TIP3    H123477   2.473   2.335   7.770  0.9066  0.8527 -0.4668
  614TIP3    H223478   2.488   2.226   7.666 -1.0603 -0.4462  0.5278
  615TIP3   OH223479   2.551   1.138   0.931  0.6633  0.5884 -0.1901
  615TIP3    H123480   2.605   1.065   0.900 -0.9026 -0.8638  0.3456
  615TIP3    H223481   2.614   1.204   0.959  2.1995 -1.1825  0.7679
  616TIP3   OH223482   0.744   3.823   8.136  0.2131 -0.0269 -0.3690
  616TIP3    H123483   0.767   3.824   8.229  1.6225 -0.4380 -0.6930
  616TIP3    H223484   0.822   3.789   8.092 -0.0307  1.1874 -1.8273
  617TIP3   OH223485   0.273   4.705   0.001  0.2177 -0.0345 -0.7810
  617TIP3    H123486   0.244   4.737  -0.085 -0.4830  0.7350 -0.2742
  617TIP3    H223487   0.211   4.744   0.063  0.7000 -0.6020  0.0760
  618TIP3   OH223488   0.369   3.991   1.859  0.2410  0.5883  0.1118
  618TIP3    H123489   0.384   4.083   1.882 -2.4744  0.8819  1.0879
  618TIP3    H223490   0.275   3.979   1.870  0.6298 -2.5753  0.8474
  619TIP3   OH223491   3.693   3.206   6.911  0.5189 -0.6125 -0.2189
  619TIP3    H123492   3.607   3.177   6.881  0.4067  0.0339 -0.5490
  619TIP3    H223493   3.725   3.262   6.840  0.2656  0.9254  0.8242
  620TIP3   OH223494   1.303   5.537   7.348  0.0370 -0.2413 -0.2826
  620TIP3    H123495   1.386   5.560   7.391  0.5543 -1.4161 -0.6233
  620TIP3    H223496   1.279   5.452   7.386 -1.0375  0.0925 -0.1691
  621TIP3   OH223497   5.782   4.701   8.174  0.2503 -0.2195  0.2419
  621TIP3    H123498   5.815   4.640   8.107 -1.2493  1.5969 -2.3544
  621TIP3    H223499   5.687   4.699   8.163  0.0710  1.3301  1.2041
  622TIP3   OH223500   2.228   4.007   8.357  0.1805 -0.2060 -0.3579
  622TIP3    H123501   2.279   4.086   8.338 -0.5547  1.0253  2.2288
  622TIP3    H223502   2.138   4.038   8.366  0.1732 -0.7738  2.9877
  623TIP3   OH223503   0.660   0.238   8.192 -0.1843 -0.0853 -0.4562
  623TIP3    H123504   0.607   0.218   8.115  0.2278 -1.3131 -0.4332
  623TIP3    H223505   0.744   0.267   8.156 -0.2290  0.0186 -0.4766
  624TIP3   OH223506   6.289   5.451   0.677  0.3334 -0.6946  0.2863
  624TIP3    H123507   6.212   5.459   0.733  0.6288 -0.9976  0.7447
  624TIP3    H223508   6.289   5.531   0.625 -0.5271 -0.8893 -0.0298
  625TIP3   OH223509   0.980   1.933   6.183 -0.0406  0.1239  0.3813
  625TIP3    H123510   0.955   1.842   6.198  1.4056 -0.5025 -0.7968
  625TIP3    H223511   1.068   1.928   6.147 -1.0102  1.7810 -2.5450
  626TIP3   OH223512   1.087   4.050   1.512  0.0366  0.4951  0.5047
  626TIP3    H123513   1.177   4.081   1.501  0.3456 -0.2197  0.8782
  626TIP3    H223514   1.037   4.128   1.535  0.5567  0.9025  0.2875
  627TIP3   OH223515   3.930   2.252   8.388 -0.1878  0.2411 -0.2321
  627TIP3    H123516   3.881   2.215   8.461  0.1587  1.2805  0.5632
  627TIP3    H223517   4.016   2.274   8.425 -0.0219  0.8209 -0.9307
  628TIP3   OH223518   5.250   3.831   0.136  0.0951  0.3032 -0.0084
  628TIP3    H123519   5.336   3.791   0.132  0.1560  0.4826 -0.5223
  628TIP3    H223520   5.261   3.906   0.194  0.2266  0.1950  0.1089
  629TIP3   OH223521   1.152   2.553   1.574 -0.1060 -0.0085 -0.1616
  629TIP3    H123522   1.138   2.640   1.537  0.9433 -0.2355 -1.1641
  629TIP3    H223523   1.237   2.526   1.540 -0.0608 -1.1126  0.7637
  630TIP3   OH223524   2.814   2.571   7.903 -0.2864 -0.4979  0.1618
  630TIP3    H123525   2.825   2.485   7.864  1.7038 -0.2652  0.1013
  630TIP3    H223526   2.764   2.621   7.838 -0.0332 -1.1204 -0.5179
  631TIP3   OH223527   0.918   1.670   6.310  0.2036  0.3966  0.6763
  631TIP3    H123528   0.875   1.655   6.395 -0.8253 -1.0386 -0.0457
  631TIP3    H223529   0.974   1.594   6.298  0.3028  0.5700  0.0363
  632TIP3   OH223530   0.860   3.280   6.837  0.2813 -0.1221  0.2363
  632TIP3    H123531   0.909   3.325   6.906 -0.2523  1.2824 -0.2704
  632TIP3    H223532   0.921   3.213   6.805  0.7623 -0.3711  1.6276
  633TIP3   OH223533   2.462   5.014   1.930  0.3723 -0.1591  0.5925
  633TIP3    H123534   2.517   5.091   1.938  0.1608  0.3944 -2.1853
  633TIP3    H223535   2.372   5.048   1.929  0.2361 -0.5139  0.1133
  634TIP3   OH223536   5.260   2.517   0.456 -0.1201  0.1413  0.0622
  634TIP3    H123537   5.334   2.488   0.510  1.1322  2.5037 -0.2380
  634TIP3    H223538   5.203   2.564   0.516  0.3995  1.2733 -0.2939
  635TIP3   OH223539   2.924   2.437   0.633 -0.6875 -0.4815  0.5190
  635TIP3    H123540   2.840   2.483   0.633 -1.2904 -1.5158 -0.5644
  635TIP3    H223541   2.944   2.424   0.726 -1.1398  0.7819  0.8160
  636TIP3   OH223542   1.913   3.653   0.360 -0.0056  0.0410 -0.4130
  636TIP3    H123543   1.897   3.641   0.453  0.1195 -1.0457 -0.5180
  636TIP3    H223544   1.826   3.651   0.320 -0.1767  1.9165 -0.1894
  637TIP3   OH223545   2.071   0.156   2.204  0.0230 -0.7231  0.5219
  637TIP3    H123546   2.045   0.079   2.153  1.5414 -1.5689  0.9616
  637TIP3    H223547   1.988   0.196   2.231 -0.8537 -0.5838 -2.0342
  638TIP3   OH223548   6.389   5.646   1.336 -0.4711 -1.0718  0.2637
  638TIP3    H123549   6.441   5.649   1.256  0.9413  0.0634  1.1694
  638TIP3    H223550   6.409   5.561   1.375  1.3236 -0.3954  0.9349
  639TIP3   OH223551   1.352   1.810   7.538  0.4040  0.2307 -0.5887
  639TIP3    H123552   1.298   1.742   7.580  0.5685  0.2897 -0.2758
  639TIP3    H223553   1.289   1.866   7.494  0.2814 -0.2470 -1.0307
  640TIP3   OH223554   2.540   1.591   8.660  0.1898 -0.4990 -0.7381
  640TIP3    H123555   2.470   1.529   8.640 -0.1255 -0.0007 -1.2274
  640TIP3    H223556   2.580   1.611   8.574  0.9026 -0.7439 -0.4711
  641TIP3   OH223557   3.523   2.487   6.638 -0.0928 -0.6078  0.6046
  641TIP3    H123558   3.431   2.465   6.653  0.0001 -1.5995 -0.1666
  641TIP3    H223559   3.569   2.445   6.711 -0.0088 -2.3628 -0.4006
  642TIP3   OH223560   2.102   4.407   1.411 -0.0947 -0.9230  0.2444
  642TIP3    H123561   2.152   4.388   1.490  0.8492 -2.2728 -0.6395
  642TIP3    H223562   2.139   4.349   1.345 -1.8812 -0.9107 -0.8158
  643TIP3   OH223563   6.736   6.076   0.490  0.1015  0.0226 -0.0978
  643TIP3    H123564   6.704   6.051   0.577 -3.2948  1.0820 -0.9055
  643TIP3    H223565   6.829   6.053   0.492  0.0540 -0.5395  3.5867
  644TIP3   OH223566   1.224   4.109   8.097  0.3371 -0.0517 -0.3194
  644TIP3    H123567   1.187   4.191   8.066 -1.1202 -0.6530 -0.2183
  644TIP3    H223568   1.246   4.061   8.017  0.0841 -0.0626 -0.3819
  645TIP3   OH223569   6.520   2.322   7.573 -0.3332  0.3514 -0.2327
  645TIP3    H123570   6.568   2.404   7.588  1.7725  0.0132 -3.8422
  645TIP3    H223571   6.486   2.331   7.484 -1.1390 -2.1904 -0.2524
  646TIP3   OH223572   1.355   4.118   1.502 -0.1779 -0.4022  0.0129
  646TIP3    H123573   1.326   4.209   1.498 -1.4014 -0.8161 -1.4399
  646TIP3    H223574   1.436   4.121   1.553 -0.1218  1.5110 -0.1056
  647TIP3   OH223575   3.834   5.299   6.655  0.2572 -0.1578 -0.5639
  647TIP3    H123576   3.773   5.226   6.667 -1.4359  1.3815  0.9093
  647TIP3    H223577   3.916   5.268   6.694 -0.1375 -1.5956 -0.8232
  648TIP3   OH223578   4.066   2.177   0.813  0.1076  0.3530  0.2131
  648TIP3    H123579   4.161   2.175   0.822  0.1258  0.7830  0.1671
  648TIP3    H223580   4.039   2.252   0.867 -0.2948 -0.3320  0.9778
  649TIP3   OH223581   3.518   0.806   2.112  0.3233  0.1353 -0.0569
  649TIP3    H123582   3.613   0.812   2.118  0.2865 -0.0331  0.6922
  649TIP3    H223583   3.486   0.891   2.142  0.1394 -0.7670  2.5015
  650TIP3   OH223584   5.549   2.932   8.198 -0.0994  0.0440 -0.2842
  650TIP3    H123585   5.589   2.866   8.255  0.1950 -1.1892 -1.8376
  650TIP3    H223586   5.568   3.015   8.241  1.2582 -0.7348  0.7234
  651TIP3   OH223587   2.371   6.301   7.232  0.6027 -0.3854 -0.0329
  651TIP3    H123588   2.308   6.243   7.276  0.4585 -1.1251 -1.1638
  651TIP3    H223589   2.316   6.368   7.191  0.7437  0.3599  0.9582
  652TIP3   OH223590   3.796   0.072   0.021 -0.1915  0.3779  0.0650
  652TIP3    H123591   3.715   0.021   0.009  1.0450 -1.7189  0.1733
  652TIP3    H223592   3.769   0.145   0.076 -1.8274 -0.8471  1.0080
  653TIP3   OH223593   4.865   5.171   0.419  0.0460 -0.0253 -0.3606
  653TIP3    H123594   4.773   5.158   0.394  0.7158 -1.2258 -2.5105
  653TIP3    H223595   4.894   5.083   0.445  1.0059 -0.0235 -1.3763
  654TIP3   OH223596   1.604   1.274   6.080  0.0836 -0.1040 -0.2884
  654TIP3    H123597   1.646   1.224   6.010 -1.2386 -0.0186 -1.1773
  654TIP3    H223598   1.674   1.290   6.143  0.9289 -1.5953 -0.7973
  655TIP3   OH223599   0.819   5.815   0.462  0.0050 -0.0657 -0.2170
  655TIP3    H123600   0.914   5.800   0.466 -0.0741 -0.5874 -0.1934
  655TIP3    H223601   0.808   5.906   0.487  0.4070 -0.3159  0.9344
  656TIP3   OH223602   2.423   1.171   7.168  0.1632  0.0050 -0.2753
  656TIP3    H123603   2.351   1.233   7.180 -1.1749 -1.1142 -1.9630
  656TIP3    H223604   2.502   1.223   7.178 -0.8314  1.2874  1.6401
  657TIP3   OH223605   5.675   5.583   8.093  0.0773  0.2761 -0.5961
  657TIP3    H123606   5.607   5.585   8.025 -0.3452  1.9816 -0.1640
  657TIP3    H223607   5.685   5.490   8.114 -0.8258 -0.1549 -1.9505
  658TIP3   OH223608   1.266   1.225   7.974  0.1570  0.3265 -0.4729
  658TIP3    H123609   1.273   1.320   7.965  0.4151  0.3362 -0.1979
  658TIP3    H223610   1.294   1.208   8.064 -1.1807  0.1237 -0.0863
  659TIP3   OH223611   2.194   5.164   6.065  0.3929 -0.1553  0.0001
  659TIP3    H123612   2.102   5.174   6.042  0.3335  1.0131  0.6900
  659TIP3    H223613   2.197   5.084   6.117 -0.0499 -0.7634 -0.8704
  660TIP3   OH223614   4.725   0.773   7.222 -0.1487  0.2851  0.2728
  660TIP3    H123615   4.676   0.854   7.240  0.2815  0.4808  0.5928
  660TIP3    H223616   4.815   0.803   7.208  0.2348 -0.2424  1.5047
  661TIP3   OH223617   5.959   5.986   8.679 -0.3839 -0.0346 -0.5307
  661TIP3    H123618   5.877   5.963   8.722  0.1048 -1.2898 -0.2263
  661TIP3    H223619   6.015   6.017   8.750  0.6043 -2.6121 -0.1067
  662TIP3   OH223620   1.388   1.242   0.428  0.1795 -0.3883  0.2859
  662TIP3    H123621   1.393   1.147   0.415  0.8819 -0.3550  0.2782
  662TIP3    H223622   1.476   1.273   0.408  0.0345  0.2289  0.6020
  663TIP3   OH223623   0.446   5.476   6.478 -0.2766  0.0188 -0.6118
  663TIP3    H123624   0.490   5.413   6.535  0.3876  0.9913 -0.0132
  663TIP3    H223625   0.406   5.539   6.538 -0.7242  0.3051 -1.1991
  664TIP3   OH223626   4.425   2.170   1.800 -0.4378 -0.1700 -0.3885
  664TIP3    H123627   4.519   2.191   1.794 -0.2356 -1.2653 -1.1474
  664TIP3    H223628   4.422   2.079   1.829 -1.3016  0.3151  1.1821
  665TIP3   OH223629   4.935   2.198   8.175 -0.3122  0.3631  0.3568
  665TIP3    H123630   4.892   2.198   8.260  0.9839  1.0767  1.0362
  665TIP3    H223631   4.918   2.110   8.140 -2.3187  0.6221  0.5591
  666TIP3   OH223632   6.498   6.744   7.811  0.0303 -0.7010  0.0529
  666TIP3    H123633   6.532   6.818   7.761 -0.7123  0.1614  0.7796
  666TIP3    H223634   6.421   6.779   7.856 -1.5999 -2.4752 -1.2255
  667TIP3   OH223635   4.289   6.671   7.013  0.6188 -0.2628 -0.3068
  667TIP3    H123636   4.194   6.685   7.011  0.6891  0.1734 -0.5650
  667TIP3    H223637   4.299   6.576   7.000  0.1434 -0.6057  1.5130
  668TIP3   OH223638   0.590   5.567   8.319  0.8119  0.0047  0.1282
  668TIP3    H123639   0.586   5.545   8.226  0.6958  0.3714  0.0430
  668TIP3    H223640   0.498   5.573   8.346  0.8336  0.5960  0.0908
  669TIP3   OH223641   4.071   6.022   0.331 -0.3703  0.0081 -0.1153
  669TIP3    H123642   4.120   5.939   0.336  0.2884  0.4766  3.0117
  669TIP3    H223643   4.128   6.086   0.373 -2.4443  1.2432  0.9583
  670TIP3   OH223644   2.934   5.123   1.071  0.1498 -0.2850  0.4040
  670TIP3    H123645   2.839   5.118   1.065  0.0740  1.4893 -4.7461
  670TIP3    H223646   2.963   5.032   1.067 -1.1124 -1.0081  3.8793
  671TIP3   OH223647   6.331   6.165   8.609 -0.1149  0.2426 -0.2814
  671TIP3    H123648   6.410   6.111   8.604  1.1950  2.0290 -0.1638
  671TIP3    H223649   6.340   6.227   8.537 -0.3618  1.7787  0.9527
  672TIP3   OH223650   2.252   0.264   2.038 -0.2029 -0.0925  0.6084
  672TIP3    H123651   2.195   0.226   2.105 -1.2036 -1.7242 -1.0630
  672TIP3    H223652   2.340   0.237   2.063 -0.5425 -0.5519  1.3343
  673TIP3   OH223653   2.051   4.245   7.430 -0.4068  0.0386 -0.0095
  673TIP3    H123654   2.119   4.183   7.404 -0.6453 -0.6431  0.9331
  673TIP3    H223655   2.081   4.330   7.397  1.2700 -0.1184  1.0004
  674TIP3   OH223656   4.627   3.366   7.908  0.0647  0.1900 -0.3105
  674TIP3    H123657   4.573   3.287   7.898 -1.2039  1.1450 -1.2998
  674TIP3    H223658   4.616   3.390   8.000 -2.4138  1.1393 -0.7729
  675TIP3   OH223659   2.132   1.313   6.746  0.2500 -0.6533 -0.6530
  675TIP3    H123660   2.068   1.242   6.756 -1.1621  0.6589  0.0445
  675TIP3    H223661   2.079   1.390   6.726  1.5069  0.7151  1.0451
  676TIP3   OH223662   2.087   2.773   2.080  0.3588  0.1668  0.9045
  676TIP3    H123663   1.992   2.780   2.076  0.3131 -0.4650  0.7140
  676TIP3    H223664   2.119   2.843   2.022  0.0182  0.4481  1.0531
  677TIP3   OH223665   3.201   1.216   0.657  0.8388 -0.1620 -0.3594
  677TIP3    H123666   3.145   1.199   0.582 -1.3062 -0.1396  1.1545
  677TIP3    H223667   3.265   1.145   0.656  0.0570 -0.8808 -1.4689
  678TIP3   OH223668   4.296   5.040   8.094  0.1295  0.4092  0.2339
  678TIP3    H123669   4.308   5.097   8.170  1.7817  0.8264 -0.2966
  678TIP3    H223670   4.380   5.044   8.048 -0.9208  0.3912 -1.7710
  679TIP3   OH223671   5.557   5.934   7.767 -0.4137  0.2587  0.2262
  679TIP3    H123672   5.647   5.957   7.789 -0.4963  0.7151  0.1066
  679TIP3    H223673   5.565   5.881   7.688 -0.0367 -2.3495  1.9052
  680TIP3   OH223674   4.837   1.299   8.343 -0.1055 -0.2588  0.0425
  680TIP3    H123675   4.857   1.224   8.399 -0.2068 -1.2279 -1.1764
  680TIP3    H223676   4.760   1.339   8.384  0.0345 -0.7315  0.7866
  681TIP3   OH223677   2.104   6.876   1.874  0.0588 -0.1738  0.1240
  681TIP3    H123678   2.166   6.949   1.874 -0.4432  0.2646 -0.0216
  681TIP3    H223679   2.072   6.871   1.964 -0.5082  0.3229 -0.0390
  682TIP3   OH223680   2.802   2.204   7.510  0.3063 -0.2529 -0.0308
  682TIP3    H123681   2.799   2.300   7.507  2.5535 -0.1386 -0.8134
  682TIP3    H223682   2.718   2.178   7.547 -0.3454  2.0221  0.2233
  683TIP3   OH223683   0.732   2.110   6.751  0.8227  0.0709  0.4644
  683TIP3    H123684   0.744   2.030   6.701  0.8656  0.4147 -0.0794
  683TIP3    H223685   0.730   2.081   6.842 -0.3625 -0.7016  0.2247
  684TIP3   OH223686   3.031   3.681   8.489 -0.3748  0.2100 -0.4707
  684TIP3    H123687   3.088   3.734   8.433 -1.5617 -0.5196 -2.4691
  684TIP3    H223688   2.978   3.744   8.537  1.4333  0.8735  0.7336
  685TIP3   OH223689   5.768   1.315   8.517 -0.0540  0.0122  0.9365
  685TIP3    H123690   5.821   1.240   8.545 -0.9743 -1.1704 -0.3039
  685TIP3    H223691   5.758   1.368   8.596  3.1909  0.4920  1.1825
  686TIP3   OH223692   3.327   3.919   6.054 -0.6973 -0.3354  0.0144
  686TIP3    H123693   3.410   3.872   6.063  0.6907  1.6001 -1.9371
  686TIP3    H223694   3.270   3.857   6.009  0.6730 -0.6995 -1.3164
  687TIP3   OH223695   3.092   0.662   1.819  0.4314 -0.3483 -0.0073
  687TIP3    H123696   3.072   0.715   1.896 -0.7761 -2.0682  0.9386
  687TIP3    H223697   3.187   0.649   1.822  0.3378 -0.8345  1.5148
  688TIP3   OH223698   1.309   4.080   2.122  0.1752  0.3287  0.1939
  688TIP3    H123699   1.397   4.109   2.144  0.8289 -0.5922 -1.1094
  688TIP3    H223700   1.270   4.055   2.206  0.8696  1.4452  0.8780
  689TIP3   OH223701   6.796   1.766   2.479  0.4008 -0.1084 -0.3594
  689TIP3    H123702   6.811   1.752   2.573  0.9570 -0.8700 -0.5530
  689TIP3    H223703   6.737   1.696   2.453  2.5861 -1.7639 -1.1689
  690TIP3   OH223704   2.492   5.703   0.686 -0.6922 -0.1909 -0.5520
  690TIP3    H123705   2.476   5.628   0.628 -2.3938  0.7784 -1.4162
  690TIP3    H223706   2.540   5.765   0.631  2.2202 -1.2150  0.6532
  691TIP3   OH223707   2.693   6.852   6.381  0.6781  0.2880  0.2420
  691TIP3    H123708   2.687   6.870   6.475 -0.1435  1.2020  0.0342
  691TIP3    H223709   2.783   6.873   6.358  0.6393  0.9634  0.6621
  692TIP3   OH223710   3.732   5.219   0.257 -0.0936  0.2206  0.7321
  692TIP3    H123711   3.708   5.281   0.188 -0.5858 -0.3449  0.3816
  692TIP3    H223712   3.662   5.228   0.322 -0.5065 -0.4157  0.3810
  693TIP3   OH223713   3.867   6.068   6.991 -0.2097 -0.5845 -0.3558
  693TIP3    H123714   3.771   6.067   6.985 -0.2306 -1.0115 -0.0453
  693TIP3    H223715   3.895   5.999   6.931 -0.3195 -3.3393  2.4755
  694TIP3   OH223716   6.321   4.723   8.096  0.0972 -0.3983 -0.0421
  694TIP3    H123717   6.301   4.721   8.002 -1.5957 -0.2978  0.2954
  694TIP3    H223718   6.301   4.634   8.127 -0.6397 -0.0587  0.4680
  695TIP3   OH223719   0.952   4.462   7.406  0.4539 -0.1333 -0.4724
  695TIP3    H123720   0.946   4.401   7.332  0.4992  1.2604 -1.6799
  695TIP3    H223721   0.861   4.479   7.431  0.4559 -1.6651  0.7636
  696TIP3   OH223722   4.338   5.975   1.902  0.2728  0.7118  0.2289
  696TIP3    H123723   4.371   6.007   1.986  1.3670 -1.3705  0.6618
  696TIP3    H223724   4.267   5.916   1.925  0.1322  0.6389 -0.3650
  697TIP3   OH223725   3.191   4.295   7.794  0.6382  0.2068 -0.2860
  697TIP3    H123726   3.183   4.385   7.825  0.2205  0.8258 -2.0984
  697TIP3    H223727   3.145   4.243   7.860  1.3204  1.2316  1.0489
  698TIP3   OH223728   1.241   3.637   6.684 -0.0114 -0.9292 -0.3978
  698TIP3    H123729   1.244   3.732   6.678 -0.0910 -0.8661  0.3959
  698TIP3    H223730   1.328   3.608   6.657 -0.4713 -0.7470 -2.2014
  699TIP3   OH223731   6.734   6.037   1.124 -0.0851  0.4976  0.3511
  699TIP3    H123732   6.714   5.966   1.186  2.3622  0.0720  0.7896
  699TIP3    H223733   6.744   6.115   1.179 -0.8833  0.7701  0.1098
  700TIP3   OH223734   0.090   6.635   1.278  0.5376 -0.3162  0.2834
  700TIP3    H123735   0.012   6.659   1.229  0.3773 -1.2418  0.0767
  700TIP3    H223736   0.160   6.633   1.213  0.9477  1.4149  0.6160
  701TIP3   OH223737   6.810   6.130   6.781 -0.2170  0.4291 -0.4687
  701TIP3    H123738   6.866   6.189   6.731 -1.2666  1.2927 -0.6437
  701TIP3    H223739   6.723   6.168   6.775 -0.3455  0.8213  2.3825
  702TIP3   OH223740   5.129   2.985   7.981  0.2498  0.0102 -0.0659
  702TIP3    H123741   5.181   2.967   8.059  1.2615 -1.6594 -1.0668
  702TIP3    H223742   5.162   2.923   7.915 -1.3683  0.5602 -1.4652
  703TIP3   OH223743   1.125   3.946   0.380 -0.4983 -0.0153 -0.5706
  703TIP3    H123744   1.187   3.990   0.439 -0.4232  0.0872 -0.7257
  703TIP3    H223745   1.138   3.989   0.296 -1.1818  0.3927 -0.4725
  704TIP3   OH223746   4.232   5.728   0.888  0.4948  0.3531 -0.0391
  704TIP3    H123747   4.159   5.786   0.867  0.0284 -0.3724 -0.4760
  704TIP3    H223748   4.292   5.782   0.939  0.3480  1.3817 -0.9211
  705TIP3   OH223749   3.060   0.899   0.244  0.2900  0.0320 -0.3141
  705TIP3    H123750   3.149   0.898   0.209  1.3193 -0.2602  2.0826
  705TIP3    H223751   3.025   0.812   0.224  0.6586  0.0436 -1.0244
  706TIP3   OH223752   3.500   3.377   0.391  0.0771 -0.0262 -1.1339
  706TIP3    H123753   3.571   3.313   0.400 -0.4604 -0.4306  0.7210
  706TIP3    H223754   3.459   3.356   0.307  1.0136 -0.9638 -1.3767
  707TIP3   OH223755   5.181   3.012   7.593  0.2609 -0.2750  0.2068
  707TIP3    H123756   5.152   2.932   7.638 -1.2162  0.2535  0.2582
  707TIP3    H223757   5.148   3.083   7.648  0.5226  0.3765 -0.4629
  708TIP3   OH223758   5.918   3.179   8.492  0.2560 -0.2496  0.1051
  708TIP3    H123759   5.827   3.200   8.471  0.1093 -0.0082  0.9526
  708TIP3    H223760   5.927   3.201   8.585  1.0597 -0.6816  0.1385
  709TIP3   OH223761   4.332   4.342   0.251  0.1350  0.4489 -0.5700
  709TIP3    H123762   4.410   4.313   0.299  2.0364  2.2078 -2.3962
  709TIP3    H223763   4.321   4.433   0.277 -2.6135 -0.2764  1.1590
  710TIP3   OH223764   6.142   5.414   1.228 -0.3289  0.1209  0.1855
  710TIP3    H123765   6.073   5.349   1.242  0.2317 -0.4813  0.1893
  710TIP3    H223766   6.174   5.396   1.140 -0.4857  0.7027  0.0057
  711TIP3   OH223767   0.344   4.738   6.402 -0.1750  0.0091 -0.5072
  711TIP3    H123768   0.318   4.704   6.317  0.9393  2.9889 -2.1851
  711TIP3    H223769   0.416   4.682   6.429  1.4187  0.7109 -2.9913
  712TIP3   OH223770   2.658   5.597   0.311  1.0155  0.0767  0.0290
  712TIP3    H123771   2.748   5.603   0.278  0.9374 -0.4487 -0.3002
  712TIP3    H223772   2.668   5.588   0.406  1.3183 -0.0790 -0.0153
  713TIP3   OH223773   2.174   4.833   6.952 -0.5092 -0.1909  0.0691
  713TIP3    H123774   2.155   4.741   6.936  0.3862 -0.1196 -1.6244
  713TIP3    H223775   2.267   4.842   6.934 -0.0245  0.5881  2.6311
  714TIP3   OH223776   0.793   6.807   8.420  0.6844 -0.2648  0.2444
  714TIP3    H123777   0.864   6.747   8.443  0.4997  0.1897  2.1458
  714TIP3    H223778   0.837   6.882   8.379  0.9988 -1.2142 -1.2350
  715TIP3   OH223779   2.878   5.964   0.081 -0.1316 -0.1872  0.8626
  715TIP3    H123780   2.961   6.008   0.103 -0.4418  0.8079  0.0832
  715TIP3    H223781   2.811   6.029   0.099 -0.7296 -0.8932  1.2042
  716TIP3   OH223782   5.890   6.709   1.394  0.4325  0.1699 -0.5719
  716TIP3    H123783   5.927   6.699   1.306 -0.1366 -0.4686 -0.7485
  716TIP3    H223784   5.966   6.728   1.449  0.8397  0.2596 -1.1499
  717TIP3   OH223785   3.844   2.209   7.947 -0.2891  0.1406 -0.1280
  717TIP3    H123786   3.794   2.232   7.869  0.0471  0.3696 -0.2801
  717TIP3    H223787   3.784   2.156   8.000 -1.0091  1.1802  0.1311
  718TIP3   OH223788   3.305   2.909   1.487  0.6157  0.6057  0.1188
  718TIP3    H123789   3.312   2.814   1.476 -0.4075  0.7478 -2.2460
  718TIP3    H223790   3.351   2.927   1.570  0.0034 -2.0306  1.1092
  719TIP3   OH223791   3.310   6.167   2.402 -0.0973 -0.2751  0.4260
  719TIP3    H123792   3.291   6.254   2.365 -1.8208 -1.1316 -0.8063
  719TIP3    H223793   3.397   6.146   2.368 -0.2963  0.3475 -0.5170
  720TIP3   OH223794   5.163   0.538   0.025  0.2112 -0.0346 -0.3292
  720TIP3    H123795   5.153   0.443   0.023 -1.6171  0.1260 -2.0180
  720TIP3    H223796   5.132   0.567  -0.061  0.9828  2.0715  0.0504
  721TIP3   OH223797   6.583   5.575   6.720  0.5055  0.2858  0.1126
  721TIP3    H123798   6.603   5.500   6.665 -0.3108  0.5044 -0.5108
  721TIP3    H223799   6.496   5.556   6.756  0.2210  0.9911 -0.1782
  722TIP3   OH223800   5.209   3.385   1.654  0.1322  0.0596 -0.3589
  722TIP3    H123801   5.142   3.409   1.718  0.5647 -0.3011  0.2393
  722TIP3    H223802   5.267   3.461   1.650  1.0676 -0.5423  0.9641
  723TIP3   OH223803   5.427   0.578   0.093 -0.4356  0.4591 -0.1914
  723TIP3    H123804   5.410   0.661   0.137 -0.7786  0.6721 -0.7222
  723TIP3    H223805   5.341   0.544   0.071 -0.3589 -0.5339  0.8991
  724TIP3   OH223806   2.421   6.170   7.936 -0.2775  0.0593  0.6377
  724TIP3    H123807   2.513   6.143   7.933 -0.0548  0.3412  3.2130
  724TIP3    H223808   2.420   6.258   7.900  0.5629  0.2638  1.1074
  725TIP3   OH223809   4.646   1.697   0.490  0.2532  0.3604 -0.4809
  725TIP3    H123810   4.740   1.710   0.504  0.6322  0.6858 -2.9430
  725TIP3    H223811   4.614   1.784   0.465 -0.6683  0.1730  0.0022
  726TIP3   OH223812   3.707   5.471   1.433  0.5848  0.2672  0.2185
  726TIP3    H123813   3.708   5.459   1.528 -0.6189 -0.1335  0.1971
  726TIP3    H223814   3.785   5.523   1.415  1.0370  0.0364  1.3803
  727TIP3   OH223815   1.859   6.772   7.537  0.1094  0.1551 -0.2082
  727TIP3    H123816   1.767   6.784   7.563 -0.8289 -1.2465 -2.5987
  727TIP3    H223817   1.907   6.832   7.594 -2.2905  1.0790  1.0114
  728TIP3   OH223818   2.687   6.579   1.549 -0.4793 -0.0236  0.6211
  728TIP3    H123819   2.742   6.588   1.626  0.1075  1.2004  0.0939
  728TIP3    H223820   2.651   6.491   1.554  1.2668 -0.7329  1.1542
  729TIP3   OH223821   2.546   3.485   8.491 -0.5576 -0.2414 -0.0483
  729TIP3    H123822   2.530   3.391   8.497  0.1163 -0.3562 -0.0359
  729TIP3    H223823   2.465   3.525   8.524 -0.1745 -0.8332  1.7336
  730TIP3   OH223824   1.757   4.931   0.128  0.4454 -0.3065 -0.1289
  730TIP3    H123825   1.849   4.933   0.103  0.3983 -1.7492 -0.5267
  730TIP3    H223826   1.711   4.967   0.051  0.7411  2.0034  0.7035
  731TIP3   OH223827   1.600   1.279   1.114 -0.2790  0.1999  0.0482
  731TIP3    H123828   1.620   1.209   1.052 -1.3201  0.0490 -0.1462
  731TIP3    H223829   1.673   1.340   1.106  0.7519 -0.9489  0.3628
  732TIP3   OH223830   0.733   6.104   8.437  0.7821  0.5559  0.3626
  732TIP3    H123831   0.683   6.074   8.361  0.2567  0.2208  0.8376
  732TIP3    H223832   0.771   6.025   8.474  1.3627  0.7623  0.2366
  733TIP3   OH223833   1.209   0.109   1.691 -0.1212  0.2944 -0.2879
  733TIP3    H123834   1.148   0.094   1.618 -1.0211 -0.0924  0.5305
  733TIP3    H223835   1.159   0.086   1.769  0.5499  1.5181  0.5317
  734TIP3   OH223836   3.325   5.522   6.725 -0.1089 -0.0265 -0.2245
  734TIP3    H123837   3.270   5.443   6.728 -1.6884  1.0425  0.7520
  734TIP3    H223838   3.271   5.587   6.679  1.2934  0.4272 -1.3124
  735TIP3   OH223839   6.207   3.916   0.427 -0.4728  0.3292  0.0044
  735TIP3    H123840   6.227   3.839   0.374 -0.7902 -0.2346  0.6801
  735TIP3    H223841   6.162   3.976   0.368  0.2737  0.2348 -0.6734
  736TIP3   OH223842   5.168   4.426   6.269 -0.6468  0.0034 -0.1174
  736TIP3    H123843   5.165   4.454   6.361 -1.2594 -2.2413  0.6132
  736TIP3    H223844   5.207   4.338   6.272 -1.6839 -0.5635 -1.8863
  737TIP3   OH223845   1.308   1.707   1.664  0.2389  0.2305  0.1245
  737TIP3    H123846   1.310   1.660   1.748 -0.6838  0.2935  0.1954
  737TIP3    H223847   1.390   1.683   1.621 -0.4484 -1.9698 -0.1156
  738TIP3   OH223848   0.908   0.971   2.486  0.4301 -0.2376 -0.2716
  738TIP3    H123849   0.841   0.908   2.513 -0.7371  1.1113  0.0929
  738TIP3    H223850   0.950   0.930   2.411  2.1709 -3.0739  2.0282
  739TIP3   OH223851   4.377   3.358   0.996  0.0545  0.2552  0.0180
  739TIP3    H123852   4.461   3.326   1.029 -0.3978 -0.3331  0.6345
  739TIP3    H223853   4.363   3.310   0.915  0.2961  0.3258 -0.0653
  740TIP3   OH223854   5.991   4.619   0.566  0.3574  0.4104 -0.3746
  740TIP3    H123855   5.966   4.640   0.655 -0.4128  0.2705 -0.5485
  740TIP3    H223856   6.075   4.573   0.574 -0.3644 -0.8299  0.3919
  741TIP3   OH223857   6.076   1.196   1.690  0.1573 -0.3748  0.2502
  741TIP3    H123858   6.054   1.128   1.753 -0.7504 -0.2059  0.1311
  741TIP3    H223859   6.076   1.152   1.605 -1.4045 -0.0713  0.0502
  742TIP3   OH223860   0.429   5.335   8.121  0.2753 -0.1421 -0.3488
  742TIP3    H123861   0.343   5.345   8.163  0.2969  0.6891 -0.4781
  742TIP3    H223862   0.465   5.255   8.158 -1.4143 -1.6692 -1.8288
  743TIP3   OH223863   5.650   1.287   7.779  0.0627  0.1889 -0.2580
  743TIP3    H123864   5.660   1.199   7.815  1.1022  0.4784  0.1848
  743TIP3    H223865   5.684   1.345   7.847 -0.2766  0.9169 -0.6936
  744TIP3   OH223866   2.702   6.389   8.616 -0.8483  0.6451 -0.4510
  744TIP3    H123867   2.755   6.449   8.563 -0.7727  0.2802 -0.7903
  744TIP3    H223868   2.613   6.425   8.610 -1.1982 -0.4077 -2.3563
  745TIP3   OH223869   3.768   5.344   1.677  0.2820  0.2148  0.7176
  745TIP3    H123870   3.858   5.326   1.705  0.5324  0.0614 -0.1573
  745TIP3    H223871   3.713   5.303   1.744  0.8426 -2.4300 -0.3330
  746TIP3   OH223872   2.405   3.597   1.343  0.1887  0.2301  0.1589
  746TIP3    H123873   2.444   3.510   1.332 -0.7317 -0.0591 -0.9939
  746TIP3    H223874   2.479   3.655   1.358  0.8611 -0.6623  0.3928
  747TIP3   OH223875   1.365   0.488   8.143  0.2123  0.2793  0.8553
  747TIP3    H123876   1.295   0.424   8.133  0.3902  0.3105 -0.8891
  747TIP3    H223877   1.422   0.450   8.210  0.4971 -1.6029 -0.3630
  748TIP3   OH223878   5.789   1.017   0.278  0.4969  0.5096  0.0848
  748TIP3    H123879   5.844   0.967   0.339  1.3008  0.4981 -0.6284
  748TIP3    H223880   5.760   0.952   0.215  0.0624  0.6146  0.1735
  749TIP3   OH223881   2.729   4.663   1.363 -0.2238  0.0944 -0.5487
  749TIP3    H123882   2.713   4.571   1.382  0.4780  0.1392  0.2964
  749TIP3    H223883   2.643   4.705   1.374 -0.0438 -0.0085  1.8972
  750TIP3   OH223884   3.239   4.555   1.201  0.1227 -0.0798 -0.1177
  750TIP3    H123885   3.152   4.585   1.226 -0.7758 -0.6633 -2.2505
  750TIP3    H223886   3.223   4.473   1.153  2.1186 -1.8157  1.9647
  751TIP3   OH223887   3.028   3.601   7.784  0.2627 -0.5210  0.2395
  751TIP3    H123888   3.090   3.667   7.816  1.1342 -1.8341  1.3575
  751TIP3    H223889   2.956   3.653   7.746  0.9861  1.0608  0.9172
  752TIP3   OH223890   6.008   6.290   6.662  0.2953  0.1817  0.8093
  752TIP3    H123891   5.916   6.315   6.671 -0.5801 -1.9166 -1.3864
  752TIP3    H223892   6.035   6.325   6.578  0.5568 -1.6648  0.0633
  753TIP3   OH223893   5.705   4.898   7.069  0.0313  0.7694  0.4483
  753TIP3    H123894   5.612   4.875   7.064  0.2888 -0.5411  1.2661
  753TIP3    H223895   5.717   4.929   7.158  0.8927 -1.7013  1.2779
  754TIP3   OH223896   4.469   4.626   1.439  0.5626 -0.3880  0.6315
  754TIP3    H123897   4.471   4.712   1.481 -0.4241 -0.0941  0.1088
  754TIP3    H223898   4.472   4.564   1.512  1.0662  0.0899  1.0250
  755TIP3   OH223899   0.176   1.584   1.139  0.2223  0.6482 -0.4715
  755TIP3    H123900   0.226   1.584   1.057 -0.8925  0.4415 -1.1794
  755TIP3    H223901   0.139   1.495   1.144 -0.9981  1.1275 -0.5680
  756TIP3   OH223902   4.928   0.943   6.969  0.3167 -0.1879 -0.0836
  756TIP3    H123903   4.928   1.024   7.020  2.9985  0.3638 -0.8113
  756TIP3    H223904   4.927   0.971   6.878 -0.5882 -1.0430 -0.3489
  757TIP3   OH223905   4.677   5.772   7.576 -0.0772 -0.1582  0.0170
  757TIP3    H123906   4.752   5.806   7.626 -1.1994 -0.1785  1.7913
  757TIP3    H223907   4.608   5.836   7.592 -0.5194 -0.2447 -1.4457
  758TIP3   OH223908   4.164   4.513   0.976 -0.3526 -0.0233  0.4057
  758TIP3    H123909   4.145   4.572   1.049 -0.6435 -0.7299  0.9287
  758TIP3    H223910   4.200   4.434   1.019  3.0719  0.9094 -0.4750
  759TIP3   OH223911   4.038   0.425   6.539 -0.1135 -0.1936 -0.0427
  759TIP3    H123912   3.984   0.489   6.587  0.8996  0.8842 -0.2985
  759TIP3    H223913   3.976   0.379   6.482 -1.1695 -0.7563  1.4979
  760TIP3   OH223914   1.377   5.843   7.116  0.6092  0.2406  0.0006
  760TIP3    H123915   1.391   5.845   7.211  1.3142  0.7709 -0.1108
  760TIP3    H223916   1.429   5.915   7.082 -0.4236  0.6802 -0.7047
  761TIP3   OH223917   6.544   6.803   8.456 -0.4242 -0.8550  0.0040
  761TIP3    H123918   6.594   6.851   8.522  0.1880 -1.1241 -0.2538
  761TIP3    H223919   6.469   6.859   8.437 -1.8727 -1.7363  2.5509
  762TIP3   OH223920   0.822   0.084   0.440 -0.0252 -0.1658  0.6294
  762TIP3    H123921   0.819   0.170   0.482  0.2961  0.2081 -0.0906
  762TIP3    H223922   0.754   0.088   0.372 -0.5510 -0.7682  1.1092
  763TIP3   OH223923   5.571   1.712   6.321 -0.5255  0.1982 -0.1309
  763TIP3    H123924   5.566   1.629   6.274  0.1700  0.8049 -1.3300
  763TIP3    H223925   5.527   1.695   6.404 -0.2222 -1.4154 -0.2656
  764TIP3   OH223926   3.115   4.991   7.448 -0.4398  0.0575 -0.3698
  764TIP3    H123927   3.057   4.918   7.468  2.1673 -2.3051 -0.8215
  764TIP3    H223928   3.092   5.017   7.359 -0.8903 -0.7404 -0.4962
  765TIP3   OH223929   5.913   1.699   1.009  0.2261 -0.2149 -0.1099
  765TIP3    H123930   5.980   1.756   1.046  0.7363 -0.1850 -1.0360
  765TIP3    H223931   5.851   1.758   0.966 -0.0650 -0.2792  0.2161
  766TIP3   OH223932   5.463   2.139   6.254 -0.1344 -0.0449 -1.1358
  766TIP3    H123933   5.531   2.100   6.199  0.1813 -1.8690  0.4123
  766TIP3    H223934   5.509   2.201   6.310  0.0371 -0.3218 -0.9698
  767TIP3   OH223935   3.463   1.549   1.246  1.0953  0.3453  0.0402
  767TIP3    H123936   3.466   1.604   1.325  0.5057  1.3985 -0.6535
  767TIP3    H223937   3.548   1.563   1.205  0.7311  1.2277 -0.4411
  768TIP3   OH223938   6.776   6.291   1.253 -0.2959 -0.6580  0.5016
  768TIP3    H123939   6.865   6.325   1.256 -0.7232  0.7182 -0.6638
  768TIP3    H223940   6.742   6.304   1.341  0.1103  0.4796  0.5151
  769TIP3   OH223941   5.079   2.208   7.354 -0.2478  0.0978  0.3917
  769TIP3    H123942   5.124   2.124   7.354 -0.3339  0.0288 -0.9333
  769TIP3    H223943   5.079   2.235   7.262 -0.2619  1.5253  0.7860
  770TIP3   OH223944   1.869   4.653   8.473  0.5239 -0.4738  0.1365
  770TIP3    H123945   1.816   4.677   8.549  1.8143  0.4694  0.7838
  770TIP3    H223946   1.899   4.564   8.491 -1.1351 -1.2050 -0.4500
  771TIP3   OH223947   6.639   0.612   0.225 -0.4569  0.2508 -0.3238
  771TIP3    H123948   6.632   0.541   0.289 -0.7593  0.1117 -0.5059
  771TIP3    H223949   6.678   0.685   0.273  0.0987 -0.1208 -0.1968
  772TIP3   OH223950   1.941   5.823   1.500 -0.5500 -0.6136 -0.1132
  772TIP3    H123951   1.849   5.821   1.526 -0.6379 -1.0079 -0.4419
  772TIP3    H223952   1.964   5.731   1.485 -0.1348 -0.5087 -0.1514
  773TIP3   OH223953   3.580   6.040   7.061 -0.0125 -0.6171  1.0410
  773TIP3    H123954   3.596   6.014   7.151  0.1086  0.2485  1.2785
  773TIP3    H223955   3.488   6.067   7.059 -0.0920 -0.8908  0.8354
  774TIP3   OH223956   2.384   4.487   7.627 -0.0511  0.6825  0.0761
  774TIP3    H123957   2.363   4.511   7.718 -1.5644  1.6638 -0.4940
  774TIP3    H223958   2.401   4.393   7.631 -1.6820  0.3806  1.1588
  775TIP3   OH223959   5.520   3.558   1.867  0.5204 -0.1249 -0.2352
  775TIP3    H123960   5.493   3.646   1.838  0.4971 -0.0713 -0.0528
  775TIP3    H223961   5.437   3.513   1.886  0.5160  0.9581  3.0955
  776TIP3   OH223962   3.330   3.489   7.204 -0.3813  0.2627  0.4682
  776TIP3    H123963   3.407   3.438   7.180  0.8651  1.7455  1.1273
  776TIP3    H223964   3.287   3.507   7.120 -1.0380 -2.0286  0.2341
  777TIP3   OH223965   6.741   0.574   1.304 -0.5529 -0.0911 -0.8178
  777TIP3    H123966   6.655   0.557   1.266 -1.0384  2.0793 -0.8200
  777TIP3    H223967   6.725   0.581   1.398 -0.5531  1.1789 -0.9015
  778TIP3   OH223968   5.898   0.955   8.340 -0.2778 -0.1154  0.3649
  778TIP3    H123969   5.895   0.877   8.284 -1.3180  0.5676 -0.5697
  778TIP3    H223970   5.862   1.025   8.285  1.7645  1.3197  0.7438
  779TIP3   OH223971   1.237   1.677   0.337 -0.4393  0.4193 -0.2442
  779TIP3    H123972   1.145   1.703   0.339 -1.1720 -1.5735 -2.7200
  779TIP3    H223973   1.281   1.751   0.295 -1.5328  0.1222 -2.0473
  780TIP3   OH223974   2.909   5.804   7.588 -0.2339 -0.0220 -0.2629
  780TIP3    H123975   2.877   5.824   7.500  1.7411  0.0924 -0.9924
  780TIP3    H223976   2.927   5.710   7.587  0.6666  0.1417 -0.2923
  781TIP3   OH223977   3.258   5.538   1.679  0.0364 -0.2232 -0.1301
  781TIP3    H123978   3.318   5.463   1.681 -1.7352 -1.7152 -0.5079
  781TIP3    H223979   3.210   5.533   1.761  0.8858  1.4328  0.5353
  782TIP3   OH223980   3.825   5.559   8.479 -0.0785  0.1197 -0.2234
  782TIP3    H123981   3.844   5.637   8.427 -1.2863  1.5599  1.3684
  782TIP3    H223982   3.816   5.488   8.415 -0.4573  1.5880 -1.8605
  783TIP3   OH223983   1.348   0.082   7.338 -0.0323  0.4938 -0.0369
  783TIP3    H123984   1.325   0.017   7.404  0.6475  0.5492  0.2615
  783TIP3    H223985   1.334   0.037   7.254 -2.7906  1.0324  0.0412
  784TIP3   OH223986   1.408   3.416   0.514  0.2852  0.0524  0.3508
  784TIP3    H123987   1.438   3.506   0.529  0.8493 -0.2066  0.8073
  784TIP3    H223988   1.347   3.423   0.440 -1.0576  1.0735  1.4981
  785TIP3   OH223989   4.322   6.464   7.318  0.1614  0.2085  0.0445
  785TIP3    H123990   4.349   6.385   7.270  0.6136 -0.4633  1.3552
  785TIP3    H223991   4.230   6.449   7.338  0.2784 -0.0354  0.3950
  786TIP3   OH223992   1.286   1.199   6.773 -0.1992  0.4581  0.6563
  786TIP3    H123993   1.311   1.284   6.737 -1.9717  0.8646  0.2680
  786TIP3    H223994   1.261   1.217   6.863 -0.4551  0.3296  0.6131
  787TIP3   OH223995   6.630   1.270   0.782  0.5587  0.3204 -0.7695
  787TIP3    H123996   6.652   1.197   0.724 -0.4273  1.0657 -2.1346
  787TIP3    H223997   6.684   1.343   0.751  1.6198  0.1888  0.6520
  788TIP3   OH223998   2.518   6.226   0.557 -0.1115  0.0478  0.6047
  788TIP3    H123999   2.566   6.302   0.590 -0.7260 -0.4468  2.8208
  788TIP3    H224000   2.429   6.238   0.590 -0.3500 -1.3678  0.5311
  789TIP3   OH224001   2.208   1.253   7.892  0.0869  0.1058  0.1267
  789TIP3    H124002   2.276   1.192   7.921  0.1086  0.8330  1.6773
  789TIP3    H224003   2.193   1.310   7.967 -2.1061  0.0935 -0.2559
  790TIP3   OH224004   3.902   0.158   1.471  0.1639 -0.4130  0.5270
  790TIP3    H124005   3.977   0.133   1.525  1.6651 -0.5903 -1.5324
  790TIP3    H224006   3.909   0.253   1.463 -0.4496 -0.3057  1.1540
  791TIP3   OH224007   2.360   1.742   1.328  0.1228  0.1478  0.1797
  791TIP3    H124008   2.440   1.743   1.381  1.1292 -0.8759 -1.2378
  791TIP3    H224009   2.305   1.810   1.367  1.0348 -0.1445  2.1518
  792TIP3   OH224010   0.987   6.536   0.667  0.3854 -0.0638 -0.1478
  792TIP3    H124011   0.893   6.524   0.680  0.5286  0.1221  1.1647
  792TIP3    H224012   1.002   6.629   0.684  0.9163 -0.2475  0.4390
  793TIP3   OH224013   2.765   3.141   6.696  0.2716 -0.6220  0.0712
  793TIP3    H124014   2.784   3.221   6.647 -2.0012  0.4188  0.7438
  793TIP3    H224015   2.843   3.087   6.686  1.8259  1.6199 -0.5197
  794TIP3   OH224016   3.639   4.348   0.470 -0.3819  0.5376  0.0743
  794TIP3    H124017   3.637   4.412   0.541  0.9289  0.6902 -0.0036
  794TIP3    H224018   3.648   4.400   0.390 -1.4609  0.3450 -0.1914
  795TIP3   OH224019   3.254   2.467   6.795 -0.0162  0.2830 -0.3259
  795TIP3    H124020   3.255   2.411   6.872 -0.2454  0.5593 -0.1203
  795TIP3    H224021   3.162   2.490   6.783  0.0025  0.1493 -0.7504
  796TIP3   OH224022   1.654   5.841   7.512 -0.0196 -0.0505  0.2110
  796TIP3    H124023   1.699   5.843   7.597  0.3489  1.3310  0.0097
  796TIP3    H224024   1.641   5.748   7.494  1.9558 -0.4718  0.7169
  797TIP3   OH224025   3.320   6.092   7.060  0.2119  0.5951  0.0645
  797TIP3    H124026   3.256   6.099   6.989  0.2079 -0.0751 -0.0051
  797TIP3    H224027   3.292   6.156   7.125 -1.0076 -0.2507  0.4076
  798TIP3   OH224028   3.889   5.110   1.532 -0.5081 -0.5683 -0.0449
  798TIP3    H124029   3.943   5.109   1.612 -0.9516 -1.7781  0.2509
  798TIP3    H224030   3.950   5.088   1.462  0.1083  1.4804 -0.2247
  799TIP3   OH224031   3.095   6.222   0.619 -0.4367  0.4810 -0.4029
  799TIP3    H124032   3.035   6.264   0.681 -0.4434  0.9208 -0.6983
  799TIP3    H224033   3.079   6.129   0.628  0.1647  0.4779  0.8803
  800TIP3   OH224034   3.201   1.301   7.417 -0.4696 -0.7367 -0.7101
  800TIP3    H124035   3.226   1.228   7.474  0.6414 -2.4633 -3.1969
  800TIP3    H224036   3.275   1.361   7.421 -1.4774  0.4410  1.5119
  801TIP3   OH224037   1.232   5.922   8.621 -0.2527  0.0306  0.0793
  801TIP3    H124038   1.187   6.001   8.591 -0.6445 -0.0850  0.3635
  801TIP3    H224039   1.314   5.921   8.571  0.2295  1.1716  0.8000
  802TIP3   OH224040   6.823   4.157   7.101 -0.3096 -0.1109 -0.3206
  802TIP3    H124041   6.883   4.089   7.130  1.2720  0.7916 -1.3307
  802TIP3    H224042   6.814   4.215   7.177 -2.0559 -1.6253  0.7130
  803TIP3   OH224043   2.666   6.578   7.285 -0.2795 -0.1856  0.1419
  803TIP3    H124044   2.682   6.544   7.197  1.4881 -1.1591  0.7958
  803TIP3    H224045   2.588   6.633   7.275  0.4443  0.5467 -2.2180
  804TIP3   OH224046   5.930   6.275   0.285  0.5488  0.3599 -0.4682
  804TIP3    H124047   6.004   6.267   0.225  2.1938  0.4410  1.4251
  804TIP3    H224048   5.950   6.214   0.356  1.3565  3.7337  2.5308
  805TIP3   OH224049   1.330   2.999   8.255  0.2587  0.3442 -0.2135
  805TIP3    H124050   1.412   3.037   8.223  0.4197  1.1051  1.0669
  805TIP3    H224051   1.335   2.907   8.228  1.6309  0.3284  0.0053
  806TIP3   OH224052   3.235   3.080   7.530  0.3466 -0.6311  0.5484
  806TIP3    H124053   3.240   3.100   7.624 -0.1807 -1.0159  0.6571
  806TIP3    H224054   3.142   3.072   7.511  0.3656  0.6737 -0.2810
  807TIP3   OH224055   6.887   2.100   6.966  0.1469 -0.1293 -0.2669
  807TIP3    H124056   6.951   2.083   7.035  0.4083  1.7827  0.0148
  807TIP3    H224057   6.937   2.090   6.885 -0.2264 -2.6571 -0.2649
  808TIP3   OH224058   1.694   2.389   2.158 -1.0507 -0.2389  0.2499
  808TIP3    H124059   1.618   2.446   2.144  0.0775  1.3187  0.2573
  808TIP3    H224060   1.734   2.421   2.239 -0.6901 -1.4072  0.5591
  809TIP3   OH224061   4.158   1.871   6.788 -0.5005  0.0785 -0.0252
  809TIP3    H124062   4.070   1.834   6.789 -1.7615  2.8469 -0.7074
  809TIP3    H224063   4.150   1.953   6.739  1.8499  1.8004  2.1862
  810TIP3   OH224064   6.602   1.657   8.067 -0.5435 -0.1384  0.0276
  810TIP3    H124065   6.541   1.584   8.076 -0.2394 -0.3177  0.7066
  810TIP3    H224066   6.582   1.714   8.142  0.9709 -0.8397  1.0110
  811TIP3   OH224067   3.010   3.554   0.080  0.1859  0.1617 -0.5206
  811TIP3    H124068   2.925   3.599   0.086 -1.0028 -1.8268 -1.4061
  811TIP3    H224069   3.042   3.576  -0.007 -0.7413 -1.2173 -1.2374
  812TIP3   OH224070   1.323   2.755   8.139  0.1470  0.4420 -0.7757
  812TIP3    H124071   1.383   2.689   8.173  1.3612  1.7702 -0.1892
  812TIP3    H224072   1.236   2.722   8.158  0.7458 -0.3924  0.6689
  813TIP3   OH224073   5.816   0.370   1.255 -0.3044 -0.1763 -0.4003
  813TIP3    H124074   5.901   0.337   1.283 -0.2905 -0.9802 -1.3421
  813TIP3    H224075   5.760   0.361   1.333  0.3317 -0.1067  0.0766
  814TIP3   OH224076   4.466   3.154   7.067  0.0834  0.3151  0.5176
  814TIP3    H124077   4.559   3.140   7.087 -0.4437 -1.1130  2.2687
  814TIP3    H224078   4.466   3.200   6.983  2.3513 -0.0509  0.2518
  815TIP3   OH224079   5.334   0.756   0.327 -0.2756 -0.4086 -0.4196
  815TIP3    H124080   5.319   0.824   0.392 -1.0166 -0.9681  0.0106
  815TIP3    H224081   5.248   0.716   0.314  0.0630 -0.9678 -0.9920
  816TIP3   OH224082   6.461   4.337   8.252  0.4190 -0.4497  0.3794
  816TIP3    H124083   6.508   4.275   8.196  0.0002 -0.2892 -0.1644
  816TIP3    H224084   6.510   4.338   8.334  0.4128 -1.5256  0.4085
  817TIP3   OH224085   4.363   0.535   8.540  0.2426  0.4511  0.0022
  817TIP3    H124086   4.422   0.502   8.472  0.7738 -0.8305  1.0465
  817TIP3    H224087   4.372   0.473   8.612 -2.2778  0.3090  0.2762
  818TIP3   OH224088   0.773   5.630   6.798  0.1552  0.4124  0.5532
  818TIP3    H124089   0.724   5.548   6.791 -0.5411  0.9043 -0.6263
  818TIP3    H224090   0.859   5.604   6.832 -0.0937 -0.7863  0.3103
  819TIP3   OH224091   4.079   0.537   8.553  0.0572 -0.3852  0.0329
  819TIP3    H124092   4.158   0.588   8.570 -0.3270  0.0258  0.6492
  819TIP3    H224093   4.110   0.453   8.519  0.6950  0.2684 -1.0214
  820TIP3   OH224094   4.788   1.502   7.505  0.1083  0.3277 -0.5096
  820TIP3    H124095   4.791   1.407   7.520 -0.8500  0.1865 -1.0847
  820TIP3    H224096   4.829   1.540   7.582  1.7174 -0.5994 -0.8683
  821TIP3   OH224097   3.604   3.330   7.424  0.2143 -0.2579  0.0287
  821TIP3    H124098   3.558   3.249   7.403 -1.6270  0.7806 -0.2019
  821TIP3    H224099   3.537   3.386   7.464  0.9435  1.7551 -1.3665
  822TIP3   OH224100   4.586   4.375   0.656 -0.4002  0.7930  0.0105
  822TIP3    H124101   4.657   4.372   0.721 -1.3763  1.7634  1.1799
  822TIP3    H224102   4.516   4.322   0.694 -0.6590  0.6151 -0.6943
  823TIP3   OH224103   4.877   1.925   8.456 -0.0677 -0.0094 -0.0865
  823TIP3    H124104   4.926   2.002   8.486 -0.7692  0.8774 -1.1550
  823TIP3    H224105   4.926   1.893   8.380 -0.5174  0.1917 -0.4616
  824TIP3   OH224106   5.802   5.586   7.677 -0.4267  0.0342  0.6516
  824TIP3    H124107   5.792   5.653   7.745  0.6846  1.6036 -0.6604
  824TIP3    H224108   5.839   5.633   7.602 -1.2056 -1.7159 -0.9142
  825TIP3   OH224109   0.244   4.068   6.809 -0.1904  0.1030 -0.1303
  825TIP3    H124110   0.230   4.016   6.730  0.0472  1.5992 -1.1864
  825TIP3    H224111   0.178   4.138   6.804 -0.2035  0.1963  1.0219
  826TIP3   OH224112   2.349   0.957   8.541  0.4824 -0.2304 -0.2396
  826TIP3    H124113   2.377   1.028   8.484  2.8764  0.8900  2.1009
  826TIP3    H224114   2.414   0.888   8.528  2.4369  0.8900  2.4680
  827TIP3   OH224115   0.431   1.610   6.730 -0.6796 -0.2756 -0.2285
  827TIP3    H124116   0.343   1.605   6.690 -0.2809 -0.2445 -1.1359
  827TIP3    H224117   0.485   1.552   6.677  0.0484  0.3800 -0.2305
  828TIP3   OH224118   4.701   3.429   7.166  0.7069  0.3283  0.7675
  828TIP3    H124119   4.650   3.428   7.085 -0.2330  0.6458  1.3395
  828TIP3    H224120   4.755   3.508   7.160  0.3457  0.5657  0.6246
  829TIP3   OH224121   6.681   4.204   6.648 -1.0348  0.1961  0.3406
  829TIP3    H124122   6.716   4.168   6.730 -2.2268  1.0297  1.2424
  829TIP3    H224123   6.739   4.169   6.581 -0.1263 -0.6559  1.5138
  830TIP3   OH224124   5.309   5.529   7.934 -0.3716 -0.0315 -0.5774
  830TIP3    H124125   5.357   5.538   7.851 -0.5150 -0.8884 -0.7662
  830TIP3    H224126   5.319   5.614   7.977  0.9902 -0.0773 -0.7841
  831TIP3   OH224127   2.455   1.436   6.444 -0.1421 -0.4697  0.2688
  831TIP3    H124128   2.455   1.356   6.390 -0.7020 -0.5531  0.3820
  831TIP3    H224129   2.535   1.482   6.419  1.1673 -1.9472  1.5156
  832TIP3   OH224130   2.431   5.367   7.763  0.5435  0.0987 -0.5771
  832TIP3    H124131   2.481   5.447   7.752  1.0488 -0.4301 -2.4140
  832TIP3    H224132   2.480   5.301   7.714 -0.2696 -1.1636  0.2518
  833TIP3   OH224133   3.085   2.509   7.406 -0.0612  0.0512 -0.2046
  833TIP3    H124134   3.010   2.462   7.370 -1.2996  0.5896  1.5056
  833TIP3    H224135   3.086   2.485   7.499  2.3860 -0.5484 -0.3141
  834TIP3   OH224136   4.625   2.888   1.735 -0.5541  0.1249 -0.1831
  834TIP3    H124137   4.573   2.848   1.666 -0.1165 -0.6466 -0.0784
  834TIP3    H224138   4.604   2.981   1.730 -0.8112  0.0267 -1.1098
  835TIP3   OH224139   2.219   5.669   7.746  0.2743 -0.1352  0.2367
  835TIP3    H124140   2.279   5.642   7.677  0.9439  0.7266  0.4658
  835TIP3    H224141   2.191   5.757   7.721  1.1451  0.5188  1.4265
  836TIP3   OH224142   2.189   0.870   6.349 -0.1298  0.1559 -0.2401
  836TIP3    H124143   2.205   0.781   6.382 -0.0695 -0.0637 -0.8597
  836TIP3    H224144   2.276   0.908   6.339 -0.1858  0.9834  1.8693
  837TIP3   OH224145   4.654   0.391   1.148 -0.0501  0.0318  0.0746
  837TIP3    H124146   4.711   0.422   1.078  1.7381 -0.6574  1.1591
  837TIP3    H224147   4.628   0.470   1.195  0.7101  0.2896  0.0685
  838TIP3   OH224148   5.959   4.277   0.036 -0.6673 -0.0734 -0.4340
  838TIP3    H124149   6.024   4.262   0.104 -1.1989 -0.8218 -0.0786
  838TIP3    H224150   5.923   4.364   0.056 -1.2226 -0.5266  0.5927
  839TIP3   OH224151   4.321   4.538   2.227  0.2363  0.1467 -0.2674
  839TIP3    H124152   4.387   4.473   2.203  0.5392 -0.1057  1.1069
  839TIP3    H224153   4.247   4.487   2.259 -0.7544  0.4260 -1.9977
  840TIP3   OH224154   0.713   6.808   1.254 -0.0354 -0.3396 -0.6340
  840TIP3    H124155   0.793   6.856   1.234  0.9961 -0.4448  2.7009
  840TIP3    H224156   0.738   6.716   1.245 -0.9793 -0.4138 -3.3886
  841TIP3   OH224157   5.495   2.314   0.562 -0.1320  0.1610  0.3183
  841TIP3    H124158   5.453   2.234   0.530 -0.0146  0.3019 -0.1949
  841TIP3    H224159   5.586   2.289   0.577 -0.0202  0.2751 -0.1485
  842TIP3   OH224160   3.361   2.958   0.456  0.0839 -0.1357  0.6459
  842TIP3    H124161   3.327   2.989   0.540  0.4454 -0.7467  1.0263
  842TIP3    H224162   3.344   2.864   0.456  0.2682 -0.1774  0.1177
  843TIP3   OH224163   3.008   4.698   6.342  0.1546 -0.4036  0.3741
  843TIP3    H124164   3.088   4.644   6.345 -1.4300 -2.9903 -0.5783
  843TIP3    H224165   2.947   4.646   6.290 -1.9127  1.8792  0.3806
  844TIP3   OH224166   4.773   5.493   8.546  0.5710  0.0844 -0.1772
  844TIP3    H124167   4.843   5.501   8.482  0.4069  1.6260 -0.2082
  844TIP3    H224168   4.815   5.512   8.630  0.5271 -0.6537  0.0148
  845TIP3   OH224169   3.985   4.748   1.154 -0.2585 -0.5968 -0.2882
  845TIP3    H124170   3.912   4.688   1.165 -0.6502 -0.4271 -1.6953
  845TIP3    H224171   3.967   4.792   1.070  0.8520  0.2926 -0.0836
  846TIP3   OH224172   2.460   2.430   7.931 -0.2447 -0.1189  0.3820
  846TIP3    H124173   2.409   2.511   7.933 -0.9333 -0.5526  1.4513
  846TIP3    H224174   2.482   2.413   8.023 -0.5694 -1.4204  0.2438
  847TIP3   OH224175   4.078   1.579   1.617 -0.2470  0.0051 -0.0175
  847TIP3    H124176   4.138   1.653   1.626 -0.4403  0.2520 -0.7016
  847TIP3    H224177   4.110   1.515   1.680  0.0318  0.5981  0.4614
  848TIP3   OH224178   2.064   6.561   1.522  0.0822 -0.1887  0.1105
  848TIP3    H124179   2.038   6.610   1.601  2.2370  2.0781 -0.4814
  848TIP3    H224180   2.159   6.569   1.519  0.0961 -0.6091 -2.5022
  849TIP3   OH224181   1.121   0.996   0.229 -0.8340 -0.2488 -0.4191
  849TIP3    H124182   1.198   0.982   0.173 -0.3690 -1.4950  0.4969
  849TIP3    H224183   1.056   1.033   0.170 -0.4450 -1.7706 -1.8794
  850TIP3   OH224184   2.152   2.492   7.417 -0.1726 -0.1321  0.1004
  850TIP3    H124185   2.200   2.412   7.395  1.1257  1.0272 -1.6071
  850TIP3    H224186   2.061   2.472   7.396 -0.0341 -1.4982  0.7370
  851TIP3   OH224187   1.192   2.638   7.278  0.0744  0.0781 -0.3144
  851TIP3    H124188   1.153   2.552   7.266  0.9717 -0.4383  0.3091
  851TIP3    H224189   1.276   2.633   7.232  0.7497  0.1419  0.8633
  852TIP3   OH224190   4.628   6.836   0.070  0.1173  0.1348  0.2903
  852TIP3    H124191   4.591   6.794   0.148  1.0295 -0.4222  0.4340
  852TIP3    H224192   4.711   6.873   0.100  0.2245  0.3765 -0.2963
  853TIP3   OH224193   4.733   1.848   7.723 -0.1093 -0.2843 -0.4168
  853TIP3    H124194   4.642   1.822   7.740 -0.0728 -0.6351 -0.7366
  853TIP3    H224195   4.727   1.908   7.648 -0.4384  2.5173  1.7047
  854TIP3   OH224196   2.411   5.080   0.867  0.0577  0.1677 -0.1609
  854TIP3    H124197   2.379   5.166   0.895  0.2486  0.1767  0.0325
  854TIP3    H224198   2.402   5.025   0.945  0.1362  0.0673 -0.2226
  855TIP3   OH224199   0.321   0.418   8.454  0.5932 -0.3594 -0.0184
  855TIP3    H124200   0.402   0.369   8.443  0.4798 -0.5848  0.1380
  855TIP3    H224201   0.282   0.383   8.534  0.6837  0.2419  0.2927
  856TIP3   OH224202   3.650   2.032   0.163  0.2526 -0.2377 -0.0225
  856TIP3    H124203   3.708   2.066   0.095 -0.1100 -1.0551 -0.7421
  856TIP3    H224204   3.562   2.043   0.127  0.1548 -2.8456 -0.7162
  857TIP3   OH224205   5.086   1.700   0.687  0.6069  0.0799  0.0031
  857TIP3    H124206   5.006   1.723   0.734  0.6144  1.2793 -0.5267
  857TIP3    H224207   5.155   1.706   0.753  0.4917  0.8464  0.0672
  858TIP3   OH224208   0.829   4.936   0.573  0.1435 -0.1301  0.0960
  858TIP3    H124209   0.854   5.025   0.600  0.8930 -1.0256  2.7108
  858TIP3    H224210   0.910   4.885   0.582 -0.0311 -0.9251 -2.3247
  859TIP3   OH224211   5.959   6.786   7.151  0.4493 -0.5679  0.1936
  859TIP3    H124212   5.979   6.827   7.235  1.0931 -0.2996 -0.0780
  859TIP3    H224213   5.878   6.828   7.122  0.3288 -0.5243  0.5902
  860TIP3   OH224214   5.283   3.163   1.010 -0.5739 -0.1020  0.2255
  860TIP3    H124215   5.257   3.107   1.083 -0.1811 -0.3615  0.1655
  860TIP3    H224216   5.285   3.105   0.934  2.4299 -0.6588  0.6056
  861TIP3   OH224217   0.569   1.551   7.792  0.0292  0.4280 -0.0414
  861TIP3    H124218   0.582   1.643   7.817  2.7946 -0.0094  0.4087
  861TIP3    H224219   0.632   1.537   7.722 -0.8189 -0.9996 -0.5551
  862TIP3   OH224220   5.714   3.036   1.273  0.6562  0.5573 -0.1167
  862TIP3    H124221   5.797   2.989   1.263  0.3395 -0.1086  0.3214
  862TIP3    H224222   5.724   3.087   1.353 -0.0894 -1.1452  1.1272
  863TIP3   OH224223   3.963   6.071   8.133  0.2843 -0.0063 -0.5228
  863TIP3    H124224   3.948   6.125   8.055 -0.2291  0.8870  0.1633
  863TIP3    H224225   3.976   5.982   8.100 -1.5544  0.0579 -1.5549
  864TIP3   OH224226   4.446   0.645   1.049  0.0216 -0.0042 -0.0356
  864TIP3    H124227   4.531   0.613   1.077 -0.4289 -0.6535  0.6373
  864TIP3    H224228   4.383   0.585   1.090 -0.8317  1.4332  0.8542
  865TIP3   OH224229   1.418   1.538   8.291 -0.0030  0.0301  0.1502
  865TIP3    H124230   1.504   1.578   8.291  0.7241 -1.2332  3.3162
  865TIP3    H224231   1.364   1.597   8.344 -0.3706 -0.4278  0.3003
  866TIP3   OH224232   3.581   2.897   6.308  0.3251  0.4394 -0.3555
  866TIP3    H124233   3.492   2.925   6.328  0.6621  1.1730  0.1750
  866TIP3    H224234   3.590   2.813   6.352  1.0244  1.9724  2.6756
  867TIP3   OH224235   5.327   0.685   0.932  0.5578 -0.1379  0.2617
  867TIP3    H124236   5.331   0.709   1.025 -0.9337  0.5274  0.1862
  867TIP3    H224237   5.363   0.761   0.886  0.6254 -0.1688  0.2639
  868TIP3   OH224238   4.193   1.900   0.860 -0.1892 -0.7469 -0.1394
  868TIP3    H124239   4.271   1.920   0.808 -0.0769  5.4215  1.5937
  868TIP3    H224240   4.120   1.919   0.802 -0.1726  0.7615  0.3070
  869TIP3   OH224241   4.485   0.192   7.189  0.1265  0.2780  0.3272
  869TIP3    H124242   4.520   0.104   7.206 -0.2309 -0.7221 -3.3490
  869TIP3    H224243   4.390   0.181   7.194  0.0101 -0.0416 -1.8015
  870TIP3   OH224244   5.547   4.419   1.625 -0.3846 -0.3843  0.0312
  870TIP3    H124245   5.559   4.380   1.711 -0.8451 -0.4451  0.0668
  870TIP3    H224246   5.472   4.478   1.634 -0.6382 -0.6283 -0.4041
  871TIP3   OH224247   4.877   4.419   8.652 -0.5429 -0.3962  0.4049
  871TIP3    H124248   4.831   4.495   8.690 -0.7972  0.4205 -1.4595
  871TIP3    H224249   4.921   4.378   8.727 -1.3668  0.9056  1.6445
  872TIP3   OH224250   6.440   5.163   1.289 -0.0144  0.4744  0.4373
  872TIP3    H124251   6.454   5.126   1.376 -1.0186  1.5275  1.0783
  872TIP3    H224252   6.498   5.114   1.232  1.4521  0.4595  1.8771
  873TIP3   OH224253   2.672   0.842   8.102  0.0415 -0.4274 -0.0691
  873TIP3    H124254   2.635   0.775   8.045 -1.2534 -0.0653  0.2876
  873TIP3    H224255   2.608   0.850   8.173  2.4152 -2.1713  2.4850
  874TIP3   OH224256   0.163   4.777   8.419  0.0988 -0.3738 -0.4899
  874TIP3    H124257   0.246   4.751   8.379  1.2823  2.9663 -0.5468
  874TIP3    H224258   0.111   4.812   8.346  0.2298  1.0994  0.0971
  875TIP3   OH224259   2.405   1.354   8.628  0.5971 -0.5804 -0.0897
  875TIP3    H124260   2.376   1.285   8.568 -0.6642 -0.3308  0.2085
  875TIP3    H224261   2.378   1.323   8.715  1.0317 -0.2270  0.1755
  876TIP3   OH224262   1.314   1.248   1.030 -0.6359 -0.3632  0.2275
  876TIP3    H124263   1.313   1.152   1.035  1.0195 -0.4700 -0.6174
  876TIP3    H224264   1.405   1.270   1.011 -1.2163  1.3210 -0.8303
  877TIP3   OH224265   1.560   5.912   7.886 -0.4356 -0.5104 -0.3080
  877TIP3    H124266   1.530   5.822   7.879 -1.4857 -0.4160  1.9871
  877TIP3    H224267   1.652   5.905   7.914  0.4503 -0.7973 -3.0392
  878TIP3   OH224268   2.073   0.385   0.760  0.3086  0.3658  0.6374
  878TIP3    H124269   1.984   0.418   0.776  1.2525  1.6648  4.4460
  878TIP3    H224270   2.109   0.372   0.848  4.1788  0.7112 -0.7252
  879TIP3   OH224271   0.314   1.776   2.244 -0.2236  0.0973 -0.1468
  879TIP3    H124272   0.376   1.724   2.296 -1.3665 -2.4911 -1.2038
  879TIP3    H224273   0.358   1.792   2.161 -1.3418 -3.0210 -1.4747
  880TIP3   OH224274   5.039   6.120   1.115  0.1784  0.8598 -0.6911
  880TIP3    H124275   5.036   6.132   1.020  0.1778  0.5790 -0.7270
  880TIP3    H224276   4.977   6.049   1.132 -0.4971  1.5034 -0.3850
  881TIP3   OH224277   0.871   4.880   0.977  0.2763 -0.2505  1.0904
  881TIP3    H124278   0.825   4.941   1.035  1.7585 -0.5583  2.6917
  881TIP3    H224279   0.930   4.935   0.926 -0.7565 -0.0202  0.1116
  882TIP3   OH224280   6.319   4.249   7.759 -0.8227  0.0568 -0.8373
  882TIP3    H124281   6.264   4.288   7.826  0.2923  0.9079 -0.3805
  882TIP3    H224282   6.353   4.169   7.800 -1.4686 -0.3152 -1.0152
  883TIP3   OH224283   4.446   2.733   6.816  0.3071  0.1429 -0.1040
  883TIP3    H124284   4.361   2.729   6.859  1.2722  0.5585  1.9906
  883TIP3    H224285   4.478   2.643   6.815  0.2650  0.1264  0.0424
  884TIP3   OH224286   6.833   3.903   1.490 -0.3115  0.1480 -0.1210
  884TIP3    H124287   6.754   3.889   1.439  0.9318  0.2714 -2.2007
  884TIP3    H224288   6.821   3.989   1.531 -2.2530 -0.8977  1.6742
  885TIP3   OH224289   1.703   1.977   2.317 -0.1335 -0.5530 -0.1756
  885TIP3    H124290   1.776   1.956   2.258 -0.3530 -0.6821 -0.4021
  885TIP3    H224291   1.732   2.056   2.363  0.9665 -1.6782  1.1428
  886TIP3   OH224292   2.510   0.716   7.386 -0.4519  0.5506 -0.8401
  886TIP3    H124293   2.567   0.723   7.462 -0.8907  1.6387 -0.5990
  886TIP3    H224294   2.425   0.689   7.423 -0.5963  0.8268 -0.9670
  887TIP3   OH224295   4.939   2.211   0.494  0.0098 -0.0099 -0.3053
  887TIP3    H124296   5.014   2.163   0.459  0.2294  0.9502 -1.2292
  887TIP3    H224297   4.961   2.226   0.586  0.6854 -0.2505 -0.4178
  888TIP3   OH224298   6.388   1.878   6.693  0.0509 -0.1110 -0.0696
  888TIP3    H124299   6.398   1.956   6.639  1.9027 -0.2005  0.1113
  888TIP3    H224300   6.323   1.825   6.645 -0.3479  0.9922 -0.7932
  889TIP3   OH224301   1.619   6.877   8.173  0.1149 -0.2939  0.1802
  889TIP3    H124302   1.646   6.960   8.211  0.0964 -0.0416 -0.3534
  889TIP3    H224303   1.525   6.887   8.157 -0.4981 -1.3866  2.6114
  890TIP3   OH224304   3.913   1.003   8.246 -0.6537 -0.3012  0.2281
  890TIP3    H124305   3.838   1.061   8.234 -1.0765 -0.6556  1.1362
  890TIP3    H224306   3.926   0.963   8.159 -0.3570  1.1283 -0.4120
  891TIP3   OH224307   6.398   5.501   0.380  0.1261  1.4314 -0.9436
  891TIP3    H124308   6.437   5.505   0.468  0.0099 -0.8162 -0.7481
  891TIP3    H224309   6.454   5.441   0.332 -0.8177  1.2758 -1.8778
  892TIP3   OH224310   0.616   5.240   7.410  0.0200 -0.1168 -0.4461
  892TIP3    H124311   0.616   5.195   7.325  1.3914  0.2918 -0.6820
  892TIP3    H224312   0.615   5.333   7.388  0.2963 -0.0077 -0.0139
  893TIP3   OH224313   4.464   4.689   1.931  0.2837  0.1242  0.3956
  893TIP3    H124314   4.480   4.608   1.883 -1.1151  0.0476 -0.0005
  893TIP3    H224315   4.407   4.663   2.003  2.3361  0.2405  2.1570
  894TIP3   OH224316   5.086   1.267   0.872  0.5281 -0.2140 -0.3521
  894TIP3    H124317   5.073   1.341   0.931  0.2941 -0.3689 -0.2067
  894TIP3    H224318   4.998   1.240   0.847  0.5492 -1.2689  0.6372
  895TIP3   OH224319   6.644   0.030   6.177 -0.8060  0.5850 -0.2636
  895TIP3    H124320   6.736   0.053   6.191 -0.5668  0.8345 -2.1012
  895TIP3    H224321   6.642  -0.014   6.093 -2.4206  0.8049 -0.3765
  896TIP3   OH224322   6.686   3.527   1.574 -0.0968 -0.1013 -0.4474
  896TIP3    H124323   6.661   3.617   1.595  0.4509  0.1145 -0.7123
  896TIP3    H224324   6.741   3.535   1.496 -0.1218 -0.6754 -0.5278
  897TIP3   OH224325   3.546   6.842   0.034  0.2037 -0.2245 -0.3272
  897TIP3    H124326   3.460   6.884   0.042  1.4074  2.1546  1.5042
  897TIP3    H224327   3.551   6.785   0.111  0.2032 -0.5141 -0.5404
  898TIP3   OH224328   0.381   1.068   1.860  0.5071 -0.8389 -0.7023
  898TIP3    H124329   0.458   1.034   1.907 -0.4764 -1.5739  0.4278
  898TIP3    H224330   0.310   1.065   1.925 -0.2981  0.6262 -1.4605
  899TIP3   OH224331   0.349   5.085   1.760  0.0525 -0.4531 -0.4324
  899TIP3    H124332   0.333   5.162   1.814 -0.4005 -0.9648  0.1764
  899TIP3    H224333   0.441   5.092   1.735 -0.1866  0.7099 -1.0761
  900TIP3   OH224334   3.500   2.842   1.256  0.1345  0.1660  0.1454
  900TIP3    H124335   3.470   2.752   1.241  0.7431 -0.0649  0.2680
  900TIP3    H224336   3.506   2.849   1.351  2.0078 -0.3420  0.1212
  901TIP3   OH224337   0.999   3.933   0.035  0.4850  0.4240  0.7100
  901TIP3    H124338   1.021   4.021   0.006  0.7995  0.6049  1.4753
  901TIP3    H224339   1.080   3.883   0.024 -0.0961 -0.1817 -1.1818
  902TIP3   OH224340   5.290   4.187   6.324 -0.1760  0.4066  0.2106
  902TIP3    H124341   5.285   4.178   6.419  0.5785 -0.3735  0.1884
  902TIP3    H224342   5.206   4.152   6.292 -0.3166  0.4096  0.5732
  903TIP3   OH224343   0.621   0.729   7.504  0.1895  0.2958  0.0280
  903TIP3    H124344   0.537   0.775   7.501  0.1765  0.2580 -0.1955
  903TIP3    H224345   0.686   0.798   7.489  0.1806  0.2750 -0.1105
  904TIP3   OH224346   0.305   6.491   8.087 -0.6956 -0.6617  0.6043
  904TIP3    H124347   0.323   6.572   8.040  1.0361 -0.8031  0.9700
  904TIP3    H224348   0.309   6.515   8.180 -0.9862 -1.0034  0.7081
  905TIP3   OH224349   4.248   0.442   2.286 -0.2786  0.1206  0.4368
  905TIP3    H124350   4.158   0.449   2.319 -0.6027 -0.8984 -0.1617
  905TIP3    H224351   4.267   0.348   2.291  0.0938  0.0935 -1.0872
  906TIP3   OH224352   3.762   3.718   2.169 -0.6400  0.1406  0.1571
  906TIP3    H124353   3.668   3.707   2.156 -0.3859 -2.6795  0.0958
  906TIP3    H224354   3.802   3.682   2.090  0.5047  0.9079  0.3600
  907TIP3   OH224355   2.298   5.639   1.525  0.2415 -0.1245 -0.5306
  907TIP3    H124356   2.324   5.659   1.435  0.3211  1.4964 -0.1723
  907TIP3    H224357   2.334   5.711   1.577 -0.3968 -0.6730  0.7149
  908TIP3   OH224358   6.860   2.673   7.176  0.2879  0.1060 -0.4477
  908TIP3    H124359   6.902   2.749   7.214  0.9550  0.0317 -1.0087
  908TIP3    H224360   6.905   2.598   7.215 -0.2162 -0.0015 -0.0631
  909TIP3   OH224361   3.388   3.060   6.868  0.1722  0.0325  0.2244
  909TIP3    H124362   3.456   3.024   6.926 -1.1742 -0.9018  1.2808
  909TIP3    H224363   3.335   3.115   6.925  0.2794  1.1133 -0.6884
  910TIP3   OH224364   2.288   6.078   8.235  0.2477  0.4386 -0.5148
  910TIP3    H124365   2.327   6.159   8.269  0.3173 -0.2513  1.1473
  910TIP3    H224366   2.243   6.105   8.155  1.6259  1.8127 -0.8926
  911TIP3   OH224367   4.147   0.779   2.004  0.0452 -0.8207 -0.4771
  911TIP3    H124368   4.098   0.817   2.078  1.1362  0.2357 -0.2780
  911TIP3    H224369   4.222   0.736   2.045 -0.0399 -1.3526 -0.8778
  912TIP3   OH224370   4.125   6.795   1.280 -0.6315  0.0724 -0.6714
  912TIP3    H124371   4.164   6.718   1.239 -1.4675 -1.0670  0.5648
  912TIP3    H224372   4.084   6.761   1.359  0.7099  2.1010  1.0219
  913TIP3   OH224373   1.555   6.817   6.963 -0.1032  0.2455  0.2716
  913TIP3    H124374   1.480   6.803   6.906 -0.0054  0.3244  0.1217
  913TIP3    H224375   1.550   6.910   6.988 -0.0368  0.2599  0.2328
  914TIP3   OH224376   5.395   6.843   1.526 -0.0855  1.0322 -0.5128
  914TIP3    H124377   5.433   6.759   1.501  0.3412  1.2239 -0.5233
  914TIP3    H224378   5.468   6.892   1.565 -0.8636  0.5071  1.7311
  915TIP3   OH224379   2.269   5.851   0.768  0.0894 -0.6044  0.3930
  915TIP3    H124380   2.342   5.804   0.728  1.1904  0.5698  0.9316
  915TIP3    H224381   2.309   5.898   0.842 -0.4974  2.6727 -1.2032
  916TIP3   OH224382   1.010   0.477   1.591 -0.2200 -0.2977 -0.4849
  916TIP3    H124383   0.947   0.497   1.521 -0.8091  0.4127  0.2312
  916TIP3    H224384   0.960   0.426   1.655 -0.4438  1.3172  0.6786
  917TIP3   OH224385   6.571   2.349   1.522 -0.3634  0.4102  0.3431
  917TIP3    H124386   6.538   2.319   1.607  0.2209  1.2164  0.8648
  917TIP3    H224387   6.627   2.423   1.543 -1.4483  1.6313 -0.8642
  918TIP3   OH224388   4.093   1.968   8.359  0.5333 -0.0211 -0.2612
  918TIP3    H124389   4.118   1.906   8.428  1.6277  1.7845  1.0433
  918TIP3    H224390   4.003   1.943   8.336 -0.2025 -0.1915  2.4309
  919TIP3   OH224391   3.403   5.516   8.624  0.0681 -0.0281 -0.2672
  919TIP3    H124392   3.342   5.489   8.555  1.1055  1.4841 -1.8530
  919TIP3    H224393   3.382   5.608   8.640  0.4589 -0.1167  0.7970
  920TIP3   OH224394   2.532   6.560   8.525 -0.2189  0.3719  0.3931
  920TIP3    H124395   2.441   6.535   8.509 -0.4570  1.7952 -0.6534
  920TIP3    H224396   2.527   6.652   8.553  1.0144  1.2719 -2.0280
  921TIP3   OH224397   6.824   4.480   1.793  0.1631 -0.3751 -0.5023
  921TIP3    H124398   6.823   4.499   1.699 -0.3503 -0.1515 -0.4549
  921TIP3    H224399   6.907   4.517   1.824  0.0277  0.1531 -0.7481
  922TIP3   OH224400   2.111   2.890   2.325  0.3507 -0.1962  0.1428
  922TIP3    H124401   2.150   2.968   2.287 -1.7226  1.0512  0.4278
  922TIP3    H224402   2.086   2.837   2.249 -0.4639  0.5852 -0.1535
  923TIP3   OH224403   5.029   2.418   6.900  0.1556  0.0536 -0.9035
  923TIP3    H124404   5.068   2.446   6.817  0.2454 -1.3793 -1.3717
  923TIP3    H224405   4.980   2.495   6.930  1.6519  1.2171 -1.3264
  924TIP3   OH224406   3.258   4.244   6.608 -0.4455 -0.0217 -0.0122
  924TIP3    H124407   3.334   4.245   6.667 -1.3389  2.0596  1.2449
  924TIP3    H224408   3.291   4.283   6.527 -0.2596  1.4342  0.7264
  925TIP3   OH224409   0.371   0.685   1.016 -0.1893  0.3176  0.1619
  925TIP3    H124410   0.285   0.643   1.007 -0.6109  1.1232  0.3338
  925TIP3    H224411   0.356   0.757   1.077  0.2907  1.3239 -0.8784
  926TIP3   OH224412   3.766   3.624   6.986  0.0591 -0.3630  1.0400
  926TIP3    H124413   3.716   3.544   6.968  0.1247  0.1915 -2.0478
  926TIP3    H224414   3.709   3.675   7.044 -2.3976 -0.4179 -1.1321
  927TIP3   OH224415   4.174   1.567   0.374  0.6494  0.2801  1.2767
  927TIP3    H124416   4.165   1.483   0.328 -1.8408  0.6811  0.8617
  927TIP3    H224417   4.134   1.552   0.460  0.0041  1.0729  1.1280
  928TIP3   OH224418   6.701   0.211   7.943 -0.0180  0.1204  0.1023
  928TIP3    H124419   6.696   0.122   7.977 -0.5608 -0.2519 -0.9128
  928TIP3    H224420   6.610   0.242   7.944  0.1725  0.6912  0.5070
  929TIP3   OH224421   6.531   5.064   8.600 -0.3991  0.2066  0.1580
  929TIP3    H124422   6.463   5.109   8.651 -0.8316  0.6429 -0.7734
  929TIP3    H224423   6.535   5.113   8.518  1.6100  0.6939  0.4880
  930TIP3   OH224424   4.878   0.224   1.237  0.1073  0.9101 -0.2593
  930TIP3    H124425   4.801   0.271   1.207 -0.1850  0.0784 -0.8429
  930TIP3    H224426   4.898   0.163   1.166  2.5824  2.5461 -1.1081
  931TIP3   OH224427   1.715   4.420   0.184  0.4841  0.2511 -0.0630
  931TIP3    H124428   1.690   4.385   0.099  0.3758  0.0249  0.0602
  931TIP3    H224429   1.778   4.357   0.218  0.7076  0.4632 -0.0759
  932TIP3   OH224430   4.570   4.830   7.070  0.1038  0.1298  0.0603
  932TIP3    H124431   4.476   4.830   7.088  0.3570  0.7938  1.5431
  932TIP3    H224432   4.588   4.918   7.037  0.0452 -0.3494 -1.3269
  933TIP3   OH224433   2.879   1.946   0.967  0.0908 -0.6547  0.0579
  933TIP3    H124434   2.891   2.041   0.966 -3.9018  0.0292 -0.5560
  933TIP3    H224435   2.917   1.917   1.050 -0.9975  1.9615  1.5949
  934TIP3   OH224436   0.483   3.106   8.547  0.6049 -0.3746  0.1013
  934TIP3    H124437   0.504   3.185   8.596  2.7368 -0.5252 -0.4300
  934TIP3    H224438   0.433   3.137   8.471 -2.8089 -0.1526  2.2556
  935TIP3   OH224439   5.764   3.617   1.726 -0.4327  0.2363  0.0313
  935TIP3    H124440   5.696   3.591   1.788  0.1862  0.0153  0.6333
  935TIP3    H224441   5.802   3.534   1.696  0.5924  0.3774  0.8735
  936TIP3   OH224442   0.444   1.020   7.159  0.2116  0.1396 -0.1522
  936TIP3    H124443   0.524   1.023   7.107  0.5992  1.5144  0.4824
  936TIP3    H224444   0.424   0.927   7.167  2.0036 -0.2504  0.0611
  937TIP3   OH224445   5.110   5.073   0.619  0.2462 -0.7431 -0.1428
  937TIP3    H124446   5.180   5.049   0.558  0.6081  0.8942 -0.4199
  937TIP3    H224447   5.123   5.167   0.634 -0.6564 -0.8469  1.4203
  938TIP3   OH224448   0.348   2.758   8.100  0.0957 -0.2309 -0.1319
  938TIP3    H124449   0.419   2.791   8.155  0.8959  0.2533 -1.4232
  938TIP3    H224450   0.348   2.663   8.116  0.8362 -0.1963  0.1013
  939TIP3   OH224451   5.838   0.080   0.559 -0.2663 -0.3572  0.3040
  939TIP3    H124452   5.836   0.155   0.500  0.1566  0.4130  1.2418
  939TIP3    H224453   5.753   0.036   0.545  0.3228 -0.9484 -1.7819
  940TIP3   OH224454   3.739   5.469   6.868 -0.3179 -0.0607 -0.2558
  940TIP3    H124455   3.653   5.440   6.897 -0.3476 -2.0711 -2.0838
  940TIP3    H224456   3.752   5.425   6.784  1.6459  1.8044 -1.0206
  941TIP3   OH224457   1.072   1.437   6.597  0.3685 -0.4161 -0.1202
  941TIP3    H124458   1.157   1.480   6.603 -0.5082  1.5461 -0.9240
  941TIP3    H224459   1.058   1.425   6.503  0.0294 -1.3237  0.0383
  942TIP3   OH224460   5.128   5.371   8.245 -0.1565  0.4365  0.0512
  942TIP3    H124461   5.122   5.459   8.283 -0.8430 -0.3553  1.8526
  942TIP3    H224462   5.037   5.345   8.231 -0.0105 -0.4574  0.6898
  943TIP3   OH224463   1.700   1.851   6.985  0.3963  0.6665 -0.0581
  943TIP3    H124464   1.723   1.859   6.893 -0.8035  2.2088 -0.2757
  943TIP3    H224465   1.672   1.940   7.010  1.3361  0.4373  1.9715
  944TIP3   OH224466   3.693   3.222   7.696 -0.0664  0.3253 -0.1129
  944TIP3    H124467   3.639   3.241   7.619  1.1857 -1.7134 -1.5998
  944TIP3    H224468   3.702   3.306   7.741 -2.5224  1.1762 -1.0488
  945TIP3   OH224469   6.416   6.848   1.135 -0.1166  0.8253  0.6956
  945TIP3    H124470   6.361   6.896   1.072  0.9792  0.0281 -0.9437
  945TIP3    H224471   6.488   6.908   1.154  0.3978  0.4813 -0.0969
  946TIP3   OH224472   2.463   6.234   6.962  0.1040  0.2588  0.2103
  946TIP3    H124473   2.443   6.244   7.055  1.5535 -0.2725  0.6109
  946TIP3    H224474   2.519   6.156   6.958  2.9573  2.1978 -0.6299
  947TIP3   OH224475   0.973   2.188   7.602 -0.0495 -0.4685 -0.2499
  947TIP3    H124476   1.019   2.217   7.524  0.9853 -0.5094  0.3245
  947TIP3    H224477   0.887   2.230   7.597  0.1352 -0.1863 -1.2137
  948TIP3   OH224478   4.297   4.772   7.171 -0.4191 -0.1317 -0.2418
  948TIP3    H124479   4.264   4.796   7.084 -0.8818  0.5961  0.1221
  948TIP3    H224480   4.244   4.696   7.196 -0.8871  0.1865 -0.2427
  949TIP3   OH224481   0.241   4.736   8.018 -0.3230  0.2354  0.4594
  949TIP3    H124482   0.218   4.643   8.021 -0.5444  0.2851  0.3178
  949TIP3    H224483   0.158   4.780   8.001 -0.2980  0.4934  1.0018
  950TIP3   OH224484   6.077   2.498   6.498 -0.8278  0.2505 -0.3866
  950TIP3    H124485   6.084   2.481   6.405 -0.5687  0.0725 -0.3344
  950TIP3    H224486   6.158   2.544   6.521 -0.0291 -1.3067  0.1012
  951TIP3   OH224487   0.239   6.056   1.190  0.3772 -0.6752 -0.0351
  951TIP3    H124488   0.156   6.102   1.178  0.1062 -0.7056  1.5684
  951TIP3    H224489   0.217   5.964   1.178  0.1270 -0.6993  0.5571
  952TIP3   OH224490   4.604   5.131   0.350 -0.0041  0.6301 -0.0048
  952TIP3    H124491   4.572   5.201   0.294  0.1231  0.1052 -0.7415
  952TIP3    H224492   4.528   5.075   0.365  0.4086 -0.3526 -1.3606
  953TIP3   OH224493   2.728   5.008   8.126 -0.3595  0.3377 -0.1611
  953TIP3    H124494   2.774   5.053   8.056 -0.4571  0.7158  0.0149
  953TIP3    H224495   2.715   5.075   8.193 -1.2194  0.2528 -0.2365
  954TIP3   OH224496   1.040   3.538   6.205 -0.6221  0.0655 -0.6042
  954TIP3    H124497   1.102   3.604   6.238 -0.6275 -0.2322  0.0287
  954TIP3    H224498   0.977   3.526   6.277 -0.7455 -0.4671 -0.7928
  955TIP3   OH224499   0.724   1.633   7.207  0.8290  0.0318  0.1263
  955TIP3    H124500   0.645   1.641   7.261  0.4646 -0.3377 -0.3338
  955TIP3    H224501   0.758   1.722   7.200 -0.6308  0.5179 -1.2467
  956TIP3   OH224502   2.981   4.382   7.276  0.2914  0.5017 -0.5554
  956TIP3    H124503   3.036   4.405   7.351  0.4020 -0.1390 -0.4374
  956TIP3    H224504   3.040   4.384   7.201  0.3958  0.1849 -0.4831
  957TIP3   OH224505   1.387   2.012   6.893 -0.1227 -0.5246  0.4752
  957TIP3    H124506   1.363   1.938   6.837 -0.7293  0.4999 -0.6767
  957TIP3    H224507   1.332   2.084   6.862  1.9664  1.0093  0.1141
  958TIP3   OH224508   0.509   3.668   0.762  0.4073 -0.2313 -0.0760
  958TIP3    H124509   0.454   3.715   0.699  0.9537 -0.7140 -0.9260
  958TIP3    H224510   0.457   3.592   0.788 -0.6694  1.0067  1.6425
  959TIP3   OH224511   1.552   5.361   0.670 -0.1657 -0.0520 -0.7574
  959TIP3    H124512   1.600   5.389   0.591  0.9064 -1.1695 -0.5282
  959TIP3    H224513   1.583   5.420   0.739 -0.8902  0.7413 -1.0943
  960TIP3   OH224514   4.317   4.991   6.446  0.2578  0.2046  0.4304
  960TIP3    H124515   4.359   4.925   6.391  2.5285 -0.1058  2.3535
  960TIP3    H224516   4.365   5.072   6.427  0.9021  0.1502  1.6674
  961TIP3   OH224517   6.548   2.849   8.222  0.1970  0.0968  0.1512
  961TIP3    H124518   6.493   2.903   8.279 -0.2181 -0.2211  0.0596
  961TIP3    H224519   6.599   2.911   8.170 -0.3003  0.4019  0.0272
  962TIP3   OH224520   2.486   0.424   7.672  0.4165 -0.1832  0.1949
  962TIP3    H124521   2.489   0.392   7.762  1.0732 -3.1737 -0.7847
  962TIP3    H224522   2.393   0.436   7.653  0.1704 -1.0447  0.7969
  963TIP3   OH224523   6.750   1.996   7.382  0.3545 -0.4544 -0.4978
  963TIP3    H124524   6.688   1.950   7.326  0.3210  0.5022 -1.2762
  963TIP3    H224525   6.834   1.985   7.338  0.5548 -0.7882 -0.0411
  964TIP3   OH224526   3.343   1.971   7.665 -0.1980 -0.0014 -0.5066
  964TIP3    H124527   3.253   2.001   7.651 -1.0151 -2.0725 -0.1350
  964TIP3    H224528   3.390   2.048   7.696 -1.8423  1.1332 -0.7136
  965TIP3   OH224529   2.872   0.517   1.717 -0.4087  0.3438  0.0497
  965TIP3    H124530   2.950   0.559   1.753  0.8087 -0.5398 -1.4828
  965TIP3    H224531   2.893   0.424   1.713 -0.0229  0.4412 -3.7584
  966TIP3   OH224532   2.755   6.285   6.773 -0.3945  0.0866 -0.0312
  966TIP3    H124533   2.720   6.218   6.831  0.7893 -0.3501  0.2107
  966TIP3    H224534   2.814   6.237   6.714  1.8393  1.0915  1.2527
  967TIP3   OH224535   5.985   0.560   0.623 -0.3981  0.0527 -0.0992
  967TIP3    H124536   5.956   0.479   0.665 -3.0183  0.6506 -0.5966
  967TIP3    H224537   5.926   0.570   0.548  0.3555  2.0435 -0.4668
  968TIP3   OH224538   1.848   0.287   8.699 -0.2045  0.1972  0.0467
  968TIP3    H124539   1.910   0.344   8.746  0.4526 -0.6843  0.2649
  968TIP3    H224540   1.901   0.213   8.670 -0.9021  0.0436 -0.8771
  969TIP3   OH224541   1.866   0.004   8.527  0.7885  0.2118  0.0380
  969TIP3    H124542   1.886  -0.038   8.443 -0.9091 -2.2427  0.7473
  969TIP3    H224543   1.947  -0.005   8.577  0.3428 -3.0970  0.3956
  970TIP3   OH224544   2.792   1.725   2.092  0.7906  0.3363 -0.1970
  970TIP3    H124545   2.858   1.715   2.160  0.0437 -2.6096  0.2071
  970TIP3    H224546   2.740   1.800   2.121  1.3263  0.0268  1.7286
  971TIP3   OH224547   0.304   5.375   7.740 -0.4076 -0.1261 -0.1623
  971TIP3    H124548   0.252   5.384   7.820 -0.6314 -0.0797 -0.3096
  971TIP3    H224549   0.249   5.322   7.682 -0.2233 -0.2062 -0.2639
  972TIP3   OH224550   5.379   5.754   0.952  0.7366  0.0182 -0.2899
  972TIP3    H124551   5.321   5.826   0.928 -0.2452  0.2572  2.3871
  972TIP3    H224552   5.450   5.797   1.001  0.7939 -0.7100  0.2711
  973TIP3   OH224553   0.066   5.619   6.475 -0.2636  0.5048  0.2879
  973TIP3    H124554   0.089   5.527   6.459 -1.9417  0.3483 -1.5936
  973TIP3    H224555  -0.011   5.634   6.420 -0.1271  3.0126  0.6956
  974TIP3   OH224556   1.305   2.950   6.897 -0.1071  0.3659 -0.6526
  974TIP3    H124557   1.353   2.870   6.877 -1.1160 -0.6698  0.9022
  974TIP3    H224558   1.236   2.954   6.830  0.6474  0.5991 -1.4419
  975TIP3   OH224559   1.294   3.372   0.790  0.1746  0.2549  0.2957
  975TIP3    H124560   1.360   3.423   0.742  1.4605 -0.9167  0.7348
  975TIP3    H224561   1.279   3.295   0.734  1.2081 -0.7995  1.4016
  976TIP3   OH224562   5.194   3.393   1.381 -0.4115  0.4321 -0.8536
  976TIP3    H124563   5.233   3.373   1.466 -0.4431 -1.8096 -1.3239
  976TIP3    H224564   5.189   3.489   1.380  1.9499  0.6645  0.6088
  977TIP3   OH224565   0.492   1.116   2.151  0.4572  0.5924  0.4023
  977TIP3    H124566   0.565   1.122   2.213  1.2502 -0.6987 -0.3689
  977TIP3    H224567   0.516   1.044   2.093 -0.8148  1.0323 -0.7011
  978TIP3   OH224568   0.914   5.868   6.349  0.1250  0.0470  0.4508
  978TIP3    H124569   0.978   5.835   6.286  1.0704  1.4997  0.6184
  978TIP3    H224570   0.832   5.823   6.325  0.5384  0.2656 -1.5714
  979TIP3   OH224571   5.784   6.657   7.905  0.0556 -0.2628  0.5684
  979TIP3    H124572   5.777   6.564   7.881 -0.8058 -0.0571 -0.0073
  979TIP3    H224573   5.745   6.661   7.993  0.2032 -0.4640  0.6452
  980TIP3   OH224574   0.559   6.094   7.322  0.0384 -0.3230  0.1842
  980TIP3    H124575   0.623   6.129   7.260 -1.9816  1.8033 -0.9037
  980TIP3    H224576   0.577   6.139   7.404 -0.1246  0.3962 -0.1643
  981TIP3   OH224577   6.270   1.485   8.385  0.6446  0.2316 -0.0776
  981TIP3    H124578   6.244   1.565   8.431 -3.1255 -0.2537 -1.0547
  981TIP3    H224579   6.210   1.418   8.417  1.5141 -1.4344 -1.7269
  982TIP3   OH224580   1.903   0.746   6.047 -0.0342  0.5461 -0.5883
  982TIP3    H124581   1.990   0.709   6.063  0.0230  0.8226 -0.2413
  982TIP3    H224582   1.887   0.731   5.954 -0.3882 -1.1381 -0.2826
  983TIP3   OH224583   3.013   3.287   7.245 -0.0194 -0.0069  0.1100
  983TIP3    H124584   2.979   3.224   7.309  0.0448  0.3842  0.5319
  983TIP3    H224585   3.054   3.355   7.298 -1.3984  1.1541 -0.2670
  984TIP3   OH224586   0.231   1.877   1.787 -0.1480  0.0023 -0.3147
  984TIP3    H124587   0.272   1.886   1.873  0.3444  1.4260 -0.6757
  984TIP3    H224588   0.147   1.922   1.796 -0.5008 -0.6252 -0.3467
  985TIP3   OH224589   6.200   2.219   8.338 -0.1259 -0.0742 -0.0567
  985TIP3    H124590   6.281   2.270   8.328 -0.6470  0.8480  0.3036
  985TIP3    H224591   6.215   2.140   8.286  0.2632  0.9862 -1.6302
  986TIP3   OH224592   5.288   3.743   8.594  0.1775  0.1787  0.4954
  986TIP3    H124593   5.265   3.782   8.678  1.4894  1.8828  0.1250
  986TIP3    H224594   5.215   3.765   8.537 -0.4389 -0.4647  1.0172
  987TIP3   OH224595   6.817   0.286   0.133 -0.1405  0.7505 -0.0322
  987TIP3    H124596   6.809   0.321   0.222  1.1931  0.8199  0.0914
  987TIP3    H224597   6.753   0.335   0.081 -0.1926  1.4529  0.6873
  988TIP3   OH224598   0.774   3.712   0.803  0.2288  0.3254 -0.5560
  988TIP3    H124599   0.817   3.627   0.811 -0.1520  0.2189  0.4340
  988TIP3    H224600   0.682   3.691   0.785 -0.2060  0.4687  1.2678
  989TIP3   OH224601   6.620   1.101   7.407  0.0062 -0.0332  0.2035
  989TIP3    H124602   6.532   1.115   7.373  0.1295  1.6389  0.4611
  989TIP3    H224603   6.651   1.022   7.364 -1.5549 -0.5537 -0.0104
  990TIP3   OH224604   6.803   5.624   1.609 -0.6635 -0.0273  0.6967
  990TIP3    H124605   6.872   5.679   1.572 -0.9656 -0.6875 -0.9159
  990TIP3    H224606   6.849   5.557   1.659 -0.2139  0.3910  0.8514
  991TIP3   OH224607   3.238   6.301   7.213  0.2726 -0.2930 -0.1626
  991TIP3    H124608   3.221   6.389   7.178  1.5103 -0.0219 -0.1355
  991TIP3    H224609   3.153   6.257   7.209 -1.0767  1.7353  2.2967
  992TIP3   OH224610   3.565   3.353   7.127  0.2951  0.7536  0.3652
  992TIP3    H124611   3.587   3.302   7.205  1.0290  2.2430  1.1774
  992TIP3    H224612   3.628   3.325   7.061 -0.9012 -1.1854 -0.0429
  993TIP3   OH224613   2.896   0.575   7.474 -0.0545  0.0081 -0.5260
  993TIP3    H124614   2.963   0.508   7.463  1.4158  1.2388  0.5753
  993TIP3    H224615   2.813   0.529   7.457  0.9722 -1.7865 -0.9081
  994TIP3   OH224616   4.795   0.103   8.058  0.0285 -0.1653  0.5084
  994TIP3    H124617   4.732   0.160   8.013  0.5829 -0.3671 -0.5669
  994TIP3    H224618   4.753   0.081   8.141 -0.3587  1.4939  0.7789
  995TIP3   OH224619   0.809   6.883   6.928 -0.0142 -0.0221 -0.6452
  995TIP3    H124620   0.846   6.816   6.986  1.8062  1.1400 -0.3630
  995TIP3    H224621   0.750   6.934   6.985  0.0956 -0.2083 -0.3626
  996TIP3   OH224622   2.137   4.781   1.487 -0.1662 -0.6721 -0.1132
  996TIP3    H124623   2.184   4.699   1.506  1.5041  0.3892  0.5210
  996TIP3    H224624   2.156   4.837   1.561 -3.4415 -0.5226  0.7712
  997TIP3   OH224625   5.727   3.292   1.077  0.1723 -0.1693  0.2165
  997TIP3    H124626   5.721   3.264   0.985 -0.2028 -1.1126  0.5210
  997TIP3    H224627   5.643   3.268   1.115  0.6953 -0.7042  1.0536
  998TIP3   OH224628   5.864   4.299   1.377  0.6473  0.6928  0.2414
  998TIP3    H124629   5.819   4.384   1.378 -1.1757 -0.2227 -0.7037
  998TIP3    H224630   5.838   4.258   1.459  0.2578  0.4157 -0.0196
  999TIP3   OH224631   6.493   3.319   8.464  0.1030  0.2189 -0.8067
  999TIP3    H124632   6.562   3.277   8.514 -1.2118 -0.1895  0.7528
  999TIP3    H224633   6.535   3.347   8.383  1.6547 -1.6216 -0.6897
 1000TIP3   OH224634   3.043   5.921   8.147 -0.3494  0.1642 -0.3883
 1000TIP3    H124635   3.059   5.925   8.242 -0.5201 -0.6199 -0.3245
 1000TIP3    H224636   3.046   6.013   8.119 -1.0838  0.4749  0.5079
 1001TIP3   OH224637   3.449   2.315   8.044 -0.1498 -0.2540 -0.1269
 1001TIP3    H124638   3.469   2.352   8.130  2.0185 -1.3585 -0.0807
 1001TIP3    H224639   3.451   2.220   8.058 -1.9587 -0.4550 -0.9730
 1002TIP3   OH224640   0.234   6.801   1.728  0.0055  0.6181  0.1696
 1002TIP3    H124641   0.180   6.873   1.761  1.2195  2.9268 -2.4341
 1002TIP3    H224642   0.198   6.781   1.642  1.9151  0.6976 -0.6913
 1003TIP3   OH224643   5.668   4.002   8.191  0.5198 -0.7212  0.7185
 1003TIP3    H124644   5.606   4.071   8.166 -0.6983 -1.8821  0.4331
 1003TIP3    H224645   5.690   4.022   8.282  0.7552  0.4351  0.4348
 1004TIP3   OH224646   3.167   6.117   6.829 -0.5985  0.5787  0.5646
 1004TIP3    H124647   3.160   6.062   6.751 -1.6551 -0.7749  1.5649
 1004TIP3    H224648   3.186   6.204   6.795 -3.2951  0.5223 -1.3924
 1005TIP3   OH224649   6.166   3.580   0.867 -0.1052  0.0077 -0.1264
 1005TIP3    H124650   6.231   3.557   0.801  2.0550  0.2033  1.8200
 1005TIP3    H224651   6.117   3.499   0.882 -0.7337 -0.0123 -1.9763
 1006TIP3   OH224652   5.974   2.337   0.148  0.2311 -0.2250 -0.2569
 1006TIP3    H124653   6.033   2.388   0.203  0.5086 -0.6321 -0.1738
 1006TIP3    H224654   6.027   2.312   0.072  1.1129 -3.0793  1.1610
 1007TIP3   OH224655   4.887   2.186   6.795  0.3282  0.5726  0.1934
 1007TIP3    H124656   4.907   2.251   6.862  0.0327 -1.1207  1.9827
 1007TIP3    H224657   4.869   2.105   6.843  0.9013 -0.9298 -1.9636
 1008TIP3   OH224658   3.982   5.460   0.818 -0.0031  0.3259  0.5089
 1008TIP3    H124659   3.996   5.519   0.743  0.3037  0.3289  0.5655
 1008TIP3    H224660   3.941   5.515   0.885  0.4867  0.5363  0.6437
 1009TIP3   OH224661   3.772   3.664   6.619  0.2867  0.7144  0.0793
 1009TIP3    H124662   3.701   3.609   6.654  0.3301  0.8534  0.3922
 1009TIP3    H224663   3.825   3.604   6.566 -1.3753  1.0724 -2.1208
 1010TIP3   OH224664   5.412   3.366   0.714  0.0620  0.2679  0.4265
 1010TIP3    H124665   5.444   3.404   0.633  0.1319  0.5027  0.5636
 1010TIP3    H224666   5.489   3.323   0.753 -0.3348 -1.2913 -0.4445
 1011TIP3   OH224667   1.292   5.911   0.743  0.0946  0.1919 -0.5978
 1011TIP3    H124668   1.377   5.874   0.767 -0.8308 -2.0912 -0.6789
 1011TIP3    H224669   1.311   5.968   0.668  1.7853  1.1076  0.4599
 1012TIP3   OH224670   3.571   0.041   6.601 -0.3717 -0.3680  0.6220
 1012TIP3    H124671   3.604   0.067   6.687  0.9506 -0.9423  0.3234
 1012TIP3    H224672   3.620  -0.039   6.580  0.9067  0.8665 -1.5279
 1013TIP3   OH224673   6.822   3.472   1.137 -0.3303 -0.1649  0.4118
 1013TIP3    H124674   6.760   3.401   1.149  1.0161 -1.6689 -1.0286
 1013TIP3    H224675   6.797   3.538   1.202 -2.2207 -1.5190  1.1215
 1014TIP3   OH224676   1.932   1.500   8.190  0.4047 -0.4791  0.2393
 1014TIP3    H124677   1.897   1.515   8.278 -0.1854 -0.0921 -0.0540
 1014TIP3    H224678   1.894   1.416   8.164 -1.3344  0.5066 -0.5562
 1015TIP3   OH224679   3.897   3.659   1.933 -0.7400  0.5968  0.2460
 1015TIP3    H124680   3.931   3.748   1.921  0.0699  0.5618  1.9879
 1015TIP3    H224681   3.972   3.610   1.969 -0.8217 -1.0987 -1.6903
 1016TIP3   OH224682   2.890   1.065   8.313 -0.2865  0.1956  0.4503
 1016TIP3    H124683   2.933   0.994   8.266  1.3444  0.5668  1.2910
 1016TIP3    H224684   2.904   1.143   8.259 -0.1556  0.2583  0.5707
 1017TIP3   OH224685   1.798   4.263   2.008  0.3578 -0.2106  0.1128
 1017TIP3    H124686   1.850   4.280   1.930 -0.3785 -0.3063 -0.4146
 1017TIP3    H224687   1.774   4.171   2.002 -2.1709  0.4326 -1.1362
 1018TIP3   OH224688   6.825   6.541   6.046  0.8530  0.7902 -0.0417
 1018TIP3    H124689   6.776   6.600   5.990  0.6421  0.4293 -0.2439
 1018TIP3    H224690   6.765   6.520   6.117 -0.2809 -1.6597 -1.5921
 1019TIP3   OH224691   1.360   3.379   1.921 -0.0416  0.2032 -0.9725
 1019TIP3    H124692   1.398   3.298   1.956 -1.9025 -0.3255 -0.0696
 1019TIP3    H224693   1.370   3.442   1.992  0.1017  0.3509 -1.1256
 1020TIP3   OH224694   2.158   1.130   1.020  0.7387  0.2495  0.5288
 1020TIP3    H124695   2.162   1.213   0.972 -0.2350  0.5341  0.9273
 1020TIP3    H224696   2.173   1.155   1.112  1.1068 -0.1090  0.5727
 1021TIP3   OH224697   6.414   0.338   8.265  0.1591  0.0426  0.3057
 1021TIP3    H124698   6.500   0.380   8.274  0.4253 -0.8790  2.9204
 1021TIP3    H224699   6.364   0.368   8.341 -0.9096 -1.4599  0.2415
 1022TIP3   OH224700   0.637   4.389   0.460 -0.4977  0.2761  0.1276
 1022TIP3    H124701   0.556   4.345   0.433 -1.3397  0.0326  2.7540
 1022TIP3    H224702   0.693   4.387   0.382 -2.3440 -1.1192 -1.2459
 1023TIP3   OH224703   2.876   3.475   8.364 -0.6353  0.2234  0.1539
 1023TIP3    H124704   2.948   3.424   8.327  0.7401  0.9401  1.6945
 1023TIP3    H224705   2.917   3.527   8.433 -2.7062  0.4193  1.3215
 1024TIP3   OH224706   0.494   6.481   7.438  0.9699 -0.0508 -0.3692
 1024TIP3    H124707   0.480   6.522   7.522  1.0361  0.5639 -0.6526
 1024TIP3    H224708   0.505   6.388   7.458  0.3983  0.0066  0.2314
 1025TIP3   OH224709   0.080   2.902   0.900 -0.1519 -0.2080  0.6884
 1025TIP3    H124710   0.107   2.993   0.892 -0.9359  0.1224  1.6563
 1025TIP3    H224711   0.161   2.852   0.891  0.3284  0.5887  0.4742
 1026TIP3   OH224712   1.746   4.748   1.270  0.1317 -0.0694 -0.2105
 1026TIP3    H124713   1.724   4.788   1.354 -1.4985  2.6786 -1.8046
 1026TIP3    H224714   1.684   4.675   1.262 -0.8392  0.6830  0.2577
 1027TIP3   OH224715   4.109   6.166   6.181 -0.1229  0.2499 -0.8063
 1027TIP3    H124716   4.163   6.229   6.132  0.2253 -0.0657 -0.8356
 1027TIP3    H224717   4.117   6.194   6.272  0.1311  0.1749 -0.8048
 1028TIP3   OH224718   1.147   0.600   2.139 -0.4223 -0.2587 -0.4029
 1028TIP3    H124719   1.167   0.513   2.105 -0.0407 -0.3346  0.0064
 1028TIP3    H224720   1.227   0.628   2.183 -1.3433 -0.8299  1.8179
 1029TIP3   OH224721   5.567   0.991   7.195  0.2549 -0.0428  0.0457
 1029TIP3    H124722   5.655   0.978   7.160  0.9318  3.5489  0.0071
 1029TIP3    H224723   5.508   0.962   7.125  1.4249 -0.9396 -0.5991
 1030TIP3   OH224724   0.467   6.323   2.060  0.2541  0.1440  0.1974
 1030TIP3    H124725   0.552   6.279   2.066 -0.0367 -0.3947  0.5036
 1030TIP3    H224726   0.403   6.251   2.062 -0.1828  0.4647 -1.0475
 1031TIP3   OH224727   3.291   5.134   7.136 -0.0991 -0.1780  0.4662
 1031TIP3    H124728   3.244   5.053   7.115 -1.9201  1.1523 -0.9410
 1031TIP3    H224729   3.227   5.203   7.120  1.2287  1.5444  2.1294
 1032TIP3   OH224730   6.631   4.865   2.163  0.2826  0.2201 -0.5471
 1032TIP3    H124731   6.667   4.828   2.083  0.5592  0.6117 -0.6043
 1032TIP3    H224732   6.586   4.791   2.205 -0.5777  0.2129 -1.4595
 1033TIP3   OH224733   0.287   6.295   7.347  0.3722  0.0143 -0.1905
 1033TIP3    H124734   0.363   6.350   7.367  1.3273 -1.2280 -0.2928
 1033TIP3    H224735   0.309   6.209   7.381 -1.3354 -0.2065  0.4702
 1034TIP3   OH224736   3.669   1.476   7.566 -0.0790 -0.5647  0.2346
 1034TIP3    H124737   3.657   1.570   7.553 -1.0844 -0.7811 -0.4696
 1034TIP3    H224738   3.665   1.439   7.478  2.8431 -1.0283  0.1772
 1035TIP3   OH224739   2.963   3.166   1.243  0.0828 -1.1527  0.4246
 1035TIP3    H124740   2.883   3.116   1.260 -0.6536 -0.6803 -1.3946
 1035TIP3    H224741   3.033   3.102   1.251 -0.3607 -1.4290  2.7711
 1036TIP3   OH224742   6.268   6.210   2.284  0.4640  0.0408 -0.1968
 1036TIP3    H124743   6.306   6.231   2.370  0.3819 -0.9881  0.1081
 1036TIP3    H224744   6.333   6.152   2.243  0.3775  0.3102 -0.7195
 1037TIP3   OH224745   5.885   1.465   0.610 -0.2850  0.6521  0.8281
 1037TIP3    H124746   5.882   1.549   0.564 -1.7605  0.6589  0.8713
 1037TIP3    H224747   5.885   1.399   0.541 -0.2544  0.6848  0.7969
 1038TIP3   OH224748   4.566   2.988   6.775  0.0750  0.1279  0.0800
 1038TIP3    H124749   4.533   2.898   6.778 -0.9144  0.3263 -2.1376
 1038TIP3    H224750   4.491   3.041   6.803  0.0976  0.3367 -0.2530
 1039TIP3   OH224751   2.919   0.030   1.230  0.1433  0.6723 -0.1696
 1039TIP3    H124752   2.866  -0.028   1.285 -1.2572  2.5099  0.5366
 1039TIP3    H224753   2.930  -0.018   1.148 -0.3851 -0.8476  0.6055
 1040TIP3   OH224754   4.609   5.692   8.452 -0.1458 -0.1147  0.0817
 1040TIP3    H124755   4.621   5.604   8.488  1.1507  0.6389  1.6378
 1040TIP3    H224756   4.517   5.696   8.429 -0.7332 -1.2073  1.9835
 1041TIP3   OH224757   4.872   0.411   1.434  0.0423  0.1022 -0.4632
 1041TIP3    H124758   4.880   0.350   1.361 -4.6639 -2.0049  0.3575
 1041TIP3    H224759   4.813   0.479   1.401  1.1955  1.4448  0.1748
 1042TIP3   OH224760   3.480   2.762   7.286 -0.3299  0.2913 -0.4176
 1042TIP3    H124761   3.478   2.819   7.363  1.1708  1.7234 -1.3729
 1042TIP3    H224762   3.439   2.814   7.217  3.3120  1.4136 -1.9632
 1043TIP3   OH224763   5.620   1.169   0.028 -0.7831  0.1222 -0.1086
 1043TIP3    H124764   5.615   1.081  -0.010 -2.2632 -0.1257  0.5798
 1043TIP3    H224765   5.546   1.216  -0.010  0.9582  1.6643 -1.7871
 1044TIP3   OH224766   1.382   4.762   7.760 -0.1604 -0.3405 -0.3576
 1044TIP3    H124767   1.317   4.833   7.756  1.7210  1.4354 -0.7702
 1044TIP3    H224768   1.465   4.807   7.776  1.0943 -2.4906 -0.5742
 1045TIP3   OH224769   2.624   5.817   7.909  0.2195 -0.0965  0.1414
 1045TIP3    H124770   2.672   5.767   7.975  1.1740 -0.1124 -0.5390
 1045TIP3    H224771   2.660   5.905   7.914 -0.3475  0.1307  0.2608
 1046TIP3   OH224772   5.159   0.251   8.641 -0.0661 -0.4533  0.0214
 1046TIP3    H124773   5.244   0.271   8.603 -0.0084 -0.4820  0.1330
 1046TIP3    H224774   5.100   0.244   8.567 -0.2704  0.9786  0.0198
 1047TIP3   OH224775   0.421   0.094   6.382  0.5816  0.1893  0.0402
 1047TIP3    H124776   0.396   0.171   6.332  3.8514  0.7038 -1.0470
 1047TIP3    H224777   0.461   0.130   6.462 -0.7301 -0.5379  1.0723
 1048TIP3   OH224778   1.253   1.906   6.144 -0.7145 -0.1972 -0.4747
 1048TIP3    H124779   1.328   1.945   6.099  1.2051 -1.0935  1.7172
 1048TIP3    H224780   1.211   1.850   6.079  1.5045 -0.9409 -1.3461
 1049TIP3   OH224781   1.369   0.842   6.992  0.0485  0.1793  0.8732
 1049TIP3    H124782   1.377   0.906   7.063 -0.4331 -0.0798  1.1581
 1049TIP3    H224783   1.456   0.842   6.951 -0.0329  1.2433  0.6701
 1050TIP3   OH224784   5.403   2.764   0.101  0.1105 -0.2028 -0.1569
 1050TIP3    H124785   5.450   2.695   0.054 -0.7677 -0.3677 -0.8151
 1050TIP3    H224786   5.467   2.835   0.109  0.1876 -0.0318 -1.9040
 1051TIP3   OH224787   5.446   5.768   6.360 -0.5569  0.8226  0.2118
 1051TIP3    H124788   5.495   5.849   6.374 -0.2985  0.5097  1.1411
 1051TIP3    H224789   5.399   5.783   6.278  2.5151  0.4566 -1.7923
 1052TIP3   OH224790   0.447   4.218   0.415 -0.5320  0.6335  0.5672
 1052TIP3    H124791   0.445   4.229   0.510 -0.1055  0.7294  0.5659
 1052TIP3    H224792   0.484   4.131   0.402 -2.2011 -0.1176  0.5266
 1053TIP3   OH224793   3.236   2.386   0.229 -0.3391  0.4225 -0.0175
 1053TIP3    H124794   3.315   2.372   0.282 -0.3594 -1.5857 -0.4459
 1053TIP3    H224795   3.164   2.376   0.292 -0.3179 -0.7432 -0.1448
 1054TIP3   OH224796   0.702   2.369   1.914  0.0130 -0.6059  0.3808
 1054TIP3    H124797   0.746   2.357   1.999  0.2171  0.8032  0.4995
 1054TIP3    H224798   0.652   2.289   1.902  0.2924 -1.0028  1.6574
 1055TIP3   OH224799   3.421   1.366   7.691  0.3921  0.2797 -0.1210
 1055TIP3    H124800   3.477   1.311   7.745 -0.0500  1.5950  1.7528
 1055TIP3    H224801   3.482   1.412   7.633  0.9475 -0.5682 -0.2281
 1056TIP3   OH224802   2.969   4.950   8.266 -0.3318 -0.1299  0.6442
 1056TIP3    H124803   2.960   5.031   8.217  0.9168 -0.7148 -0.6229
 1056TIP3    H224804   2.881   4.933   8.301 -0.5497  1.9051  1.2390
 1057TIP3   OH224805   5.449   5.607   0.121 -0.2760 -0.5467  0.0306
 1057TIP3    H124806   5.357   5.627   0.107  0.0085  2.1090  1.3516
 1057TIP3    H224807   5.451   5.556   0.202 -0.7026 -2.9399 -1.3628
 1058TIP3   OH224808   2.335   5.582   8.038 -0.2198 -0.0247 -0.1064
 1058TIP3    H124809   2.391   5.653   8.069  0.6764 -0.2982 -1.0353
 1058TIP3    H224810   2.292   5.619   7.960  0.9974 -0.7864 -1.1761
 1059TIP3   OH224811   1.846   1.562   0.121 -0.6563 -0.3247 -0.0313
 1059TIP3    H124812   1.867   1.558   0.215  2.0077  0.9424 -0.4792
 1059TIP3    H224813   1.894   1.489   0.083  1.4875  1.4094 -0.8386
 1060TIP3   OH224814   4.164   5.582   7.767  0.1445  0.2064 -0.1212
 1060TIP3    H124815   4.152   5.489   7.783 -0.4024  0.2418 -0.3080
 1060TIP3    H224816   4.214   5.586   7.685  2.7168  0.0340  1.3122
 1061TIP3   OH224817   0.714   5.625   0.221 -0.1280 -0.2496 -0.1937
 1061TIP3    H124818   0.745   5.663   0.303  0.8517  0.2936 -0.7938
 1061TIP3    H224819   0.620   5.615   0.234  0.1764 -1.3982  1.4694
 1062TIP3   OH224820   0.621   6.525   1.937 -0.0261  0.0008 -0.8599
 1062TIP3    H124821   0.562   6.546   1.865 -0.8027 -2.3087 -0.9892
 1062TIP3    H224822   0.570   6.466   1.993 -0.1233  3.0764  2.6764
 1063TIP3   OH224823   0.297   6.015   6.961 -0.1206  0.0842 -0.0003
 1063TIP3    H124824   0.305   6.064   6.879  0.9332  0.7861  0.5115
 1063TIP3    H224825   0.235   6.066   7.014 -2.9780 -1.7531 -1.3164
 1064TIP3   OH224826   2.777   6.210   0.469  0.4654 -0.2789  0.4365
 1064TIP3    H124827   2.692   6.183   0.501  0.2618  1.7788  1.8291
 1064TIP3    H224828   2.763   6.298   0.435  1.9891  0.0147  0.4965
 1065TIP3   OH224829   1.989   4.104   8.485  0.4242  0.3495 -0.2068
 1065TIP3    H124830   1.993   4.118   8.579 -0.7142 -0.2433 -0.0565
 1065TIP3    H224831   1.896   4.098   8.465  0.6399  0.6562 -1.4037
 1066TIP3   OH224832   6.003   0.077   8.346  0.5127  0.1954 -0.2871
 1066TIP3    H124833   6.072   0.012   8.336 -1.8089 -2.2320 -1.4082
 1066TIP3    H224834   5.959   0.052   8.427 -1.3267 -0.6341 -1.4933
 1067TIP3   OH224835   5.635   5.812   1.638  0.1482  0.3980  0.1938
 1067TIP3    H124836   5.583   5.852   1.568  1.7845 -2.4842 -2.9906
 1067TIP3    H224837   5.615   5.719   1.633  1.1200 -0.0454  2.9844
 1068TIP3   OH224838   6.741   4.898   6.801  1.0785  0.5026  0.0648
 1068TIP3    H124839   6.832   4.929   6.804  0.9096  0.9737  0.5601
 1068TIP3    H224840   6.692   4.971   6.762  1.0853 -0.2175 -1.3577
 1069TIP3   OH224841   1.464   4.698   7.474 -0.1795  0.0771  0.0148
 1069TIP3    H124842   1.404   4.769   7.450 -0.5253  0.1459  1.0540
 1069TIP3    H224843   1.432   4.667   7.558  1.6949  0.6511  0.9995
 1070TIP3   OH224844   6.044   4.636   8.589 -0.6370  0.1547  1.0297
 1070TIP3    H124845   6.074   4.707   8.532 -2.2452  0.7350  0.8659
 1070TIP3    H224846   5.957   4.614   8.557 -1.1042 -0.3194  2.5363
 1071TIP3   OH224847   2.300   0.935   0.622 -0.1482  0.1189 -0.1350
 1071TIP3    H124848   2.306   0.938   0.717 -0.5846  0.1377 -0.1061
 1071TIP3    H224849   2.371   0.991   0.591  0.0163  0.0822  0.1759
 1072TIP3   OH224850   6.326   2.342   7.084 -0.4975  0.0749 -1.0872
 1072TIP3    H124851   6.261   2.408   7.060  0.6032  2.3144  1.5797
 1072TIP3    H224852   6.341   2.293   7.003 -5.2327 -0.4674 -1.8997
 1073TIP3   OH224853   0.460   2.234   7.770  0.1537 -0.1606  0.7689
 1073TIP3    H124854   0.449   2.158   7.827  0.6384 -0.1298  0.9032
 1073TIP3    H224855   0.484   2.197   7.685  1.1611 -0.1301  1.0285
 1074TIP3   OH224856   2.324   6.174   0.786  0.5131  0.4739 -0.4272
 1074TIP3    H124857   2.353   6.086   0.813  1.5091  0.1967 -2.2307
 1074TIP3    H224858   2.238   6.184   0.826  0.6028 -1.1149  0.2582
 1075TIP3   OH224859   3.841   6.171   1.040 -0.5370  0.1954  0.2904
 1075TIP3    H124860   3.754   6.162   0.999 -0.3577 -0.2814  0.0026
 1075TIP3    H224861   3.822   6.206   1.127 -1.1614 -1.2166  0.7680
 1076TIP3   OH224862   2.954   0.106   7.667  0.1854  0.1365  0.7780
 1076TIP3    H124863   2.959   0.130   7.574 -1.0614  0.4975  0.7927
 1076TIP3    H224864   2.874   0.148   7.699  0.9486  0.5930  2.2006
 1077TIP3   OH224865   5.542   0.294   0.223  0.1394 -0.9228  0.7476
 1077TIP3    H124866   5.497   0.346   0.157  2.4710  0.0857 -0.1446
 1077TIP3    H224867   5.530   0.203   0.194 -0.3216 -0.6023 -0.0898
 1078TIP3   OH224868   6.577   2.257   1.262 -0.6525  0.5856  0.4404
 1078TIP3    H124869   6.595   2.297   1.347 -1.8476 -0.2576  1.1262
 1078TIP3    H224870   6.508   2.193   1.280 -0.1720 -0.3841 -0.9699
 1079TIP3   OH224871   4.237   4.568   1.731  0.8273  0.7022  0.5585
 1079TIP3    H124872   4.297   4.525   1.792 -0.7748 -1.0168  1.0455
 1079TIP3    H224873   4.255   4.527   1.647  0.6434  0.4809  0.6238
 1080TIP3   OH224874   5.194   3.423   0.458  0.1553 -0.1413 -0.0276
 1080TIP3    H124875   5.274   3.374   0.440  0.9989  1.5159 -0.9741
 1080TIP3    H224876   5.127   3.355   0.473  1.7307 -1.5623  0.9641
 1081TIP3   OH224877   0.130   0.881   8.000 -0.2295  0.1987  0.0736
 1081TIP3    H124878   0.111   0.964   7.957 -1.1047  0.0953  0.2358
 1081TIP3    H224879   0.116   0.898   8.094 -1.1901 -0.3211  0.0396
 1082TIP3   OH224880   0.827   3.795   7.783 -0.8847 -0.3580  0.1014
 1082TIP3    H124881   0.792   3.782   7.695 -1.2382  0.7435  0.0626
 1082TIP3    H224882   0.754   3.831   7.833 -0.2193  0.6446  0.3875
 1083TIP3   OH224883   3.918   6.659   0.768 -0.4415  0.5305 -0.3198
 1083TIP3    H124884   3.924   6.705   0.684 -2.4254  2.4444  0.4639
 1083TIP3    H224885   3.960   6.719   0.830 -2.4208  1.0683  0.6065
 1084TIP3   OH224886   4.504   4.399   1.111  0.3085  0.7473 -0.1003
 1084TIP3    H124887   4.507   4.347   1.191  0.7902 -0.1366 -0.6762
 1084TIP3    H224888   4.435   4.463   1.126 -1.7406 -1.3247 -0.1242
 1085TIP3   OH224889   6.720   1.708   7.613 -0.3660 -0.4426 -0.4764
 1085TIP3    H124890   6.680   1.724   7.527 -0.9516 -1.7321 -0.4615
 1085TIP3    H224891   6.773   1.629   7.600 -0.6799 -0.8035  0.4280
 1086TIP3   OH224892   0.000   1.349   1.443 -0.3207 -0.7844 -0.5203
 1086TIP3    H124893  -0.065   1.369   1.376 -1.7209  0.2112  1.0545
 1086TIP3    H224894   0.039   1.434   1.465  0.9261 -1.2528 -0.8163
 1087TIP3   OH224895   1.230   5.413   0.499  0.5198 -0.0603 -0.1412
 1087TIP3    H124896   1.190   5.482   0.551  0.7832 -0.1740  0.2144
 1087TIP3    H224897   1.176   5.408   0.420  1.1902  1.3879 -0.7358
 1088TIP3   OH224898   1.552   5.480   6.667 -0.3009  0.2161 -0.4236
 1088TIP3    H124899   1.578   5.471   6.576 -1.0466 -0.4096 -0.5880
 1088TIP3    H224900   1.476   5.422   6.676  0.6566 -0.8852  0.9700
 1089TIP3   OH224901   5.708   0.500   6.363 -0.2272 -0.3335  0.2718
 1089TIP3    H124902   5.739   0.431   6.303 -0.8083 -0.6370  0.3120
 1089TIP3    H224903   5.713   0.580   6.311 -0.1994 -0.5125 -0.0072
 1090TIP3   OH224904   6.404   0.670   0.093  0.1124 -0.5018  0.8352
 1090TIP3    H124905   6.489   0.661   0.136  0.6199 -0.9263 -0.2238
 1090TIP3    H224906   6.401   0.596   0.031  0.8278  1.7946 -2.1866
 1091TIP3   OH224907   0.468   4.587   7.471 -0.0390  0.1022 -0.5738
 1091TIP3    H124908   0.423   4.511   7.508 -2.2256  1.9448  0.8463
 1091TIP3    H224909   0.421   4.606   7.390  1.6202 -0.9946 -1.8755
 1092TIP3   OH224910   2.004   4.745   5.620  0.0262 -0.3078  0.5438
 1092TIP3    H124911   2.079   4.797   5.591  0.8405 -0.9992  1.3436
 1092TIP3    H224912   2.038   4.656   5.625 -0.1081 -0.2815  3.3770
 1093TIP3   OH224913   3.229   2.290   8.411  0.9970  0.0079  0.0969
 1093TIP3    H124914   3.219   2.198   8.387 -0.5060  0.5657 -1.6764
 1093TIP3    H224915   3.250   2.289   8.504  0.3432 -2.0860  0.2685
 1094TIP3   OH224916   3.187   3.984   7.368 -0.1351  0.0299  0.0474
 1094TIP3    H124917   3.095   4.010   7.362 -0.6201 -1.7564 -0.8932
 1094TIP3    H224918   3.186   3.901   7.415  1.1321  0.5082  0.9902
 1095TIP3   OH224919   4.192   4.989   0.301 -0.3251 -0.0836 -0.8892
 1095TIP3    H124920   4.113   5.027   0.262  0.3289  0.1483 -2.0295
 1095TIP3    H224921   4.163   4.955   0.385 -2.1323 -1.9304 -2.1479
 1096TIP3   OH224922   2.428   3.065   7.383 -0.5779 -0.2277 -0.0949
 1096TIP3    H124923   2.458   2.974   7.386  0.4428 -0.0432 -2.4976
 1096TIP3    H224924   2.342   3.061   7.342 -1.2946 -0.2106  1.3352
 1097TIP3   OH224925   1.133   0.201   0.956 -0.4980  0.5460 -0.1738
 1097TIP3    H124926   1.128   0.232   1.047  1.0961 -1.8175  0.8159
 1097TIP3    H224927   1.226   0.202   0.936 -0.2579 -3.3392 -0.0094
 1098TIP3   OH224928   6.478   0.513   0.789 -0.2481 -0.0026  0.5995
 1098TIP3    H124929   6.537   0.578   0.750 -1.1272 -0.1420 -1.0185
 1098TIP3    H224930   6.398   0.562   0.808 -0.1236 -0.1282  1.5120
 1099TIP3   OH224931   5.188   6.326   7.453  0.0940  0.2397 -0.1299
 1099TIP3    H124932   5.257   6.280   7.500 -1.6997 -0.9794  1.4803
 1099TIP3    H224933   5.121   6.344   7.520 -1.3560  0.9566 -1.6828
 1100TIP3   OH224934   4.986   5.853   1.450  0.4206 -0.2589  0.4327
 1100TIP3    H124935   4.912   5.794   1.463 -1.2952  1.3193 -1.5087
 1100TIP3    H224936   5.027   5.859   1.537 -2.2588 -0.4987  1.8295
 1101TIP3   OH224937   0.961   6.721   0.115  0.7953 -0.5703 -0.5480
 1101TIP3    H124938   0.876   6.715   0.159 -0.0184  0.6172 -1.8603
 1101TIP3    H224939   1.020   6.754   0.183 -0.4007  1.1452 -0.2533
 1102TIP3   OH224940   0.133   2.753   2.151 -0.2168  0.0832  0.3278
 1102TIP3    H124941   0.138   2.833   2.203 -0.1421  0.8907 -0.8838
 1102TIP3    H224942   0.040   2.739   2.136 -0.1464  1.1183 -1.1950
 1103TIP3   OH224943   5.786   5.046   1.541 -0.1723  0.7435 -0.3597
 1103TIP3    H124944   5.836   4.971   1.572  1.2270  1.3460 -1.0787
 1103TIP3    H224945   5.744   5.016   1.461 -1.4918  0.0610  0.5434
 1104TIP3   OH224946   4.296   5.133   6.829 -0.3036  0.1047 -0.4836
 1104TIP3    H124947   4.383   5.169   6.845 -0.4861  0.8267 -1.0477
 1104TIP3    H224948   4.307   5.038   6.838  0.1359  0.2775  1.2889
 1105TIP3   OH224949   2.452   0.995   7.628 -0.1108  0.1005 -0.2992
 1105TIP3    H124950   2.486   0.908   7.648  0.3466  0.3648  0.0618
 1105TIP3    H224951   2.357   0.982   7.620  0.0853 -0.6943 -1.6359
 1106TIP3   OH224952   5.243   5.996   2.134 -0.1182  0.0038  0.1313
 1106TIP3    H124953   5.190   6.070   2.165  0.4236  0.4587 -0.0208
 1106TIP3    H224954   5.311   5.985   2.200 -0.0302 -0.1798  0.0118
 1107TIP3   OH224955   5.240   5.088   1.292  0.4238  0.0439  0.5954
 1107TIP3    H124956   5.236   5.000   1.328 -0.4933 -0.3402 -0.3756
 1107TIP3    H224957   5.173   5.137   1.340  2.2758  0.8227  2.5601
 1108TIP3   OH224958   4.126   3.320   1.082 -0.0809 -0.4086 -0.4310
 1108TIP3    H124959   4.218   3.337   1.060  0.7683 -3.7742 -0.0292
 1108TIP3    H224960   4.127   3.305   1.177 -0.8862 -1.3253 -0.5581
 1109TIP3   OH224961   5.261   0.106   1.344 -0.1487  0.3781  0.0398
 1109TIP3    H124962   5.294   0.196   1.345 -0.7596  0.6047  0.1148
 1109TIP3    H224963   5.300   0.065   1.421  0.2412  0.5357 -0.0719
 1110TIP3   OH224964   0.953   6.710   1.414 -0.0182  0.5765 -0.1215
 1110TIP3    H124965   1.044   6.680   1.406 -0.2800 -0.0962 -0.6711
 1110TIP3    H224966   0.901   6.638   1.378 -0.7823  0.8711  0.3731
 1111TIP3   OH224967   5.682   6.783   8.575 -0.3521  0.1556 -0.1925
 1111TIP3    H124968   5.675   6.821   8.487 -1.4529 -0.6292 -0.4702
 1111TIP3    H224969   5.592   6.770   8.602 -0.0507  1.4586  1.5645
 1112TIP3   OH224970   3.140   6.411   8.244  0.0595  0.2996  0.3171
 1112TIP3    H124971   3.143   6.476   8.314 -1.4016  1.7528 -0.8772
 1112TIP3    H224972   3.097   6.456   8.171  2.2839 -0.8278 -1.8606
 1113TIP3   OH224973   2.297   6.715   7.747 -0.3632  0.4397 -0.1477
 1113TIP3    H124974   2.293   6.738   7.654 -1.4665 -1.2768 -0.5909
 1113TIP3    H224975   2.301   6.619   7.747 -1.8647  0.3256  1.5813
 1114TIP3   OH224976   0.709   1.895   1.417 -0.1059  0.2089  0.4482
 1114TIP3    H124977   0.685   1.980   1.453  0.4010  0.1413  0.9518
 1114TIP3    H224978   0.722   1.839   1.493  2.7397  0.5256  0.3037
 1115TIP3   OH224979   3.355   1.324   2.362 -0.5550  0.4005 -0.0189
 1115TIP3    H124980   3.359   1.382   2.286  1.3097 -1.0232 -1.1106
 1115TIP3    H224981   3.408   1.368   2.429  0.4392  0.2432 -0.6728
 1116TIP3   OH224982   3.671   4.551   0.301 -0.1686  0.0175 -0.6556
 1116TIP3    H124983   3.663   4.645   0.285 -0.6021  0.0887 -0.0557
 1116TIP3    H224984   3.764   4.532   0.286  0.2415  0.8304  0.6893
 1117TIP3   OH224985   0.479   2.180   6.594 -0.0272 -0.0017  0.4295
 1117TIP3    H124986   0.453   2.089   6.579 -0.2026  0.1635 -0.3104
 1117TIP3    H224987   0.572   2.175   6.616 -0.0006 -0.3493  0.2539
 1118TIP3   OH224988   6.619   4.038   0.044 -0.6260  0.0262  0.7207
 1118TIP3    H124989   6.546   3.976   0.049  0.6616 -1.7384 -1.1154
 1118TIP3    H224990   6.665   4.028   0.127  0.8680 -3.2814 -0.3584
 1119TIP3   OH224991   2.985   0.788   2.046  0.1452  0.1699 -0.1652
 1119TIP3    H124992   2.981   0.863   2.105 -0.1273  0.3846 -0.4553
 1119TIP3    H224993   2.968   0.712   2.102 -1.2669  0.4696 -0.1673
 1120TIP3   OH224994   3.216   1.146   6.919  0.9605  0.0319 -0.2123
 1120TIP3    H124995   3.247   1.180   6.835 -1.0640 -1.1387 -1.5327
 1120TIP3    H224996   3.172   1.064   6.896 -2.7703  1.3531  1.4049
 1121TIP3   OH224997   5.811   1.100   1.096  0.1422 -0.0886  0.1439
 1121TIP3    H124998   5.762   1.180   1.116  0.8481  0.1153  1.1049
 1121TIP3    H224999   5.798   1.087   1.002  1.0396  1.8654 -0.2955
 1122TIP3   OH225000   3.897   1.284   0.739 -0.4191 -0.4924 -0.1294
 1122TIP3    H125001   3.871   1.192   0.732  1.5205 -0.9957 -1.3831
 1122TIP3    H225002   3.884   1.306   0.831 -0.4647 -2.1560  0.2847
 1123TIP3   OH225003   2.298   2.263   0.121  0.7557  0.0080  0.3064
 1123TIP3    H125004   2.269   2.339   0.070 -0.0322  0.6524  1.6783
 1123TIP3    H225005   2.242   2.191   0.092 -0.3095  0.5866  0.9006
 1124TIP3   OH225006   3.883   4.035   7.148 -0.0960  0.7414  0.8554
 1124TIP3    H125007   3.962   4.089   7.137  0.7976 -0.9472 -2.0310
 1124TIP3    H225008   3.916   3.951   7.179 -0.5779 -0.3003 -1.3251
 1125TIP3   OH225009   3.406   3.752   7.356 -0.3428 -0.4296 -0.2050
 1125TIP3    H125010   3.348   3.752   7.280 -1.5946 -0.1387  0.7146
 1125TIP3    H225011   3.362   3.695   7.419 -0.5012  1.1269  1.1450
 1126TIP3   OH225012   1.143   6.364   2.059  0.6024 -0.0823  0.0884
 1126TIP3    H125013   1.090   6.396   1.985  1.0766  0.3793 -0.0550
 1126TIP3    H225014   1.218   6.321   2.019  0.7125 -0.0918  0.3025
 1127TIP3   OH225015   1.712   3.521   2.218 -0.3649 -0.0537  0.4737
 1127TIP3    H125016   1.807   3.519   2.232 -0.3971 -1.1548  0.6806
 1127TIP3    H225017   1.694   3.443   2.166 -1.0540  0.6334 -0.3500
 1128TIP3   OH225018   2.375   1.671   1.681  0.0859 -0.1518  0.2828
 1128TIP3    H125019   2.445   1.672   1.616 -1.6840  0.5903 -1.7306
 1128TIP3    H225020   2.420   1.686   1.764  2.4639 -1.2162 -0.7043
 1129TIP3   OH225021   1.452   4.999   7.195 -0.1614  0.3689  0.2595
 1129TIP3    H125022   1.397   4.971   7.269  0.5699  1.9497  1.4684
 1129TIP3    H225023   1.390   5.026   7.128 -0.8690  0.6245  0.9905
 1130TIP3   OH225024   3.295   6.714   6.399 -0.6000  0.1030 -0.1923
 1130TIP3    H125025   3.246   6.647   6.351  0.0661  0.6881 -1.7470
 1130TIP3    H225026   3.376   6.671   6.426 -1.1245 -0.3262  0.7424
 1131TIP3   OH225027   5.420   4.037   7.566  0.0751 -0.1178  0.0801
 1131TIP3    H125028   5.350   3.994   7.615  0.5073  0.9626  1.7322
 1131TIP3    H225029   5.429   3.985   7.486 -1.9660 -0.8178  0.2516
 1132TIP3   OH225030   0.182   6.607   0.362 -0.1938 -0.1253 -0.6979
 1132TIP3    H125031   0.265   6.561   0.348 -0.9863 -1.3446 -1.5888
 1132TIP3    H225032   0.138   6.557   0.431  1.2142  2.5271  2.3892
 1133TIP3   OH225033   0.886   4.068   0.495 -0.2264 -0.3316 -0.2522
 1133TIP3    H125034   0.842   3.985   0.510 -0.7795 -0.4841 -2.3890
 1133TIP3    H225035   0.978   4.044   0.479  0.2175 -0.2254  1.8083
 1134TIP3   OH225036   5.751   2.418   7.450  0.6211 -0.4225 -0.1697
 1134TIP3    H125037   5.690   2.352   7.484 -0.1929  0.6030  0.4164
 1134TIP3    H225038   5.707   2.502   7.466  2.0206  0.3212 -0.0963
 1135TIP3   OH225039   1.692   5.321   2.122  0.0460 -0.1584 -0.0865
 1135TIP3    H125040   1.602   5.303   2.094 -0.0549 -0.1761  0.2535
 1135TIP3    H225041   1.714   5.248   2.180 -0.1252  0.4385  0.7492
 1136TIP3   OH225042   1.340   0.800   0.872  0.3602 -0.1232 -0.1122
 1136TIP3    H125043   1.283   0.796   0.796  0.5816 -0.0362 -0.2828
 1136TIP3    H225044   1.416   0.749   0.848  1.0336  1.0073 -0.4652
 1137TIP3   OH225045   4.371   4.184   0.705 -0.1128  0.8149 -0.2590
 1137TIP3    H125046   4.333   4.179   0.618 -1.2561 -1.3624  0.2800
 1137TIP3    H225047   4.404   4.095   0.722  1.9044  1.6874  0.7832
 1138TIP3   OH225048   5.410   2.954   8.545  0.5021 -0.2916  0.2113
 1138TIP3    H125049   5.342   2.891   8.567  0.6375 -0.2048  0.9095
 1138TIP3    H225050   5.474   2.904   8.494 -0.5940 -0.1209 -1.4111
 1139TIP3   OH225051   4.210   1.291   0.206  0.0368  0.8018 -0.1146
 1139TIP3    H125052   4.133   1.241   0.232 -1.2983  2.7360 -0.1398
 1139TIP3    H225053   4.255   1.235   0.142 -1.9918  0.1135 -1.0139
 1140TIP3   OH225054   1.153   2.725   0.296  0.2304  0.2427  0.1573
 1140TIP3    H125055   1.231   2.747   0.346 -0.5331 -2.2921  2.7018
 1140TIP3    H225056   1.186   2.684   0.216  1.5256 -0.4324  1.0132
 1141TIP3   OH225057   5.254   1.665   1.039 -0.1129 -0.0804  1.0216
 1141TIP3    H125058   5.315   1.598   1.070 -0.2209 -0.2104  0.9529
 1141TIP3    H225059   5.307   1.724   0.986  0.0367  0.0400  1.3005
 1142TIP3   OH225060   2.395   4.926   1.095  0.1953  0.0653 -0.4626
 1142TIP3    H125061   2.433   4.840   1.076  0.7834  0.2376 -0.0818
 1142TIP3    H225062   2.307   4.907   1.127 -0.0092 -0.3443 -1.2445
 1143TIP3   OH225063   1.386   3.148   2.494 -0.0360  0.2388  0.2460
 1143TIP3    H125064   1.464   3.095   2.483  1.0992  1.3764  2.1533
 1143TIP3    H225065   1.319   3.087   2.525 -0.9339 -1.3532 -4.1661
 1144TIP3   OH225066   2.372   6.484   0.802  0.0415  0.7071 -0.0586
 1144TIP3    H125067   2.455   6.481   0.754 -1.1223  1.1164 -2.2434
 1144TIP3    H225068   2.344   6.392   0.805  1.1446  0.3726  1.8930
 1145TIP3   OH225069   1.080   3.837   7.125  0.1754  0.0794 -0.1393
 1145TIP3    H125070   1.154   3.794   7.081  0.9160 -0.8835  1.9117
 1145TIP3    H225071   1.030   3.765   7.163  1.1120  0.8777  2.8725
 1146TIP3   OH225072   1.636   6.347   0.463 -0.7503 -0.9306  0.1488
 1146TIP3    H125073   1.598   6.433   0.480 -1.3113 -0.7923 -1.5703
 1146TIP3    H225074   1.604   6.292   0.534 -2.1604 -0.2149  0.1073
 1147TIP3   OH225075   0.643   5.891   6.254  1.0475  0.5974 -0.4575
 1147TIP3    H125076   0.612   5.849   6.174  1.2803  2.3291 -1.5196
 1147TIP3    H225077   0.580   5.961   6.270  2.0299  1.4481 -0.2133
 1148TIP3   OH225078   1.716   6.725   0.015 -0.2347 -0.1419 -0.1657
 1148TIP3    H125079   1.761   6.785  -0.045  1.2108 -0.3390  0.6670
 1148TIP3    H225080   1.761   6.642   0.003  0.0260 -0.2028  1.1283
 1149TIP3   OH225081   2.606   0.241   0.884 -0.4394  0.0765 -0.3342
 1149TIP3    H125082   2.698   0.219   0.902 -0.6007 -0.9800 -0.7220
 1149TIP3    H225083   2.571   0.163   0.840 -1.6445  0.2957  0.2030
 1150TIP3   OH225084   0.608   6.408   0.156 -0.2402 -0.1605  0.4147
 1150TIP3    H125085   0.659   6.461   0.095 -0.8632 -0.8325 -0.7285
 1150TIP3    H225086   0.673   6.370   0.215  0.2635  1.4519  0.9533
 1151TIP3   OH225087   4.473   6.692   1.439  0.0645  0.3858  0.3612
 1151TIP3    H125088   4.401   6.664   1.496 -0.7673  2.1445  0.2473
 1151TIP3    H225089   4.430   6.716   1.357  0.7064  1.7933  0.4028
 1152TIP3   OH225090   1.371   1.206   2.220  0.0575  0.2722 -0.2179
 1152TIP3    H125091   1.313   1.258   2.275  1.9842  0.3285  1.9467
 1152TIP3    H225092   1.376   1.121   2.264  1.9673  0.4509  0.0054
 1153TIP3   OH225093   6.470   0.832   1.737 -0.3198 -0.2745 -0.1276
 1153TIP3    H125094   6.413   0.909   1.730 -0.5540 -0.3353  0.9969
 1153TIP3    H225095   6.547   0.863   1.783 -0.1261 -0.5702 -0.2496
 1154TIP3   OH225096   5.376   6.828   2.306  0.1169 -0.1719 -0.4277
 1154TIP3    H125097   5.300   6.819   2.363  0.1230 -0.3585 -0.4453
 1154TIP3    H225098   5.346   6.881   2.233 -0.1305 -0.6238 -0.6603
 1155TIP3   OH225099   0.966   6.114   6.455  0.5182 -0.3457 -0.0151
 1155TIP3    H125100   0.931   6.040   6.406 -2.9584  1.0252  0.1463
 1155TIP3    H225101   0.933   6.102   6.544  3.8643 -0.9644  1.2935
 1156TIP3   OH225102   1.569   4.527   1.306 -0.0756  0.3830 -0.3577
 1156TIP3    H125103   1.529   4.482   1.231 -0.2299  1.5305 -0.9813
 1156TIP3    H225104   1.607   4.456   1.358 -3.3562 -0.9246  0.5849
 1157TIP3   OH225105   1.524   1.246   0.751  0.3954  0.3830  0.2268
 1157TIP3    H125106   1.433   1.274   0.760 -0.1245 -1.1197 -0.0733
 1157TIP3    H225107   1.574   1.308   0.804 -0.8187  1.1285  0.5254
 1158TIP3   OH225108   0.197   4.898   7.626 -0.0257  0.3851 -0.6181
 1158TIP3    H125109   0.256   4.843   7.678  1.2264  1.3556 -0.9812
 1158TIP3    H225110   0.112   4.853   7.632  0.8670 -1.3880 -0.6082
 1159TIP3   OH225111   4.405   6.435   2.090 -0.2180  0.1759  0.3331
 1159TIP3    H125112   4.492   6.432   2.050 -0.3879  0.2357 -0.0341
 1159TIP3    H225113   4.387   6.528   2.104 -1.9068  0.5251 -3.2509
 1160TIP3   OH225114   2.255   3.745   0.709  0.3045 -0.0634 -0.0801
 1160TIP3    H125115   2.225   3.831   0.680  0.2638 -0.0180  0.0931
 1160TIP3    H225116   2.237   3.744   0.803  0.9413  0.0067  0.0497
 1161TIP3   OH225117   4.140   0.770   2.449 -0.3312 -1.0368 -0.3164
 1161TIP3    H125118   4.090   0.695   2.416 -0.6913 -0.2039 -1.7926
 1161TIP3    H225119   4.226   0.760   2.409  0.6878 -2.3306  2.0189
 1162TIP3   OH225120   2.447   3.128   7.649  0.3889  0.3572  0.1848
 1162TIP3    H125121   2.417   3.210   7.609  0.4198  0.2709 -0.0197
 1162TIP3    H225122   2.477   3.075   7.574 -0.4464 -0.1829  0.2160
 1163TIP3   OH225123   4.112   2.483   7.910  0.1047 -0.5457 -0.1431
 1163TIP3    H125124   4.050   2.534   7.962 -0.2144 -0.2679 -0.7785
 1163TIP3    H225125   4.087   2.501   7.819  1.6297  0.2179 -0.4424
 1164TIP3   OH225126   6.784   0.957   2.606  0.7295 -0.4885  0.1439
 1164TIP3    H125127   6.879   0.952   2.615  0.8765  0.3743 -0.7214
 1164TIP3    H225128   6.771   1.003   2.523 -0.3910  3.9356  2.4813
 1165TIP3   OH225129   3.831   2.955   1.097  0.1954  0.0316 -0.6105
 1165TIP3    H125130   3.770   3.029   1.103  1.7403  1.2656  2.5495
 1165TIP3    H225131   3.778   2.882   1.066 -2.0755  1.8099 -1.1741
 1166TIP3   OH225132   4.054   5.055   7.948 -0.1574 -0.0195  0.1410
 1166TIP3    H125133   4.136   5.033   7.993  0.4116 -0.1158 -0.9134
 1166TIP3    H225134   4.081   5.075   7.858 -1.2575  0.2739 -0.1349
 1167TIP3   OH225135   1.946   3.722   8.329  0.2018 -0.0925 -0.1360
 1167TIP3    H125136   1.930   3.788   8.397 -0.4317  1.6441 -1.8778
 1167TIP3    H225137   1.963   3.772   8.250 -1.5762 -1.9930 -1.8526
 1168TIP3   OH225138   6.131   1.208   8.467 -0.6735 -0.2841 -0.5197
 1168TIP3    H125139   6.147   1.195   8.374 -0.7011  1.0711 -0.7375
 1168TIP3    H225140   6.216   1.192   8.508 -0.2957  0.5560 -0.9532
 1169TIP3   OH225141   3.334   2.151   1.229  0.7462  0.1900 -0.3149
 1169TIP3    H125142   3.242   2.154   1.205  0.0763 -0.1794  1.9272
 1169TIP3    H225143   3.349   2.059   1.253  1.7200  0.2379 -0.6990
 1170TIP3   OH225144   6.773   6.856   0.218  0.0282  0.1205  0.0818
 1170TIP3    H125145   6.851   6.909   0.209  0.6190 -0.7541 -0.1224
 1170TIP3    H225146   6.739   6.848   0.128 -0.4739  0.7598  0.2137
 1171TIP3   OH225147   6.162   1.667   1.544  0.4733  0.2837 -0.2772
 1171TIP3    H125148   6.137   1.759   1.537  2.1575  0.6888 -1.7810
 1171TIP3    H225149   6.220   1.663   1.620 -0.8487  0.1104  0.7636
 1172TIP3   OH225150   0.338   1.321   0.319  0.6791  0.6217  0.0992
 1172TIP3    H125151   0.297   1.283   0.241  0.3525  2.5351 -0.7317
 1172TIP3    H225152   0.312   1.264   0.391  0.0842 -0.5809 -1.0237
 1173TIP3   OH225153   0.938   0.462   7.399  0.1334  0.1969  0.7319
 1173TIP3    H125154   0.869   0.396   7.387 -1.2429  1.9163 -1.5426
 1173TIP3    H225155   1.019   0.416   7.381 -0.8939 -0.6380 -2.4238
 1174TIP3   OH225156   1.858   0.315   8.269  0.3500 -0.4286 -0.0017
 1174TIP3    H125157   1.794   0.275   8.327  1.0214 -1.3349  0.1311
 1174TIP3    H225158   1.855   0.261   8.190  1.2538 -0.7500  0.1733
 1175TIP3   OH225159   4.741   0.206   1.697 -0.2147  0.3490  0.9131
 1175TIP3    H125160   4.822   0.177   1.740  0.1905 -0.8403 -0.5802
 1175TIP3    H225161   4.746   0.170   1.609 -0.9894  2.7687 -0.1934
 1176TIP3   OH225162   5.808   2.716   2.249 -0.7620  0.3537 -0.4605
 1176TIP3    H125163   5.713   2.719   2.239 -0.8811 -0.6064  0.2600
 1176TIP3    H225164   5.838   2.799   2.213 -1.5289 -0.8269 -4.3864
 1177TIP3   OH225165   3.123   0.084   8.103 -0.3087 -0.7070 -0.0417
 1177TIP3    H125166   3.044   0.035   8.129 -1.1540  1.3926  1.6782
 1177TIP3    H225167   3.176   0.087   8.182 -0.5450  1.5495  0.0860
 1178TIP3   OH225168   1.544   1.263   8.318  0.9788 -0.0099  0.5597
 1178TIP3    H125169   1.485   1.334   8.345  1.3824  0.0379  1.3243
 1178TIP3    H225170   1.487   1.203   8.269  0.9423  1.6178 -1.5394
 1179TIP3   OH225171   2.104   1.269   1.653 -0.1054  0.1474  0.3389
 1179TIP3    H125172   2.182   1.305   1.610  1.2071  0.4500  2.7960
 1179TIP3    H225173   2.125   1.176   1.665 -1.1419 -0.3022 -0.9921
 1180TIP3   OH225174   1.776   5.473   7.526 -0.3150  0.2507  0.2977
 1180TIP3    H125175   1.834   5.461   7.450 -0.3632  0.2406  0.2625
 1180TIP3    H225176   1.831   5.454   7.601 -0.2998  0.1412  0.2588
 1181TIP3   OH225177   4.200   5.893   0.102 -0.3337 -0.0317  0.4856
 1181TIP3    H125178   4.126   5.903   0.041 -0.5373 -1.1991  0.5168
 1181TIP3    H225179   4.176   5.818   0.156  0.2977  0.3889  1.3620
 1182TIP3   OH225180   5.835   1.055   7.367 -0.4484  0.2249 -0.3077
 1182TIP3    H125181   5.913   1.093   7.329 -0.2583  1.0920  0.9140
 1182TIP3    H225182   5.786   1.020   7.292  0.3938  0.9723 -1.2202
 1183TIP3   OH225183   4.529   4.157   6.983 -0.1617 -0.2909  0.1102
 1183TIP3    H125184   4.553   4.109   6.904 -1.0075  2.0681 -1.7234
 1183TIP3    H225185   4.483   4.235   6.950  2.8957  2.9173  2.6164
 1184TIP3   OH225186   3.191   1.386   8.346  0.1064  0.1762 -0.4272
 1184TIP3    H125187   3.222   1.326   8.279  0.8800 -1.3503  1.2133
 1184TIP3    H225188   3.268   1.437   8.371  0.8454 -1.8129  1.7959
 1185TIP3   OH225189   3.703   5.760   0.393  0.3328  0.5167  0.1408
 1185TIP3    H125190   3.769   5.810   0.441 -1.5956  3.1294  0.3118
 1185TIP3    H225191   3.751   5.686   0.355  3.2850  2.2123  0.3024
 1186TIP3   OH225192   1.974   1.899   7.802 -0.4794 -0.4633  0.3317
 1186TIP3    H125193   1.893   1.941   7.832 -0.3241 -0.7936  1.2562
 1186TIP3    H225194   2.034   1.910   7.876  0.8003  1.0425 -0.8629
 1187TIP3   OH225195   5.517   6.131   1.486  0.4824  0.0261 -0.2095
 1187TIP3    H125196   5.424   6.121   1.506  0.4477  1.0003  0.1669
 1187TIP3    H225197   5.548   6.042   1.469  0.2661 -0.7760  3.0316
 1188TIP3   OH225198   3.511   1.246   7.052 -0.2206 -1.0677  0.7046
 1188TIP3    H125199   3.479   1.156   7.064  1.4184 -1.9947 -1.4246
 1188TIP3    H225200   3.509   1.260   6.958 -1.5279  1.6211  1.0399
 1189TIP3   OH225201   1.224   4.275   8.471 -0.6216  0.2933  0.3422
 1189TIP3    H125202   1.257   4.335   8.404 -0.6484 -0.8651 -0.7342
 1189TIP3    H225203   1.138   4.249   8.440 -1.8774  1.8867  2.2417
 1190TIP3   OH225204   3.997   1.724   0.171  0.0533  0.3080 -0.0653
 1190TIP3    H125205   4.003   1.671   0.092 -3.5036  0.5469 -0.6594
 1190TIP3    H225206   4.055   1.681   0.234 -1.1524 -3.1083 -1.1140
 1191TIP3   OH225207   3.833   1.282   1.365  0.1214  0.1759 -0.1789
 1191TIP3    H125208   3.737   1.284   1.367  0.1032  0.2580  3.0415
 1191TIP3    H225209   3.855   1.189   1.356 -0.3223 -0.0454  0.8652
 1192TIP3   OH225210   5.701   4.040   8.492 -0.7180  0.2991 -0.2384
 1192TIP3    H125211   5.636   3.999   8.550 -2.1338  0.5157 -1.6098
 1192TIP3    H225212   5.696   4.133   8.512 -1.8017  0.4763 -1.2297
 1193TIP3   OH225213   3.335   5.840   0.649  0.3057  0.0122 -0.6996
 1193TIP3    H125214   3.260   5.819   0.592 -0.1025  0.6730 -0.4243
 1193TIP3    H225215   3.402   5.873   0.589 -0.1170  0.6899 -0.8101
 1194TIP3   OH225216   3.218   4.741   7.644  0.3811  0.4275 -0.4144
 1194TIP3    H125217   3.202   4.682   7.570  2.6419 -0.9001  0.0585
 1194TIP3    H225218   3.131   4.766   7.673 -0.6320 -0.9836 -1.9896
 1195TIP3   OH225219   0.794   0.105   1.487 -0.0675 -0.8087  0.0254
 1195TIP3    H125220   0.798   0.168   1.414 -0.5862 -1.9989 -1.0604
 1195TIP3    H225221   0.871   0.049   1.474  1.0696  0.2604  1.6693
 1196TIP3   OH225222   1.282   0.847   1.438 -0.3090 -0.5373  0.1292
 1196TIP3    H125223   1.271   0.828   1.531  1.9284 -0.5193  0.4574
 1196TIP3    H225224   1.376   0.860   1.427 -0.5726 -0.0200 -2.0529
 1197TIP3   OH225225   0.425   2.335   0.012 -0.0260 -0.4675 -0.3724
 1197TIP3    H125226   0.497   2.372  -0.040  1.4243 -0.2528  1.6845
 1197TIP3    H225227   0.349   2.338  -0.047  1.4198  0.1670 -2.3005
 1198TIP3   OH225228   3.219   0.057   0.787  0.0277 -0.2179 -0.2252
 1198TIP3    H125229   3.303   0.016   0.810  1.0279  2.4289  1.3240
 1198TIP3    H225230   3.227   0.147   0.821 -3.0866  0.4067 -0.9087
 1199TIP3   OH225231   0.903   1.367   6.865 -0.0164 -0.1895  0.3877
 1199TIP3    H125232   0.978   1.405   6.818  0.3129 -1.4156 -0.1016
 1199TIP3    H225233   0.863   1.308   6.802 -0.0231 -1.2973  1.3970
 1200TIP3   OH225234   6.331   4.212   6.418  0.2112  0.3402  0.0868
 1200TIP3    H125235   6.390   4.157   6.366 -1.8767  0.5116 -2.6514
 1200TIP3    H225236   6.331   4.297   6.373 -0.3063  1.1139  1.4728
 1201TIP3   OH225237   0.653   0.741   0.915  0.3336 -0.0119 -0.0578
 1201TIP3    H125238   0.560   0.735   0.932  0.5502 -1.1335  0.8563
 1201TIP3    H225239   0.660   0.799   0.838 -1.1448 -0.5283 -0.6138
 1202TIP3   OH225240   2.330   2.088   1.358  0.0257  0.3830  0.3824
 1202TIP3    H125241   2.246   2.134   1.367 -0.1781 -0.1881  1.6983
 1202TIP3    H225242   2.377   2.108   1.439  0.6591 -0.3013  0.1931
 1203TIP3   OH225243   3.010   0.598   6.862  0.3070  0.0570 -0.0604
 1203TIP3    H125244   3.039   0.675   6.911 -0.0559  0.6385 -0.7420
 1203TIP3    H225245   2.931   0.627   6.816  0.7275 -0.4286 -1.1129
 1204TIP3   OH225246   6.146   0.398   7.859  0.0438  0.1754  0.5521
 1204TIP3    H125247   6.143   0.490   7.885  0.3776  1.0166 -2.0847
 1204TIP3    H225248   6.109   0.397   7.771 -0.1677 -2.2797  0.5895
 1205TIP3   OH225249   1.227   0.376   1.371  0.2191 -0.3002  0.0079
 1205TIP3    H125250   1.206   0.383   1.464  1.1223  0.4893  0.1752
 1205TIP3    H225251   1.241   0.283   1.357 -2.2631 -0.7528  0.0937
 1206TIP3   OH225252   5.661   6.760   8.131  0.3013  0.4964  0.4069
 1206TIP3    H125253   5.589   6.815   8.099 -1.1919 -0.6994  1.5641
 1206TIP3    H225254   5.703   6.812   8.199  1.2638  1.6260 -0.9766
 1207TIP3   OH225255   3.508   1.368   0.635  0.4690 -0.2463 -0.5748
 1207TIP3    H125256   3.569   1.428   0.592  0.5491  0.5219  0.5659
 1207TIP3    H225257   3.487   1.303   0.568  0.4509  0.9975 -1.8134
 1208TIP3   OH225258   3.404   3.270   8.295 -1.0150  0.0049  0.1259
 1208TIP3    H125259   3.483   3.218   8.279 -0.5164  0.4396  1.1117
 1208TIP3    H225260   3.368   3.286   8.207 -0.4305 -0.8273 -0.2861
 1209TIP3   OH225261   3.970   4.293   1.309 -0.0036  0.0421 -0.0949
 1209TIP3    H125262   4.050   4.317   1.262  0.3007 -0.0650  0.3618
 1209TIP3    H225263   3.906   4.275   1.240  0.4573 -0.1960 -0.4665
 1210TIP3   OH225264   3.336   4.408   7.027 -0.5610 -0.1363  0.1644
 1210TIP3    H125265   3.345   4.442   7.116 -1.8329  1.5621 -0.2958
 1210TIP3    H225266   3.258   4.352   7.031 -0.6409 -0.0286  0.1109
 1211TIP3   OH225267   0.215   2.455   0.915 -0.1834 -0.3750  0.6264
 1211TIP3    H125268   0.262   2.538   0.906 -0.8208  0.0703  1.2886
 1211TIP3    H225269   0.204   2.444   1.010  1.0581 -1.8894  0.6370
 1212TIP3   OH225270   0.952   5.494   1.314 -0.1846 -0.2572  0.1772
 1212TIP3    H125271   1.028   5.531   1.268 -0.6547 -0.4900 -0.8204
 1212TIP3    H225272   0.930   5.416   1.263 -0.8478 -0.4100  0.6968
 1213TIP3   OH225273   6.249   1.978   7.496 -0.2759 -0.6322  0.3179
 1213TIP3    H125274   6.235   2.040   7.425  0.3460 -1.1806 -0.2957
 1213TIP3    H225275   6.187   1.907   7.480 -1.3122  0.0214  1.2768
 1214TIP3   OH225276   2.046   0.373   1.293 -0.8434  0.2666 -0.0704
 1214TIP3    H125277   2.071   0.336   1.377  0.7065  1.7212  0.1757
 1214TIP3    H225278   1.957   0.405   1.305 -0.4065  1.0657  1.2734
 1215TIP3   OH225279   2.468   1.277   1.183  0.2028 -0.6999  0.0439
 1215TIP3    H125280   2.491   1.285   1.090 -1.1362 -0.5723 -0.2920
 1215TIP3    H225281   2.483   1.185   1.203  2.1681 -0.3816  0.1829
 1216TIP3   OH225282   5.604   1.587   1.527 -0.5871 -0.0590  0.3042
 1216TIP3    H125283   5.653   1.622   1.452 -3.5180  4.3766  0.0608
 1216TIP3    H225284   5.654   1.617   1.603 -0.5221  0.3527  0.1024
 1217TIP3   OH225285   6.381   4.353   2.331  0.4459 -0.3003 -0.0027
 1217TIP3    H125286   6.365   4.447   2.335  1.3550 -0.1371  0.0653
 1217TIP3    H225287   6.296   4.315   2.309 -0.2593  0.4144  1.3558
 1218TIP3   OH225288   2.674   1.296   7.222  0.5546 -0.1375  0.0220
 1218TIP3    H125289   2.742   1.265   7.163  0.9977 -0.0206  0.4611
 1218TIP3    H225290   2.708   1.279   7.310 -0.0654 -0.2537  0.2479
 1219TIP3   OH225291   0.463   0.596   7.797  0.2775 -0.3556 -0.2659
 1219TIP3    H125292   0.541   0.569   7.749  0.2997  1.0296 -1.0709
 1219TIP3    H225293   0.480   0.686   7.823  0.0952 -0.9417  2.0679
 1220TIP3   OH225294   6.757   6.734   1.183  0.4109  0.4014 -0.1190
 1220TIP3    H125295   6.710   6.656   1.152  0.8133  0.5590 -1.1946
 1220TIP3    H225296   6.727   6.804   1.126  0.1236  1.0274  0.7890
 1221TIP3   OH225297   6.031   0.471   8.177  0.0797 -0.2285  0.3801
 1221TIP3    H125298   6.082   0.436   8.104 -0.0902  0.1397  0.0869
 1221TIP3    H225299   5.972   0.400   8.201 -2.1338  0.6789 -1.9218
 1222TIP3   OH225300   1.915   1.073   0.101 -0.2489 -0.6501  0.0813
 1222TIP3    H125301   1.828   1.114   0.107 -0.3825 -0.9771  0.5126
 1222TIP3    H225302   1.942   1.086   0.010  0.2447  1.4303  0.4764
 1223TIP3   OH225303   1.425   4.398   8.064  0.1837  0.3315  0.4575
 1223TIP3    H125304   1.355   4.404   8.129 -1.1645  0.5219 -0.9608
 1223TIP3    H225305   1.469   4.483   8.069  1.2620 -0.2894  2.3387
 1224TIP3   OH225306   6.383   2.513   1.044 -0.4193 -0.6736 -0.1242
 1224TIP3    H125307   6.362   2.584   1.105 -0.7609 -2.0026  1.3517
 1224TIP3    H225308   6.463   2.542   1.001 -1.6682  1.5708 -1.1523
 1225TIP3   OH225309   4.926   4.463   0.349 -0.1351 -0.2067  0.1158
 1225TIP3    H125310   4.878   4.466   0.431 -2.2518 -0.4168 -1.0451
 1225TIP3    H225311   4.903   4.545   0.305 -0.1230 -0.7002 -0.8347
 1226TIP3   OH225312   2.746   1.250   1.485 -0.5479  0.2772  0.8265
 1226TIP3    H125313   2.697   1.301   1.420  0.4215 -0.6480 -0.7054
 1226TIP3    H225314   2.838   1.266   1.463 -0.1870  0.1124  2.1434
 1227TIP3   OH225315   5.417   0.888   2.022 -0.0932  0.0634  0.2781
 1227TIP3    H125316   5.367   0.893   1.940 -0.2339  0.0748  0.3636
 1227TIP3    H225317   5.353   0.861   2.088 -0.0170  0.2162  0.4161
 1228TIP3   OH225318   6.225   5.084   7.528  0.0430  0.0756  0.0666
 1228TIP3    H125319   6.298   5.026   7.545 -0.0207  0.0343  0.2065
 1228TIP3    H225320   6.231   5.150   7.597 -1.4396 -1.2705  1.5803
 1229TIP3   OH225321   1.830   3.329   7.248 -0.3611 -0.8782  0.5437
 1229TIP3    H125322   1.850   3.299   7.337 -3.0957  1.6738  2.2153
 1229TIP3    H225323   1.778   3.258   7.210  1.5311 -2.3627  0.5669
 1230TIP3   OH225324   6.770   3.813   6.900 -0.1794 -0.5891 -0.1431
 1230TIP3    H125325   6.730   3.818   6.813  0.9130  0.5664 -0.6174
 1230TIP3    H225326   6.860   3.787   6.883  0.0286 -0.4108  0.6492
 1231TIP3   OH225327   5.422   5.737   8.060  0.4806  0.2780  0.1205
 1231TIP3    H125328   5.446   5.816   8.012 -2.1679 -0.1307 -2.1100
 1231TIP3    H225329   5.382   5.770   8.141  2.6543  1.0356  0.9725
 1232TIP3   OH225330   6.450   3.632   7.380 -0.2058  0.5000  0.8139
 1232TIP3    H125331   6.454   3.544   7.344 -1.0855  1.1601 -1.0313
 1232TIP3    H225332   6.541   3.663   7.380 -0.0751  0.1358 -0.0036
 1233TIP3   OH225333   4.516   5.050   8.618  0.2973  0.8539 -0.2443
 1233TIP3    H125334   4.595   4.997   8.609 -0.4317 -0.1607 -0.8517
 1233TIP3    H225335   4.542   5.138   8.591  1.2151  0.5254 -0.4426
 1234TIP3   OH225336   2.556   0.799   8.487 -0.6574 -0.1092  0.4300
 1234TIP3    H125337   2.642   0.782   8.525  1.1885  2.5040 -2.1120
 1234TIP3    H225338   2.543   0.729   8.424  0.5584  0.4734 -0.5047
 1235TIP3   OH225339   5.268   4.266   1.108 -0.4058  0.1023  0.4364
 1235TIP3    H125340   5.338   4.279   1.043  0.9803 -1.7209  1.4872
 1235TIP3    H225341   5.206   4.207   1.065  0.1287 -0.5101  0.5018
 1236TIP3   OH225342   2.377   6.235   1.874 -0.8471  0.1258 -0.5460
 1236TIP3    H125343   2.432   6.182   1.816 -0.1933 -0.3430  0.4717
 1236TIP3    H225344   2.332   6.170   1.928 -0.7782  0.5809  0.0588
 1237TIP3   OH225345   6.197   5.803   8.160 -0.7261 -0.0140  0.1857
 1237TIP3    H125346   6.141   5.855   8.103 -1.5123 -1.4279 -0.3826
 1237TIP3    H225347   6.139   5.772   8.229  0.2723  1.9582  2.0491
 1238TIP3   OH225348   2.119   2.300   8.464  0.0390 -0.3523 -0.1222
 1238TIP3    H125349   2.042   2.243   8.467  0.6652 -1.2066  0.1156
 1238TIP3    H225350   2.113   2.351   8.545 -0.3833 -0.2595 -0.2060
 1239TIP3   OH225351   1.610   4.591   0.934  0.3864  0.2054 -0.5588
 1239TIP3    H125352   1.657   4.648   0.873 -0.2045  1.3481  0.0130
 1239TIP3    H225353   1.558   4.651   0.987 -1.0002 -0.9350 -0.5553
 1240TIP3   OH225354   0.543   2.371   7.089 -0.0714  0.6845  0.7379
 1240TIP3    H125355   0.520   2.309   7.020  0.0977  2.3351 -0.8723
 1240TIP3    H225356   0.460   2.415   7.109 -0.2053 -0.0491  1.9315
 1241TIP3   OH225357   5.105   2.026   7.844 -0.6383 -0.6555 -0.2327
 1241TIP3    H125358   5.098   1.984   7.758 -1.3433 -1.2400  0.0977
 1241TIP3    H225359   5.056   2.108   7.834 -1.4407 -1.1162 -0.1553
 1242TIP3   OH225360   1.972   2.417   0.674  0.0844 -0.0063 -0.8022
 1242TIP3    H125361   2.002   2.345   0.729 -0.5783 -0.9547 -1.6373
 1242TIP3    H225362   1.936   2.481   0.735  1.0245 -0.2068 -0.0180
 1243TIP3   OH225363   5.626   0.533   0.535  0.1562  0.0747  0.1797
 1243TIP3    H125364   5.622   0.451   0.583  0.9137 -0.3436 -0.4476
 1243TIP3    H225365   5.543   0.577   0.554  0.2632 -0.2774  1.4843
 1244TIP3   OH225366   2.518   0.157   8.146  0.1519 -0.1233 -0.5672
 1244TIP3    H125367   2.516   0.216   8.221  0.1723  0.0779 -0.7268
 1244TIP3    H225368   2.608   0.163   8.113 -0.1665  0.6374 -1.2924
 1245TIP3   OH225369   5.214   1.091   6.890 -1.1226  0.1282  0.6691
 1245TIP3    H125370   5.210   1.057   6.800  4.3056  0.5397 -0.0989
 1245TIP3    H225371   5.209   1.186   6.879 -0.5367  0.1746  0.7685
 1246TIP3   OH225372   3.051   2.179   1.202 -0.3236 -0.7577 -0.2149
 1246TIP3    H125373   3.004   2.204   1.281 -0.1398 -0.9741 -0.0342
 1246TIP3    H225374   2.995   2.208   1.130 -0.1530  0.1043 -0.0169
 1247TIP3   OH225375   0.720   3.352   1.490  0.1443 -0.3085 -0.2473
 1247TIP3    H125376   0.806   3.355   1.448  0.1125 -0.8599 -0.3581
 1247TIP3    H225377   0.658   3.351   1.418  0.1066 -1.8778 -0.2222
 1248TIP3   OH225378   5.372   5.287   7.574  0.0988  0.0972 -0.4265
 1248TIP3    H125379   5.291   5.338   7.575  0.5279  0.7896 -0.4853
 1248TIP3    H225380   5.350   5.206   7.621 -0.1014  1.1103  1.2823
 1249TIP3   OH225381   6.786   4.418   8.216  0.7205  0.1865 -0.3395
 1249TIP3    H125382   6.728   4.484   8.179 -0.4239 -1.3517 -1.3660
 1249TIP3    H225383   6.872   4.437   8.178  0.2064  0.5103 -1.3503
 1250TIP3   OH225384   4.878   5.250   8.236 -0.2715 -0.5918 -0.2456
 1250TIP3    H125385   4.873   5.202   8.318 -1.6057  0.2567  0.2034
 1250TIP3    H225386   4.792   5.238   8.196 -1.2483  2.5785  0.5978
 1251TIP3   OH225387   3.100   0.371   8.056 -0.4861  0.1027  0.0215
 1251TIP3    H125388   3.117   0.278   8.041 -0.5425  0.3757 -2.1386
 1251TIP3    H225389   3.005   0.377   8.062 -0.4488 -0.0481  0.9067
 1252TIP3   OH225390   6.588   6.869   6.598 -0.7398 -0.1936  0.0821
 1252TIP3    H125391   6.677   6.874   6.633 -1.0591 -1.0297  1.0440
 1252TIP3    H225392   6.592   6.802   6.529 -0.5836 -0.0594 -0.0413
 1253TIP3   OH225393   4.623   3.756   7.993 -0.3742  0.7106 -0.1988
 1253TIP3    H125394   4.531   3.730   7.986 -0.0030 -0.2192 -2.6009
 1253TIP3    H225395   4.637   3.818   7.922  1.2795 -0.6978 -1.2098
 1254TIP3   OH225396   4.169   5.533   1.113  0.7912  0.0214  0.0443
 1254TIP3    H125397   4.153   5.587   1.035  1.7325  0.6271  0.2526
 1254TIP3    H225398   4.262   5.511   1.108  0.6452 -0.7501  0.5045
 1255TIP3   OH225399   1.352   6.788   0.252 -0.6664 -0.6777 -0.2014
 1255TIP3    H125400   1.325   6.826   0.168  1.4799  1.7575  0.0852
 1255TIP3    H225401   1.441   6.756   0.236 -0.0436  0.2361  1.2055
 1256TIP3   OH225402   0.203   5.391   6.439  0.3658  0.1109 -0.1404
 1256TIP3    H125403   0.164   5.318   6.390 -0.5630  1.9585 -2.3234
 1256TIP3    H225404   0.295   5.392   6.412 -0.1645  1.1933 -2.0717
 1257TIP3   OH225405   1.248   0.993   8.686  0.0875  0.0563  0.1742
 1257TIP3    H125406   1.333   0.962   8.654  0.1765  0.4543  0.0233
 1257TIP3    H225407   1.185   0.965   8.619  0.5280  2.7664 -1.5500
 1258TIP3   OH225408   5.141   1.809   8.483  0.3644  0.2756 -0.1380
 1258TIP3    H125409   5.153   1.902   8.502 -3.5357  0.6004  1.5878
 1258TIP3    H225410   5.108   1.807   8.393 -0.1013  0.6189  0.0249
 1259TIP3   OH225411   4.873   1.047   8.094  0.5282  0.1671  0.0693
 1259TIP3    H125412   4.789   1.035   8.139 -0.4254  0.7475 -1.4618
 1259TIP3    H225413   4.883   0.968   8.041  0.8477  0.2086  0.0658
 1260TIP3   OH225414   2.689   6.083   6.973  0.2379  0.4048  0.2285
 1260TIP3    H125415   2.751   6.031   6.923  0.8453  0.1429  1.2138
 1260TIP3    H225416   2.652   6.022   7.037  0.8663  1.1332  1.3180
 1261TIP3   OH225417   5.612   1.259   0.697 -0.7387  0.1948  0.1038
 1261TIP3    H125418   5.545   1.234   0.633  0.6162 -0.5815 -1.0801
 1261TIP3    H225419   5.603   1.354   0.706 -1.4315  0.2174 -0.6922
 1262TIP3   OH225420   1.183   2.057   2.445  0.3862 -0.1810 -1.0411
 1262TIP3    H125421   1.213   1.967   2.453 -0.7372 -0.4104  1.6248
 1262TIP3    H225422   1.106   2.052   2.388 -0.1043 -1.0419 -0.3185
 1263TIP3   OH225423   6.048   6.683   1.767  0.1151  0.0564 -0.1754
 1263TIP3    H125424   6.111   6.683   1.839  2.1211  1.3829 -1.8250
 1263TIP3    H225425   6.075   6.610   1.712 -2.0503 -1.6114  0.8489
 1264TIP3   OH225426   6.400   5.772   7.304 -0.2928 -0.7313 -0.0682
 1264TIP3    H125427   6.406   5.702   7.240  1.4682 -1.0029  0.3225
 1264TIP3    H225428   6.492   5.795   7.323 -0.8100  1.3109  0.2088
 1265TIP3   OH225429   0.871   6.412   0.049 -0.1553 -0.5843  0.3179
 1265TIP3    H125430   0.883   6.377   0.137  0.1130  0.4229  0.6951
 1265TIP3    H225431   0.924   6.492   0.048 -1.2627  0.1596 -0.3052
 1266TIP3   OH225432   4.430   0.338   0.002  0.0074 -0.0275  0.0820
 1266TIP3    H125433   4.520   0.309   0.017 -0.1889 -0.3075  0.7626
 1266TIP3    H225434   4.378   0.283   0.060 -0.7183 -0.6191 -1.0915
 1267TIP3   OH225435   5.596   0.272   7.035  0.6926  0.4675  0.2673
 1267TIP3    H125436   5.552   0.215   6.973  0.4419  0.5948  0.3285
 1267TIP3    H225437   5.583   0.231   7.120  0.4465  0.6558  0.3209
 1268TIP3   OH225438   6.804   5.317   0.816 -0.0901  0.8044  0.1797
 1268TIP3    H125439   6.729   5.311   0.758  1.2491 -2.6100 -1.4285
 1268TIP3    H225440   6.766   5.325   0.904 -2.8535 -5.7692  0.1141
 1269TIP3   OH225441   5.685   1.945   6.210  0.1058  0.4101  0.4105
 1269TIP3    H125442   5.721   1.997   6.283  0.8778 -0.1349  0.4269
 1269TIP3    H225443   5.642   1.871   6.252  1.7661 -0.6674  0.2919
 1270TIP3   OH225444   1.808   4.573   5.963  0.0376  0.2325  0.1924
 1270TIP3    H125445   1.819   4.553   6.056  0.5919 -0.2175  0.0316
 1270TIP3    H225446   1.768   4.660   5.962  0.0550  0.2498  0.8509
 1271TIP3   OH225447   3.241   3.542   0.247  0.1821 -0.4431  0.5544
 1271TIP3    H125448   3.156   3.553   0.205  0.4561  1.7869  0.5048
 1271TIP3    H225449   3.293   3.493   0.184  0.3726  2.2246 -1.5097
 1272TIP3   OH225450   0.656   2.757   0.109 -0.0038  0.1077 -0.3509
 1272TIP3    H125451   0.564   2.748   0.086  0.0560  0.3591 -0.6981
 1272TIP3    H225452   0.680   2.672   0.146 -0.2152 -0.1621 -0.8286
 1273TIP3   OH225453   2.740   5.960   6.153  0.6627 -0.0649  0.4093
 1273TIP3    H125454   2.791   5.879   6.148 -1.0508 -1.2640  1.1012
 1273TIP3    H225455   2.683   5.957   6.076 -0.7984 -0.5657  1.4601
 1274TIP3   OH225456   5.138   3.863   0.775  0.3025  0.0419  0.0697
 1274TIP3    H125457   5.129   3.778   0.733 -1.2899 -0.1484  0.6941
 1274TIP3    H225458   5.146   3.925   0.703  1.3383 -0.5979 -0.3952
 1275TIP3   OH225459   4.431   2.939   0.086  0.3254 -0.0939  0.4397
 1275TIP3    H125460   4.448   2.856   0.130 -0.7182 -0.8972 -0.6161
 1275TIP3    H225461   4.519   2.973   0.065  0.7478 -1.2598  0.2773
 1276TIP3   OH225462   2.912   5.909   1.222 -0.2231  0.6775 -0.3467
 1276TIP3    H125463   2.926   5.920   1.316  0.6878  0.4205 -0.4414
 1276TIP3    H225464   2.957   5.827   1.200 -2.2586 -0.4450 -0.6231
 1277TIP3   OH225465   2.647   2.594   6.963  0.5287  0.6561 -0.1401
 1277TIP3    H125466   2.653   2.513   6.913  1.0294 -0.5190  1.7089
 1277TIP3    H225467   2.735   2.607   7.000  0.0280  1.0949  0.9592
 1278TIP3   OH225468   2.625   2.689   7.689 -0.8908 -0.2714  0.1822
 1278TIP3    H125469   2.594   2.642   7.611 -0.0273 -2.4486  1.0645
 1278TIP3    H225470   2.709   2.726   7.662 -1.6498  0.9545 -0.5738
 1279TIP3   OH225471   1.193   0.880   6.234  0.1075 -0.4053  0.3512
 1279TIP3    H125472   1.179   0.803   6.179 -0.1230 -1.5923  1.9783
 1279TIP3    H225473   1.289   0.887   6.241  0.2701 -2.9678  3.2019
 1280TIP3   OH225474   5.095   0.625   0.554 -0.1251  0.2286  0.3000
 1280TIP3    H125475   5.062   0.539   0.578  0.2429  0.5064  1.9402
 1280TIP3    H225476   5.084   0.630   0.459 -2.6073 -0.5773  0.4868
 1281TIP3   OH225477   5.989   1.819   8.634  0.2212 -0.2408  0.2937
 1281TIP3    H125478   5.935   1.854   8.563 -0.3559 -0.1220  0.7812
 1281TIP3    H225479   5.964   1.871   8.711 -0.1569 -1.2585  0.8771
 1282TIP3   OH225480   1.771   6.114   6.783 -0.0877  0.8054  0.0769
 1282TIP3    H125481   1.676   6.101   6.786 -0.3405  1.8940 -1.7170
 1282TIP3    H225482   1.802   6.053   6.716  0.2241  1.5874 -0.5110
 1283TIP3   OH225483   5.459   6.197   8.466  0.7897 -0.7679  0.4015
 1283TIP3    H125484   5.373   6.156   8.481 -0.2774  1.3145  0.3994
 1283TIP3    H225485   5.455   6.226   8.375  1.0912  0.1885  0.6819
 1284TIP3   OH225486   6.008   6.362   8.666  0.5540  0.3040  0.3691
 1284TIP3    H125487   5.928   6.329   8.625  2.6679  0.7717 -5.0260
 1284TIP3    H225488   6.050   6.285   8.704  0.5528 -1.4923 -2.8572
 1285TIP3   OH225489   3.649   5.083   8.488 -0.3047  0.1563 -0.1821
 1285TIP3    H125490   3.639   5.170   8.525 -0.1161  0.0120  0.2181
 1285TIP3    H225491   3.732   5.086   8.441  0.4894 -0.2383  1.1169
 1286TIP3   OH225492   2.845   0.317   8.415 -0.2497 -0.1347  0.3118
 1286TIP3    H125493   2.865   0.403   8.451  0.6622 -0.6892  1.1910
 1286TIP3    H225494   2.929   0.271   8.416 -0.2360 -0.3165 -2.1977
 1287TIP3   OH225495   0.241   5.633   7.205 -0.7746  0.3544 -0.0211
 1287TIP3    H125496   0.289   5.715   7.215 -1.4258  0.4529  3.7287
 1287TIP3    H225497   0.294   5.568   7.251 -2.0527 -0.4875  0.3334
 1288TIP3   OH225498   4.518   3.443   7.424 -0.3166  0.1111 -0.2198
 1288TIP3    H125499   4.559   3.422   7.508 -0.3376  0.9882  0.0111
 1288TIP3    H225500   4.583   3.416   7.359 -1.1543 -2.6269 -0.0539
 1289TIP3   OH225501   2.492   4.996   6.399  0.1329  0.4465 -0.0149
 1289TIP3    H125502   2.494   4.961   6.310  1.0404 -0.8421  0.4774
 1289TIP3    H225503   2.570   5.051   6.404  0.8804 -0.6103  0.3854
 1290TIP3   OH225504   6.124   1.550   0.194 -0.0152 -0.0912 -0.4011
 1290TIP3    H125505   6.220   1.556   0.195  0.1061 -1.4096  1.6226
 1290TIP3    H225506   6.105   1.496   0.117  0.8973 -0.1353 -0.6154
 1291TIP3   OH225507   1.842   4.535   1.467 -0.4103  0.7002 -0.0914
 1291TIP3    H125508   1.935   4.520   1.450 -0.9968 -1.3261 -2.1035
 1291TIP3    H225509   1.833   4.630   1.472  1.3748  1.1566 -2.9434
 1292TIP3   OH225510   0.230   4.326   1.699 -0.3023 -0.4388  0.7652
 1292TIP3    H125511   0.156   4.275   1.732 -1.6890  0.0384 -1.3983
 1292TIP3    H225512   0.202   4.354   1.612  1.4712  1.8273  0.8529
 1293TIP3   OH225513   4.353   0.949   7.229 -0.3649 -0.3177  0.5247
 1293TIP3    H125514   4.334   1.039   7.202 -0.4219  0.2061  2.1781
 1293TIP3    H225515   4.308   0.894   7.165  1.7685  0.7405 -2.0554
 1294TIP3   OH225516   1.869   0.866   6.964 -0.4722  0.1051 -0.1347
 1294TIP3    H125517   1.954   0.897   6.995  0.2717 -2.2357  0.4088
 1294TIP3    H225518   1.890   0.799   6.899 -1.9592  0.6996 -1.2745
 1295TIP3   OH225519   4.538   1.150   0.224 -0.0268 -0.0759  0.1573
 1295TIP3    H125520   4.531   1.197   0.141 -0.5357  2.0065  1.3108
 1295TIP3    H225521   4.453   1.162   0.266  0.7116  0.2489  1.6309
 1296TIP3   OH225522   3.088   3.203   1.670  0.6059 -0.3484 -0.3630
 1296TIP3    H125523   2.997   3.186   1.695  0.7877  1.6465  2.1230
 1296TIP3    H225524   3.140   3.153   1.733  1.1472  0.7458  0.1080
 1297TIP3   OH225525   6.294   4.149   8.455 -0.1923  0.1454  0.3054
 1297TIP3    H125526   6.279   4.236   8.492  1.2454  1.2048 -1.4717
 1297TIP3    H225527   6.267   4.157   8.363 -0.9399 -1.5746  0.3430
 1298TIP3   OH225528   6.886   1.855   8.402 -0.4023 -0.0404 -0.4210
 1298TIP3    H125529   6.966   1.907   8.409 -1.8919  2.4069 -0.5744
 1298TIP3    H225530   6.880   1.832   8.309  0.3550 -0.6463 -0.3250
 1299TIP3   OH225531   4.743   1.041   8.571 -0.0367 -0.7277  0.4528
 1299TIP3    H125532   4.699   0.993   8.642 -0.1320 -2.4750 -0.7204
 1299TIP3    H225533   4.671   1.068   8.513 -0.4496  3.9904  2.6766
 1300TIP3   OH225534   5.576   4.456   8.316  0.4114 -0.4455 -0.0290
 1300TIP3    H125535   5.491   4.414   8.331 -0.4159  1.3624  0.7311
 1300TIP3    H225536   5.634   4.385   8.291 -0.7872 -2.0906  1.6196
 1301TIP3   OH225537   2.056   6.115   0.427 -0.3858  0.3355 -0.2865
 1301TIP3    H125538   2.123   6.109   0.359 -0.0017 -0.7848  0.1677
 1301TIP3    H225539   2.055   6.028   0.468 -1.8139  0.4582  0.0023
 1302TIP3   OH225540   3.689   0.102   8.041  0.3927 -0.4485  0.6230
 1302TIP3    H125541   3.630   0.146   7.979  0.6619 -0.6401  0.2227
 1302TIP3    H225542   3.777   0.127   8.013  0.5041  1.0764  2.1486
 1303TIP3   OH225543   5.064   5.328   1.140  0.2391  0.0077 -0.1434
 1303TIP3    H125544   5.074   5.420   1.163  1.0400 -0.4841  1.6060
 1303TIP3    H225545   5.055   5.282   1.224 -1.2942 -1.4057 -1.0037
 1304TIP3   OH225546   4.548   3.327   6.612 -0.2103  0.0238  0.5054
 1304TIP3    H125547   4.470   3.332   6.667 -0.3578 -1.0536  0.4245
 1304TIP3    H225548   4.610   3.275   6.663 -0.3402 -0.9640 -0.3044
 1305TIP3   OH225549   3.693   2.944   7.603  0.0566 -0.2058  0.1543
 1305TIP3    H125550   3.678   3.026   7.651  0.3575 -0.2396  0.3097
 1305TIP3    H225551   3.610   2.897   7.609 -1.0407  1.2794 -2.2988
 1306TIP3   OH225552   0.928   6.175   2.083 -0.4679 -1.1706  0.2312
 1306TIP3    H125553   0.998   6.241   2.082 -0.3904 -1.1060  2.8446
 1306TIP3    H225554   0.963   6.103   2.031  0.7356 -0.3727 -0.1159
 1307TIP3   OH225555   3.027   4.699   7.985 -0.4748 -0.2304  0.3792
 1307TIP3    H125556   2.938   4.729   8.003 -0.4727 -0.3004  0.5030
 1307TIP3    H225557   3.082   4.775   8.001 -0.3286 -0.6221  1.9088
 1308TIP3   OH225558   1.040   2.708   7.552 -0.0559 -0.1368  0.0912
 1308TIP3    H125559   1.109   2.722   7.617 -0.8699  0.2511  0.8932
 1308TIP3    H225560   1.086   2.673   7.476  1.0960  0.5958  0.4256
 1309TIP3   OH225561   4.135   5.604   6.300 -0.4270  0.0075  0.5565
 1309TIP3    H125562   4.081   5.525   6.301  0.0119 -0.3612 -1.3397
 1309TIP3    H225563   4.224   5.573   6.317 -0.3505  0.1809  0.4792
 1310TIP3   OH225564   5.312   2.110   0.117 -0.1529 -0.0121 -0.2329
 1310TIP3    H125565   5.405   2.123   0.133  0.0753 -0.0990 -1.4352
 1310TIP3    H225566   5.269   2.173   0.175  0.6424 -0.0203  0.3776
 1311TIP3   OH225567   0.397   6.534   7.690 -0.0220 -0.6028 -0.4696
 1311TIP3    H125568   0.306   6.509   7.700  0.2057 -3.4492 -3.7258
 1311TIP3    H225569   0.445   6.474   7.747 -0.0529 -0.4973 -0.3316
 1312TIP3   OH225570   3.043   5.294   1.644  0.1837  0.2981  0.2843
 1312TIP3    H125571   3.089   5.253   1.717  1.1803 -1.2536 -1.1261
 1312TIP3    H225572   3.043   5.227   1.576 -2.7506  0.8403 -0.3760
 1313TIP3   OH225573   0.269   4.051   0.714 -0.0460 -0.3883 -0.1753
 1313TIP3    H125574   0.359   4.084   0.706 -0.4455  0.2381 -2.8930
 1313TIP3    H225575   0.279   3.967   0.760  1.7338  0.3571  0.9169
 1314TIP3   OH225576   4.166   5.908   8.224  0.4100 -0.1782 -0.1333
 1314TIP3    H125577   4.187   5.915   8.131  0.5638 -0.5141 -0.1250
 1314TIP3    H225578   4.098   5.974   8.238 -0.5605 -1.0087 -0.7650
 1315TIP3   OH225579   4.931   6.700   0.606  0.6650 -0.8829  0.4276
 1315TIP3    H125580   4.936   6.611   0.571  1.3014 -1.5513  2.0796
 1315TIP3    H225581   4.868   6.745   0.550 -2.1384 -3.2826  1.3657
 1316TIP3   OH225582   1.575   4.718   5.855  0.1951  0.3802  0.4536
 1316TIP3    H125583   1.574   4.645   5.794 -1.1460 -0.6156  1.5868
 1316TIP3    H225584   1.645   4.776   5.824  0.4162 -0.7396 -1.2123
 1317TIP3   OH225585   0.246   6.172   0.867  0.2126 -0.2655 -0.3274
 1317TIP3    H125586   0.275   6.116   0.796 -0.4389  2.1873 -2.6918
 1317TIP3    H225587   0.150   6.173   0.860  0.0746 -0.6055  1.1282
 1318TIP3   OH225588   0.849   3.395   0.114 -0.4432  0.9604 -0.2816
 1318TIP3    H125589   0.866   3.404   0.208 -1.1050  0.6191 -0.1269
 1318TIP3    H225590   0.936   3.397   0.074 -0.1283  0.6748  0.3713
 1319TIP3   OH225591   0.502   2.533   8.178 -0.2534  0.1026 -0.5473
 1319TIP3    H125592   0.559   2.608   8.195 -0.3111 -0.1585  0.9021
 1319TIP3    H225593   0.511   2.517   8.084  1.8307  0.2532 -0.4187
 1320TIP3   OH225594   6.405   3.248   8.088 -0.3689  0.4243 -0.1012
 1320TIP3    H125595   6.371   3.196   8.161 -1.4919  0.6602 -0.4375
 1320TIP3    H225596   6.419   3.335   8.125  2.2628 -0.2503  0.6668
 1321TIP3   OH225597   1.882   5.366   6.954 -0.0919 -0.0049 -0.5193
 1321TIP3    H125598   1.819   5.304   6.991 -0.8392  0.8799 -0.2733
 1321TIP3    H225599   1.831   5.446   6.941  1.5689  1.6912  2.3912
 1322TIP3   OH225600   5.762   5.010   1.843  0.3954 -0.0544 -0.6496
 1322TIP3    H125601   5.763   5.030   1.750 -1.0488  1.9985 -0.2902
 1322TIP3    H225602   5.854   5.019   1.870  0.5973  0.8975 -1.5768
 1323TIP3   OH225603   0.102   2.363   0.549  0.0705  0.0033  0.3900
 1323TIP3    H125604   0.196   2.344   0.555  0.3705  1.3513  0.3102
 1323TIP3    H225605   0.061   2.277   0.540  1.3764 -0.5653 -0.5097
 1324TIP3   OH225606   1.376   1.940   7.174  0.0246  0.2799  0.1985
 1324TIP3    H125607   1.454   1.890   7.198  0.0090 -0.8759 -1.9288
 1324TIP3    H225608   1.382   1.950   7.079 -2.7414 -0.4255 -0.1289
 1325TIP3   OH225609   5.612   4.784   6.733 -0.0242 -0.2098  1.0435
 1325TIP3    H125610   5.622   4.811   6.642  0.7856 -1.8341  0.6132
 1325TIP3    H225611   5.517   4.783   6.748 -0.1170  2.1703  0.9269
 1326TIP3   OH225612   2.124   3.558   7.457  0.1782  0.6027  0.4243
 1326TIP3    H125613   2.037   3.552   7.496  0.3715 -0.3720  0.7435
 1326TIP3    H225614   2.184   3.545   7.530  0.5449 -2.0865 -0.2370
 1327TIP3   OH225615   2.283   1.963   0.473 -0.0268  0.1616  0.3337
 1327TIP3    H125616   2.222   1.901   0.433  0.5629 -1.5592  1.9521
 1327TIP3    H225617   2.228   2.021   0.524 -0.5148  0.4042 -0.4463
 1328TIP3   OH225618   2.695   1.964   2.167 -0.1688 -0.5527  0.3020
 1328TIP3    H125619   2.708   2.057   2.187 -0.2899 -0.3772 -0.4139
 1328TIP3    H225620   2.663   1.926   2.249 -1.4203  0.3145  0.2369
 1329TIP3   OH225621   6.510   6.772   7.018  0.2385  0.4611  0.0411
 1329TIP3    H125622   6.416   6.786   7.023  0.1518  0.2908 -1.0153
 1329TIP3    H225623   6.548   6.859   7.014  0.1749  0.5483  1.0489
 1330TIP3   OH225624   3.811   3.463   6.308 -0.4839  0.5519 -0.1461
 1330TIP3    H125625   3.864   3.491   6.383 -0.2717 -0.4666  0.0915
 1330TIP3    H225626   3.859   3.389   6.270 -1.0387  0.4909 -0.7602
 1331TIP3   OH225627   1.815   2.120   0.400  0.3483  0.0768  0.4908
 1331TIP3    H125628   1.780   2.056   0.461  0.3213  0.2431  0.6512
 1331TIP3    H225629   1.740   2.148   0.348 -0.0899  1.5713  1.8537
 1332TIP3   OH225630   6.373   3.952   8.700  0.4493  0.2558 -0.0530
 1332TIP3    H125631   6.280   3.931   8.705  0.6665 -0.6833  0.3469
 1332TIP3    H225632   6.378   4.026   8.640 -0.4415 -0.4981 -1.1025
 1333TIP3   OH225633   3.771   2.131   0.975 -0.2670  0.5972 -0.3786
 1333TIP3    H125634   3.759   2.141   0.881 -0.8729 -0.5321 -0.4323
 1333TIP3    H225635   3.693   2.171   1.014  0.1170  1.3207 -0.3270
 1334TIP3   OH225636   6.762   4.090   6.864  0.2904  0.0621 -0.2145
 1334TIP3    H125637   6.787   3.999   6.877  0.1025  0.0891  0.3621
 1334TIP3    H225638   6.785   4.133   6.946 -1.8929  0.0164  0.4926
 1335TIP3   OH225639   2.751   2.963   0.796  0.3484 -0.3451 -0.3110
 1335TIP3    H125640   2.670   2.979   0.846  0.9887  1.5789  0.1811
 1335TIP3    H225641   2.735   3.003   0.711  0.4545 -0.7909 -0.5442
 1336TIP3   OH225642   6.070   1.398   8.664 -0.5916 -0.1307  0.1403
 1336TIP3    H125643   6.096   1.350   8.585 -0.0279  0.0903  0.1820
 1336TIP3    H225644   6.014   1.468   8.633 -0.1169  0.1452 -0.1036
 1337TIP3   OH225645   4.615   1.405   6.837  0.3992 -0.4256 -0.1476
 1337TIP3    H125646   4.631   1.388   6.930 -1.1940  0.8417  0.4189
 1337TIP3    H225647   4.693   1.374   6.793  0.5684 -2.5092  1.4513
 1338TIP3   OH225648   4.520   4.699   6.513 -0.1254  0.4800 -0.3651
 1338TIP3    H125649   4.565   4.771   6.469  0.4247 -0.0839 -0.7476
 1338TIP3    H225650   4.490   4.643   6.442 -0.7750  0.4559 -0.0795
 1339TIP3   OH225651   2.765   2.330   0.075  0.8020  0.0436  0.2060
 1339TIP3    H125652   2.699   2.301   0.011 -0.3003 -3.2826  2.5967
 1339TIP3    H225653   2.847   2.330   0.025  0.1633 -3.3351 -1.1489
 1340TIP3   OH225654   0.863   5.240   6.992 -0.0891 -0.8026  0.0432
 1340TIP3    H125655   0.944   5.279   7.027  0.1042  0.7144 -1.9005
 1340TIP3    H225656   0.890   5.153   6.960  0.3861 -0.9680  0.8743
 1341TIP3   OH225657   2.030   6.216   7.097  0.0927 -0.3633 -0.1375
 1341TIP3    H125658   1.967   6.149   7.070 -1.5719  1.2919 -0.6012
 1341TIP3    H225659   1.980   6.274   7.154  1.2856  0.8324 -0.2475
 1342TIP3   OH225660   6.406   1.896   7.718 -0.8981 -0.1851 -0.3050
 1342TIP3    H125661   6.475   1.960   7.704  0.9528 -1.2670  2.8161
 1342TIP3    H225662   6.347   1.907   7.643  0.9059  3.0041 -1.4563
 1343TIP3   OH225663   0.196   0.040   6.562  0.5043 -0.3373 -0.6391
 1343TIP3    H125664   0.267   0.052   6.625  0.9615 -0.4057 -1.1446
 1343TIP3    H225665   0.239   0.026   6.478 -0.0688 -2.0644 -0.6784
 1344TIP3   OH225666   4.955   0.654   7.703  0.2352  0.2312 -0.2735
 1344TIP3    H125667   5.046   0.682   7.696 -0.4098  2.1876 -1.7388
 1344TIP3    H225668   4.917   0.673   7.617 -1.5825 -0.4296  0.3341
 1345TIP3   OH225669   5.509   2.526   8.662  0.3958  0.8252  0.4758
 1345TIP3    H125670   5.439   2.472   8.628  0.3805 -0.1829  1.9985
 1345TIP3    H225671   5.586   2.469   8.664  1.1462  1.7476 -0.6469
 1346TIP3   OH225672   3.599   3.080   1.158  0.4394  0.1690  0.2996
 1346TIP3    H125673   3.523   3.138   1.147  1.2570  1.4986  1.3696
 1346TIP3    H225674   3.563   3.000   1.196 -0.4339  0.7828  0.8145
 1347TIP3   OH225675   1.160   5.619   0.680 -0.7101  0.2069  0.6457
 1347TIP3    H125676   1.095   5.570   0.731 -0.4295  1.0984  1.9272
 1347TIP3    H225677   1.212   5.664   0.747  1.7275 -1.0883 -0.2949
 1348TIP3   OH225678   4.356   5.760   8.352 -0.5904  0.1589 -0.0531
 1348TIP3    H125679   4.281   5.797   8.399  0.2875  2.8171 -0.5572
 1348TIP3    H225680   4.361   5.812   8.271  2.0069  0.3669  0.1573
 1349TIP3   OH225681   4.994   1.608   0.474  0.3567  0.1903  0.0221
 1349TIP3    H125682   5.036   1.650   0.548 -1.2513  0.0610  1.0709
 1349TIP3    H225683   4.989   1.676   0.407 -0.8865  1.2844  1.1586
 1350TIP3   OH225684   1.135   1.718   8.280 -0.3027  0.2979 -0.1601
 1350TIP3    H125685   1.051   1.677   8.300 -1.0209  0.5899 -2.3134
 1350TIP3    H225686   1.121   1.811   8.299 -0.4620  0.3308 -0.4217
 1351TIP3   OH225687   1.737   4.286   1.388  0.4500 -0.4817 -0.6791
 1351TIP3    H125688   1.733   4.229   1.465 -1.4870  0.2966 -0.1239
 1351TIP3    H225689   1.799   4.354   1.412  0.1670 -0.4709  0.0529
 1352TIP3   OH225690   2.002   0.308   7.540 -0.8045 -0.1187  0.9182
 1352TIP3    H125691   1.917   0.301   7.498 -1.8054 -1.4050  3.0176
 1352TIP3    H225692   1.984   0.350   7.624  0.8419  0.7353  0.8830
 1353TIP3   OH225693   0.899   1.932   8.053  0.8162  0.1226  0.3322
 1353TIP3    H125694   0.897   1.947   8.147  3.2118 -1.9174  0.7946
 1353TIP3    H225695   0.843   2.001   8.017  2.0638  2.7247  2.9894
 1354TIP3   OH225696   0.374   6.253   1.089 -0.3148 -0.3192  0.2915
 1354TIP3    H125697   0.343   6.204   1.164  0.2661 -1.6521 -0.3042
 1354TIP3    H225698   0.347   6.201   1.013  1.6009 -0.5208 -0.3134
 1355TIP3   OH225699   6.479   6.887   0.152  0.4298  0.2346 -0.5748
 1355TIP3    H125700   6.394   6.869   0.114  1.1179 -1.8242 -1.2941
 1355TIP3    H225701   6.523   6.943   0.088  0.4733 -0.7164 -1.4096
 1356TIP3   OH225702   4.380   3.394   2.381 -0.0156  0.0251  0.4388
 1356TIP3    H125703   4.472   3.421   2.378  0.2612 -0.5590  2.1237
 1356TIP3    H225704   4.333   3.461   2.332  0.9336  2.2629  2.3740
 1357TIP3   OH225705   5.350   1.357   7.117 -0.3917  0.9236  0.3191
 1357TIP3    H125706   5.342   1.350   7.022 -0.6883  1.1372  0.3272
 1357TIP3    H225707   5.338   1.450   7.135  2.3250  1.3645  0.3078
 1358TIP3   OH225708   2.130   2.748   7.041  0.3099 -0.1829  0.4033
 1358TIP3    H125709   2.222   2.753   7.067  0.3289  0.7623  0.2008
 1358TIP3    H225710   2.101   2.661   7.069  1.3998 -0.6790  0.0230
 1359TIP3   OH225711   2.114   5.851   0.515  0.5070  0.1745  0.4776
 1359TIP3    H125712   2.183   5.836   0.581  0.9033  0.2870  0.0942
 1359TIP3    H225713   2.059   5.773   0.520  1.3129 -0.4409  0.0034
 1360TIP3   OH225714   3.957   4.267   6.859 -0.3244 -0.6759  0.1592
 1360TIP3    H125715   3.967   4.339   6.798  2.0617  0.5681  1.8481
 1360TIP3    H225716   3.901   4.302   6.928 -1.2618 -1.3451 -0.2466
 1361TIP3   OH225717   4.928   2.327   1.678  0.3218  0.5450 -0.1888
 1361TIP3    H125718   4.917   2.361   1.589 -1.7524  2.2138  0.6142
 1361TIP3    H225719   4.839   2.325   1.714  0.8062 -2.3513  1.1162
 1362TIP3   OH225720   0.844   0.438   2.286  0.4781 -0.1589 -0.1714
 1362TIP3    H125721   0.784   0.445   2.211  3.0031 -0.6678 -2.3625
 1362TIP3    H225722   0.883   0.525   2.293  1.6831 -0.6376 -0.7469
 1363TIP3   OH225723   1.933   3.801   8.053  0.5390  0.7227  0.1580
 1363TIP3    H125724   1.859   3.742   8.058  1.3396 -0.2062  1.6941
 1363TIP3    H225725   1.973   3.783   7.968 -0.2936  0.3819 -0.1655
 1364TIP3   OH225726   6.153   0.803   8.439 -0.2409  0.3607 -0.0497
 1364TIP3    H125727   6.112   0.838   8.360 -1.3802 -1.4503 -0.3221
 1364TIP3    H225728   6.080   0.792   8.501 -0.4153 -3.2111 -0.6501
 1365TIP3   OH225729   5.419   3.384   2.341  0.3418 -0.4017  0.2515
 1365TIP3    H125730   5.327   3.388   2.316 -0.4262  0.2259  2.8888
 1365TIP3    H225731   5.443   3.292   2.327 -1.0960 -0.8852  0.7389
 1366TIP3   OH225732   6.189   1.769   0.701 -0.3048 -0.1104 -0.4354
 1366TIP3    H125733   6.237   1.814   0.771  2.6305 -0.8318 -1.8099
 1366TIP3    H225734   6.169   1.683   0.737  2.8161 -1.1678 -0.9050
 1367TIP3   OH225735   1.784   6.026   1.059  0.1499  0.0139 -0.2038
 1367TIP3    H125736   1.784   6.120   1.039 -0.6760 -0.5015 -3.1606
 1367TIP3    H225737   1.875   5.999   1.045  0.3598  0.3272  0.5097
 1368TIP3   OH225738   3.688   3.527   0.526  0.0583 -0.3663  0.4618
 1368TIP3    H125739   3.600   3.501   0.497  0.4766 -1.0321 -0.2490
 1368TIP3    H225740   3.741   3.449   0.512  0.9369  0.2877  0.1072
 1369TIP3   OH225741   2.804   2.971   0.515  0.3883 -0.0189 -0.4259
 1369TIP3    H125742   2.862   3.014   0.453 -1.6146  3.7456  0.0057
 1369TIP3    H225743   2.724   2.955   0.466 -0.8100  1.9506  0.7588
 1370TIP3   OH225744   1.456   2.822   7.930 -0.1260 -0.0076  0.3793
 1370TIP3    H125745   1.476   2.735   7.897  2.0046 -0.5850  2.8121
 1370TIP3    H225746   1.403   2.806   8.008 -1.1737  1.0001 -0.1008
 1371TIP3   OH225747   5.084   3.983   0.516 -0.0646 -0.4563 -0.2816
 1371TIP3    H125748   5.004   3.985   0.569  0.5753 -1.6317  0.8081
 1371TIP3    H225749   5.074   3.906   0.460 -0.1118 -0.0449 -0.8425
 1372TIP3   OH225750   0.927   1.547   1.350 -0.8100 -0.3036  0.3345
 1372TIP3    H125751   0.862   1.490   1.308  1.2032 -0.9434 -2.1422
 1372TIP3    H225752   1.007   1.495   1.350  0.4631  1.5729  0.4181
 1373TIP3   OH225753   5.612   0.190   7.519 -0.3914  0.3163 -0.0378
 1373TIP3    H125754   5.694   0.153   7.549  0.0977  0.7019 -0.8464
 1373TIP3    H225755   5.548   0.165   7.585 -0.1278 -2.0552 -0.5936
 1374TIP3   OH225756   6.138   4.832   1.170  0.2074 -0.4421  0.4179
 1374TIP3    H125757   6.121   4.842   1.264 -2.3091  2.5373 -0.2198
 1374TIP3    H225758   6.089   4.754   1.145 -0.7421 -0.1260  1.2428
 1375TIP3   OH225759   0.493   1.802   0.214 -0.4570  0.1048  0.0411
 1375TIP3    H125760   0.452   1.761   0.139 -1.2406  1.3180 -0.2238
 1375TIP3    H225761   0.512   1.892   0.186  3.0705 -0.5570 -0.0886
 1376TIP3   OH225762   1.462   6.364   8.337  0.4796  0.0851  0.1819
 1376TIP3    H125763   1.411   6.392   8.414  0.7328 -1.2124  0.8502
 1376TIP3    H225764   1.397   6.351   8.268 -0.0299 -0.8234  0.8100
 1377TIP3   OH225765   6.523   6.041   1.578 -0.4342 -0.0403  0.4969
 1377TIP3    H125766   6.557   5.952   1.590  1.5879  0.5930 -0.2355
 1377TIP3    H225767   6.474   6.036   1.495  0.6567 -0.2206 -0.1535
 1378TIP3   OH225768   3.123   0.522   1.389 -0.2869  0.0829  0.1575
 1378TIP3    H125769   3.182   0.523   1.464  0.2581  0.2931 -0.2697
 1378TIP3    H225770   3.057   0.455   1.411 -1.0246  1.2105  1.4871
 1379TIP3   OH225771   3.542   1.902   6.853 -0.4082 -0.2876  0.1961
 1379TIP3    H125772   3.491   1.896   6.934 -0.0758  0.3081  0.4522
 1379TIP3    H225773   3.633   1.896   6.882 -0.3207 -1.6455 -0.2868
 1380TIP3   OH225774   5.815   3.511   8.552 -0.2500 -0.5365  0.1851
 1380TIP3    H125775   5.810   3.605   8.566  0.4093 -0.8790  3.7814
 1380TIP3    H225776   5.894   3.498   8.500 -1.0966  0.9067 -1.5621
 1381TIP3   OH225777   1.241   2.134   0.877 -0.0072  0.4540 -0.2636
 1381TIP3    H125778   1.202   2.141   0.789 -0.1238  0.6982 -0.1930
 1381TIP3    H225779   1.166   2.123   0.935  0.1013 -0.3475 -0.2528
 1382TIP3   OH225780   1.439   5.643   0.814  0.5393  0.2829  0.1358
 1382TIP3    H125781   1.402   5.564   0.775 -1.4631  0.9597  0.5448
 1382TIP3    H225782   1.489   5.683   0.743 -0.6248  0.0017 -0.8797
 1383TIP3   OH225783   0.312   3.435   7.971 -0.1638  0.2257 -0.0825
 1383TIP3    H125784   0.326   3.341   7.957  1.0658 -0.1111  2.8246
 1383TIP3    H225785   0.399   3.473   7.972 -0.6628  1.5024 -1.4924
 1384TIP3   OH225786   3.219   4.328   0.565 -0.0711 -0.3052  0.1145
 1384TIP3    H125787   3.298   4.342   0.618  0.9252 -1.0679 -1.1038
 1384TIP3    H225788   3.184   4.415   0.549  0.9573  0.1132  0.0689
 1385TIP3   OH225789   5.845   3.640   2.043  0.2635 -0.1170 -0.3299
 1385TIP3    H125790   5.803   3.579   1.983  0.9644 -1.2295  0.2820
 1385TIP3    H225791   5.773   3.685   2.086 -0.2818 -0.9285 -0.3735
 1386TIP3   OH225792   4.517   3.192   6.381  0.1649 -0.1482 -0.1759
 1386TIP3    H125793   4.539   3.246   6.458 -1.3891 -0.1732  0.3079
 1386TIP3    H225794   4.512   3.103   6.415  3.1124 -0.7611 -1.0480
 1387TIP3   OH225795   0.965   1.759   1.980 -0.3917  0.5436 -0.0345
 1387TIP3    H125796   1.034   1.747   2.045  0.4911 -1.6305 -1.2710
 1387TIP3    H225797   1.007   1.812   1.911  0.1669 -0.9229 -0.8669
 1388TIP3   OH225798   6.069   3.549   1.375  0.3842  0.0937  0.3814
 1388TIP3    H125799   5.984   3.509   1.357  0.9461 -2.1555  2.2355
 1388TIP3    H225800   6.127   3.514   1.307 -0.1326  1.7560 -0.9826
 1389TIP3   OH225801   3.666   2.672   6.504  0.3425 -0.1403 -0.0028
 1389TIP3    H125802   3.731   2.613   6.465  1.1313  0.3822  0.4897
 1389TIP3    H225803   3.614   2.616   6.562 -0.8301 -0.9232 -1.7287
 1390TIP3   OH225804   4.834   3.368   0.723 -0.1621 -0.0704  0.2817
 1390TIP3    H125805   4.844   3.450   0.675  3.8555 -0.8233 -0.5280
 1390TIP3    H225806   4.823   3.394   0.814  3.8124  1.5946  0.4869
 1391TIP3   OH225807   2.626   6.290   7.383  0.0166  0.1232 -0.1574
 1391TIP3    H125808   2.694   6.336   7.332  0.2619  0.3387  0.3591
 1391TIP3    H225809   2.552   6.283   7.323  0.7350 -0.7583 -0.9901
 1392TIP3   OH225810   3.252   1.383   1.692 -0.0256  0.2316 -0.6978
 1392TIP3    H125811   3.205   1.399   1.610 -0.8795  0.3119 -0.2041
 1392TIP3    H225812   3.191   1.332   1.745  0.8740 -0.6143 -0.4509
 1393TIP3   OH225813   3.735   3.333   1.666  0.5267 -0.2986  0.1160
 1393TIP3    H125814   3.702   3.395   1.731  0.0745  0.6260 -0.9563
 1393TIP3    H225815   3.657   3.304   1.619  0.3969 -3.3738  1.9027
 1394TIP3   OH225816   1.846   3.158   8.476  0.4411  0.4694 -0.7292
 1394TIP3    H125817   1.861   3.066   8.452 -1.7474  0.2386 -1.5125
 1394TIP3    H225818   1.863   3.161   8.570 -1.3069 -1.2769 -0.2657
 1395TIP3   OH225819   3.404   0.034   7.396 -0.3645 -0.0906 -0.5083
 1395TIP3    H125820   3.476   0.029   7.459 -0.1926  1.7884 -0.4880
 1395TIP3    H225821   3.347   0.103   7.431 -1.0678 -0.0800 -1.6214
 1396TIP3   OH225822   6.667   5.211   7.273 -0.0385  0.4894 -0.0599
 1396TIP3    H125823   6.653   5.301   7.244  0.2957  0.2637 -0.9503
 1396TIP3    H225824   6.584   5.167   7.256  0.2279  0.3025 -0.9032
 1397TIP3   OH225825   6.847   5.609   6.818  0.2129 -0.0414 -0.6528
 1397TIP3    H125826   6.763   5.576   6.787 -0.1942  1.0097 -0.7043
 1397TIP3    H225827   6.836   5.617   6.913  0.1785  0.2959 -0.6841
 1398TIP3   OH225828   0.636   0.196   6.939 -0.0949  0.7781  0.1667
 1398TIP3    H125829   0.568   0.262   6.932 -0.4396  0.3781 -0.2810
 1398TIP3    H225830   0.597   0.125   6.990 -0.7620 -0.3721 -1.8153
 1399TIP3   OH225831   1.013   1.118   8.088  0.1358  0.5572 -0.0711
 1399TIP3    H125832   0.932   1.067   8.086 -0.2712  1.1946 -0.5029
 1399TIP3    H225833   0.983   1.209   8.087  0.8720  0.8112 -1.3035
 1400TIP3   OH225834   1.678   4.467   5.724 -0.8219  0.4658  0.3776
 1400TIP3    H125835   1.730   4.516   5.788 -1.3456  0.2133  1.0060
 1400TIP3    H225836   1.729   4.388   5.707 -0.4127  0.7974  0.0575
 1401TIP3   OH225837   3.218   3.828   1.305 -0.0990  0.9477 -0.1245
 1401TIP3    H125838   3.217   3.854   1.213  3.3459  1.8411 -0.0422
 1401TIP3    H225839   3.303   3.786   1.317 -1.7526 -2.1866  1.9771
 1402TIP3   OH225840   6.168   2.573   1.590  0.2536  0.4709  0.3637
 1402TIP3    H125841   6.241   2.520   1.620  0.3103  0.4512  0.1922
 1402TIP3    H225842   6.189   2.662   1.618 -0.2340  0.2775  1.3765
 1403TIP3   OH225843   4.600   0.393   1.541 -0.1933 -0.3973 -0.0498
 1403TIP3    H125844   4.551   0.349   1.471  1.3211 -3.0762  0.4206
 1403TIP3    H225845   4.691   0.366   1.526  0.0765 -1.9641  3.4759
 1404TIP3   OH225846   1.140   5.891   6.902  0.1534  0.1875 -0.1498
 1404TIP3    H125847   1.116   5.816   6.847  1.4417  0.8575 -1.7386
 1404TIP3    H225848   1.227   5.917   6.870  0.1454  1.7701  0.9945
 1405TIP3   OH225849   1.775   6.019   6.221 -0.6805 -0.0112 -0.0270
 1405TIP3    H125850   1.818   6.097   6.186 -1.1105 -0.0641 -0.7035
 1405TIP3    H225851   1.824   5.946   6.183 -1.8346 -0.0806 -1.4642
 1406TIP3   OH225852   5.046   1.081   1.651  0.1763  0.1623 -0.3395
 1406TIP3    H125853   5.010   1.146   1.711  2.8636 -0.0358  1.7006
 1406TIP3    H225854   5.113   1.036   1.703  1.5638 -1.1080 -3.0498
 1407TIP3   OH225855   5.949   5.740   7.505  0.4191  0.1368 -0.3046
 1407TIP3    H125856   6.031   5.738   7.553 -1.0247  1.1018  2.4404
 1407TIP3    H225857   5.956   5.815   7.447  0.7680  1.4721  1.3968
 1408TIP3   OH225858   6.527   1.101   0.524  0.8322  0.3643 -0.5988
 1408TIP3    H125859   6.474   1.067   0.452 -0.2267  0.1282  0.2588
 1408TIP3    H225860   6.478   1.178   0.555 -0.9309 -1.7608  2.4011
 1409TIP3   OH225861   5.238   0.493   1.736  0.1516  0.4307 -0.0361
 1409TIP3    H125862   5.154   0.454   1.712  0.2004 -0.1189  0.6447
 1409TIP3    H225863   5.302   0.449   1.680  0.3058 -1.0692  1.2477
 1410TIP3   OH225864   5.731   4.583   8.516  0.8885 -0.0734  0.2571
 1410TIP3    H125865   5.688   4.531   8.448 -0.1762  0.3451  0.5940
 1410TIP3    H225866   5.702   4.673   8.499  0.6173  0.0331  1.2470
 1411TIP3   OH225867   0.872   4.547   0.322 -0.6381 -0.3738 -0.0002
 1411TIP3    H125868   0.931   4.481   0.358 -0.9276 -0.6938 -0.1042
 1411TIP3    H225869   0.930   4.611   0.280 -0.3964 -1.5341 -1.5666
 1412TIP3   OH225870   5.079   6.586   7.240  0.3818 -0.1524  0.0691
 1412TIP3    H125871   5.004   6.526   7.244 -0.5610  0.9812 -0.0294
 1412TIP3    H225872   5.154   6.532   7.263 -0.5544 -1.1814  0.8098
 1413TIP3   OH225873   4.129   4.393   2.337 -1.0563 -0.4151 -0.3162
 1413TIP3    H125874   4.081   4.463   2.380  1.4150  1.1174  0.1229
 1413TIP3    H225875   4.137   4.324   2.404 -2.3820 -0.5990 -0.3305
 1414TIP3   OH225876   0.211   0.914   1.075 -0.2100  0.3474  0.0111
 1414TIP3    H125877   0.300   0.947   1.077 -0.4148  1.0131 -1.3964
 1414TIP3    H225878   0.163   0.975   1.019 -1.0437 -1.1932 -1.0284
 1415TIP3   OH225879   0.381   1.313   1.318  0.3480  0.4112  0.1941
 1415TIP3    H125880   0.388   1.334   1.411 -0.9073 -1.2800  0.7183
 1415TIP3    H225881   0.449   1.247   1.304  0.3412  0.4547 -0.0389
 1416TIP3   OH225882   2.936   1.496   1.368  0.1111 -1.1624 -0.0082
 1416TIP3    H125883   2.995   1.425   1.345  0.5731 -0.4517 -1.0513
 1416TIP3    H225884   2.906   1.531   1.284 -1.2953 -1.0853  0.4921
 1417TIP3   OH225885   6.478   5.516   6.381 -0.4005 -0.0194 -0.3363
 1417TIP3    H125886   6.424   5.536   6.305  1.0273 -0.8045 -1.6245
 1417TIP3    H225887   6.447   5.430   6.411 -1.3539  0.5530  0.3577
 1418TIP3   OH225888   3.785   5.242   7.670 -0.0078 -0.1704  1.1497
 1418TIP3    H125889   3.847   5.311   7.648  2.6116 -2.2333  1.6326
 1418TIP3    H225890   3.730   5.234   7.592  0.2770  1.6962  0.6903
 1419TIP3   OH225891   0.764   4.610   1.018 -0.8949  0.4057  0.4738
 1419TIP3    H125892   0.748   4.584   0.927  1.5875 -0.3835  0.1966
 1419TIP3    H225893   0.804   4.697   1.011  2.2486 -0.8963  0.4620
 1420TIP3   OH225894   1.890   4.261   1.122 -0.0552 -0.3598 -0.2196
 1420TIP3    H125895   1.814   4.208   1.144  0.1676 -1.2545 -1.4760
 1420TIP3    H225896   1.854   4.340   1.083 -0.3662 -0.5771 -0.3748
 1421TIP3   OH225897   4.621   3.691   1.445 -0.2029 -0.1032  0.7862
 1421TIP3    H125898   4.661   3.605   1.459 -0.7848 -0.4161  0.5370
 1421TIP3    H225899   4.690   3.743   1.403  0.0570 -0.5272  0.6829
 1422TIP3   OH225900   1.404   4.754   6.062  0.0815 -0.5899  0.2517
 1422TIP3    H125901   1.370   4.666   6.077 -0.1481 -0.7995 -1.2660
 1422TIP3    H225902   1.477   4.741   6.002 -0.6135  0.3175 -0.8375
 1423TIP3   OH225903   2.720   5.482   1.914 -0.3682 -0.1656 -0.3205
 1423TIP3    H125904   2.729   5.574   1.890 -0.8496  0.5551  2.0822
 1423TIP3    H225905   2.633   5.474   1.951  0.0946 -1.3229  0.5996
 1424TIP3   OH225906   5.502   5.109   0.339 -0.4224  0.6895 -0.5540
 1424TIP3    H125907   5.474   5.088   0.249 -1.5632  2.4514 -0.6612
 1424TIP3    H225908   5.436   5.066   0.394 -0.5453  0.8007 -0.6136
 1425TIP3   OH225909   2.255   6.589   1.165 -0.8154  0.0448  0.2717
 1425TIP3    H125910   2.171   6.613   1.204 -1.4708  0.2270 -1.1999
 1425TIP3    H225911   2.233   6.555   1.078  0.6706  0.7326 -0.4204
 1426TIP3   OH225912   0.293   3.133   0.090 -0.4218  0.3106 -0.1302
 1426TIP3    H125913   0.368   3.077   0.067 -2.4137 -1.4197 -3.0953
 1426TIP3    H225914   0.271   3.108   0.180  1.0483 -0.9565 -0.0747
 1427TIP3   OH225915   1.425   5.569   0.042  0.0423  0.0465 -0.3270
 1427TIP3    H125916   1.437   5.599  -0.048  0.2614  0.2341 -0.2379
 1427TIP3    H225917   1.364   5.495   0.035  0.8046 -0.5613 -0.7385
 1428TIP3   OH225918   6.536   3.159   0.475  0.0273  0.0839  0.2092
 1428TIP3    H125919   6.523   3.251   0.453 -1.8139 -0.3309 -0.6189
 1428TIP3    H225920   6.532   3.157   0.570  2.6666  1.1686  0.4191
 1429TIP3   OH225921   2.996   6.335   6.969  1.2006 -0.4349 -0.3893
 1429TIP3    H125922   3.052   6.288   6.908 -0.5647 -1.0915 -1.5822
 1429TIP3    H225923   3.018   6.427   6.957  3.7892 -0.7816  1.0470
 1430TIP3   OH225924   0.089   0.653   0.982 -0.0043  0.0117  0.0061
 1430TIP3    H125925   0.024   0.678   0.916  1.9079 -1.2372 -2.5399
 1430TIP3    H225926   0.117   0.736   1.021 -0.9603  0.8323 -0.9929
 1431TIP3   OH225927   6.132   5.443   0.417 -0.2503  0.2666 -0.0249
 1431TIP3    H125928   6.228   5.449   0.416 -0.1489 -1.0129 -1.9511
 1431TIP3    H225929   6.104   5.529   0.448  1.5009  1.0356 -0.4280
 1432TIP3   OH225930   5.753   4.908   0.272 -0.1074 -0.2002  0.1453
 1432TIP3    H125931   5.744   4.844   0.343 -1.9264 -1.6591 -1.3019
 1432TIP3    H225932   5.837   4.951   0.289  0.5664 -2.0553  1.9008
 1433TIP3   OH225933   0.281   2.070   7.507 -0.0572 -0.0497  0.0145
 1433TIP3    H125934   0.222   2.122   7.561 -0.6084 -1.2475  0.5928
 1433TIP3    H225935   0.252   1.979   7.518  0.1799 -0.4059 -1.8406
 1434TIP3   OH225936   1.956   6.710   7.120  0.2147  0.1774  0.0133
 1434TIP3    H125937   1.913   6.684   7.202 -1.8994  3.7633  0.2705
 1434TIP3    H225938   1.892   6.691   7.052  0.4352  0.6006 -0.3171
 1435TIP3   OH225939   6.397   1.982   0.855 -0.1033  0.4360 -0.5687
 1435TIP3    H125940   6.445   1.903   0.829  0.3261  0.9461 -1.3556
 1435TIP3    H225941   6.446   2.017   0.929 -2.1663 -1.8546  2.0706
 1436TIP3   OH225942   2.736   6.733   0.556  0.0666 -0.2405  0.2525
 1436TIP3    H125943   2.705   6.779   0.478 -0.7466 -0.8676  0.1968
 1436TIP3    H225944   2.764   6.803   0.615 -0.0348  0.2710 -0.2960
 1437TIP3   OH225945   4.945   4.682   0.869 -0.7812  0.4161 -0.1094
 1437TIP3    H125946   5.029   4.699   0.911 -0.8192  0.3139  0.0086
 1437TIP3    H225947   4.900   4.767   0.869 -0.2392  0.7149 -1.1581
 1438TIP3   OH225948   5.317   5.781   8.320 -0.0535  0.2424 -0.6144
 1438TIP3    H125949   5.294   5.871   8.296 -1.1806  0.2255  0.2979
 1438TIP3    H225950   5.294   5.775   8.413  1.3933 -0.5654 -0.2956
 1439TIP3   OH225951   2.350   2.830   1.880 -0.2453 -0.1874 -0.1853
 1439TIP3    H125952   2.269   2.878   1.899 -0.1623 -0.6718  1.6162
 1439TIP3    H225953   2.417   2.876   1.931  0.3891 -0.5119 -0.7111
 1440TIP3   OH225954   2.391   5.619   0.393  0.5177  0.3386  0.5452
 1440TIP3    H125955   2.461   5.571   0.348 -0.9186 -0.8646 -0.4646
 1440TIP3    H225956   2.386   5.703   0.346  2.1560  1.0356  1.5006
 1441TIP3   OH225957   4.035   1.234   6.380 -0.0287 -0.2335  0.2428
 1441TIP3    H125958   4.086   1.153   6.385 -0.8714 -1.0125 -2.1909
 1441TIP3    H225959   4.094   1.296   6.337 -0.1135 -0.2593  0.0852
 1442TIP3   OH225960   4.225   2.826   7.713 -0.4965  0.0689  0.7443
 1442TIP3    H125961   4.272   2.868   7.641  0.8994  0.4233  1.8304
 1442TIP3    H225962   4.132   2.835   7.689 -0.0805  0.5223 -0.8048
 1443TIP3   OH225963   2.848   4.310   6.466  0.2083 -0.5121 -0.1164
 1443TIP3    H125964   2.843   4.353   6.381 -1.2912 -0.0845  0.1556
 1443TIP3    H225965   2.809   4.223   6.450 -3.4761  0.7694  0.7839
 1444TIP3   OH225966   6.259   1.124   7.665 -0.0149  0.0610 -0.4065
 1444TIP3    H125967   6.331   1.187   7.672  0.4383 -0.5679  0.7212
 1444TIP3    H225968   6.180   1.178   7.673  0.3709  0.4453  1.0460
 1445TIP3   OH225969   6.855   4.681   8.588  0.7067  0.3603  0.2180
 1445TIP3    H125970   6.778   4.724   8.552 -0.5518 -1.6453  0.3650
 1445TIP3    H225971   6.924   4.697   8.524 -0.3572  0.5169 -0.9197
 1446TIP3   OH225972   5.307   1.274   7.392  0.3721  0.4824 -0.0592
 1446TIP3    H125973   5.322   1.185   7.362  2.2797  0.2149  1.4351
 1446TIP3    H225974   5.299   1.326   7.312  1.4271 -0.7137 -0.9775
 1447TIP3   OH225975   4.076   0.202   1.204  0.9985  0.7909 -0.2437
 1447TIP3    H125976   4.076   0.124   1.259  1.3899  0.5596 -0.5628
 1447TIP3    H225977   4.152   0.192   1.147 -0.4223  0.0723 -2.1499
 1448TIP3   OH225978   6.449   4.919   7.228 -0.5632  0.2288 -0.0716
 1448TIP3    H125979   6.409   5.006   7.233  0.4824  0.6995  0.2317
 1448TIP3    H225980   6.394   4.865   7.285  0.6970  1.4749  2.4955
 1449TIP3   OH225981   3.542   5.512   0.998  0.0357  0.3133 -0.2073
 1449TIP3    H125982   3.495   5.458   0.935 -0.6389 -1.0849  1.4080
 1449TIP3    H225983   3.609   5.453   1.033  0.6420  1.1811  0.1104
 1450TIP3   OH225984   0.491   4.203   7.285  0.0189  0.1444 -0.5938
 1450TIP3    H125985   0.425   4.202   7.216 -1.2357 -1.1342  0.5676
 1450TIP3    H225986   0.546   4.126   7.267 -0.0789  0.0238 -0.3767
 1451TIP3   OH225987   4.280   4.095   0.102 -0.0801  0.0672  0.3318
 1451TIP3    H125988   4.297   4.153   0.176  0.7039 -0.9509  0.9878
 1451TIP3    H225989   4.359   4.101   0.048  0.0152 -0.4063  0.4174
 1452TIP3   OH225990   4.873   3.994   1.138 -0.0769 -0.0382 -0.3688
 1452TIP3    H125991   4.834   3.933   1.200  0.8787 -1.0406 -0.7076
 1452TIP3    H225992   4.820   4.073   1.144 -3.0775 -1.7759 -1.8551
 1453TIP3   OH225993   3.445   2.263   0.369  0.1589 -0.2961 -0.5630
 1453TIP3    H125994   3.532   2.285   0.401 -0.1724  0.7216 -0.3250
 1453TIP3    H225995   3.393   2.250   0.449  0.2889 -1.8342 -0.6870
 1454TIP3   OH225996   5.166   3.664   7.888  0.3596 -0.3801 -0.2105
 1454TIP3    H125997   5.246   3.701   7.924 -0.6992 -0.2000  2.1752
 1454TIP3    H225998   5.099   3.681   7.955 -1.8722  0.1314 -2.3935
 1455TIP3   OH225999   4.116   4.632   0.480  0.0847 -0.5390  0.0137
 1455TIP3    H126000   4.173   4.656   0.553 -0.9015  1.1011  0.2915
 1455TIP3    H226001   4.088   4.542   0.501  0.3663 -0.3532  1.3023
 1456TIP3   OH226002   0.370   2.677   0.054 -0.3331  0.3034  0.1476
 1456TIP3    H126003   0.331   2.684  -0.033  0.2573  1.0225 -0.0691
 1456TIP3    H226004   0.309   2.622   0.103 -0.9693  0.3733 -0.5442
 1457TIP3   OH226005   0.542   4.955   0.990  0.6605  0.2696  0.1291
 1457TIP3    H126006   0.608   4.975   1.056 -1.3669  1.2862  1.9481
 1457TIP3    H226007   0.458   4.971   1.033 -0.8312 -1.0515 -2.0519
 1458TIP3   OH226008   4.727   3.390   0.242 -0.2894  0.3638  0.3775
 1458TIP3    H126009   4.753   3.401   0.151  0.1607 -0.1189  0.4433
 1458TIP3    H226010   4.780   3.454   0.290  0.6057 -0.4464  0.4815
 1459TIP3   OH226011   0.248   4.973   2.177  0.4896 -0.8084 -0.1265
 1459TIP3    H126012   0.177   4.946   2.119  1.2762 -0.5243 -1.2601
 1459TIP3    H226013   0.308   4.899   2.178  0.5793 -0.7327  0.1671
 1460TIP3   OH226014   3.439   1.314   6.785 -0.0901 -0.2013  0.1090
 1460TIP3    H126015   3.381   1.310   6.710 -1.9482  0.0261  1.4550
 1460TIP3    H226016   3.526   1.295   6.750 -0.8676  0.0370 -2.0845
 1461TIP3   OH226017   3.987   4.526   7.941 -0.1322 -0.1200  0.1839
 1461TIP3    H126018   3.953   4.611   7.970  0.3582 -0.6475  2.5677
 1461TIP3    H226019   4.081   4.531   7.956 -0.3079 -1.6771  2.2441
 1462TIP3   OH226020   0.205   1.332   2.110  0.4334 -0.7059 -0.6790
 1462TIP3    H126021   0.236   1.387   2.182  0.5563 -0.8100 -0.6512
 1462TIP3    H226022   0.138   1.276   2.149  0.9365 -1.1914 -0.4999
 1463TIP3   OH226023   6.039   4.009   0.774 -0.2980  0.0363  0.2784
 1463TIP3    H126024   6.133   4.000   0.760 -0.4653  1.8125 -2.8903
 1463TIP3    H226025   6.015   3.931   0.824  2.8225 -0.4503  1.2360
 1464TIP3   OH226026   3.269   5.782   1.880  0.3760 -0.3617  0.4048
 1464TIP3    H126027   3.176   5.776   1.859 -0.2374  3.0550  1.5735
 1464TIP3    H226028   3.275   5.752   1.971  0.8185 -2.4206 -0.2527
 1465TIP3   OH226029   0.004   0.378   6.577 -0.5477 -0.2129 -0.4877
 1465TIP3    H126030  -0.081   0.344   6.548 -0.1683 -1.2752 -0.3934
 1465TIP3    H226031   0.058   0.375   6.498 -0.9024  1.5874 -0.8517
 1466TIP3   OH226032   6.363   3.865   1.784  0.5894 -0.4718  0.2938
 1466TIP3    H126033   6.349   3.931   1.716 -2.0874 -0.8529  0.3455
 1466TIP3    H226034   6.393   3.915   1.860 -0.3076  0.5771 -0.0083
 1467TIP3   OH226035   0.264   0.902   0.337  0.0152 -0.2048 -0.9160
 1467TIP3    H126036   0.358   0.920   0.327  0.1152 -0.9218 -1.3367
 1467TIP3    H226037   0.227   0.926   0.252 -0.4764  1.7560 -0.2012
 1468TIP3   OH226038   3.377   5.124   0.040  0.7813 -0.7204  0.0632
 1468TIP3    H126039   3.413   5.210   0.063  3.7980 -1.7963 -0.2045
 1468TIP3    H226040   3.330   5.096   0.119  0.8039  0.6167  0.5832
 1469TIP3   OH226041   4.137   1.433   7.350 -0.1284 -0.5531  0.6514
 1469TIP3    H126042   4.146   1.338   7.340 -2.0720 -0.7610  0.3126
 1469TIP3    H226043   4.181   1.469   7.273 -0.7948 -1.2968 -0.1031
 1470TIP3   OH226044   4.391   6.772   8.307 -0.3212  0.6335  0.1280
 1470TIP3    H126045   4.410   6.772   8.401  2.5946  0.8794 -0.3539
 1470TIP3    H226046   4.417   6.685   8.277  1.4198  1.4211 -0.8168
 1471TIP3   OH226047   2.848   3.207   1.794  0.0985  0.0900  0.0022
 1471TIP3    H126048   2.852   3.297   1.825 -2.6352 -0.0147  0.9881
 1471TIP3    H226049   2.773   3.169   1.840  0.6395 -2.4596 -1.0028
 1472TIP3   OH226050   1.438   3.555   2.111 -0.3368  0.4806 -0.6394
 1472TIP3    H126051   1.403   3.475   2.150  0.1043 -0.5492 -2.2580
 1472TIP3    H226052   1.523   3.568   2.154 -1.5479  1.6774  1.5965
 1473TIP3   OH226053   3.802   4.518   1.671 -0.2872  0.1266  0.1250
 1473TIP3    H126054   3.885   4.537   1.627  0.9494 -2.0929  1.3240
 1473TIP3    H226055   3.797   4.581   1.742  0.4487  0.2002  0.1141
 1474TIP3   OH226056   3.561   1.286   7.381  0.3847 -0.7170  0.0567
 1474TIP3    H126057   3.512   1.315   7.304 -0.4528  0.1459  0.8856
 1474TIP3    H226058   3.583   1.194   7.363  1.7341 -0.0598 -1.9566
 1475TIP3   OH226059   5.491   5.399   0.330 -0.3280 -0.0318 -0.2502
 1475TIP3    H126060   5.522   5.448   0.406 -0.0446 -1.0293  0.2963
 1475TIP3    H226061   5.492   5.308   0.358 -1.9747 -0.2698 -0.8486
 1476TIP3   OH226062   6.663   1.136   1.040  0.2486 -0.1995  0.6804
 1476TIP3    H126063   6.581   1.167   1.080 -0.9060  0.1630 -1.8000
 1476TIP3    H226064   6.678   1.195   0.967  1.5751 -1.5768 -0.2187
 1477TIP3   OH226065   4.967   4.740   6.955  0.2003 -0.2452 -0.4982
 1477TIP3    H126066   5.058   4.751   6.979 -0.4798  0.6012  2.0142
 1477TIP3    H226067   4.938   4.827   6.927 -0.2935  0.0088  0.6995
 1478TIP3   OH226068   6.834   5.739   7.461  0.6164 -0.2316 -0.2301
 1478TIP3    H126069   6.797   5.810   7.514  3.3200  2.0476 -1.1631
 1478TIP3    H226070   6.796   5.751   7.375 -0.0457 -0.8997 -0.0457
 1479TIP3   OH226071   6.672   6.493   1.106  0.1935  0.5664 -0.0720
 1479TIP3    H126072   6.614   6.434   1.058  0.5087  0.9243 -0.9117
 1479TIP3    H226073   6.717   6.436   1.168 -1.5551  0.4005  1.1113
 1480TIP3   OH226074   3.292   3.923   7.089  0.0223  0.2291 -0.4718
 1480TIP3    H126075   3.236   3.846   7.103  0.1286  0.1271 -0.6011
 1480TIP3    H226076   3.319   3.949   7.177  0.6274 -0.3623 -0.4736
 1481TIP3   OH226077   3.899   1.356   0.999 -0.6694  0.0096  0.1396
 1481TIP3    H126078   3.861   1.318   1.078  1.9231 -2.6752  0.2988
 1481TIP3    H226079   3.970   1.411   1.031  0.4672 -1.1836 -0.2564
 1482TIP3   OH226080   2.636   6.446   8.282 -0.0501 -0.3360 -0.1483
 1482TIP3    H126081   2.715   6.392   8.284 -1.3428 -2.3351  1.0161
 1482TIP3    H226082   2.638   6.494   8.364 -0.1667 -0.5993  0.0107
 1483TIP3   OH226083   1.191   2.190   6.822 -0.0576  0.4743 -0.2747
 1483TIP3    H126084   1.221   2.280   6.835 -0.8040  0.5096  1.6313
 1483TIP3    H226085   1.112   2.198   6.769 -0.7812  1.1040  0.8399
 1484TIP3   OH226086   1.213   6.433   0.793 -0.3010  0.0598 -0.1775
 1484TIP3    H126087   1.139   6.430   0.732 -0.3214 -0.9241 -0.1171
 1484TIP3    H226088   1.185   6.494   0.861 -0.9853 -0.1471 -0.2616
 1485TIP3   OH226089   5.739   1.321   1.235  0.0769 -0.1833  0.1100
 1485TIP3    H126090   5.766   1.357   1.320  0.3461  0.1176 -0.1054
 1485TIP3    H226091   5.705   1.396   1.186  0.4303 -0.2621 -0.2533
 1486TIP3   OH226092   1.606   2.128   7.003 -0.4304  0.0540  0.5136
 1486TIP3    H126093   1.549   2.163   7.071 -0.0328  2.7844 -0.4496
 1486TIP3    H226094   1.547   2.089   6.939 -0.9471 -0.4858  1.3045
 1487TIP3   OH226095   0.997   4.990   0.059 -0.1409  0.2440  0.9778
 1487TIP3    H126096   0.977   4.913   0.005  0.8319  0.1162  0.7819
 1487TIP3    H226097   0.952   4.973   0.142 -2.6202  0.9645 -0.1203
 1488TIP3   OH226098   3.676   6.108   0.713  0.3317 -0.1428 -0.2245
 1488TIP3    H126099   3.726   6.077   0.637  0.4884 -1.3419  0.3445
 1488TIP3    H226100   3.587   6.120   0.680  0.2882 -1.1236 -0.5027
 1489TIP3   OH226101   3.587   2.431   6.892 -0.4069  0.6193  0.0841
 1489TIP3    H126102   3.662   2.379   6.863 -2.0021 -1.2000 -0.9819
 1489TIP3    H226103   3.549   2.381   6.964  0.2106  2.2889  1.6469
 1490TIP3   OH226104   0.339   1.675   8.086  0.3780  0.3468  0.1766
 1490TIP3    H126105   0.361   1.590   8.047 -1.6787 -0.5730  0.9053
 1490TIP3    H226106   0.282   1.717   8.021  0.6042  0.7569  0.2413
 1491TIP3   OH226107   0.482   1.565   1.398  0.4934 -0.0847  0.6352
 1491TIP3    H126108   0.465   1.501   1.328  1.0166  0.6042 -0.1421
 1491TIP3    H226109   0.444   1.525   1.477 -3.1189  0.5012 -0.5851
 1492TIP3   OH226110   2.058   2.185   8.217  0.0350 -0.2734 -0.1481
 1492TIP3    H126111   2.055   2.242   8.293 -2.0154 -0.5357  0.0220
 1492TIP3    H226112   2.067   2.244   8.142  0.7217  0.0646  0.1941
 1493TIP3   OH226113   4.530   4.859   7.351  0.1068 -0.2431 -0.0048
 1493TIP3    H126114   4.458   4.803   7.381 -2.3898  1.3318 -2.5533
 1493TIP3    H226115   4.574   4.807   7.283 -1.1861  0.1474 -1.2073
 1494TIP3   OH226116   1.486   5.292   0.388 -0.1200 -0.3019 -0.1763
 1494TIP3    H126117   1.406   5.318   0.434 -0.6113  0.3614 -1.3506
 1494TIP3    H226118   1.509   5.368   0.335  1.0553 -0.6470 -0.1949
 1495TIP3   OH226119   0.537   2.026   8.328  0.2035 -0.4154  0.0976
 1495TIP3    H126120   0.469   1.965   8.298 -2.1113  1.1365  1.8839
 1495TIP3    H226121   0.532   2.100   8.268 -0.0508 -0.0582  0.5594
 1496TIP3   OH226122   5.673   5.199   7.886  0.0867 -0.5095 -0.2596
 1496TIP3    H126123   5.690   5.237   7.972 -0.3583  1.4591 -0.9840
 1496TIP3    H226124   5.579   5.178   7.888 -0.0612  0.1114 -0.4593
 1497TIP3   OH226125   3.899   3.726   1.399  0.3838 -0.5363 -0.4680
 1497TIP3    H126126   3.820   3.774   1.373  0.0205 -1.4942 -1.1596
 1497TIP3    H226127   3.874   3.634   1.397  0.9204 -0.7650  1.3954
 1498TIP3   OH226128   5.031   5.467   1.726  0.2759  0.1762 -0.2513
 1498TIP3    H126129   5.033   5.393   1.787 -1.2898 -1.2161 -1.7869
 1498TIP3    H226130   5.099   5.526   1.758  0.4070 -1.0996  2.0472
 1499TIP3   OH226131   2.923   3.979   7.652 -0.8954 -0.1619  0.8799
 1499TIP3    H126132   3.017   3.989   7.666 -0.7697 -1.1775  0.8295
 1499TIP3    H226133   2.904   4.034   7.577 -0.3191 -0.0454  0.8160
 1500TIP3   OH226134   6.561   4.739   1.857  0.1599 -0.4451  0.0527
 1500TIP3    H126135   6.523   4.761   1.771  1.4065 -1.3828 -0.7808
 1500TIP3    H226136   6.492   4.760   1.920 -0.6528  0.6247 -1.1414
 1501TIP3   OH226137   3.349   6.738   7.742  0.1661  0.5502  0.7799
 1501TIP3    H126138   3.316   6.651   7.723  2.0079 -0.6683  2.7283
 1501TIP3    H226139   3.272   6.795   7.737 -1.0786 -1.1637 -0.4989
 1502TIP3   OH226140   2.814   4.691   6.850  0.1422  0.5470 -0.7297
 1502TIP3    H126141   2.840   4.701   6.942  1.8362 -1.2101 -0.9588
 1502TIP3    H226142   2.784   4.601   6.843 -1.4564  1.1018 -1.6241
 1503TIP3   OH226143   3.865   3.321   8.091  1.0810 -0.4497  0.4042
 1503TIP3    H126144   3.862   3.249   8.027 -2.6116  0.0934 -0.2897
 1503TIP3    H226145   3.853   3.400   8.038 -2.7308 -0.0164  1.5854
 1504TIP3   OH226146   0.501   4.476   8.194 -0.6321 -0.3360 -0.4501
 1504TIP3    H126147   0.478   4.470   8.101  0.6367 -1.0235 -0.7450
 1504TIP3    H226148   0.591   4.510   8.195 -1.5473  2.2518  0.6553
 1505TIP3   OH226149   5.648   6.859   1.340 -0.3225  0.3072  0.0202
 1505TIP3    H126150   5.706   6.783   1.347 -1.1979 -0.2958  0.8924
 1505TIP3    H226151   5.577   6.830   1.283 -0.6069  0.5144  0.2739
 1506TIP3   OH226152   6.062   6.655   7.676  0.0225  0.1627  0.3855
 1506TIP3    H126153   6.025   6.585   7.622  0.2707  0.0489  0.3641
 1506TIP3    H226154   5.986   6.708   7.699  0.0097  0.6819 -0.7546
 1507TIP3   OH226155   0.900   3.852   1.465  0.2776 -0.0214 -0.5211
 1507TIP3    H126156   0.834   3.909   1.504 -0.3438  0.1982 -1.8323
 1507TIP3    H226157   0.983   3.895   1.484 -0.0222  0.1885  0.3422
 1508TIP3   OH226158   1.106   1.284   0.258  0.2030  0.4741 -0.4999
 1508TIP3    H126159   1.112   1.347   0.330 -0.2691 -0.3611  0.3027
 1508TIP3    H226160   1.098   1.199   0.302  0.2146 -0.0868 -1.5499
 1509TIP3   OH226161   2.379   4.369   0.767  0.2585  0.1479  0.1428
 1509TIP3    H126162   2.472   4.389   0.754  0.2752 -0.5250 -0.8953
 1509TIP3    H226163   2.343   4.447   0.808  0.9774  1.0375 -0.8538
 1510TIP3   OH226164   3.888   5.039   8.353  0.0077 -0.1326 -0.2300
 1510TIP3    H126165   3.917   5.111   8.408 -1.2459  0.4259 -0.2821
 1510TIP3    H226166   3.948   4.967   8.374  1.2050  0.8779 -0.1094
 1511TIP3   OH226167   1.007   5.357   7.371  0.5403  0.6917 -0.0146
 1511TIP3    H126168   1.071   5.287   7.373  0.0941  0.1828 -1.7672
 1511TIP3    H226169   0.954   5.339   7.294 -1.4516  1.3313  1.1183
 1512TIP3   OH226170   2.032   5.798   7.381 -0.0088 -0.3090  0.3080
 1512TIP3    H126171   2.106   5.824   7.437  0.3028 -0.3101 -0.0993
 1512TIP3    H226172   1.984   5.880   7.366  0.1221 -0.2391  0.2675
 1513TIP3   OH226173   4.530   2.841   7.505  0.1032  0.3425  0.3300
 1513TIP3    H126174   4.500   2.915   7.453 -2.0245 -0.7881 -0.1354
 1513TIP3    H226175   4.556   2.880   7.589 -0.1637  1.7059 -0.1918
 1514TIP3   OH226176   5.644   1.045   1.976  0.1620  0.0111 -0.0908
 1514TIP3    H126177   5.563   0.995   1.967 -0.1997  0.6419 -0.4441
 1514TIP3    H226178   5.626   1.107   2.047  0.6059 -0.3564  0.3460
 1515TIP3   OH226179   1.522   0.561   7.553  0.4616 -0.1478 -0.5150
 1515TIP3    H126180   1.511   0.468   7.534  2.7734 -0.1375 -2.4258
 1515TIP3    H226181   1.437   0.600   7.531 -0.4581 -1.7409  0.0494
 1516TIP3   OH226182   3.403   1.561   0.946  0.0645 -0.3083  0.5024
 1516TIP3    H126183   3.328   1.565   0.888  0.5624 -1.9262 -0.3184
 1516TIP3    H226184   3.381   1.619   1.019 -1.0504  0.8841 -0.7366
 1517TIP3   OH226185   6.650   3.304   1.280 -0.4233  0.1048  0.1890
 1517TIP3    H126186   6.620   3.394   1.267 -2.6011 -0.0856  3.0059
 1517TIP3    H226187   6.661   3.295   1.375 -1.4272 -2.9024  0.1368
 1518TIP3   OH226188   4.157   4.655   6.498 -0.2615  0.2575 -0.6374
 1518TIP3    H126189   4.180   4.656   6.591  0.2331  0.2383 -0.7556
 1518TIP3    H226190   4.196   4.574   6.464  0.7159  0.9177 -1.1402
 1519TIP3   OH226191   6.113   0.979   0.239 -0.0129  0.3124  0.3660
 1519TIP3    H126192   6.103   0.961   0.333 -0.2448 -0.3061  0.2217
 1519TIP3    H226193   6.104   0.894   0.197 -0.0393  0.6106 -0.2330
 1520TIP3   OH226194   4.882   4.879   1.152 -0.4759  0.5785  0.1665
 1520TIP3    H126195   4.844   4.908   1.069 -0.3449  1.6799  0.4745
 1520TIP3    H226196   4.977   4.884   1.139 -0.3308 -2.6071 -0.7550
 1521TIP3   OH226197   1.358   4.211   7.006 -0.2522 -0.0668 -0.3534
 1521TIP3    H126198   1.269   4.184   6.985 -0.3385 -1.5568  1.6875
 1521TIP3    H226199   1.348   4.270   7.081  0.5300 -1.5794  1.0023
 1522TIP3   OH226200   3.830   4.619   6.812 -0.4550  0.0928  0.2427
 1522TIP3    H126201   3.778   4.568   6.874  1.5222 -0.6099  1.4119
 1522TIP3    H226202   3.828   4.568   6.731  1.3119 -1.8896  1.3240
 1523TIP3   OH226203   5.993   2.942   8.292  0.1797  0.3935  0.3399
 1523TIP3    H126204   5.988   2.963   8.385  0.9185  0.1517  0.4399
 1523TIP3    H226205   5.986   3.026   8.248  2.3677  0.8406  0.7075
 1524TIP3   OH226206   1.261   0.223   8.485  0.1287  0.7030  0.0361
 1524TIP3    H126207   1.256   0.140   8.438 -0.7140  1.5394 -1.4329
 1524TIP3    H226208   1.337   0.213   8.543  0.5137 -0.7929 -0.6720
 1525TIP3   OH226209   6.398   5.111   0.630  0.0226 -0.5415  0.3002
 1525TIP3    H126210   6.312   5.120   0.588  0.0270  0.9627  0.5610
 1525TIP3    H226211   6.378   5.081   0.719 -0.1150 -1.7343 -0.1175
 1526TIP3   OH226212   4.547   5.008   7.985  0.2354 -0.6132  0.6421
 1526TIP3    H126213   4.593   4.949   8.045  1.3648  0.9527  1.3932
 1526TIP3    H226214   4.616   5.040   7.927 -0.8890 -2.4644 -1.9371
 1527TIP3   OH226215   0.175   3.187   8.101 -0.0947 -0.2260 -0.0183
 1527TIP3    H126216   0.137   3.231   8.025 -2.1468  1.0675  1.6295
 1527TIP3    H226217   0.134   3.101   8.103  0.6401 -0.6051 -0.8389
 1528TIP3   OH226218   1.984   0.622   0.445  0.0591  0.6958  0.5285
 1528TIP3    H126219   2.069   0.598   0.482  0.6182 -0.6677 -1.4533
 1528TIP3    H226220   1.922   0.564   0.489  0.4680  0.2727  0.5674
 1529TIP3   OH226221   1.928   0.741   8.477 -0.0619 -0.1084  0.4233
 1529TIP3    H126222   1.897   0.806   8.541  0.8662  1.0465 -0.2680
 1529TIP3    H226223   1.960   0.668   8.531  0.8129  0.8886  1.2936
 1530TIP3   OH226224   4.233   5.869   0.512 -0.1666  0.0961 -0.2050
 1530TIP3    H126225   4.219   5.782   0.550 -1.3219 -0.0541 -0.9415
 1530TIP3    H226226   4.233   5.928   0.587 -3.4640 -0.0603  0.0762
 1531TIP3   OH226227   2.979   4.767   0.388 -0.4043 -0.4607  0.4365
 1531TIP3    H126228   2.929   4.776   0.469  1.2121  0.0065  1.4357
 1531TIP3    H226229   3.049   4.705   0.410  0.1971 -0.1500 -0.5444
 1532TIP3   OH226230   2.700   2.649   8.150  0.5034 -0.2642 -0.4453
 1532TIP3    H126231   2.744   2.625   8.068  0.8494  0.0563 -0.3549
 1532TIP3    H226232   2.658   2.733   8.131  2.0108  0.6809  0.1953
 1533TIP3   OH226233   4.996   5.302   1.951 -0.0920  0.0752 -0.4178
 1533TIP3    H126234   4.960   5.369   2.008  1.2809  0.5199 -0.0387
 1533TIP3    H226235   4.967   5.219   1.989 -0.3438  0.4042  0.1104
 1534TIP3   OH226236   5.432   4.529   6.848  0.3462  0.3872 -0.4219
 1534TIP3    H126237   5.510   4.534   6.792 -0.5815  0.0312 -1.7882
 1534TIP3    H226238   5.389   4.614   6.835  0.7486  0.7852  0.7342
 1535TIP3   OH226239   5.792   3.415   0.392  0.0839 -0.0662 -0.5646
 1535TIP3    H126240   5.827   3.402   0.480  0.8863  0.4176 -0.8057
 1535TIP3    H226241   5.835   3.347   0.339  0.8382  0.6727 -0.9073
 1536TIP3   OH226242   5.515   0.781   8.290  0.1956 -0.1988 -0.1906
 1536TIP3    H126243   5.564   0.710   8.249 -0.8181 -0.2910 -1.2752
 1536TIP3    H226244   5.432   0.742   8.317 -0.3506  0.5327 -0.7476
 1537TIP3   OH226245   1.277   6.404   0.187  0.7859  0.3255 -0.1147
 1537TIP3    H126246   1.348   6.466   0.171  0.9056  1.0687  2.8868
 1537TIP3    H226247   1.216   6.450   0.244 -0.7214 -1.2692 -0.3541
 1538TIP3   OH226248   2.660   3.332   1.427 -0.3832 -0.1804  0.2338
 1538TIP3    H126249   2.646   3.249   1.473  0.1442 -0.0478  0.6391
 1538TIP3    H226250   2.711   3.385   1.489  1.9164 -0.6233 -1.1688
 1539TIP3   OH226251   4.426   6.241   8.285  0.2176 -0.1842  0.2009
 1539TIP3    H126252   4.402   6.332   8.303  0.6075  0.2473 -1.2772
 1539TIP3    H226253   4.519   6.244   8.264 -0.0317 -0.7115 -1.0756
 1540TIP3   OH226254   0.289   2.597   6.912 -0.0577  0.4283  0.6437
 1540TIP3    H126255   0.317   2.506   6.925 -1.2812  0.2544  2.3287
 1540TIP3    H226256   0.259   2.599   6.821 -0.0918 -0.8741  0.5990
 1541TIP3   OH226257   0.873   2.786   1.340 -0.1870  0.3830  0.1765
 1541TIP3    H126258   0.839   2.706   1.300 -0.3615  0.7024 -0.3159
 1541TIP3    H226259   0.900   2.759   1.428 -0.9246 -0.0551  0.2697
 1542TIP3   OH226260   4.862   2.977   1.472  0.4303 -0.0053 -0.1690
 1542TIP3    H126261   4.803   2.907   1.500 -1.0310  0.8016 -1.0822
 1542TIP3    H226262   4.854   3.044   1.540 -0.8610  0.7014 -0.9572
 1543TIP3   OH226263   2.221   4.586   8.575  0.4546  0.2521  0.1722
 1543TIP3    H126264   2.235   4.576   8.481 -0.5726  0.9583 -0.0626
 1543TIP3    H226265   2.138   4.542   8.592  1.4258 -1.3295  1.0578
 1544TIP3   OH226266   2.364   0.534   1.823 -0.3985 -0.2741  0.1004
 1544TIP3    H126267   2.293   0.473   1.843 -1.0142  0.8523  1.4926
 1544TIP3    H226268   2.444   0.485   1.842 -0.8200 -1.1383 -0.2763
 1545TIP3   OH226269   4.586   1.066   8.142  1.0824  0.3488  0.0410
 1545TIP3    H126270   4.521   1.074   8.211  1.7593  0.0313  0.7350
 1545TIP3    H226271   4.540   1.022   8.070  0.1597  1.3624 -0.0195
 1546TIP3   OH226272   4.666   3.098   0.058  0.3020  0.1163 -0.3661
 1546TIP3    H126273   4.638   3.167  -0.002 -0.2828 -0.9219 -1.3333
 1546TIP3    H226274   4.755   3.077   0.031 -0.6703 -1.8575 -2.4348
 1547TIP3   OH226275   0.860   3.482   8.132  0.0789 -0.3302  0.2988
 1547TIP3    H126276   0.951   3.512   8.139 -0.3297  1.0725 -0.1472
 1547TIP3    H226277   0.843   3.438   8.216  0.6710  0.8271  1.0576
 1548TIP3   OH226278   1.065   3.249   1.744  0.6811 -0.1025  0.5829
 1548TIP3    H126279   1.063   3.296   1.827 -0.3167 -1.2212  1.2126
 1548TIP3    H226280   1.134   3.184   1.754  0.7633 -0.0431  0.4162
 1549TIP3   OH226281   1.964   1.456   0.433  0.1145 -0.3942 -0.4943
 1549TIP3    H126282   1.883   1.492   0.468  0.6612 -0.9326  1.4315
 1549TIP3    H226283   1.939   1.369   0.400  0.1825 -1.2921  1.6779
 1550TIP3   OH226284   1.065   1.890   6.908  0.0674  0.1970 -0.0510
 1550TIP3    H126285   1.071   1.983   6.885  1.7882 -0.3026 -1.8480
 1550TIP3    H226286   1.038   1.846   6.828  1.8286 -1.1213  0.0182
 1551TIP3   OH226287   3.321   0.607   6.675 -0.4015  0.3201 -0.3788
 1551TIP3    H126288   3.337   0.697   6.701 -1.5058  0.2865  0.5072
 1551TIP3    H226289   3.408   0.568   6.666  0.0827  1.5014 -0.9329
 1552TIP3   OH226290   5.431   6.495   6.470  0.7274 -0.1079 -0.6200
 1552TIP3    H126291   5.372   6.555   6.516 -0.2011 -0.8705 -0.7892
 1552TIP3    H226292   5.464   6.436   6.537  0.0034 -0.7129 -0.7879
 1553TIP3   OH226293   1.134   1.928   8.515  0.2845  0.6108 -0.3127
 1553TIP3    H126294   1.184   2.008   8.500 -0.8121  1.6504  1.2901
 1553TIP3    H226295   1.043   1.957   8.521  0.0897 -0.2122  3.3249
 1554TIP3   OH226296   2.695   4.946   0.259  0.1901  0.2076 -0.6054
 1554TIP3    H126297   2.634   4.886   0.301 -0.2247  0.7530 -0.4174
 1554TIP3    H226298   2.759   4.889   0.216  0.9278 -0.3885  1.1813
 1555TIP3   OH226299   6.854   0.834   1.181 -0.3118  0.7298  0.1896
 1555TIP3    H126300   6.791   0.823   1.110  1.0905  2.3292 -1.3990
 1555TIP3    H226301   6.840   0.758   1.237 -0.3611 -1.5897 -2.6926
 1556TIP3   OH226302   4.009   0.411   6.887 -0.2990  0.1747  0.0329
 1556TIP3    H126303   3.927   0.369   6.863  0.2207 -0.8326 -0.0767
 1556TIP3    H226304   4.026   0.474   6.817 -0.6344 -0.1123 -0.3092
 1557TIP3   OH226305   4.765   2.538   7.468 -0.0109 -0.2524 -0.1229
 1557TIP3    H126306   4.674   2.543   7.439  0.5751 -2.2780 -2.6023
 1557TIP3    H226307   4.766   2.588   7.550 -2.7592  2.0591 -1.3236
 1558TIP3   OH226308   1.655   5.959   2.161 -0.0245  0.0170  0.0401
 1558TIP3    H126309   1.667   6.002   2.246 -2.1693  0.6570  0.0572
 1558TIP3    H226310   1.573   5.994   2.127  0.6689 -0.4210 -2.2120
 1559TIP3   OH226311   6.647   5.081   1.778 -0.3058 -0.1527 -0.4801
 1559TIP3    H126312   6.600   5.100   1.859 -1.4856 -1.3287 -0.8531
 1559TIP3    H226313   6.736   5.060   1.805 -1.0849 -2.1462  0.7118
 1560TIP3   OH226314   5.297   1.120   8.166  0.3557 -0.0383 -0.4401
 1560TIP3    H126315   5.218   1.086   8.208  0.9595 -0.0058  0.7554
 1560TIP3    H226316   5.328   1.189   8.225  0.9510  0.3664 -1.2015
 1561TIP3   OH226317   1.371   4.892   8.648  0.0915 -0.7349  0.6989
 1561TIP3    H126318   1.459   4.928   8.651 -0.7502  1.4535  0.8640
 1561TIP3    H226319   1.367   4.832   8.723  1.1092 -0.0312  1.3366
 1562TIP3   OH226320   4.231   0.281   7.508  0.0790  0.0203  0.7495
 1562TIP3    H126321   4.265   0.196   7.479  0.4894 -0.0960  1.5320
 1562TIP3    H226322   4.141   0.263   7.535  0.6529 -0.5273  2.4199
 1563TIP3   OH226323   0.533   3.167   1.244 -0.7494  0.0593 -0.3596
 1563TIP3    H126324   0.476   3.098   1.281 -1.3417  0.5395 -0.3697
 1563TIP3    H226325   0.477   3.214   1.183 -0.1020  0.0296 -0.9776
 1564TIP3   OH226326   1.859   5.852   7.961  0.1513 -0.2337  0.0852
 1564TIP3    H126327   1.882   5.833   7.870  1.0183 -1.0774  0.4593
 1564TIP3    H226328   1.943   5.856   8.007 -0.1351  2.2656  0.5007
 1565TIP3   OH226329   4.020   3.428   8.286  0.7185 -0.6769  0.3063
 1565TIP3    H126330   3.952   3.391   8.230 -1.3324  1.9451  0.8401
 1565TIP3    H226331   4.070   3.485   8.229 -0.3104  0.6982  0.7296
 1566TIP3   OH226332   5.174   5.132   1.623  0.1867 -0.4743  0.5334
 1566TIP3    H126333   5.252   5.179   1.594  0.8306 -2.7312 -1.7382
 1566TIP3    H226334   5.108   5.149   1.556 -0.7754  0.0606  1.5720
 1567TIP3   OH226335   2.903   4.053   6.867  0.2045  0.4812 -0.3273
 1567TIP3    H126336   2.963   3.979   6.877  1.5523  1.7652  1.9314
 1567TIP3    H226337   2.945   4.109   6.802  0.8586  0.7818  0.3390
 1568TIP3   OH226338   1.469   3.912   0.801 -0.2132 -0.2019  0.4857
 1568TIP3    H126339   1.475   4.008   0.803 -2.2747  0.0302 -0.8876
 1568TIP3    H226340   1.472   3.886   0.893 -2.0228  1.4234  1.0894
 1569TIP3   OH226341   4.589   4.024   8.152  0.1001 -0.3584 -0.1986
 1569TIP3    H126342   4.592   4.119   8.163  0.7960 -0.4626  0.5785
 1569TIP3    H226343   4.679   4.000   8.129  0.5164 -1.0898  2.0051
 1570TIP3   OH226344   3.219   2.514   1.593 -0.3337  0.3581 -0.1561
 1570TIP3    H126345   3.245   2.449   1.528 -0.2441  0.7084 -0.4771
 1570TIP3    H226346   3.300   2.558   1.617 -0.1128 -0.7756  1.3368
 1571TIP3   OH226347   5.937   2.069   7.483 -0.0454 -0.4134  0.0732
 1571TIP3    H126348   5.858   2.120   7.469  0.0142 -0.7254 -1.6346
 1571TIP3    H226349   5.909   1.978   7.472  0.5674 -0.5130 -0.8696
 1572TIP3   OH226350   6.500   2.709   7.920 -0.3740 -0.5956  0.5817
 1572TIP3    H126351   6.428   2.650   7.941  0.1913 -1.2883  0.6411
 1572TIP3    H226352   6.476   2.792   7.960 -1.5735 -0.5406 -0.2106
 1573TIP3   OH226353   5.762   0.907   7.593  0.3940 -0.2360 -0.5195
 1573TIP3    H126354   5.734   0.980   7.648  1.3906  0.7836 -1.3162
 1573TIP3    H226355   5.801   0.948   7.516  0.0771 -1.6175 -1.4671
 1574TIP3   OH226356   5.947   1.854   6.464 -0.1656  0.1568  0.4164
 1574TIP3    H126357   5.903   1.939   6.456 -1.3259 -0.3021  1.5356
 1574TIP3    H226358   5.878   1.794   6.492  1.0874 -0.7112  1.7816
 1575TIP3   OH226359   1.042   6.674   2.072 -0.5738  0.4305 -0.0301
 1575TIP3    H126360   1.010   6.604   2.015 -1.4417  0.2733  0.6362
 1575TIP3    H226361   1.076   6.629   2.149  2.5322  0.4848 -1.2302
 1576TIP3   OH226362   0.143   6.697   7.016 -0.4702 -0.2492  0.1105
 1576TIP3    H126363   0.125   6.604   6.999 -1.5143  0.2673 -1.8846
 1576TIP3    H226364   0.218   6.695   7.075  0.5537 -2.3796 -1.1074
 1577TIP3   OH226365   2.574   6.091   8.627 -0.1824 -0.0448  0.3077
 1577TIP3    H126366   2.525   6.026   8.679 -1.2003  0.9640  0.6573
 1577TIP3    H226367   2.666   6.071   8.644 -0.4803 -0.2997  1.8308
 1578TIP3   OH226368   2.871   3.800   7.229  0.6572  0.5108  0.1833
 1578TIP3    H126369   2.931   3.827   7.299 -0.3760  1.9308  0.5734
 1578TIP3    H226370   2.928   3.783   7.154  1.6240  0.9788  0.7888
 1579TIP3   OH226371   0.550   5.703   0.808 -0.3925  0.5368 -0.3980
 1579TIP3    H126372   0.473   5.698   0.751 -0.0707  0.2711 -0.8143
 1579TIP3    H226373   0.622   5.670   0.754 -0.2563 -0.6536  0.4760
 1580TIP3   OH226374   6.349   5.574   8.510  0.1015  0.0458 -0.0662
 1580TIP3    H126375   6.327   5.584   8.602  0.7195  1.2665 -0.0360
 1580TIP3    H226376   6.335   5.661   8.472 -2.1423 -0.8637 -1.5939
 1581TIP3   OH226377   3.678   5.822   1.444 -0.2319  0.6732  0.0515
 1581TIP3    H126378   3.680   5.747   1.384 -0.6719  1.9640 -1.6813
 1581TIP3    H226379   3.770   5.848   1.453 -0.2577  1.4192 -1.4163
 1582TIP3   OH226380   2.086   0.941   0.420  0.1597  0.3023  0.4920
 1582TIP3    H126381   2.152   0.931   0.490 -0.3786  0.0957  0.9804
 1582TIP3    H226382   2.137   0.963   0.342  1.3539 -3.9176 -0.1828
 1583TIP3   OH226383   3.523   4.318   8.435  0.0482 -0.5266  0.8466
 1583TIP3    H126384   3.521   4.333   8.530 -1.5397 -0.7243  0.8825
 1583TIP3    H226385   3.460   4.381   8.400 -1.9779 -2.6915  0.3319
 1584TIP3   OH226386   4.611   5.377   1.011  0.4978 -0.0376 -0.0025
 1584TIP3    H126387   4.701   5.362   0.983  0.4919  0.8809 -0.5355
 1584TIP3    H226388   4.609   5.346   1.102  0.8503 -1.8099 -0.5707
 1585TIP3   OH226389   0.621   3.278   0.036 -0.2585  0.3078  0.0813
 1585TIP3    H126390   0.703   3.314   0.070  0.6271 -2.0125  0.5885
 1585TIP3    H226391   0.579   3.352  -0.008  1.5465  1.8502  0.7929
 1586TIP3   OH226392   1.954   4.974   6.961  0.1861  0.1695 -0.1014
 1586TIP3    H126393   2.038   4.930   6.947 -0.9279 -1.5332 -1.9298
 1586TIP3    H226394   1.978   5.067   6.972  2.2749 -0.1353 -1.3747
 1587TIP3   OH226395   1.636   5.372   7.964  0.2841  0.1017  0.3604
 1587TIP3    H126396   1.692   5.446   7.986  0.3168  0.6566 -1.4678
 1587TIP3    H226397   1.628   5.374   7.869 -1.2487 -1.1316  0.4078
 1588TIP3   OH226398   2.614   3.254   2.024 -0.6995  0.3686  0.0182
 1588TIP3    H126399   2.589   3.281   1.936  0.0474 -2.0377 -1.0196
 1588TIP3    H226400   2.670   3.325   2.056 -0.0419  0.7703 -1.9034
 1589TIP3   OH226401   0.934   5.832   6.622 -0.1524 -0.5118 -0.4476
 1589TIP3    H126402   0.969   5.866   6.540 -0.3661  0.5095 -0.1270
 1589TIP3    H226403   1.005   5.781   6.660  0.7511  0.9138 -0.1596
 1590TIP3   OH226404   0.246   5.755   1.786 -0.3080  0.6076  0.7645
 1590TIP3    H126405   0.256   5.663   1.808 -1.6795  0.0838 -0.6062
 1590TIP3    H226406   0.335   5.789   1.782  0.6314 -1.6606 -2.6012
 1591TIP3   OH226407   3.070   5.676   0.697 -0.6596 -0.4902 -0.4419
 1591TIP3    H126408   3.041   5.753   0.649  1.8640  0.5239 -0.4672
 1591TIP3    H226409   3.139   5.638   0.643 -0.8654 -1.9484  0.2688
 1592TIP3   OH226410   4.071   4.902   1.385 -0.5829  0.0725  0.5103
 1592TIP3    H126411   4.147   4.956   1.363 -1.5583  0.9952 -0.8014
 1592TIP3    H226412   4.047   4.861   1.302  0.2810 -2.6721  1.5111
 1593TIP3   OH226413   2.763   6.739   1.328 -0.3008 -0.1762 -0.1441
 1593TIP3    H126414   2.720   6.689   1.258 -0.8710  0.7884 -0.5226
 1593TIP3    H226415   2.723   6.707   1.409  0.2116 -1.1583 -0.2747
 1594TIP3   OH226416   2.457   2.263   8.569 -0.0021  0.5428  0.4498
 1594TIP3    H126417   2.537   2.232   8.526 -0.2191  1.1240 -0.3899
 1594TIP3    H226418   2.451   2.209   8.648  1.0805  0.3173  0.4030
 1595TIP3   OH226419   1.636   5.873   6.457 -0.4517 -0.3966  0.6561
 1595TIP3    H126420   1.723   5.859   6.419 -0.1847 -0.4900  1.2859
 1595TIP3    H226421   1.610   5.960   6.425 -0.4164 -0.6496 -0.0724
 1596TIP3   OH226422   2.367   6.348   1.429 -0.4847  0.4065 -0.0609
 1596TIP3    H126423   2.277   6.340   1.397 -0.6438  0.9375  0.2376
 1596TIP3    H226424   2.360   6.406   1.505  0.0357  0.0011  0.2977
 1597TIP3   OH226425   4.312   4.835   1.552 -0.0158 -0.2652  0.7756
 1597TIP3    H126426   4.275   4.778   1.485 -0.0189  0.1749  0.3977
 1597TIP3    H226427   4.252   4.826   1.626  0.1586 -0.9927  0.8340
 1598TIP3   OH226428   2.284   1.674   6.419  0.1597 -0.2003 -0.1670
 1598TIP3    H126429   2.304   1.731   6.345 -0.6605 -0.5545 -0.6658
 1598TIP3    H226430   2.355   1.609   6.419 -1.0481 -1.6342 -2.1130
 1599TIP3   OH226431   0.570   6.123   0.915 -0.3029  0.3194 -0.3406
 1599TIP3    H126432   0.626   6.183   0.865 -2.1609  1.7653 -0.8203
 1599TIP3    H226433   0.529   6.178   0.982 -0.4379 -0.8913  0.6182
 1600TIP3   OH226434   1.111   1.218   7.155 -0.4405  0.5090 -0.2266
 1600TIP3    H126435   1.196   1.176   7.169  0.2850  1.4463 -1.5519
 1600TIP3    H226436   1.122   1.306   7.193 -1.1393  0.3173  0.4298
 1601TIP3   OH226437   6.233   3.049   1.597 -0.2688  0.0578 -0.1249
 1601TIP3    H126438   6.270   3.044   1.508 -1.2563 -0.3016 -0.5347
 1601TIP3    H226439   6.236   3.142   1.619 -0.7853  0.2681 -0.8917
 1602TIP3   OH226440   6.353   1.300   0.704 -0.4886  0.2376 -0.0814
 1602TIP3    H126441   6.351   1.364   0.633 -0.5540  0.3706  0.0394
 1602TIP3    H226442   6.443   1.303   0.737 -0.8733  1.3759  0.9236
 1603TIP3   OH226443   2.173   0.646   6.094  0.1236  0.1859 -0.5304
 1603TIP3    H126444   2.257   0.691   6.085  0.5829 -0.3393  0.8012
 1603TIP3    H226445   2.177   0.607   6.182 -0.9685 -0.9664 -0.9701
 1604TIP3   OH226446   4.612   5.793   0.367  0.1714 -0.8775  0.7848
 1604TIP3    H126447   4.690   5.846   0.385 -0.3871 -0.5229  2.3508
 1604TIP3    H226448   4.579   5.770   0.454 -2.6704  0.7222  0.2367
 1605TIP3   OH226449   4.513   5.514   0.616  0.1596  0.1459 -0.1751
 1605TIP3    H126450   4.504   5.610   0.612  2.2229  0.3605 -0.5683
 1605TIP3    H226451   4.518   5.494   0.709 -1.7592  0.2235 -0.0199
 1606TIP3   OH226452   4.592   6.443   7.720 -0.3748  0.4617 -0.3685
 1606TIP3    H126453   4.537   6.474   7.648 -1.9508  0.5147  0.8115
 1606TIP3    H226454   4.602   6.349   7.704  2.0559  0.9368 -2.3941
 1607TIP3   OH226455   0.709   1.579   0.414  0.1635  0.2156  0.3862
 1607TIP3    H126456   0.754   1.603   0.333  1.0441 -1.1234  0.4424
 1607TIP3    H226457   0.633   1.638   0.418 -0.8153 -0.6994 -2.2529
 1608TIP3   OH226458   3.225   4.026   1.087 -0.0492  0.8703  0.2185
 1608TIP3    H126459   3.132   4.013   1.067  0.1549  1.0256 -0.8871
 1608TIP3    H226460   3.271   3.990   1.012  0.7093  2.8244 -0.3360
 1609TIP3   OH226461   6.190   1.449   2.170 -0.3092  0.5476  0.1136
 1609TIP3    H126462   6.182   1.426   2.078 -2.2607 -0.2915  0.4285
 1609TIP3    H226463   6.099   1.463   2.199  0.1025 -0.7067  2.2531
 1610TIP3   OH226464   6.091   4.767   6.006 -0.9072 -0.3805  0.2550
 1610TIP3    H126465   6.033   4.763   6.083 -0.0474 -0.2384  0.9213
 1610TIP3    H226466   6.090   4.859   5.980  0.3755 -0.0378  1.3390
 1611TIP3   OH226467   4.925   3.200   7.965  0.5406  0.1721  0.3707
 1611TIP3    H126468   4.882   3.200   7.879 -1.5295 -1.3123  1.3193
 1611TIP3    H226469   5.008   3.156   7.950  0.6226  0.7650 -1.0497
 1612TIP3   OH226470   4.857   1.376   0.443  0.2452  0.1786  0.4072
 1612TIP3    H126471   4.913   1.453   0.433 -0.0041  0.4374  0.9640
 1612TIP3    H226472   4.799   1.378   0.367  1.2342 -0.3014 -0.3738
 1613TIP3   OH226473   6.529   2.510   0.689 -0.0556  0.0954 -0.2398
 1613TIP3    H126474   6.599   2.510   0.623  0.7988 -3.0119  0.4861
 1613TIP3    H226475   6.571   2.546   0.768  0.6856 -1.3328  0.0644
 1614TIP3   OH226476   4.459   0.930   7.943 -0.4108 -0.3041 -0.5872
 1614TIP3    H126477   4.438   0.904   7.853 -1.4244 -0.7017 -0.2555
 1614TIP3    H226478   4.449   0.849   7.994 -1.0389  0.1713  0.0631
 1615TIP3   OH226479   0.459   1.725   0.681  0.0483  0.0611 -0.1661
 1615TIP3    H126480   0.416   1.776   0.749  0.4003  1.4949 -0.9623
 1615TIP3    H226481   0.414   1.640   0.682 -0.4130  0.2982  1.3510
 1616TIP3   OH226482   1.828   2.368   8.033  0.2151 -0.3618  0.3392
 1616TIP3    H126483   1.917   2.376   7.999 -0.4758 -0.6669 -1.6903
 1616TIP3    H226484   1.834   2.398   8.123  1.9498  1.8530 -0.4107
 1617TIP3   OH226485   4.475   0.856   1.894 -0.1656  0.7505  0.4072
 1617TIP3    H126486   4.448   0.816   1.977 -1.4521 -0.1179 -0.3824
 1617TIP3    H226487   4.457   0.788   1.828 -0.6358  1.9644 -0.7630
 1618TIP3   OH226488   6.139   1.024   7.980  0.5619  0.1999 -0.2246
 1618TIP3    H126489   6.187   0.944   7.961  1.4219  0.9119 -1.1670
 1618TIP3    H226490   6.090   1.005   8.060  5.0583  0.5214  2.9528
 1619TIP3   OH226491   1.072   3.097   8.154  0.3038  0.2172 -0.3541
 1619TIP3    H126492   1.115   3.162   8.097  1.6471 -1.2154 -1.0411
 1619TIP3    H226493   1.144   3.048   8.194 -0.6716 -0.8074  0.2086
 1620TIP3   OH226494   6.329   1.118   1.600 -0.2010  0.1543  0.8444
 1620TIP3    H126495   6.297   1.107   1.689 -1.5004  1.9023  0.6490
 1620TIP3    H226496   6.400   1.182   1.607  0.9232 -1.0421  0.8123
 1621TIP3   OH226497   4.614   5.900   7.936  0.1203  0.7988 -0.9932
 1621TIP3    H126498   4.579   5.819   7.901 -0.5271  1.1532 -1.1959
 1621TIP3    H226499   4.629   5.882   8.029  0.4352  0.3092 -1.1374
 1622TIP3   OH226500   5.305   4.398   8.306 -0.1294  0.2494 -0.6712
 1622TIP3    H126501   5.264   4.330   8.253 -1.0909  0.6231 -0.4339
 1622TIP3    H226502   5.243   4.413   8.377  1.5965 -0.9813  1.1796
 1623TIP3   OH226503   3.468   5.223   7.814  0.1900  0.0739 -0.4618
 1623TIP3    H126504   3.405   5.282   7.856  0.3538  0.1052 -0.2559
 1623TIP3    H226505   3.424   5.138   7.813  0.9825 -0.4277  1.7206
 1624TIP3   OH226506   2.938   6.371   1.347 -0.2491  0.2546  0.4006
 1624TIP3    H126507   2.883   6.400   1.274 -0.3943 -1.3345 -0.1482
 1624TIP3    H226508   2.885   6.307   1.393  0.6963 -0.4264  0.5669
 1625TIP3   OH226509   1.248   0.134   8.139 -0.0058  0.2947  0.3207
 1625TIP3    H126510   1.334   0.150   8.100  0.1783  0.1748  0.6803
 1625TIP3    H226511   1.187   0.141   8.065  0.2912  0.5655  0.0979
 1626TIP3   OH226512   1.003   3.924   7.947 -0.3041  0.5549 -0.0662
 1626TIP3    H126513   0.974   4.007   7.909 -0.9639 -0.3219 -1.5635
 1626TIP3    H226514   0.941   3.860   7.913  0.6437 -0.6659  0.4643
 1627TIP3   OH226515   0.694   0.961   6.988 -0.6519  0.4605 -0.0418
 1627TIP3    H126516   0.686   0.888   6.926  1.0390 -1.0316  1.3980
 1627TIP3    H226517   0.780   0.950   7.028 -0.8177  2.6129  1.0683
 1628TIP3   OH226518   1.345   5.146   7.617  0.2084  0.0218  0.7925
 1628TIP3    H126519   1.330   5.230   7.574  0.7404 -0.0479  0.4583
 1628TIP3    H226520   1.425   5.160   7.669  0.6060 -0.4227  0.3170
 1629TIP3   OH226521   2.396   1.682   7.823  0.0803 -0.5919 -0.6417
 1629TIP3    H126522   2.447   1.662   7.901 -0.3629 -0.8362 -0.4089
 1629TIP3    H226523   2.397   1.777   7.816  0.2548 -0.5802 -0.4265
 1630TIP3   OH226524   1.589   6.170   0.703  0.0009 -0.7725 -0.0934
 1630TIP3    H126525   1.550   6.226   0.770  1.4859  0.8789 -0.5461
 1630TIP3    H226526   1.592   6.083   0.743 -0.1299 -0.0464  1.5646
 1631TIP3   OH226527   4.457   0.674   8.060  0.3841  0.2553  0.0339
 1631TIP3    H126528   4.437   0.592   8.015 -0.6023  0.3375  0.3098
 1631TIP3    H226529   4.500   0.648   8.141 -0.6237 -0.0297  0.4858
 1632TIP3   OH226530   0.429   3.924   0.258  0.5449  0.1047  0.5564
 1632TIP3    H126531   0.361   3.957   0.199  1.3884  1.3872  0.2559
 1632TIP3    H226532   0.428   3.829   0.245 -1.4151  0.0467  0.8371
 1633TIP3   OH226533   1.203   3.747   0.997  0.1034 -0.0554  0.1326
 1633TIP3    H126534   1.113   3.732   1.025 -0.6715 -0.6146 -2.4405
 1633TIP3    H226535   1.225   3.832   1.035 -1.9523  0.6851 -0.2015
 1634TIP3   OH226536   6.442   0.758   0.416  0.0146 -0.7386  0.4279
 1634TIP3    H126537   6.402   0.693   0.358 -1.0261 -0.2136  0.5254
 1634TIP3    H226538   6.419   0.842   0.377  2.1316 -0.3987 -0.2050
 1635TIP3   OH226539   0.198   1.118   6.992 -0.4041  0.0554  0.4631
 1635TIP3    H126540   0.257   1.193   7.002 -0.1151 -0.2847  1.4902
 1635TIP3    H226541   0.126   1.137   7.053  0.2707 -1.0441  1.6616
 1636TIP3   OH226542   2.178   1.720   8.462 -0.3175 -0.6281  0.3601
 1636TIP3    H126543   2.215   1.692   8.378 -1.0865  0.1829 -0.2828
 1636TIP3    H226544   2.245   1.777   8.500  0.4158 -1.7316  0.7369
 1637TIP3   OH226545   1.706   5.593   6.880 -0.2684 -0.4183 -0.0903
 1637TIP3    H126546   1.684   5.686   6.869  1.3679  0.0013 -0.0814
 1637TIP3    H226547   1.669   5.550   6.803 -1.8200  0.0620  0.3400
 1638TIP3   OH226548   4.698   6.757   1.724 -0.8110 -0.0525  0.0990
 1638TIP3    H126549   4.753   6.830   1.752 -1.2562  0.4106 -0.2196
 1638TIP3    H226550   4.626   6.756   1.787 -1.1664  0.2176 -0.2978
 1639TIP3   OH226551   5.944   6.862   8.588 -0.0804 -0.3046  0.6987
 1639TIP3    H126552   5.926   6.900   8.674 -0.6949 -0.2428  0.5504
 1639TIP3    H226553   5.859   6.829   8.558 -0.0178  0.2876 -0.1823
 1640TIP3   OH226554   5.801   2.102   0.185 -0.1366 -0.0499  0.2847
 1640TIP3    H126555   5.802   2.010   0.213  0.9584 -0.1944 -0.1910
 1640TIP3    H226556   5.826   2.098   0.092  0.3696  0.7764  0.3844
 1641TIP3   OH226557   6.289   3.075   1.290 -0.6009  0.2477  0.2183
 1641TIP3    H126558   6.200   3.086   1.323 -0.7904  0.9439 -0.4789
 1641TIP3    H226559   6.287   3.115   1.203  0.1001 -0.7624 -0.2776
 1642TIP3   OH226560   1.279   2.653   0.815  0.7382  0.3917  0.3592
 1642TIP3    H126561   1.343   2.686   0.753  0.0667  0.2137 -0.4425
 1642TIP3    H226562   1.278   2.558   0.802  0.6243  0.3490  0.6639
 1643TIP3   OH226563   6.106   5.420   8.494  0.1611  0.2857 -0.1294
 1643TIP3    H126564   6.189   5.461   8.516  0.0813  0.8171 -0.7964
 1643TIP3    H226565   6.118   5.328   8.518  2.1353 -0.4057 -3.1665
 1644TIP3   OH226566   3.336   5.296   7.353 -0.1646 -0.1440 -0.3993
 1644TIP3    H126567   3.284   5.234   7.302 -0.9632  0.8532 -0.8149
 1644TIP3    H226568   3.367   5.361   7.290 -0.6268  0.7454  0.2691
 1645TIP3   OH226569   3.386   3.956   0.086 -0.1909  0.5495  0.0242
 1645TIP3    H126570   3.422   3.967   0.175  0.2368 -1.9968  0.2355
 1645TIP3    H226571   3.454   3.907   0.039 -1.5004 -0.4368 -0.9125
 1646TIP3   OH226572   2.091   2.352   8.009  0.2299  0.1342 -0.2849
 1646TIP3    H126573   2.141   2.425   7.972 -0.8732  0.9662 -0.1914
 1646TIP3    H226574   2.071   2.297   7.934 -0.0501  0.6289 -0.5820
 1647TIP3   OH226575   5.354   0.625   1.374  0.1985 -0.1178  0.3412
 1647TIP3    H126576   5.348   0.656   1.464 -0.3498  1.1067 -0.0954
 1647TIP3    H226577   5.285   0.559   1.367 -0.9087  0.9864  0.3837
 1648TIP3   OH226578   6.004   2.842   0.691 -0.8563  0.1214 -0.1303
 1648TIP3    H126579   6.052   2.811   0.768 -2.5942 -0.1969  0.8853
 1648TIP3    H226580   5.912   2.825   0.712 -1.4176  0.5192 -2.0754
 1649TIP3   OH226581   2.671   6.516   1.218  0.5263  0.2624  0.0782
 1649TIP3    H126582   2.680   6.511   1.313 -0.2162 -0.2260  0.1263
 1649TIP3    H226583   2.588   6.473   1.199  1.6248 -1.5138 -0.9955
 1650TIP3   OH226584   5.067   2.898   2.303 -0.1882  0.2920 -0.0442
 1650TIP3    H126585   5.076   2.857   2.389 -0.2800 -0.3534 -0.3368
 1650TIP3    H226586   4.981   2.941   2.306 -1.3420 -1.7884 -0.6271
 1651TIP3   OH226587   2.301   6.375   6.271 -0.1016 -0.2880 -0.0757
 1651TIP3    H126588   2.235   6.323   6.225 -1.8535  1.1599  0.6403
 1651TIP3    H226589   2.288   6.464   6.238  0.4019  0.3093  1.2722
 1652TIP3   OH226590   0.513   4.280   6.857 -0.1749 -0.1111  0.0405
 1652TIP3    H126591   0.509   4.269   6.762  0.7405 -2.0839  0.1879
 1652TIP3    H226592   0.607   4.282   6.877 -0.3621  0.4674  0.8902
 1653TIP3   OH226593   3.650   5.833   0.822  0.0216  0.7171  0.5802
 1653TIP3    H126594   3.712   5.837   0.749  1.6639 -0.8522  1.7832
 1653TIP3    H226595   3.639   5.924   0.849 -0.7423  1.3394 -1.6808
 1654TIP3   OH226596   3.158   0.914   0.525  0.1282  0.1149 -0.0266
 1654TIP3    H126597   3.233   0.874   0.482  0.0642  0.9621 -0.9819
 1654TIP3    H226598   3.082   0.871   0.485  0.0852 -0.0701  0.2499
 1655TIP3   OH226599   0.351   2.136   7.205  0.7988 -0.1470 -0.4860
 1655TIP3    H126600   0.394   2.063   7.159 -1.1165 -1.6551 -0.0428
 1655TIP3    H226601   0.355   2.112   7.297 -1.4541 -0.6708 -0.4731
 1656TIP3   OH226602   4.463   6.282   6.709  0.1783 -0.1910  0.1159
 1656TIP3    H126603   4.478   6.361   6.657  1.7482 -0.6262 -0.1698
 1656TIP3    H226604   4.389   6.303   6.765 -0.1361  1.0854 -0.7312
 1657TIP3   OH226605   0.780   1.554   1.763  0.0362  0.4943  0.2137
 1657TIP3    H126606   0.686   1.555   1.780 -0.6522  1.0018 -2.9945
 1657TIP3    H226607   0.816   1.496   1.830 -2.7250 -0.7243  0.7780
 1658TIP3   OH226608   5.781   4.975   1.246  0.4345 -0.0841  0.9394
 1658TIP3    H126609   5.872   4.981   1.216  0.2380  0.4550  0.4357
 1658TIP3    H226610   5.747   4.896   1.205  0.5960 -0.1423  0.9161
 1659TIP3   OH226611   4.091   5.484   1.742  0.7094  0.2540 -0.4038
 1659TIP3    H126612   4.043   5.484   1.824  0.0875  0.3162 -0.7669
 1659TIP3    H226613   4.135   5.569   1.741 -0.2693  0.7697 -0.7056
 1660TIP3   OH226614   0.600   3.287   8.228  0.7235 -0.0682  0.1963
 1660TIP3    H126615   0.672   3.245   8.180 -0.2222 -0.1158 -1.2282
 1660TIP3    H226616   0.608   3.380   8.205  0.9878  0.1017  0.9380
 1661TIP3   OH226617   2.171   2.982   0.453 -0.2460 -0.0273 -0.1608
 1661TIP3    H126618   2.237   2.991   0.521  0.6893 -1.1203 -0.8809
 1661TIP3    H226619   2.217   2.942   0.379 -1.2865  0.8889 -1.3588
 1662TIP3   OH226620   3.430   1.777   7.493  0.2885  0.2693 -0.0404
 1662TIP3    H126621   3.522   1.796   7.512  0.0791  1.3605 -0.0377
 1662TIP3    H226622   3.382   1.831   7.555 -0.3718 -1.5024  1.0646
 1663TIP3   OH226623   4.289   0.731   0.417 -0.0453  0.3518  0.3830
 1663TIP3    H126624   4.336   0.724   0.334  2.9022  0.3072  1.9004
 1663TIP3    H226625   4.311   0.651   0.464 -1.9690  0.1970  1.0739
 1664TIP3   OH226626   6.865   2.133   0.512 -0.0648 -0.0879  0.0845
 1664TIP3    H126627   6.846   2.081   0.434  0.4664 -0.8737  0.4648
 1664TIP3    H226628   6.780   2.167   0.540 -0.5001 -1.1693  0.1207
 1665TIP3   OH226629   3.262   1.574   6.453  0.1125 -0.0575 -0.5782
 1665TIP3    H126630   3.298   1.593   6.366  2.2570  0.6972  0.4276
 1665TIP3    H226631   3.290   1.646   6.508  1.1503 -1.8408  1.3807
 1666TIP3   OH226632   6.444   3.317   6.938  0.0763  0.0197 -0.3754
 1666TIP3    H126633   6.364   3.285   6.980 -0.1907 -0.4529 -1.2161
 1666TIP3    H226634   6.418   3.336   6.848  0.0533  3.2730  0.1961
 1667TIP3   OH226635   4.608   3.416   6.907 -0.1735  0.5645 -0.2913
 1667TIP3    H126636   4.523   3.439   6.869 -0.8424  0.2058  0.9078
 1667TIP3    H226637   4.642   3.346   6.852 -1.6828 -0.8047  0.4185
 1668TIP3   OH226638   2.792   3.868   1.230 -0.7559 -0.0979  0.2949
 1668TIP3    H126639   2.823   3.783   1.199 -2.2872 -0.0530 -1.4662
 1668TIP3    H226640   2.804   3.864   1.325  2.0710 -1.0707  0.0117
 1669TIP3   OH226641   2.654   0.548   8.368 -0.0120 -0.3050  0.5148
 1669TIP3    H126642   2.715   0.568   8.439  2.9677 -2.4761 -1.1891
 1669TIP3    H226643   2.706   0.557   8.288 -2.3083 -1.0701 -1.1871
 1670TIP3   OH226644   4.972   0.809   8.552  0.5582 -0.7780  0.7291
 1670TIP3    H126645   4.944   0.718   8.548 -0.7987 -0.4339  1.7092
 1670TIP3    H226646   4.893   0.858   8.572  1.0397  0.7596 -0.8531
 1671TIP3   OH226647   6.572   0.135   7.103  0.3794  0.1401  0.1016
 1671TIP3    H126648   6.486   0.163   7.136  0.0175  0.4688 -1.0664
 1671TIP3    H226649   6.635   0.172   7.164 -0.2084  1.6814 -0.1911
 1672TIP3   OH226650   4.014   1.619   0.792 -0.4010  0.4246 -0.0373
 1672TIP3    H126651   3.971   1.648   0.873 -0.4211  3.0094 -0.8784
 1672TIP3    H226652   3.957   1.550   0.758  0.1378 -1.4592  2.5997
 1673TIP3   OH226653   2.360   6.491   8.152 -0.1030  0.2135  0.4519
 1673TIP3    H126654   2.450   6.499   8.183  0.0851 -1.0030  0.2747
 1673TIP3    H226655   2.306   6.495   8.232  0.1096  0.7987  0.5700
 1674TIP3   OH226656   4.270   3.237   0.775  0.1113 -0.0293 -0.0874
 1674TIP3    H126657   4.240   3.312   0.723 -1.1132 -0.8429 -0.6098
 1674TIP3    H226658   4.278   3.166   0.712 -0.8194 -0.8837  0.7262
 1675TIP3   OH226659   3.556   2.968   8.510 -0.2043 -1.0588  0.2305
 1675TIP3    H126660   3.570   3.004   8.423  0.5524  1.2530  1.2038
 1675TIP3    H226661   3.463   2.986   8.529 -0.2835 -1.2589  0.0351
 1676TIP3   OH226662   4.903   1.821   0.839 -0.9560  0.1353  0.2519
 1676TIP3    H126663   4.854   1.880   0.781 -0.2190  0.5493  0.0306
 1676TIP3    H226664   4.908   1.869   0.922 -0.8963  0.1081  0.2635
 1677TIP3   OH226665   5.828   3.459   1.301 -0.1856 -0.1902  0.6893
 1677TIP3    H126666   5.759   3.454   1.367  0.8681 -1.6037  1.7472
 1677TIP3    H226667   5.787   3.428   1.221 -0.6553 -1.5995  1.4426
 1678TIP3   OH226668   4.902   3.685   1.679 -0.4808  0.2130  0.6062
 1678TIP3    H126669   4.936   3.722   1.760  1.0759 -0.9195  0.5251
 1678TIP3    H226670   4.818   3.728   1.666 -0.1573  1.3864  2.1125
 1679TIP3   OH226671   4.944   1.134   7.169 -0.0553  0.1228  0.6610
 1679TIP3    H126672   4.991   1.206   7.127  2.7699 -1.1917  1.3933
 1679TIP3    H226673   4.944   1.156   7.262 -0.7225 -0.0327  0.7089
 1680TIP3   OH226674   0.614   6.469   6.634 -0.8106  0.0044  0.1119
 1680TIP3    H126675   0.698   6.511   6.618 -1.2263  0.4506 -1.0039
 1680TIP3    H226676   0.606   6.404   6.564 -1.2030 -0.3283  0.4594
 1681TIP3   OH226677   5.444   2.146   7.237 -0.0671  0.2758 -0.1213
 1681TIP3    H126678   5.366   2.192   7.268 -1.0050 -0.3946 -1.4175
 1681TIP3    H226679   5.440   2.153   7.141  0.9502 -0.6094 -0.2533
 1682TIP3   OH226680   0.753   4.802   1.290 -0.0143 -0.1381  0.2447
 1682TIP3    H126681   0.814   4.729   1.278 -0.9186 -0.8858  0.1746
 1682TIP3    H226682   0.734   4.803   1.383  1.4292  1.1971  0.5741
 1683TIP3   OH226683   5.541   1.811   0.128  0.1199 -1.2478 -0.2399
 1683TIP3    H126684   5.490   1.835   0.051  1.4025  0.1625 -0.6960
 1683TIP3    H226685   5.496   1.734   0.164 -1.2326 -1.1553 -1.6474
 1684TIP3   OH226686   4.717   6.200   6.776  0.0306  0.0506  0.5273
 1684TIP3    H126687   4.740   6.272   6.835  1.6223 -1.0868  1.3572
 1684TIP3    H226688   4.622   6.208   6.765 -0.2160  0.7620  2.6524
 1685TIP3   OH226689   5.574   6.260   7.684 -0.2061  0.0023  0.4471
 1685TIP3    H126690   5.529   6.215   7.612 -1.1767  0.6591  0.6263
 1685TIP3    H226691   5.527   6.234   7.762  1.0990 -1.0260  0.9156
 1686TIP3   OH226692   4.721   3.962   0.030  0.3670 -0.3346 -1.0471
 1686TIP3    H126693   4.659   3.889   0.018  2.0017 -1.6556 -1.9244
 1686TIP3    H226694   4.703   4.021  -0.044 -0.7614  0.0302 -0.5066
 1687TIP3   OH226695   1.670   1.429   7.574 -0.4559 -0.3028 -0.0831
 1687TIP3    H126696   1.746   1.446   7.629  0.6427 -0.0485 -1.5883
 1687TIP3    H226697   1.599   1.408   7.635  0.9579 -1.1388  1.3526
 1688TIP3   OH226698   6.503   2.541   8.182  0.3341  0.4502 -0.3661
 1688TIP3    H126699   6.505   2.628   8.143 -1.9919  0.8076  0.1152
 1688TIP3    H226700   6.555   2.549   8.262  0.4977  1.2938 -0.5458
 1689TIP3   OH226701   1.042   0.244   7.917 -0.5694 -0.4309 -0.0185
 1689TIP3    H126702   1.017   0.275   8.004 -0.8908  0.1608 -0.3186
 1689TIP3    H226703   0.963   0.254   7.865 -0.4996 -1.1795 -0.2787
 1690TIP3   OH226704   0.429   3.695   1.094  0.0240 -0.4545 -0.1413
 1690TIP3    H126705   0.364   3.637   1.053 -0.6282  1.7948 -2.6071
 1690TIP3    H226706   0.484   3.724   1.021  1.5108  0.5354  1.3080
 1691TIP3   OH226707   2.252   0.818   7.972 -0.1031  0.5107 -0.1673
 1691TIP3    H126708   2.163   0.839   8.000 -0.5121  0.5837 -1.4598
 1691TIP3    H226709   2.305   0.830   8.051 -1.0164  1.8761  0.2829
 1692TIP3   OH226710   2.660   6.018   1.119 -0.0499 -0.2877 -0.4644
 1692TIP3    H126711   2.591   6.015   1.185 -1.3313 -1.8997 -1.7953
 1692TIP3    H226712   2.740   5.996   1.167 -0.7900 -0.4710  0.7326
 1693TIP3   OH226713   4.956   4.133   1.387 -0.2501  0.6059  0.4738
 1693TIP3    H126714   4.989   4.221   1.403  1.7415  0.1067 -0.6311
 1693TIP3    H226715   4.914   4.138   1.301 -0.1254  0.4813  0.4047
 1694TIP3   OH226716   5.277   2.685   7.345 -0.1130  0.0261 -0.0488
 1694TIP3    H126717   5.199   2.733   7.374  0.5372  0.3974  1.1436
 1694TIP3    H226718   5.246   2.596   7.331 -0.6126  0.0106  1.0933
 1695TIP3   OH226719   1.827   2.559   2.353 -0.0977  0.3857  0.3975
 1695TIP3    H126720   1.893   2.491   2.339 -0.8708 -0.2558 -0.3095
 1695TIP3    H226721   1.875   2.641   2.352  0.6978 -0.0764 -0.0249
 1696TIP3   OH226722   5.289   4.890   8.023 -0.1586 -0.1816  0.4264
 1696TIP3    H126723   5.296   4.821   8.089 -3.2578 -0.0975  0.9927
 1696TIP3    H226724   5.273   4.843   7.941  2.7127 -0.2401 -0.2034
 1697TIP3   OH226725   1.816   1.506   6.126  0.0517 -0.2662  0.5060
 1697TIP3    H126726   1.801   1.433   6.186 -0.7285  0.2660  0.9779
 1697TIP3    H226727   1.911   1.517   6.126  0.4134 -2.6608 -1.2744
 1698TIP3   OH226728   6.437   3.765   6.929 -0.1400 -0.2312 -0.7671
 1698TIP3    H126729   6.491   3.844   6.938 -0.3769 -0.2219  0.9449
 1698TIP3    H226730   6.501   3.694   6.922  0.0871 -0.0078 -0.9802
 1699TIP3   OH226731   0.017   0.853   1.485  0.0001  0.1566 -0.2276
 1699TIP3    H126732   0.002   0.760   1.504 -1.3025  0.1352 -1.2497
 1699TIP3    H226733   0.035   0.892   1.571  0.6704 -1.0487  0.1990
 1700TIP3   OH226734   1.762   6.242   6.455  0.6698 -0.4408  0.2269
 1700TIP3    H126735   1.857   6.248   6.449  0.7477 -0.1731  1.4468
 1700TIP3    H226736   1.741   6.282   6.540 -0.4066 -1.7324  0.5940
 1701TIP3   OH226737   5.396   0.650   0.599  0.6041  0.0947 -0.6272
 1701TIP3    H126738   5.382   0.744   0.591 -0.8077 -0.0753 -0.4153
 1701TIP3    H226739   5.308   0.612   0.597  1.1634 -1.2499 -1.0285
 1702TIP3   OH226740   2.049   1.760   0.923 -0.0075  0.8244 -0.2894
 1702TIP3    H126741   1.970   1.760   0.977  1.4440 -0.3217  2.0229
 1702TIP3    H226742   2.119   1.788   0.983  1.5304  0.6321 -1.9083
 1703TIP3   OH226743   3.359   6.633   0.599  0.1416  0.1388  0.1246
 1703TIP3    H126744   3.352   6.671   0.512 -0.0812 -2.3558 -1.0342
 1703TIP3    H226745   3.269   6.632   0.632 -0.1279 -0.9897 -0.6020
 1704TIP3   OH226746   3.107   4.407   0.139  0.7058  0.3528 -0.7530
 1704TIP3    H126747   3.194   4.445   0.150  0.4836  1.4733 -2.5843
 1704TIP3    H226748   3.056   4.442   0.212  0.9117  2.4069 -1.5518
 1705TIP3   OH226749   6.072   5.007   6.407  0.3290 -0.2265  0.4868
 1705TIP3    H126750   6.163   4.979   6.396  0.7540  0.6387  1.6009
 1705TIP3    H226751   6.068   5.093   6.366 -0.1619 -0.5158 -0.0973
 1706TIP3   OH226752   0.407   5.528   1.042  0.2504 -0.5939 -0.1454
 1706TIP3    H126753   0.459   5.558   1.116 -1.0175 -0.5128  0.7465
 1706TIP3    H226754   0.414   5.598   0.977  1.3334 -0.6453 -0.1025
 1707TIP3   OH226755   1.651   2.831   1.313  0.1381  0.2963 -0.2098
 1707TIP3    H126756   1.675   2.739   1.304 -0.5479  0.2028 -1.1756
 1707TIP3    H226757   1.650   2.846   1.408 -1.5368 -1.1867  0.0486
 1708TIP3   OH226758   4.770   5.605   0.546  0.1907 -0.5407 -0.3756
 1708TIP3    H126759   4.704   5.551   0.588  0.6157  0.0926  1.1749
 1708TIP3    H226760   4.821   5.544   0.493 -0.9115 -1.2136 -0.6941
 1709TIP3   OH226761   0.719   3.333   1.112 -0.1675 -0.8501  0.8134
 1709TIP3    H126762   0.676   3.409   1.150  0.5765  0.6269 -1.1386
 1709TIP3    H226763   0.656   3.262   1.123 -2.2090  0.7415 -0.0174
 1710TIP3   OH226764   2.449   1.875   6.598 -0.4926  0.7214 -0.6439
 1710TIP3    H126765   2.388   1.902   6.668 -0.5166 -0.0240 -0.3645
 1710TIP3    H226766   2.397   1.816   6.544 -0.2683  0.7682 -0.9096
 1711TIP3   OH226767   2.422   5.065   1.362  0.3407 -0.3452  0.3173
 1711TIP3    H126768   2.403   5.033   1.274 -1.3907 -0.5576  0.7488
 1711TIP3    H226769   2.341   5.106   1.391  0.9781 -0.0312  1.7121
 1712TIP3   OH226770   6.496   0.089   7.680 -0.6396  0.2778  0.1612
 1712TIP3    H126771   6.465   0.174   7.709  1.2791  0.8987  0.5776
 1712TIP3    H226772   6.440   0.065   7.607 -0.2414  2.6435 -0.9963
 1713TIP3   OH226773   5.230   6.182   0.820  0.3129 -0.5275  0.0420
 1713TIP3    H126774   5.182   6.261   0.842  1.1818 -0.4628  1.8784
 1713TIP3    H226775   5.278   6.204   0.740 -2.1790 -0.4228 -1.5148
 1714TIP3   OH226776   4.301   0.959   0.572  0.0755  0.0063  0.1242
 1714TIP3    H126777   4.251   0.905   0.510  0.4798  0.6494 -0.7859
 1714TIP3    H226778   4.320   0.900   0.645 -1.4243 -0.4430  0.1986
 1715TIP3   OH226779   6.899   2.151   1.014  0.5727  0.1602 -0.5235
 1715TIP3    H126780   6.880   2.083   1.080  1.4815  0.5854  0.1919
 1715TIP3    H226781   6.995   2.155   1.011  0.5283  0.8734 -1.1271
 1716TIP3   OH226782   3.458   6.810   1.680 -0.7447 -0.5066 -0.1512
 1716TIP3    H126783   3.471   6.873   1.609  1.3874  0.0091  0.6340
 1716TIP3    H226784   3.457   6.863   1.760  0.7536 -1.4050  0.5029
 1717TIP3   OH226785   3.587   0.971   7.358 -0.5401  0.4232  0.0668
 1717TIP3    H126786   3.678   0.966   7.328 -0.4876  0.9425  0.1332
 1717TIP3    H226787   3.536   0.985   7.279 -0.3396  2.4779  0.2556
 1718TIP3   OH226788   5.190   6.462   0.254 -0.2507 -0.0024 -0.4035
 1718TIP3    H126789   5.243   6.415   0.190  0.5580  0.6392 -0.2165
 1718TIP3    H226790   5.179   6.549   0.217 -0.0429  0.2755  0.1821
 1719TIP3   OH226791   0.711   0.538   7.705 -0.4793  0.0278 -0.4152
 1719TIP3    H126792   0.768   0.596   7.755 -0.5503  0.7097 -1.1117
 1719TIP3    H226793   0.722   0.566   7.614 -2.7703  0.9781 -0.4835
 1720TIP3   OH226794   2.403   5.415   8.272  0.0019  0.1612 -0.8037
 1720TIP3    H126795   2.486   5.382   8.238  0.6039  1.7140 -0.8935
 1720TIP3    H226796   2.365   5.465   8.199 -0.2388  0.8104 -0.2469
 1721TIP3   OH226797   1.871   1.138   6.090  0.4093 -0.4451 -0.0892
 1721TIP3    H126798   1.923   1.058   6.078  0.2297 -0.5699 -0.0409
 1721TIP3    H226799   1.923   1.206   6.047  0.5610 -0.5886 -0.1376
 1722TIP3   OH226800   1.124   1.160   2.546 -0.5616  0.8174 -0.1707
 1722TIP3    H126801   1.179   1.116   2.611 -0.8932  1.3336  0.4785
 1722TIP3    H226802   1.046   1.104   2.539  0.4146 -0.4066 -1.7814
 1723TIP3   OH226803   6.250   4.489   8.165 -0.3544 -0.1011 -0.0144
 1723TIP3    H126804   6.205   4.442   8.095 -0.6494  0.8425 -0.4723
 1723TIP3    H226805   6.310   4.425   8.202 -2.3832 -1.5838  0.9420
 1724TIP3   OH226806   1.210   4.140   0.856  0.0216  0.3471 -0.3849
 1724TIP3    H126807   1.200   4.083   0.933  0.0468  1.1718  0.2484
 1724TIP3    H226808   1.165   4.220   0.881 -1.4291  0.0479 -1.8948
 1725TIP3   OH226809   3.257   2.926   7.145  0.6194 -0.1609  0.7351
 1725TIP3    H126810   3.183   2.918   7.205  0.8028 -0.4799  0.9149
 1725TIP3    H226811   3.228   2.882   7.065  0.8933 -0.9337  1.0581
 1726TIP3   OH226812   3.763   4.798   7.805 -0.4863 -0.8573  0.1511
 1726TIP3    H126813   3.685   4.838   7.843  0.1094 -0.6965  1.2363
 1726TIP3    H226814   3.820   4.780   7.880  0.8296 -0.3005 -0.6846
 1727TIP3   OH226815   4.610   5.305   8.159  0.4021  0.6971  1.0428
 1727TIP3    H126816   4.603   5.397   8.183  0.0027  0.3521  2.3743
 1727TIP3    H226817   4.568   5.259   8.232 -0.2653 -0.4884 -0.0674
 1728TIP3   OH226818   1.815   3.579   7.147 -0.4235 -0.6300  0.1207
 1728TIP3    H126819   1.818   3.483   7.144 -1.8960 -0.6757 -0.7697
 1728TIP3    H226820   1.846   3.600   7.236  0.7827 -1.8521  0.0360
 1729TIP3   OH226821   6.315   5.947   1.408  0.0784  0.3817  0.5307
 1729TIP3    H126822   6.287   5.861   1.376 -0.7666  0.2426  1.5893
 1729TIP3    H226823   6.243   6.005   1.385 -0.0012  0.5135  1.1037
 1730TIP3   OH226824   0.534   2.721   7.201  0.4168 -0.0094 -0.2974
 1730TIP3    H126825   0.578   2.747   7.120  1.7263 -0.1123  0.3539
 1730TIP3    H226826   0.603   2.723   7.268 -1.0329  2.2156  1.2922
 1731TIP3   OH226827   4.682   5.366   1.281  0.3046  0.1543 -0.1762
 1731TIP3    H126828   4.601   5.358   1.331 -0.2800  1.3836 -0.8769
 1731TIP3    H226829   4.721   5.279   1.285 -1.1131 -0.5067  0.0593
 1732TIP3   OH226830   0.706   4.047   1.048 -0.2163 -0.1137 -0.2184
 1732TIP3    H126831   0.757   3.969   1.024  0.2700  0.3905 -0.8482
 1732TIP3    H226832   0.749   4.079   1.127 -0.6836 -0.7271  0.2912
 1733TIP3   OH226833   5.072   2.714   6.841 -0.4291 -0.1098 -0.2841
 1733TIP3    H126834   5.159   2.742   6.868 -0.0791 -1.7651  0.4395
 1733TIP3    H226835   5.087   2.659   6.764 -0.9969  0.7520 -1.0392
 1734TIP3   OH226836   1.050   3.873   8.341  0.1147  0.0704  0.5108
 1734TIP3    H126837   1.048   3.967   8.356  0.8379  0.1668  0.0525
 1734TIP3    H226838   0.973   3.840   8.387  0.2251  0.7992  1.2461
 1735TIP3   OH226839   0.921   2.360   8.635 -0.6549 -0.4439 -0.0166
 1735TIP3    H126840   0.901   2.310   8.556 -0.4549  1.5659 -1.3937
 1735TIP3    H226841   0.839   2.401   8.660 -0.0493  1.5945 -1.1748
 1736TIP3   OH226842   4.704   1.771   6.813 -0.2981 -0.4498  0.0171
 1736TIP3    H126843   4.616   1.738   6.800 -0.0882 -0.8110 -0.5434
 1736TIP3    H226844   4.693   1.852   6.863 -1.1099  0.5824 -1.7074
 1737TIP3   OH226845   4.675   0.648   6.716  0.2733  0.3294  0.6284
 1737TIP3    H126846   4.738   0.600   6.664 -0.3655 -0.0026  0.1458
 1737TIP3    H226847   4.700   0.630   6.807 -0.1522 -1.2144  0.4689
 1738TIP3   OH226848   4.657   3.320   8.563  0.6196 -0.1721  0.1663
 1738TIP3    H126849   4.591   3.305   8.495  0.1377 -1.0492  0.7951
 1738TIP3    H226850   4.731   3.360   8.517 -0.3136  0.7741 -0.5783
 1739TIP3   OH226851   4.928   6.646   7.751  0.1087  0.2786 -0.0148
 1739TIP3    H126852   4.908   6.736   7.777 -2.2977  0.2970 -1.5367
 1739TIP3    H226853   4.927   6.597   7.833  2.5667  1.7242  0.9928
 1740TIP3   OH226854   4.779   5.619   1.142  0.0218 -0.0629  0.2154
 1740TIP3    H126855   4.705   5.592   1.088  1.8116 -0.5938 -2.1290
 1740TIP3    H226856   4.776   5.561   1.218 -0.8119 -1.4519 -0.8313
 1741TIP3   OH226857   5.951   2.805   0.433  0.3131  0.1422 -0.6725
 1741TIP3    H126858   5.863   2.770   0.417  0.2000 -0.0242  0.2539
 1741TIP3    H226859   5.953   2.821   0.527  1.9674 -1.8472 -0.3005
 1742TIP3   OH226860   2.075   0.785   6.721  0.0822 -0.4684  0.4119
 1742TIP3    H126861   2.083   0.741   6.806 -1.3787 -0.9967  0.2955
 1742TIP3    H226862   2.039   0.719   6.663  1.3935 -0.2208 -0.7435
 1743TIP3   OH226863   2.576   1.436   1.378 -0.2680  0.4822  1.0214
 1743TIP3    H126864   2.535   1.404   1.297 -2.0138  0.9612  1.6650
 1743TIP3    H226865   2.607   1.524   1.355  0.8760 -0.0641  0.3926
 1744TIP3   OH226866   1.661   1.073   0.302  0.1530  0.2884  0.3055
 1744TIP3    H126867   1.676   0.978   0.295 -1.9271 -0.0387 -0.4278
 1744TIP3    H226868   1.672   1.092   0.395 -0.7069 -0.9487  0.6871
 1745TIP3   OH226869   2.619   5.287   0.364 -0.1410 -0.0125  0.8665
 1745TIP3    H126870   2.686   5.292   0.296 -0.5557 -2.0905  0.2333
 1745TIP3    H226871   2.537   5.308   0.318 -0.2904 -0.3856  0.9644
 1746TIP3   OH226872   6.120   6.466   0.506  0.1370 -0.1770  0.4742
 1746TIP3    H126873   6.119   6.397   0.572  2.1666 -0.3567  0.3939
 1746TIP3    H226874   6.034   6.507   0.512 -0.8470 -2.2146  1.0415
 1747TIP3   OH226875   1.288   4.092   0.216 -0.3835  0.1783  0.2433
 1747TIP3    H126876   1.307   4.130   0.130  0.2016  0.0294  0.2971
 1747TIP3    H226877   1.375   4.078   0.255 -0.6076 -0.5655  0.5002
 1748TIP3   OH226878   1.890   0.417   7.788  0.1961 -0.6759 -0.6249
 1748TIP3    H126879   1.847   0.466   7.718 -0.6472 -2.5176 -1.4597
 1748TIP3    H226880   1.928   0.485   7.844  2.0879  0.9014 -3.5292
 1749TIP3   OH226881   2.252   6.306   6.528  0.5523  0.1666 -0.0431
 1749TIP3    H126882   2.264   6.338   6.439  1.0675 -0.5467 -0.2344
 1749TIP3    H226883   2.173   6.351   6.559 -0.1846 -0.2916 -1.1991
 1750TIP3   OH226884   1.549   1.944   1.714  0.0021 -0.1171 -0.2924
 1750TIP3    H126885   1.583   1.877   1.654 -0.5991  0.4148 -1.2476
 1750TIP3    H226886   1.618   1.954   1.779  0.0841 -1.6884 -0.1110
 1751TIP3   OH226887   3.184   1.092   7.192  0.4170  0.8366  0.5320
 1751TIP3    H126888   3.158   1.167   7.245  1.3411  1.8844 -0.4376
 1751TIP3    H226889   3.219   1.130   7.112 -0.4835 -0.6746 -0.6552
 1752TIP3   OH226890   1.668   4.369   8.621  0.2049 -0.6037 -0.0569
 1752TIP3    H126891   1.705   4.292   8.579  1.8165  0.1833 -0.1758
 1752TIP3    H226892   1.668   4.436   8.553  1.2419  0.2000  0.6986
 1753TIP3   OH226893   5.120   4.963   7.773  0.0076  0.0515  0.3140
 1753TIP3    H126894   5.040   4.911   7.779  1.3506 -2.1510  0.1175
 1753TIP3    H226895   5.190   4.903   7.797  1.7084  1.6661 -0.3266
 1754TIP3   OH226896   0.416   4.298   6.292 -0.1456  0.0495 -0.4456
 1754TIP3    H126897   0.368   4.244   6.354 -0.5233  2.4047  1.4657
 1754TIP3    H226898   0.497   4.249   6.276 -0.3070 -0.9409  1.4472
 1755TIP3   OH226899   2.761   0.694   1.077  0.2013  0.0208  0.8297
 1755TIP3    H126900   2.833   0.646   1.118  0.8372  0.9129  0.7989
 1755TIP3    H226901   2.778   0.786   1.099 -0.9135  0.2540  0.7876
 1756TIP3   OH226902   3.001   3.492   1.752 -0.2087  0.5213  0.4703
 1756TIP3    H126903   3.034   3.422   1.696 -1.1822 -0.4961  1.1351
 1756TIP3    H226904   2.989   3.451   1.838 -2.2954  1.0806  0.4836
 1757TIP3   OH226905   6.472   4.042   6.813 -0.0363 -0.5315 -0.2242
 1757TIP3    H126906   6.529   4.068   6.885  2.0659  0.4729 -2.1284
 1757TIP3    H226907   6.502   4.094   6.739 -2.4801 -1.0996 -1.7201
 1758TIP3   OH226908   2.100   0.644   6.936 -0.4714  0.1964 -0.6169
 1758TIP3    H126909   2.157   0.646   7.012  0.4464  0.5902 -1.2882
 1758TIP3    H226910   2.023   0.594   6.964 -0.5892  1.1611  0.8413
 1759TIP3   OH226911   4.768   0.615   7.455  0.3397  0.7694 -0.2439
 1759TIP3    H126912   4.744   0.645   7.368 -1.6575  0.9790  0.3240
 1759TIP3    H226913   4.742   0.686   7.514  1.8680  0.7385  0.5356
 1760TIP3   OH226914   1.137   4.068   7.022  1.1100 -0.2828  0.0905
 1760TIP3    H126915   1.094   4.125   7.086 -1.7229  0.1525 -2.0111
 1760TIP3    H226916   1.104   3.981   7.041  1.7958 -0.4888  0.3825
 1761TIP3   OH226917   6.494   3.240   0.081  0.2730 -0.1072 -0.3721
 1761TIP3    H126918   6.562   3.273   0.139  1.5088 -1.0332 -1.2447
 1761TIP3    H226919   6.541   3.190   0.014 -1.3131 -1.5732 -0.4808
 1762TIP3   OH226920   0.344   6.136   6.731  0.2712  0.0229  0.3907
 1762TIP3    H126921   0.330   6.100   6.643  0.3769  1.3568 -0.2004
 1762TIP3    H226922   0.395   6.215   6.716  1.5046 -0.4646  1.7923
 1763TIP3   OH226923   4.832   1.139   0.192 -0.0331  0.3351  0.3837
 1763TIP3    H126924   4.768   1.191   0.241  0.1197  1.5396 -0.6484
 1763TIP3    H226925   4.854   1.067   0.251 -1.1395  0.7822  1.3907
 1764TIP3   OH226926   0.689   3.622   1.702  0.0717  0.4688  0.6619
 1764TIP3    H126927   0.774   3.647   1.738 -0.0646 -1.0674  2.1774
 1764TIP3    H226928   0.625   3.665   1.759 -0.1699  0.2031  0.5913
 1765TIP3   OH226929   1.434   1.041   6.549 -0.2943  0.2143  0.0373
 1765TIP3    H126930   1.350   1.023   6.508  0.9154  0.7770 -2.9861
 1765TIP3    H226931   1.474   0.954   6.561 -0.6176  0.0375 -0.1480
 1766TIP3   OH226932   1.898   2.256   8.677  0.3292  0.3431  0.1633
 1766TIP3    H126933   1.888   2.208   8.595 -0.5408  1.2396 -0.2802
 1766TIP3    H226934   1.813   2.245   8.721 -0.0951  1.9034 -0.2078
 1767TIP3   OH226935   3.962   0.490   0.552 -0.1034  0.1648  1.1826
 1767TIP3    H126936   4.013   0.478   0.632 -0.1462  1.2630  1.3971
 1767TIP3    H226937   3.885   0.435   0.564  0.7207 -1.0255  1.1272
 1768TIP3   OH226938   3.356   0.070   6.451 -0.4847 -0.0786 -1.1829
 1768TIP3    H126939   3.339  -0.021   6.430 -3.4124 -0.3055  1.3856
 1768TIP3    H226940   3.436   0.068   6.504 -0.5809 -1.1720 -1.0546
 1769TIP3   OH226941   5.787   3.202   1.482 -0.3801  0.4236  0.2123
 1769TIP3    H126942   5.707   3.253   1.476 -0.4933  0.1497 -0.7766
 1769TIP3    H226943   5.830   3.234   1.562 -0.8919  1.3972  0.1111
 1770TIP3   OH226944   4.693   2.357   1.873 -0.6425  0.6608 -0.5785
 1770TIP3    H126945   4.694   2.350   1.969  1.6014  0.6485 -0.5369
 1770TIP3    H226946   4.708   2.449   1.856 -0.5141  0.5788 -0.9041
 1771TIP3   OH226947   6.236   6.790   7.109  0.3230 -0.3282  0.2713
 1771TIP3    H126948   6.163   6.839   7.072  0.3870 -0.5006 -0.0916
 1771TIP3    H226949   6.255   6.833   7.192  1.0425  0.9166 -0.5144
 1772TIP3   OH226950   5.264   1.034   7.770  0.1921 -0.5654 -0.1922
 1772TIP3    H126951   5.235   0.946   7.797 -3.2868  0.2265 -0.8335
 1772TIP3    H226952   5.237   1.041   7.679  1.0099  0.9696 -0.3486
 1773TIP3   OH226953   6.019   1.442   1.025 -0.8188  0.0792 -0.3160
 1773TIP3    H126954   5.992   1.525   0.986  0.4224  0.6097 -0.0958
 1773TIP3    H226955   5.991   1.448   1.117 -3.1981 -0.9208 -0.9066
 1774TIP3   OH226956   2.019   3.302   1.534  0.1786 -0.1038 -0.4120
 1774TIP3    H126957   1.971   3.219   1.527 -0.9941  0.5969 -0.9346
 1774TIP3    H226958   1.966   3.365   1.485  1.0322  0.9686 -0.0002
 1775TIP3   OH226959   5.630   1.898   6.941 -0.0588 -0.4012  0.8580
 1775TIP3    H126960   5.589   1.935   6.863  0.1949  0.0124  0.9203
 1775TIP3    H226961   5.655   1.809   6.914 -0.0130 -0.2768  0.4848
 1776TIP3   OH226962   0.140   3.840   0.877 -0.3544  0.2971 -0.1785
 1776TIP3    H126963   0.107   3.896   0.947  0.8208  0.7650  0.0299
 1776TIP3    H226964   0.082   3.765   0.877 -1.1731  0.9108  0.4124
 1777TIP3   OH226965   2.611   6.225   2.250 -0.0370  0.2102 -0.1224
 1777TIP3    H126966   2.565   6.278   2.186  2.3051  1.1421 -1.1715
 1777TIP3    H226967   2.581   6.135   2.234 -1.0129  0.7030 -1.1134
 1778TIP3   OH226968   0.218   4.444   8.624 -0.4532 -0.7511  0.6357
 1778TIP3    H126969   0.218   4.532   8.662 -0.8173 -0.3727 -0.2294
 1778TIP3    H226970   0.254   4.389   8.694  1.4564  0.3451  0.5859
 1779TIP3   OH226971   4.204   0.969   8.259 -0.2785 -0.0369 -0.9277
 1779TIP3    H126972   4.126   0.915   8.271 -0.7724  0.7425 -0.5841
 1779TIP3    H226973   4.237   0.943   8.173 -0.3452 -1.0800 -0.6528
 1780TIP3   OH226974   2.185   5.399   0.037 -0.0828  0.0596 -0.9336
 1780TIP3    H126975   2.189   5.475   0.095 -0.8390  0.3528 -1.2640
 1780TIP3    H226976   2.198   5.434  -0.051 -0.3231 -0.2143 -1.0789
 1781TIP3   OH226977   3.986   3.511   6.518 -0.0153  0.0125 -0.2713
 1781TIP3    H126978   4.036   3.435   6.487  0.2473 -0.3966  1.0801
 1781TIP3    H226979   4.051   3.566   6.563  0.0313  1.6532 -2.2290
 1782TIP3   OH226980   0.165   3.206   6.514  0.4932  0.2959 -0.1943
 1782TIP3    H126981   0.208   3.264   6.451  0.8641 -0.4583 -0.6550
 1782TIP3    H226982   0.137   3.131   6.462 -1.2953  0.7000  0.1207
 1783TIP3   OH226983   3.885   0.631   2.008  0.3707  0.5545 -0.1090
 1783TIP3    H126984   3.838   0.701   2.054  1.1144  1.1093 -0.1685
 1783TIP3    H226985   3.977   0.643   2.033  0.6368  0.1775 -0.8586
 1784TIP3   OH226986   2.939   2.515   2.195 -0.4515  0.1373  0.6660
 1784TIP3    H126987   3.026   2.555   2.191  0.4330 -1.7386 -1.1218
 1784TIP3    H226988   2.956   2.420   2.189 -2.6416 -0.2121 -2.3632
 1785TIP3   OH226989   2.546   2.303   7.024 -0.3514 -0.4291  0.2830
 1785TIP3    H126990   2.490   2.380   7.035 -0.4996 -0.5222  0.1814
 1785TIP3    H226991   2.528   2.250   7.102  0.7480  0.2639  1.0229
 1786TIP3   OH226992   0.505   3.585   7.392  0.3547 -0.6675  0.5799
 1786TIP3    H126993   0.517   3.491   7.395 -1.2889 -0.9229  3.2905
 1786TIP3    H226994   0.410   3.597   7.383  0.4155  0.6523  1.3540
 1787TIP3   OH226995   4.421   2.622   7.128  0.3251  0.8457 -0.4849
 1787TIP3    H126996   4.332   2.591   7.143  0.7791 -0.3806 -0.2232
 1787TIP3    H226997   4.455   2.567   7.058  1.0982  0.8333 -0.1150
 1788TIP3   OH226998   3.809   2.819   0.309  0.1264  0.6232  0.2835
 1788TIP3    H126999   3.854   2.896   0.343 -0.8545  1.2440  0.2019
 1788TIP3    H227000   3.784   2.842   0.220  0.5652 -0.1124 -0.0447
 1789TIP3   OH227001   4.681   3.204   7.338 -0.4700 -0.9672 -0.0102
 1789TIP3    H127002   4.662   3.125   7.287 -0.0053 -0.5444 -0.8574
 1789TIP3    H227003   4.704   3.270   7.273 -1.0112 -0.0742  0.6802
 1790TIP3   OH227004   1.816   5.667   1.815 -0.0808  0.0645 -0.4154
 1790TIP3    H127005   1.757   5.594   1.833 -0.6200  0.9256  1.6456
 1790TIP3    H227006   1.903   5.628   1.813 -0.5000 -0.8622 -1.0099
 1791TIP3   OH227007   5.182   0.517   6.049 -0.4574  0.1950 -0.4577
 1791TIP3    H127008   5.202   0.547   6.137 -2.0586  0.6128 -0.2069
 1791TIP3    H227009   5.119   0.581   6.015 -1.7282 -1.2709 -0.9833
 1792TIP3   OH227010   5.062   0.655   0.850  1.0728  0.3980  0.3875
 1792TIP3    H127011   5.099   0.619   0.770  0.9834  1.3681 -0.0967
 1792TIP3    H227012   5.132   0.708   0.888  0.7866  0.7429  0.4350
 1793TIP3   OH227013   4.978   1.043   1.381  0.0766  0.2479 -0.2672
 1793TIP3    H127014   5.071   1.036   1.361  0.4835  1.8246  0.8116
 1793TIP3    H227015   4.976   1.072   1.472 -1.5305 -1.4951  0.3035
 1794TIP3   OH227016   3.438   2.870   1.799  0.1989 -0.1582  0.2479
 1794TIP3    H127017   3.474   2.894   1.884 -0.9945 -0.3789  0.8284
 1794TIP3    H227018   3.445   2.950   1.747 -2.0374  1.0146  1.5885
 1795TIP3   OH227019   5.445   1.568   2.410 -0.1449 -0.1357  0.0666
 1795TIP3    H127020   5.400   1.515   2.345 -1.5368  0.5490  0.4291
 1795TIP3    H227021   5.536   1.571   2.380 -0.3972 -1.2826 -0.8732
 1796TIP3   OH227022   2.739   2.563   2.350 -0.2333 -0.3854  0.2061
 1796TIP3    H127023   2.795   2.585   2.275 -0.5281  2.9095  0.8011
 1796TIP3    H227024   2.671   2.506   2.313  0.6144 -0.2890 -1.6292
 1797TIP3   OH227025   3.501   6.761   2.220 -0.0210 -0.1494 -0.1725
 1797TIP3    H127026   3.587   6.733   2.186 -1.0582 -0.6002 -2.6568
 1797TIP3    H227027   3.507   6.856   2.225  0.8673 -0.2225  0.4648
 1798TIP3   OH227028   0.357   5.759   6.621  0.5378 -0.0862 -0.0706
 1798TIP3    H127029   0.302   5.831   6.591  0.3870 -0.3684 -0.4756
 1798TIP3    H227030   0.445   5.796   6.626  0.4004  0.2205  0.0577
 1799TIP3   OH227031   4.851   6.319   0.954  0.3045 -0.2937  0.6502
 1799TIP3    H127032   4.813   6.336   1.040  1.6873 -0.3873  1.3207
 1799TIP3    H227033   4.780   6.335   0.892  0.2598  3.6092  1.4980
 1800TIP3   OH227034   6.120   3.033   7.214 -0.0894 -0.5316 -0.4045
 1800TIP3    H127035   6.034   3.036   7.173 -0.1971 -0.5947 -0.1853
 1800TIP3    H227036   6.107   2.984   7.295  0.3293 -1.2878 -0.7807
 1801TIP3   OH227037   3.290   2.664   0.990  1.0738  0.4361 -0.3586
 1801TIP3    H127038   3.321   2.649   1.080 -0.1596  1.4432  0.2645
 1801TIP3    H227039   3.363   2.708   0.947  1.7457 -0.2064  0.0880
 1802TIP3   OH227040   2.783   6.644   8.111 -0.3217 -0.3491  0.2538
 1802TIP3    H127041   2.747   6.576   8.168 -0.0602  0.1205  0.9891
 1802TIP3    H227042   2.735   6.633   8.029 -0.0242 -1.6601  0.2252
 1803TIP3   OH227043   6.623   1.887   0.540  0.7456 -0.4581 -0.2301
 1803TIP3    H127044   6.655   1.816   0.484 -0.5923 -1.6041  0.3820
 1803TIP3    H227045   6.530   1.867   0.553  1.5849 -2.5828  5.5077
 1804TIP3   OH227046   5.972   0.488   6.746  0.2644  0.1492 -0.0459
 1804TIP3    H127047   5.880   0.486   6.720 -0.4792  0.0872  2.4141
 1804TIP3    H227048   5.983   0.412   6.802  1.5974  0.6158  0.3618
 1805TIP3   OH227049   0.172   1.330   7.714 -0.8417  0.0018 -0.3349
 1805TIP3    H127050   0.133   1.248   7.685  1.1341 -0.7428 -1.0815
 1805TIP3    H227051   0.265   1.309   7.729 -0.7095  1.5741  1.6332
 1806TIP3   OH227052   5.940   3.748   6.761  0.0460 -0.2722  0.5941
 1806TIP3    H127053   5.880   3.674   6.772 -0.1747  0.0624  1.7189
 1806TIP3    H227054   5.884   3.818   6.727  0.1241 -0.4223  0.1486
 1807TIP3   OH227055   1.458   0.298   7.436 -0.5758 -0.6349 -0.0718
 1807TIP3    H127056   1.408   0.229   7.394  0.5991 -1.8596  0.4534
 1807TIP3    H227057   1.497   0.347   7.363 -1.6503 -0.3131 -0.4520
 1808TIP3   OH227058   6.414   4.614   1.550  0.2762 -0.0419 -0.5022
 1808TIP3    H127059   6.469   4.689   1.574  0.3003 -0.5695  1.1632
 1808TIP3    H227060   6.335   4.654   1.513  0.3510  0.8131  0.2345
 1809TIP3   OH227061   5.810   1.687   1.677 -0.3378  0.0664  0.0167
 1809TIP3    H127062   5.841   1.599   1.700  0.7656  0.3552 -0.3490
 1809TIP3    H227063   5.880   1.725   1.624  0.1368  1.9118  1.8052
 1810TIP3   OH227064   5.857   0.747   6.343 -0.3953  0.4705  0.1417
 1810TIP3    H127065   5.875   0.835   6.310  1.3304  0.2646  0.4429
 1810TIP3    H227066   5.791   0.761   6.412 -1.6626  1.2581 -1.1647
 1811TIP3   OH227067   6.808   3.675   0.905 -0.4264  0.6319  0.7885
 1811TIP3    H127068   6.714   3.691   0.907 -0.4416  0.5516  0.7009
 1811TIP3    H227069   6.823   3.613   0.976 -0.6789 -0.6319 -0.2196
 1812TIP3   OH227070   5.534   0.337   0.686  0.3616  0.0590 -0.2824
 1812TIP3    H127071   5.571   0.254   0.719  0.6276  0.0414 -0.6217
 1812TIP3    H227072   5.469   0.310   0.621 -2.0482 -0.0242  1.9821
 1813TIP3   OH227073   6.369   1.992   7.008  0.4823  0.3738  0.2526
 1813TIP3    H127074   6.387   2.071   6.958  2.7324  0.5405  1.2133
 1813TIP3    H227075   6.396   1.920   6.951 -1.3075  0.2586 -0.5131
 1814TIP3   OH227076   1.560   4.191   7.948  0.1258 -0.0772  0.0627
 1814TIP3    H127077   1.535   4.246   8.022  1.0142 -0.5398  0.7213
 1814TIP3    H227078   1.500   4.217   7.878  0.0405  1.1953  0.5787
 1815TIP3   OH227079   2.051   4.224   6.118  0.0305  0.5603  0.6777
 1815TIP3    H127080   2.080   4.296   6.174 -0.9392  1.2733  0.2985
 1815TIP3    H227081   2.000   4.168   6.176 -1.2635  1.4775  0.4743
 1816TIP3   OH227082   1.544   4.200   1.685  0.8995  0.4934 -0.1878
 1816TIP3    H127083   1.516   4.257   1.756  1.4261  0.1446  0.3112
 1816TIP3    H227084   1.624   4.159   1.717  0.0456 -1.2247 -0.1666
 1817TIP3   OH227085   1.889   5.064   8.499 -0.7446  0.4923  1.2170
 1817TIP3    H127086   1.957   5.070   8.567 -0.0622  0.1905  0.5805
 1817TIP3    H227087   1.896   5.147   8.452 -0.0568  0.0219  0.4651
 1818TIP3   OH227088   0.460   5.602   6.954  0.1791  0.9817  0.2174
 1818TIP3    H127089   0.525   5.598   6.884 -0.7488  0.1776 -0.6283
 1818TIP3    H227090   0.479   5.526   7.009 -1.6678 -0.9152 -1.5677
 1819TIP3   OH227091   5.419   0.779   7.615  0.1892 -0.0030  0.1161
 1819TIP3    H127092   5.473   0.708   7.581  1.9229  0.8165  1.0570
 1819TIP3    H227093   5.438   0.853   7.558 -0.0137  0.2672  0.3968
 1820TIP3   OH227094   3.244   0.845   7.330  0.3460  0.3290  0.0005
 1820TIP3    H127095   3.331   0.885   7.333  1.2450 -1.4300 -1.0628
 1820TIP3    H227096   3.244   0.780   7.400  0.4308 -0.6595 -0.8933
 1821TIP3   OH227097   3.566   3.703   0.891  0.0532 -0.4091 -0.2019
 1821TIP3    H127098   3.494   3.669   0.837 -0.4603  0.6703 -0.2194
 1821TIP3    H227099   3.644   3.690   0.837 -0.3163 -0.3132 -0.7667
 1822TIP3   OH227100   1.378   6.420   7.487  0.0489 -0.0491  0.3177
 1822TIP3    H127101   1.400   6.513   7.493 -0.9053  0.0807  3.3008
 1822TIP3    H227102   1.445   6.376   7.539 -1.4044 -0.6269  1.7609
 1823TIP3   OH227103   1.606   4.047   0.061  0.5360  0.1325 -0.5320
 1823TIP3    H127104   1.621   4.067   0.154 -0.2063 -1.8418  0.0738
 1823TIP3    H227105   1.526   4.094   0.039 -1.1711 -1.9281  0.8378
 1824TIP3   OH227106   3.102   5.199   1.887  0.3008 -0.3036 -0.0869
 1824TIP3    H127107   3.040   5.249   1.940  1.9966  1.3733  0.4483
 1824TIP3    H227108   3.182   5.197   1.939  0.8533 -2.0158 -0.9347
 1825TIP3   OH227109   4.077   3.283   0.426  0.2438  0.0978 -0.2785
 1825TIP3    H127110   4.142   3.340   0.386 -0.0370  1.2396  0.8476
 1825TIP3    H227111   4.128   3.220   0.478  0.5173 -0.2400 -0.9451
 1826TIP3   OH227112   2.688   5.398   6.638 -0.0550 -0.4231 -0.3308
 1826TIP3    H127113   2.780   5.405   6.615 -0.0607  1.1506 -0.0246
 1826TIP3    H227114   2.643   5.384   6.555  0.2170  1.8668 -0.9441
 1827TIP3   OH227115   3.071   1.251   1.843  0.4017 -0.6470  0.6237
 1827TIP3    H127116   2.978   1.242   1.862  0.3801 -0.9438  0.3750
 1827TIP3    H227117   3.115   1.199   1.910  0.3927 -0.4529  0.7812
 1828TIP3   OH227118   3.901   1.322   8.340 -0.3355  0.2130 -0.6823
 1828TIP3    H127119   3.915   1.232   8.368 -0.8326  0.4334  0.3500
 1828TIP3    H227120   3.970   1.339   8.277  0.0886 -0.7179 -0.4876
 1829TIP3   OH227121   1.171   5.248   7.909 -0.0302  0.2065  0.0122
 1829TIP3    H127122   1.079   5.234   7.930 -0.1928  1.0756 -0.1215
 1829TIP3    H227123   1.216   5.177   7.956 -0.8507 -0.8777 -0.7844
 1830TIP3   OH227124   5.767   5.676   6.846  0.5426 -1.0922  0.2912
 1830TIP3    H127125   5.807   5.601   6.889  2.2835 -0.9073 -0.8746
 1830TIP3    H227126   5.832   5.703   6.780 -0.6766  0.5048 -0.3292
 1831TIP3   OH227127   3.661   3.407   1.113 -0.4328 -0.0572 -0.6601
 1831TIP3    H127128   3.605   3.330   1.124 -0.9284  0.1833 -1.3977
 1831TIP3    H227129   3.677   3.411   1.019  0.4987  0.1144 -0.4990
 1832TIP3   OH227130   2.698   5.054   0.568 -0.2714  0.1799 -0.4550
 1832TIP3    H127131   2.665   5.132   0.522 -0.8194  0.2389  0.0265
 1832TIP3    H227132   2.702   5.080   0.660 -1.4809 -0.6799 -0.1347
 1833TIP3   OH227133   0.660   0.358   0.163 -0.4871 -0.1172 -0.0437
 1833TIP3    H127134   0.593   0.423   0.140 -0.0202  1.1361  1.8492
 1833TIP3    H227135   0.740   0.410   0.175 -0.1256 -1.0006  1.6781
 1834TIP3   OH227136   2.435   4.505   1.287  0.2975  0.1419  0.1731
 1834TIP3    H127137   2.434   4.413   1.263 -2.4896 -0.2037  1.1826
 1834TIP3    H227138   2.452   4.506   1.382  1.7830  0.8122 -0.0684
 1835TIP3   OH227139   0.363   4.132   8.016 -0.0686 -0.0706 -0.0376
 1835TIP3    H127140   0.406   4.123   8.101  0.0694 -0.3666 -0.1369
 1835TIP3    H227141   0.288   4.189   8.033 -0.0847 -0.1886  0.2989
 1836TIP3   OH227142   3.924   6.697   8.052  0.1846 -0.1663  0.3477
 1836TIP3    H127143   3.990   6.763   8.032 -1.1985  0.9031 -0.8014
 1836TIP3    H227144   3.970   6.613   8.043  1.9421  0.5809  1.7697
 1837TIP3   OH227145   2.697   2.062   6.374 -0.4226 -0.2020 -0.5902
 1837TIP3    H127146   2.607   2.091   6.391 -0.5007 -0.9045  0.2710
 1837TIP3    H227147   2.687   1.978   6.330 -0.2104 -1.0201  0.8584
 1838TIP3   OH227148   3.425   0.036   1.925 -0.8147  0.1135 -0.0366
 1838TIP3    H127149   3.455   0.066   2.011  0.7098  0.2451 -0.5753
 1838TIP3    H227150   3.352   0.093   1.903  0.1088  1.4671  0.2865
 1839TIP3   OH227151   4.939   1.642   1.386 -0.3779  1.1698  0.3099
 1839TIP3    H127152   4.943   1.729   1.346 -0.8095  0.7844 -0.5936
 1839TIP3    H227153   4.942   1.582   1.312  2.3269  0.3105  0.9995
 1840TIP3   OH227154   6.271   1.882   1.948 -0.1487 -0.0808 -0.3178
 1840TIP3    H127155   6.306   1.961   1.989 -1.8087  2.2441 -3.0377
 1840TIP3    H227156   6.180   1.878   1.976 -0.3882 -0.3601 -1.1119
 1841TIP3   OH227157   6.578   1.928   7.192  0.1551  0.7097 -0.1505
 1841TIP3    H127158   6.615   1.909   7.105  0.7112  1.1122 -0.0120
 1841TIP3    H227159   6.497   1.974   7.173  0.0437  0.3930 -0.4627
 1842TIP3   OH227160   2.369   0.965   6.959 -0.1766 -0.2080  0.6424
 1842TIP3    H127161   2.388   1.055   6.987 -0.4394 -0.2904  1.0815
 1842TIP3    H227162   2.443   0.914   6.991 -1.0175 -0.4944  2.1779
 1843TIP3   OH227163   3.303   2.895   7.918 -0.0738 -0.1964  0.5057
 1843TIP3    H127164   3.303   2.858   8.006  1.8543  0.5621  0.8938
 1843TIP3    H227165   3.336   2.824   7.862 -0.5285 -0.4268  0.5317
 1844TIP3   OH227166   6.233   6.634   1.110  0.1803 -0.3619  0.0896
 1844TIP3    H127167   6.271   6.547   1.112  0.9293 -0.0562 -0.5389
 1844TIP3    H227168   6.308   6.694   1.111 -0.2967  0.4020  3.6488
 1845TIP3   OH227169   3.877   6.317   7.452 -0.0990 -0.0736  0.4249
 1845TIP3    H127170   3.878   6.233   7.407  1.3659 -1.5755  3.0389
 1845TIP3    H227171   3.785   6.339   7.462 -0.4925 -1.2769 -0.4063
 1846TIP3   OH227172   6.761   2.087   2.221 -0.3257 -0.1560  0.0320
 1846TIP3    H127173   6.824   2.024   2.254 -0.3999  0.0031  0.4880
 1846TIP3    H227174   6.706   2.108   2.297 -0.4240  0.3069 -0.1632
 1847TIP3   OH227175   3.233   2.284   0.569 -0.4727 -0.2354  0.2167
 1847TIP3    H127176   3.226   2.374   0.598  0.4567 -0.2074  0.3862
 1847TIP3    H227177   3.151   2.267   0.522 -0.4205  0.8650 -0.3018
 1848TIP3   OH227178   5.867   1.964   8.179  0.1703  0.0547  0.4910
 1848TIP3    H127179   5.785   2.006   8.154 -0.1256 -0.2614  0.9123
 1848TIP3    H227180   5.916   1.958   8.097 -0.1263  0.4640  0.2777
 1849TIP3   OH227181   4.688   6.242   0.155  0.7618 -0.3628  0.0714
 1849TIP3    H127182   4.668   6.242   0.248 -0.1725  0.6350 -0.1136
 1849TIP3    H227183   4.780   6.269   0.150  0.3672  1.1903  0.6436
 1850TIP3   OH227184   6.240   3.197   8.581 -0.4948  0.0561 -0.3552
 1850TIP3    H127185   6.226   3.229   8.670 -0.6078 -0.6010 -0.1300
 1850TIP3    H227186   6.333   3.212   8.565 -0.6497  0.9644 -0.4512
 1851TIP3   OH227187   4.352   1.344   8.319  0.1957  0.0948 -0.0400
 1851TIP3    H127188   4.401   1.400   8.258 -0.0847 -0.1340 -0.4768
 1851TIP3    H227189   4.290   1.403   8.361  0.4461  0.2698  0.0855
 1852TIP3   OH227190   1.154   2.820   1.026  0.0688  0.2038  0.0656
 1852TIP3    H127191   1.233   2.862   1.061 -0.7428  2.3098 -0.4996
 1852TIP3    H227192   1.186   2.765   0.955  1.2789 -0.9964  1.4468
 1853TIP3   OH227193   1.849   4.180   0.275 -0.0646 -0.2698  0.1587
 1853TIP3    H127194   1.906   4.103   0.274  0.5064  0.1371  0.6834
 1853TIP3    H227195   1.828   4.194   0.367  0.6133  0.7549  0.1739
 1854TIP3   OH227196   6.655   5.515   6.099  0.4588  0.4932 -0.1336
 1854TIP3    H127197   6.726   5.510   6.035  0.9500  1.4238  0.3284
 1854TIP3    H227198   6.575   5.504   6.048  0.9197 -0.3913 -0.6820
 1855TIP3   OH227199   5.977   3.745   8.269 -0.0105 -0.0421  0.2356
 1855TIP3    H127200   5.985   3.653   8.244 -1.6749 -0.6970  1.9146
 1855TIP3    H227201   5.924   3.784   8.200 -0.1954 -0.5824  0.0676
 1856TIP3   OH227202   1.681   2.303   6.516  0.3400 -0.5373 -0.4629
 1856TIP3    H127203   1.705   2.300   6.608 -0.2388 -0.1976 -0.3014
 1856TIP3    H227204   1.715   2.221   6.480  0.9221 -0.4852 -0.0407
 1857TIP3   OH227205   0.306   5.233   6.876 -0.0668  0.0875 -0.0844
 1857TIP3    H127206   0.386   5.274   6.910  0.5831 -1.1876 -0.0437
 1857TIP3    H227207   0.301   5.149   6.921 -1.1172 -0.0968 -0.5268
 1858TIP3   OH227208   6.749   1.691   1.326 -0.2848  0.0332  0.6453
 1858TIP3    H127209   6.721   1.720   1.239 -0.5126 -0.1796  0.6465
 1858TIP3    H227210   6.690   1.734   1.386 -0.1502  0.1506  0.6946
 1859TIP3   OH227211   5.607   4.867   0.044  0.0909 -0.0906  0.2094
 1859TIP3    H127212   5.585   4.774   0.048  2.8700 -0.8678 -0.2990
 1859TIP3    H227213   5.645   4.886   0.130  1.6670 -0.0738 -0.4704
 1860TIP3   OH227214   0.575   3.617   0.078  0.1666 -0.3150 -0.1397
 1860TIP3    H127215   0.667   3.623   0.106  0.4136  1.5299 -1.2109
 1860TIP3    H227216   0.530   3.580   0.154  1.4448  0.8631  1.2684
 1861TIP3   OH227217   3.400   1.537   8.428  0.1732  0.1301  0.0264
 1861TIP3    H127218   3.469   1.475   8.408 -2.1247 -2.2918 -0.9837
 1861TIP3    H227219   3.432   1.584   8.505  3.3926  0.0304 -1.1072
 1862TIP3   OH227220   0.985   2.898   1.763 -0.7028  0.8467 -0.2139
 1862TIP3    H127221   0.972   2.984   1.725  0.4949  2.1565  2.1480
 1862TIP3    H227222   1.016   2.914   1.852  0.9259 -1.9960 -0.1146
 1863TIP3   OH227223   4.058   6.451   8.000  0.3343  0.3791 -0.1415
 1863TIP3    H127224   4.104   6.408   8.072 -0.2199  1.0554  0.6222
 1863TIP3    H227225   4.089   6.405   7.921  1.6521  0.2465  0.4308
 1864TIP3   OH227226   3.180   4.650   7.088 -0.0834 -0.1995 -0.7491
 1864TIP3    H127227   3.096   4.685   7.118  0.8215  0.4028  1.2981
 1864TIP3    H227228   3.202   4.583   7.153  0.4327 -1.2687 -1.9801
 1865TIP3   OH227229   1.703   6.529   1.109 -0.5394 -0.2909  0.1049
 1865TIP3    H127230   1.773   6.537   1.174 -0.6797 -0.2363  0.2503
 1865TIP3    H227231   1.628   6.573   1.149 -1.7147 -3.2748  1.4355
 1866TIP3   OH227232   5.316   1.617   8.332 -0.1731  0.6757  0.0422
 1866TIP3    H127233   5.254   1.606   8.260 -0.0172 -0.1306  0.0239
 1866TIP3    H227234   5.270   1.671   8.396 -0.9348 -0.0016  0.0801
 1867TIP3   OH227235   1.785   5.344   1.838  0.3717  0.0324  0.3339
 1867TIP3    H127236   1.867   5.296   1.837  0.8996  0.9181 -0.1817
 1867TIP3    H227237   1.733   5.301   1.906  1.2497 -0.5393  0.6613
 1868TIP3   OH227238   0.538   0.978   0.175  0.1149 -0.6928  0.4463
 1868TIP3    H127239   0.612   1.002   0.231  0.8410 -1.7276 -0.0274
 1868TIP3    H227240   0.471   1.044   0.194  1.7396  1.3123 -0.3192
 1869TIP3   OH227241   6.380   1.023   0.972 -0.4936  0.1529 -0.9133
 1869TIP3    H127242   6.328   1.100   0.994  1.2036  1.0752  0.0829
 1869TIP3    H227243   6.345   0.953   1.027 -0.6736  0.7624 -0.2395
 1870TIP3   OH227244   2.602   2.439   2.128  0.3939 -0.1498 -0.2531
 1870TIP3    H127245   2.531   2.384   2.095  1.5934 -1.5078 -0.6756
 1870TIP3    H227246   2.570   2.529   2.119 -0.7092 -0.6625 -1.7531
 1871TIP3   OH227247   5.377   6.400   1.525  0.0461 -0.4960  0.2884
 1871TIP3    H127248   5.398   6.332   1.461  0.8987 -0.8223  0.8922
 1871TIP3    H227249   5.292   6.374   1.561 -0.6575 -0.0755 -0.9950
 1872TIP3   OH227250   6.369   1.186   8.660  0.3015 -0.1272  0.1180
 1872TIP3    H127251   6.362   1.103   8.613  0.0398 -1.0713  1.7428
 1872TIP3    H227252   6.316   1.174   8.739  1.3511  1.0917  1.0646
 1873TIP3   OH227253   6.081   1.861   0.190  0.4180  0.2744  0.4478
 1873TIP3    H127254   5.994   1.828   0.165  0.0427  0.9962  0.7792
 1873TIP3    H227255   6.129   1.782   0.215  0.0196 -0.1899 -0.1885
 1874TIP3   OH227256   5.829   4.370   7.584 -0.2770  0.2852  0.2490
 1874TIP3    H127257   5.897   4.416   7.535  0.1779  0.2740  0.8554
 1874TIP3    H227258   5.768   4.338   7.518  1.1573 -1.1200 -0.4674
 1875TIP3   OH227259   3.721   2.307   7.720 -0.1102  0.7084 -0.6126
 1875TIP3    H127260   3.807   2.340   7.694  0.7635 -0.3898  0.7297
 1875TIP3    H227261   3.671   2.302   7.638  0.6781  2.4765 -1.2514
 1876TIP3   OH227262   2.893   0.230   7.410  0.1643  0.4693 -0.5216
 1876TIP3    H127263   2.826   0.297   7.420 -0.0926  0.2549 -0.7816
 1876TIP3    H227264   2.850   0.160   7.361  0.4629  0.1657 -0.3602
 1877TIP3   OH227265   4.911   5.150   8.516  0.1954 -0.0695  0.1113
 1877TIP3    H127266   4.887   5.158   8.608 -1.4397  0.4366 -0.3364
 1877TIP3    H227267   5.004   5.125   8.518  0.1617 -0.1770  1.8806
 1878TIP3   OH227268   4.125   2.699   2.307 -0.3175 -0.3080 -0.2483
 1878TIP3    H127269   4.195   2.763   2.299 -1.3475  0.7696 -0.9989
 1878TIP3    H227270   4.053   2.735   2.256 -1.0494 -1.9263 -0.4352
 1879TIP3   OH227271   0.081   1.596   1.413  0.1757 -0.1333  0.1940
 1879TIP3    H127272   0.013   1.656   1.382 -0.6324 -0.7198  0.7736
 1879TIP3    H227273   0.135   1.578   1.336 -0.7411 -0.1881 -0.4476
 1880TIP3   OH227274   3.813   0.913   1.537 -0.9235 -0.3967  0.0343
 1880TIP3    H127275   3.822   0.821   1.560  0.2324 -0.2684  0.1207
 1880TIP3    H227276   3.889   0.932   1.482 -1.3551  0.4087 -0.2978
 1881TIP3   OH227277   3.859   1.476   8.600 -0.4492  0.2315 -0.0223
 1881TIP3    H127278   3.850   1.392   8.556 -0.8115  0.5010 -0.4766
 1881TIP3    H227279   3.951   1.481   8.625 -0.0280  0.4604 -1.5357
 1882TIP3   OH227280   3.174   4.796   0.722  0.3721  0.0763  0.3184
 1882TIP3    H127281   3.194   4.804   0.815  0.9992 -2.0523  0.4193
 1882TIP3    H227282   3.211   4.874   0.682  1.1666  0.4323  1.7087
 1883TIP3   OH227283   4.537   1.567   1.459  0.1084 -0.3995  0.0933
 1883TIP3    H127284   4.538   1.644   1.515  1.7890 -0.7125  0.5319
 1883TIP3    H227285   4.471   1.509   1.499  0.6510 -0.2471  1.2443
 1884TIP3   OH227286   1.611   5.103   8.262  0.1596  0.2531  0.1487
 1884TIP3    H127287   1.544   5.084   8.328  0.4427 -1.5053 -0.0416
 1884TIP3    H227288   1.663   5.173   8.301 -1.3969  1.2511  0.5563
 1885TIP3   OH227289   3.105   3.963   0.107 -0.0277 -0.3368  0.3872
 1885TIP3    H127290   3.198   3.977   0.085 -0.0947  0.7636  0.7598
 1885TIP3    H227291   3.107   3.904   0.182  0.3648 -0.4871  0.2612
 1886TIP3   OH227292   2.177   3.703   7.237  0.3991  0.7454  0.3118
 1886TIP3    H127293   2.171   3.645   7.162 -0.1082  0.0761  0.8588
 1886TIP3    H227294   2.175   3.645   7.313 -0.0588  1.4650  0.8696
 1887TIP3   OH227295   4.276   0.138   1.028 -0.3672 -0.8356  0.3124
 1887TIP3    H127296   4.338   0.087   1.081  0.0451 -1.1822 -0.4966
 1887TIP3    H227297   4.313   0.138   0.940 -0.6518  0.3856  0.1643
 1888TIP3   OH227298   3.588   6.641   1.487  0.4550  0.1682 -0.1912
 1888TIP3    H127299   3.585   6.733   1.463  3.2688  0.8627  1.6472
 1888TIP3    H227300   3.536   6.636   1.568 -1.7078 -0.4268 -1.5385
 1889TIP3   OH227301   0.766   1.544   7.476 -0.2968 -0.5004 -0.3911
 1889TIP3    H127302   0.692   1.531   7.416  0.1194  1.1020 -1.3017
 1889TIP3    H227303   0.829   1.595   7.426  0.0736  0.8995  1.3895
 1890TIP3   OH227304   2.787   2.482   7.509 -0.0396 -0.0314 -0.5712
 1890TIP3    H127305   2.695   2.485   7.533  0.2940 -0.4086  0.8715
 1890TIP3    H227306   2.789   2.508   7.417 -1.6154 -0.3776 -0.7316
 1891TIP3   OH227307   3.028   1.464   0.302  0.7485 -0.2922  0.0686
 1891TIP3    H127308   3.025   1.485   0.396 -0.9861 -3.2735  0.8048
 1891TIP3    H227309   2.936   1.466   0.274  1.1176 -0.7693 -1.2404
 1892TIP3   OH227310   2.020   6.798   0.341  0.4388  0.8238  0.1702
 1892TIP3    H127311   2.056   6.804   0.429  2.7012 -0.0273 -0.6103
 1892TIP3    H227312   1.993   6.707   0.332  3.7527 -0.2122 -1.1259
 1893TIP3   OH227313   6.250   2.198   0.720  0.1910  0.4429 -0.6337
 1893TIP3    H127314   6.277   2.272   0.775  1.2409 -0.3754  0.0065
 1893TIP3    H227315   6.316   2.131   0.738  1.3387  0.5517 -3.8354
 1894TIP3   OH227316   1.555   2.228   8.611 -0.9136 -0.2499  0.0234
 1894TIP3    H127317   1.591   2.209   8.524 -0.2185 -3.5091  0.9002
 1894TIP3    H227318   1.462   2.204   8.604 -1.2872  1.2191 -0.2720
 1895TIP3   OH227319   0.399   4.720   7.725  0.0467 -0.0439  0.3407
 1895TIP3    H127320   0.467   4.788   7.720  1.0816 -1.0704 -0.1766
 1895TIP3    H227321   0.436   4.647   7.676 -1.7948 -0.3564 -0.6774
 1896TIP3   OH227322   1.334   2.567   7.646 -0.4421  0.1461  0.3409
 1896TIP3    H127323   1.379   2.552   7.563 -0.0142  0.7121  0.4680
 1896TIP3    H227324   1.326   2.662   7.652  0.7876  0.2078  1.5897
 1897TIP3   OH227325   2.284   5.560   0.904 -0.2344  0.4308  1.1339
 1897TIP3    H127326   2.240   5.601   0.830  0.2924 -2.4302 -0.9157
 1897TIP3    H227327   2.365   5.611   0.915  0.0977  0.3945 -0.8616
 1898TIP3   OH227328   6.022   0.882   0.495 -0.2265  0.4824  0.7599
 1898TIP3    H127329   6.067   0.808   0.536 -1.9751 -0.5274  0.9759
 1898TIP3    H227330   6.034   0.955   0.556  0.5955  0.0754  1.0915
 1899TIP3   OH227331   1.302   2.538   0.058  0.2580  0.1894  0.0136
 1899TIP3    H127332   1.370   2.513  -0.004 -0.3494 -1.2879 -0.1114
 1899TIP3    H227333   1.297   2.634   0.052  2.0964  0.2936 -0.1718
 1900TIP3   OH227334   4.964   5.555   6.616  0.2173 -0.3474 -0.0936
 1900TIP3    H127335   4.983   5.470   6.576  1.1017  0.1951 -0.8617
 1900TIP3    H227336   5.027   5.615   6.577 -0.9448  0.8502 -0.2048
 1901TIP3   OH227337   6.667   6.323   0.379 -0.0315 -0.0399  0.0005
 1901TIP3    H127338   6.651   6.300   0.288 -0.7436 -1.0700  0.3778
 1901TIP3    H227339   6.679   6.240   0.424 -0.3113  0.4280  0.9694
 1902TIP3   OH227340   5.108   2.085   8.468 -0.0553  0.4359  0.4166
 1902TIP3    H127341   5.094   2.180   8.472  0.7828  0.5461  1.0105
 1902TIP3    H227342   5.176   2.074   8.402 -0.8732  0.1499 -0.3931
 1903TIP3   OH227343   0.058   5.572   1.280 -0.5483  0.4249 -0.0646
 1903TIP3    H127344   0.145   5.557   1.317 -1.0160 -0.9634  0.5606
 1903TIP3    H227345   0.001   5.514   1.330 -1.6953  0.6763 -1.0400
 1904TIP3   OH227346   5.134   2.328   1.073  0.0320 -0.8725  0.3629
 1904TIP3    H127347   5.228   2.328   1.058  0.1447 -0.7450  1.0471
 1904TIP3    H227348   5.118   2.250   1.127 -0.3158 -1.1329 -0.1054
 1905TIP3   OH227349   3.711   4.064   6.092 -0.5571  0.0783  0.7397
 1905TIP3    H127350   3.733   4.014   6.171 -0.1955  0.7866  1.0888
 1905TIP3    H227351   3.775   4.134   6.089 -0.6824  0.1676 -0.0908
 1906TIP3   OH227352   4.774   5.105   1.309 -0.0339 -0.6407 -0.8447
 1906TIP3    H127353   4.803   5.079   1.221  0.5450 -2.2087 -0.2198
 1906TIP3    H227354   4.732   5.028   1.345 -0.3082 -0.0035  0.2589
 1907TIP3   OH227355   2.699   6.578   6.395  0.1564  0.1264 -0.1968
 1907TIP3    H127356   2.730   6.544   6.478  0.2768 -0.5048 -0.4975
 1907TIP3    H227357   2.703   6.673   6.405 -0.5814  0.0687  0.7987
 1908TIP3   OH227358   2.444   2.057   1.619  1.2517  0.2018  0.0064
 1908TIP3    H127359   2.475   2.143   1.647  0.8268  0.0790  0.8860
 1908TIP3    H227360   2.442   2.005   1.699  2.1466 -0.8463 -0.6105
 1909TIP3   OH227361   0.161   4.349   0.847  1.1900  0.2640  0.2059
 1909TIP3    H127362   0.241   4.309   0.812  1.2585  1.7402 -1.5111
 1909TIP3    H227363   0.090   4.298   0.808  1.1702 -1.8711  2.7283
 1910TIP3   OH227364   0.322   0.093   0.951 -0.5004 -0.6146  0.0280
 1910TIP3    H127365   0.310   0.180   0.991 -1.7141 -0.5705 -0.3940
 1910TIP3    H227366   0.246   0.043   0.980 -0.5638 -1.0874 -0.9193
 1911TIP3   OH227367   5.341   3.916   8.383  0.1799 -0.3608 -0.4071
 1911TIP3    H127368   5.391   3.859   8.441  0.0786 -0.5976 -0.5487
 1911TIP3    H227369   5.255   3.874   8.376 -0.1895  0.2735  0.1798
 1912TIP3   OH227370   1.514   6.102   6.341  0.7794  0.4352  0.6989
 1912TIP3    H127371   1.571   6.056   6.279 -0.1125  0.2863 -0.0282
 1912TIP3    H227372   1.572   6.164   6.385  1.6785 -0.3132  0.5977
 1913TIP3   OH227373   1.276   0.087   7.056 -0.5377  0.2644  0.3779
 1913TIP3    H127374   1.292   0.015   6.995 -1.0843  0.2877  0.2050
 1913TIP3    H227375   1.195   0.064   7.100 -2.3794  2.1545 -1.7610
 1914TIP3   OH227376   3.336   1.607   1.859 -0.0104  0.0555 -0.1211
 1914TIP3    H127377   3.304   1.674   1.799 -0.8830 -0.1199  0.1403
 1914TIP3    H227378   3.332   1.525   1.809  2.9742  0.4154 -1.1534
 1915TIP3   OH227379   1.864   2.860   8.184  0.1763  0.3602  0.0066
 1915TIP3    H127380   1.895   2.871   8.274 -0.1388  0.6488  0.0791
 1915TIP3    H227381   1.901   2.935   8.137 -0.4147  0.7025  0.0918
 1916TIP3   OH227382   4.976   5.660   7.167  0.0114 -0.0638 -0.2142
 1916TIP3    H127383   4.944   5.571   7.149 -0.6796  0.5229 -2.1623
 1916TIP3    H227384   4.954   5.676   7.258 -0.5360 -1.6059 -0.0430
 1917TIP3   OH227385   5.019   3.861   7.480 -0.0512 -0.3732 -0.4061
 1917TIP3    H127386   5.002   3.953   7.460 -1.7960 -0.8874 -1.5487
 1917TIP3    H227387   4.952   3.837   7.544  0.4832 -0.8194 -0.0028
 1918TIP3   OH227388   1.755   6.275   0.974 -0.1770  0.1081  0.0805
 1918TIP3    H127389   1.667   6.284   0.938 -0.1774  1.1826  0.3104
 1918TIP3    H227390   1.769   6.356   1.024  1.2624  0.3619 -0.6711
 1919TIP3   OH227391   4.680   2.552   7.824  0.4273  0.4587  0.3359
 1919TIP3    H127392   4.734   2.482   7.860 -0.0917  0.5044  1.2415
 1919TIP3    H227393   4.616   2.506   7.768 -0.8518  0.0068  2.0713
 1920TIP3   OH227394   4.494   6.047   0.888 -0.1597  0.3241  0.0011
 1920TIP3    H127395   4.431   6.019   0.955 -0.9458  1.0938 -0.3936
 1920TIP3    H227396   4.576   6.004   0.913 -0.4350  0.5931  1.4547
 1921TIP3   OH227397   3.823   2.949   6.217  0.2639 -0.1273 -0.4017
 1921TIP3    H127398   3.739   2.920   6.251  0.4251  2.2954  2.4837
 1921TIP3    H227399   3.888   2.900   6.268  0.5100  2.2037  1.6964
 1922TIP3   OH227400   4.990   1.811   2.269  0.8893 -0.2159  0.4896
 1922TIP3    H127401   4.945   1.856   2.340  1.4324  1.8337 -0.4015
 1922TIP3    H227402   4.921   1.797   2.203  1.1725  1.5945 -0.2532
 1923TIP3   OH227403   6.005   6.503   8.178  0.1632 -0.4885  0.2343
 1923TIP3    H127404   5.984   6.420   8.223  0.0293  0.1851  1.4614
 1923TIP3    H227405   6.050   6.555   8.244 -0.3913  0.6944 -0.2978
 1924TIP3   OH227406   1.988   0.553   7.288  0.3657  0.0475 -0.1174
 1924TIP3    H127407   1.929   0.478   7.289 -0.2511  0.5212 -0.5431
 1924TIP3    H227408   2.042   0.541   7.210 -0.6312  0.7252 -0.9285
 1925TIP3   OH227409   3.842   5.644   0.952 -0.1880  0.2009  0.5796
 1925TIP3    H127410   3.780   5.704   0.912 -0.2833 -0.7531 -0.7643
 1925TIP3    H227411   3.866   5.686   1.035 -0.1478  2.1362 -0.3605
 1926TIP3   OH227412   1.529   1.138   7.823  0.5019 -0.1662  0.0497
 1926TIP3    H127413   1.465   1.139   7.751  0.3537 -0.0542  0.1819
 1926TIP3    H227414   1.540   1.231   7.845  1.5538 -0.0834 -0.7179
 1927TIP3   OH227415   4.195   1.766   1.373 -0.6102 -0.9968  0.2410
 1927TIP3    H127416   4.154   1.846   1.341 -0.0420 -0.7822  0.0347
 1927TIP3    H227417   4.226   1.721   1.295  2.1791  0.2866  0.4719
 1928TIP3   OH227418   3.992   5.883   7.936 -0.6755  0.5221 -0.1878
 1928TIP3    H127419   3.906   5.889   7.894 -0.4993  0.6772 -0.5278
 1928TIP3    H227420   4.009   5.789   7.942 -0.3174  0.5110 -1.2545
 1929TIP3   OH227421   0.342   6.205   8.361  0.2078  0.1849 -0.1752
 1929TIP3    H127422   0.363   6.149   8.436 -0.2354  1.2852  0.8001
 1929TIP3    H227423   0.405   6.277   8.366  0.7236 -0.1630 -1.3712
 1930TIP3   OH227424   4.695   3.560   0.023  0.0176 -0.1277  0.3238
 1930TIP3    H127425   4.788   3.569   0.004 -0.2688  1.6564 -0.4529
 1930TIP3    H227426   4.676   3.468   0.004  1.4514 -0.3280 -0.2854
 1931TIP3   OH227427   2.824   2.890   7.859 -0.1425  0.2247 -0.8763
 1931TIP3    H127428   2.890   2.835   7.816 -1.0018 -1.1462 -0.5064
 1931TIP3    H227429   2.756   2.829   7.888  0.7281  0.8760  3.1969
 1932TIP3   OH227430   1.809   3.266   7.567  0.7341 -0.5200  0.2562
 1932TIP3    H127431   1.811   3.171   7.550 -0.5145 -0.7582  1.2816
 1932TIP3    H227432   1.901   3.290   7.580  0.9834 -1.8305  1.1403
 1933TIP3   OH227433   6.391   1.449   8.145 -0.0784 -0.1149  0.3155
 1933TIP3    H127434   6.329   1.480   8.079 -0.9019 -0.0131  1.1148
 1933TIP3    H227435   6.343   1.455   8.228  0.8020 -0.5994  0.8793
 1934TIP3   OH227436   2.458   1.559   1.132 -0.0257 -0.3803 -0.2724
 1934TIP3    H127437   2.491   1.615   1.062  0.2864 -0.7000 -0.3806
 1934TIP3    H227438   2.442   1.620   1.205  1.9862 -0.3415  0.2206
 1935TIP3   OH227439   0.124   4.344   7.696 -0.2955  0.1842  0.1241
 1935TIP3    H127440   0.116   4.252   7.721  1.6770 -0.1236 -0.1496
 1935TIP3    H227441   0.210   4.349   7.653  0.0244  2.3251  0.8918
 1936TIP3   OH227442   2.462   3.162   1.554  0.6133  0.6186 -0.3358
 1936TIP3    H127443   2.437   3.069   1.557 -0.7535  0.9883  0.3935
 1936TIP3    H227444   2.424   3.193   1.472  0.0572  0.7916 -0.0205
 1937TIP3   OH227445   6.734   3.943   0.322 -1.1094 -0.0819  0.1035
 1937TIP3    H127446   6.775   3.915   0.404 -0.3403  1.2987  0.2251
 1937TIP3    H227447   6.682   4.019   0.347  0.1527  1.1572 -0.8652
 1938TIP3   OH227448   2.126   1.519   0.660  0.0093  0.3504 -0.2694
 1938TIP3    H127449   2.033   1.538   0.649 -0.2873 -0.1824  1.1434
 1938TIP3    H227450   2.140   1.439   0.610 -0.2457  0.5424 -0.6505
 1939TIP3   OH227451   6.716   0.502   6.957 -0.4151  0.1969 -0.1754
 1939TIP3    H127452   6.628   0.508   6.921 -1.1643 -0.3613  1.4509
 1939TIP3    H227453   6.749   0.417   6.927 -1.1173 -0.3645  0.5855
 1940TIP3   OH227454   3.839   0.313   1.143  0.1322  0.5472  0.2999
 1940TIP3    H127455   3.928   0.303   1.177  0.0503 -0.7137  0.1951
 1940TIP3    H227456   3.850   0.312   1.048  0.1342  1.8486  0.2653
 1941TIP3   OH227457   4.783   3.475   7.552 -0.1965  0.0018  0.1299
 1941TIP3    H127458   4.812   3.518   7.632 -1.1762  0.2714  0.3460
 1941TIP3    H227459   4.853   3.492   7.489 -0.9014  2.6856 -0.0624
 1942TIP3   OH227460   0.843   6.246   0.259  1.1776  0.4594 -0.8609
 1942TIP3    H127461   0.848   6.172   0.199  0.5648  0.1434 -0.5311
 1942TIP3    H227462   0.924   6.240   0.310  1.1797  0.0647 -0.9021
 1943TIP3   OH227463   4.956   4.233   0.721  0.1772 -0.0725  0.2688
 1943TIP3    H127464   4.909   4.313   0.743  0.6569  0.0188  1.0043
 1943TIP3    H227465   4.892   4.179   0.674 -1.0910 -0.5130  2.4049
 1944TIP3   OH227466   4.380   2.247   1.121  0.1778  0.4709 -0.2383
 1944TIP3    H127467   4.322   2.201   1.181 -0.6153  3.1416  1.1865
 1944TIP3    H227468   4.456   2.188   1.113 -0.1089 -0.4800  2.6001
 1945TIP3   OH227469   0.105   6.804   5.967  0.2775 -0.0346 -0.1506
 1945TIP3    H127470   0.013   6.791   5.942  0.1492  1.5191 -0.6061
 1945TIP3    H227471   0.102   6.875   6.032  1.1977  0.4186 -0.5910
 1946TIP3   OH227472   4.333   3.994   1.352  0.0262 -0.1827 -0.1392
 1946TIP3    H127473   4.237   3.998   1.355 -0.0814  0.2427 -2.3584
 1946TIP3    H227474   4.353   3.901   1.362 -0.6914 -0.4026 -0.6171
 1947TIP3   OH227475   4.879   2.851   0.697 -0.0970 -0.5415 -0.3866
 1947TIP3    H127476   4.840   2.932   0.729  0.8087  0.8893 -2.6431
 1947TIP3    H227477   4.960   2.841   0.747 -0.3094 -0.1459  0.0386
 1948TIP3   OH227478   3.337   0.648   8.405  0.2078 -0.7145 -0.1764
 1948TIP3    H127479   3.375   0.577   8.458  1.8144 -1.1257 -1.8142
 1948TIP3    H227480   3.310   0.605   8.324 -0.6994  0.2111 -0.3847
 1949TIP3   OH227481   5.849   5.870   1.198 -0.2066  0.0187  0.4950
 1949TIP3    H127482   5.861   5.783   1.236 -0.0881  0.0482  0.5273
 1949TIP3    H227483   5.760   5.895   1.223  0.4325  0.7537  2.2708
 1950TIP3   OH227484   6.239   6.701   0.347  0.4515  0.0154 -0.2267
 1950TIP3    H127485   6.333   6.701   0.366  0.5166 -1.2705 -0.4461
 1950TIP3    H227486   6.211   6.610   0.363 -0.8013  0.4214  0.0559
 1951TIP3   OH227487   5.671   2.681   0.374  0.1822 -0.3686  0.4207
 1951TIP3    H127488   5.620   2.612   0.333  0.3671  0.9036 -2.0963
 1951TIP3    H227489   5.611   2.720   0.437 -1.3677 -0.1130 -1.1443
 1952TIP3   OH227490   4.687   4.804   2.049 -0.1238 -0.3203 -0.1121
 1952TIP3    H127491   4.620   4.752   2.004 -0.3064  0.1522 -0.3898
 1952TIP3    H227492   4.711   4.751   2.126 -0.3278 -0.7977 -0.3746
 1953TIP3   OH227493   1.180   6.208   6.224  0.3613  0.1040  0.1433
 1953TIP3    H127494   1.255   6.250   6.183 -0.0501 -0.4933 -1.3299
 1953TIP3    H227495   1.110   6.273   6.218  0.0426 -0.3024 -1.0679
 1954TIP3   OH227496   1.276   2.174   7.586 -0.3776 -0.3710 -0.2565
 1954TIP3    H127497   1.313   2.256   7.554  2.5456 -0.3690  2.5323
 1954TIP3    H227498   1.215   2.200   7.655  0.3001 -0.4715  0.3990
 1955TIP3   OH227499   1.646   1.634   8.626  0.3593  0.2086  0.3231
 1955TIP3    H127500   1.721   1.605   8.677 -0.5129  0.3586  1.7301
 1955TIP3    H227501   1.577   1.571   8.645 -0.1508  0.5722 -0.2595
 1956TIP3   OH227502   4.726   0.069   7.345  0.3710 -0.3027 -0.4921
 1956TIP3    H127503   4.797   0.013   7.376  0.0408 -0.1251  0.6324
 1956TIP3    H227504   4.692   0.025   7.267  0.7567 -1.1373 -0.1913
 1957TIP3   OH227505   4.560   4.519   7.465 -0.4935  0.0676  0.4099
 1957TIP3    H127506   4.493   4.542   7.529 -0.2447  1.4842  0.2140
 1957TIP3    H227507   4.512   4.487   7.390 -0.9704  0.9890  0.3040
 1958TIP3   OH227508   6.176   6.134   0.594 -0.1445 -0.2909 -0.3653
 1958TIP3    H127509   6.250   6.080   0.624  1.4127  2.1544  0.4392
 1958TIP3    H227510   6.106   6.115   0.657  0.9723 -0.0360  0.9953
 1959TIP3   OH227511   4.715   1.727   6.218 -0.4089 -0.0016 -0.5382
 1959TIP3    H127512   4.795   1.675   6.229 -1.2683 -1.2180  0.2224
 1959TIP3    H227513   4.661   1.675   6.157 -0.6454  0.7861 -1.0163
 1960TIP3   OH227514   2.926   0.604   0.541 -0.4157  0.2334  0.0649
 1960TIP3    H127515   2.858   0.587   0.476 -0.1447 -0.9753  0.0718
 1960TIP3    H227516   2.878   0.620   0.622 -0.7625  1.8915 -0.4306
 1961TIP3   OH227517   0.034   1.866   0.663 -0.2744 -0.0901 -0.3191
 1961TIP3    H127518   0.032   1.960   0.645  1.8450 -0.1162 -0.9776
 1961TIP3    H227519  -0.023   1.827   0.597  1.6640  0.4872 -2.4808
 1962TIP3   OH227520   4.865   3.642   7.154  0.5390  0.3022  0.2772
 1962TIP3    H127521   4.799   3.706   7.127 -0.6447 -0.4142  1.3699
 1962TIP3    H227522   4.892   3.600   7.073 -2.4595 -1.3515 -0.0156
 1963TIP3   OH227523   0.464   1.927   1.020 -0.1048  0.1437  0.2107
 1963TIP3    H127524   0.374   1.919   0.986 -0.5200  2.5367  0.5726
 1963TIP3    H227525   0.468   1.865   1.092 -1.1507 -0.7261 -0.4504
 1964TIP3   OH227526   3.234   4.316   1.040  0.0584  0.3906  0.6428
 1964TIP3    H127527   3.251   4.222   1.028  1.2312  0.7036 -0.3419
 1964TIP3    H227528   3.142   4.327   1.017  0.2356 -0.3331 -0.4823
 1965TIP3   OH227529   1.017   6.513   8.169 -0.7200 -0.4141  0.3220
 1965TIP3    H127530   0.950   6.573   8.135  0.3836 -0.3239 -1.9009
 1965TIP3    H227531   0.972   6.430   8.180 -1.2710 -0.2924 -0.9062
 1966TIP3   OH227532   3.590   6.211   2.343  0.1468 -0.2319  0.6097
 1966TIP3    H127533   3.576   6.281   2.279  1.1853  0.0523  0.6820
 1966TIP3    H227534   3.616   6.256   2.423 -0.2146 -0.6494  0.9703
 1967TIP3   OH227535   3.628   4.865   0.080  0.2159  0.3978  0.6808
 1967TIP3    H127536   3.711   4.904   0.052 -0.8618  1.2166 -1.6645
 1967TIP3    H227537   3.561   4.915   0.034 -1.3591 -3.2433 -1.4827
 1968TIP3   OH227538   4.987   2.019   7.048 -0.3821  0.8013 -0.1650
 1968TIP3    H127539   4.909   2.031   7.102  0.8619  0.9897  1.6812
 1968TIP3    H227540   5.038   2.099   7.061  0.4008  0.4344 -0.8636
 1969TIP3   OH227541   6.835   2.356   0.868 -0.7750  1.0692  0.4144
 1969TIP3    H127542   6.834   2.274   0.917 -1.9068 -1.2145 -3.0420
 1969TIP3    H227543   6.926   2.383   0.868  0.2820 -2.0150 -0.9093
 1970TIP3   OH227544   1.704   1.070   8.112 -0.0573 -0.4934 -0.3029
 1970TIP3    H127545   1.650   1.062   8.034  0.0780  0.9000 -0.5678
 1970TIP3    H227546   1.642   1.079   8.184 -0.2004  0.1949 -0.5009
 1971TIP3   OH227547   3.636   6.488   0.025  0.2851 -0.1657 -0.1095
 1971TIP3    H127548   3.581   6.526  -0.043  0.1545 -0.6635 -0.2857
 1971TIP3    H227549   3.657   6.561   0.083 -1.5842 -0.1750  0.6593
 1972TIP3   OH227550   3.885   2.397   0.739  0.1256 -0.2103  0.2121
 1972TIP3    H127551   3.854   2.450   0.812  1.1727  0.5336  0.1504
 1972TIP3    H227552   3.929   2.460   0.681  1.9627 -1.2040  0.4457
 1973TIP3   OH227553   1.274   5.510   1.989  0.3214 -0.6285  1.0199
 1973TIP3    H127554   1.338   5.443   1.965  0.9255  1.1512 -3.0965
 1973TIP3    H227555   1.197   5.460   2.016  0.3065 -3.2239 -2.9967
 1974TIP3   OH227556   3.684   3.721   1.145 -0.6641 -0.5460  0.3969
 1974TIP3    H127557   3.696   3.626   1.154 -0.8304 -0.4737  1.4378
 1974TIP3    H227558   3.670   3.734   1.051 -3.4659 -1.9162  0.5116
 1975TIP3   OH227559   3.269   4.728   0.982 -0.4510  0.6853 -0.1070
 1975TIP3    H127560   3.258   4.659   1.048 -1.0569  0.4238 -0.4694
 1975TIP3    H227561   3.325   4.793   1.024 -1.5990  0.9984  1.0298
 1976TIP3   OH227562   1.641   6.795   7.237 -0.0833 -0.0565  0.4021
 1976TIP3    H127563   1.620   6.762   7.150 -1.4476 -1.7767  1.3110
 1976TIP3    H227564   1.698   6.728   7.275 -1.1060 -0.3485  1.5001
 1977TIP3   OH227565   4.940   4.592   6.223 -0.4623 -0.1438 -0.3489
 1977TIP3    H127566   5.001   4.526   6.191 -0.5298 -0.1568 -0.4554
 1977TIP3    H227567   4.960   4.670   6.171 -1.2660 -0.4599 -1.1744
 1978TIP3   OH227568   1.905   3.340   0.654  0.0834  0.1235 -0.0232
 1978TIP3    H127569   1.946   3.426   0.662  2.3302 -0.9511  0.8126
 1978TIP3    H227570   1.859   3.327   0.736  0.4080  0.2153  0.1752
 1979TIP3   OH227571   5.710   0.541   1.504 -0.4270  0.2764 -0.0579
 1979TIP3    H127572   5.708   0.589   1.587  0.6810  0.0969  0.0890
 1979TIP3    H227573   5.672   0.601   1.440 -1.8281  0.2045  0.6669
 1980TIP3   OH227574   2.685   0.397   7.477  0.1761  0.3161  0.6658
 1980TIP3    H127575   2.631   0.412   7.554 -0.9559  0.3342 -0.1133
 1980TIP3    H227576   2.624   0.368   7.409  1.3076 -0.8570  0.0933
 1981TIP3   OH227577   4.975   3.617   7.403  0.0851 -0.2982  0.3120
 1981TIP3    H127578   4.941   3.628   7.314  0.0418 -0.3259  0.3253
 1981TIP3    H227579   5.027   3.696   7.418 -3.0428  1.7075  1.6982
 1982TIP3   OH227580   3.216   5.213   1.066  0.5701  1.0479 -0.2605
 1982TIP3    H127581   3.219   5.297   1.112  1.7062 -0.6836  3.1652
 1982TIP3    H227582   3.128   5.178   1.084  1.1462  0.1968  1.0114
 1983TIP3   OH227583   6.749   0.904   6.365  0.4124  0.1068 -0.0758
 1983TIP3    H127584   6.792   0.937   6.286 -0.0441  1.3169  0.1580
 1983TIP3    H227585   6.748   0.979   6.424  2.0458 -1.1474  1.6693
 1984TIP3   OH227586   5.563   3.627   6.989 -0.5728 -0.3227  0.0957
 1984TIP3    H127587   5.467   3.620   6.990 -0.6092 -0.1676  2.1273
 1984TIP3    H227588   5.580   3.721   6.995 -0.3056 -0.4191  0.8790
 1985TIP3   OH227589   6.741   6.660   1.965 -0.4250 -0.0980 -0.2847
 1985TIP3    H127590   6.725   6.649   1.871  0.3416  0.8884 -0.5382
 1985TIP3    H227591   6.705   6.746   1.986 -1.6474 -0.7932  0.5861
 1986TIP3   OH227592   6.351   0.919   2.089 -0.1323  0.2567  0.4698
 1986TIP3    H127593   6.269   0.870   2.083 -0.2438  0.5450 -0.7634
 1986TIP3    H227594   6.378   0.911   2.180 -0.3989 -1.6839  0.4108
 1987TIP3   OH227595   0.293   0.346   7.833 -0.2105  0.0272 -0.6251
 1987TIP3    H127596   0.360   0.410   7.806 -0.8696  0.6258 -0.8786
 1987TIP3    H227597   0.258   0.382   7.914  0.5650 -0.8848  0.1443
 1988TIP3   OH227598   1.093   1.168   0.624 -0.2195 -0.2326 -0.1646
 1988TIP3    H127599   1.051   1.230   0.683  0.2099  0.0773 -0.1849
 1988TIP3    H227600   1.162   1.218   0.580 -1.2310 -0.1692 -1.7423
 1989TIP3   OH227601   1.549   5.233   6.466  0.1091 -0.3490  0.2350
 1989TIP3    H127602   1.586   5.238   6.378  0.4330  0.4042  0.3981
 1989TIP3    H227603   1.464   5.278   6.459 -0.2019 -0.9494  0.1423
 1990TIP3   OH227604   6.574   2.405   7.868  0.6982 -0.1474  0.2185
 1990TIP3    H127605   6.609   2.316   7.870  3.1329  0.6984 -1.2397
 1990TIP3    H227606   6.479   2.393   7.857  1.1953 -2.5912 -2.6351
 1991TIP3   OH227607   2.358   2.620   1.708  0.3055 -0.1372 -0.5310
 1991TIP3    H127608   2.371   2.690   1.773 -0.4012  1.0232 -1.5878
 1991TIP3    H227609   2.300   2.558   1.751 -1.0782  1.1740 -0.4159
 1992TIP3   OH227610   6.290   2.701   6.958  0.1103  0.2206  0.0855
 1992TIP3    H127611   6.282   2.777   6.900 -3.0109 -0.3034 -0.3341
 1992TIP3    H227612   6.311   2.628   6.899  0.2099  0.2613  0.0711
 1993TIP3   OH227613   2.170   5.640   0.175  0.5776 -0.1589 -0.1796
 1993TIP3    H127614   2.212   5.721   0.207  0.9856  0.4490 -2.1155
 1993TIP3    H227615   2.098   5.625   0.235  0.4878  1.6725  0.2357
 1994TIP3   OH227616   3.492   6.871   1.063 -0.0398  0.0970  0.5542
 1994TIP3    H127617   3.440   6.812   1.008  2.2549 -2.1369  0.5955
 1994TIP3    H227618   3.531   6.933   1.002 -1.3485  0.7266  0.3276
 1995TIP3   OH227619   2.180   0.933   2.320 -0.4104  0.1053  0.5313
 1995TIP3    H127620   2.192   1.028   2.316 -2.1575  0.3384  0.1465
 1995TIP3    H227621   2.187   0.912   2.413  1.7443  0.3125  0.4760
 1996TIP3   OH227622   5.855   3.676   6.408  0.6337  0.5000 -0.1428
 1996TIP3    H127623   5.810   3.707   6.487  1.6288  0.8012  0.3303
 1996TIP3    H227624   5.895   3.755   6.372  0.9094  0.2163 -0.4588
 1997TIP3   OH227625   3.652   2.933   1.517  0.1644  0.2165  0.5558
 1997TIP3    H127626   3.661   2.894   1.604  0.0365  1.5994  1.2321
 1997TIP3    H227627   3.590   3.005   1.530  0.8776  1.0524 -0.4705
 1998TIP3   OH227628   6.010   3.913   6.362 -0.4916 -0.0775 -0.3547
 1998TIP3    H127629   6.083   3.951   6.313 -0.2624  0.6666  0.5234
 1998TIP3    H227630   5.971   3.987   6.408  1.1023 -1.0564  2.8986
 1999TIP3   OH227631   4.575   6.049   7.457  0.6598  0.0216  0.1956
 1999TIP3    H127632   4.537   6.028   7.372 -1.1154  1.3689  0.6077
 1999TIP3    H227633   4.507   6.027   7.521  1.6427 -0.1598  1.2154
 2000TIP3   OH227634   2.134   5.835   8.570  0.1891  0.2189  0.0360
 2000TIP3    H127635   2.192   5.765   8.599  0.1894 -0.1145 -0.7589
 2000TIP3    H227636   2.190   5.914   8.571  0.1925  0.2084  0.9037
 2001TIP3   OH227637   1.615   0.923   6.914 -0.0336  0.2620 -0.3232
 2001TIP3    H127638   1.707   0.900   6.931  0.3635  0.5622 -1.8644
 2001TIP3    H227639   1.620   1.009   6.873 -1.0080  0.2506 -0.4727
 2002TIP3   OH227640   6.681   2.611   7.605  0.0241 -0.1452 -0.0948
 2002TIP3    H127641   6.703   2.592   7.514 -1.1816  0.6298 -0.5819
 2002TIP3    H227642   6.612   2.678   7.599 -0.9411 -0.9587  1.3457
 2003TIP3   OH227643   3.743   1.970   0.426  0.0173  0.4203 -0.3697
 2003TIP3    H127644   3.737   2.018   0.508 -0.8988 -0.5211  0.1475
 2003TIP3    H227645   3.707   2.029   0.360  0.0647  0.9008  0.0339
 2004TIP3   OH227646   0.583   6.259   6.439 -0.1693 -0.0316 -0.6307
 2004TIP3    H127647   0.656   6.288   6.384 -2.0423  1.3841 -2.5147
 2004TIP3    H227648   0.545   6.185   6.392 -1.1346  0.4918 -0.6986
 2005TIP3   OH227649   5.609   3.842   1.645 -0.6457  0.0082  0.2363
 2005TIP3    H127650   5.688   3.791   1.664 -0.2055 -0.5556 -2.5930
 2005TIP3    H227651   5.540   3.799   1.695 -0.0485 -2.7331 -1.0784
 2006TIP3   OH227652   3.671   2.584   1.477  0.9231 -0.6028 -0.4321
 2006TIP3    H127653   3.744   2.578   1.416  1.0716  0.4468 -0.3746
 2006TIP3    H227654   3.700   2.535   1.554  1.6288 -0.0842 -0.3545
 2007TIP3   OH227655   6.364   6.858   5.765  0.0658 -0.4216 -0.3542
 2007TIP3    H127656   6.275   6.822   5.764  0.4374 -1.5067  1.1538
 2007TIP3    H227657   6.360   6.930   5.829 -0.7642  2.7159 -3.6090
 2008TIP3   OH227658   6.146   5.155   0.249  0.4058  0.9815  0.1535
 2008TIP3    H127659   6.108   5.137   0.335  0.3663  2.6585  0.5030
 2008TIP3    H227660   6.082   5.210   0.205  0.5424  0.3496 -0.8673
 2009TIP3   OH227661   2.374   4.135   7.010  0.1229  1.0343 -0.3808
 2009TIP3    H127662   2.285   4.121   7.041  0.0842  0.7537 -0.6145
 2009TIP3    H227663   2.412   4.047   7.005  0.6883  1.2106  0.5148
 2010TIP3   OH227664   3.734   0.942   7.872  0.4749 -0.2258  0.5121
 2010TIP3    H127665   3.797   0.929   7.943  1.4254  1.8564  0.1249
 2010TIP3    H227666   3.711   1.035   7.877  0.3774 -0.0801 -1.7287
 2011TIP3   OH227667   5.780   6.349   7.080 -0.3632 -0.2225 -0.1788
 2011TIP3    H127668   5.838   6.425   7.085 -1.0073  0.2834 -0.2340
 2011TIP3    H227669   5.735   6.358   6.996 -1.0430 -0.2062  0.1706
 2012TIP3   OH227670   6.313   4.687   7.326 -0.0020 -0.2872 -0.2412
 2012TIP3    H127671   6.224   4.664   7.298 -0.5228 -0.1775  1.2618
 2012TIP3    H227672   6.334   4.622   7.393  0.4714  0.5787  0.4614
 2013TIP3   OH227673   2.566   3.851   0.512  0.5352 -0.6375 -0.0491
 2013TIP3    H127674   2.578   3.784   0.579 -1.4950  1.1453  2.2928
 2013TIP3    H227675   2.654   3.885   0.496  1.1642 -1.5634  1.2600
 2014TIP3   OH227676   3.314   6.208   8.308 -0.0459 -0.4076 -0.4162
 2014TIP3    H127677   3.262   6.288   8.296  0.7319  0.3832  1.1381
 2014TIP3    H227678   3.395   6.225   8.260 -0.4927 -0.9225 -1.3787
 2015TIP3   OH227679   2.672   5.475   2.247 -0.5571 -0.2904 -0.0637
 2015TIP3    H127680   2.694   5.552   2.300 -0.7914 -0.6925  0.6227
 2015TIP3    H227681   2.640   5.511   2.164 -2.0638  0.3883  0.7853
 2016TIP3   OH227682   5.654   5.563   6.615  0.0908 -0.4378 -0.0637
 2016TIP3    H127683   5.686   5.579   6.703  1.4776  0.9701 -0.7733
 2016TIP3    H227684   5.722   5.507   6.575 -0.0791 -0.3333 -0.5101
 2017TIP3   OH227685   4.582   1.927   8.555 -0.1663 -0.3127 -0.1790
 2017TIP3    H127686   4.532   2.005   8.580  1.2688  1.0770 -1.4355
 2017TIP3    H227687   4.668   1.960   8.531  0.9464 -2.4781  0.5659
 2018TIP3   OH227688   3.824   2.079   6.772 -0.4537 -0.0750 -0.2666
 2018TIP3    H127689   3.852   2.028   6.848 -1.1925 -0.0721  0.0128
 2018TIP3    H227690   3.784   2.014   6.714 -0.8152  0.0881 -0.1981
 2019TIP3   OH227691   5.574   0.096   7.239 -0.4925  0.5949  0.3809
 2019TIP3    H127692   5.485   0.072   7.214 -0.3120 -1.0110  1.1685
 2019TIP3    H227693   5.583   0.068   7.330  1.0545  0.0050  0.0878
 2020TIP3   OH227694   2.038   4.576   8.003  0.0911  0.0079  0.1556
 2020TIP3    H127695   2.062   4.519   7.930  1.3632  1.2050 -0.4119
 2020TIP3    H227696   2.110   4.639   8.009 -0.5539  0.6577  1.7032
 2021TIP3   OH227697   6.626   1.961   8.481 -0.1692  0.5749 -0.3362
 2021TIP3    H127698   6.706   1.969   8.429  0.2133  0.1206  0.1685
 2021TIP3    H227699   6.611   2.049   8.515  0.4935  0.5305  0.1006
 2022TIP3   OH227700   6.422   1.614   7.711 -0.5552 -0.1423 -0.9063
 2022TIP3    H127701   6.426   1.603   7.616 -2.7472  1.9082 -1.3243
 2022TIP3    H227702   6.419   1.709   7.725  1.8322 -0.2686  1.4024
 2023TIP3   OH227703   6.872   3.998   0.652  0.6150 -0.5041 -0.2163
 2023TIP3    H127704   6.935   4.068   0.635  0.6187 -0.4702 -0.0636
 2023TIP3    H227705   6.914   3.944   0.720 -0.8356  1.2873  2.2429
 2024TIP3   OH227706   1.288   5.245   7.340  0.3197 -0.1195  0.0290
 2024TIP3    H127707   1.258   5.179   7.277  0.5571  1.1941 -1.5336
 2024TIP3    H227708   1.375   5.214   7.367 -0.1190 -1.1139  0.3447
 2025TIP3   OH227709   3.380   4.954   7.532  0.2229  0.4463  1.1135
 2025TIP3    H127710   3.290   4.970   7.503  0.3541 -0.5078  0.1363
 2025TIP3    H227711   3.374   4.955   7.628 -1.3177 -2.0966  1.1308
 2026TIP3   OH227712   4.741   5.917   8.556  0.2005  0.1624  0.2806
 2026TIP3    H127713   4.674   5.944   8.619 -2.6824 -0.3918 -2.2948
 2026TIP3    H227714   4.730   5.822   8.549 -0.0238  0.2811 -1.4606
 2027TIP3   OH227715   2.742   3.269   0.401  0.9034  0.9325 -0.5243
 2027TIP3    H127716   2.705   3.281   0.313  0.8232  2.2190 -0.3233
 2027TIP3    H227717   2.725   3.351   0.446 -0.0413 -0.0749  1.0784
 2028TIP3   OH227718   6.463   0.145   0.825 -0.0505  0.5267  0.0465
 2028TIP3    H127719   6.529   0.183   0.883 -0.9619  0.1092  1.4236
 2028TIP3    H227720   6.454   0.055   0.856 -1.3129  0.5992 -0.0632
 2029TIP3   OH227721   4.469   2.960   0.443 -0.5495 -0.0803  0.2977
 2029TIP3    H127722   4.555   2.994   0.418 -0.3941  1.3335  2.4968
 2029TIP3    H227723   4.407   3.009   0.388 -0.0527  0.2717  0.0446
 2030TIP3   OH227724   5.941   1.852   7.211  0.1518 -0.3609 -0.1033
 2030TIP3    H127725   5.923   1.821   7.122 -1.3772 -0.6622  0.2898
 2030TIP3    H227726   5.912   1.943   7.211  2.0217  0.2728 -0.4560
 2031TIP3   OH227727   0.224   1.603   0.415  0.3722 -0.1237  0.1479
 2031TIP3    H127728   0.223   1.688   0.371  2.7916  0.7352  1.5356
 2031TIP3    H227729   0.285   1.550   0.364  0.1693 -0.4608  0.2506
 2032TIP3   OH227730   0.835   2.186   8.455  0.4561 -0.1316 -0.0982
 2032TIP3    H127731   0.765   2.126   8.483  1.6686 -1.0003  1.1937
 2032TIP3    H227732   0.842   2.171   8.360 -0.4962 -0.6808 -0.0944
 2033TIP3   OH227733   3.342   1.537   7.452 -0.0135 -0.6995 -0.0506
 2033TIP3    H127734   3.260   1.560   7.495  1.0221  0.5665  1.3396
 2033TIP3    H227735   3.405   1.603   7.483  1.0918 -0.4483 -2.5795
 2034TIP3   OH227736   5.889   4.127   0.327  0.5410  0.5421  0.4558
 2034TIP3    H127737   5.926   4.165   0.407  2.2891 -0.2398  0.0533
 2034TIP3    H227738   5.955   4.142   0.260 -0.2157 -0.1981 -0.4876
 2035TIP3   OH227739   1.541   2.168   7.755 -0.2467  0.1020 -0.1430
 2035TIP3    H127740   1.545   2.122   7.671 -1.0073  3.1412 -1.9863
 2035TIP3    H227741   1.457   2.212   7.755  0.7791  2.2193  1.0483
 2036TIP3   OH227742   1.377   2.962   0.767 -0.1699 -0.1246 -0.3256
 2036TIP3    H127743   1.284   2.954   0.745 -0.8280  0.8053  1.8309
 2036TIP3    H227744   1.380   2.951   0.862  1.7462  1.1508 -0.1802
 2037TIP3   OH227745   4.712   1.560   1.879 -0.2449 -0.3782 -0.0472
 2037TIP3    H127746   4.625   1.594   1.899 -1.2996 -1.8706 -1.7398
 2037TIP3    H227747   4.727   1.584   1.787  1.5088  0.5547  0.4373
 2038TIP3   OH227748   6.415   5.427   8.029  0.1304  0.2581  0.0628
 2038TIP3    H127749   6.321   5.417   8.016  0.0990  0.8709 -0.2430
 2038TIP3    H227750   6.424   5.448   8.122  0.0927 -1.1687  0.4096
 2039TIP3   OH227751   2.386   0.049   0.087  0.0645  0.1426  0.5349
 2039TIP3    H127752   2.315   0.110   0.109  0.2241  0.0616  1.3003
 2039TIP3    H227753   2.408   0.007   0.170  0.7373 -0.1263  0.2280
 2040TIP3   OH227754   4.863   4.686   1.829 -0.4890 -0.6246 -0.4157
 2040TIP3    H127755   4.841   4.611   1.883  0.5556 -0.2548  0.5834
 2040TIP3    H227756   4.858   4.761   1.889  0.4011 -0.1640 -0.8919
 2041TIP3   OH227757   5.751   0.227   6.667 -0.3132  0.5319 -0.0103
 2041TIP3    H127758   5.759   0.322   6.654  0.0936  0.4767 -0.1877
 2041TIP3    H227759   5.805   0.189   6.598  1.9343  0.2334  1.7892
 2042TIP3   OH227760   3.345   4.223   1.624 -0.2432 -0.1920 -0.0315
 2042TIP3    H127761   3.386   4.298   1.667 -1.2655  0.0180  0.5907
 2042TIP3    H227762   3.340   4.249   1.532 -1.8756  1.1209  0.3815
 2043TIP3   OH227763   0.233   5.766   1.177  0.3288 -0.1843  0.1318
 2043TIP3    H127764   0.149   5.735   1.212  0.4314  0.3279  0.8426
 2043TIP3    H227765   0.270   5.689   1.132  0.6237 -1.1467  1.9485
 2044TIP3   OH227766   1.922   1.458   6.669  0.3337 -0.7484  0.0624
 2044TIP3    H127767   1.870   1.518   6.616  0.4487 -1.8007 -1.3326
 2044TIP3    H227768   1.859   1.415   6.726  0.2539  0.6673  1.0727
 2045TIP3   OH227769   1.973   6.153   8.552 -0.3127  0.5724 -0.4528
 2045TIP3    H127770   1.917   6.119   8.623  0.6854  1.1437  0.6473
 2045TIP3    H227771   1.936   6.115   8.472 -1.3900 -0.2099  0.3808
 2046TIP3   OH227772   5.954   2.954   6.207 -0.1080 -0.3362 -0.6288
 2046TIP3    H127773   5.991   2.880   6.158 -1.1599 -0.3281 -1.4623
 2046TIP3    H227774   5.872   2.921   6.242 -0.1154  0.1499 -0.1764
 2047TIP3   OH227775   5.781   5.321   1.474 -0.1766 -0.3132  0.7397
 2047TIP3    H127776   5.781   5.233   1.511  0.8139 -1.3149 -1.4773
 2047TIP3    H227777   5.692   5.335   1.445 -0.3307 -0.5878  1.0683
 2048TIP3   OH227778   5.088   6.412   0.875 -0.7660 -0.6362  0.3465
 2048TIP3    H127779   5.011   6.387   0.926 -0.5918 -0.7188  0.5707
 2048TIP3    H227780   5.110   6.499   0.906 -1.4265 -0.1483 -0.4988
 2049TIP3   OH227781   3.695   0.150   6.834 -0.1924  0.0663  0.5908
 2049TIP3    H127782   3.700   0.245   6.841 -0.5942  0.1215  0.1694
 2049TIP3    H227783   3.781   0.119   6.862 -0.1170  0.5419  0.8918
 2050TIP3   OH227784   1.290   1.493   7.869 -0.4953  0.3812 -0.4056
 2050TIP3    H127785   1.279   1.563   7.933 -1.1914  1.8093 -2.0110
 2050TIP3    H227786   1.234   1.518   7.795  2.7169  0.5619 -3.0005
 2051TIP3   OH227787   2.538   0.616   8.006 -0.2624  0.1522 -0.4089
 2051TIP3    H127788   2.518   0.637   8.097  0.8932  0.8207 -0.2890
 2051TIP3    H227789   2.482   0.541   7.985 -1.9945  1.2383  0.2112
 2052TIP3   OH227790   3.530   5.701   6.769  0.1084 -0.6008  0.5445
 2052TIP3    H127791   3.483   5.779   6.795  1.4240  1.4973 -2.7738
 2052TIP3    H227792   3.462   5.637   6.748 -1.3214  1.4829 -1.7098
 2053TIP3   OH227793   0.912   6.211   7.710  0.2240  0.4882  0.3141
 2053TIP3    H127794   0.932   6.123   7.677 -0.6384  0.7676 -1.0120
 2053TIP3    H227795   0.994   6.240   7.749 -0.1176 -1.9039  3.2604
 2054TIP3   OH227796   2.797   6.057   7.668 -0.2236 -0.2487  0.5070
 2054TIP3    H127797   2.863   6.122   7.642  0.1531 -1.9470 -3.5000
 2054TIP3    H227798   2.843   5.974   7.668 -2.0565 -1.4131 -1.8406
 2055TIP3   OH227799   0.749   5.842   7.146  0.3038  0.6184  0.3329
 2055TIP3    H127800   0.656   5.850   7.166  0.3027  3.1660 -0.4343
 2055TIP3    H227801   0.788   5.811   7.228 -1.1500 -0.3939  0.6964
 2056TIP3   OH227802   5.097   6.182   8.236  0.1009  0.5962 -0.7152
 2056TIP3    H127803   5.077   6.267   8.277  0.5968  1.1164 -1.5133
 2056TIP3    H227804   5.013   6.151   8.202 -0.2043  0.4459  0.1460
 2057TIP3   OH227805   5.384   5.047   0.089  0.0916 -0.7651 -0.0456
 2057TIP3    H127806   5.394   5.119   0.027  1.5782 -1.6319 -0.8527
 2057TIP3    H227807   5.430   4.973   0.049  0.1504 -1.6633  1.5808
 2058TIP3   OH227808   1.785   3.723   1.333  0.2955 -0.3614  0.4756
 2058TIP3    H127809   1.751   3.770   1.410 -0.6525 -1.1908  0.5700
 2058TIP3    H227810   1.861   3.775   1.306  0.5172  0.0670  1.8414
 2059TIP3   OH227811   1.218   3.467   1.027  0.1358 -0.1208 -0.1253
 2059TIP3    H127812   1.218   3.407   0.952 -0.0609  0.2966 -0.4607
 2059TIP3    H227813   1.257   3.547   0.994 -0.4745  0.2617  0.0567
 2060TIP3   OH227814   0.298   5.445   1.813 -0.4672  0.4830  0.6944
 2060TIP3    H127815   0.206   5.435   1.789 -0.7969  1.1201  1.6187
 2060TIP3    H227816   0.312   5.379   1.881  0.1138 -0.4565 -0.3053
 2061TIP3   OH227817   1.091   0.834   7.362 -0.3397  0.3027  0.7963
 2061TIP3    H127818   1.157   0.768   7.384 -0.3064  0.6357  1.7181
 2061TIP3    H227819   1.119   0.913   7.407 -2.1828  0.0434  2.5667
 2062TIP3   OH227820   3.658   4.641   8.498  0.3937  0.0199 -0.1420
 2062TIP3    H127821   3.702   4.650   8.583  0.0608 -1.1449  0.1665
 2062TIP3    H227822   3.575   4.688   8.509 -0.3363 -1.4192  0.7034
 2063TIP3   OH227823   5.166   2.723   0.677  0.6287 -0.1582 -0.0113
 2063TIP3    H127824   5.157   2.763   0.763 -0.5369 -1.5057  0.5522
 2063TIP3    H227825   5.176   2.796   0.616 -0.8579  0.9458  1.0117
 2064TIP3   OH227826   3.440   4.248   0.283  0.3622  0.0959 -0.5258
 2064TIP3    H127827   3.392   4.328   0.305  1.8854  1.4601 -1.9145
 2064TIP3    H227828   3.501   4.236   0.355  0.0835  0.1330 -0.2809
 2065TIP3   OH227829   0.719   6.352   8.053  0.4751  0.4921 -0.1037
 2065TIP3    H127830   0.774   6.328   8.127  0.9580  2.7719  0.3484
 2065TIP3    H227831   0.631   6.324   8.078  0.7533  0.5866  1.0139
 2066TIP3   OH227832   3.557   0.413   0.291 -0.0029  0.3845 -0.0682
 2066TIP3    H127833   3.651   0.425   0.276  0.0349 -0.3062 -0.3960
 2066TIP3    H227834   3.545   0.435   0.383  0.7969 -1.2512  0.4648
 2067TIP3   OH227835   0.576   6.220   7.566 -0.1583  0.1216  0.4236
 2067TIP3    H127836   0.614   6.140   7.602 -0.7947  0.5057  2.0412
 2067TIP3    H227837   0.553   6.273   7.643 -2.5902  0.5353 -0.4750
 2068TIP3   OH227838   5.144   5.286   0.124 -0.0500  0.0937 -0.8379
 2068TIP3    H127839   5.095   5.204   0.118  0.1466 -0.2336  1.1417
 2068TIP3    H227840   5.199   5.287   0.047  1.6554 -2.8297  0.1871
 2069TIP3   OH227841   5.880   3.920   7.861  0.5280 -0.5211 -0.5418
 2069TIP3    H127842   5.882   3.948   7.770  1.3842  1.1376 -0.0480
 2069TIP3    H227843   5.896   4.000   7.911 -1.5474 -1.0576  1.1476
 2070TIP3   OH227844   1.603   2.634   0.256  0.2294  0.3507 -0.2910
 2070TIP3    H127845   1.622   2.555   0.205 -1.8242 -1.6942  1.8227
 2070TIP3    H227846   1.662   2.628   0.331 -0.2534  0.5610  0.1081
 2071TIP3   OH227847   1.033   4.446   7.010 -0.4122 -0.3297  0.2520
 2071TIP3    H127848   1.017   4.400   6.927 -0.4906 -1.0569  0.6658
 2071TIP3    H227849   1.036   4.377   7.076  0.4949  0.1656  0.7500
 2072TIP3   OH227850   1.657   3.906   1.501 -0.0689 -0.0010  0.2866
 2072TIP3    H127851   1.672   3.938   1.590  0.3882 -1.5677  0.7897
 2072TIP3    H227852   1.610   3.978   1.458  2.8555  2.3759  0.6616
 2073TIP3   OH227853   0.930   2.658   0.045  0.2528 -0.2868 -0.0817
 2073TIP3    H127854   0.839   2.632   0.030  0.8761 -1.7469 -1.5350
 2073TIP3    H227855   0.966   2.591   0.102  0.5349  0.0767  0.1756
 2074TIP3   OH227856   0.576   1.441   0.033 -0.6993  0.5878  0.2761
 2074TIP3    H127857   0.640   1.377   0.065  0.1011  1.4301  0.4181
 2074TIP3    H227858   0.517   1.455   0.106 -2.8729 -2.3376 -0.7350
 2075TIP3   OH227859   2.652   4.584   7.400  0.0156 -0.8597  0.1005
 2075TIP3    H127860   2.634   4.648   7.468  0.3037 -0.6002 -0.0650
 2075TIP3    H227861   2.675   4.504   7.447 -0.5161 -0.8931  0.3061
 2076TIP3   OH227862   2.527   0.567   0.925  0.0728  0.3106  0.6386
 2076TIP3    H127863   2.536   0.472   0.915  1.7134  0.4865  0.1252
 2076TIP3    H227864   2.612   0.595   0.960 -1.2154  1.3175  3.2131
 2077TIP3   OH227865   3.676   0.376   8.693 -0.3747  0.4192  0.1169
 2077TIP3    H127866   3.696   0.347   8.604 -2.4537 -1.8835  0.2877
 2077TIP3    H227867   3.759   0.372   8.740 -0.0414 -3.0127 -0.5584
 2078TIP3   OH227868   2.348   3.805   7.645 -0.0884  0.5949  0.1003
 2078TIP3    H127869   2.314   3.716   7.652 -2.3404  1.4055  0.2604
 2078TIP3    H227870   2.390   3.821   7.729  0.2013 -0.2482  0.1287
 2079TIP3   OH227871   0.399   6.127   0.413 -0.1735  0.2549  0.3507
 2079TIP3    H127872   0.442   6.167   0.488 -1.4035 -1.2283  1.9624
 2079TIP3    H227873   0.457   6.056   0.386 -0.5328 -0.3368  1.0894
 2080TIP3   OH227874   1.663   0.184   0.434  0.1108 -0.1020  0.0100
 2080TIP3    H127875   1.581   0.212   0.476 -0.2432 -0.2192 -0.5838
 2080TIP3    H227876   1.714   0.144   0.505 -0.2674  0.1434  0.4249
 2081TIP3   OH227877   1.966   4.041   6.291 -0.2990  0.8803 -0.6044
 2081TIP3    H127878   1.915   3.987   6.352 -0.8207  1.7849 -0.2160
 2081TIP3    H227879   2.054   4.041   6.329 -0.8454  2.2938  0.7891
 2082TIP3   OH227880   0.588   1.479   2.049  0.3062  0.0074  0.0432
 2082TIP3    H127881   0.672   1.441   2.022  1.2344  0.2798  2.3332
 2082TIP3    H227882   0.522   1.422   2.009  1.6211 -2.4530  1.1537
 2083TIP3   OH227883   2.979   6.806   8.482 -0.4437 -0.6315 -0.0034
 2083TIP3    H127884   3.063   6.820   8.439 -0.4677  1.4162  0.5175
 2083TIP3    H227885   2.990   6.844   8.569 -2.5265  1.7508 -0.6435
 2084TIP3   OH227886   6.022   4.948   0.072  0.1755  0.3965 -0.3810
 2084TIP3    H127887   6.083   4.875   0.079  1.6667  1.5248 -0.9802
 2084TIP3    H227888   5.954   4.929   0.136  1.0419 -1.0132  0.1676
 2085TIP3   OH227889   5.907   0.224   8.115  0.3234 -0.3837  0.4168
 2085TIP3    H127890   5.816   0.246   8.137  1.0310  0.6368  2.5752
 2085TIP3    H227891   5.941   0.181   8.193  2.1147  0.5374  0.1855
 2086TIP3   OH227892   1.413   1.070   6.228  0.5793  0.7480  0.4487
 2086TIP3    H127893   1.374   1.155   6.245  0.1384  0.6783 -0.1822
 2086TIP3    H227894   1.503   1.078   6.260  0.1496  0.9989  1.6464
 2087TIP3   OH227895   5.312   6.646   7.486 -0.2314 -0.2858  0.7464
 2087TIP3    H127896   5.397   6.611   7.460 -1.3773 -1.3701 -1.9259
 2087TIP3    H227897   5.256   6.569   7.493 -0.6657  0.1894  4.3858
 2088TIP3   OH227898   0.301   2.849   6.645 -0.1846  0.3220  0.1051
 2088TIP3    H127899   0.392   2.817   6.647 -0.8935 -2.0253 -1.3525
 2088TIP3    H227900   0.248   2.771   6.661 -2.0423  0.8755 -2.6264
 2089TIP3   OH227901   0.225   1.594   6.539 -0.0594  0.0026  0.5740
 2089TIP3    H127902   0.240   1.659   6.471  0.2016 -0.2524  0.3867
 2089TIP3    H227903   0.153   1.630   6.591  0.1841  0.5084  0.5655
 2090TIP3   OH227904   0.310   1.575   6.979  0.2179  0.3108 -0.3726
 2090TIP3    H127905   0.372   1.519   7.025 -0.6006  0.0594  0.4693
 2090TIP3    H227906   0.351   1.593   6.894  0.6216 -1.3723 -0.5810
 2091TIP3   OH227907   3.840   2.526   2.175 -0.5669  0.1063  0.0822
 2091TIP3    H127908   3.817   2.435   2.197  0.8242 -0.0949  0.7912
 2091TIP3    H227909   3.793   2.578   2.240 -1.9798 -0.0260 -0.7889
 2092TIP3   OH227910   0.895   6.278   1.334  0.6982  0.2608 -0.1107
 2092TIP3    H127911   0.977   6.234   1.314  0.7460  0.6825 -0.8817
 2092TIP3    H227912   0.837   6.208   1.364  0.5771 -0.4751 -1.9021
 2093TIP3   OH227913   1.558   1.414   7.821  0.2295  0.1092 -0.1315
 2093TIP3    H127914   1.603   1.497   7.838 -0.4269  0.2712  0.9226
 2093TIP3    H227915   1.465   1.436   7.825  0.0194 -0.9094  1.5183
 2094TIP3   OH227916   5.527   2.446   1.624  0.2820 -0.5982  0.0298
 2094TIP3    H127917   5.462   2.516   1.616  2.2179  1.2124 -0.7476
 2094TIP3    H227918   5.519   2.417   1.715 -0.0722  1.1874  0.6224
 2095TIP3   OH227919   4.424   1.702   0.363 -0.5873  0.0324 -0.7010
 2095TIP3    H127920   4.341   1.663   0.391 -0.0728 -0.7109 -0.1822
 2095TIP3    H227921   4.484   1.688   0.436 -0.6043  2.6398 -0.0887
 2096TIP3   OH227922   5.265   3.493   0.905  0.0349  0.3106 -0.4380
 2096TIP3    H127923   5.304   3.539   0.979 -0.8936  0.9580 -0.3369
 2096TIP3    H227924   5.340   3.461   0.854  0.6824 -0.4006  0.9227
 2097TIP3   OH227925   5.419   1.369   7.654 -0.4170 -0.0304 -0.3158
 2097TIP3    H127926   5.396   1.317   7.577 -0.2538  0.8147 -0.9543
 2097TIP3    H227927   5.500   1.330   7.686  0.3252  0.4945 -1.4622
 2098TIP3   OH227928   1.577   1.119   0.020 -0.4500  0.0376 -1.0083
 2098TIP3    H127929   1.630   1.192  -0.014  2.9993 -2.0078 -0.5494
 2098TIP3    H227930   1.596   1.118   0.114 -2.3580 -0.0637 -0.5934
 2099TIP3   OH227931   4.828   0.319   0.006 -0.1103  0.4788 -0.1819
 2099TIP3    H127932   4.900   0.352   0.061 -0.6755  0.6940  0.4306
 2099TIP3    H227933   4.750   0.327   0.060 -0.7065  0.8350 -1.0641
 2100TIP3   OH227934   4.286   1.763   1.648 -0.0764 -0.3488  0.5185
 2100TIP3    H127935   4.379   1.787   1.649 -0.0028 -0.5367 -0.5354
 2100TIP3    H227936   4.261   1.770   1.556 -0.5665 -2.3460  0.4598
 2101TIP3   OH227937   2.009   3.963   1.312 -0.0272 -0.6265 -0.2060
 2101TIP3    H127938   2.036   4.040   1.363 -0.0753  0.4379 -1.7132
 2101TIP3    H227939   2.027   3.889   1.369  1.3035  0.4098  0.7832
 2102TIP3   OH227940   2.324   4.891   7.369  0.1466 -0.1279  0.0965
 2102TIP3    H127941   2.328   4.858   7.459  0.0435 -1.5242 -0.3877
 2102TIP3    H227942   2.248   4.847   7.331 -1.5047  2.5089  0.0832
 2103TIP3   OH227943   2.575   4.008   1.225  0.4766  0.0035  0.0156
 2103TIP3    H127944   2.662   3.971   1.213 -0.0536 -1.7312  1.2441
 2103TIP3    H227945   2.555   3.995   1.317 -0.7078  1.2884 -0.0171
 2104TIP3   OH227946   2.115   3.021   0.083 -0.1792 -0.1917 -0.3380
 2104TIP3    H127947   2.086   2.984   0.167 -0.4567  1.5375  0.3786
 2104TIP3    H227948   2.169   2.952   0.044  0.1121 -0.9924  1.3587
 2105TIP3   OH227949   0.222   6.370   8.627  0.6809  0.8096 -0.0760
 2105TIP3    H127950   0.148   6.328   8.670  0.0186  0.1582 -1.7863
 2105TIP3    H227951   0.274   6.298   8.592  2.7791  1.1815  1.9870
 2106TIP3   OH227952   4.886   1.556   6.787 -0.1343  0.4055 -0.6411
 2106TIP3    H127953   4.856   1.641   6.821  1.3474  0.5787  0.3520
 2106TIP3    H227954   4.854   1.553   6.698  0.1156  2.2249 -0.8317
 2107TIP3   OH227955   0.846   4.875   0.257 -0.3966 -0.4226  0.1916
 2107TIP3    H127956   0.761   4.852   0.218 -0.3221  1.7724 -1.4313
 2107TIP3    H227957   0.830   4.872   0.351 -1.6177 -2.2930 -0.0189
 2108TIP3   OH227958   4.725   3.126   0.598  0.0946  0.5795 -0.5988
 2108TIP3    H127959   4.704   3.151   0.508 -1.6775  1.7007  0.0824
 2108TIP3    H227960   4.707   3.204   0.650  0.0260 -0.3707  0.8818
 2109TIP3   OH227961   1.627   5.022   8.575  0.3558  0.7173  0.5118
 2109TIP3    H127962   1.711   5.045   8.536  0.0813  0.9981  0.0768
 2109TIP3    H227963   1.600   5.101   8.622  0.7606  0.3263  1.4078
 2110TIP3   OH227964   3.966   2.565   1.384  0.2360  0.2659  0.3422
 2110TIP3    H127965   3.935   2.653   1.364 -0.2728 -0.1172 -0.6405
 2110TIP3    H227966   4.056   2.577   1.413  0.3547  1.0656 -0.3392
 2111TIP3   OH227967   2.876   6.861   8.227  0.2410 -0.1787  0.5222
 2111TIP3    H127968   2.903   6.839   8.316 -2.0347 -0.7599  1.1450
 2111TIP3    H227969   2.847   6.777   8.190 -0.7878  0.3893 -0.0025
 2112TIP3   OH227970   5.478   0.624   6.852  0.5786  0.8231 -0.0234
 2112TIP3    H127971   5.492   0.588   6.939 -1.9315 -0.7416 -0.1733
 2112TIP3    H227972   5.453   0.549   6.798  0.3545  2.0146 -1.6830
 2113TIP3   OH227973   4.163   2.989   7.050 -0.2974 -0.4573 -0.3416
 2113TIP3    H127974   4.093   3.043   7.014  0.3076 -0.2859 -1.2848
 2113TIP3    H227975   4.177   2.922   6.983  0.9382 -0.0533 -0.5027
 2114TIP3   OH227976   2.191   5.491   8.484  0.2572 -0.2154 -0.2605
 2114TIP3    H127977   2.252   5.502   8.411 -0.2339  0.7717 -0.5277
 2114TIP3    H227978   2.104   5.497   8.445 -0.0196 -0.7990  0.2436
 2115TIP3   OH227979   0.249   1.131   0.706 -0.8590 -1.1171  0.4519
 2115TIP3    H127980   0.236   1.102   0.796  0.4028 -2.6160  0.1948
 2115TIP3    H227981   0.196   1.072   0.653 -0.9290 -0.7857  0.1488
 2116TIP3   OH227982   4.947   6.087   8.538 -0.4157  0.2367 -0.1801
 2116TIP3    H127983   4.877   6.032   8.573  0.2011  0.5948  1.7455
 2116TIP3    H227984   4.917   6.177   8.554 -0.2803  0.4259 -0.9559
 2117TIP3   OH227985   3.546   2.705   6.999 -0.2953  0.2455 -0.0953
 2117TIP3    H127986   3.460   2.724   6.962  0.4578  1.0078 -1.5339
 2117TIP3    H227987   3.568   2.618   6.964  0.3520  0.9027 -1.4033
 2118TIP3   OH227988   6.161   2.762   0.915 -0.4998 -0.0468 -0.2513
 2118TIP3    H127989   6.165   2.754   1.011  1.3687  1.1992 -0.1763
 2118TIP3    H227990   6.232   2.822   0.893 -3.1886  2.7074 -2.1037
 2119TIP3   OH227991   2.018   6.709   0.059  0.8808 -0.2971 -0.5293
 2119TIP3    H127992   2.056   6.789   0.022 -1.1317  0.0055 -2.0996
 2119TIP3    H227993   1.960   6.739   0.128 -0.2372 -0.3321 -1.4348
 2120TIP3   OH227994   1.640   5.627   8.547  0.3393 -0.4508  0.0786
 2120TIP3    H127995   1.656   5.546   8.499  0.8869 -0.2824 -0.0250
 2120TIP3    H227996   1.721   5.644   8.594  0.2209  0.0259  0.1185
 2121TIP3   OH227997   6.069   5.801   6.165 -0.6735  0.1575 -0.6812
 2121TIP3    H127998   6.075   5.885   6.212 -0.6926 -0.5914  0.7041
 2121TIP3    H227999   5.976   5.791   6.145 -0.3083  2.3270 -4.4916
 2122TIP3   OH228000   0.962   5.604   8.340 -0.0641  0.4628  0.1108
 2122TIP3    H128001   0.885   5.547   8.331 -0.0377  0.7318 -2.5959
 2122TIP3    H228002   1.013   5.588   8.261  0.8734  2.8910  0.1418
 2123TIP3   OH228003   2.251   6.145   0.197 -0.2231  0.3890  0.0340
 2123TIP3    H128004   2.189   6.187   0.137 -1.0168 -1.3139 -0.4358
 2123TIP3    H228005   2.331   6.196   0.190 -0.8018  1.1599 -1.2866
 2124TIP3   OH228006   2.240   5.512   0.602 -0.0213  0.0583 -0.1975
 2124TIP3    H128007   2.295   5.547   0.532  1.4304  2.2222  1.8907
 2124TIP3    H228008   2.279   5.427   0.623 -0.6680 -0.7682 -2.1386
 2125TIP3   OH228009   1.732   3.259   2.112  0.6169  0.0046 -0.0891
 2125TIP3    H128010   1.661   3.204   2.078  0.8097 -2.3059  2.8449
 2125TIP3    H228011   1.812   3.208   2.097  0.6696 -1.3801  3.8451
 2126TIP3   OH228012   4.842   1.577   8.317 -0.1606  0.0595  0.4065
 2126TIP3    H128013   4.793   1.514   8.264  1.1054  0.1912 -0.9904
 2126TIP3    H228014   4.880   1.526   8.387  3.1839 -1.4632 -2.2277
 2127TIP3   OH228015   4.892   1.957   1.112 -0.0107 -0.0154 -0.3481
 2127TIP3    H128016   4.978   1.914   1.119 -0.6943 -1.7626 -1.7590
 2127TIP3    H228017   4.840   1.917   1.181  0.0704  0.4417 -0.0204
 2128TIP3   OH228018   3.936   1.946   1.326  0.3775 -0.2580  0.0777
 2128TIP3    H128019   3.956   1.923   1.236  0.8949 -0.7461  0.3070
 2128TIP3    H228020   3.896   2.032   1.321  0.4161 -0.2757 -0.6165
 2129TIP3   OH228021   5.805   1.321   7.450 -0.4834 -0.0088  0.7624
 2129TIP3    H128022   5.814   1.226   7.435 -0.9479  0.0747 -0.0751
 2129TIP3    H228023   5.718   1.342   7.418 -0.5343  0.6393  1.3180
 2130TIP3   OH228024   3.321   5.972   1.670 -0.0614  0.1898 -0.3531
 2130TIP3    H128025   3.317   5.910   1.597  1.2757  0.8347 -1.0027
 2130TIP3    H228026   3.297   5.920   1.746  1.7467 -1.3680 -0.7595
 2131TIP3   OH228027   6.268   6.219   8.207  0.2843  0.2514  0.2675
 2131TIP3    H128028   6.241   6.274   8.281  0.6378  0.8167 -0.0125
 2131TIP3    H228029   6.225   6.135   8.222 -0.0884  0.5360  0.8239
 2132TIP3   OH228030   1.418   1.951   8.392  0.1394  0.6166  0.4061
 2132TIP3    H128031   1.390   2.021   8.451 -0.6609  0.4764  0.2096
 2132TIP3    H228032   1.501   1.920   8.429  1.4105  2.7909 -0.4549
 2133TIP3   OH228033   1.164   5.101   8.561  0.2780 -0.2077  0.1062
 2133TIP3    H128034   1.210   5.023   8.592 -1.0906 -2.1485 -2.3505
 2133TIP3    H228035   1.084   5.105   8.614  0.7671  0.0879  0.8387
 2134TIP3   OH228036   5.954   3.467   6.623 -0.0169 -0.5370  0.3548
 2134TIP3    H128037   5.984   3.537   6.566  0.7837  1.4448  3.0095
 2134TIP3    H228038   5.859   3.476   6.624  0.0256 -0.0153 -0.0011
 2135TIP3   OH228039   3.252   3.836   8.402 -0.0445  0.8238  0.2480
 2135TIP3    H128040   3.314   3.872   8.338  0.4851  0.8304  0.7505
 2135TIP3    H228041   3.233   3.909   8.460  0.0278  0.6370  0.5101
 2136TIP3   OH228042   4.079   6.868   7.735  0.1849  0.1430 -0.5476
 2136TIP3    H128043   4.149   6.807   7.710  0.9066  0.9570 -0.5483
 2136TIP3    H228044   4.008   6.811   7.765  1.0841 -0.6770  0.0877
 2137TIP3   OH228045   0.439   3.010   0.695 -0.0209  0.1055  0.0654
 2137TIP3    H128046   0.436   2.915   0.682  2.6062 -0.3638  2.0139
 2137TIP3    H228047   0.373   3.027   0.762  0.2488 -0.5541  0.5160
 2138TIP3   OH228048   6.117   3.238   7.468  0.1962 -0.3281 -0.1279
 2138TIP3    H128049   6.035   3.233   7.418 -1.1623  0.4921  1.9120
 2138TIP3    H228050   6.134   3.332   7.477  0.0174 -0.4223  1.4913
 2139TIP3   OH228051   5.446   5.867   1.419  0.6272  0.1261 -0.0432
 2139TIP3    H128052   5.456   5.773   1.435  0.5800  0.6042  3.5375
 2139TIP3    H228053   5.355   5.877   1.391 -0.3409 -0.7119  2.4877
 2140TIP3   OH228054   3.952   1.888   0.708  0.0706 -0.1913  0.3358
 2140TIP3    H128055   3.875   1.863   0.759  1.0497 -0.6975  1.6264
 2140TIP3    H228056   3.984   1.806   0.671  0.2091 -0.0437  0.1272
 2141TIP3   OH228057   5.194   6.718   0.178 -0.6861  0.7576  0.3701
 2141TIP3    H128058   5.279   6.705   0.136 -1.3795  0.5085 -1.0263
 2141TIP3    H228059   5.198   6.807   0.214  1.2987 -0.3332  3.1982
 2142TIP3   OH228060   5.438   3.883   7.328  0.2818  0.1980 -0.6249
 2142TIP3    H128061   5.463   3.930   7.248 -0.1448  1.4053 -0.0703
 2142TIP3    H228062   5.518   3.842   7.358  0.9050  1.3772 -0.6126
 2143TIP3   OH228063   0.671   4.744   1.542 -0.4729  0.0174  0.1338
 2143TIP3    H128064   0.617   4.800   1.598  1.5036  1.2558  0.9167
 2143TIP3    H228065   0.674   4.660   1.589 -0.6039  0.3615  0.7696
 2144TIP3   OH228066   2.791   1.254   0.267 -0.0855 -0.2125  0.2695
 2144TIP3    H128067   2.756   1.242   0.355 -0.6654  0.5566  0.1605
 2144TIP3    H228068   2.721   1.301   0.220  1.2063  1.6095  0.1036
 2145TIP3   OH228069   4.883   5.504   2.064  0.2220  0.1679 -0.3359
 2145TIP3    H128070   4.797   5.529   2.029  0.1763  2.2379  1.0527
 2145TIP3    H228071   4.895   5.561   2.140  2.6857 -0.3045 -0.2912
 2146TIP3   OH228072   2.968   2.310   7.863 -0.4779 -0.3456  0.1066
 2146TIP3    H128073   2.915   2.231   7.877  0.1267 -0.8236 -0.2576
 2146TIP3    H228074   3.027   2.312   7.939 -1.3380  0.4647  0.7751
 2147TIP3   OH228075   4.305   3.927   7.888 -0.6035 -0.1283 -0.1060
 2147TIP3    H128076   4.311   3.990   7.815  0.0529 -0.3377 -0.2476
 2147TIP3    H228077   4.377   3.951   7.946 -2.0132  0.9807  1.2650
 2148TIP3   OH228078   3.827   1.994   2.388 -0.3067 -0.1859 -0.1760
 2148TIP3    H128079   3.737   1.970   2.367 -0.5701  0.1665  0.5195
 2148TIP3    H228080   3.865   2.023   2.304 -1.4358  1.5378 -0.1386
 2149TIP3   OH228081   3.779   2.768   7.235  0.1608 -0.2859 -0.1083
 2149TIP3    H128082   3.813   2.741   7.320 -0.5400 -1.7997 -0.2766
 2149TIP3    H228083   3.759   2.861   7.245 -4.3801 -1.2713  2.9695
 2150TIP3   OH228084   6.106   5.289   0.840 -0.4134 -0.0250  0.0092
 2150TIP3    H128085   6.048   5.327   0.907 -0.1264  0.6625 -0.1233
 2150TIP3    H228086   6.155   5.222   0.887 -1.9827 -1.3116 -0.0907
 2151TIP3   OH228087   2.493   1.275   7.515 -0.0612 -0.2720 -0.2634
 2151TIP3    H128088   2.409   1.315   7.540 -0.4966 -1.1465 -0.2976
 2151TIP3    H228089   2.481   1.182   7.532  0.1764 -0.7073 -2.2663
 2152TIP3   OH228090   0.971   6.177   6.747 -0.0303 -0.3160 -0.4432
 2152TIP3    H128091   1.049   6.140   6.788  0.4244 -1.4132 -2.1918
 2152TIP3    H228092   0.899   6.147   6.802  0.6061 -1.2590 -0.0909
 2153TIP3   OH228093   4.285   1.558   0.836  0.0035  0.0438  0.3563
 2153TIP3    H128094   4.264   1.474   0.876 -0.5235  0.1650  0.3410
 2153TIP3    H228095   4.200   1.597   0.814  0.2191  0.7781  0.7799
 2154TIP3   OH228096   0.431   2.252   8.180 -0.0193 -0.1350 -0.0009
 2154TIP3    H128097   0.487   2.321   8.216  1.0148 -0.6024 -0.6730
 2154TIP3    H228098   0.379   2.222   8.255 -0.9606  1.7853  0.1845
 2155TIP3   OH228099   2.760   4.837   8.437  0.2380  0.3163  0.2115
 2155TIP3    H128100   2.738   4.897   8.509 -5.5250  0.2240 -1.0254
 2155TIP3    H228101   2.753   4.750   8.476  2.7121  0.2245  0.6254
 2156TIP3   OH228102   4.626   3.927   7.792 -0.1217  0.1605  0.2259
 2156TIP3    H128103   4.653   4.017   7.773 -0.7535  0.0030 -1.6379
 2156TIP3    H228104   4.558   3.908   7.726  0.8280 -2.0621 -0.2032
 2157TIP3   OH228105   5.041   3.566   2.021 -0.2787 -0.5183  0.5142
 2157TIP3    H128106   5.053   3.493   1.959 -2.0276 -0.7632  0.4184
 2157TIP3    H228107   4.946   3.571   2.033 -0.0870  0.8925  1.5669
 2158TIP3   OH228108   0.773   2.332   7.289  0.1976  0.3321 -0.0490
 2158TIP3    H128109   0.683   2.326   7.255 -0.0672  2.2604  0.2011
 2158TIP3    H228110   0.766   2.306   7.381 -0.0045 -0.0017 -0.1556
 2159TIP3   OH228111   3.433   2.400   0.779  0.0724  0.1886 -0.1169
 2159TIP3    H128112   3.460   2.443   0.698 -0.9674 -1.0777 -1.1633
 2159TIP3    H228113   3.376   2.463   0.822  0.2471  0.6870 -0.6062
 2160TIP3   OH228114   0.862   1.316   1.592  0.2365 -0.3896  0.4532
 2160TIP3    H128115   0.857   1.394   1.648  3.5093  0.2195  0.1355
 2160TIP3    H228116   0.881   1.350   1.505  0.2373 -1.4815  0.0107
 2161TIP3   OH228117   0.880   3.851   1.029 -0.1011 -0.2537  0.7892
 2161TIP3    H128118   0.845   3.788   1.092  0.6666 -1.6870 -0.1745
 2161TIP3    H228119   0.856   3.816   0.944  0.3585  0.7572  0.2290
 2162TIP3   OH228120   5.129   6.815   2.445 -0.5986 -0.3237 -0.1707
 2162TIP3    H128121   5.106   6.722   2.438 -0.4290 -0.3742 -0.0491
 2162TIP3    H228122   5.088   6.855   2.368  0.2513 -0.6828 -0.8370
 2163TIP3   OH228123   1.959   3.633   6.889 -0.8024  0.6665  0.1944
 2163TIP3    H128124   1.982   3.541   6.874 -0.1288  1.1176 -1.9617
 2163TIP3    H228125   1.901   3.631   6.965 -1.5801 -1.6407 -0.3565
 2164TIP3   OH228126   4.334   2.648   1.696 -1.2012  0.1986 -0.2940
 2164TIP3    H128127   4.290   2.565   1.679  2.1923 -2.3183  1.7599
 2164TIP3    H228128   4.408   2.649   1.636  0.1516  0.5060  1.3009
 2165TIP3   OH228129   0.694   1.094   2.349 -0.2585  0.3054 -0.4729
 2165TIP3    H128130   0.753   1.027   2.314 -0.7011  1.0571 -2.8235
 2165TIP3    H228131   0.676   1.066   2.439  0.7375 -1.9131 -0.9084
 2166TIP3   OH228132   5.820   3.730   1.164 -0.4380 -0.6422 -0.1990
 2166TIP3    H128133   5.842   3.643   1.198 -0.1945  0.1017  1.6742
 2166TIP3    H228134   5.801   3.782   1.241  2.1175  1.7289 -0.9644
 2167TIP3   OH228135   3.884   1.525   6.786 -0.4338  0.3120 -0.0873
 2167TIP3    H128136   3.955   1.497   6.729  0.6685 -1.3587  1.9782
 2167TIP3    H228137   3.865   1.615   6.759  1.9855  0.5762 -1.1538
 2168TIP3   OH228138   5.322   2.634   1.608  0.5237 -0.2748  0.0802
 2168TIP3    H128139   5.283   2.687   1.538  0.3606  0.0188  0.3893
 2168TIP3    H228140   5.362   2.698   1.667 -1.4132 -0.3344  1.5420
 2169TIP3   OH228141   4.522   4.602   0.925 -0.1013 -0.0387 -0.3107
 2169TIP3    H128142   4.430   4.575   0.931 -0.6562  1.7660 -0.1486
 2169TIP3    H228143   4.570   4.532   0.969 -1.1677 -1.9956 -2.0823
 2170TIP3   OH228144   6.763   2.491   0.548 -0.1183  0.0680  0.4761
 2170TIP3    H128145   6.771   2.566   0.488  0.5335 -2.1430 -2.4653
 2170TIP3    H228146   6.852   2.456   0.554 -0.6837 -1.4499  0.3545
 2171TIP3   OH228147   3.545   5.766   0.159  0.4913  0.2516 -0.5138
 2171TIP3    H128148   3.599   5.752   0.081  2.4173 -0.5558  0.8805
 2171TIP3    H228149   3.608   5.767   0.231 -1.3605 -0.3705  1.1847
 2172TIP3   OH228150   6.118   4.618   6.753  0.5548  0.3595 -0.2241
 2172TIP3    H128151   6.084   4.656   6.834  0.3765  0.9264 -0.5586
 2172TIP3    H228152   6.181   4.682   6.721  1.2360 -0.2374 -0.1206
 2173TIP3   OH228153   3.904   6.077   6.643  0.0223 -0.1844  0.2263
 2173TIP3    H128154   3.971   6.045   6.703 -0.0516 -1.4474 -0.3442
 2173TIP3    H228155   3.822   6.038   6.674 -0.0995 -0.4298 -0.3883
 2174TIP3   OH228156   4.502   0.305   8.285  0.0056 -0.7754 -0.2656
 2174TIP3    H128157   4.441   0.240   8.251 -1.7077 -1.3638  3.4554
 2174TIP3    H228158   4.581   0.254   8.306 -0.1828 -1.0568 -0.2298
 2175TIP3   OH228159   3.727   3.240   0.514 -0.1028 -0.6829  0.8718
 2175TIP3    H128160   3.795   3.235   0.580  1.8326 -0.7037 -1.0120
 2175TIP3    H228161   3.733   3.157   0.466 -0.4478 -0.0771 -0.2555
 2176TIP3   OH228162   4.716   2.199   0.328 -0.3182  0.0521  0.0632
 2176TIP3    H128163   4.794   2.213   0.382  0.5310  0.4197 -1.1929
 2176TIP3    H228164   4.658   2.271   0.350  1.1054  1.7254 -1.3289
 2177TIP3   OH228165   1.356   4.331   1.826 -0.0421 -0.0199 -0.2164
 2177TIP3    H128166   1.312   4.249   1.847 -0.5626  0.5484  1.0170
 2177TIP3    H228167   1.288   4.384   1.784 -0.2941  0.5086  0.8281
 2178TIP3   OH228168   4.406   5.504   1.682  0.6843  0.3388 -0.5649
 2178TIP3    H128169   4.428   5.558   1.758  1.7403  0.8059 -1.1911
 2178TIP3    H228170   4.339   5.444   1.715 -0.5990  2.0659  0.1268
 2179TIP3   OH228171   3.035   2.691   1.520 -0.0589 -0.4196 -1.1029
 2179TIP3    H128172   3.113   2.644   1.546 -1.3901 -0.9248  2.6258
 2179TIP3    H228173   2.972   2.623   1.496 -0.9657 -0.4759  1.1852
 2180TIP3   OH228174   6.435   0.343   6.632  0.7338  0.5951  0.1700
 2180TIP3    H128175   6.434   0.400   6.555 -0.7860  1.3258  0.7071
 2180TIP3    H228176   6.451   0.402   6.705  1.8766 -0.0617  0.4796
 2181TIP3   OH228177   5.984   4.882   8.223 -0.0830  0.3490 -0.3524
 2181TIP3    H128178   5.914   4.820   8.199  0.6675 -0.7042  0.0802
 2181TIP3    H228179   6.018   4.912   8.139 -1.6660  1.6378 -0.5847
 2182TIP3   OH228180   6.634   5.963   0.703 -0.0638  0.3170 -0.3605
 2182TIP3    H128181   6.626   5.906   0.780 -2.0437  1.9403  0.7365
 2182TIP3    H228182   6.544   5.975   0.673  0.3165  2.5117 -0.7977
 2183TIP3   OH228183   4.066   3.596   0.184 -0.0398 -0.3656  0.3543
 2183TIP3    H128184   3.984   3.645   0.173  0.6789  0.3653 -3.0519
 2183TIP3    H228185   4.039   3.504   0.182 -0.8283 -0.1498 -1.2355
 2184TIP3   OH228186   6.630   1.454   0.313 -0.2022 -0.1735  0.2403
 2184TIP3    H128187   6.582   1.507   0.377 -0.8713 -0.4449 -0.0270
 2184TIP3    H228188   6.606   1.490   0.228 -0.4361 -0.7114  0.0712
 2185TIP3   OH228189   1.867   5.486   1.326  0.0343 -0.1107 -0.3505
 2185TIP3    H128190   1.938   5.508   1.387 -1.1898  1.1322  0.7069
 2185TIP3    H228191   1.844   5.396   1.347  0.4323 -0.0903  0.1916
 2186TIP3   OH228192   1.191   1.430   0.469  0.1122 -0.4758  0.4405
 2186TIP3    H128193   1.260   1.371   0.439  0.0831 -0.5473  0.5135
 2186TIP3    H228194   1.221   1.517   0.442 -0.7825 -0.7000 -1.4929
 2187TIP3   OH228195   0.038   0.128   1.320 -1.1783 -0.4125  0.0559
 2187TIP3    H128196  -0.027   0.197   1.332  0.5404  0.9146  3.0516
 2187TIP3    H228197   0.113   0.174   1.281 -0.1908 -0.6385  1.6257
 2188TIP3   OH228198   1.877   6.024   7.358  0.3072  0.1534  0.0101
 2188TIP3    H128199   1.793   6.033   7.404  0.3524  2.8776 -0.2602
 2188TIP3    H228200   1.874   6.093   7.291  2.0113 -0.9291 -1.2382
 2189TIP3   OH228201   0.513   1.576   1.801 -0.3150  0.1166 -0.4718
 2189TIP3    H128202   0.469   1.652   1.839  1.3907  0.5864  0.6463
 2189TIP3    H228203   0.457   1.502   1.824 -0.2710  0.6218  1.3889
 2190TIP3   OH228204   5.594   4.816   8.393 -0.4164 -0.0082 -0.0567
 2190TIP3    H128205   5.629   4.887   8.446  0.6671 -0.6073  0.0603
 2190TIP3    H228206   5.661   4.800   8.327 -0.3446 -1.3665  0.3229
 2191TIP3   OH228207   4.727   6.654   7.532 -0.6739  0.1818  0.0243
 2191TIP3    H128208   4.774   6.617   7.607 -0.8945 -0.9850 -0.3945
 2191TIP3    H228209   4.739   6.749   7.541  2.2191 -0.0673 -0.3397
 2192TIP3   OH228210   6.406   2.109   0.494  0.4293  0.8175 -0.3668
 2192TIP3    H128211   6.500   2.119   0.504  0.4800 -0.4579  0.6683
 2192TIP3    H228212   6.369   2.161   0.565  0.4229  0.0362  0.2125
 2193TIP3   OH228213   5.307   6.205   1.199 -0.2562  0.2635 -0.0499
 2193TIP3    H128214   5.328   6.147   1.272  2.3285  1.2560  0.1082
 2193TIP3    H228215   5.328   6.154   1.121 -1.5231 -0.2472 -0.0824
 2194TIP3   OH228216   2.080   2.455   0.000  0.2620 -0.3681 -0.4780
 2194TIP3    H128217   1.997   2.412  -0.019 -0.0183  0.5666 -1.4487
 2194TIP3    H228218   2.071   2.485   0.091 -1.1732  1.2439 -1.1022
 2195TIP3   OH228219   6.102   0.886   7.685  0.2872  0.2611 -0.5715
 2195TIP3    H128220   6.132   0.977   7.687 -1.0057  0.8309 -2.8262
 2195TIP3    H228221   6.172   0.839   7.640 -0.6252  0.9553 -2.8690
 2196TIP3   OH228222   0.743   1.354   8.052  0.3634 -0.2027  0.1651
 2196TIP3    H128223   0.706   1.440   8.072 -0.2320 -0.2276 -0.7525
 2196TIP3    H228224   0.832   1.373   8.021  1.0483 -0.1156  2.0720
 2197TIP3   OH228225   2.783   4.094   1.443 -0.2383  0.7831 -0.4544
 2197TIP3    H128226   2.831   4.015   1.466 -1.2699  0.8281  2.2499
 2197TIP3    H228227   2.820   4.162   1.499 -1.7481  1.3650 -0.0924
 2198TIP3   OH228228   0.363   0.011   6.768  0.3051 -0.7423  0.8243
 2198TIP3    H128229   0.453  -0.012   6.744 -0.1656 -0.1546 -1.8090
 2198TIP3    H228230   0.373   0.080   6.834  1.8343  0.4032 -0.5284
 2199TIP3   OH228231   3.498   0.983   7.604  0.4296 -0.2816  0.3155
 2199TIP3    H128232   3.550   1.057   7.636 -0.2391 -0.3860  1.6995
 2199TIP3    H228233   3.536   0.962   7.519  0.0565  2.2812 -0.5764
 2200TIP3   OH228234   0.462   4.700   0.891 -0.2586  0.3362 -0.1406
 2200TIP3    H128235   0.484   4.792   0.903 -1.5542  0.8383 -1.2655
 2200TIP3    H228236   0.501   4.676   0.808  0.8424 -0.4162  0.5728
 2201TIP3   OH228237   3.362   5.399   1.971  0.8396 -0.2491  0.0388
 2201TIP3    H128238   3.291   5.462   1.958  0.3904 -0.7820 -0.1205
 2201TIP3    H228239   3.331   5.341   2.040 -0.6149 -2.8914 -2.6059
 2202TIP3   OH228240   0.605   3.017   1.700 -0.1818  0.6938  0.1648
 2202TIP3    H128241   0.692   3.044   1.673  0.4970 -0.0020  1.5787
 2202TIP3    H228242   0.574   2.961   1.628  0.6250  0.7398 -0.2296
 2203TIP3   OH228243   1.573   3.982   7.693  0.1773 -0.4351  0.5276
 2203TIP3    H128244   1.562   4.076   7.708  1.4262 -0.0559 -0.7289
 2203TIP3    H228245   1.491   3.955   7.653  0.7128  0.7103 -1.5390
 2204TIP3   OH228246   4.049   2.848   7.305  0.1882 -0.2003 -0.0742
 2204TIP3    H128247   4.014   2.827   7.218 -0.6744  0.2911  0.1439
 2204TIP3    H228248   4.099   2.770   7.329 -0.0652 -0.5907 -0.7556
 2205TIP3   OH228249   5.661   5.793   7.525 -0.3345  0.3053  0.1470
 2205TIP3    H128250   5.627   5.720   7.474 -1.3122  1.1417 -0.4561
 2205TIP3    H228251   5.756   5.783   7.522 -0.4345 -2.5129  2.4667
 2206TIP3   OH228252   0.362   5.795   0.114  0.2031  0.7828 -0.2548
 2206TIP3    H128253   0.367   5.811   0.020  0.4777  3.6281  0.1563
 2206TIP3    H228254   0.302   5.862   0.147  1.0809  0.6638  1.7468
 2207TIP3   OH228255   3.949   0.099   7.333  0.0955  0.8129  0.1509
 2207TIP3    H128256   3.889   0.158   7.288 -0.0126  0.2838 -0.4209
 2207TIP3    H228257   3.955   0.133   7.422 -0.5015  1.2802  0.0180
 2208TIP3   OH228258   1.644   4.517   1.670 -0.0722  0.3672 -0.0705
 2208TIP3    H128259   1.701   4.518   1.746  0.5065 -0.7608 -0.4595
 2208TIP3    H228260   1.701   4.491   1.597 -0.9725 -0.3422 -0.5514
 2209TIP3   OH228261   1.662   6.738   7.927  0.3394 -0.7144  0.2359
 2209TIP3    H128262   1.592   6.676   7.947  0.2715 -0.1098  2.0206
 2209TIP3    H228263   1.663   6.799   8.001  1.6464  0.2947 -0.5619
 2210TIP3   OH228264   6.202   0.352   2.302  0.6204 -0.2234  0.3132
 2210TIP3    H128265   6.184   0.446   2.298  0.2836 -0.3059 -0.3703
 2210TIP3    H228266   6.294   0.346   2.330  1.0986  0.3613 -1.0323
 2211TIP3   OH228267   0.021   3.492   8.398  0.2715 -0.5052  0.2418
 2211TIP3    H128268   0.101   3.442   8.410 -0.5532 -1.6700  1.1107
 2211TIP3    H228269  -0.031   3.440   8.337 -0.0681 -0.0574  0.1436
 2212TIP3   OH228270   3.108   6.854   7.851 -0.5728  0.0506  0.1842
 2212TIP3    H128271   3.134   6.916   7.920  2.3313  1.2010 -1.7061
 2212TIP3    H228272   3.060   6.907   7.788  0.7748  0.1710 -0.8028
 2213TIP3   OH228273   5.401   1.736   0.813 -0.2559  0.8922  0.0321
 2213TIP3    H128274   5.398   1.641   0.809 -0.7495  0.9198 -0.3056
 2213TIP3    H228275   5.483   1.760   0.769  0.5797  0.5682  1.3442
 2214TIP3   OH228276   6.542   3.573   1.248  0.2800  0.1531 -0.3780
 2214TIP3    H128277   6.558   3.660   1.286 -0.7355  0.7562 -1.2831
 2214TIP3    H228278   6.475   3.588   1.182  1.1566 -1.0893 -1.5848
 2215TIP3   OH228279   4.681   2.007   6.982 -0.2037  1.0302  0.5553
 2215TIP3    H128280   4.631   1.963   7.051 -0.8027 -0.8760 -0.9893
 2215TIP3    H228281   4.655   2.099   6.988 -2.1236  0.4977  1.3082
 2216TIP3   OH228282   2.028   4.833   6.443  0.2488 -0.1282  0.1286
 2216TIP3    H128283   2.072   4.832   6.528  1.2106  0.6356 -0.3415
 2216TIP3    H228284   2.081   4.774   6.388 -0.5964 -0.9374  0.1516
 2217TIP3   OH228285   2.770   2.690   0.643 -0.5889  0.2408 -0.2194
 2217TIP3    H128286   2.841   2.706   0.704 -1.2672 -0.4648  0.7880
 2217TIP3    H228287   2.761   2.771   0.593 -0.2482  0.9492  0.8590
 2218TIP3   OH228288   0.023   3.332   0.378 -0.3740 -0.5628  0.2329
 2218TIP3    H128289   0.092   3.369   0.323 -1.5969  1.8644  0.2038
 2218TIP3    H228290  -0.048   3.311   0.317 -0.2139 -1.7775  0.4306
 2219TIP3   OH228291   2.155   0.229   7.183 -0.1015  0.1276 -0.4535
 2219TIP3    H128292   2.217   0.271   7.124  0.3213  0.3537  0.1476
 2219TIP3    H228293   2.151   0.138   7.153  1.9132 -0.3613  0.6126
 2220TIP3   OH228294   4.978   1.427   1.697 -0.0702 -0.2411  0.1347
 2220TIP3    H128295   4.898   1.376   1.702 -0.4827  0.4994  1.6961
 2220TIP3    H228296   4.950   1.513   1.666  0.1977 -0.1564  0.1240
 2221TIP3   OH228297   1.536   3.000   7.666 -0.2392 -0.0623  0.3115
 2221TIP3    H128298   1.612   2.943   7.683 -0.2782 -0.2922 -0.2564
 2221TIP3    H228299   1.556   3.042   7.582 -0.9757 -0.5163 -0.0986
 2222TIP3   OH228300   1.272   4.726   0.768 -0.6350 -0.2506  0.3870
 2222TIP3    H128301   1.354   4.694   0.806 -1.3446  0.0681  2.2845
 2222TIP3    H228302   1.299   4.796   0.708  0.5044 -0.4266  0.6718
 2223TIP3   OH228303   2.282   4.075   1.377  0.3797 -0.3912  0.3310
 2223TIP3    H128304   2.333   4.055   1.456 -0.2096  2.6261  1.6354
 2223TIP3    H228305   2.335   4.141   1.332 -1.4029  1.3721  0.7087
 2224TIP3   OH228306   3.435   0.114   0.304 -0.2175  0.2548 -0.0147
 2224TIP3    H128307   3.490   0.104   0.382  0.9262  0.1584 -0.8110
 2224TIP3    H228308   3.479   0.181   0.253  0.9428 -1.9899 -2.1506
 2225TIP3   OH228309   1.661   3.611   1.000 -1.2428 -0.0239  0.0575
 2225TIP3    H128310   1.639   3.585   1.089  0.8189  0.3434  0.7204
 2225TIP3    H228311   1.756   3.622   1.000 -1.0872 -0.6942 -2.3713
 2226TIP3   OH228312   6.541   6.133   1.835  0.2476  0.6099  0.2413
 2226TIP3    H128313   6.524   6.097   1.748  0.5037 -0.9922  0.8232
 2226TIP3    H228314   6.534   6.228   1.823  1.7981  0.5282 -1.8528
 2227TIP3   OH228315   5.399   1.841   1.296 -0.4593  0.0849  0.0912
 2227TIP3    H128316   5.460   1.853   1.224  0.0602  0.0891  0.5205
 2227TIP3    H228317   5.405   1.748   1.318 -1.8571 -0.2848 -0.9418
 2228TIP3   OH228318   6.018   5.870   0.958  0.5646 -0.2557 -0.5446
 2228TIP3    H128319   5.937   5.882   1.008  0.7465  0.2019 -0.3566
 2228TIP3    H228320   6.067   5.804   1.007 -1.6815 -4.2173 -3.0729
 2229TIP3   OH228321   2.416   6.439   7.887  0.0715  0.0317 -0.3749
 2229TIP3    H128322   2.418   6.454   7.981 -0.4549 -0.8902 -0.2029
 2229TIP3    H228323   2.465   6.512   7.850 -0.5998  0.9770  0.5381
 2230TIP3   OH228324   6.244   1.772   8.333 -0.3776  0.4236 -0.2528
 2230TIP3    H128325   6.152   1.746   8.328 -0.7295  1.6289 -0.3067
 2230TIP3    H228326   6.253   1.841   8.268  0.4794  0.5712  0.0157
 2231TIP3   OH228327   6.756   4.485   0.034  0.2923 -0.3548 -0.3527
 2231TIP3    H128328   6.806   4.512  -0.043  0.9223  1.5613  0.6465
 2231TIP3    H228329   6.788   4.543   0.104 -2.7833  0.4705  0.5054
 2232TIP3   OH228330   4.972   1.150   8.664  0.0523  0.3262  0.1027
 2232TIP3    H128331   4.942   1.143   8.754  0.3684  3.3714  0.5316
 2232TIP3    H228332   4.892   1.150   8.611 -0.1134 -2.0246  0.2511
 2233TIP3   OH228333   3.742   5.953   7.818 -0.0489  0.0656  0.0352
 2233TIP3    H128334   3.670   5.891   7.835  0.0935 -0.7119 -1.9892
 2233TIP3    H228335   3.714   6.003   7.742  1.6633 -0.4633 -0.9962
 2234TIP3   OH228336   5.093   0.975   0.887 -0.6570  0.1596  0.0040
 2234TIP3    H128337   5.080   1.070   0.892  0.2833  0.2752  0.3662
 2234TIP3    H228338   5.173   0.964   0.836 -1.7349 -0.5207 -1.6265
 2235TIP3   OH228339   4.756   4.589   2.253 -0.0320 -0.2693 -0.2374
 2235TIP3    H128340   4.815   4.539   2.309  1.3223  1.2346 -0.2285
 2235TIP3    H228341   4.679   4.604   2.306  0.5000 -0.3885  0.5792
 2236TIP3   OH228342   3.603   3.293   2.068 -0.1231 -0.4828  0.0532
 2236TIP3    H128343   3.534   3.227   2.072  1.4305 -2.2225 -0.7826
 2236TIP3    H228344   3.619   3.317   2.160 -0.3493 -1.6753  0.4201
 2237TIP3   OH228345   6.839   0.526   1.800 -0.4889 -0.3711 -0.6342
 2237TIP3    H128346   6.836   0.431   1.809  0.5473 -0.4070 -0.6091
 2237TIP3    H228347   6.895   0.556   1.872 -1.5061  0.3529 -0.0965
 2238TIP3   OH228348   6.399   4.793   1.056 -0.5731  0.3511  0.2414
 2238TIP3    H128349   6.309   4.826   1.064 -0.6992 -0.1962  1.2750
 2238TIP3    H228350   6.424   4.772   1.146 -0.2140 -1.6058 -0.2808
 2239TIP3   OH228351   4.516   5.704   1.504 -0.1262 -0.2173 -0.3747
 2239TIP3    H128352   4.497   5.648   1.580 -1.5246  1.4214  0.5895
 2239TIP3    H228353   4.492   5.792   1.534  0.4796  0.6636 -2.3357
 2240TIP3   OH228354   4.147   3.065   8.215  0.1274  0.0557  0.6505
 2240TIP3    H128355   4.172   3.079   8.124 -0.0038 -0.6558  0.4950
 2240TIP3    H228356   4.132   2.971   8.221 -2.0868  0.3638  0.8351
 2241TIP3   OH228357   1.046   5.220   6.619  0.1484 -0.1545 -0.0262
 2241TIP3    H128358   1.065   5.275   6.543  0.1594  0.2921  0.2902
 2241TIP3    H228359   1.045   5.282   6.693  2.4799 -0.9056  0.7114
 2242TIP3   OH228360   1.821   2.222   1.971 -0.4307 -0.8998  0.2999
 2242TIP3    H128361   1.791   2.277   2.043  2.9948 -0.1999  1.3892
 2242TIP3    H228362   1.897   2.176   2.006  1.3224 -0.6352 -2.8107
 2243TIP3   OH228363   3.061   2.241   6.402  0.3661 -0.1962 -0.0023
 2243TIP3    H128364   3.018   2.225   6.486 -0.4968 -1.2453 -0.6252
 2243TIP3    H228365   3.059   2.336   6.393 -0.7465 -0.1457  0.5473
 2244TIP3   OH228366   3.577   3.733   7.572 -0.3740 -0.6182  0.1944
 2244TIP3    H128367   3.522   3.734   7.493  0.7286 -0.9655 -0.6056
 2244TIP3    H228368   3.613   3.822   7.577 -1.1930 -0.3165  0.8623
 2245TIP3   OH228369   5.290   1.088   7.187 -0.0233 -0.1510 -0.3262
 2245TIP3    H128370   5.292   1.176   7.149  1.1294 -0.6025 -1.3688
 2245TIP3    H228371   5.270   1.030   7.113  1.1240 -0.9479 -0.0394
 2246TIP3   OH228372   4.291   1.194   1.502 -0.0166 -0.0336 -0.0123
 2246TIP3    H128373   4.290   1.289   1.504  1.5739 -0.0003  0.3487
 2246TIP3    H228374   4.347   1.168   1.575 -1.5466 -1.3170  0.7775
 2247TIP3   OH228375   1.035   1.864   1.386  0.0301 -0.1477 -0.1640
 2247TIP3    H128376   1.005   1.945   1.345  0.7591 -0.4700 -1.3893
 2247TIP3    H228377   0.959   1.832   1.434 -1.1126 -0.1453 -1.8909
 2248TIP3   OH228378   5.162   6.712   1.409  0.1625  0.5920  0.2872
 2248TIP3    H128379   5.223   6.775   1.446 -0.2674  0.4523  1.2747
 2248TIP3    H228380   5.208   6.674   1.334  0.1880  2.5260 -0.7363
 2249TIP3   OH228381   0.980   0.710   0.935 -0.2040 -0.2671 -0.4795
 2249TIP3    H128382   1.029   0.708   0.853 -2.7144 -1.9635 -2.0850
 2249TIP3    H228383   0.895   0.748   0.911 -0.5737  0.3786  1.6442
 2250TIP3   OH228384   5.837   6.867   7.437 -0.1611  0.2455 -0.5329
 2250TIP3    H128385   5.836   6.842   7.529 -0.4091  0.5250 -0.4569
 2250TIP3    H228386   5.780   6.803   7.394 -0.3810  0.3666 -0.4237
 2251TIP3   OH228387   6.514   4.624   6.726  0.0962 -0.0095  0.1152
 2251TIP3    H128388   6.503   4.539   6.683  0.2575  0.0600 -0.0620
 2251TIP3    H228389   6.444   4.678   6.691  1.6218  0.7932 -1.8919
 2252TIP3   OH228390   2.566   5.853   7.599 -0.8805  0.1127  0.0253
 2252TIP3    H128391   2.632   5.865   7.667 -2.8752  0.4091  2.0038
 2252TIP3    H228392   2.540   5.941   7.574 -2.5247  0.0387  1.3483
 2253TIP3   OH228393   1.613   5.323   8.490 -0.3642  0.0695 -0.4145
 2253TIP3    H128394   1.570   5.316   8.575  0.1467  0.0345 -0.1522
 2253TIP3    H228395   1.705   5.303   8.508 -0.2192  0.2360 -0.9447
 2254TIP3   OH228396   0.124   1.462   7.968 -0.6435 -0.0832 -0.3453
 2254TIP3    H128397   0.054   1.405   8.001  0.3235 -1.0288  0.1264
 2254TIP3    H228398   0.135   1.435   7.876 -2.5391  1.7549 -1.1879
 2255TIP3   OH228399   2.222   4.763   0.761 -0.0747 -0.2369  0.6232
 2255TIP3    H128400   2.317   4.754   0.749  0.1376 -2.1375  2.9355
 2255TIP3    H228401   2.189   4.790   0.676  2.3619 -1.1832 -0.7172
 2256TIP3   OH228402   0.775   4.509   0.066 -0.1478  0.2962 -0.4640
 2256TIP3    H128403   0.681   4.520   0.057 -0.7349 -1.6668  1.9920
 2256TIP3    H228404   0.792   4.528   0.159  1.9508  1.0411 -0.9601
 2257TIP3   OH228405   3.358   1.635   6.204  0.0272 -0.1788  0.5270
 2257TIP3    H128406   3.289   1.679   6.154 -0.8399 -0.2833  1.5855
 2257TIP3    H228407   3.438   1.652   6.154 -0.8563 -0.7017 -1.1347
 2258TIP3   OH228408   4.238   0.866   1.743 -0.0183 -0.0843  0.0770
 2258TIP3    H128409   4.272   0.780   1.717  1.1557  0.5875 -0.7324
 2258TIP3    H228410   4.245   0.866   1.839 -0.4915 -1.0613  0.1242
 2259TIP3   OH228411   5.947   5.819   0.259 -0.1507 -0.0403 -0.1425
 2259TIP3    H128412   5.922   5.756   0.191 -1.2551 -1.2532  1.3274
 2259TIP3    H228413   5.899   5.899   0.237  0.7175  0.1251 -1.6224
 2260TIP3   OH228414   0.859   1.070   1.740 -0.4119 -0.0693 -0.4931
 2260TIP3    H128415   0.871   1.086   1.833  0.5057 -1.2281 -0.3901
 2260TIP3    H228416   0.894   1.149   1.698 -0.7186  0.4080  0.1329
 2261TIP3   OH228417   1.006   2.827   8.423 -0.0057 -0.2697 -0.2211
 2261TIP3    H128418   1.086   2.880   8.423 -0.0955 -0.1318 -0.2101
 2261TIP3    H228419   1.028   2.749   8.474  0.1881 -0.3353 -0.4048
 2262TIP3   OH228420   3.970   3.822   8.197  0.5071 -0.3096  0.2005
 2262TIP3    H128421   3.878   3.794   8.202  0.4889 -0.2326  0.3072
 2262TIP3    H228422   3.967   3.915   8.218  0.7939 -0.6426  1.8872
 2263TIP3   OH228423   5.335   4.068   6.835 -0.1794 -0.2548 -0.0576
 2263TIP3    H128424   5.296   4.155   6.841  0.7512  0.1698 -0.1430
 2263TIP3    H228425   5.262   4.009   6.855 -0.9641  0.5058 -0.5589
 2264TIP3   OH228426   5.190   1.619   7.380 -0.0008  0.2508 -0.0533
 2264TIP3    H128427   5.260   1.580   7.329  0.1838  0.2299  0.2118
 2264TIP3    H228428   5.205   1.588   7.469  0.6685  1.6068  0.3323
 2265TIP3   OH228429   5.480   3.721   0.175 -0.5262 -0.6198  0.1578
 2265TIP3    H128430   5.517   3.634   0.162 -1.2127 -0.7414 -1.1297
 2265TIP3    H228431   5.557   3.777   0.192  0.1205 -1.1496 -0.8903
 2266TIP3   OH228432   5.522   1.042   1.155 -0.2333 -0.1252 -0.2569
 2266TIP3    H128433   5.460   0.969   1.152  0.3068 -0.5835 -0.2543
 2266TIP3    H228434   5.608   1.001   1.154  0.0783  0.4343  1.2491
 2267TIP3   OH228435   4.676   5.498   7.091  0.2140  0.5074  0.1279
 2267TIP3    H128436   4.667   5.434   7.161 -0.7282 -0.1642 -0.5882
 2267TIP3    H228437   4.751   5.467   7.040 -0.5052 -0.3107 -0.4744
 2268TIP3   OH228438   4.263   6.626   0.449  0.4275 -0.3549  0.7893
 2268TIP3    H128439   4.285   6.706   0.496  1.1146  0.1319 -0.3263
 2268TIP3    H228440   4.293   6.555   0.506  1.4746  0.2186  0.9604
 2269TIP3   OH228441   2.922   5.300   8.598  0.4384 -0.2493  0.1780
 2269TIP3    H128442   2.844   5.330   8.643 -0.3409  0.3266 -1.4761
 2269TIP3    H228443   2.939   5.213   8.634 -0.5474 -0.0967  1.0495
 2270TIP3   OH228444   3.646   1.833   8.404  0.4098  0.2140  1.0193
 2270TIP3    H128445   3.664   1.800   8.491 -1.5871 -1.2778  0.9520
 2270TIP3    H228446   3.626   1.755   8.352  2.7664  0.9276 -1.1438
 2271TIP3   OH228447   2.040   1.480   0.950  0.4094 -0.1848 -0.3069
 2271TIP3    H128448   2.072   1.562   0.912  0.9275  0.1004  0.7172
 2271TIP3    H228449   2.120   1.432   0.973  0.1080 -0.8716 -0.6550
 2272TIP3   OH228450   4.839   4.857   2.388 -0.1879 -0.5574  0.2077
 2272TIP3    H128451   4.816   4.923   2.453 -2.6724  1.7683 -2.7040
 2272TIP3    H228452   4.755   4.825   2.356  0.8995 -1.2704 -2.1451
 2273TIP3   OH228453   2.570   1.721   7.366  0.0648 -0.5817  0.1178
 2273TIP3    H128454   2.540   1.653   7.306 -0.6996 -0.8346  0.7602
 2273TIP3    H228455   2.523   1.702   7.448  1.1093 -0.2727  0.8053
 2274TIP3   OH228456   0.877   2.637   7.288  0.3647 -0.2491  1.0280
 2274TIP3    H128457   0.910   2.551   7.264  1.1670  0.4450 -0.4797
 2274TIP3    H228458   0.952   2.695   7.280 -0.2671  0.6720  1.5794
 2275TIP3   OH228459   5.124   4.361   1.325  0.1138  0.0188  0.3464
 2275TIP3    H128460   5.154   4.344   1.235 -1.1349  2.8095 -0.7159
 2275TIP3    H228461   5.198   4.407   1.366  0.0839  0.1951  0.2048
 2276TIP3   OH228462   4.684   3.459   8.192  0.7649 -0.8148  0.1115
 2276TIP3    H128463   4.590   3.453   8.205  0.9061 -1.7017  0.8686
 2276TIP3    H228464   4.710   3.538   8.239  0.5983 -1.4274  1.2834
 2277TIP3   OH228465   4.073   5.116   1.762  0.1341  0.5720 -0.0189
 2277TIP3    H128466   4.095   5.023   1.766 -0.8787  0.2989 -0.2896
 2277TIP3    H228467   4.094   5.151   1.848 -1.1816 -0.3356  0.7088
 2278TIP3   OH228468   0.182   3.489   1.027 -0.5579 -0.0881  0.3305
 2278TIP3    H128469   0.090   3.494   1.053 -0.7113 -0.4524 -0.1256
 2278TIP3    H228470   0.194   3.398   1.001 -0.2018  0.0727 -0.0792
 2279TIP3   OH228471   0.038   5.160   6.847 -0.1053  0.3443  0.3688
 2279TIP3    H128472   0.113   5.215   6.871 -0.5907  0.9916  0.4157
 2279TIP3    H228473   0.065   5.118   6.765  0.1980  0.7951  0.2303
 2280TIP3   OH228474   2.323   1.375   1.491  0.0714 -0.0166 -0.2848
 2280TIP3    H128475   2.414   1.403   1.486  0.2865 -0.8166 -0.9819
 2280TIP3    H228476   2.278   1.427   1.424  0.1364 -0.0700 -0.3700
 2281TIP3   OH228477   0.887   6.269   8.247 -0.0389 -0.2402 -0.3414
 2281TIP3    H128478   0.830   6.259   8.323  0.6131 -0.1673  0.1662
 2281TIP3    H228479   0.959   6.207   8.263 -0.5976 -1.2477 -1.5774
 2282TIP3   OH228480   4.761   0.166   6.884 -0.1246  0.6580 -0.5781
 2282TIP3    H128481   4.726   0.104   6.820 -0.3825  1.0058 -0.7777
 2282TIP3    H228482   4.684   0.200   6.928  0.0031  0.9859 -0.6078
 2283TIP3   OH228483   1.897   1.816   0.045  1.0216 -0.3698 -0.1142
 2283TIP3    H128484   1.932   1.868   0.118  0.0997  0.2810 -0.1242
 2283TIP3    H228485   1.884   1.729   0.083  0.0501  0.0937  0.6827
 2284TIP3   OH228486   0.978   1.996   6.478 -0.2000 -0.0632 -0.2345
 2284TIP3    H128487   0.936   2.011   6.393 -0.8840 -0.8124 -0.0469
 2284TIP3    H228488   0.967   2.078   6.525 -3.6136 -0.8569  0.6806
 2285TIP3   OH228489   2.132   4.022   7.997 -0.6017  0.5619 -0.0029
 2285TIP3    H128490   2.095   3.945   8.040  0.5358  0.0861  0.1869
 2285TIP3    H228491   2.115   4.009   7.904 -1.4898  0.7025  0.1300
 2286TIP3   OH228492   0.247   6.481   2.148  0.1600  0.1655 -0.2877
 2286TIP3    H128493   0.335   6.451   2.125  0.9494  1.4192  0.9287
 2286TIP3    H228494   0.189   6.423   2.100  1.5725 -2.7135  1.2006
 2287TIP3   OH228495   3.442   6.553   1.766  0.4130 -0.2001 -0.5940
 2287TIP3    H128496   3.395   6.487   1.715  0.1081  0.0266 -0.6090
 2287TIP3    H228497   3.399   6.635   1.744  0.8953  0.0313 -0.7003
 2288TIP3   OH228498   1.982   0.853   1.777 -0.3237 -0.2675 -0.0409
 2288TIP3    H128499   1.927   0.786   1.818  1.0645 -0.7539  1.1255
 2288TIP3    H228500   1.984   0.829   1.684  1.1785 -2.6886  0.5191
 2289TIP3   OH228501   5.157   2.566   8.340  0.1861 -0.5083 -0.7373
 2289TIP3    H128502   5.130   2.523   8.259  1.8591 -2.6374 -0.2349
 2289TIP3    H228503   5.241   2.606   8.320  1.2786 -2.2085  0.2564
 2290TIP3   OH228504   6.738   3.532   8.637  0.3753  0.2835  0.6101
 2290TIP3    H128505   6.661   3.579   8.605  1.6343  1.2355 -1.1934
 2290TIP3    H228506   6.805   3.548   8.571  1.7223 -1.7217  1.3913
 2291TIP3   OH228507   2.553   4.694   0.284  0.2823  0.0137 -0.4006
 2291TIP3    H128508   2.592   4.628   0.342  0.0672  0.5174  0.3346
 2291TIP3    H228509   2.474   4.652   0.250  1.2166 -0.8726 -1.5963
 2292TIP3   OH228510   1.674   1.045   6.277 -0.1727  0.2234  0.3444
 2292TIP3    H128511   1.730   1.099   6.222 -0.4404  0.6573  0.4838
 2292TIP3    H228512   1.729   0.972   6.303  0.4201  0.7794  0.7020
 2293TIP3   OH228513   6.222   0.329   0.686  0.0925 -0.1817  0.7116
 2293TIP3    H128514   6.225   0.406   0.629  1.0945 -0.6013  0.1776
 2293TIP3    H228515   6.303   0.334   0.737  1.0580 -1.8070 -0.5768
 2294TIP3   OH228516   4.148   5.392   8.283 -0.2234  0.1991  0.3373
 2294TIP3    H128517   4.133   5.485   8.270  1.2093  0.5153  0.8527
 2294TIP3    H228518   4.243   5.382   8.286 -0.3406 -1.3107  0.0929
 2295TIP3   OH228519   1.069   5.793   6.136 -0.1070 -0.0444 -0.5491
 2295TIP3    H128520   1.143   5.759   6.086 -1.6180 -1.0419 -2.2223
 2295TIP3    H228521   0.994   5.781   6.078 -1.9047 -0.8599  1.8247
 2296TIP3   OH228522   1.132   6.064   0.900  0.3218 -0.2416  0.0579
 2296TIP3    H128523   1.164   6.007   0.970 -1.3931 -2.0493 -0.5145
 2296TIP3    H228524   1.067   6.120   0.943 -1.0718 -1.6639 -0.0750
 2297TIP3   OH228525   4.578   6.340   1.027  0.3061  0.3593  0.4457
 2297TIP3    H128526   4.516   6.402   0.989  0.8244  0.7818  0.2738
 2297TIP3    H228527   4.552   6.255   0.992 -0.1658  0.5367  0.3683
 2298TIP3   OH228528   2.041   0.202   0.551 -0.0292 -0.1958  0.0599
 2298TIP3    H128529   1.958   0.166   0.585  0.5708 -0.7629  0.9970
 2298TIP3    H228530   2.068   0.265   0.618  0.5794 -0.4426  0.0489
 2299TIP3   OH228531   3.297   5.125   1.584  0.3811 -0.5722 -0.9466
 2299TIP3    H128532   3.255   5.133   1.499  1.0349 -1.1353 -1.3343
 2299TIP3    H228533   3.252   5.051   1.626  0.4469 -0.6625 -1.0359
 2300TIP3   OH228534   4.399   6.332   1.339 -0.2809 -0.0579  0.1652
 2300TIP3    H128535   4.423   6.265   1.274  1.1474  1.0580 -0.5338
 2300TIP3    H228536   4.467   6.325   1.406  1.2001  2.0678 -1.0015
 2301TIP3   OH228537   2.068   3.396   6.827 -0.2421 -1.1383 -0.3153
 2301TIP3    H128538   2.031   3.307   6.827  1.0806 -1.7827 -2.7419
 2301TIP3    H228539   2.130   3.396   6.754  0.2496  1.6318 -0.0060
 2302TIP3   OH228540   0.118   3.330   7.599 -0.6526  0.1433  0.7945
 2302TIP3    H128541   0.175   3.405   7.619 -0.8961  0.8479 -0.9878
 2302TIP3    H228542   0.031   3.359   7.626 -1.2001  1.5836 -2.1453
 2303TIP3   OH228543   4.973   5.644   2.299  0.5399 -0.3577 -0.1001
 2303TIP3    H128544   5.033   5.579   2.335  2.4258  1.4099  0.1932
 2303TIP3    H228545   5.020   5.681   2.224 -0.5984  0.4690 -0.4402
 2304TIP3   OH228546   3.387   3.674   8.573  0.2469  0.2389 -0.4588
 2304TIP3    H128547   3.350   3.711   8.492 -0.4757 -0.3164 -0.3984
 2304TIP3    H228548   3.450   3.739   8.603  0.9923  0.1700 -1.8032
 2305TIP3   OH228549   6.088   6.462   6.445  0.3693  0.7705 -0.0710
 2305TIP3    H128550   6.108   6.383   6.395 -0.6008  1.0870 -0.9978
 2305TIP3    H228551   6.153   6.526   6.415  1.1662  0.3356  0.6919
 2306TIP3   OH228552   2.561   1.897   0.453  0.2850  0.0908  0.4882
 2306TIP3    H128553   2.469   1.897   0.426  0.0672  2.6138  0.9086
 2306TIP3    H228554   2.562   1.949   0.534  1.7003 -2.4688  2.2580
 2307TIP3   OH228555   0.763   1.273   7.664  0.1683 -0.3149 -0.1646
 2307TIP3    H128556   0.848   1.274   7.709  0.3264  2.6438 -0.3166
 2307TIP3    H228557   0.778   1.324   7.584 -1.8486  0.7119  0.0594
 2308TIP3   OH228558   4.385   2.603   0.945  0.4592 -0.7572  0.0790
 2308TIP3    H128559   4.355   2.658   1.017 -1.2443 -1.2596 -0.1941
 2308TIP3    H228560   4.345   2.641   0.867 -0.1514 -1.9169 -0.2048
 2309TIP3   OH228561   1.894   0.302   7.121  0.3553  0.5196 -0.1124
 2309TIP3    H128562   1.971   0.247   7.135 -0.6127 -2.0482 -3.5092
 2309TIP3    H228563   1.826   0.260   7.173  0.0516 -0.5305 -1.3018
 2310TIP3   OH228564   1.871   5.985   5.843  0.3719  0.4036 -0.3653
 2310TIP3    H128565   1.804   6.050   5.821 -2.7963 -2.8116 -1.1213
 2310TIP3    H228566   1.848   5.908   5.791  4.0166 -1.3461  0.3078
 2311TIP3   OH228567   3.045   3.841   0.812  0.6957  0.2737 -0.1418
 2311TIP3    H128568   3.101   3.909   0.775  1.7272  0.2935  1.3807
 2311TIP3    H228569   3.016   3.876   0.896  1.2894 -1.1565  0.7014
 2312TIP3   OH228570   5.231   2.931   7.071 -1.1240 -0.2044  0.1642
 2312TIP3    H128571   5.281   2.897   6.997 -0.2379 -3.0124  1.8910
 2312TIP3    H228572   5.272   3.015   7.091  0.7785 -0.9152 -0.5195
 2313TIP3   OH228573   1.142   6.109   1.201 -0.0900  0.2665  0.5343
 2313TIP3    H128574   1.165   6.081   1.290  0.7596  1.6725  0.7870
 2313TIP3    H228575   1.066   6.055   1.178  0.3208 -0.8528  1.7026
 2314TIP3   OH228576   2.952   5.428   6.607 -0.1649  0.3025 -0.1325
 2314TIP3    H128577   3.023   5.468   6.556  0.8373  2.7662  2.8650
 2314TIP3    H228578   2.995   5.358   6.657  0.5287  2.2440  2.2162
 2315TIP3   OH228579   1.092   2.567   8.515 -0.8071 -0.2065  0.0483
 2315TIP3    H128580   1.151   2.492   8.504 -0.3081  0.1808  0.0233
 2315TIP3    H228581   1.059   2.560   8.604  0.7349  0.5907  0.7206
 2316TIP3   OH228582   1.784   0.603   7.617 -0.3326  0.6748 -0.0592
 2316TIP3    H128583   1.831   0.575   7.539  1.2051  0.4701  0.9016
 2316TIP3    H228584   1.692   0.584   7.598  0.2849 -1.9901 -0.7480
 2317TIP3   OH228585   3.667   4.282   7.316 -0.1998 -0.2178  0.3134
 2317TIP3    H128586   3.593   4.225   7.293  0.6118 -0.9419 -0.5943
 2317TIP3    H228587   3.636   4.333   7.390 -2.2828  0.8540 -1.2020
 2318TIP3   OH228588   4.743   2.522   0.120 -0.6071  0.1397 -0.6073
 2318TIP3    H128589   4.811   2.465   0.083 -0.9068 -0.0364 -0.8971
 2318TIP3    H228590   4.660   2.483   0.090 -0.9041 -0.5024  0.9529
 2319TIP3   OH228591   4.966   4.259   7.468  0.2744  0.7926 -0.3409
 2319TIP3    H128592   4.964   4.320   7.394 -1.0061  1.2041  0.0208
 2319TIP3    H228593   4.903   4.191   7.445  1.0010  0.0910 -0.3106
 2320TIP3   OH228594   2.937   5.633   6.900 -0.0392  0.4153 -0.0473
 2320TIP3    H128595   2.879   5.658   6.828  1.1131  0.5141 -0.9486
 2320TIP3    H228596   2.933   5.708   6.960  0.8423  1.3734 -1.1586
 2321TIP3   OH228597   0.024   5.776   8.169 -0.2687  0.4663 -0.8003
 2321TIP3    H128598   0.045   5.765   8.262 -0.2419  1.5454 -0.6651
 2321TIP3    H228599   0.043   5.691   8.130  2.0944  0.6931 -0.2636
 2322TIP3   OH228600   2.692   6.436   0.301 -0.5141 -0.4449  0.6220
 2322TIP3    H128601   2.604   6.455   0.336 -0.3636  0.2824  0.6363
 2322TIP3    H228602   2.706   6.504   0.235 -0.4971 -1.3773 -0.3394
 2323TIP3   OH228603   5.413   3.520   8.563  0.0388  0.0057  0.1310
 2323TIP3    H128604   5.442   3.543   8.475  1.4898  1.2765  0.8758
 2323TIP3    H228605   5.343   3.583   8.582 -0.1447 -0.1453 -0.0452
 2324TIP3   OH228606   0.732   0.450   8.338 -0.1054 -0.1177  0.0758
 2324TIP3    H128607   0.664   0.417   8.279  0.0214  0.3199 -0.3201
 2324TIP3    H228608   0.767   0.372   8.381  0.1701 -0.4927 -0.8239
 2325TIP3   OH228609   1.805   0.552   1.120  0.7244  0.0941  0.1024
 2325TIP3    H128610   1.738   0.519   1.060 -0.4165  1.3194  0.6423
 2325TIP3    H228611   1.864   0.603   1.065 -0.0546  0.8229 -0.0900
 2326TIP3   OH228612   1.635   0.238   0.165 -0.1576 -0.6120  0.0319
 2326TIP3    H128613   1.710   0.275   0.119  0.1615  1.7819  2.2023
 2326TIP3    H228614   1.667   0.223   0.254 -2.4474  1.6874  1.3850
 2327TIP3   OH228615   4.656   2.337   2.151  0.0344 -0.0538 -0.4654
 2327TIP3    H128616   4.630   2.421   2.190 -0.4069 -0.4743  0.1606
 2327TIP3    H228617   4.588   2.276   2.179  0.0327 -0.4940 -1.4291
 2328TIP3   OH228618   6.389   3.022   2.512 -0.0353 -0.1671 -0.0632
 2328TIP3    H128619   6.304   3.006   2.551 -0.5235  0.4898 -0.8134
 2328TIP3    H228620   6.425   2.935   2.494 -0.3344 -0.4476  0.6907
 2329TIP3   OH228621   6.621   0.349   0.956  0.0873  0.2813 -0.1340
 2329TIP3    H128622   6.567   0.382   0.883  0.5640  1.8098  0.1525
 2329TIP3    H228623   6.562   0.350   1.031 -0.6233 -2.0213 -0.5978
 2330TIP3   OH228624   6.820   1.971   1.769  0.3228  0.0544 -0.0620
 2330TIP3    H128625   6.808   1.911   1.842  0.5678 -0.6685 -0.6016
 2330TIP3    H228626   6.801   2.058   1.805 -0.4038 -0.3840  0.6335
 2331TIP3   OH228627   2.534   0.008   0.738  0.1578 -0.2409 -0.5927
 2331TIP3    H128628   2.529  -0.032   0.651 -2.4848 -2.6650  0.4963
 2331TIP3    H228629   2.590  -0.051   0.789  0.3940  0.2772 -0.2445
 2332TIP3   OH228630   1.029   2.376   1.983 -0.4137  0.0354  0.2946
 2332TIP3    H128631   0.962   2.336   2.039  0.5685 -1.4739  0.4504
 2332TIP3    H228632   1.107   2.379   2.037  0.1042  0.1370 -0.4442
 2333TIP3   OH228633   4.979   1.198   1.900 -0.5349  0.6199 -0.3449
 2333TIP3    H128634   4.942   1.178   1.987  1.1798 -0.7981  0.1158
 2333TIP3    H228635   4.949   1.287   1.882  1.1824  2.0761  2.9421
 2334TIP3   OH228636   3.896   0.929   7.556  0.3029 -1.3437  0.5091
 2334TIP3    H128637   3.983   0.931   7.597 -0.0902  0.1497  1.3173
 2334TIP3    H228638   3.850   1.004   7.592 -1.4977 -2.3335  0.3912
 2335TIP3   OH228639   3.457   6.348   0.249  0.4388 -0.2550  0.5359
 2335TIP3    H128640   3.383   6.324   0.305  0.9476  1.2912  1.9738
 2335TIP3    H228641   3.526   6.373   0.311  1.2705  0.8574 -0.7836
 2336TIP3   OH228642   0.460   2.832   0.328 -0.7541 -0.5944 -0.0083
 2336TIP3    H128643   0.463   2.753   0.274 -2.7844 -1.1656  0.6284
 2336TIP3    H228644   0.376   2.872   0.307 -0.3390  0.6929  0.6814
 2337TIP3   OH228645   5.195   0.100   1.809 -0.6693  0.0251 -0.2540
 2337TIP3    H128646   5.121   0.043   1.788 -0.4398 -0.4288  0.1537
 2337TIP3    H228647   5.160   0.189   1.801 -1.3434 -0.1900  0.2207
 2338TIP3   OH228648   5.646   3.205   7.583 -0.2442 -0.7419  0.0856
 2338TIP3    H128649   5.590   3.128   7.588  1.1038 -1.7669 -0.0949
 2338TIP3    H228650   5.675   3.220   7.673 -1.8179  0.6207  0.4280
 2339TIP3   OH228651   0.323   6.657   8.329  0.1004 -0.2542 -0.5559
 2339TIP3    H128652   0.383   6.665   8.403 -0.6247 -0.7908  0.1040
 2339TIP3    H228653   0.331   6.740   8.282  0.1233  0.3318  0.4725
 2340TIP3   OH228654   3.738   4.042   6.889 -0.8095 -0.0734  0.2840
 2340TIP3    H128655   3.710   3.951   6.903 -0.7391  0.0811  1.5312
 2340TIP3    H228656   3.784   4.065   6.969  1.6596  0.1616 -1.0992
 2341TIP3   OH228657   4.436   3.974   1.749  0.1836  0.8532 -0.0986
 2341TIP3    H128658   4.363   4.008   1.697 -1.9402 -0.6845  1.6328
 2341TIP3    H228659   4.466   4.048   1.801 -0.2063  1.5029 -0.7876
 2342TIP3   OH228660   0.030   5.415   1.752  0.4318  0.3016 -0.0754
 2342TIP3    H128661   0.037   5.327   1.713 -1.1855  0.2726 -0.3666
 2342TIP3    H228662  -0.011   5.400   1.837  1.6108  0.6410  0.5793
 2343TIP3   OH228663   5.100   6.230   6.805 -0.1377 -0.6811  0.4756
 2343TIP3    H128664   5.067   6.223   6.895 -0.0174  1.5516  0.7406
 2343TIP3    H228665   5.183   6.277   6.814 -1.0556  1.3258 -0.9326
 2344TIP3   OH228666   5.470   5.589   1.514 -0.0346 -0.3298  0.1475
 2344TIP3    H128667   5.408   5.534   1.466  1.2629 -1.9043  0.1675
 2344TIP3    H228668   5.454   5.569   1.606  0.2289 -0.4227  0.1731
 2345TIP3   OH228669   0.644   5.133   6.672 -0.5781 -0.2162  0.2349
 2345TIP3    H128670   0.723   5.093   6.636  0.2149  0.3942  1.2324
 2345TIP3    H228671   0.575   5.068   6.658  0.1363 -0.8374 -0.4885
 2346TIP3   OH228672   5.711   3.568   6.732 -0.1627  0.1712  0.2887
 2346TIP3    H128673   5.658   3.544   6.808 -0.5239 -0.4535 -0.1534
 2346TIP3    H228674   5.674   3.651   6.703 -1.2558 -0.5096 -0.3252
 2347TIP3   OH228675   3.937   1.041   1.252 -0.0736  0.0073  0.5085
 2347TIP3    H128676   4.014   1.077   1.209  0.1118 -0.0502  0.7864
 2347TIP3    H228677   3.907   0.971   1.195 -0.7712  0.9579 -0.3293
 2348TIP3   OH228678   0.947   0.083   7.656  0.3498 -0.6214  0.2340
 2348TIP3    H128679   0.887   0.103   7.584  0.2700 -1.7121 -0.0291
 2348TIP3    H228680   0.913   0.131   7.731  0.4000  0.4855 -0.4346
 2349TIP3   OH228681   0.720   5.359   1.014 -0.4715  0.2246  0.4516
 2349TIP3    H128682   0.652   5.377   1.079  0.6597  0.7574  1.5192
 2349TIP3    H228683   0.747   5.446   0.982 -0.1736  0.0306  0.1642
 2350TIP3   OH228684   1.024   1.075   8.521 -0.5224  0.0719 -0.1570
 2350TIP3    H128685   0.979   1.065   8.605  3.1836 -1.2510  1.9291
 2350TIP3    H228686   1.031   1.170   8.510 -0.6439  0.2926  1.3724
 2351TIP3   OH228687   3.918   4.363   0.825  0.1342  0.3882 -0.0364
 2351TIP3    H128688   4.009   4.334   0.824 -0.1132 -0.3604 -0.8524
 2351TIP3    H228689   3.882   4.335   0.742 -1.1495 -0.2660  0.7085
 2352TIP3   OH228690   2.678   3.334   7.612  0.2202 -0.0444 -0.0653
 2352TIP3    H128691   2.670   3.252   7.662  0.8028  0.8156  1.5251
 2352TIP3    H228692   2.666   3.403   7.678 -0.6968  1.1684 -1.4398
 2353TIP3   OH228693   0.517   0.870   8.589 -0.0895 -0.0169  0.0436
 2353TIP3    H128694   0.502   0.911   8.674 -1.3133  0.5730 -0.4430
 2353TIP3    H228695   0.578   0.929   8.544  1.6364 -1.0040  0.9738
 2354TIP3   OH228696   3.063   1.314   0.866 -0.7501 -0.0418  0.6893
 2354TIP3    H128697   3.059   1.406   0.840 -0.7369  0.1653  1.3888
 2354TIP3    H228698   3.110   1.271   0.796 -1.8188  0.2601 -0.2464
 2355TIP3   OH228699   1.085   1.053   1.400 -0.2324 -0.0269 -0.2430
 2355TIP3    H128700   1.159   0.993   1.410 -0.6642 -0.7818 -1.3914
 2355TIP3    H228701   1.015   1.013   1.451  0.1381  0.6976  0.8598
 2356TIP3   OH228702   5.333   0.907   0.748  0.0969  0.5077 -0.5497
 2356TIP3    H128703   5.310   0.928   0.658 -0.1152 -0.5936 -0.7589
 2356TIP3    H228704   5.418   0.949   0.762 -0.0559  1.0144 -1.1272
 2357TIP3   OH228705   4.704   3.073   7.103  0.2538 -0.0409 -0.0613
 2357TIP3    H128706   4.718   2.978   7.101  2.8464  0.2743 -0.3129
 2357TIP3    H228707   4.791   3.110   7.087 -0.6701  2.3890  0.1947
 2358TIP3   OH228708   4.663   1.324   0.633  0.1605 -0.0780 -0.1330
 2358TIP3    H128709   4.588   1.376   0.604 -0.9016 -0.4100  1.8122
 2358TIP3    H228710   4.740   1.375   0.607 -0.7395  0.5107 -1.7388
 2359TIP3   OH228711   0.145   2.192   0.220  0.0022 -0.0862  0.0684
 2359TIP3    H128712   0.139   2.097   0.232  0.5423 -0.1432 -0.1169
 2359TIP3    H228713   0.081   2.227   0.282 -0.0743 -0.5612  0.2679
 2360TIP3   OH228714   5.154   3.108   1.568 -0.2102 -0.2624 -0.2222
 2360TIP3    H128715   5.059   3.119   1.582 -0.0282  0.6480  0.3963
 2360TIP3    H228716   5.193   3.184   1.610  0.7183  0.1443 -1.7601
 2361TIP3   OH228717   2.910   3.481   7.533 -0.2016 -0.1457  0.4187
 2361TIP3    H128718   2.828   3.431   7.530 -1.8020  2.2153  1.2647
 2361TIP3    H228719   2.892   3.551   7.596  2.2864  0.8223  0.1460
 2362TIP3   OH228720   0.335   2.718   6.329  0.6246  0.4361  0.1886
 2362TIP3    H128721   0.430   2.720   6.331  0.6072  0.8572  1.8353
 2362TIP3    H228722   0.312   2.629   6.356  0.5405  0.5079  0.3530
 2363TIP3   OH228723   0.429   0.342   6.856  0.2213 -0.7933  0.6082
 2363TIP3    H128724   0.427   0.438   6.862  2.4597 -0.6164 -0.5138
 2363TIP3    H228725   0.339   0.315   6.874 -0.5458  1.5429  0.5895
 2364TIP3   OH228726   3.227   4.560   6.280 -0.0302  0.5746 -0.1376
 2364TIP3    H128727   3.289   4.605   6.223  1.1332  1.8644  2.0193
 2364TIP3    H228728   3.276   4.484   6.314  0.1976  1.2333  1.0667
 2365TIP3   OH228729   5.960   5.725   6.637  0.2094  0.2617  0.0305
 2365TIP3    H128730   5.940   5.792   6.573 -3.0556  0.4075  1.0357
 2365TIP3    H228731   5.985   5.648   6.585 -2.4563  0.3273 -1.5174
 2366TIP3   OH228732   0.370   3.690   2.162 -0.1824 -0.5307 -0.4122
 2366TIP3    H128733   0.464   3.691   2.142  0.5770  1.7973  2.4557
 2366TIP3    H228734   0.352   3.600   2.187  1.3742 -0.9620 -0.7138
 2367TIP3   OH228735   5.460   0.622   7.932 -0.2526 -0.1974 -0.5614
 2367TIP3    H128736   5.432   0.712   7.947  1.5486  0.0196  2.1454
 2367TIP3    H228737   5.393   0.568   7.974  0.2835  0.0589  0.6613
 2368TIP3   OH228738   0.237   0.374   6.043  0.8783  0.4112 -0.3833
 2368TIP3    H128739   0.184   0.445   6.080 -1.1616 -1.1863 -0.0796
 2368TIP3    H228740   0.297   0.418   5.982  0.9114  2.5516  1.0890
 2369TIP3   OH228741   1.298   1.528   1.077 -0.2241 -0.9657  0.1000
 2369TIP3    H128742   1.320   1.556   1.166 -2.1822  1.1196  0.0059
 2369TIP3    H228743   1.303   1.432   1.080  1.0874 -0.8768  2.0634
 2370TIP3   OH228744   6.400   4.108   7.533  0.9228  0.6799  0.2806
 2370TIP3    H128745   6.365   4.185   7.577  0.5845  0.5588  0.2276
 2370TIP3    H228746   6.461   4.069   7.596  0.2132  0.3338  0.7670
 2371TIP3   OH228747   5.760   1.815   7.526  0.8963  0.3644  0.2725
 2371TIP3    H128748   5.762   1.740   7.586  0.8436  0.3767  0.2891
 2371TIP3    H228749   5.670   1.846   7.529  0.1376 -1.3296 -1.9320
 2372TIP3   OH228750   0.590   3.837   8.622 -0.3790 -0.0736  0.6753
 2372TIP3    H128751   0.619   3.913   8.674  0.4539 -0.0806  0.2292
 2372TIP3    H228752   0.581   3.766   8.686  1.0125 -0.1833  0.7724
 2373TIP3   OH228753   0.317   6.678   7.229 -0.5322 -0.0869  0.0105
 2373TIP3    H128754   0.387   6.706   7.288 -0.5019  1.6419 -0.7742
 2373TIP3    H228755   0.243   6.661   7.287 -0.7083  2.2200  0.5654
 2374TIP3   OH228756   4.891   2.863   7.913  0.2282 -0.3838 -0.8981
 2374TIP3    H128757   4.900   2.822   7.827  1.7561  0.3317 -1.1314
 2374TIP3    H228758   4.972   2.914   7.923  1.2290 -2.2559  1.9279
 2375TIP3   OH228759   4.655   6.118   7.066  0.3820  0.0934 -0.6587
 2375TIP3    H128760   4.749   6.118   7.051  0.5652 -1.5290  0.2815
 2375TIP3    H228761   4.622   6.044   7.016 -0.6162  1.3579 -1.9678
 2376TIP3   OH228762   0.460   6.761   0.236  0.2315 -0.1749  0.3751
 2376TIP3    H128763   0.467   6.719   0.321  0.4807  1.0566  0.9861
 2376TIP3    H228764   0.410   6.699   0.183  1.0248 -1.4515  1.0698
 2377TIP3   OH228765   6.555   1.525   8.440 -0.3077  0.1311  0.2546
 2377TIP3    H128766   6.580   1.612   8.408  0.4301 -0.3394 -0.4992
 2377TIP3    H228767   6.462   1.517   8.419  0.1199 -0.1060 -1.7153
 2378TIP3   OH228768   4.670   3.593   6.632  0.5945  0.2697  0.0245
 2378TIP3    H128769   4.755   3.549   6.645 -0.0214 -0.8577  0.3797
 2378TIP3    H228770   4.609   3.521   6.617 -0.3641  1.0605  0.0829
 2379TIP3   OH228771   3.376   2.383   1.394 -0.7874  0.1383  0.5396
 2379TIP3    H128772   3.352   2.307   1.341 -0.6581  0.1555  0.4560
 2379TIP3    H228773   3.465   2.366   1.423 -0.0477  1.1034 -1.0332
 2380TIP3   OH228774   4.113   3.714   7.884 -0.5376 -0.3279 -0.1055
 2380TIP3    H128775   4.175   3.776   7.846  0.9358 -0.1621  2.3454
 2380TIP3    H228776   4.143   3.703   7.975 -2.9776 -1.7630  0.6109
 2381TIP3   OH228777   6.447   0.018   0.563  0.8756 -0.0359 -0.1420
 2381TIP3    H128778   6.478   0.083   0.626  0.6279  0.6021 -0.6698
 2381TIP3    H228779   6.352   0.027   0.564  0.6043 -2.2209  1.7175
 2382TIP3   OH228780   1.604   0.996   2.662 -0.1692  0.4831  0.6116
 2382TIP3    H128781   1.681   0.986   2.717 -0.7966  0.4237  1.4923
 2382TIP3    H228782   1.604   0.919   2.606  0.0998  0.1994  0.9986
 2383TIP3   OH228783   0.638   3.253   7.892 -0.4060 -0.1037  0.3848
 2383TIP3    H128784   0.551   3.217   7.910  0.3685 -1.4328  1.7026
 2383TIP3    H228785   0.691   3.226   7.967  1.7673 -1.5065 -1.5195
 2384TIP3   OH228786   2.904   0.951   7.272  0.2177  0.6211 -0.2028
 2384TIP3    H128787   2.813   0.951   7.245  0.6938 -0.9010 -1.9798
 2384TIP3    H228788   2.902   0.974   7.365 -1.8590  1.6264 -0.4543
 2385TIP3   OH228789   3.093   3.287   0.130  0.2163  0.4302  0.0894
 2385TIP3    H128790   3.016   3.237   0.156 -1.1309  2.0711 -0.5364
 2385TIP3    H228791   3.058   3.373   0.106  2.2776  1.2741 -0.0586
 2386TIP3   OH228792   2.290   2.563   6.870  0.8187  0.4279 -0.2151
 2386TIP3    H128793   2.308   2.548   6.778 -0.1227 -0.0161 -0.3385
 2386TIP3    H228794   2.209   2.514   6.887  1.3521 -0.0802  1.0071
 2387TIP3   OH228795   2.998   0.618   8.286  0.0650 -0.2362  0.1656
 2387TIP3    H128796   3.084   0.579   8.270  0.2648 -0.4290  1.5488
 2387TIP3    H228797   2.940   0.574   8.223  0.4793 -2.0908  0.9979
 2388TIP3   OH228798   5.896   0.052   0.121 -0.4507  0.0629 -0.1048
 2388TIP3    H128799   5.871  -0.029   0.165 -0.9100  0.5188  0.5038
 2388TIP3    H228800   5.975   0.081   0.167  1.6043 -1.6235 -2.3336
 2389TIP3   OH228801   3.355   4.505   7.285  0.2908  0.6504  0.2534
 2389TIP3    H128802   3.403   4.585   7.307 -0.0641  0.9239  0.0563
 2389TIP3    H228803   3.363   4.450   7.362  0.7801  0.7604  0.2851
 2390TIP3   OH228804   6.592   3.558   6.894 -0.0178  0.1642  0.4144
 2390TIP3    H128805   6.686   3.549   6.876  0.3093  0.7700  1.6944
 2390TIP3    H228806   6.562   3.469   6.910  0.5138  0.0485  0.7809
 2391TIP3   OH228807   0.411   0.571   0.078  0.3728 -0.0066 -0.4040
 2391TIP3    H128808   0.432   0.612  -0.007 -0.4236 -0.3579 -0.7764
 2391TIP3    H228809   0.316   0.565   0.079  0.3884 -0.1525  0.4581
 2392TIP3   OH228810   5.281   2.947   8.217 -0.0087 -0.1440 -0.3399
 2392TIP3    H128811   5.374   2.965   8.203 -0.3016 -0.1584 -2.7633
 2392TIP3    H228812   5.248   3.023   8.264  1.2835 -0.3093  0.8824
 2393TIP3   OH228813   1.058   6.506   1.033  0.3265 -0.0700 -0.3850
 2393TIP3    H128814   1.092   6.590   1.001  0.3557  0.4678  0.9782
 2393TIP3    H228815   1.096   6.498   1.121 -1.3046 -0.5190  0.3057
 2394TIP3   OH228816   6.750   3.435   7.612 -0.1484 -0.1910  0.2828
 2394TIP3    H128817   6.703   3.513   7.640 -0.5622  0.1996 -1.4018
 2394TIP3    H228818   6.682   3.375   7.583  0.2821 -0.4130 -0.2856
 2395TIP3   OH228819   1.097   6.373   1.504 -0.4630  0.0660 -0.4134
 2395TIP3    H128820   1.106   6.400   1.413 -1.5309 -0.4859 -0.6961
 2395TIP3    H228821   1.004   6.358   1.516 -0.2591 -0.5169  0.5810
 2396TIP3   OH228822   1.095   3.249   0.353  0.0659  0.1705 -0.3875
 2396TIP3    H128823   1.065   3.188   0.420  1.4991  0.0356  0.1613
 2396TIP3    H228824   1.105   3.196   0.274 -0.4267  0.0730 -0.3837
 2397TIP3   OH228825   2.017   4.892   7.326  0.3614 -0.5388  0.2657
 2397TIP3    H128826   2.062   4.970   7.357 -1.7182  0.5438  0.6626
 2397TIP3    H228827   1.941   4.924   7.278  0.2495 -2.3051 -0.8771
 2398TIP3   OH228828   4.675   3.842   1.654 -0.0106 -0.5931 -0.6517
 2398TIP3    H128829   4.630   3.784   1.593 -2.8775  0.8734 -0.0919
 2398TIP3    H228830   4.606   3.876   1.710  2.2050 -0.2366  2.0972
 2399TIP3   OH228831   5.920   0.550   0.085 -0.3554 -0.1818  0.3151
 2399TIP3    H128832   5.845   0.599   0.053 -0.1108 -0.3929 -0.6054
 2399TIP3    H228833   5.987   0.617   0.102 -0.7745  0.0136  1.2253
 2400TIP3   OH228834   4.988   3.201   6.888  0.1735 -0.3316  0.0851
 2400TIP3    H128835   4.992   3.294   6.911 -0.6316 -0.8033  2.3536
 2400TIP3    H228836   5.049   3.192   6.814 -0.1363  2.0692 -0.5348
 2401TIP3   OH228837   3.937   3.304   0.688 -0.1829  0.2670  0.3427
 2401TIP3    H128838   4.012   3.291   0.746 -0.0860  0.6523  0.3099
 2401TIP3    H228839   3.975   3.313   0.601 -0.3918 -1.1484  0.0933
 2402TIP3   OH228840   5.223   0.645   1.998 -0.4725 -0.0252  0.7320
 2402TIP3    H128841   5.234   0.586   1.923 -1.5795  1.8330 -0.9925
 2402TIP3    H228842   5.146   0.612   2.043 -3.1278  1.7609 -2.0849
 2403TIP3   OH228843   5.693   5.014   0.600  0.5090 -0.0504  0.3689
 2403TIP3    H128844   5.718   5.072   0.528 -0.0978  0.0613  0.2450
 2403TIP3    H228845   5.727   4.928   0.574 -0.5707 -0.2225 -0.5363
 2404TIP3   OH228846   6.234   4.877   0.374 -0.3471  0.3514 -0.0229
 2404TIP3    H128847   6.317   4.840   0.342 -0.1802  1.2921 -0.7371
 2404TIP3    H228848   6.167   4.838   0.317 -0.4582 -0.7170  0.8107
 2405TIP3   OH228849   3.040   2.770   7.724 -0.4166  0.4803  0.4588
 2405TIP3    H128850   3.111   2.794   7.783 -0.8676 -0.2936  1.3315
 2405TIP3    H228851   3.064   2.683   7.691 -0.2209  0.8579 -0.4280
 2406TIP3   OH228852   3.462   3.318   1.840  0.0923  0.6370  0.0156
 2406TIP3    H128853   3.379   3.345   1.881  0.2856  1.8636 -0.3637
 2406TIP3    H228854   3.530   3.359   1.894  0.4682 -0.3886  0.3426
 2407TIP3   OH228855   1.977   4.432   8.600 -0.1528  0.8135  0.0737
 2407TIP3    H128856   1.888   4.443   8.635  0.0461  1.3082  0.4419
 2407TIP3    H228857   2.012   4.356   8.647 -0.7915 -0.1185 -0.9348
 2408TIP3   OH228858   3.092   6.536   7.266 -0.6903  0.0503  0.4112
 2408TIP3    H128859   3.051   6.591   7.199 -0.6156 -0.4164 -0.0255
 2408TIP3    H228860   3.177   6.577   7.281 -0.1325 -0.6163 -0.8003
 2409TIP3   OH228861   3.322   3.684   0.726 -0.0450  0.4458 -0.0581
 2409TIP3    H128862   3.264   3.617   0.763  1.1217 -1.2492 -1.1803
 2409TIP3    H228863   3.278   3.712   0.646  0.8234 -1.1752 -1.1568
 2410TIP3   OH228864   2.138   6.236   1.322 -0.3862  0.1375  0.4609
 2410TIP3    H128865   2.090   6.172   1.374 -1.2577  0.2082 -0.2359
 2410TIP3    H228866   2.121   6.212   1.231  0.1895  0.6939  0.1903
 2411TIP3   OH228867   4.983   6.501   1.450 -0.3816 -0.6889  0.3551
 2411TIP3    H128868   5.013   6.444   1.379 -1.1916 -0.4287 -0.2098
 2411TIP3    H228869   5.035   6.581   1.440 -0.5151 -0.6412  0.0333
 2412TIP3   OH228870   6.168   3.284   7.035  0.1227  0.1554  0.4827
 2412TIP3    H128871   6.133   3.210   7.084 -0.8797 -0.6395 -1.3421
 2412TIP3    H228872   6.095   3.313   6.980  1.0595  1.2948 -0.2089
 2413TIP3   OH228873   0.866   1.001   0.098 -0.0595  0.0316  0.0588
 2413TIP3    H128874   0.814   0.990   0.177  0.8629 -0.6092  0.5830
 2413TIP3    H228875   0.839   0.928   0.042 -0.8582  0.5978 -0.3241
 2414TIP3   OH228876   2.848   4.523   8.571 -0.1706 -0.1053  0.3828
 2414TIP3    H128877   2.921   4.513   8.631  0.9839  0.6774 -0.8181
 2414TIP3    H228878   2.771   4.533   8.627  0.7652 -0.0335  1.6954
 2415TIP3   OH228879   0.216   0.870   6.813 -0.0496  0.2539 -0.5760
 2415TIP3    H128880   0.159   0.816   6.867  0.3149  0.5671  0.1317
 2415TIP3    H228881   0.233   0.947   6.866  2.4772 -0.6137 -0.0061
 2416TIP3   OH228882   4.398   0.362   0.829  0.2256  0.1351  0.0013
 2416TIP3    H128883   4.328   0.367   0.894 -0.6873 -1.2917 -0.8090
 2416TIP3    H228884   4.476   0.394   0.874 -1.0714  2.4540  0.7142
 2417TIP3   OH228885   4.055   4.372   0.490  0.1938 -0.2988  0.0733
 2417TIP3    H128886   4.009   4.379   0.406 -2.2537  1.3364  1.4306
 2417TIP3    H228887   4.006   4.305   0.538 -0.2710  0.8255  1.2205
 2418TIP3   OH228888   1.002   2.428   0.259 -0.2973  0.0856 -0.0309
 2418TIP3    H128889   1.086   2.393   0.289 -0.1815  1.0648  0.8661
 2418TIP3    H228890   0.950   2.351   0.238  0.6980 -0.5489 -0.2520
 2419TIP3   OH228891   4.495   3.999   0.340 -0.1904 -0.0363  0.7336
 2419TIP3    H128892   4.487   4.075   0.397 -3.3836 -0.1510  0.6203
 2419TIP3    H228893   4.410   3.956   0.346  0.8917 -2.5947 -0.6478
 2420TIP3   OH228894   5.452   4.324   0.911 -0.0816  0.4129  0.1243
 2420TIP3    H128895   5.468   4.237   0.876  0.1926  0.2488  0.6432
 2420TIP3    H228896   5.414   4.373   0.838 -0.4429 -0.2019 -0.1062
 2421TIP3   OH228897   3.169   3.508   6.985 -0.4108 -0.2627  0.4261
 2421TIP3    H128898   3.237   3.505   6.918 -1.7918  0.5530 -1.1006
 2421TIP3    H228899   3.099   3.453   6.951 -1.1195  0.1159  1.2217
 2422TIP3   OH228900   5.068   3.219   7.720 -0.1185  0.3701  0.1086
 2422TIP3    H128901   5.078   3.268   7.802  2.0491  0.9048 -0.4266
 2422TIP3    H228902   4.974   3.224   7.702 -0.4460  1.4651  1.8141
 2423TIP3   OH228903   1.645   4.175   6.600 -0.2451 -0.2691  0.3873
 2423TIP3    H128904   1.597   4.103   6.559 -0.3302  0.9487 -1.8464
 2423TIP3    H228905   1.590   4.203   6.672 -0.6448 -1.8265  0.7208
 2424TIP3   OH228906   1.385   6.504   7.207 -0.1421  0.0015 -0.2024
 2424TIP3    H128907   1.404   6.498   7.300 -0.3670  0.5059 -0.1199
 2424TIP3    H228908   1.337   6.586   7.197 -1.7953 -0.9616 -0.4787
 2425TIP3   OH228909   2.454   2.721   7.145 -0.4154  0.4904  0.1199
 2425TIP3    H128910   2.415   2.634   7.136 -1.3529  0.8597  0.4721
 2425TIP3    H228911   2.534   2.717   7.092 -0.2216 -0.7100  0.4694
 2426TIP3   OH228912   6.244   0.548   8.386  0.4529  0.2143 -0.4944
 2426TIP3    H128913   6.204   0.634   8.404 -0.2385  0.1910 -1.8240
 2426TIP3    H228914   6.198   0.516   8.309  2.6714 -0.0634 -1.7805
 2427TIP3   OH228915   3.316   2.172   7.402 -0.1621  0.1127  0.1307
 2427TIP3    H128916   3.314   2.087   7.359 -1.3089 -0.4148  1.1716
 2427TIP3    H228917   3.227   2.206   7.393 -0.6734 -0.3475  2.6479
 2428TIP3   OH228918   3.245   6.621   8.401 -0.1620 -0.0759 -0.5473
 2428TIP3    H128919   3.281   6.599   8.315  0.9768 -1.2086  0.1758
 2428TIP3    H228920   3.269   6.713   8.415 -0.3632  0.1173 -1.4273
 2429TIP3   OH228921   5.445   0.078   0.071 -0.5758  0.1229  0.1356
 2429TIP3    H128922   5.469  -0.009   0.038 -1.0336 -0.4499  1.2557
 2429TIP3    H228923   5.467   0.138  -0.000 -0.3768 -0.9267 -0.7096
 2430TIP3   OH228924   3.305   5.006   0.883 -0.1464  0.4048 -0.1455
 2430TIP3    H128925   3.275   5.072   0.946 -0.4176 -0.6832  0.9028
 2430TIP3    H228926   3.388   4.975   0.918 -0.0796  0.1014 -0.5624
 2431TIP3   OH228927   6.136   5.283   7.752 -0.4025 -0.3242  0.1994
 2431TIP3    H128928   6.047   5.315   7.737 -0.6070  0.2718  2.2729
 2431TIP3    H228929   6.172   5.344   7.817  1.0237 -1.3692  0.4312
 2432TIP3   OH228930   6.436   5.721   8.046 -0.0881  0.4003 -0.2406
 2432TIP3    H128931   6.378   5.777   8.096  1.2010  0.7487  0.9431
 2432TIP3    H228932   6.482   5.669   8.112  0.0523 -0.7472 -1.2049
 2433TIP3   OH228933   0.088   6.632   7.396  0.2518  0.8919  0.6877
 2433TIP3    H128934   0.154   6.592   7.452  1.6999  1.7540 -0.3242
 2433TIP3    H228935   0.004   6.605   7.434  1.0881 -2.7614  0.3327
 2434TIP3   OH228936   0.504   2.187   0.896 -0.0976  0.8323  0.2551
 2434TIP3    H128937   0.533   2.096   0.893 -0.3544  0.7129  1.1174
 2434TIP3    H228938   0.566   2.230   0.954 -0.4427  1.0192  0.4924
 2435TIP3   OH228939   2.365   5.911   7.877 -0.6990  0.1891 -0.1088
 2435TIP3    H128940   2.389   6.001   7.896  0.3022  0.4053 -2.2436
 2435TIP3    H228941   2.445   5.861   7.890  0.0475  0.3408 -3.3854
 2436TIP3   OH228942   3.092   2.060   8.145  0.1168  0.5670 -0.0000
 2436TIP3    H128943   3.016   2.005   8.125  1.4130 -1.3930  0.1902
 2436TIP3    H228944   3.107   2.046   8.239  0.5894  1.1068  0.0094
 2437TIP3   OH228945   0.566   0.298   1.402  0.1747 -0.5977  0.5189
 2437TIP3    H128946   0.619   0.262   1.473  0.8559 -1.3645 -0.3592
 2437TIP3    H228947   0.568   0.231   1.334 -2.1254 -0.7393  0.5245
 2438TIP3   OH228948   6.649   2.140   7.961 -0.4305 -0.1270 -0.5201
 2438TIP3    H128949   6.616   2.154   8.050  1.1080 -1.0105  0.2226
 2438TIP3    H228950   6.625   2.050   7.940  1.0879 -0.6556 -0.1193
 2439TIP3   OH228951   0.979   4.584   1.251 -0.2186  0.0996  0.3800
 2439TIP3    H128952   0.951   4.527   1.180 -2.0420  1.5793 -0.1389
 2439TIP3    H228953   0.970   4.529   1.330 -2.7559 -0.1661  0.0022
 2440TIP3   OH228954   2.803   2.601   8.646  0.2711 -0.2296 -0.1632
 2440TIP3    H128955   2.856   2.576   8.570  1.3913  1.1700  0.1049
 2440TIP3    H228956   2.819   2.532   8.710  1.8965  0.1946 -0.0597
 2441TIP3   OH228957   5.308   3.641   1.615 -0.3549 -0.2953  0.4613
 2441TIP3    H128958   5.324   3.709   1.680  0.2094  0.3334 -0.2991
 2441TIP3    H228959   5.228   3.669   1.570 -0.5361 -0.5291  0.6374
 2442TIP3   OH228960   6.067   0.015   6.878 -0.0631  0.2842  0.1455
 2442TIP3    H128961   5.993  -0.037   6.909  1.0996 -1.3900  0.3114
 2442TIP3    H228962   6.074  -0.006   6.785  0.1083  0.5373  0.1007
 2443TIP3   OH228963   1.371   1.422   2.545 -0.1516 -0.2827  0.7764
 2443TIP3    H128964   1.407   1.347   2.591 -1.2476  0.5153  3.0668
 2443TIP3    H228965   1.291   1.389   2.505  0.5984 -0.8807 -0.2893
 2444TIP3   OH228966   5.409   5.086   0.771 -0.4599 -0.0927  0.1896
 2444TIP3    H128967   5.462   5.098   0.692  0.4291  1.5141  0.9883
 2444TIP3    H228968   5.426   4.996   0.798 -0.1647 -0.4144 -1.0154
 2445TIP3   OH228969   1.594   5.576   1.988  0.0867  0.1655 -0.6738
 2445TIP3    H128970   1.557   5.625   1.914 -0.9990  1.0314  0.4087
 2445TIP3    H228971   1.547   5.493   1.987 -2.1529  1.3083  0.7787
 2446TIP3   OH228972   6.268   3.394   6.418 -0.3106  0.1671  0.5454
 2446TIP3    H128973   6.322   3.346   6.355  2.0942  2.5747  0.5767
 2446TIP3    H228974   6.193   3.425   6.367  0.2448 -0.1361 -0.4869
 2447TIP3   OH228975   0.940   3.302   1.300 -0.3834 -0.0743  0.1567
 2447TIP3    H128976   0.955   3.387   1.258 -0.2850  0.3915  1.1166
 2447TIP3    H228977   0.885   3.254   1.238 -0.9484  0.9167 -0.1292
 2448TIP3   OH228978   0.791   5.790   6.014 -0.1676 -0.1825 -0.3558
 2448TIP3    H128979   0.714   5.827   6.058  0.4387 -0.0910  0.6510
 2448TIP3    H228980   0.762   5.702   5.989 -0.2696 -0.5785  1.0331
 2449TIP3   OH228981   5.746   1.001   1.738 -0.5737  0.1852 -0.3769
 2449TIP3    H128982   5.696   1.072   1.698 -0.6123 -0.0202 -0.6911
 2449TIP3    H228983   5.732   1.013   1.832  0.2789  1.2249 -0.3627
 2450TIP3   OH228984   3.947   6.419   0.318  0.7630  0.0832 -0.4674
 2450TIP3    H128985   3.903   6.424   0.403  0.0214 -1.0042 -0.7587
 2450TIP3    H228986   3.899   6.351   0.271  1.6979  0.0802 -1.4463
 2451TIP3   OH228987   5.490   3.110   2.214  0.0928 -0.0079  0.3416
 2451TIP3    H128988   5.396   3.120   2.198 -0.5371 -0.7956  2.9367
 2451TIP3    H228989   5.514   3.031   2.167 -0.4734  0.3680 -0.5976
 2452TIP3   OH228990   2.178   5.204   1.544  0.1782 -0.0443  0.8256
 2452TIP3    H128991   2.240   5.141   1.581  0.4912  0.4285  1.1183
 2452TIP3    H228992   2.152   5.258   1.619 -0.8001 -0.4054  0.7591
 2453TIP3   OH228993   2.739   1.984   1.519 -0.6383 -0.8678  0.1924
 2453TIP3    H128994   2.711   2.067   1.556  0.3661 -0.6985  0.6124
 2453TIP3    H228995   2.803   1.950   1.582 -0.6225 -1.6888 -0.2470
 2454TIP3   OH228996   5.482   0.498   7.085 -0.2891 -0.0613  0.4622
 2454TIP3    H128997   5.495   0.491   7.179 -1.4323 -1.0019  0.5716
 2454TIP3    H228998   5.504   0.411   7.051 -0.6627  0.0281 -0.0286
 2455TIP3   OH228999   1.189   0.480   0.968  0.0478 -0.4896 -0.9386
 2455TIP3    H129000   1.177   0.400   0.917  0.9746 -0.6533 -0.9316
 2455TIP3    H229001   1.243   0.535   0.912 -1.3738  0.5391 -1.3461
 2456TIP3   OH229002   6.857   6.057   1.685  0.2045  0.4693 -0.1166
 2456TIP3    H129003   6.850   5.967   1.717  0.0019 -0.3948 -2.4476
 2456TIP3    H229004   6.884   6.107   1.762 -0.5419 -1.4128  1.4497
 2457TIP3   OH229005   6.768   3.050   7.679 -0.5521 -0.4677 -0.3536
 2457TIP3    H129006   6.705   3.109   7.720  0.8957  1.7761 -1.1747
 2457TIP3    H229007   6.756   3.064   7.585  1.8086  0.8789 -0.5498
 2458TIP3   OH229008   3.067   5.407   0.844 -0.0132 -0.3553 -0.3764
 2458TIP3    H129009   3.115   5.390   0.925 -1.6634  2.2609  1.3020
 2458TIP3    H229010   3.107   5.486   0.807 -2.0118  1.1199  0.3813
 2459TIP3   OH229011   3.297   2.738   6.888  0.2292  0.7882 -0.6223
 2459TIP3    H129012   3.210   2.754   6.925  0.3472 -3.7048  2.4447
 2459TIP3    H229013   3.286   2.662   6.832  1.9531  1.1334 -1.5079
 2460TIP3   OH229014   4.906   4.015   1.632  0.3504  0.1534 -0.6023
 2460TIP3    H129015   4.819   3.976   1.624  0.6729 -0.8341  0.4300
 2460TIP3    H229016   4.922   4.055   1.546 -1.9309  2.1501 -0.2261
 2461TIP3   OH229017   3.648   6.636   1.107 -0.2918 -0.4987  0.1553
 2461TIP3    H129018   3.670   6.625   1.014 -3.9226  0.7372 -1.0429
 2461TIP3    H229019   3.612   6.725   1.113 -1.7138 -1.1374  2.3729
 2462TIP3   OH229020   6.777   0.224   2.623  0.7581 -0.0194 -0.2725
 2462TIP3    H129021   6.716   0.170   2.573 -1.2208  1.8347  0.0051
 2462TIP3    H229022   6.771   0.311   2.582  1.5631  0.7490  1.1583
 2463TIP3   OH229023   3.828   6.109   0.474  0.1252 -0.0314 -0.3712
 2463TIP3    H129024   3.869   6.061   0.546  0.0474 -1.6738 -1.3523
 2463TIP3    H229025   3.890   6.101   0.401 -0.0038  1.2007 -0.6350
 2464TIP3   OH229026   4.999   0.816   7.216 -0.3642  0.4916  0.4028
 2464TIP3    H129027   5.093   0.823   7.234 -0.6775 -0.1792  2.6247
 2464TIP3    H229028   4.988   0.860   7.131  1.9136  0.7017  0.1344
 2465TIP3   OH229029   6.256   6.152   6.755  0.2079 -0.5541  0.5434
 2465TIP3    H129030   6.275   6.100   6.677 -1.1487  0.9708 -0.8756
 2465TIP3    H229031   6.167   6.185   6.741 -0.2396 -0.5563  2.9455
 2466TIP3   OH229032   4.266   4.129   0.451  0.0416  0.0499 -0.0913
 2466TIP3    H129033   4.174   4.132   0.424  0.6849  1.2637 -2.3858
 2466TIP3    H229034   4.291   4.220   0.461 -0.1148 -0.1848  5.2016
 2467TIP3   OH229035   5.395   2.516   1.971  0.3632  0.2896 -0.4800
 2467TIP3    H129036   5.469   2.469   1.933 -0.5742 -1.6544 -0.0102
 2467TIP3    H229037   5.325   2.507   1.906  0.0784  0.8545 -0.2603
 2468TIP3   OH229038   1.281   6.485   6.851 -0.0349  0.2141 -0.3822
 2468TIP3    H129039   1.275   6.563   6.795 -0.9989 -0.1585 -0.8194
 2468TIP3    H229040   1.351   6.433   6.811  1.6672  1.4990  0.7739
 2469TIP3   OH229041   1.823   6.581   0.318 -0.1014  0.3879 -0.0751
 2469TIP3    H129042   1.747   6.620   0.361 -0.3240  0.8140 -0.8298
 2469TIP3    H229043   1.884   6.562   0.389 -0.8800  0.1099  0.5399
 2470TIP3   OH229044   6.617   1.568   2.394  0.4422  0.0051  0.1607
 2470TIP3    H129045   6.633   1.482   2.356 -1.5325  0.1312 -1.0962
 2470TIP3    H229046   6.529   1.592   2.364  0.6172  2.1150  1.1322
 2471TIP3   OH229047   6.627   1.737   6.601  0.2529  0.6023 -0.4879
 2471TIP3    H129048   6.567   1.795   6.649  1.6337  0.0223  2.1297
 2471TIP3    H229049   6.571   1.692   6.538 -1.5280  2.0973 -0.0637
 2472TIP3   OH229050   3.456   0.777   8.611 -0.0383  0.9740 -0.6822
 2472TIP3    H129051   3.421   0.711   8.671  1.1740  0.3733 -0.6041
 2472TIP3    H229052   3.404   0.765   8.531  0.7435 -0.7297 -0.9868
 2473TIP3   OH229053   1.062   5.054   0.866 -0.1047  0.0852 -0.0898
 2473TIP3    H129054   1.054   5.139   0.910 -0.4274 -1.0692  2.2349
 2473TIP3    H229055   1.111   5.073   0.786  0.7944  2.2865  0.8967
 2474TIP3   OH229056   2.806   5.061   7.650  0.3426 -0.4440 -0.4883
 2474TIP3    H129057   2.717   5.046   7.620  0.4622 -0.9872 -0.5850
 2474TIP3    H229058   2.836   5.137   7.601 -0.3710  0.2969  0.2051
 2475TIP3   OH229059   0.836   3.445   0.383  0.3853 -0.0905  0.7098
 2475TIP3    H129060   0.913   3.480   0.428 -0.0784  0.3535  1.1667
 2475TIP3    H229061   0.771   3.433   0.453  0.0050 -0.3557  0.3114
 2476TIP3   OH229062   5.379   2.052   7.522 -0.1513  0.5112  0.7368
 2476TIP3    H129063   5.355   1.983   7.584  0.5231 -1.0747 -0.6913
 2476TIP3    H229064   5.336   2.027   7.440 -2.2694  3.3566  0.8209
 2477TIP3   OH229065   1.945   4.476   0.354  0.2058  0.3187  0.4073
 2477TIP3    H129066   1.902   4.557   0.326 -0.7091  0.2017  1.4235
 2477TIP3    H229067   2.000   4.451   0.280 -0.1545  1.4113 -0.2460
 2478TIP3   OH229068   5.687   0.684   1.207  0.6610  0.0886 -0.3443
 2478TIP3    H129069   5.629   0.728   1.269 -0.2437 -0.8242 -0.5267
 2478TIP3    H229070   5.773   0.725   1.222  0.4406  0.0035  1.4040
 2479TIP3   OH229071   6.527   6.296   0.915 -0.1214  0.1080  0.3835
 2479TIP3    H129072   6.535   6.245   0.834  0.0273  1.7734 -0.7096
 2479TIP3    H229073   6.451   6.258   0.960 -0.3152 -0.7450 -0.6243
 2480TIP3   OH229074   1.328   0.438   6.578 -0.2824  0.3409 -0.2104
 2480TIP3    H129075   1.344   0.531   6.562 -1.1756  0.0438 -3.5391
 2480TIP3    H229076   1.403   0.393   6.539 -0.5571 -0.3992  0.0935
 2481TIP3   OH229077   0.217   1.851   0.312  1.1230  0.2858 -0.7837
 2481TIP3    H129078   0.180   1.876   0.227  1.2219  1.3751 -0.5223
 2481TIP3    H229079   0.306   1.885   0.310  0.7843  1.2964  0.1572
 2482TIP3   OH229080   3.439   1.044   2.190 -0.0760 -0.5668  0.0937
 2482TIP3    H129081   3.481   1.123   2.156  1.6228 -2.1040 -1.6307
 2482TIP3    H229082   3.367   1.077   2.245 -0.0565  2.1415 -1.3168
 2483TIP3   OH229083   0.987   6.781   0.788  0.0166  0.3275 -0.1403
 2483TIP3    H129084   0.975   6.866   0.744  0.5284  0.0297 -0.8839
 2483TIP3    H229085   1.046   6.800   0.860  0.6014  0.5025 -0.6564
 2484TIP3   OH229086   3.954   2.865   7.594 -0.5469  0.1198  0.2220
 2484TIP3    H129087   3.984   2.858   7.503  0.7387 -0.5377  0.6684
 2484TIP3    H229088   3.869   2.908   7.588 -0.8463 -0.6204 -1.3603
 2485TIP3   OH229089   5.744   0.521   7.292 -0.3463  0.0702 -0.3770
 2485TIP3    H129090   5.729   0.584   7.362 -0.5347  0.2118 -0.5442
 2485TIP3    H229091   5.682   0.450   7.309 -0.1582 -0.0561 -0.2091
 2486TIP3   OH229092   3.236   6.032   1.353  0.1430 -0.5599  0.5465
 2486TIP3    H129093   3.243   6.126   1.371  0.5099 -0.6682  0.9916
 2486TIP3    H229094   3.175   5.999   1.419  0.9496 -0.8387  1.1682
 2487TIP3   OH229095   0.240   1.407   0.882  0.3772 -0.7347  1.0429
 2487TIP3    H129096   0.223   1.461   0.806  1.0411 -4.0421 -1.7301
 2487TIP3    H229097   0.158   1.407   0.931 -1.1186 -0.7910 -1.3172
 2488TIP3   OH229098   6.837   2.812   7.797 -0.2443 -0.0031 -0.0550
 2488TIP3    H129099   6.901   2.776   7.735  1.3764  1.0268  0.9367
 2488TIP3    H229100   6.801   2.888   7.752 -0.4590 -0.3236 -0.4383
 2489TIP3   OH229101   3.949   3.194   7.713 -0.2096 -0.0676  0.0451
 2489TIP3    H129102   3.980   3.279   7.745 -0.7362 -0.2178  1.0041
 2489TIP3    H229103   3.854   3.201   7.714 -0.2850 -0.9112  0.8824
 2490TIP3   OH229104   4.947   3.572   8.624  0.3010 -0.2113 -0.3926
 2490TIP3    H129105   4.987   3.622   8.553  0.8755 -1.1768 -0.7682
 2490TIP3    H229106   5.021   3.544   8.679 -0.1338  0.5133  0.5914
 2491TIP3   OH229107   6.738   1.512   0.685 -0.0301 -0.1756  0.0611
 2491TIP3    H129108   6.711   1.585   0.630  1.8425  0.0584 -0.6209
 2491TIP3    H229109   6.830   1.498   0.663  0.6509 -0.4473  2.7122
 2492TIP3   OH229110   3.646   6.382   2.539  0.4068  0.3651 -0.3714
 2492TIP3    H129111   3.636   6.398   2.633  1.6891  0.9104 -0.3017
 2492TIP3    H229112   3.655   6.469   2.501 -0.0422  0.1435 -1.0062
 2493TIP3   OH229113   4.083   4.553   0.133  0.3704  0.1826 -0.1791
 2493TIP3    H129114   4.162   4.500   0.149  0.0395 -0.8096 -1.6605
 2493TIP3    H229115   4.113   4.643   0.141  2.0447 -0.1276 -2.1577
 2494TIP3   OH229116   0.427   5.307   1.212 -0.8258  0.0764  0.3467
 2494TIP3    H129117   0.466   5.386   1.249  1.2991  0.1174 -1.7392
 2494TIP3    H229118   0.390   5.337   1.128 -1.7270 -0.7966  0.4145
 2495TIP3   OH229119   5.847   3.337   1.709 -0.4104 -0.3228 -0.1511
 2495TIP3    H129120   5.919   3.306   1.765 -0.1210  0.5183 -0.0554
 2495TIP3    H229121   5.776   3.356   1.770 -0.2723  0.0974 -0.1244
 2496TIP3   OH229122   6.473   6.423   1.838  0.0315  0.4343 -0.5770
 2496TIP3    H129123   6.448   6.511   1.808 -3.4032  0.7278  2.3444
 2496TIP3    H229124   6.518   6.439   1.921 -0.8475 -0.4833  0.1028
 2497TIP3   OH229125   1.267   4.526   7.842  0.1522  0.5713 -0.8563
 2497TIP3    H129126   1.306   4.592   7.784  2.3935  0.0773 -0.0107
 2497TIP3    H229127   1.340   4.495   7.896 -1.6468  0.4004  1.6764
 2498TIP3   OH229128   0.302   4.174   6.529 -0.3084 -0.3815 -0.0220
 2498TIP3    H129129   0.242   4.100   6.530 -1.8153  0.7900  1.0283
 2498TIP3    H229130   0.276   4.227   6.605  1.1303  0.9033 -0.3779
 2499TIP3   OH229131   2.760   2.854   0.193  0.2721  0.2980 -0.5771
 2499TIP3    H129132   2.713   2.786   0.241 -0.9996  3.0014  2.4095
 2499TIP3    H229133   2.729   2.846   0.103 -1.1649 -1.8840  0.0286
 2500TIP3   OH229134   6.318   2.624   6.470  0.0534  0.0731  0.6587
 2500TIP3    H129135   6.363   2.703   6.501 -1.2677  0.4165  1.7652
 2500TIP3    H229136   6.377   2.589   6.403  0.9131  1.7146  0.4838
 2501TIP3   OH229137   5.497   4.784   2.037 -0.2729 -0.0016  0.3159
 2501TIP3    H129138   5.555   4.785   1.960 -0.1267 -1.0944  0.3958
 2501TIP3    H229139   5.478   4.691   2.052 -0.5747  0.2177  1.4017
 2502TIP3   OH229140   6.265   2.227   1.136 -0.0968 -0.5040 -0.1635
 2502TIP3    H129141   6.304   2.304   1.096 -1.1250  0.6017  0.8878
 2502TIP3    H229142   6.270   2.244   1.230 -0.9850 -1.3969  0.0580
 2503TIP3   OH229143   0.298   5.722   0.704  0.1206  0.4578  0.0158
 2503TIP3    H129144   0.281   5.816   0.700 -0.0270  0.3886 -1.9106
 2503TIP3    H229145   0.219   5.685   0.744  0.9553  1.2754  2.6047
 2504TIP3   OH229146   0.626   3.547   8.293  0.1027 -0.4366 -0.8597
 2504TIP3    H129147   0.578   3.592   8.223 -2.1281 -0.6313  0.4695
 2504TIP3    H229148   0.694   3.609   8.319  1.8489 -0.8221 -3.9512
 2505TIP3   OH229149   5.293   5.565   0.574 -0.3009 -0.2782 -0.1434
 2505TIP3    H129150   5.317   5.610   0.655 -2.2939 -0.0687  0.3905
 2505TIP3    H229151   5.332   5.478   0.582 -0.9857 -0.4785  1.3649
 2506TIP3   OH229152   1.173   4.600   7.225 -0.6346 -0.2399 -0.8784
 2506TIP3    H129153   1.115   4.575   7.297 -1.1165 -1.1760 -1.5718
 2506TIP3    H229154   1.135   4.681   7.190 -0.1312  0.4771  0.2032
 2507TIP3   OH229155   3.330   1.518   6.944 -0.0473  0.4442 -0.3055
 2507TIP3    H129156   3.295   1.500   7.031 -1.8523 -1.1139 -1.2721
 2507TIP3    H229157   3.348   1.431   6.907  0.4522  1.0663 -1.5804
 2508TIP3   OH229158   6.024   5.743   8.382  0.5579  0.1186  0.3665
 2508TIP3    H129159   6.085   5.676   8.411 -0.1722 -1.0222 -0.6645
 2508TIP3    H229160   5.942   5.721   8.427  0.2070  0.0845 -0.2912
 2509TIP3   OH229161   4.971   5.398   7.162  0.0630  0.0140 -0.7447
 2509TIP3    H129162   4.934   5.317   7.129 -1.2827  0.7138 -1.0049
 2509TIP3    H229163   5.051   5.371   7.208 -0.7443 -1.5345 -0.1977
 2510TIP3   OH229164   4.194   2.180   0.307 -0.2780 -0.4067 -0.1841
 2510TIP3    H129165   4.156   2.107   0.355 -0.4846 -2.2199 -2.8328
 2510TIP3    H229166   4.217   2.143   0.221 -0.5960  2.7041 -1.7795
 2511TIP3   OH229167   5.452   1.626   0.312 -0.1085 -0.4197 -0.1510
 2511TIP3    H129168   5.524   1.567   0.335 -0.2116 -1.2190 -1.7919
 2511TIP3    H229169   5.373   1.575   0.329 -0.4515  0.8790  2.8870
 2512TIP3   OH229170   6.292   2.763   7.218 -0.1447  0.3721 -0.0655
 2512TIP3    H129171   6.244   2.843   7.200 -2.0307 -0.7792 -0.4362
 2512TIP3    H229172   6.302   2.721   7.133 -0.9973 -0.7432  0.3604
 2513TIP3   OH229173   1.243   4.459   8.272  0.2993  0.0656  0.0337
 2513TIP3    H129174   1.154   4.452   8.239 -0.6792 -3.1186  2.8250
 2513TIP3    H229175   1.245   4.543   8.318 -1.0945  0.3869 -0.4481
 2514TIP3   OH229176   2.454   1.851   6.985  0.6241 -0.0757 -0.4332
 2514TIP3    H129177   2.466   1.911   7.059  1.9505 -1.2425  0.3659
 2514TIP3    H229178   2.377   1.799   7.009  0.7172 -0.0784 -0.1309
 2515TIP3   OH229179   5.677   5.371   0.575  0.4751 -0.0421 -0.4766
 2515TIP3    H129180   5.687   5.308   0.503 -1.6603  0.2819 -1.1447
 2515TIP3    H229181   5.729   5.446   0.548 -1.4795  0.7043 -2.5511
 2516TIP3   OH229182   1.063   2.662   8.160  0.4181 -0.3553  0.0327
 2516TIP3    H129183   1.043   2.681   8.068 -0.1404  0.2938  0.2729
 2516TIP3    H229184   1.019   2.732   8.209  0.8728 -0.5775  0.7833
 2517TIP3   OH229185   0.612   6.831   6.733 -0.1741 -0.1024  0.7342
 2517TIP3    H129186   0.658   6.799   6.656 -1.3114 -0.1932  0.0713
 2517TIP3    H229187   0.681   6.863   6.791  0.7552 -0.8322  0.0548
 2518TIP3   OH229188   4.024   5.244   8.479  0.1892  0.0572  0.1166
 2518TIP3    H129189   4.107   5.199   8.495 -0.1680  0.0384  2.3022
 2518TIP3    H229190   4.045   5.310   8.413  2.5577  1.4915  2.1067
 2519TIP3   OH229191   2.125   2.061   0.037  0.7111  0.2378  0.2632
 2519TIP3    H129192   2.078   2.016   0.107  0.9295  1.1367  0.9968
 2519TIP3    H229193   2.062   2.125   0.003  0.5436 -0.3143 -0.4941
 2520TIP3   OH229194   3.361   2.031   2.226  0.0156 -0.3686 -0.0723
 2520TIP3    H129195   3.275   2.051   2.265 -1.1016 -0.7563 -2.1749
 2520TIP3    H229196   3.351   1.942   2.193  2.9194 -2.4566  3.8741
 2521TIP3   OH229197   4.318   5.831   7.889  0.1520  0.4142 -0.1930
 2521TIP3    H129198   4.246   5.768   7.885  0.3720  0.2119 -1.0966
 2521TIP3    H229199   4.354   5.832   7.800  1.1506  0.6511  0.2036
 2522TIP3   OH229200   3.385   4.940   0.552 -0.2015  0.6450  0.3918
 2522TIP3    H129201   3.473   4.903   0.560 -1.1717 -1.4275  2.9258
 2522TIP3    H229202   3.387   5.019   0.606 -0.0826  0.1568  1.1169
 2523TIP3   OH229203   0.422   0.202   1.716  0.2350 -0.2898  0.2770
 2523TIP3    H129204   0.405   0.200   1.810 -0.6535 -0.7693  0.1235
 2523TIP3    H229205   0.456   0.115   1.696 -1.6329 -0.9713 -0.1700
 2524TIP3   OH229206   2.630   2.592   1.604 -0.3347  0.4303 -0.2762
 2524TIP3    H129207   2.552   2.596   1.659 -0.6589  0.8250 -0.7589
 2524TIP3    H229208   2.686   2.663   1.636 -0.3525  0.4116 -0.2038
 2525TIP3   OH229209   3.078   3.353   1.446  0.6634 -0.2471  0.2058
 2525TIP3    H129210   3.006   3.320   1.392 -0.6466  0.4678  1.4779
 2525TIP3    H229211   3.091   3.285   1.512  0.5929  0.0216  0.4925
 2526TIP3   OH229212   2.916   6.172   8.423  0.2412  0.1905  0.2482
 2526TIP3    H129213   2.954   6.092   8.459 -0.7611  0.1549  1.2865
 2526TIP3    H229214   2.946   6.241   8.482 -1.0116  0.2002  0.9151
 2527TIP3   OH229215   4.657   1.424   0.262 -0.0537  0.5405  0.2723
 2527TIP3    H129216   4.611   1.383   0.189  0.7518  0.6382 -0.3038
 2527TIP3    H229217   4.594   1.489   0.296 -0.4421  0.4932 -0.3275
 2528TIP3   OH229218   4.096   6.230   6.963 -0.0903  0.2900  0.5148
 2528TIP3    H129219   4.054   6.298   7.015 -2.5471 -0.2006 -0.6790
 2528TIP3    H229220   4.025   6.172   6.936  1.7198 -2.0826  0.4443
 2529TIP3   OH229221   2.642   6.348   1.723 -0.4592  0.9626  0.2252
 2529TIP3    H129222   2.653   6.395   1.805  1.8172  0.7590  0.0947
 2529TIP3    H229223   2.609   6.262   1.749  2.0189  0.2263  1.1741
 2530TIP3   OH229224   1.316   0.711   1.687  0.5513  0.1411  0.1925
 2530TIP3    H129225   1.361   0.751   1.761 -0.0504 -0.4086  0.8595
 2530TIP3    H229226   1.381   0.651   1.649  0.1529 -1.2528  1.6370
 2531TIP3   OH229227   6.655   4.207   0.451 -0.3210 -0.0687 -0.2280
 2531TIP3    H129228   6.569   4.171   0.473 -0.2433  0.1927  0.5268
 2531TIP3    H229229   6.644   4.244   0.363 -0.7774 -0.6847 -0.4342
 2532TIP3   OH229230   5.781   2.762   0.997 -0.1696 -0.4581  0.2085
 2532TIP3    H129231   5.784   2.736   0.905 -1.1843  0.2010 -0.0207
 2532TIP3    H229232   5.849   2.828   1.006 -1.1365  0.6684 -0.4738
 2533TIP3   OH229233   4.316   0.469   6.494 -0.0595  0.0080  0.5291
 2533TIP3    H129234   4.225   0.489   6.517  0.2863  1.1893  0.9652
 2533TIP3    H229235   4.366   0.496   6.571  0.6972 -0.2496  0.1325
 2534TIP3   OH229236   2.123   5.352   7.278  0.0969 -0.2527  0.3716
 2534TIP3    H129237   2.173   5.433   7.288  0.3598 -0.4584  0.8105
 2534TIP3    H229238   2.032   5.380   7.268  0.2435  0.1105  0.0368
 2535TIP3   OH229239   6.416   2.034   1.296 -0.4852 -1.0370 -0.1988
 2535TIP3    H129240   6.338   2.039   1.241 -0.5816  0.0859  0.0007
 2535TIP3    H229241   6.474   1.972   1.252  0.1162  0.9882 -2.4862
 2536TIP3   OH229242   5.205   5.299   0.399  0.2097  0.3848 -0.4920
 2536TIP3    H129243   5.114   5.326   0.392 -0.2092 -1.1219 -1.4583
 2536TIP3    H229244   5.232   5.283   0.308  1.1010 -0.1705 -0.1452
 2537TIP3   OH229245   4.825   2.879   0.404 -0.2318 -0.5294  0.5937
 2537TIP3    H129246   4.817   2.974   0.393  0.9982 -0.4725  0.0000
 2537TIP3    H229247   4.811   2.842   0.317  1.5223 -0.6905  0.3328
 2538TIP3   OH229248   1.864   4.670   7.210 -0.5494 -0.1192  0.1607
 2538TIP3    H129249   1.826   4.684   7.124  0.6283 -0.1340 -0.3765
 2538TIP3    H229250   1.936   4.732   7.215  0.0342 -0.8280  0.7265
 2539TIP3   OH229251   3.977   2.557   7.356  0.0722  0.1119 -0.7674
 2539TIP3    H129252   3.883   2.543   7.350  0.3596 -1.4801 -2.4806
 2539TIP3    H229253   4.004   2.507   7.434 -0.3318 -0.4875 -1.0107
 2540TIP3   OH229254   1.886   2.107   6.400 -0.2565  0.3848 -0.1813
 2540TIP3    H129255   1.916   2.071   6.317  1.4660  0.6319  0.2967
 2540TIP3    H229256   1.893   2.033   6.461  1.1498  0.9068  0.3202
 2541TIP3   OH229257   1.597   5.227   7.378  0.0790  0.0145 -0.1417
 2541TIP3    H129258   1.641   5.191   7.455 -0.4872 -2.7517 -1.0013
 2541TIP3    H229259   1.667   5.234   7.313 -0.0511 -0.9831 -0.4088
 2542TIP3   OH229260   6.207   1.689   6.900 -0.1004  0.5802  0.1076
 2542TIP3    H129261   6.209   1.653   6.811  1.8000  0.5448  0.1365
 2542TIP3    H229262   6.186   1.614   6.956  3.1930 -0.4877  0.1055
 2543TIP3   OH229263   6.832   3.095   1.289  0.7401  0.0235  0.2784
 2543TIP3    H129264   6.816   3.054   1.204 -1.1770 -1.9625  1.4884
 2543TIP3    H229265   6.801   3.186   1.277 -1.2104 -0.6968 -0.7004
 2544TIP3   OH229266   5.515   5.030   7.445 -0.6209 -0.3543  0.2439
 2544TIP3    H129267   5.546   4.942   7.423  0.1262 -0.3801  1.2993
 2544TIP3    H229268   5.489   5.023   7.538  0.6532  0.8416  0.7185
 2545TIP3   OH229269   4.198   3.377   7.660  0.0702 -0.0958 -0.1072
 2545TIP3    H129270   4.115   3.422   7.645  0.6016  0.7412 -0.6452
 2545TIP3    H229271   4.260   3.448   7.677  1.1200 -0.5661 -1.8142
 2546TIP3   OH229272   5.550   3.517   7.265  0.3914 -0.5298 -0.1366
 2546TIP3    H129273   5.569   3.441   7.210  1.7988 -0.3767  0.1129
 2546TIP3    H229274   5.547   3.591   7.204 -0.0941 -0.6491 -0.2621
 2547TIP3   OH229275   3.328   0.254   7.891 -0.2876  0.3821 -0.6058
 2547TIP3    H129276   3.358   0.165   7.912 -1.9726  0.4222  2.5565
 2547TIP3    H229277   3.387   0.311   7.941 -1.1321  0.8513 -0.1361
 2548TIP3   OH229278   6.683   1.421   1.211  0.6484  0.4588 -0.1070
 2548TIP3    H129279   6.666   1.495   1.269 -0.4796 -1.1748  1.7900
 2548TIP3    H229280   6.608   1.420   1.151  1.1990  1.4249 -0.8440
 2549TIP3   OH229281   1.608   0.576   0.333 -0.0353  0.2015  0.0150
 2549TIP3    H129282   1.576   0.633   0.403  0.2617  0.8219 -0.3396
 2549TIP3    H229283   1.673   0.521   0.376  0.4685  0.8783  0.1482
 2550TIP3   OH229284   5.922   2.456   6.768  0.4868 -0.4950  0.1599
 2550TIP3    H129285   5.847   2.416   6.723 -0.6389  1.2109  0.4329
 2550TIP3    H229286   5.981   2.482   6.697 -0.4708  0.6012 -0.2751
 2551TIP3   OH229287   2.235   6.543   8.556 -0.0326  0.1445 -0.0704
 2551TIP3    H129288   2.151   6.587   8.545 -0.3002  0.2140  1.8296
 2551TIP3    H229289   2.219   6.481   8.627  1.0982 -1.0258 -0.7998
 2552TIP3   OH229290   2.206   6.348   0.469 -0.6134 -0.0438 -0.1100
 2552TIP3    H129291   2.119   6.388   0.469 -0.7156 -0.0962 -2.4686
 2552TIP3    H229292   2.190   6.254   0.462 -0.3514 -0.1587  0.7186
 2553TIP3   OH229293   3.770   3.622   8.262 -0.2781  0.7088 -0.0199
 2553TIP3    H129294   3.779   3.651   8.353 -0.0288  1.7234 -0.3609
 2553TIP3    H229295   3.754   3.528   8.269 -0.0726  0.7390  1.0672
 2554TIP3   OH229296   3.544   0.092   8.496  0.0305 -0.3130 -0.2052
 2554TIP3    H129297   3.553   0.052   8.583  0.5178  0.3289  0.0420
 2554TIP3    H229298   3.462   0.056   8.462 -0.6021  0.0788  0.8601
 2555TIP3   OH229299   5.426   0.928   6.964  0.1673  0.1832  0.5829
 2555TIP3    H129300   5.365   0.981   6.912 -0.3013  0.0609  1.0065
 2555TIP3    H229301   5.456   0.861   6.903 -2.5347 -1.6929  1.1719
 2556TIP3   OH229302   5.428   5.236   6.703 -0.2344 -0.1679  0.1318
 2556TIP3    H129303   5.368   5.180   6.753 -0.4199 -0.0037  0.0935
 2556TIP3    H229304   5.469   5.292   6.769 -1.8519  1.3479 -0.0756
 2557TIP3   OH229305   4.797   4.043   7.446 -0.4724 -0.3867 -0.0779
 2557TIP3    H129306   4.729   4.107   7.469  0.1810 -0.1436  1.3162
 2557TIP3    H229307   4.750   3.962   7.430 -1.1238 -0.1523  0.5810
 2558TIP3   OH229308   5.785   1.547   7.606 -0.1452  0.2178  0.5814
 2558TIP3    H129309   5.789   1.452   7.601  0.1459  0.1908  1.3197
 2558TIP3    H229310   5.705   1.570   7.558  1.1741 -0.1926 -2.0388
 2559TIP3   OH229311   6.861   1.980   7.754  0.2897 -0.2981 -0.3187
 2559TIP3    H129312   6.775   2.014   7.729  1.8652  1.2837 -4.5178
 2559TIP3    H229313   6.849   1.885   7.760 -2.0970  0.0341  1.4116
 2560TIP3   OH229314   4.624   5.631   7.813 -0.4083  0.0148 -0.0753
 2560TIP3    H129315   4.678   5.613   7.736 -0.3667 -1.2165  0.2239
 2560TIP3    H229316   4.574   5.550   7.827 -0.0181  0.0208  1.5108
 2561TIP3   OH229317   6.132   5.373   8.101  0.3205  0.3393 -0.2510
 2561TIP3    H129318   6.126   5.458   8.057  0.1018  0.4302 -0.0500
 2561TIP3    H229319   6.060   5.374   8.165 -0.2699 -0.3688 -0.8829
 2562TIP3   OH229320   2.866   1.026   0.061  0.6675 -0.5318 -0.0241
 2562TIP3    H129321   2.924   0.979   0.001  0.6875 -0.0762 -0.3744
 2562TIP3    H229322   2.893   0.998   0.148  2.1294  0.4705 -0.1223
 2563TIP3   OH229323   0.851   2.852   2.282 -0.3364 -0.3560 -0.4854
 2563TIP3    H129324   0.807   2.786   2.335  1.2119 -0.2662  0.9765
 2563TIP3    H229325   0.904   2.802   2.219  0.9614 -0.5695  0.7252
 2564TIP3   OH229326   1.827   1.942   7.405  0.1339  0.8101  0.1807
 2564TIP3    H129327   1.882   2.016   7.379  1.0386  0.6438  1.5916
 2564TIP3    H229328   1.886   1.867   7.406 -0.6844  0.1243 -0.7843
 2565TIP3   OH229329   6.648   1.946   6.917 -0.0047  0.3658 -0.0172
 2565TIP3    H129330   6.735   1.975   6.942  0.3519  0.5158 -1.3724
 2565TIP3    H229331   6.624   2.002   6.843 -1.1991  0.2444  0.2560
 2566TIP3   OH229332   5.588   4.775   7.337  0.0320  0.1122  0.3298
 2566TIP3    H129333   5.670   4.746   7.376  0.0668 -1.8960 -1.1009
 2566TIP3    H229334   5.534   4.696   7.332 -0.8222  0.7514 -1.5260
 2567TIP3   OH229335   0.821   3.246   7.497  0.3615  0.1998 -0.1159
 2567TIP3    H129336   0.870   3.207   7.569 -0.5658  0.9714  0.9588
 2567TIP3    H229337   0.855   3.203   7.418  2.2202  0.1973  0.6547
 2568TIP3   OH229338   1.615   5.833   6.811 -0.0223  0.4752 -0.3556
 2568TIP3    H129339   1.548   5.831   6.742 -0.5919 -1.5781  0.1697
 2568TIP3    H229340   1.576   5.887   6.880  0.5290  2.5004 -1.5451
 2569TIP3   OH229341   6.262   4.430   1.703  0.7419  0.3707  0.1702
 2569TIP3    H129342   6.305   4.419   1.788  2.7470 -1.2545 -0.9787
 2569TIP3    H229343   6.318   4.492   1.656  0.1840  0.5120 -0.3197
 2570TIP3   OH229344   1.605   1.839   7.247  0.1988 -0.1262 -0.1208
 2570TIP3    H129345   1.638   1.826   7.158  0.0857  1.0758 -0.3576
 2570TIP3    H229346   1.684   1.842   7.301  0.4242  1.3055 -0.4920
 2571TIP3   OH229347   1.970   0.616   7.983  0.3136 -0.0765 -0.2358
 2571TIP3    H129348   1.935   0.608   8.072  0.2689 -0.6409 -0.3015
 2571TIP3    H229349   1.958   0.709   7.961  0.3932  0.0817  0.3716
 2572TIP3   OH229350   2.425   0.331   1.129  0.2707  0.3864 -0.2114
 2572TIP3    H129351   2.492   0.389   1.164 -1.0097  2.3011 -0.7756
 2572TIP3    H229352   2.466   0.289   1.053  1.0301  1.0183 -0.1601
 2573TIP3   OH229353   5.495   2.785   0.563 -0.5465  0.0796 -0.0921
 2573TIP3    H129354   5.425   2.823   0.616  0.8623  2.9978 -0.0904
 2573TIP3    H229355   5.485   2.826   0.477  1.6698  1.4045  0.1977
 2574TIP3   OH229356   3.878   4.379   8.526 -0.0543 -0.2832 -0.8292
 2574TIP3    H129357   3.915   4.399   8.440 -0.2893  0.8277 -0.6879
 2574TIP3    H229358   3.844   4.290   8.517  4.0388 -2.1199 -0.4769
 2575TIP3   OH229359   2.189   5.296   7.651 -0.1874  0.0973  0.1727
 2575TIP3    H129360   2.261   5.359   7.650 -0.5280  0.5033 -0.9069
 2575TIP3    H229361   2.216   5.228   7.712  0.3107  1.1578  1.1568
 2576TIP3   OH229362   3.974   6.796   8.618 -0.3891 -0.0056  0.8775
 2576TIP3    H129363   4.006   6.736   8.685 -0.8431  1.0196  2.0554
 2576TIP3    H229364   3.912   6.853   8.665 -0.4432  0.9699 -0.3314
 2577TIP3   OH229365   6.415   6.505   7.719 -0.5334  0.4263 -0.3488
 2577TIP3    H129366   6.457   6.583   7.754 -1.3036  0.1442  1.3170
 2577TIP3    H229367   6.402   6.448   7.796  2.3218 -2.5027 -1.7895
 2578TIP3   OH229368   4.881   1.728   2.023 -0.7112 -0.2365  0.5004
 2578TIP3    H129369   4.829   1.663   1.975  2.0923 -1.4641 -1.1669
 2578TIP3    H229370   4.861   1.811   1.979 -0.6753 -0.8133 -0.6471
 2579TIP3   OH229371   4.962   0.876   0.632 -0.8810  0.0843 -0.4243
 2579TIP3    H129372   4.957   0.970   0.649 -0.0976  0.0603 -0.0085
 2579TIP3    H229373   5.007   0.840   0.709 -2.3204 -0.8226  0.0335
 2580TIP3   OH229374   2.329   1.930   8.589 -0.3295  0.5369  0.4479
 2580TIP3    H129375   2.318   1.980   8.509 -0.5258  0.3194  0.3396
 2580TIP3    H229376   2.248   1.945   8.638 -0.2434  0.6055  0.5707
 2581TIP3   OH229377   5.847   5.627   0.076  0.1656 -0.1429  0.3639
 2581TIP3    H129378   5.834   5.652  -0.015  0.3425  1.5999  0.7739
 2581TIP3    H229379   5.767   5.579   0.099 -0.8565  1.2200 -0.1480
 2582TIP3   OH229380   3.065   4.208   8.674  0.6864 -0.3596 -0.1223
 2582TIP3    H129381   3.083   4.134   8.733 -2.3916  0.3337  1.9438
 2582TIP3    H229382   3.074   4.285   8.730 -1.7958  0.3658 -0.5815
 2583TIP3   OH229383   6.090   4.521   7.204 -0.2964  0.0282  0.3643
 2583TIP3    H129384   6.014   4.567   7.169 -0.9372 -1.7668 -0.7472
 2583TIP3    H229385   6.099   4.444   7.148  1.5286 -0.5174  1.3230
 2584TIP3   OH229386   4.057   5.807   1.571 -0.1441  0.2017 -0.5033
 2584TIP3    H129387   4.023   5.864   1.640 -0.1471  0.7136 -0.9276
 2584TIP3    H229388   4.146   5.786   1.600 -0.0313  0.6732 -0.4916
 2585TIP3   OH229389   1.621   1.890   0.011 -0.1144  0.4177 -0.0918
 2585TIP3    H129390   1.601   1.806  -0.030 -0.3344  0.7738 -0.7257
 2585TIP3    H229391   1.717   1.894   0.011  0.0121 -0.8564  2.0750
 2586TIP3   OH229392   1.265   1.021   7.532  0.4575  0.0634  0.1543
 2586TIP3    H129393   1.222   1.032   7.617 -0.5122 -0.7218 -0.2228
 2586TIP3    H229394   1.350   0.982   7.553 -1.4026 -4.3562  0.5745
 2587TIP3   OH229395   4.904   6.378   8.343  0.0001 -0.3128 -0.0102
 2587TIP3    H129396   4.895   6.322   8.421 -0.0854  0.5108  0.5854
 2587TIP3    H229397   4.902   6.467   8.378  0.7408  0.0522 -0.8917
 2588TIP3   OH229398   6.331   4.979   1.779 -0.0089  0.6114  0.4511
 2588TIP3    H129399   6.299   5.006   1.865  1.8094 -0.0676  1.4035
 2588TIP3    H229400   6.298   4.890   1.767 -0.7395  0.9174  0.1845
 2589TIP3   OH229401   1.615   2.748   6.797  0.1130  0.0131  0.4734
 2589TIP3    H129402   1.611   2.844   6.792  1.1773  0.0292 -0.4229
 2589TIP3    H229403   1.529   2.723   6.832  1.2872  1.5037  5.1254
 2590TIP3   OH229404   2.793   2.228   0.346 -0.0660  0.3337  0.1491
 2590TIP3    H129405   2.768   2.272   0.265 -1.0610 -0.1396  0.1827
 2590TIP3    H229406   2.768   2.290   0.415  0.1912  0.4696  0.1197
 2591TIP3   OH229407   1.912   5.104   1.561  0.4475  0.1449  0.1296
 2591TIP3    H129408   1.847   5.156   1.513 -0.5926  0.0612  1.3983
 2591TIP3    H229409   1.992   5.155   1.556  0.4234  0.0797 -1.7914
 2592TIP3   OH229410   5.601   3.434   8.097 -0.3012  0.0390 -0.3444
 2592TIP3    H129411   5.687   3.437   8.055  0.1540  1.0657  0.6086
 2592TIP3    H229412   5.541   3.472   8.033 -0.1633 -1.1464 -1.2168
 2593TIP3   OH229413   5.624   6.758   2.234  0.1651  0.3034  0.2834
 2593TIP3    H129414   5.685   6.810   2.288 -1.0086 -1.1682  3.2375
 2593TIP3    H229415   5.539   6.769   2.277 -0.8909 -0.8268 -1.4323
 2594TIP3   OH229416   0.114   0.386   0.807  0.4813 -0.3690 -0.5722
 2594TIP3    H129417   0.102   0.435   0.889  0.0694 -2.3240  0.6225
 2594TIP3    H229418   0.208   0.385   0.793  0.7747 -1.7734  1.1075
 2595TIP3   OH229419   6.578   2.745   0.133  0.3497 -0.6388  0.3605
 2595TIP3    H129420   6.535   2.662   0.155 -1.7363  0.5092  0.8768
 2595TIP3    H229421   6.559   2.802   0.207 -0.2324  0.9917 -0.9850
 2596TIP3   OH229422   4.442   0.031   2.348  0.5181 -0.1410 -0.8505
 2596TIP3    H129423   4.348   0.048   2.350  0.3826 -0.8627 -0.9029
 2596TIP3    H229424   4.482   0.118   2.338 -0.1615  0.0909 -1.6156
 2597TIP3   OH229425   4.058   2.830   1.087 -0.3416 -0.1333 -0.7173
 2597TIP3    H129426   3.976   2.874   1.108 -0.1349 -0.0894  0.0511
 2597TIP3    H229427   4.104   2.890   1.030 -0.1131  0.6183  0.2341
 2598TIP3   OH229428   2.541   2.737   8.701 -0.2118 -0.5766  0.0196
 2598TIP3    H129429   2.547   2.681   8.624 -2.5108 -0.7301 -0.1136
 2598TIP3    H229430   2.520   2.677   8.772 -0.5153 -0.1536  0.2913
 2599TIP3   OH229431   3.499   1.837   1.137  0.3952  0.5017 -0.5024
 2599TIP3    H129432   3.484   1.876   1.051  0.1041  0.2464 -0.5700
 2599TIP3    H229433   3.414   1.800   1.161  0.2286  1.3786  0.3062
 2600TIP3   OH229434   2.233   1.404   7.159 -0.2225  0.3243 -0.5190
 2600TIP3    H129435   2.203   1.456   7.085 -0.5572  0.6527 -0.1602
 2600TIP3    H229436   2.307   1.453   7.195  0.8465 -0.5427 -1.4722
 2601TIP3   OH229437   5.924   5.222   8.331  0.0012  0.1359  0.4329
 2601TIP3    H129438   5.978   5.293   8.364 -0.5153  0.1108  1.3658
 2601TIP3    H229439   5.884   5.184   8.409 -0.1774 -0.8145 -0.1026
 2602TIP3   OH229440   4.967   0.414   7.443 -0.4463 -0.0107 -0.1564
 2602TIP3    H129441   4.937   0.504   7.459  2.7099  1.1108  0.0781
 2602TIP3    H229442   4.927   0.390   7.360 -0.5259  2.0491 -0.7851
 2603TIP3   OH229443   4.410   1.765   6.769 -0.0216  0.1632  0.2229
 2603TIP3    H129444   4.411   1.747   6.675 -1.2627 -0.5379  0.3306
 2603TIP3    H229445   4.335   1.824   6.781 -1.6670 -2.0162  1.1370
 2604TIP3   OH229446   2.991   6.035   0.349  0.6366  0.2815  0.2768
 2604TIP3    H129447   3.043   6.090   0.290  2.1151  0.0922  1.3455
 2604TIP3    H229448   2.926   6.095   0.386  1.0002  0.8688 -0.0228
 2605TIP3   OH229449   3.672   3.560   1.819 -0.0836  0.2733  0.0378
 2605TIP3    H129450   3.594   3.616   1.815  0.6635  1.4347  0.8964
 2605TIP3    H229451   3.739   3.616   1.859  1.1439 -0.7538 -0.5221
 2606TIP3   OH229452   6.056   2.718   6.680  0.1554  0.0954 -0.2212
 2606TIP3    H129453   6.142   2.760   6.686  1.3246 -2.2666  1.0840
 2606TIP3    H229454   6.030   2.703   6.771 -0.3855 -1.5317 -0.5994
 2607TIP3   OH229455   6.159   0.171   5.878  0.0688 -0.3988 -0.1345
 2607TIP3    H129456   6.081   0.120   5.857 -0.2564 -0.2590  0.6713
 2607TIP3    H229457   6.128   0.262   5.878 -0.0226 -0.4036  1.1352
 2608TIP3   OH229458   0.617   3.984   7.792 -0.7431 -0.3054  0.3550
 2608TIP3    H129459   0.632   4.022   7.706 -1.2983 -2.2563 -0.6717
 2608TIP3    H229460   0.522   3.993   7.807 -0.6367  0.1096  0.8151
 2609TIP3   OH229461   0.390   2.806   7.538 -0.5712  0.0658 -0.0863
 2609TIP3    H129462   0.346   2.884   7.504  1.0394  1.8279  1.5914
 2609TIP3    H229463   0.482   2.832   7.546  0.4483 -2.7447 -1.4400
 2610TIP3   OH229464   1.119   0.278   7.470  0.2389 -0.1883 -0.3760
 2610TIP3    H129465   1.073   0.254   7.550 -0.7277  1.4716 -0.3763
 2610TIP3    H229466   1.191   0.334   7.499 -0.3609  0.7601 -0.6592
 2611TIP3   OH229467   0.797   0.276   7.806  0.4884 -0.0095  0.7500
 2611TIP3    H129468   0.734   0.266   7.878  0.2099 -0.3219  0.4661
 2611TIP3    H229469   0.779   0.363   7.771  0.2378 -0.0797  0.6971
 2612TIP3   OH229470   3.081   1.556   7.533  0.5469  0.4232 -0.5106
 2612TIP3    H129471   3.041   1.614   7.598 -3.1241 -0.2920 -1.8779
 2612TIP3    H229472   3.095   1.474   7.581 -1.4679  0.1210 -0.3440
 2613TIP3   OH229473   6.341   1.495   6.196 -0.4091  0.3072 -0.1745
 2613TIP3    H129474   6.413   1.556   6.178  0.2482 -0.6933 -1.0603
 2613TIP3    H229475   6.262   1.545   6.176  0.1540  0.5687 -1.8763
 2614TIP3   OH229476   6.845   5.341   1.391 -0.3121 -0.2398 -0.2588
 2614TIP3    H129477   6.815   5.265   1.341 -0.1413  0.1704 -1.0005
 2614TIP3    H229478   6.938   5.325   1.406  0.5790  1.2886 -3.2779
 2615TIP3   OH229479   6.001   2.302   1.348 -0.0237 -0.4410  0.4969
 2615TIP3    H129480   6.083   2.320   1.302 -0.0211  0.0690  0.6925
 2615TIP3    H229481   6.027   2.268   1.433 -0.0240 -0.8885  0.3212
 2616TIP3   OH229482   1.579   5.143   1.210 -0.3667  0.2664  0.0991
 2616TIP3    H129483   1.527   5.208   1.161 -1.0366 -1.0036 -0.9391
 2616TIP3    H229484   1.515   5.098   1.265  0.1131  0.5499  0.8954
 2617TIP3   OH229485   5.529   4.529   7.266 -0.1678  0.2108  0.4192
 2617TIP3    H129486   5.577   4.551   7.186  0.2269  0.0993  0.6240
 2617TIP3    H229487   5.466   4.462   7.238 -1.2734  1.4349 -0.1778
 2618TIP3   OH229488   1.762   5.744   0.467  0.2856  0.9047  0.1189
 2618TIP3    H129489   1.741   5.836   0.484  0.7306  0.6820  2.0830
 2618TIP3    H229490   1.682   5.696   0.488  0.5810  0.6926  0.7731
 2619TIP3   OH229491   0.967   2.457   2.313  0.6632 -0.3055  0.0696
 2619TIP3    H129492   1.046   2.444   2.262  1.3265  1.8158  0.4399
 2619TIP3    H229493   0.983   2.412   2.396  1.0714 -0.6973 -0.2229
 2620TIP3   OH229494   0.223   1.834   1.261  0.2150 -0.3716 -0.2123
 2620TIP3    H129495   0.206   1.744   1.232  0.0334 -0.7213  0.9114
 2620TIP3    H229496   0.318   1.837   1.274  0.3513 -0.0829 -1.2343
 2621TIP3   OH229497   3.796   2.269   2.266  0.0531  0.6056  0.5471
 2621TIP3    H129498   3.836   2.200   2.213 -0.1200  1.1975 -0.3715
 2621TIP3    H229499   3.864   2.296   2.327 -0.5492 -1.9624  2.5413
 2622TIP3   OH229500   3.399   3.252   1.137 -0.2145  0.1140 -0.3288
 2622TIP3    H129501   3.314   3.248   1.094 -0.1641 -3.5816 -0.3928
 2622TIP3    H229502   3.387   3.313   1.210 -2.4127  0.9169 -1.3014
 2623TIP3   OH229503   0.990   6.479   6.826 -0.2107 -0.5623 -0.3138
 2623TIP3    H129504   0.966   6.390   6.800 -2.7498  0.1671 -0.7040
 2623TIP3    H229505   1.059   6.467   6.892 -1.4414 -2.8936  0.6621
 2624TIP3   OH229506   5.785   0.797   2.445 -0.5599  0.5274  0.0703
 2624TIP3    H129507   5.782   0.703   2.467 -2.7835 -0.1219 -2.3858
 2624TIP3    H229508   5.872   0.810   2.407 -0.6393 -0.8678 -0.6528
 2625TIP3   OH229509   4.569   0.862   7.561  0.6311 -0.3697 -0.0394
 2625TIP3    H129510   4.553   0.940   7.614  1.7070  0.0884 -0.3618
 2625TIP3    H229511   4.605   0.798   7.622  0.4335 -0.3637  0.0828
 2626TIP3   OH229512   6.149   4.268   7.407 -0.1364 -0.2083  0.0090
 2626TIP3    H129513   6.106   4.354   7.401 -0.4312 -0.1013  2.5364
 2626TIP3    H229514   6.242   4.289   7.410 -0.2190  0.0885  0.9532
 2627TIP3   OH229515   6.756   0.630   6.385 -0.3161  0.3983  0.4041
 2627TIP3    H129516   6.738   0.719   6.355 -0.3960  0.0192 -0.7277
 2627TIP3    H229517   6.678   0.580   6.359  0.0014 -0.1293  0.4470
 2628TIP3   OH229518   6.852   6.375   0.768 -0.7667  0.3557 -0.1384
 2628TIP3    H129519   6.821   6.355   0.856 -0.0100 -0.6873 -0.0831
 2628TIP3    H229520   6.877   6.289   0.732  2.1471  1.0691 -0.1013
 2629TIP3   OH229521   1.830   2.861   2.112 -0.1149 -0.1461 -0.1620
 2629TIP3    H129522   1.747   2.869   2.160 -0.8351 -1.2979 -1.1636
 2629TIP3    H229523   1.855   2.951   2.093 -0.4700  0.2825  1.2442
 2630TIP3   OH229524   1.513   0.398   8.338  0.1242  0.1250  0.2164
 2630TIP3    H129525   1.580   0.447   8.386 -0.0878  1.1060 -0.4641
 2630TIP3    H229526   1.540   0.306   8.347  2.2068  0.5509 -0.9556
 2631TIP3   OH229527   2.201   2.487   2.524  0.8876 -0.0376 -0.1244
 2631TIP3    H129528   2.155   2.511   2.444  1.0392 -0.4188 -0.3276
 2631TIP3    H229529   2.180   2.557   2.586 -1.7276 -1.2334  0.4897
 2632TIP3   OH229530   3.816   6.091   1.658 -0.1138  0.4188  0.2026
 2632TIP3    H129531   3.855   6.029   1.720 -1.1323 -1.8988 -1.3262
 2632TIP3    H229532   3.888   6.149   1.633  1.1750 -0.8369  0.8926
 2633TIP3   OH229533   6.006   3.220   7.726 -0.0186  0.2549  0.5061
 2633TIP3    H129534   6.031   3.223   7.634 -0.3389  0.0312  0.4092
 2633TIP3    H229535   5.912   3.240   7.726 -0.0280  0.2131  0.7768
 2634TIP3   OH229536   2.402   5.867   0.063  0.2764  0.6285  0.6260
 2634TIP3    H129537   2.387   5.869   0.158 -0.6409 -0.0606  0.5032
 2634TIP3    H229538   2.318   5.890   0.025  0.4640  0.2477 -0.0272
 2635TIP3   OH229539   0.018   4.901   8.014  0.4742  0.3705  0.4847
 2635TIP3    H129540  -0.068   4.923   7.978  0.0654  0.8997  1.7284
 2635TIP3    H229541   0.078   4.961   7.970  0.2086  0.0779 -0.3034
 2636TIP3   OH229542   6.683   1.071   8.392 -0.4308  0.4691  0.2283
 2636TIP3    H129543   6.722   1.157   8.407  1.3785  0.0637 -1.7069
 2636TIP3    H229544   6.600   1.090   8.348 -0.8153  1.2433  1.2522
 2637TIP3   OH229545   5.538   3.150   1.876 -0.2781  0.1451 -0.2710
 2637TIP3    H129546   5.578   3.089   1.815 -0.6353  0.0771 -0.4407
 2637TIP3    H229547   5.595   3.149   1.953 -0.3816 -0.5360 -0.1982
 2638TIP3   OH229548   2.793   1.025   7.913 -0.4041  0.1214  0.7012
 2638TIP3    H129549   2.742   0.972   7.976 -0.6076  0.0718  0.4962
 2638TIP3    H229550   2.884   1.001   7.931 -0.5494 -1.1258 -0.1158
 2639TIP3   OH229551   5.792   0.331   0.937 -0.2994  0.4339 -0.4055
 2639TIP3    H129552   5.716   0.276   0.924 -0.3615  0.5393 -0.4894
 2639TIP3    H229553   5.860   0.292   0.883  0.2533 -0.7433  1.0698
 2640TIP3   OH229554   2.856   1.304   2.684  0.0327 -0.3136  0.0272
 2640TIP3    H129555   2.950   1.311   2.664  0.0213  0.4648  0.2378
 2640TIP3    H229556   2.837   1.210   2.674  1.2483 -0.7999  1.8752
 2641TIP3   OH229557   2.967   5.587   8.289 -0.0716  0.5291 -0.0604
 2641TIP3    H129558   2.993   5.675   8.315 -0.1715  0.7169 -0.5857
 2641TIP3    H229559   2.872   5.585   8.303 -0.3526  1.0752 -1.6126
 2642TIP3   OH229560   2.878   4.761   0.147  0.5482  0.1161 -0.3205
 2642TIP3    H129561   2.919   4.755   0.233  0.4651  0.9805 -0.2131
 2642TIP3    H229562   2.950   4.785   0.088  0.5783 -0.3422 -0.4803
 2643TIP3   OH229563   2.082   4.051   7.064  0.2412  0.1803  0.2282
 2643TIP3    H129564   2.081   4.043   7.160  1.1538  2.1212  0.4479
 2643TIP3    H229565   2.121   3.969   7.034 -1.0344 -0.9071  1.4314
 2644TIP3   OH229566   5.957   2.905   1.250  0.5746  0.3515 -0.1118
 2644TIP3    H129567   5.983   2.814   1.259  1.7963  0.7067  0.1622
 2644TIP3    H229568   6.019   2.941   1.186  1.7989  1.6045  1.6863
 2645TIP3   OH229569   6.208   1.459   7.046  0.6606 -0.0795 -0.5545
 2645TIP3    H129570   6.243   1.505   7.122  0.9545  0.0080 -0.7412
 2645TIP3    H229571   6.269   1.387   7.031 -1.5288 -2.6294  1.7618
 2646TIP3   OH229572   0.226   3.792   7.641  0.8269  0.1226  0.9364
 2646TIP3    H129573   0.204   3.699   7.645  1.1894 -0.0232 -0.0734
 2646TIP3    H229574   0.284   3.806   7.716  0.9208 -0.5089  0.9889
 2647TIP3   OH229575   2.498   6.853   6.137 -0.5644 -0.0529  0.4327
 2647TIP3    H129576   2.485   6.936   6.092  0.0290  0.1249  0.5787
 2647TIP3    H229577   2.586   6.859   6.173 -0.8498 -0.3832  1.2064
 2648TIP3   OH229578   1.907   3.785   0.795 -0.2706 -0.5367  0.0143
 2648TIP3    H129579   1.930   3.744   0.878  0.7965  1.9680  1.0429
 2648TIP3    H229580   1.875   3.872   0.818  0.2510  0.3275 -2.1715
 2649TIP3   OH229581   6.109   2.963   8.563 -0.2469 -0.1519 -0.2057
 2649TIP3    H129582   6.126   3.057   8.557 -0.0034 -0.2575 -1.3523
 2649TIP3    H229583   6.149   2.936   8.646 -0.7191  0.8271  0.3597
 2650TIP3   OH229584   5.727   2.408   1.454 -0.3690  0.0044  0.0101
 2650TIP3    H129585   5.671   2.429   1.529 -0.3401 -0.1594  0.0785
 2650TIP3    H229586   5.775   2.329   1.481 -1.8793 -1.3190 -0.9674
 2651TIP3   OH229587   0.253   6.219   5.752  0.3124 -0.3640 -0.4318
 2651TIP3    H129588   0.287   6.264   5.675 -1.4884  1.5750 -0.2046
 2651TIP3    H229589   0.198   6.285   5.795 -1.7434 -2.5209  0.4606
 2652TIP3   OH229590   6.139   3.615   7.880 -0.0406  0.3670 -0.2061
 2652TIP3    H129591   6.221   3.654   7.908 -0.4240 -0.0156  1.5768
 2652TIP3    H229592   6.147   3.522   7.903 -1.0632  0.3759  0.2376
 2653TIP3   OH229593   0.172   3.736   0.154  0.0536  0.6616 -0.6211
 2653TIP3    H129594   0.224   3.700   0.226  1.4358  0.6807 -1.5765
 2653TIP3    H229595   0.208   3.695   0.075 -0.8203  1.3318 -1.3976
 2654TIP3   OH229596   3.062   1.907   1.255  0.4536 -0.8535  0.1130
 2654TIP3    H129597   3.036   1.898   1.347 -0.8614 -2.2279 -0.3541
 2654TIP3    H229598   3.107   1.991   1.251  1.0335 -1.0175  2.1181
 2655TIP3   OH229599   0.530   0.213   8.443 -0.3611  0.4860 -0.2039
 2655TIP3    H129600   0.567   0.164   8.516  0.3102  0.3725 -0.6130
 2655TIP3    H229601   0.594   0.203   8.372 -1.0357  0.5254 -0.8355
 2656TIP3   OH229602   0.156   3.296   1.545 -0.1390 -0.1602 -0.1503
 2656TIP3    H129603   0.207   3.216   1.536 -1.1733 -0.6708 -1.7536
 2656TIP3    H229604   0.090   3.276   1.611 -0.7003 -0.8019 -0.8993
 2657TIP3   OH229605   3.932   2.064   2.118  0.1739 -1.2156 -0.2119
 2657TIP3    H129606   3.926   2.016   2.036  0.2277 -0.4760 -0.6549
 2657TIP3    H229607   4.025   2.079   2.131  0.1172 -0.6873 -0.3986
 2658TIP3   OH229608   5.171   4.060   7.898  0.4302 -0.2028 -0.0921
 2658TIP3    H129609   5.166   4.024   7.810  2.0230 -0.6051 -0.0596
 2658TIP3    H229610   5.263   4.048   7.923 -0.1665 -0.9629  1.9778
 2659TIP3   OH229611   1.838   1.771   1.119  0.5567 -0.4224 -0.3530
 2659TIP3    H129612   1.743   1.765   1.111  0.3925  1.9197 -0.7697
 2659TIP3    H229613   1.858   1.726   1.201 -1.1042  0.4178  0.5715
 2660TIP3   OH229614   3.784   4.872   6.711 -0.0623 -0.0077 -0.0708
 2660TIP3    H129615   3.793   4.806   6.780 -1.1543  0.3775  0.4562
 2660TIP3    H229616   3.868   4.870   6.665  0.0593 -1.5134  0.1589
 2661TIP3   OH229617   1.759   1.968   0.624  0.2368  0.5273  0.0581
 2661TIP3    H129618   1.690   1.904   0.642 -0.6720  1.1111 -1.1885
 2661TIP3    H229619   1.796   1.988   0.710 -0.5130 -0.4905  0.6475
 2662TIP3   OH229620   6.158   4.829   8.437 -0.5777  0.1071  0.1247
 2662TIP3    H129621   6.093   4.837   8.368 -0.2561  0.3822 -0.1513
 2662TIP3    H229622   6.236   4.795   8.393 -0.7045 -0.7851  0.5581
 2663TIP3   OH229623   6.727   5.273   6.272  0.0643 -0.5052 -0.1633
 2663TIP3    H129624   6.717   5.365   6.247 -0.2682 -0.1895  1.0319
 2663TIP3    H229625   6.638   5.244   6.292  0.1419 -1.1566 -0.7473
 2664TIP3   OH229626   6.100   1.033   1.114 -0.2486 -0.1076 -0.0038
 2664TIP3    H129627   6.122   1.039   1.207  1.9284  1.0805 -0.5472
 2664TIP3    H229628   6.026   1.093   1.103  0.6170  1.1063  0.6492
 2665TIP3   OH229629   6.433   6.235   0.675  0.4290 -0.1471  0.5031
 2665TIP3    H129630   6.338   6.244   0.676  0.5362  1.1849  1.3941
 2665TIP3    H229631   6.449   6.147   0.642 -1.1337 -0.6496  1.0244
 2666TIP3   OH229632   3.950   3.912   1.009  0.6231  0.3671  0.3948
 2666TIP3    H129633   3.936   3.895   0.915 -0.8519 -0.8980  0.8117
 2666TIP3    H229634   3.887   3.982   1.029  0.2164 -0.0744  0.6581
 2667TIP3   OH229635   5.266   2.662   1.143  0.3133 -0.2868  0.2412
 2667TIP3    H129636   5.337   2.652   1.207  1.0567 -0.1101 -0.5410
 2667TIP3    H229637   5.308   2.647   1.059 -0.4572  0.4321 -0.2802
 2668TIP3   OH229638   2.654   2.826   2.361 -0.1743 -0.5298 -0.4516
 2668TIP3    H129639   2.564   2.811   2.392 -0.5193  1.1278 -0.5552
 2668TIP3    H229640   2.702   2.749   2.391 -1.1201 -0.3710  1.7086
 2669TIP3   OH229641   0.724   2.349   0.989  0.2725 -0.4886  0.1213
 2669TIP3    H129642   0.814   2.321   0.974  1.1206  2.3502 -0.8679
 2669TIP3    H229643   0.732   2.439   1.021 -2.2076 -0.4287  0.8089
 2670TIP3   OH229644   4.181   5.250   0.628  0.1187 -0.0326 -0.1102
 2670TIP3    H129645   4.261   5.233   0.578 -0.4302 -0.8247 -0.7548
 2670TIP3    H229646   4.126   5.302   0.570 -0.3240 -0.5334 -0.1505
 2671TIP3   OH229647   6.528   5.402   1.411  0.8082  0.1842  0.4339
 2671TIP3    H129648   6.616   5.389   1.374  0.7998 -0.3754  0.6051
 2671TIP3    H229649   6.479   5.324   1.385  0.2099  0.7279 -0.0888
 2672TIP3   OH229650   1.039   1.229   7.813  0.2350  0.3365  0.1917
 2672TIP3    H129651   1.013   1.300   7.871  0.5816  0.3497  0.3318
 2672TIP3    H229652   1.128   1.206   7.841 -0.1133 -0.5976  0.5979
 2673TIP3   OH229653   0.277   2.743   0.861 -0.3198  0.2873  0.2536
 2673TIP3    H129654   0.352   2.760   0.918 -0.2602  1.7546 -0.2127
 2673TIP3    H229655   0.315   2.719   0.777 -0.3223  1.5806 -0.1463
 2674TIP3   OH229656   6.324   6.001   7.820  0.4106  0.7047  0.1496
 2674TIP3    H129657   6.278   5.927   7.859  0.0656  1.4611  1.1969
 2674TIP3    H229658   6.343   5.972   7.730  1.1386 -1.0307  0.8078
 2675TIP3   OH229659   4.492   1.550   7.502 -0.0241  0.2137  0.0207
 2675TIP3    H129660   4.508   1.559   7.408 -1.0726  0.6260 -0.1237
 2675TIP3    H229661   4.580   1.550   7.541  0.3863  0.8519 -0.8823
 2676TIP3   OH229662   1.229   0.145   0.383  0.2219 -0.3039 -0.0431
 2676TIP3    H129663   1.276   0.198   0.318 -0.4142 -0.9150 -1.0394
 2676TIP3    H229664   1.204   0.207   0.451 -0.1184  0.6033 -0.9598
 2677TIP3   OH229665   6.416   6.375   1.544  0.4051  0.3400  0.3254
 2677TIP3    H129666   6.500   6.332   1.524 -0.8740 -2.0313 -0.2633
 2677TIP3    H229667   6.416   6.383   1.640  0.1445 -2.3207  0.6153
 2678TIP3   OH229668   4.387   2.989   6.183 -0.5518 -0.2762  0.0256
 2678TIP3    H129669   4.370   2.981   6.277 -2.3899 -1.6938 -0.3575
 2678TIP3    H229670   4.473   2.947   6.171 -0.7532 -0.9873  0.9449
 2679TIP3   OH229671   3.503   6.734   7.154  0.0855 -0.5489  0.1547
 2679TIP3    H129672   3.412   6.722   7.183  0.1193  0.7947  0.9116
 2679TIP3    H229673   3.495   6.788   7.076  0.1687 -1.6599 -0.6389
 2680TIP3   OH229674   1.742   4.518   0.526  0.2520  0.2532 -0.3331
 2680TIP3    H129675   1.774   4.450   0.467  2.1456 -0.5592  1.4817
 2680TIP3    H229676   1.820   4.569   0.549 -0.3091  0.2918  1.6854
 2681TIP3   OH229677   6.072   2.115   0.342 -0.0634  0.6422 -0.3426
 2681TIP3    H129678   6.081   2.022   0.322 -1.5615 -0.0514  1.8086
 2681TIP3    H229679   5.999   2.144   0.287 -0.1223  0.3263 -0.4351
 2682TIP3   OH229680   3.438   4.417   1.819  0.1846  1.1383 -0.1543
 2682TIP3    H129681   3.491   4.486   1.858  0.2856  0.6892  0.5173
 2682TIP3    H229682   3.376   4.393   1.888  1.4320 -0.8130  0.3789
 2683TIP3   OH229683   3.949   4.842   0.496  0.1988 -0.1912 -0.1777
 2683TIP3    H129684   3.991   4.758   0.478  1.2085 -0.0035  1.1434
 2683TIP3    H229685   3.877   4.847   0.433  1.2502 -1.1961 -1.5226
 2684TIP3   OH229686   6.092   3.373   1.962  0.4029  0.0477  0.1258
 2684TIP3    H129687   6.076   3.281   1.941  3.4121 -0.6907  0.5340
 2684TIP3    H229688   6.038   3.391   2.039  0.0373 -1.4632  0.2410
 2685TIP3   OH229689   1.573   1.576   1.780  0.5832 -0.2778  0.4301
 2685TIP3    H129690   1.522   1.496   1.788 -1.1391  0.7343  0.2124
 2685TIP3    H229691   1.616   1.569   1.695 -1.2966 -0.0755 -0.6065
 2686TIP3   OH229692   0.773   0.310   0.563 -0.2953  0.1649  0.4630
 2686TIP3    H129693   0.820   0.299   0.646 -0.4265 -0.8523  0.4109
 2686TIP3    H229694   0.745   0.402   0.564  0.5029  0.4167  1.1128
 2687TIP3   OH229695   6.716   1.531   1.668  0.1524  0.3413 -0.3081
 2687TIP3    H129696   6.771   1.575   1.603 -0.0607  0.0024 -0.7257
 2687TIP3    H229697   6.757   1.551   1.752  0.4581  0.7484 -0.5483
 2688TIP3   OH229698   0.318   5.053   6.144 -0.2928 -0.7111  0.3395
 2688TIP3    H129699   0.226   5.036   6.123 -0.4342 -0.5181  0.7842
 2688TIP3    H229700   0.364   4.975   6.113 -0.3673 -0.0889 -1.4343
 2689TIP3   OH229701   3.850   0.804   1.156  0.4928  0.1654  0.0005
 2689TIP3    H129702   3.754   0.814   1.155  0.5065  0.3589  0.4958
 2689TIP3    H229703   3.866   0.743   1.228  0.8364  1.0952  0.7200
 2690TIP3   OH229704   5.121   3.670   1.401  0.3773  0.1320 -0.1611
 2690TIP3    H129705   5.139   3.750   1.352  0.4341  0.9998  1.2424
 2690TIP3    H229706   5.045   3.632   1.356 -0.0794  1.3242 -0.4444
 2691TIP3   OH229707   1.595   3.912   0.568 -0.1190 -0.3669  0.1120
 2691TIP3    H129708   1.558   3.905   0.656  0.2516 -1.1823  0.2117
 2691TIP3    H229709   1.663   3.845   0.565  0.8242  0.5798 -0.3432
 2692TIP3   OH229710   6.700   5.481   7.219  0.0649  0.2971  0.4526
 2692TIP3    H129711   6.768   5.534   7.177  0.0179 -1.0490 -1.4317
 2692TIP3    H229712   6.618   5.510   7.177  0.2172 -2.3847 -1.9777
 2693TIP3   OH229713   0.276   0.575   0.406  0.2326  0.6645  0.0610
 2693TIP3    H129714   0.321   0.600   0.487  2.5535 -0.4575 -0.7928
 2693TIP3    H229715   0.282   0.653   0.351  0.9185  0.6118  0.0514
 2694TIP3   OH229716   2.185   3.444   0.882 -0.1364 -0.7245  0.6834
 2694TIP3    H129717   2.186   3.459   0.787  0.6454 -2.0878  0.4535
 2694TIP3    H229718   2.219   3.525   0.919  0.7294 -0.6287 -0.2855
 2695TIP3   OH229719   6.542   3.746   0.155  0.0797 -0.1553 -0.3185
 2695TIP3    H129720   6.523   3.665   0.202  0.0806 -0.2660 -0.5086
 2695TIP3    H229721   6.636   3.757   0.161 -0.0063  0.2674  0.4181
 2696TIP3   OH229722   5.497   2.461   0.254  0.4489  0.3590 -0.4380
 2696TIP3    H129723   5.429   2.500   0.308 -1.2062 -1.9527 -0.6826
 2696TIP3    H229724   5.478   2.491   0.165 -0.7974 -0.8453 -0.6203
 2697TIP3   OH229725   3.847   2.590   8.555 -0.2567 -0.0980 -0.1335
 2697TIP3    H129726   3.765   2.611   8.510 -1.4599 -1.6596  1.2080
 2697TIP3    H229727   3.903   2.666   8.538 -2.6892  2.0438  0.5820
 2698TIP3   OH229728   2.047   5.740   6.978  0.2072  0.2332  0.1975
 2698TIP3    H129729   2.040   5.719   6.885 -0.6644  3.0990 -0.4855
 2698TIP3    H229730   2.000   5.669   7.022 -0.2667 -0.6479 -1.6185
 2699TIP3   OH229731   4.811   3.693   0.912 -0.2479  0.2897  0.7490
 2699TIP3    H129732   4.786   3.617   0.964  1.8339 -1.5585 -0.7598
 2699TIP3    H229733   4.888   3.728   0.957 -1.7058  2.2060  1.9543
 2700TIP3   OH229734   4.081   0.028   8.016 -0.0355 -0.0183  0.3281
 2700TIP3    H129735   4.124   0.018   7.930  0.5772  1.4652  0.4216
 2700TIP3    H229736   4.028   0.107   8.006  1.5298  1.3035  1.8505
 2701TIP3   OH229737   4.319   6.313   6.449  0.2220 -0.4640  0.3903
 2701TIP3    H129738   4.294   6.397   6.487  0.4762 -0.5091  0.6558
 2701TIP3    H229739   4.235   6.270   6.430  0.0941 -0.3199  0.6262
 2702TIP3   OH229740   1.139   3.128   7.765 -0.0340 -0.3790  0.1123
 2702TIP3    H129741   1.161   3.170   7.848 -1.8482 -0.7817  0.8483
 2702TIP3    H229742   1.044   3.123   7.765 -0.0144 -1.5987 -1.3904
 2703TIP3   OH229743   5.771   1.074   0.830  0.3315  0.4858 -0.8662
 2703TIP3    H129744   5.755   0.986   0.794  0.6334  0.4492 -0.9074
 2703TIP3    H229745   5.714   1.131   0.779 -1.6508  0.0149  0.6598
 2704TIP3   OH229746   5.120   3.567   0.708  0.6107  0.1015  0.6042
 2704TIP3    H129747   5.167   3.540   0.786  0.2082 -1.7706  0.2443
 2704TIP3    H229748   5.162   3.520   0.636  0.2027  0.8524 -0.1577
 2705TIP3   OH229749   1.373   2.996   7.165 -0.6467  0.6486  0.4695
 2705TIP3    H129750   1.327   2.981   7.082  0.0661  0.9729  0.0052
 2705TIP3    H229751   1.436   2.925   7.170  0.6949  1.7285 -0.2776
 2706TIP3   OH229752   4.633   0.548   0.416 -0.2144  0.1570 -0.2567
 2706TIP3    H129753   4.690   0.596   0.475  0.7226  0.0750 -1.0727
 2706TIP3    H229754   4.628   0.602   0.337 -2.1711  0.7096  0.1767
 2707TIP3   OH229755   6.467   4.151   2.172 -1.1641 -0.2255 -0.0586
 2707TIP3    H129756   6.374   4.132   2.157 -1.6734  1.0669  1.2393
 2707TIP3    H229757   6.467   4.238   2.211  0.8060  0.9572 -2.4575
 2708TIP3   OH229758   2.615   4.471   0.468  0.5462 -0.3308 -0.9545
 2708TIP3    H129759   2.695   4.445   0.515  1.2225  0.2784 -1.7385
 2708TIP3    H229760   2.573   4.536   0.524  0.4916 -0.7967 -0.4480
 2709TIP3   OH229761   6.450   3.802   8.336  0.4559 -0.3674  0.2642
 2709TIP3    H129762   6.425   3.857   8.262 -1.9392 -1.6461  0.0368
 2709TIP3    H229763   6.544   3.789   8.326  0.3721  0.3843 -1.9157
 2710TIP3   OH229764   6.257   2.570   8.307  0.3332  0.4956  0.7617
 2710TIP3    H129765   6.296   2.554   8.221  0.7919 -1.6973  1.3211
 2710TIP3    H229766   6.317   2.529   8.369 -1.0279  0.2075  1.9549
 2711TIP3   OH229767   2.412   3.279   0.121 -0.1613  0.0705 -0.7251
 2711TIP3    H129768   2.422   3.188   0.091 -1.0829 -0.8192  1.4380
 2711TIP3    H229769   2.317   3.293   0.121 -0.0690  0.6849 -0.0753
 2712TIP3   OH229770   0.386   6.415   0.331 -0.7357  0.1741 -0.2460
 2712TIP3    H129771   0.465   6.416   0.278 -0.5913  0.2610 -0.0316
 2712TIP3    H229772   0.397   6.340   0.389 -0.3558  0.7625  0.4593
 2713TIP3   OH229773   6.807   0.433   7.676 -0.6916 -0.0114 -0.1141
 2713TIP3    H129774   6.796   0.339   7.694 -1.8600  0.1606  0.1425
 2713TIP3    H229775   6.890   0.455   7.719 -0.8122 -0.7535  0.5325
 2714TIP3   OH229776   0.665   5.518   7.390 -0.3710  0.0659 -0.1474
 2714TIP3    H129777   0.726   5.558   7.329  0.1624 -0.3647  0.0936
 2714TIP3    H229778   0.607   5.589   7.417  1.6879  1.1641  1.6962
 2715TIP3   OH229779   3.171   5.509   8.151 -0.1706 -0.5719 -0.5773
 2715TIP3    H129780   3.083   5.536   8.178  0.8415  1.1125  1.3151
 2715TIP3    H229781   3.207   5.586   8.107  1.3454 -0.1446  1.2909
 2716TIP3   OH229782   0.040   1.876   2.289 -0.5564  0.1756  0.3434
 2716TIP3    H129783   0.122   1.827   2.285 -0.1353  0.8736  0.0885
 2716TIP3    H229784  -0.009   1.836   2.360  0.0935 -0.1223  0.6349
 2717TIP3   OH229785   5.762   4.318   8.537 -0.1168 -0.1115  0.2232
 2717TIP3    H129786   5.814   4.290   8.612  0.8412  1.9090  0.3847
 2717TIP3    H229787   5.763   4.414   8.542 -1.8132  0.0273 -1.1805
 2718TIP3   OH229788   0.095   2.224   7.680  0.1137 -0.4594 -0.4386
 2718TIP3    H129789   0.040   2.147   7.663 -0.6346 -0.0547  0.1119
 2718TIP3    H229790   0.099   2.229   7.775 -2.0794  1.7069 -0.3528
 2719TIP3   OH229791   5.369   4.463   1.373  0.0818 -0.5133  0.5495
 2719TIP3    H129792   5.443   4.402   1.370 -0.9654 -1.8105 -1.2599
 2719TIP3    H229793   5.394   4.534   1.315  0.3596 -0.3914  0.8177
 2720TIP3   OH229794   5.537   2.192   7.850 -0.1756 -0.4212  0.0009
 2720TIP3    H129795   5.631   2.196   7.831 -0.3572 -0.6171 -1.0257
 2720TIP3    H229796   5.528   2.232   7.936  0.7941  0.0534 -0.1035
 2721TIP3   OH229797   6.763   0.812   8.200  0.5866  1.1223 -0.1349
 2721TIP3    H129798   6.735   0.865   8.126 -0.3090  0.7618 -0.0591
 2721TIP3    H229799   6.687   0.810   8.259  0.7622  0.1439  0.0773
 2722TIP3   OH229800   6.026   0.719   1.668 -0.4512  0.2166  0.3198
 2722TIP3    H129801   6.026   0.789   1.602 -0.7790  1.6081  1.7435
 2722TIP3    H229802   5.933   0.704   1.687 -0.3741 -0.4970  0.1740
 2723TIP3   OH229803   4.062   3.495   8.554 -0.6625 -0.1592  0.5545
 2723TIP3    H129804   4.069   3.472   8.462  0.7308  0.4214  0.4975
 2723TIP3    H229805   4.032   3.586   8.554  1.1824  0.4920  0.5954
 2724TIP3   OH229806   1.503   4.827   1.013 -0.0269  0.0717 -0.7325
 2724TIP3    H129807   1.595   4.854   1.001  0.0885 -0.3988 -0.9162
 2724TIP3    H229808   1.455   4.882   0.950  0.0960  0.4889 -0.4686
 2725TIP3   OH229809   6.695   3.400   1.951  0.0354  0.7925  0.0244
 2725TIP3    H129810   6.706   3.468   2.018 -0.7075  1.3756 -0.4294
 2725TIP3    H229811   6.604   3.410   1.922 -0.3128 -0.8507  0.4446
 2726TIP3   OH229812   2.531   1.993   0.717 -0.1381  0.4069  0.1284
 2726TIP3    H129813   2.563   2.028   0.801 -0.6108  1.2376 -0.0260
 2726TIP3    H229814   2.460   1.934   0.741 -0.1357  0.4835  0.3244
 2727TIP3   OH229815   0.532   3.183   0.456 -0.0130 -0.1155  0.0579
 2727TIP3    H129816   0.586   3.111   0.424  2.2529  1.1660  0.7061
 2727TIP3    H229817   0.502   3.154   0.542 -1.7164 -1.4522 -0.9286
 2728TIP3   OH229818   3.138   0.351   7.405  0.3563  0.1007  0.1070
 2728TIP3    H129819   3.050   0.313   7.400  0.2032  0.4320  0.2678
 2728TIP3    H229820   3.193   0.279   7.437 -0.2882  0.5550  2.4114
 2729TIP3   OH229821   5.254   4.330   6.640 -0.4826 -0.3519 -0.0896
 2729TIP3    H129822   5.330   4.271   6.638  0.6620  1.1007 -1.1700
 2729TIP3    H229823   5.274   4.397   6.575 -3.0726 -0.3536 -0.9831
 2730TIP3   OH229824   2.562   3.696   1.124  0.3758 -0.0279  0.0475
 2730TIP3    H129825   2.641   3.643   1.133 -0.9288 -1.7202  2.7429
 2730TIP3    H229826   2.564   3.756   1.198 -0.8202 -0.0576  0.1265
 2731TIP3   OH229827   5.570   5.557   0.785  0.0522  0.3801 -0.2076
 2731TIP3    H129828   5.534   5.469   0.783  1.1731 -0.1078  0.3752
 2731TIP3    H229829   5.502   5.610   0.826 -0.4812 -0.2804 -0.2314
 2732TIP3   OH229830   0.944   0.088   8.658  0.3005 -0.7771 -0.3907
 2732TIP3    H129831   0.945  -0.007   8.671  1.4036 -0.8598 -0.9364
 2732TIP3    H229832   1.006   0.122   8.722 -0.2334 -0.4005 -0.0682
 2733TIP3   OH229833   3.891   2.038   1.748 -0.2707  0.0528 -0.0737
 2733TIP3    H129834   3.909   2.036   1.654  0.7168  2.6955 -0.0284
 2733TIP3    H229835   3.969   2.001   1.788 -0.5609 -0.7872 -0.2719
 2734TIP3   OH229836   1.653   3.076   8.276 -0.0212 -0.5854 -0.4314
 2734TIP3    H129837   1.651   3.170   8.296 -2.5535 -1.0004  1.8684
 2734TIP3    H229838   1.664   3.034   8.361 -1.0177 -2.4037 -1.1488
 2735TIP3   OH229839   6.838   2.742   8.698  0.1222  0.3444  0.2462
 2735TIP3    H129840   6.843   2.654   8.660  1.0546 -0.2574  1.6475
 2735TIP3    H229841   6.781   2.732   8.775 -0.5543  1.2011 -0.1207
 2736TIP3   OH229842   5.175   4.473   0.927  0.2700  0.0763  0.0225
 2736TIP3    H129843   5.178   4.383   0.960  0.0006  0.3251  0.7437
 2736TIP3    H229844   5.125   4.521   0.993  1.1574  0.9475  0.0889
 2737TIP3   OH229845   1.248   4.840   8.033  0.1259 -0.1191  0.2746
 2737TIP3    H129846   1.237   4.845   7.938 -0.0563  0.6150  0.3219
 2737TIP3    H229847   1.296   4.920   8.055  0.5027 -0.4761  0.7571
 2738TIP3   OH229848   0.947   4.859   7.639 -0.2219  0.3742 -0.0994
 2738TIP3    H129849   0.915   4.914   7.567  0.6256  1.1973  0.1169
 2738TIP3    H229850   0.991   4.786   7.595 -1.7952 -0.4385 -0.3922
 2739TIP3   OH229851   5.829   0.288   0.373  0.2408  0.0309 -0.6730
 2739TIP3    H129852   5.742   0.285   0.333 -0.7165  0.3814  1.2876
 2739TIP3    H229853   5.852   0.381   0.374 -0.4231  0.2075  0.9081
 2740TIP3   OH229854   3.759   2.594   2.440  0.5296 -0.3166  0.1197
 2740TIP3    H129855   3.710   2.576   2.520  2.0074  0.3369  1.2341
 2740TIP3    H229856   3.845   2.624   2.471  0.5416  1.7666 -1.6964
 2741TIP3   OH229857   6.211   3.794   8.452  0.3186 -0.2392 -0.2459
 2741TIP3    H129858   6.285   3.821   8.398  0.3729  0.2811  0.0768
 2741TIP3    H229859   6.147   3.759   8.390 -0.0013  1.1834 -0.7661
 2742TIP3   OH229860   3.933   0.532   0.096 -0.1229  0.1944 -0.5564
 2742TIP3    H129861   3.964   0.498   0.013 -1.6736  1.0491 -1.5319
 2742TIP3    H229862   3.919   0.625   0.081  3.5442  1.3752  1.9094
 2743TIP3   OH229863   5.830   4.679   7.779 -0.0890  0.3028  0.3687
 2743TIP3    H129864   5.770   4.678   7.705  0.5982 -0.4562 -0.2000
 2743TIP3    H229865   5.838   4.772   7.802  2.4021  1.0672 -2.8344
 2744TIP3   OH229866   1.062   6.269   7.952  0.1807  0.5562 -0.0260
 2744TIP3    H129867   1.008   6.198   7.986  1.6607 -1.0260 -0.8054
 2744TIP3    H229868   1.151   6.247   7.980  1.4424 -0.5565 -4.1653
 2745TIP3   OH229869   3.773   0.026   1.157  0.0496 -0.3726  0.3976
 2745TIP3    H129870   3.798   0.116   1.177  0.3947 -0.5347  0.6942
 2745TIP3    H229871   3.680   0.022   1.179 -0.9563  0.8875 -2.9057
 2746TIP3   OH229872   3.865   4.220   1.060  0.0553 -0.4033  0.2302
 2746TIP3    H129873   3.918   4.276   1.003  0.6599 -1.2662 -0.0897
 2746TIP3    H229874   3.833   4.151   1.002  0.8248 -1.4001  0.9596
 2747TIP3   OH229875   6.751   2.579   1.492 -0.0981  0.7809 -0.2331
 2747TIP3    H129876   6.781   2.553   1.405 -0.0420  0.8066 -0.2213
 2747TIP3    H229877   6.672   2.631   1.475  0.2052  1.2282 -0.2998
 2748TIP3   OH229878   3.782   5.130   7.924  0.1006 -0.2988 -0.2306
 2748TIP3    H129879   3.778   5.178   7.841  0.1765 -0.5760 -0.3949
 2748TIP3    H229880   3.876   5.113   7.937  0.0345 -0.7905 -0.3964
 2749TIP3   OH229881   3.731   2.745   0.580  0.4357  0.3127 -0.0570
 2749TIP3    H129882   3.761   2.818   0.635  2.0817 -0.8292  0.6314
 2749TIP3    H229883   3.781   2.755   0.499  0.5504  0.0539 -0.0193
 2750TIP3   OH229884   3.555   2.366   2.358 -0.3762  0.0375 -0.1772
 2750TIP3    H129885   3.570   2.455   2.325  2.7418  0.3617  1.7016
 2750TIP3    H229886   3.632   2.317   2.331  1.1925 -0.2989  4.0280
 2751TIP3   OH229887   2.645   4.152   6.658 -0.3301  0.4823 -0.0013
 2751TIP3    H129888   2.564   4.161   6.607 -0.7336 -2.0963  0.0459
 2751TIP3    H229889   2.703   4.100   6.602 -0.1675 -1.0084  1.4927
 2752TIP3   OH229890   5.367   1.390   8.618  0.5777  0.2049  0.5798
 2752TIP3    H129891   5.372   1.371   8.524  0.2817  1.5244  0.2676
 2752TIP3    H229892   5.322   1.475   8.622 -2.8793 -1.5188  2.1004
 2753TIP3   OH229893   4.104   0.244   8.496  0.0950 -0.1864  0.3962
 2753TIP3    H129894   4.151   0.264   8.415  0.5579  0.6530  0.8600
 2753TIP3    H229895   4.040   0.178   8.470  2.1953 -2.1615 -0.0467
 2754TIP3   OH229896   1.204   4.091   1.862  0.4142 -0.4704  0.0855
 2754TIP3    H129897   1.143   4.019   1.845  0.4560 -0.7453  1.0585
 2754TIP3    H229898   1.232   4.078   1.953  0.3715  0.8131  0.2975
 2755TIP3   OH229899   1.606   3.282   8.002  0.9145  0.3191 -0.6514
 2755TIP3    H129900   1.612   3.194   8.039 -2.8435  0.3704  0.4515
 2755TIP3    H229901   1.589   3.339   8.077  1.4888  1.7607 -1.5660
 2756TIP3   OH229902   3.592   4.927   7.975  0.1977 -0.2722 -0.4659
 2756TIP3    H129903   3.604   4.913   8.069 -0.7072  1.0242 -0.1224
 2756TIP3    H229904   3.638   5.009   7.957 -1.2912  0.5541 -0.7095
 2757TIP3   OH229905   2.229   1.323   7.599  0.3159 -0.0689  0.3827
 2757TIP3    H129906   2.136   1.315   7.579  0.1562  0.0095  1.0598
 2757TIP3    H229907   2.236   1.298   7.691  0.9467  0.0472  0.3734
 2758TIP3   OH229908   1.637   3.316   8.482 -0.0293 -0.0156 -0.0138
 2758TIP3    H129909   1.720   3.268   8.482  0.0162  0.0476  0.5335
 2758TIP3    H229910   1.660   3.402   8.518  0.0464  0.7060 -1.7185
 2759TIP3   OH229911   4.764   4.259   8.133  0.0511  0.0384  0.3680
 2759TIP3    H129912   4.783   4.322   8.203  0.0130  0.7848 -0.2815
 2759TIP3    H229913   4.849   4.221   8.111  0.3217  0.9412 -0.2345
 2760TIP3   OH229914   1.386   2.292   1.152  0.1730  0.3964 -0.0852
 2760TIP3    H129915   1.475   2.258   1.149  0.7478  1.8102 -0.0572
 2760TIP3    H229916   1.357   2.276   1.242  0.0370 -0.8689 -0.3329
 2761TIP3   OH229917   1.690   1.491   7.144  0.2047  0.1085 -0.6478
 2761TIP3    H129918   1.746   1.505   7.220  0.0630  1.6113 -0.7844
 2761TIP3    H229919   1.624   1.428   7.174  1.0400 -0.4870 -0.0121
 2762TIP3   OH229920   5.314   6.104   7.574 -0.0063 -0.1407  0.1110
 2762TIP3    H129921   5.330   6.020   7.531 -4.9971 -0.4829 -1.8434
 2762TIP3    H229922   5.315   6.084   7.667  1.3569 -1.7490 -0.2011
 2763TIP3   OH229923   3.029   3.982   2.220  0.3745  0.0022  0.3200
 2763TIP3    H129924   3.093   4.050   2.199  1.1223 -0.4886  0.9499
 2763TIP3    H229925   3.061   3.904   2.176 -0.0084 -0.1479  0.3058
 2764TIP3   OH229926   2.772   4.358   7.512 -0.2154  0.2273 -0.6809
 2764TIP3    H129927   2.820   4.380   7.592  0.2238 -0.2130 -0.8113
 2764TIP3    H229928   2.841   4.335   7.449 -0.6049 -2.6800 -0.2062
 2765TIP3   OH229929   1.999   5.622   0.619 -0.5985  0.4747  0.0576
 2765TIP3    H129930   1.943   5.576   0.557  1.9364  1.3933 -3.1988
 2765TIP3    H229931   2.080   5.571   0.621  1.0735  2.9014 -1.1318
 2766TIP3   OH229932   5.347   4.052   0.277  0.2902 -0.6764  0.5601
 2766TIP3    H129933   5.310   4.134   0.245 -1.2510 -0.4798  2.6179
 2766TIP3    H229934   5.360   4.066   0.370  1.6967 -2.1985  0.6384
 2767TIP3   OH229935   2.898   5.261   7.477  0.3611  0.1623 -0.4157
 2767TIP3    H129936   2.974   5.207   7.454  1.4294  0.7660  1.4323
 2767TIP3    H229937   2.864   5.293   7.394  1.1456 -1.4416 -1.3826
 2768TIP3   OH229938   4.801   0.625   1.274 -0.4034 -0.1395 -0.0797
 2768TIP3    H129939   4.771   0.705   1.318  0.7975  0.3895 -0.1770
 2768TIP3    H229940   4.858   0.657   1.204  1.9901 -1.1253  1.3058
 2769TIP3   OH229941   4.435   0.535   0.594 -0.1831  0.0046  0.0767
 2769TIP3    H129942   4.461   0.477   0.666  1.3878 -0.7420 -1.0411
 2769TIP3    H229943   4.500   0.519   0.525 -1.7226  0.5727 -1.5903
 2770TIP3   OH229944   0.727   1.210   8.696 -0.2771  0.0184  0.2382
 2770TIP3    H129945   0.695   1.194   8.607  1.5062  0.8444 -0.6058
 2770TIP3    H229946   0.755   1.125   8.728  1.3303  0.0671 -0.9583
 2771TIP3   OH229947   2.198   1.515   1.288  0.0411  0.3017  1.0644
 2771TIP3    H129948   2.105   1.533   1.299  0.0799  1.1483  0.1510
 2771TIP3    H229949   2.241   1.600   1.300  0.5466  0.2295 -0.0794
 2772TIP3   OH229950   6.158   5.716   0.719 -0.3962  0.1411  0.0777
 2772TIP3    H129951   6.113   5.767   0.787 -1.2230  2.4844 -2.0968
 2772TIP3    H229952   6.089   5.688   0.660  0.6718  1.8843 -2.1156
 2773TIP3   OH229953   2.514   2.514   7.495  0.5670 -0.3628  0.1797
 2773TIP3    H129954   2.477   2.447   7.552  0.1594  0.2084  0.6049
 2773TIP3    H229955   2.514   2.475   7.407 -3.3529  0.3873 -0.3387
 2774TIP3   OH229956   5.652   6.527   6.886 -0.3728  0.0478  0.3501
 2774TIP3    H129957   5.739   6.566   6.890  0.4774 -1.8542  1.9694
 2774TIP3    H229958   5.640   6.507   6.793  1.5574 -0.9032  0.2404
 2775TIP3   OH229959   4.249   2.006   7.743 -0.6794  0.1126  0.1799
 2775TIP3    H129960   4.249   2.101   7.727 -0.6797  0.1668  0.4973
 2775TIP3    H229961   4.236   1.998   7.838  2.0620 -0.1359  0.6010
 2776TIP3   OH229962   4.226   0.469   1.115 -0.2572 -0.0309  0.5394
 2776TIP3    H129963   4.193   0.381   1.134  1.5764 -0.4492  2.0754
 2776TIP3    H229964   4.157   0.510   1.062 -0.7199 -2.7143 -1.1008
 2777TIP3   OH229965   2.057   0.175   7.946  0.4215 -0.4574  0.5759
 2777TIP3    H129966   2.095   0.260   7.968 -0.1138 -0.5270  1.8595
 2777TIP3    H229967   2.109   0.111   7.996  1.1259 -0.9520 -0.7457
 2778TIP3   OH229968   2.766   6.736   6.819  0.2400 -0.1027  0.0395
 2778TIP3    H129969   2.756   6.695   6.733 -0.9256 -1.3710  0.7393
 2778TIP3    H229970   2.854   6.773   6.818  0.7802 -1.3339 -1.1875
 2779TIP3   OH229971   4.109   3.873   1.969 -0.5469  0.0519 -0.0881
 2779TIP3    H129972   4.096   3.880   1.874  0.4711 -0.7253 -0.3032
 2779TIP3    H229973   4.176   3.805   1.979  0.1846  0.9177  1.1397
 2780TIP3   OH229974   5.130   0.406   1.329  0.4825 -0.0163 -0.0595
 2780TIP3    H129975   5.047   0.384   1.370  1.2813 -2.8178  0.2729
 2780TIP3    H229976   5.110   0.414   1.236 -0.5743  2.0865  0.2951
 2781TIP3   OH229977   4.273   1.797   6.527  0.2036  0.1043 -0.4502
 2781TIP3    H129978   4.218   1.822   6.453 -0.9876 -0.0311  0.3580
 2781TIP3    H229979   4.212   1.789   6.600  1.4010  0.5637  0.6301
 2782TIP3   OH229980   0.356   0.895   7.523  0.3178 -0.3080 -0.2717
 2782TIP3    H129981   0.288   0.858   7.579 -1.1420  2.5942  0.1075
 2782TIP3    H229982   0.314   0.905   7.438  0.2003  1.4031 -0.0614
 2783TIP3   OH229983   6.192   2.656   8.576  0.3706 -0.3732 -0.0997
 2783TIP3    H129984   6.192   2.654   8.480  0.8582  0.1654 -0.1150
 2783TIP3    H229985   6.270   2.707   8.599  0.9454 -1.5282  0.6125
 2784TIP3   OH229986   0.909   2.139   1.352  0.3860  0.1769 -0.4507
 2784TIP3    H129987   0.841   2.172   1.293 -0.6838 -0.4831  0.3790
 2784TIP3    H229988   0.978   2.205   1.348  0.3907  0.1201 -2.4877
 2785TIP3   OH229989   2.852   4.347   6.896 -0.1173 -0.1407 -0.3700
 2785TIP3    H129990   2.882   4.285   6.829 -1.2797 -1.6284  0.4166
 2785TIP3    H229991   2.783   4.300   6.943 -0.3374  1.3977  0.9411
 2786TIP3   OH229992   3.203   6.304   1.447  0.0965 -0.5255  0.4902
 2786TIP3    H129993   3.115   6.319   1.414  0.8054  1.1801 -0.7807
 2786TIP3    H229994   3.246   6.389   1.439  2.1435 -1.5331  0.1549
 2787TIP3   OH229995   0.717   6.304   6.878  0.3949 -0.5111 -0.3975
 2787TIP3    H129996   0.639   6.291   6.932 -0.9210 -2.1897 -2.5165
 2787TIP3    H229997   0.733   6.398   6.881 -0.5391 -0.3686  1.6103
 2788TIP3   OH229998   1.993   6.220   0.827  0.6327 -0.2062  0.0471
 2788TIP3    H129999   1.920   6.214   0.888 -0.4392 -1.9817 -1.3254
 2788TIP3    H230000   1.953   6.224   0.740  2.1480 -0.7051 -0.7192
 2789TIP3   OH230001   5.418   5.111   7.957 -0.0074 -0.5883  0.4610
 2789TIP3    H130002   5.356   5.059   8.008 -0.0005  0.4763  1.5810
 2789TIP3    H230003   5.435   5.188   8.011  1.9265 -0.6245 -0.0422
 2790TIP3   OH230004   5.674   4.475   6.693  0.0786 -0.6380 -0.5900
 2790TIP3    H130005   5.752   4.525   6.670 -0.5905  0.9265  0.3848
 2790TIP3    H230006   5.702   4.384   6.692  1.8370 -0.1180 -0.5666
 2791TIP3   OH230007   2.661   1.347   8.242 -0.0308  0.2957 -0.3109
 2791TIP3    H130008   2.756   1.356   8.237 -0.0711  0.6625 -0.4401
 2791TIP3    H230009   2.636   1.313   8.155  0.0498 -0.4501 -0.0508
 2792TIP3   OH230010   0.657   4.868   6.499  0.1444 -0.3359  0.4975
 2792TIP3    H130011   0.651   4.890   6.406 -1.6966  2.4226  1.1327
 2792TIP3    H230012   0.738   4.911   6.528 -0.4308  0.7552  0.5558
 2793TIP3   OH230013   6.349   3.705   1.455 -0.2241 -0.2301 -0.4261
 2793TIP3    H130014   6.282   3.637   1.452  0.1874 -0.6357 -0.6482
 2793TIP3    H230015   6.302   3.786   1.473 -0.5666 -0.8053  1.4489
 2794TIP3   OH230016   4.195   1.044   2.503 -0.4629  0.2375 -0.1225
 2794TIP3    H130017   4.117   1.059   2.555 -1.9280 -0.6508 -1.9338
 2794TIP3    H230018   4.200   0.949   2.494  0.5060  0.3127 -0.5101
 2795TIP3   OH230019   1.833   5.716   7.236  0.4529  0.2483  0.2948
 2795TIP3    H130020   1.892   5.767   7.290  0.8534 -0.6500  0.7262
 2795TIP3    H230021   1.747   5.758   7.247  0.7981  0.9084  0.5055
 2796TIP3   OH230022   1.686   1.202   0.534  0.1743  0.0901  0.9621
 2796TIP3    H130023   1.633   1.184   0.612  0.6805 -0.1445  1.2568
 2796TIP3    H230024   1.774   1.216   0.568  0.2741  0.6354  0.4900
 2797TIP3   OH230025   5.132   5.656   8.608  0.1882 -0.0616 -0.9388
 2797TIP3    H130026   5.212   5.705   8.626  0.5567 -1.2262  0.9688
 2797TIP3    H230027   5.096   5.637   8.695 -2.0379  0.2006 -1.7435
 2798TIP3   OH230028   0.269   2.410   7.663 -0.3160 -0.9046 -0.0388
 2798TIP3    H130029   0.345   2.361   7.696 -0.2206 -0.5211  0.3177
 2798TIP3    H230030   0.198   2.347   7.666  0.1115 -1.4511 -0.9466
 2799TIP3   OH230031   5.305   3.290   1.956 -0.4678 -0.7659  0.6840
 2799TIP3    H130032   5.377   3.249   1.908 -0.2787  0.5968 -0.2649
 2799TIP3    H230033   5.255   3.217   1.992 -0.4746 -1.8649 -1.4025
 2800TIP3   OH230034   6.601   2.651   1.260  0.1250 -0.2794  0.2304
 2800TIP3    H130035   6.623   2.650   1.167 -0.5020 -0.9632  0.0818
 2800TIP3    H230036   6.601   2.743   1.284  3.9014 -0.1721  0.4481
 2801TIP3   OH230037   0.846   6.152   7.181 -0.3746  0.0061  0.0612
 2801TIP3    H130038   0.847   6.202   7.099 -0.5644 -0.2598 -0.1065
 2801TIP3    H230039   0.922   6.094   7.174 -1.1903 -1.0262 -0.5721
 2802TIP3   OH230040   0.595   0.018   0.572  0.0269 -0.1359  0.2878
 2802TIP3    H130041   0.552   0.049   0.652 -0.4189  1.8493 -0.6507
 2802TIP3    H230042   0.673   0.074   0.564 -0.1281 -0.0633 -0.8483
 2803TIP3   OH230043   0.987   0.961   5.882 -0.4482 -0.2479 -0.2639
 2803TIP3    H130044   0.994   0.918   5.797 -2.4897  0.0772 -0.6516
 2803TIP3    H230045   0.903   0.930   5.917 -0.3857  0.8563  0.9116
 2804TIP3   OH230046   1.880   0.875   7.994 -0.4478 -0.2080 -0.3195
 2804TIP3    H130047   1.909   0.954   7.947  2.3747 -0.6304  0.5657
 2804TIP3    H230048   1.828   0.909   8.067 -0.4211  0.7507 -0.7278
 2805TIP3   OH230049   3.674   0.899   6.595 -0.1881 -0.1826  0.3207
 2805TIP3    H130050   3.642   0.861   6.513 -0.5772  2.0718 -0.6379
 2805TIP3    H230051   3.742   0.961   6.567 -0.3525  0.6378  1.6943
 2806TIP3   OH230052   6.506   5.092   2.037  0.2653  0.3083 -0.2668
 2806TIP3    H130053   6.530   5.005   2.070 -0.5131  0.2027  0.0440
 2806TIP3    H230054   6.410   5.089   2.031  0.1544  1.4387  0.5952
 2807TIP3   OH230055   5.191   2.240   0.321  1.0393 -0.3247  0.5814
 2807TIP3    H130056   5.249   2.194   0.383  1.9796  0.7019  0.4940
 2807TIP3    H230057   5.208   2.333   0.337 -0.4819  0.0113  0.4313
 2808TIP3   OH230058   0.574   5.259   8.562 -0.6744  0.3532  0.3281
 2808TIP3    H130059   0.594   5.343   8.603 -2.1048  0.8215  0.1311
 2808TIP3    H230060   0.573   5.197   8.635 -3.1709  1.1726  1.0986
 2809TIP3   OH230061   4.557   4.480   0.121 -0.1175  0.3590  0.0649
 2809TIP3    H130062   4.473   4.435   0.117 -0.3561  0.7816  0.2210
 2809TIP3    H230063   4.598   4.446   0.200  0.0406 -0.1526 -0.2305
 2810TIP3   OH230064   0.869   6.489   6.514 -0.1736  0.2104  0.3644
 2810TIP3    H130065   0.947   6.539   6.490  0.5533 -1.0045  0.1279
 2810TIP3    H230066   0.859   6.425   6.444 -1.2644  0.2034  0.5081
 2811TIP3   OH230067   1.172   3.713   1.348 -0.3297 -0.2763  0.0454
 2811TIP3    H130068   1.165   3.806   1.369  0.0779  0.2855 -2.0765
 2811TIP3    H230069   1.266   3.700   1.332 -0.3800 -1.0839  0.3584
 2812TIP3   OH230070   3.565   5.742   7.851 -0.6457  0.3486  0.6599
 2812TIP3    H130071   3.629   5.674   7.831 -1.4313 -0.5148  1.0388
 2812TIP3    H230072   3.489   5.695   7.884 -0.9171  1.4619  1.6929
 2813TIP3   OH230073   3.602   5.677   1.216 -0.0199 -0.4168  0.3836
 2813TIP3    H130074   3.587   5.633   1.132  0.7526 -2.8734  1.4415
 2813TIP3    H230075   3.590   5.770   1.197 -0.0657 -0.9089 -2.3880
 2814TIP3   OH230076   5.095   1.837   6.052 -0.4657 -0.1099 -0.1170
 2814TIP3    H130077   5.111   1.759   5.998  1.0801  1.2963 -1.8312
 2814TIP3    H230078   5.170   1.893   6.035 -1.3600  1.6137  1.3630
 2815TIP3   OH230079   3.200   6.002   8.460 -0.0552 -0.3979  0.2106
 2815TIP3    H130080   3.268   5.965   8.516 -0.1424 -0.9981 -0.0780
 2815TIP3    H230081   3.245   6.065   8.404 -0.2406  1.6776  2.2290
 2816TIP3   OH230082   4.394   3.808   8.203  0.4744  0.5254 -0.3343
 2816TIP3    H130083   4.405   3.760   8.122  0.5313  0.6582 -0.4057
 2816TIP3    H230084   4.474   3.860   8.211  1.5153 -1.1577  0.9397
 2817TIP3   OH230085   4.376   4.835   7.802 -0.3467 -0.7132 -0.5615
 2817TIP3    H130086   4.433   4.898   7.846  1.1371 -0.7739 -2.2888
 2817TIP3    H230087   4.291   4.880   7.796  0.4624  0.8241 -1.0430
 2818TIP3   OH230088   3.794   2.653   7.678 -0.2581  1.0369  0.3308
 2818TIP3    H130089   3.835   2.568   7.662 -0.4101  0.6747  1.7259
 2818TIP3    H230090   3.866   2.716   7.676  0.2247  0.5568  1.5667
 2819TIP3   OH230091   3.517   3.874   7.861  0.7647  0.2330  0.2267
 2819TIP3    H130092   3.478   3.804   7.912 -1.5493  0.2432 -1.3665
 2819TIP3    H230093   3.483   3.954   7.900  0.4878  0.3126 -0.1735
 2820TIP3   OH230094   2.500   3.583   0.142 -0.2361  0.0799  0.4069
 2820TIP3    H130095   2.440   3.608   0.072 -0.5168 -0.6229  0.3833
 2820TIP3    H230096   2.462   3.503   0.179 -0.1464  0.4865  1.4294
 2821TIP3   OH230097   5.927   4.845   7.525 -0.5943  0.7838  0.0535
 2821TIP3    H130098   5.893   4.886   7.446  2.0920 -0.0455 -1.7007
 2821TIP3    H230099   5.918   4.911   7.593 -0.5751  2.5633 -1.5976
 2822TIP3   OH230100   1.572   5.063   6.708 -0.2925  0.3509 -0.0252
 2822TIP3    H130101   1.663   5.036   6.720  0.2675  2.5142  1.1282
 2822TIP3    H230102   1.575   5.126   6.636 -1.3549 -1.5105 -1.7955
 2823TIP3   OH230103   1.032   3.465   6.515 -0.4369 -0.3062 -0.4283
 2823TIP3    H130104   1.112   3.470   6.567 -0.7727 -2.3040  0.3547
 2823TIP3    H230105   1.001   3.556   6.510  2.1476  0.6217 -1.2615
 2824TIP3   OH230106   2.570   1.566   8.393  0.0488 -0.0084 -0.3820
 2824TIP3    H130107   2.601   1.479   8.365 -1.3899 -0.3082 -1.1453
 2824TIP3    H230108   2.512   1.594   8.322 -1.6468  0.3781  1.0774
 2825TIP3   OH230109   3.209   1.025   1.686  0.4120 -0.2692 -0.1514
 2825TIP3    H130110   3.188   1.115   1.660 -1.3797 -0.5608  0.1043
 2825TIP3    H230111   3.247   1.033   1.773 -0.2666  0.2239  0.1099
 2826TIP3   OH230112   3.280   1.341   1.082 -0.1918  0.0663  0.0073
 2826TIP3    H130113   3.242   1.318   0.997  0.2959 -1.3938  0.1580
 2826TIP3    H230114   3.345   1.408   1.061 -1.2722  0.9877 -0.5266
 2827TIP3   OH230115   5.006   6.365   8.606 -0.0253 -0.8143 -0.5232
 2827TIP3    H130116   4.987   6.324   8.691  0.2388 -0.4957 -0.3079
 2827TIP3    H230117   5.005   6.459   8.624 -0.6654 -0.7163 -1.0236
 2828TIP3   OH230118   4.177   4.081   7.140  0.3205  0.2288 -0.3538
 2828TIP3    H130119   4.205   3.990   7.132  0.1159  0.1786 -0.5020
 2828TIP3    H230120   4.168   4.096   7.234 -0.4112 -0.1389 -0.3587
 2829TIP3   OH230121   4.254   4.245   8.025 -0.3660  0.7494  0.1294
 2829TIP3    H130122   4.334   4.296   8.034  0.1806 -0.1806  0.5573
 2829TIP3    H230123   4.267   4.168   8.080 -1.2357  0.1989 -0.4117
 2830TIP3   OH230124   6.134   1.872   1.093 -0.7544 -0.4913 -0.4802
 2830TIP3    H130125   6.184   1.793   1.070 -1.3123 -1.1050  0.3564
 2830TIP3    H230126   6.178   1.943   1.046  1.2003 -0.9273  0.5935
 2831TIP3   OH230127   2.089   2.198   1.244  0.3299 -0.1594 -0.2869
 2831TIP3    H130128   2.055   2.228   1.328  0.9520 -0.9503  0.2693
 2831TIP3    H230129   2.013   2.195   1.187 -0.3916 -1.0639  0.6767
 2832TIP3   OH230130   6.249   1.852   0.452 -0.1380  0.8225  0.6160
 2832TIP3    H130131   6.293   1.936   0.460 -2.1118  2.2163 -1.6701
 2832TIP3    H230132   6.221   1.831   0.540  0.6252  2.4247  1.2826
 2833TIP3   OH230133   2.336   3.766   8.261  0.5058  0.5260  0.0531
 2833TIP3    H130134   2.301   3.836   8.316 -0.1803  1.6417 -1.7211
 2833TIP3    H230135   2.262   3.740   8.206  1.7590  1.2529 -2.0976
 2834TIP3   OH230136   1.673   6.502   8.538  0.3891  0.5414 -1.1826
 2834TIP3    H130137   1.624   6.458   8.470 -0.9938 -0.5282  0.4355
 2834TIP3    H230138   1.737   6.437   8.569  0.5021  0.7590 -0.9471
 2835TIP3   OH230139   5.994   5.528   6.871  0.2326  0.0517 -1.0178
 2835TIP3    H130140   6.049   5.605   6.888  1.2277 -0.7119 -0.6868
 2835TIP3    H230141   6.022   5.496   6.786  0.5695 -0.5615 -0.6815
 2836TIP3   OH230142   1.499   2.100   0.822 -0.0119 -0.7495 -1.0374
 2836TIP3    H130143   1.408   2.113   0.851  0.9083  1.3295  1.2084
 2836TIP3    H230144   1.494   2.106   0.726 -2.1628 -0.1477 -0.9426
 2837TIP3   OH230145   3.368   4.965   7.824  0.4723  1.2170  0.0210
 2837TIP3    H130146   3.438   4.929   7.878  0.7478  1.2376 -0.3280
 2837TIP3    H230147   3.288   4.941   7.871  0.6175 -0.3189 -0.4885
 2838TIP3   OH230148   5.091   0.017   7.550  0.7071 -0.2217 -0.1682
 2838TIP3    H130149   5.126  -0.015   7.633 -0.4626  0.4954  0.6353
 2838TIP3    H230150   5.073   0.109   7.566 -0.7250 -0.3654 -0.8014
 2839TIP3   OH230151   3.691   3.494   7.707 -0.0114  0.8844 -0.5487
 2839TIP3    H130152   3.708   3.533   7.793 -0.5465  0.5042 -0.2672
 2839TIP3    H230153   3.632   3.555   7.664 -0.9705  0.3302 -0.0495
 2840TIP3   OH230154   4.839   5.292   6.386  0.4914 -0.0814 -0.2500
 2840TIP3    H130155   4.835   5.370   6.330 -0.4466  0.5994  0.7194
 2840TIP3    H230156   4.931   5.283   6.408  0.5583  1.0209 -0.0296
 2841TIP3   OH230157   0.444   6.614   1.729 -0.5880  0.4130 -0.0343
 2841TIP3    H130158   0.404   6.701   1.728 -0.8371  0.3447 -2.5407
 2841TIP3    H230159   0.459   6.593   1.637  1.0716 -1.4949  0.5864
 2842TIP3   OH230160   3.063   0.306   0.777 -0.2274 -0.7092 -0.8025
 2842TIP3    H130161   3.144   0.346   0.745  0.1624  1.0297  2.0340
 2842TIP3    H230162   2.998   0.326   0.709  0.4342  3.1162 -0.5116
 2843TIP3   OH230163   1.814   2.755   0.077 -0.1540 -0.3712  0.2631
 2843TIP3    H130164   1.729   2.782   0.113 -0.8609  0.3428 -1.7962
 2843TIP3    H230165   1.795   2.675   0.028 -0.2663  1.1262 -2.3469
 2844TIP3   OH230166   3.578   1.846   7.877 -0.2836 -0.2141 -0.0130
 2844TIP3    H130167   3.572   1.887   7.963  1.3784  1.6595 -0.7327
 2844TIP3    H230168   3.518   1.896   7.823  0.1087 -0.1457 -0.3876
 2845TIP3   OH230169   4.120   1.416   6.674 -0.4797 -0.6764 -0.0939
 2845TIP3    H130170   4.201   1.416   6.726  0.1647  0.4492 -1.0344
 2845TIP3    H230171   4.150   1.408   6.584 -1.1609  2.3458 -0.7075
 2846TIP3   OH230172   5.828   0.874   6.663  0.2764 -0.2626  0.0250
 2846TIP3    H130173   5.878   0.799   6.631 -0.3230 -0.2141 -1.0637
 2846TIP3    H230174   5.737   0.853   6.644  0.1181  0.8530 -0.5336
 2847TIP3   OH230175   3.619   2.983   1.973 -0.7243  0.7162 -0.4173
 2847TIP3    H130176   3.693   3.034   1.938  0.0392 -0.3211 -0.3479
 2847TIP3    H230177   3.551   3.048   1.989  0.0506  1.6490 -0.8161
 2848TIP3   OH230178   0.853   4.903   7.895  0.2451 -0.8336  0.1745
 2848TIP3    H130179   0.896   4.872   7.815  3.2549  0.7211  1.0510
 2848TIP3    H230180   0.885   4.844   7.963 -1.3791 -1.4130  0.4965
 2849TIP3   OH230181   1.496   6.092   6.899 -0.4449  0.5388 -0.9056
 2849TIP3    H130182   1.465   6.146   6.826  0.6053  2.0922 -0.2688
 2849TIP3    H230183   1.511   6.155   6.970 -0.8363 -0.8568  0.4506
 2850TIP3   OH230184   6.736   6.765   0.553  0.0820  0.0622 -0.2093
 2850TIP3    H130185   6.764   6.683   0.512 -0.9802 -0.0003 -0.8434
 2850TIP3    H230186   6.789   6.772   0.632  0.3166 -1.1427 -0.2493
 2851TIP3   OH230187   6.303   1.528   6.702  0.6483  0.4280 -0.1621
 2851TIP3    H130188   6.315   1.433   6.705  0.2489  0.3332 -1.1167
 2851TIP3    H230189   6.360   1.556   6.630  1.5266  1.0504  0.7492
 2852TIP3   OH230190   5.029   5.866   8.392  1.1393  0.6101  0.4293
 2852TIP3    H130191   4.982   5.950   8.388 -0.8777 -0.4893 -0.0363
 2852TIP3    H230192   5.048   5.854   8.485  2.1760  1.9182  0.4280
 2853TIP3   OH230193   5.755   2.837   6.342 -0.8142 -0.6057 -0.1511
 2853TIP3    H130194   5.781   2.782   6.416 -0.0823 -1.4585 -1.0146
 2853TIP3    H230195   5.663   2.857   6.358 -0.9817 -1.7440  0.4134
 2854TIP3   OH230196   6.527   1.762   1.543  0.3792  0.5145  0.7272
 2854TIP3    H130197   6.521   1.747   1.638  0.1830 -0.1089  0.6205
 2854TIP3    H230198   6.506   1.855   1.533 -1.1719  0.2518  1.1548
 2855TIP3   OH230199   4.353   5.069   7.491  0.2303  0.1875  0.3045
 2855TIP3    H130200   4.425   5.020   7.452 -0.6809 -0.6235 -0.4041
 2855TIP3    H230201   4.337   5.140   7.429 -0.1409 -0.1443  0.0134
 2856TIP3   OH230202   3.688   1.712   7.235 -0.2527 -0.0241 -0.1213
 2856TIP3    H130203   3.742   1.637   7.210 -1.1294 -0.6503 -0.1897
 2856TIP3    H230204   3.741   1.760   7.299 -0.4510 -1.8131  1.4658
 2857TIP3   OH230205   4.284   2.849   0.861 -0.1786 -0.1032  0.3569
 2857TIP3    H130206   4.211   2.869   0.803 -0.8849 -1.4964  0.7249
 2857TIP3    H230207   4.359   2.895   0.822 -0.6672 -0.8244 -1.5677
 2858TIP3   OH230208   3.325   4.500   0.291  0.6615  0.5906 -0.0365
 2858TIP3    H130209   3.304   4.548   0.372  0.9600  1.2168 -0.3263
 2858TIP3    H230210   3.359   4.567   0.232 -0.2539  0.2722 -0.9428
 2859TIP3   OH230211   5.341   6.437   7.171  0.0364 -0.7430 -0.0264
 2859TIP3    H130212   5.356   6.369   7.236  0.7377 -1.3894 -0.8531
 2859TIP3    H230213   5.357   6.395   7.087  0.7618  0.5008 -0.5436
 2860TIP3   OH230214   0.761   3.335   7.173 -0.0763 -0.1146 -0.0653
 2860TIP3    H130215   0.782   3.382   7.092  0.8875 -2.0635 -1.0111
 2860TIP3    H230216   0.825   3.368   7.236  0.0958  0.4029 -0.5013
 2861TIP3   OH230217   1.134   0.705   0.705 -0.1881  0.0020  0.1652
 2861TIP3    H130218   1.193   0.630   0.695  2.1196  1.6236  0.7768
 2861TIP3    H230219   1.149   0.758   0.626 -0.6599  0.5394  0.4309
 2862TIP3   OH230220   3.757   6.374   1.870  0.0434  0.9806 -0.0831
 2862TIP3    H130221   3.742   6.280   1.878 -0.5130  1.0737  0.0270
 2862TIP3    H230222   3.713   6.398   1.789 -1.0604  1.3884  0.6147
 2863TIP3   OH230223   3.613   6.378   6.481  0.6309  0.1598 -0.5360
 2863TIP3    H130224   3.675   6.396   6.410  0.2070 -0.1357 -0.9799
 2863TIP3    H230225   3.592   6.285   6.472 -1.1207  0.6011 -1.4042
 2864TIP3   OH230226   1.466   0.129   7.692  0.1661  0.4831 -0.1671
 2864TIP3    H130227   1.475   0.189   7.618 -0.6606 -0.1733 -0.8195
 2864TIP3    H230228   1.394   0.071   7.667  0.7956 -0.6431  0.5403
 2865TIP3   OH230229   5.603   0.221   1.393  0.1500 -0.0142  0.1136
 2865TIP3    H130230   5.546   0.255   1.323  0.0122  0.4994  0.4740
 2865TIP3    H230231   5.622   0.131   1.366 -0.0703  0.1131 -0.4850
 2866TIP3   OH230232   4.993   4.000   8.419  0.1348 -0.3135 -0.2541
 2866TIP3    H130233   5.007   3.906   8.409 -0.7502 -0.5180  0.3539
 2866TIP3    H230234   4.961   4.028   8.334 -1.0510 -0.8538 -0.0129
 2867TIP3   OH230235   3.829   0.547   7.880  0.1495 -0.2001 -0.4927
 2867TIP3    H130236   3.846   0.602   7.804  1.5047  1.1491  0.7148
 2867TIP3    H230237   3.750   0.583   7.919 -0.7010 -1.0608 -1.3612
 2868TIP3   OH230238   0.898   4.716   6.944 -0.3162 -0.5550 -0.7781
 2868TIP3    H130239   0.937   4.629   6.957  1.8857  0.5544  0.5538
 2868TIP3    H230240   0.852   4.733   7.027 -1.8239 -0.9076 -1.5023
 2869TIP3   OH230241   2.292   4.594   1.621 -0.5414  0.3792 -0.2128
 2869TIP3    H130242   2.255   4.505   1.622 -0.8835  0.4582 -2.1756
 2869TIP3    H230243   2.314   4.611   1.712  1.5640 -2.5655 -0.0220
 2870TIP3   OH230244   0.921   0.987   0.542 -0.2630  0.9392  0.1962
 2870TIP3    H130245   0.953   0.907   0.499 -1.6937  1.3910 -1.8507
 2870TIP3    H230246   1.000   1.031   0.573  0.5726 -1.1055  1.1607
 2871TIP3   OH230247   1.240   2.977   8.504  0.3614  0.2625  0.5335
 2871TIP3    H130248   1.275   2.995   8.418 -0.2691  0.0165  0.2142
 2871TIP3    H230249   1.268   3.051   8.558  1.9329 -0.2546  0.4806
 2872TIP3   OH230250   3.676   0.399   1.357  0.0390 -0.0205  0.1530
 2872TIP3    H130251   3.592   0.366   1.324 -0.2911  0.4949  0.4684
 2872TIP3    H230252   3.739   0.376   1.288 -0.0922 -1.6805  0.5289
 2873TIP3   OH230253   2.403   2.802   6.843 -0.1380  0.6120  0.1393
 2873TIP3    H130254   2.404   2.790   6.748 -0.5797 -0.9897  0.3091
 2873TIP3    H230255   2.369   2.719   6.877  2.0764  0.2928  1.8164
 2874TIP3   OH230256   4.660   3.435   1.877 -0.5521 -0.0254 -0.3931
 2874TIP3    H130257   4.659   3.366   1.943  0.2103  1.0653  0.8085
 2874TIP3    H230258   4.613   3.508   1.918 -0.1840  0.6262 -1.1051
 2875TIP3   OH230259   6.161   6.690   2.050  0.3424 -0.2752  0.4706
 2875TIP3    H130260   6.070   6.670   2.070  0.1636 -1.8246 -1.6082
 2875TIP3    H230261   6.211   6.646   2.120 -0.4495 -0.1400  1.1334
 2876TIP3   OH230262   1.004   0.856   6.599  0.5658 -0.2445  0.1947
 2876TIP3    H130263   0.987   0.809   6.681  0.0628 -2.1088 -0.9340
 2876TIP3    H230264   0.983   0.793   6.530 -0.4292  1.7259 -1.4171
 2877TIP3   OH230265   5.709   6.283   8.588  0.4662  0.4498 -0.0161
 2877TIP3    H130266   5.704   6.366   8.635  0.8658  1.3725 -1.5046
 2877TIP3    H230267   5.628   6.279   8.538  0.7909  0.3541 -0.5544
 2878TIP3   OH230268   3.423   5.539   1.381 -0.0454  0.0768  0.2066
 2878TIP3    H130269   3.471   5.490   1.447 -0.1770  1.2278  1.1739
 2878TIP3    H230270   3.481   5.611   1.357 -0.3968  0.2196 -0.2427
 2879TIP3   OH230271   4.830   3.936   2.349  0.0416  0.7547 -0.2363
 2879TIP3    H130272   4.836   4.029   2.369  0.1001  0.7704 -0.3264
 2879TIP3    H230273   4.736   3.917   2.350 -0.1485  1.3026 -2.4287
 2880TIP3   OH230274   4.020   3.447   7.889 -0.1400 -0.2877 -0.2784
 2880TIP3    H130275   4.096   3.429   7.945  0.0759 -2.3721 -1.1317
 2880TIP3    H230276   4.033   3.536   7.858  2.3577 -0.8071 -0.9570
 2881TIP3   OH230277   2.344   2.445   7.147 -0.0924 -0.1721 -0.2299
 2881TIP3    H130278   2.258   2.459   7.105  0.4887  2.4347 -0.7074
 2881TIP3    H230279   2.335   2.361   7.192 -2.3274 -0.8012 -1.6767
 2882TIP3   OH230280   3.491   4.716   7.439  0.4598  0.1854  0.3560
 2882TIP3    H130281   3.487   4.704   7.534  1.2643  1.8877  0.6523
 2882TIP3    H230282   3.486   4.811   7.427 -1.6663 -0.0754 -1.4489
 2883TIP3   OH230283   4.711   1.216   7.903 -0.1784  0.2003  0.1893
 2883TIP3    H130284   4.773   1.142   7.905 -1.5114 -0.9436  1.3504
 2883TIP3    H230285   4.679   1.222   7.993  0.1019  2.4110  0.1901
 2884TIP3   OH230286   6.528   1.773   8.321  0.4635 -0.0258  0.1208
 2884TIP3    H130287   6.435   1.796   8.318 -0.0057 -1.4920  1.7521
 2884TIP3    H230288   6.568   1.843   8.372  0.3339  0.7779 -0.8532
 2885TIP3   OH230289   4.923   6.418   0.641  0.1888  0.1360 -0.4259
 2885TIP3    H130290   4.973   6.408   0.722  0.0101  0.6300 -0.2480
 2885TIP3    H230291   4.831   6.423   0.669  0.2614  2.6415 -0.4126
 2886TIP3   OH230292   0.770   6.753   6.532 -1.1462  0.2198  0.4184
 2886TIP3    H130293   0.794   6.797   6.451 -0.1271 -0.0726  0.5457
 2886TIP3    H230294   0.826   6.675   6.534 -1.4347  0.0238  1.2075
 2887TIP3   OH230295   1.985   5.530   7.770 -0.5461  0.4263  0.0935
 2887TIP3    H130296   2.070   5.569   7.751 -0.9480  0.6804 -1.2916
 2887TIP3    H230297   1.997   5.437   7.749 -0.8623  0.6256 -0.9861
 2888TIP3   OH230298   5.472   6.321   8.217 -0.4547 -0.6585  0.0715
 2888TIP3    H130299   5.424   6.399   8.189  0.2074  0.2144  1.2705
 2888TIP3    H230300   5.557   6.328   8.174 -0.6150 -1.0468 -0.3101
 2889TIP3   OH230301   2.545   4.091   0.642 -0.1451 -0.3663  0.6916
 2889TIP3    H130302   2.495   4.157   0.594 -0.2197 -0.1930  1.0080
 2889TIP3    H230303   2.523   4.008   0.599 -0.2049 -0.2125  0.4209
 2890TIP3   OH230304   5.723   1.655   7.260  0.1419  0.0220 -0.7063
 2890TIP3    H130305   5.795   1.707   7.296 -0.5656  0.8261 -0.4163
 2890TIP3    H230306   5.688   1.708   7.189 -1.0033  0.2565  0.0066
 2891TIP3   OH230307   3.441   5.341   1.628 -0.6461 -0.5712 -0.3515
 2891TIP3    H130308   3.510   5.308   1.685 -1.5621 -0.1995  1.0186
 2891TIP3    H230309   3.379   5.268   1.622 -1.0107 -0.2876 -0.0909
 2892TIP3   OH230310   6.101   0.959   1.842 -0.1039  0.2561  0.2243
 2892TIP3    H130311   6.051   0.898   1.787  0.7109 -0.5734  0.3739
 2892TIP3    H230312   6.119   0.910   1.922 -0.4990  1.1430  0.8750
 2893TIP3   OH230313   2.750   0.710   1.860 -0.7094  0.3478 -0.2625
 2893TIP3    H130314   2.775   0.655   1.786  0.0726 -1.1288  1.0230
 2893TIP3    H230315   2.827   0.711   1.916 -1.9748 -0.4965  1.6153
 2894TIP3   OH230316   2.831   2.488   7.230  0.3664  0.5218 -0.3527
 2894TIP3    H130317   2.834   2.414   7.170 -1.0253 -0.4103  0.6335
 2894TIP3    H230318   2.832   2.565   7.174  2.1061 -0.2143 -1.3995
 2895TIP3   OH230319   2.859   2.506   1.285 -0.5181  0.4274  0.0444
 2895TIP3    H130320   2.816   2.590   1.301  0.2772  0.5718  1.6415
 2895TIP3    H230321   2.925   2.526   1.218 -0.2858  1.1064  0.4571
 2896TIP3   OH230322   2.295   2.563   2.016  0.5185  0.2356 -0.2847
 2896TIP3    H130323   2.365   2.623   2.041  0.0768  0.8375 -0.4908
 2896TIP3    H230324   2.216   2.617   2.011  0.3724 -0.0560 -1.8761
 2897TIP3   OH230325   6.562   4.463   8.525 -0.3537  0.2356 -0.0825
 2897TIP3    H130326   6.613   4.391   8.488 -0.8255 -0.2161  0.1310
 2897TIP3    H230327   6.581   4.460   8.619 -0.3699  0.3990 -0.0727
 2898TIP3   OH230328   3.837   0.668   7.609 -0.0995 -0.3233  0.3305
 2898TIP3    H130329   3.831   0.763   7.614 -0.4653 -0.2914 -0.6605
 2898TIP3    H230330   3.905   0.651   7.543 -1.6438 -0.7347 -1.2258
 2899TIP3   OH230331   6.223   3.972   1.493  0.2506  0.0216  0.2107
 2899TIP3    H130332   6.230   4.012   1.580 -2.0072  2.1017 -0.4595
 2899TIP3    H230333   6.293   4.013   1.443 -0.4847  1.3363  0.2116
 2900TIP3   OH230334   0.957   0.849   2.250  0.4103  0.0211  0.0848
 2900TIP3    H130335   0.877   0.862   2.199  0.3099 -0.8721 -0.0005
 2900TIP3    H230336   0.988   0.762   2.225  1.0564  0.0918  0.6019
 2901TIP3   OH230337   0.249   2.580   1.949 -0.6708 -0.0102  0.5939
 2901TIP3    H130338   0.240   2.651   2.012 -1.1956 -0.9268  1.6004
 2901TIP3    H230339   0.179   2.518   1.973  2.1148 -2.7699  2.3620
 2902TIP3   OH230340   6.631   4.289   0.200 -0.1590  0.4423  0.5736
 2902TIP3    H130341   6.687   4.348   0.149  1.2066 -1.6459 -0.4779
 2902TIP3    H230342   6.550   4.283   0.149 -0.3186  1.3597  0.6955
 2903TIP3   OH230343   4.319   1.159   6.955  0.1227  0.0000  0.0962
 2903TIP3    H130344   4.251   1.118   6.901  0.5150 -1.4036  0.6152
 2903TIP3    H230345   4.396   1.162   6.898  0.1910 -0.3246  0.1696
 2904TIP3   OH230346   3.384   0.135   7.150  0.0839 -0.2542 -0.0643
 2904TIP3    H130347   3.381   0.072   7.222 -0.8178 -0.9039 -0.6561
 2904TIP3    H230348   3.441   0.095   7.085  2.7191  1.2940  1.1154
 2905TIP3   OH230349   2.802   6.227   0.108  0.1347 -0.2497 -0.1626
 2905TIP3    H130350   2.768   6.297   0.053  1.0642  1.1343  0.9685
 2905TIP3    H230351   2.859   6.271   0.171  0.2463 -1.9458  0.9847
 2906TIP3   OH230352   4.311   3.532   0.027  0.2906  0.2526 -0.3189
 2906TIP3    H130353   4.290   3.534  -0.066 -0.7743 -1.9577 -0.1874
 2906TIP3    H230354   4.245   3.589   0.068 -0.8706 -0.8097 -0.6740
 2907TIP3   OH230355   5.141   6.208   0.447  0.5649  0.0930  0.2340
 2907TIP3    H130356   5.103   6.290   0.416  0.8742 -0.3548 -1.4593
 2907TIP3    H230357   5.225   6.232   0.484 -0.0625  0.7263  1.2911
 2908TIP3   OH230358   6.799   6.253   8.497  0.0899  0.4038  0.2271
 2908TIP3    H130359   6.712   6.277   8.464 -0.5529  0.2015  1.6764
 2908TIP3    H230360   6.832   6.333   8.536 -0.1287  0.0891  1.0738
 2909TIP3   OH230361   5.577   0.457   8.452 -0.0017 -0.4611 -0.1347
 2909TIP3    H130362   5.577   0.500   8.367 -1.3973 -0.9065 -0.3810
 2909TIP3    H230363   5.633   0.380   8.440  0.5244 -0.0447 -0.3825
 2910TIP3   OH230364   2.877   1.212   7.054 -0.0578 -0.2252  0.3794
 2910TIP3    H130365   2.866   1.143   6.989  0.2289  1.1577 -1.2232
 2910TIP3    H230366   2.968   1.239   7.045  0.0677 -0.1757  1.5793
 2911TIP3   OH230367   3.972   6.404   7.146  0.0388 -0.8134  0.0925
 2911TIP3    H130368   3.885   6.367   7.161 -0.3255  0.2405  0.6560
 2911TIP3    H230369   3.997   6.441   7.230  0.5776 -0.1687 -0.3453
 2912TIP3   OH230370   4.779   5.057   7.824 -0.1927 -0.1305  0.4319
 2912TIP3    H130371   4.759   5.139   7.779  1.2018  0.1992  0.3779
 2912TIP3    H230372   4.733   4.990   7.774  1.5154  0.1842 -1.6908
 2913TIP3   OH230373   4.110   0.336   7.842 -0.6158  0.0018  0.2631
 2913TIP3    H130374   4.173   0.265   7.834 -0.5938  0.0659 -0.1863
 2913TIP3    H230375   4.122   0.387   7.762 -1.1752  0.0670  0.2209
 2914TIP3   OH230376   4.878   5.363   6.847  0.8302  0.3755 -0.1860
 2914TIP3    H130377   4.909   5.440   6.800  0.3330 -1.3699 -3.7412
 2914TIP3    H230378   4.958   5.314   6.869  1.0104  0.1271 -1.3480
 2915TIP3   OH230379   2.387   1.991   7.921  0.0483  0.0194 -0.3044
 2915TIP3    H130380   2.305   1.988   7.969 -0.1549 -0.2709 -0.6609
 2915TIP3    H230381   2.454   2.001   7.988 -0.2617  0.0169  0.0074
 2916TIP3   OH230382   6.889   1.963   1.230  0.4439  0.5702  0.5941
 2916TIP3    H130383   6.980   1.935   1.226  0.3118  0.0944  0.8929
 2916TIP3    H230384   6.863   1.948   1.321 -0.2245 -0.2334  0.2785
 2917TIP3   OH230385   6.183   0.145   1.416  0.0632  0.3345 -0.4600
 2917TIP3    H130386   6.192   0.240   1.426  2.9359  0.5017 -3.0413
 2917TIP3    H230387   6.112   0.135   1.354 -0.1791  0.8052 -0.2668
 2918TIP3   OH230388   3.322   5.170   8.465 -0.8917 -0.8608 -0.4613
 2918TIP3    H130389   3.287   5.257   8.450  0.0160 -0.2134  0.9067
 2918TIP3    H230390   3.358   5.174   8.554  1.4507 -1.8380 -1.2791
 2919TIP3   OH230391   3.791   1.901   6.993  0.2301 -0.1203 -0.3952
 2919TIP3    H130392   3.809   1.816   6.951  1.2327 -0.7459  1.2110
 2919TIP3    H230393   3.754   1.878   7.078 -0.1086  1.0853 -0.1970
 2920TIP3   OH230394   5.721   6.104   1.667  0.5024 -0.4871  0.7011
 2920TIP3    H130395   5.794   6.165   1.669  0.4574 -0.3964  0.0475
 2920TIP3    H230396   5.649   6.155   1.627  0.1197 -0.6063  1.2309
 2921TIP3   OH230397   6.178   1.763   6.561  0.0029 -0.6427 -0.4541
 2921TIP3    H130398   6.213   1.688   6.512 -3.1826 -1.8006 -1.1795
 2921TIP3    H230399   6.098   1.787   6.514  0.1627  2.3556  0.6067
 2922TIP3   OH230400   2.166   3.642   1.234  0.0090 -0.0245  0.5286
 2922TIP3    H130401   2.125   3.673   1.315 -0.2120  1.8605 -0.2640
 2922TIP3    H230402   2.258   3.632   1.256 -0.0186  0.6443  0.9770
 2923TIP3   OH230403   0.548   6.882   7.078 -0.2237  0.8718 -0.5279
 2923TIP3    H130404   0.518   6.796   7.048  0.7807 -0.0950  1.0754
 2923TIP3    H230405   0.475   6.917   7.128 -0.3222  0.5597 -0.4510
 2924TIP3   OH230406   1.431   6.563   7.972 -0.6816  0.3063 -0.0833
 2924TIP3    H130407   1.397   6.643   7.931 -0.7669  0.6373  0.6142
 2924TIP3    H230408   1.391   6.562   8.059 -0.1116 -0.1200  0.1794
 2925TIP3   OH230409   2.446   6.244   8.409 -0.0457  0.0457 -0.0394
 2925TIP3    H130410   2.517   6.297   8.372  0.4519 -0.5122  0.1035
 2925TIP3    H230411   2.490   6.181   8.466 -0.8244  1.2803  2.0678
 2926TIP3   OH230412   5.581   0.532   8.182 -0.8256  0.3641 -0.8775
 2926TIP3    H130413   5.522   0.554   8.110 -1.1717 -0.7750 -0.9516
 2926TIP3    H230414   5.595   0.438   8.174  0.4643  0.5010 -0.4483
 2927TIP3   OH230415   1.009   3.708   0.387  0.1586  0.3071 -0.3245
 2927TIP3    H130416   0.918   3.717   0.357  0.0288 -0.7462 -0.2775
 2927TIP3    H230417   1.042   3.798   0.391 -0.3976  0.6054 -1.8544
 2928TIP3   OH230418   5.945   4.624   1.177  0.3068  0.3711 -0.0016
 2928TIP3    H130419   5.864   4.666   1.148  0.5518 -0.0393 -1.3179
 2928TIP3    H230420   5.960   4.554   1.115  1.9173  0.7101 -0.0451
 2929TIP3   OH230421   3.378   0.729   0.381 -0.2132  0.0630 -0.1540
 2929TIP3    H130422   3.377   0.689   0.294 -0.0710 -1.0928  0.3649
 2929TIP3    H230423   3.342   0.662   0.439  0.7447  0.3915  0.8505
 2930TIP3   OH230424   4.698   5.092   1.037  0.2617 -0.5723  0.1457
 2930TIP3    H130425   4.602   5.095   1.039  0.1713 -1.7040 -1.0541
 2930TIP3    H230426   4.724   5.176   1.000 -0.2104  0.0821  1.2570
 2931TIP3   OH230427   5.183   2.818   8.657 -0.3773 -0.5443 -0.3449
 2931TIP3    H130428   5.249   2.759   8.693  0.4679  0.4527 -0.1973
 2931TIP3    H230429   5.123   2.761   8.608  0.2874 -1.5324 -0.0321
 2932TIP3   OH230430   2.787   0.233   8.111 -0.6374  0.2074  0.5001
 2932TIP3    H130431   2.787   0.323   8.144 -0.0582  0.3395  0.1606
 2932TIP3    H230432   2.837   0.184   8.176  2.2662  0.8395 -1.0534
 2933TIP3   OH230433   6.682   0.464   2.511  0.3623  0.2261 -0.7744
 2933TIP3    H130434   6.613   0.401   2.491 -0.8289  1.6809 -1.5255
 2933TIP3    H230435   6.639   0.530   2.567  1.3094  0.8348 -0.7355
 2934TIP3   OH230436   2.019   1.038   8.533 -0.5137 -0.3835 -0.1120
 2934TIP3    H130437   2.114   1.032   8.524 -0.0141  3.0143  1.2580
 2934TIP3    H230438   1.993   1.099   8.464 -1.8618 -1.7764 -0.8915
 2935TIP3   OH230439   0.979   3.626   7.601 -0.3732 -0.1752  0.0203
 2935TIP3    H130440   0.959   3.706   7.651 -3.3994 -0.0037 -1.2361
 2935TIP3    H230441   0.921   3.560   7.639 -0.2465 -0.9101 -1.0438
 2936TIP3   OH230442   4.186   1.979   8.012 -0.7470  0.4372  0.3638
 2936TIP3    H130443   4.195   2.068   8.047  2.3400 -0.2896  1.8537
 2936TIP3    H230444   4.168   1.925   8.089  2.5167 -0.7632  0.4385
 2937TIP3   OH230445   1.043   3.078   6.743 -0.3328  0.5347 -0.0493
 2937TIP3    H130446   0.987   3.010   6.704 -0.1868  0.5686 -0.3227
 2937TIP3    H230447   1.089   3.116   6.668 -0.7291  1.2215  0.0514
 2938TIP3   OH230448   4.970   1.754   7.970 -0.3183 -0.1220  0.2892
 2938TIP3    H130449   5.003   1.693   7.904  0.5590 -0.2944  0.8697
 2938TIP3    H230450   5.012   1.837   7.948 -0.4572 -0.0497  0.3005
 2939TIP3   OH230451   1.460   1.817   7.789  0.0787 -0.3396  0.1323
 2939TIP3    H130452   1.383   1.823   7.844 -0.8483  2.2265 -1.2815
 2939TIP3    H230453   1.426   1.815   7.699  1.6036  0.9153 -0.5373
 2940TIP3   OH230454   4.303   4.810   2.280 -0.1382  0.0551 -0.2424
 2940TIP3    H130455   4.252   4.848   2.208 -0.3665 -0.4199 -0.3341
 2940TIP3    H230456   4.287   4.716   2.274  0.7202 -0.1019 -0.2511
 2941TIP3   OH230457   6.419   6.321   2.484 -0.3681  0.3523 -0.7243
 2941TIP3    H130458   6.507   6.287   2.498 -1.4868 -2.7133 -0.2356
 2941TIP3    H230459   6.426   6.415   2.502  2.6117  0.0977  0.0172
 2942TIP3   OH230460   5.196   0.223   5.952  0.1624  0.1430  0.0557
 2942TIP3    H130461   5.194   0.318   5.964  2.1053  0.3751 -1.0041
 2942TIP3    H230462   5.161   0.188   6.033 -0.5743  1.7504  0.4822
 2943TIP3   OH230463   0.565   4.194   6.592 -0.3756  0.0931 -0.5903
 2943TIP3    H130464   0.599   4.168   6.506 -1.0656  1.6427 -1.3659
 2943TIP3    H230465   0.470   4.190   6.581 -0.4679  0.8845 -0.0869
 2944TIP3   OH230466   1.844   1.179   1.695  0.3612  0.2835 -0.1313
 2944TIP3    H130467   1.933   1.212   1.708  1.0259 -1.6107  0.3651
 2944TIP3    H230468   1.830   1.188   1.600  0.6968  1.4426 -0.0951
 2945TIP3   OH230469   4.741   1.675   7.079 -0.3610 -0.4464  0.3647
 2945TIP3    H130470   4.800   1.665   7.155 -0.4531 -0.3518  0.4496
 2945TIP3    H230471   4.772   1.755   7.036 -0.3810 -0.4372  0.3675
 2946TIP3   OH230472   6.530   2.845   1.041 -0.5243  0.2708 -0.3561
 2946TIP3    H130473   6.605   2.884   1.087 -0.3868 -0.3391 -0.0540
 2946TIP3    H230474   6.542   2.870   0.950  0.1317  0.0604 -0.3360
 2947TIP3   OH230475   2.020   4.890   0.905  0.3028 -0.0487  0.3185
 2947TIP3    H130476   1.994   4.815   0.959  0.7063 -0.2886  0.1809
 2947TIP3    H230477   2.094   4.858   0.854  1.7840  1.0282  1.6954
 2948TIP3   OH230478   5.589   4.272   1.281  0.1294  0.2296  0.4377
 2948TIP3    H130479   5.678   4.271   1.316 -0.1119  0.1688  1.0499
 2948TIP3    H230480   5.567   4.179   1.271  0.4240  0.2482 -0.4631
 2949TIP3   OH230481   4.963   2.590   0.388  0.1136 -0.2922  0.3825
 2949TIP3    H130482   4.957   2.535   0.310 -1.4353 -0.6656  0.7344
 2949TIP3    H230483   5.035   2.651   0.368  0.2151 -0.8218 -1.0315
 2950TIP3   OH230484   6.128   1.505   0.733  0.9004 -0.0735  0.0612
 2950TIP3    H130485   6.041   1.467   0.743  0.0537  1.5406 -0.9003
 2950TIP3    H230486   6.168   1.455   0.662  1.2481 -1.5615  1.2252
 2951TIP3   OH230487   3.510   1.298   1.641  0.1788 -0.1535 -0.0241
 2951TIP3    H130488   3.543   1.319   1.729 -1.0424 -1.6790  0.8605
 2951TIP3    H230489   3.421   1.331   1.640  0.0575 -0.4895 -0.5395
 2952TIP3   OH230490   5.497   6.624   1.454  0.3919  0.4436 -0.4844
 2952TIP3    H130491   5.428   6.560   1.475  0.5573  1.2171  2.9183
 2952TIP3    H230492   5.578   6.573   1.454  0.4228  0.4435  1.3410
 2953TIP3   OH230493   1.139   6.835   1.010  0.4152  0.0712  0.0173
 2953TIP3    H130494   1.205   6.855   1.077  2.3537 -3.5385 -0.5500
 2953TIP3    H230495   1.119   6.919   0.970  2.7351  1.7055  1.9917
 2954TIP3   OH230496   6.229   6.116   1.000 -0.1543 -0.3095 -0.4224
 2954TIP3    H130497   6.182   6.078   1.073 -0.8609  1.2062 -0.0373
 2954TIP3    H230498   6.172   6.187   0.969  1.0995  0.4730 -1.0440
 2955TIP3   OH230499   1.524   6.595   0.534 -0.0466  1.3927  0.1489
 2955TIP3    H130500   1.438   6.567   0.565  0.3055  0.7508  0.5783
 2955TIP3    H230501   1.529   6.688   0.555 -0.3907  1.2933  0.6890
 2956TIP3   OH230502   3.102   4.274   7.034  0.2230 -0.2531  0.4008
 2956TIP3    H130503   3.015   4.292   6.999 -0.3025 -0.5529  1.5011
 2956TIP3    H230504   3.131   4.195   6.988  0.0199 -0.0125 -0.1431
 2957TIP3   OH230505   2.105   3.731   6.222 -0.0999  0.0240  0.3277
 2957TIP3    H130506   2.159   3.808   6.203  0.6718 -0.1174  1.8095
 2957TIP3    H230507   2.167   3.658   6.221 -0.4457 -0.2895  0.9565
 2958TIP3   OH230508   0.575   1.840   0.456 -0.8453 -0.3944 -0.4920
 2958TIP3    H130509   0.506   1.810   0.515 -0.2773 -1.4581 -0.3533
 2958TIP3    H230510   0.531   1.849   0.371 -1.4163  0.0882 -0.1488
 2959TIP3   OH230511   2.901   2.155   6.160 -0.1409  0.1460 -0.4432
 2959TIP3    H130512   2.974   2.205   6.199 -0.3263  1.1459 -1.3302
 2959TIP3    H230513   2.844   2.134   6.234  0.3508  0.5686  0.0635
 2960TIP3   OH230514   1.687   1.645   7.876 -0.1424  0.0032  0.0984
 2960TIP3    H130515   1.714   1.687   7.958  0.2582 -2.0490  1.0740
 2960TIP3    H230516   1.610   1.695   7.848  1.3817  2.5484  0.1577
 2961TIP3   OH230517   4.794   1.936   0.428 -0.7187  0.0742 -0.2461
 2961TIP3    H130518   4.773   2.024   0.397  1.1692  0.5650 -0.2721
 2961TIP3    H230519   4.868   1.908   0.375 -1.0082 -1.3815  0.0523
 2962TIP3   OH230520   6.373   5.968   0.302  0.7486  0.2238  0.2478
 2962TIP3    H130521   6.436   5.898   0.319  1.6026  0.1657 -2.5315
 2962TIP3    H230522   6.324   5.938   0.225  0.2840  2.1364 -0.2670
 2963TIP3   OH230523   1.131   5.972   8.120 -0.2590  0.4632  0.5119
 2963TIP3    H130524   1.140   5.902   8.185 -0.0972 -1.4526 -1.4418
 2963TIP3    H230525   1.042   5.963   8.087 -0.4412  1.6116  0.6649
 2964TIP3   OH230526   6.091   1.228   6.731 -0.4753  0.7107  0.0633
 2964TIP3    H130527   6.150   1.301   6.716  1.8046 -0.7246  1.5408
 2964TIP3    H230528   6.085   1.185   6.645  0.4020  1.0348 -0.1721
 2965TIP3   OH230529   2.277   1.072   0.293  0.0331  0.0628  0.1920
 2965TIP3    H130530   2.320   1.150   0.258  1.9034 -0.6160  0.8395
 2965TIP3    H230531   2.306   1.001   0.235 -0.8454 -0.3141  0.2022
 2966TIP3   OH230532   2.426   6.667   7.135 -0.0127 -0.3455 -0.0886
 2966TIP3    H130533   2.361   6.688   7.068  0.0090  0.2592  0.0791
 2966TIP3    H230534   2.443   6.574   7.123  1.6954  0.1944 -2.4290
 2967TIP3   OH230535   4.893   4.423   7.259 -0.5573 -0.4116  0.6243
 2967TIP3    H130536   4.828   4.357   7.235 -0.7571  0.1391 -0.4070
 2967TIP3    H230537   4.856   4.506   7.228  0.8145 -0.1363 -0.3620
 2968TIP3   OH230538   0.869   2.504   0.487  0.8766  0.0865  0.3566
 2968TIP3    H130539   0.780   2.539   0.480 -0.0498 -1.6491  2.3873
 2968TIP3    H230540   0.897   2.491   0.397 -0.6795  1.2165 -0.3323
 2969TIP3   OH230541   6.842   5.538   8.390 -0.3007  0.6309  0.5200
 2969TIP3    H130542   6.791   5.461   8.417 -0.0620  0.4533  0.4697
 2969TIP3    H230543   6.921   5.501   8.351 -0.5217  0.8913 -0.1822
 2970TIP3   OH230544   6.105   5.086   1.070 -0.1897  0.2125  0.1325
 2970TIP3    H130545   6.100   5.137   1.152  0.3085  1.0148 -0.3186
 2970TIP3    H230546   6.104   4.995   1.099  0.7592  0.4798  1.0989
 2971TIP3   OH230547   2.867   6.104   6.608 -0.0510  0.0261 -0.1871
 2971TIP3    H130548   2.853   6.146   6.523  0.3063 -0.3339 -0.4278
 2971TIP3    H230549   2.955   6.068   6.603  1.2260  2.6276  1.4562
 2972TIP3   OH230550   6.539   3.173   7.810 -0.3578 -0.4079  0.3815
 2972TIP3    H130551   6.477   3.105   7.784 -0.9446  0.1310  0.3161
 2972TIP3    H230552   6.526   3.184   7.904 -0.6035 -0.0685  0.3116
 2973TIP3   OH230553   2.008   0.671   0.969  0.3322 -0.6940  0.3880
 2973TIP3    H130554   2.064   0.647   1.042  0.7759 -2.1260 -0.3851
 2973TIP3    H230555   2.068   0.679   0.895 -0.3059 -0.8747 -0.1601
 2974TIP3   OH230556   1.482   0.143   7.983  0.2046 -0.0875  0.1223
 2974TIP3    H130557   1.449   0.126   7.895 -0.8075  1.6410  0.1277
 2974TIP3    H230558   1.572   0.172   7.970  0.2090 -0.2908 -0.3059
 2975TIP3   OH230559   1.154   1.465   1.597  0.3128 -0.7247 -0.0676
 2975TIP3    H130560   1.169   1.434   1.687 -2.1603  1.9315  1.4266
 2975TIP3    H230561   1.157   1.560   1.604 -0.0729 -0.4391 -2.8188
 2976TIP3   OH230562   4.976   3.758   2.208 -0.4914  0.1809  0.8574
 2976TIP3    H130563   4.909   3.690   2.202 -1.5965  1.3016  0.0741
 2976TIP3    H230564   4.936   3.827   2.260  0.0741  0.8374  0.4472
 2977TIP3   OH230565   1.492   6.320   7.869 -0.0098 -0.1923  0.2232
 2977TIP3    H130566   1.546   6.331   7.790 -0.7102 -0.4624 -0.3002
 2977TIP3    H230567   1.459   6.408   7.888 -1.6632 -0.4769 -1.1176
 2978TIP3   OH230568   5.548   6.007   6.297  0.1330 -0.2281  0.1327
 2978TIP3    H130569   5.461   6.041   6.317 -0.3222 -0.1455 -1.7881
 2978TIP3    H230570   5.608   6.077   6.323 -0.6356  1.1281 -1.5361
 2979TIP3   OH230571   5.224   2.846   1.466 -0.0043 -0.6331 -0.0098
 2979TIP3    H130572   5.286   2.840   1.394  2.1192 -0.9254  1.7521
 2979TIP3    H230573   5.218   2.940   1.486  0.1606 -0.6407  0.0715
 2980TIP3   OH230574   0.757   5.323   8.304  0.3977  0.1535  0.2197
 2980TIP3    H130575   0.784   5.334   8.395  0.8613  0.2426  0.0732
 2980TIP3    H230576   0.662   5.309   8.309  0.3184  0.7745  0.6734
 2981TIP3   OH230577   0.046   5.371   0.529  0.3635  0.1266 -0.2560
 2981TIP3    H130578   0.094   5.344   0.606  1.9379 -0.1196 -1.2865
 2981TIP3    H230579   0.011   5.290   0.492  0.9444  0.0462 -0.6478
 2982TIP3   OH230580   1.956   2.800   0.293  0.4223 -0.3812  0.3027
 2982TIP3    H130581   1.905   2.804   0.212  0.4065  1.4003  0.3534
 2982TIP3    H230582   2.045   2.780   0.264  0.7172  1.6228 -0.3626
 2983TIP3   OH230583   4.206   4.550   8.357  0.1305  0.4228 -0.3633
 2983TIP3    H130584   4.260   4.607   8.302  0.5819  0.9906  0.6388
 2983TIP3    H230585   4.268   4.507   8.415  0.1133 -2.9614 -2.6046
 2984TIP3   OH230586   3.685   6.110   8.560  0.2034  0.0237 -0.4071
 2984TIP3    H130587   3.669   6.026   8.517  0.2827  0.6407 -1.6780
 2984TIP3    H230588   3.603   6.130   8.604 -0.1010 -0.3155 -0.8068
 2985TIP3   OH230589   1.247   3.457   0.288  0.4076 -0.4260 -0.0454
 2985TIP3    H130590   1.181   3.525   0.273  0.3162 -0.0863  1.7087
 2985TIP3    H230591   1.198   3.380   0.315  0.6717 -0.3441  0.6993
 2986TIP3   OH230592   4.416   1.797   7.712 -0.3927 -0.1854 -0.5801
 2986TIP3    H130593   4.397   1.743   7.635  1.2250 -1.2253 -0.3095
 2986TIP3    H230594   4.359   1.873   7.703 -1.4940 -1.1192 -1.8903
 2987TIP3   OH230595   1.372   2.209   1.434 -0.1489 -0.2462  0.0738
 2987TIP3    H130596   1.355   2.207   1.529 -1.4846 -0.5087 -0.1551
 2987TIP3    H230597   1.354   2.120   1.405  1.3434 -0.4644 -0.2808
 2988TIP3   OH230598   2.785   2.797   1.663  0.3468 -0.0850  0.2384
 2988TIP3    H130599   2.861   2.821   1.611  0.8627 -0.8395  0.6249
 2988TIP3    H230600   2.783   2.861   1.734  1.0536 -0.4795  0.6318
 2989TIP3   OH230601   0.708   2.139   7.970 -0.3515  0.4770 -0.1934
 2989TIP3    H130602   0.655   2.217   7.952 -1.5608 -0.2503  0.1458
 2989TIP3    H230603   0.724   2.101   7.883 -1.7403 -0.1554 -0.1973
 2990TIP3   OH230604   3.839   5.005   7.188 -0.5630 -0.0313  0.2220
 2990TIP3    H130605   3.891   5.048   7.120 -0.3843 -1.1664 -0.3732
 2990TIP3    H230606   3.748   5.016   7.160 -0.5894  0.7683  0.5712
 2991TIP3   OH230607   3.151   5.798   0.441 -0.3735  0.4099 -0.1545
 2991TIP3    H130608   3.102   5.869   0.399 -0.4830  0.1238 -0.5128
 2991TIP3    H230609   3.187   5.747   0.368 -2.6039 -1.5441  0.0148
 2992TIP3   OH230610   2.312   2.868   1.069  0.2390  0.9659  0.4412
 2992TIP3    H130611   2.284   2.884   1.159 -4.0036 -0.3229 -0.4251
 2992TIP3    H230612   2.370   2.792   1.074 -0.3760  0.5747  2.0764
 2993TIP3   OH230613   1.239   6.866   8.372 -0.5163 -0.3296  0.6280
 2993TIP3    H130614   1.197   6.923   8.308 -2.1915 -1.2415  0.8762
 2993TIP3    H230615   1.283   6.799   8.319 -0.8931 -0.4032  0.4069
 2994TIP3   OH230616   1.841   1.402   1.107  0.4926 -0.1638  0.0597
 2994TIP3    H130617   1.920   1.439   1.067 -0.7062  1.3317 -1.0548
 2994TIP3    H230618   1.823   1.460   1.181 -0.5212  0.5753 -0.7486
 2995TIP3   OH230619   5.565   1.876   0.437  0.6198  0.0389  0.1152
 2995TIP3    H130620   5.552   1.792   0.393 -0.2012  0.5025 -0.5474
 2995TIP3    H230621   5.551   1.941   0.369 -1.8987  0.8354  1.2972
 2996TIP3   OH230622   5.403   2.642   8.252 -0.1587 -0.4737 -0.6939
 2996TIP3    H130623   5.404   2.730   8.216  2.5455 -0.0969  0.1003
 2996TIP3    H230624   5.495   2.617   8.258 -0.5124 -1.5423  3.2780
 2997TIP3   OH230625   4.502   2.513   8.496 -0.3471  0.2976  0.9277
 2997TIP3    H130626   4.572   2.578   8.502  0.0150 -0.1884  2.3415
 2997TIP3    H230627   4.448   2.543   8.423  0.7758  1.2250  0.4351
 2998TIP3   OH230628   5.910   4.504   0.199  0.1619 -0.0825 -0.2334
 2998TIP3    H130629   5.955   4.588   0.200  1.3457 -0.6855 -0.6878
 2998TIP3    H230630   5.833   4.517   0.254 -0.5693  1.7732 -1.5938
 2999TIP3   OH230631   3.291   5.490   1.122 -0.4991  0.2599 -0.1977
 2999TIP3    H130632   3.312   5.504   1.214 -1.0754  1.6899 -0.2563
 2999TIP3    H230633   3.376   5.490   1.078 -0.2851  0.6106  0.2097
 3000TIP3   OH230634   5.787   3.115   0.211 -0.0722 -0.0272 -0.2773
 3000TIP3    H130635   5.831   3.163   0.140  0.1988  0.6209  0.3208
 3000TIP3    H230636   5.709   3.079   0.170 -0.0694  0.5907 -0.8427
 3001TIP3   OH230637   6.387   3.764   7.599  0.4938 -0.5049  0.0494
 3001TIP3    H130638   6.403   3.722   7.515 -2.1105 -0.8949 -0.3490
 3001TIP3    H230639   6.366   3.691   7.658 -0.6870 -0.0491  0.2225
 3002TIP3   OH230640   2.608   1.248   7.982 -0.3921  0.2669 -0.0660
 3002TIP3    H130641   2.540   1.190   7.948 -0.3656  0.9117 -1.2728
 3002TIP3    H230642   2.687   1.193   7.982 -1.1412 -1.0129  2.9170
 3003TIP3   OH230643   6.372   6.599   8.104 -0.0286 -0.4046  0.1036
 3003TIP3    H130644   6.303   6.538   8.077 -1.2655 -0.1088  2.3345
 3003TIP3    H230645   6.352   6.679   8.055 -0.6091 -0.6627 -0.1007
 3004TIP3   OH230646   5.898   0.516   7.064 -0.0740  0.0679  0.6631
 3004TIP3    H130647   5.857   0.435   7.035 -0.1644 -0.2161  1.5595
 3004TIP3    H230648   5.869   0.527   7.154 -1.5626  2.0832 -0.0089
 3005TIP3   OH230649   4.040   3.080   0.922 -0.4396 -0.3332 -0.2580
 3005TIP3    H130650   4.018   3.119   1.007 -0.5877 -0.6116 -0.1680
 3005TIP3    H230651   4.134   3.098   0.911  0.1448 -2.2315  1.0203
 3006TIP3   OH230652   0.646   5.209   8.017 -0.2589 -0.0634  0.2171
 3006TIP3    H130653   0.579   5.275   8.034  0.5031  0.4913  1.1630
 3006TIP3    H230654   0.627   5.139   8.079 -0.1902 -0.0789  0.2209
 3007TIP3   OH230655   3.224   1.513   7.198 -0.4616  0.6811 -0.4492
 3007TIP3    H130656   3.163   1.493   7.269  0.6222 -0.1143  0.2848
 3007TIP3    H230657   3.300   1.551   7.241 -0.3985  1.6394 -1.3548
 3008TIP3   OH230658   2.401   5.075   8.047 -0.4631  0.7504 -0.2469
 3008TIP3    H130659   2.384   5.168   8.065  0.9382  0.6249  2.0163
 3008TIP3    H230660   2.406   5.034   8.133 -5.0898 -2.3245 -1.0646
 3009TIP3   OH230661   5.566   5.688   8.329 -1.0324  0.8378 -0.5670
 3009TIP3    H130662   5.606   5.649   8.251 -0.8404  1.9444 -1.0388
 3009TIP3    H230663   5.492   5.739   8.295 -1.7122  0.3275  0.1117
 3010TIP3   OH230664   1.958   6.684   1.721  0.1423  0.7432 -0.6111
 3010TIP3    H130665   1.863   6.695   1.716 -0.4625 -2.0712  1.8128
 3010TIP3    H230666   1.987   6.758   1.775 -1.3845 -0.4889  2.1221
 3011TIP3   OH230667   3.924   0.618   6.683 -0.7051 -0.1707  0.4898
 3011TIP3    H130668   3.987   0.685   6.710 -0.2293 -0.6052  0.4760
 3011TIP3    H230669   3.841   0.646   6.721 -0.4103  0.1767  0.8839
 3012TIP3   OH230670   3.508   2.311   7.511 -0.1874 -0.5323 -0.0014
 3012TIP3    H130671   3.445   2.383   7.505  0.5795  0.1528  0.0163
 3012TIP3    H230672   3.454   2.232   7.507 -0.9549  0.0180 -1.1144
 3013TIP3   OH230673   4.380   3.180   7.325  0.8200  0.2907 -0.3043
 3013TIP3    H130674   4.406   3.264   7.364  0.7105  0.5684 -0.8110
 3013TIP3    H230675   4.424   3.179   7.240  2.2572 -0.9846  0.4228
 3014TIP3   OH230676   1.206   6.236   7.227 -0.5228 -0.0881  0.0155
 3014TIP3    H130677   1.226   6.176   7.299  1.5075  0.5773  0.0599
 3014TIP3    H230678   1.271   6.306   7.235 -2.5402  1.9579 -0.2712
 3015TIP3   OH230679   4.286   2.295   7.727  0.1912  0.4078  0.1756
 3015TIP3    H130680   4.311   2.318   7.638  1.2295 -0.3866  0.2371
 3015TIP3    H230681   4.197   2.328   7.737  0.0415  0.4496 -1.1745
 3016TIP3   OH230682   5.868   2.722   8.254  0.4125 -0.2204  0.2748
 3016TIP3    H130683   5.929   2.664   8.208 -0.4306 -0.0533 -1.1240
 3016TIP3    H230684   5.915   2.805   8.261  0.8986 -0.5182  0.5263
 3017TIP3   OH230685   2.751   2.067   5.947 -0.1390  0.7733  0.5050
 3017TIP3    H130686   2.787   2.100   6.029  0.7581 -1.3307  1.0448
 3017TIP3    H230687   2.796   1.983   5.934  1.0103  1.7853 -3.0457
 3018TIP3   OH230688   2.406   0.772   6.095  0.2135  0.2857 -0.1711
 3018TIP3    H130689   2.398   0.816   6.180 -2.7364 -0.6902  0.1746
 3018TIP3    H230690   2.403   0.844   6.031 -1.0441  0.8677  0.4910
 3019TIP3   OH230691   0.684   6.360   8.557 -0.1264  0.3396  0.0995
 3019TIP3    H130692   0.723   6.275   8.534 -1.6564 -0.5876  0.7482
 3019TIP3    H230693   0.739   6.393   8.628  1.6666  0.8685 -1.4654
 3020TIP3   OH230694   1.315   0.980   1.089 -0.5524  0.3063  0.7165
 3020TIP3    H130695   1.401   0.955   1.122 -0.2485  0.3791 -0.0015
 3020TIP3    H230696   1.308   0.935   1.005 -1.7546 -0.7324  1.3526
 3021TIP3   OH230697   2.882   4.865   0.902 -0.2412 -0.0605 -0.2348
 3021TIP3    H130698   2.958   4.842   0.955  0.4347  0.4694 -0.9525
 3021TIP3    H230699   2.810   4.818   0.942  0.0079  1.2340  1.8757
 3022TIP3   OH230700   2.752   4.001   2.152 -0.0688 -0.5763  0.1842
 3022TIP3    H130701   2.747   3.908   2.129 -0.2472 -0.1913 -1.4511
 3022TIP3    H230702   2.840   4.011   2.188 -0.4167 -1.5683  1.4073
 3023TIP3   OH230703   3.786   4.069   8.171 -0.6545 -0.2625 -1.0050
 3023TIP3    H130704   3.788   4.161   8.147  0.4018 -0.2586 -0.9832
 3023TIP3    H230705   3.788   4.022   8.088 -0.4909 -0.2606 -1.0025
 3024TIP3   OH230706   2.876   4.330   8.394 -0.4332  0.2719  0.0457
 3024TIP3    H130707   2.966   4.313   8.423 -1.8586 -2.8214  3.3813
 3024TIP3    H230708   2.842   4.392   8.458 -1.0621  0.5067 -0.5045
 3025TIP3   OH230709   3.061   3.242   8.246 -0.4521  0.0826 -0.3849
 3025TIP3    H130710   3.090   3.281   8.163  0.6737  0.4133  0.1453
 3025TIP3    H230711   2.975   3.206   8.226 -0.9161  1.5686 -1.2857
 3026TIP3   OH230712   5.212   5.990   7.078  0.9965 -0.1712 -0.5148
 3026TIP3    H130713   5.190   6.038   7.157 -0.5872 -0.4442 -0.7499
 3026TIP3    H230714   5.222   5.899   7.106 -2.8097 -0.9206 -0.9612
 3027TIP3   OH230715   4.576   1.518   0.911 -0.4719  0.2798  0.2930
 3027TIP3    H130716   4.608   1.521   0.821 -1.6833  0.9800 -0.1323
 3027TIP3    H230717   4.482   1.533   0.904 -0.6776 -0.2016  1.6368
 3028TIP3   OH230718   0.556   3.631   7.764  0.5025 -0.0324  0.5399
 3028TIP3    H130719   0.547   3.723   7.739 -1.5746 -0.2918  0.2203
 3028TIP3    H230720   0.613   3.594   7.696  0.4200  0.7471  0.0238
 3029TIP3   OH230721   5.951   3.819   1.811  0.2505 -0.1265 -0.0906
 3029TIP3    H130722   5.996   3.844   1.892 -1.2361  1.2380  0.3748
 3029TIP3    H230723   5.905   3.738   1.833 -1.4176  1.0504  0.9796
 3030TIP3   OH230724   6.393   0.735   7.229  0.2756 -0.3537 -0.5762
 3030TIP3    H130725   6.434   0.763   7.148 -1.6409 -0.3553 -1.6174
 3030TIP3    H230726   6.326   0.802   7.246  0.3172 -0.6192  0.7341
 3031TIP3   OH230727   0.405   3.817   7.186 -0.1511  0.0578 -0.7011
 3031TIP3    H130728   0.326   3.868   7.168 -0.1171  0.1003 -0.7290
 3031TIP3    H230729   0.372   3.732   7.217 -0.2060  0.2935 -0.1100
 3032TIP3   OH230730   1.038   6.516   7.807  0.2659  0.9380 -0.1386
 3032TIP3    H130731   1.060   6.434   7.852 -1.8056  0.1168 -0.4865
 3032TIP3    H230732   1.050   6.584   7.873  0.7560  0.1832  0.5603
 3033TIP3   OH230733   4.768   0.962   0.907  0.0781 -0.1973 -0.3151
 3033TIP3    H130734   4.831   1.034   0.910  0.4402 -0.5117 -0.0260
 3033TIP3    H230735   4.689   0.999   0.870  0.6388  0.0563 -1.2878
 3034TIP3   OH230736   2.075   3.731   1.487 -0.3861  0.1634 -0.4001
 3034TIP3    H130737   2.014   3.683   1.543 -0.2688  0.3522 -0.1154
 3034TIP3    H230738   2.158   3.731   1.535 -0.4705  0.9533 -0.2428
 3035TIP3   OH230739   3.215   1.243   6.652 -0.0009 -1.2497 -0.3059
 3035TIP3    H130740   3.224   1.159   6.607  0.4433 -1.0957 -0.5179
 3035TIP3    H230741   3.155   1.293   6.597 -0.5741 -1.5625  0.0270
 3036TIP3   OH230742   0.802   2.982   7.025  0.4398  0.0773  0.5383
 3036TIP3    H130743   0.828   2.954   6.937  1.5044  3.5292 -0.3994
 3036TIP3    H230744   0.880   2.969   7.079  1.1002  1.5969 -0.0138
 3037TIP3   OH230745   5.865   5.328   7.715 -0.5641  0.2603  0.0589
 3037TIP3    H130746   5.804   5.289   7.777  0.1634  1.7410  1.7976
 3037TIP3    H230747   5.837   5.419   7.706 -0.7139  0.0737 -1.9282
 3038TIP3   OH230748   6.008   2.204   0.900 -0.9032 -0.4577 -0.2166
 3038TIP3    H130749   6.085   2.202   0.843 -1.0827  0.1313 -0.4837
 3038TIP3    H230750   6.043   2.222   0.987 -0.5893 -1.7355 -0.0636
 3039TIP3   OH230751   0.647   1.115   7.849  0.2418  0.1997  0.3719
 3039TIP3    H130752   0.691   1.155   7.774  0.6562 -0.1981  0.3920
 3039TIP3    H230753   0.708   1.128   7.922 -0.9575  2.2227  1.0934
 3040TIP3   OH230754   4.257   2.368   1.672 -0.2159  0.4112 -0.4202
 3040TIP3    H130755   4.177   2.342   1.626 -1.0205  1.8100  0.1214
 3040TIP3    H230756   4.292   2.286   1.707 -1.0648 -0.3089 -1.1805
 3041TIP3   OH230757   2.015   3.936   0.262  0.4884  0.1660 -0.1333
 3041TIP3    H130758   1.941   3.903   0.211  1.4924 -0.3727 -1.2954
 3041TIP3    H230759   2.044   3.860   0.314  1.9260 -0.4658 -1.7654
 3042TIP3   OH230760   2.547   2.996   0.953  0.0636 -0.4021  0.0426
 3042TIP3    H130761   2.480   2.928   0.960 -0.6830  0.2714 -0.4982
 3042TIP3    H230762   2.527   3.057   1.025 -0.2216  0.0725 -0.4363
 3043TIP3   OH230763   3.550   5.448   8.087  0.2983 -0.0136  0.0031
 3043TIP3    H130764   3.587   5.365   8.118  1.1581  0.5387  0.4917
 3043TIP3    H230765   3.477   5.422   8.031  0.1837 -1.0862  0.6212
 3044TIP3   OH230766   6.393   0.524   8.044  0.0154  0.0931 -0.2618
 3044TIP3    H130767   6.414   0.472   8.121 -0.5609 -2.1639 -1.5431
 3044TIP3    H230768   6.478   0.543   8.004  0.1672 -0.9855 -0.4672
 3045TIP3   OH230769   2.956   1.510   0.030 -0.0759  0.2286 -0.2681
 3045TIP3    H130770   2.893   1.574   0.062 -1.2737 -1.1202  0.2096
 3045TIP3    H230771   3.027   1.512   0.094 -0.3056  0.7773 -0.0233
 3046TIP3   OH230772   4.013   1.109   0.265 -0.1695 -0.0609 -0.1639
 3046TIP3    H130773   3.997   1.014   0.271 -0.7438 -0.0737 -1.4711
 3046TIP3    H230774   3.959   1.146   0.335  0.5914 -0.7240  0.8146
 3047TIP3   OH230775   2.412   6.524   0.368  0.3255 -0.2857  0.6832
 3047TIP3    H130776   2.364   6.472   0.433 -0.1462 -0.6975  0.0210
 3047TIP3    H230777   2.359   6.517   0.288  0.5296  0.7933  0.4415
 3048TIP3   OH230778   1.890   0.843   6.293 -0.2422 -0.8697  0.2735
 3048TIP3    H130779   1.975   0.807   6.320  0.7431  2.0931  1.4902
 3048TIP3    H230780   1.881   0.817   6.201  3.7193  1.5315 -1.0211
 3049TIP3   OH230781   6.070   3.483   8.178  0.3509 -0.4864  0.7683
 3049TIP3    H130782   6.165   3.488   8.173  0.3307  1.7039  1.2912
 3049TIP3    H230783   6.050   3.479   8.271 -0.0730  0.3199  0.7231
 3050TIP3   OH230784   2.173   5.136   8.641 -0.0977 -0.2329 -0.5082
 3050TIP3    H130785   2.179   5.218   8.691  0.5244 -0.7398  0.2634
 3050TIP3    H230786   2.227   5.152   8.563 -0.4087  0.2751 -0.6249
 3051TIP3   OH230787   6.469   5.395   0.879  0.3644 -0.2559 -0.4871
 3051TIP3    H130788   6.422   5.322   0.921  0.2816  0.4395  0.6764
 3051TIP3    H230789   6.405   5.435   0.820 -0.2395  0.1197  0.4026
 3052TIP3   OH230790   1.619   3.464   1.236  0.0376  0.0792 -0.4358
 3052TIP3    H130791   1.713   3.456   1.255  0.3460 -0.5780 -2.1178
 3052TIP3    H230792   1.576   3.406   1.298  0.8298 -0.4353 -0.3658
 3053TIP3   OH230793   2.169   0.777   2.575 -0.2420 -0.1481 -0.0924
 3053TIP3    H130794   2.175   0.685   2.550 -0.8294 -0.4174  0.7361
 3053TIP3    H230795   2.198   0.779   2.666 -0.6825  0.4165  0.0413
 3054TIP3   OH230796   6.256   2.159   0.130  0.6150 -0.4150  0.3180
 3054TIP3    H130797   6.198   2.154   0.206  1.9123  0.1671  1.4053
 3054TIP3    H230798   6.199   2.181   0.057 -0.3929  1.2752  1.5434
 3055TIP3   OH230799   3.099   4.422   7.510 -0.1599  0.0095  0.6908
 3055TIP3    H130800   3.059   4.394   7.593 -0.1303  1.5655  1.2565
 3055TIP3    H230801   3.191   4.395   7.518 -0.7620 -2.6483 -0.1875
 3056TIP3   OH230802   5.996   4.230   0.611 -0.1121 -0.2785  0.0144
 3056TIP3    H130803   6.090   4.245   0.618 -0.1470 -0.0455  0.0126
 3056TIP3    H230804   5.977   4.168   0.682 -0.1297  0.5216  0.7364
 3057TIP3   OH230805   6.769   4.935   1.469  0.0932  0.1838  0.2741
 3057TIP3    H130806   6.808   5.011   1.426 -1.8141  0.4077 -1.2047
 3057TIP3    H230807   6.755   4.872   1.398  2.5463 -2.0444  1.6069
 3058TIP3   OH230808   0.181   5.449   6.706 -0.2314 -0.2567 -0.0842
 3058TIP3    H130809   0.197   5.406   6.622  1.2430 -2.7272  1.3204
 3058TIP3    H230810   0.232   5.398   6.769  0.7162  2.9280  1.9949
 3059TIP3   OH230811   4.046   6.641   0.194 -0.1702  0.1712  0.2304
 3059TIP3    H130812   4.019   6.550   0.208 -0.6420  0.5530  1.9219
 3059TIP3    H230813   4.109   6.659   0.263  0.6945  0.8488 -0.6937
 3060TIP3   OH230814   0.441   5.816   8.526  0.3312 -0.0351 -0.6190
 3060TIP3    H130815   0.403   5.741   8.481  2.6337 -1.7791  0.1397
 3060TIP3    H230816   0.379   5.887   8.511 -1.7268 -1.9503 -1.7600
 3061TIP3   OH230817   3.073   2.122   0.734 -0.3400 -0.7433 -0.3112
 3061TIP3    H130818   3.042   2.130   0.644  1.0897  3.1870 -0.7011
 3061TIP3    H230819   3.168   2.135   0.727 -0.3664  1.2080  1.7752
 3062TIP3   OH230820   4.073   2.776   8.644 -0.5801  0.2784  0.1955
 3062TIP3    H130821   4.083   2.719   8.720  2.6072  2.4114  1.5690
 3062TIP3    H230822   4.007   2.840   8.670  0.3142  0.8447  1.1360
 3063TIP3   OH230823   3.413   0.358   1.227  0.6755  0.2739  0.4321
 3063TIP3    H130824   3.337   0.416   1.229 -0.3512 -0.9410 -0.8966
 3063TIP3    H230825   3.465   0.388   1.154  0.7234  0.2212  0.4446
 3064TIP3   OH230826   5.906   6.047   6.832 -0.0634 -0.5597 -0.3070
 3064TIP3    H130827   5.841   6.037   6.763 -0.5604  0.0882  0.0652
 3064TIP3    H230828   5.947   6.132   6.815  0.2659 -0.6869 -0.1756
 3065TIP3   OH230829   0.714   2.460   0.119  0.1977 -0.0143 -0.0818
 3065TIP3    H130830   0.750   2.375   0.147 -0.2663  0.7102  3.0367
 3065TIP3    H230831   0.628   2.464   0.159  0.3945  2.1294  0.2405
 3066TIP3   OH230832   0.316   3.601   0.357  0.1934 -0.2661  0.7746
 3066TIP3    H130833   0.376   3.531   0.333  0.3466 -0.0665  0.5690
 3066TIP3    H230834   0.284   3.577   0.444  2.3039  0.7447  1.9137
 3067TIP3   OH230835   6.035   3.484   0.230 -0.2475  0.2906 -0.4665
 3067TIP3    H130836   6.018   3.552   0.296 -2.0014  0.4089 -0.9691
 3067TIP3    H230837   6.035   3.532   0.147 -0.5652 -0.1832 -0.7450
 3068TIP3   OH230838   5.903   2.507   0.711 -0.1178 -0.6705  0.0208
 3068TIP3    H130839   5.936   2.434   0.657  1.2601  0.1806 -0.3556
 3068TIP3    H230840   5.957   2.504   0.790 -1.1986 -1.0614  0.7664
 3069TIP3   OH230841   6.868   1.760   8.154  0.2868  0.6739 -0.2362
 3069TIP3    H130842   6.864   1.747   8.059  0.0978  0.3052 -0.1788
 3069TIP3    H230843   6.876   1.672   8.190 -1.3807  0.6508  0.1762
 3070TIP3   OH230844   0.536   4.585   0.627 -0.3065 -0.2640 -0.4355
 3070TIP3    H130845   0.539   4.538   0.544  0.0066  0.7783 -1.0297
 3070TIP3    H230846   0.624   4.575   0.664 -0.6612 -1.3687  0.1535
 3071TIP3   OH230847   0.570   2.378   2.198  0.1942  0.1853 -0.0599
 3071TIP3    H130848   0.507   2.330   2.146  0.6516  0.6777 -1.0875
 3071TIP3    H230849   0.646   2.321   2.203  0.4090  0.4300 -0.5266
 3072TIP3   OH230850   2.493   3.012   2.036  0.1787 -0.3610  0.3931
 3072TIP3    H130851   2.548   3.089   2.025 -0.9497  0.1817 -2.2875
 3072TIP3    H230852   2.460   3.019   2.126  2.6644  0.4382  1.3374
 3073TIP3   OH230853   3.824   4.551   7.704  0.1733  0.4011 -0.5388
 3073TIP3    H130854   3.873   4.535   7.785  0.9100  1.3198 -0.7902
 3073TIP3    H230855   3.780   4.635   7.719  0.4883  0.6853 -1.1692
 3074TIP3   OH230856   2.054   4.172   0.865  0.5541  0.0479 -0.0326
 3074TIP3    H130857   1.968   4.211   0.880  1.0180  1.4596 -0.8056
 3074TIP3    H230858   2.056   4.095   0.921 -0.7108  0.7245  0.9995
 3075TIP3   OH230859   3.509   4.655   7.003  0.0015  0.0734  0.1460
 3075TIP3    H130860   3.443   4.592   7.033 -0.0029  0.1474  0.2904
 3075TIP3    H230861   3.531   4.625   6.915 -2.0844  1.5121 -0.9536
 3076TIP3   OH230862   4.115   1.276   2.390 -0.0085  0.5952  0.3036
 3076TIP3    H130863   4.137   1.188   2.423  1.5136  0.7579 -0.1993
 3076TIP3    H230864   4.101   1.328   2.469  1.2667  0.4183  0.6600
 3077TIP3   OH230865   2.714   4.041   7.838  0.3775 -0.5775 -0.2477
 3077TIP3    H130866   2.745   3.967   7.891  2.4565  0.3189 -0.1263
 3077TIP3    H230867   2.781   4.052   7.771 -0.2195  0.8034 -0.6535
 3078TIP3   OH230868   4.150   3.625   8.210 -0.1427  0.2363 -0.2730
 3078TIP3    H130869   4.085   3.692   8.187  0.0023  1.0832  1.5925
 3078TIP3    H230870   4.234   3.670   8.202 -0.1059  0.7666  2.2405
 3079TIP3   OH230871   4.804   5.032   7.327 -0.2020 -0.0668 -0.6344
 3079TIP3    H130872   4.710   5.048   7.324 -0.3364 -0.9692 -3.0469
 3079TIP3    H230873   4.833   5.038   7.236  1.9146 -0.8011 -0.0708
 3080TIP3   OH230874   4.765   2.643   1.794  0.0979  0.5315 -0.0276
 3080TIP3    H130875   4.696   2.706   1.774 -2.6018 -1.5675  1.8732
 3080TIP3    H230876   4.772   2.645   1.889  0.4664 -1.4281  0.0274
 3081TIP3   OH230877   6.724   3.373   7.999 -0.0456  0.1667 -0.0221
 3081TIP3    H130878   6.813   3.406   8.010  1.1962 -2.5248 -0.9837
 3081TIP3    H230879   6.703   3.393   7.908 -0.7012  1.3131  0.3630
 3082TIP3   OH230880   5.141   0.985   2.060  0.1551  0.3056 -0.5311
 3082TIP3    H130881   5.062   1.039   2.070 -0.5736 -0.4752 -1.8258
 3082TIP3    H230882   5.115   0.899   2.093  0.5253  0.0878 -0.8008
 3083TIP3   OH230883   1.413   4.237   8.667  0.4089 -0.5212 -0.4092
 3083TIP3    H130884   1.459   4.319   8.652  2.9523 -2.1436 -2.4299
 3083TIP3    H230885   1.334   4.243   8.612 -1.0959  1.6168  1.7790
 3084TIP3   OH230886   0.114   1.822   7.548  0.1816 -0.4302  0.2812
 3084TIP3    H130887   0.096   1.732   7.575  0.4766 -0.5021  0.2458
 3084TIP3    H230888   0.053   1.876   7.598 -0.5573 -0.7171 -0.2920
 3085TIP3   OH230889   3.193   0.405   0.028  0.3933  0.1430 -0.6198
 3085TIP3    H130890   3.149   0.376  -0.052 -1.3899  1.0733 -0.0553
 3085TIP3    H230891   3.166   0.342   0.095  2.0070 -0.7238 -0.7489
 3086TIP3   OH230892   0.233   4.742   1.487  0.7818  0.2600 -0.8819
 3086TIP3    H130893   0.162   4.739   1.423  0.3945  0.4862 -0.4694
 3086TIP3    H230894   0.311   4.719   1.437  0.1843 -1.6341 -1.0130
 3087TIP3   OH230895   2.454   2.900   7.809  0.4750  0.0699  0.3701
 3087TIP3    H130896   2.458   2.836   7.738  0.8448  1.3577 -0.8192
 3087TIP3    H230897   2.462   2.985   7.765 -1.2237  1.0161  1.7627
 3088TIP3   OH230898   2.937   0.077   0.013  0.0039  0.1472  0.4211
 3088TIP3    H130899   2.977   0.117   0.090  0.9698  2.1248 -1.0185
 3088TIP3    H230900   2.886   0.148  -0.027 -1.0943 -1.0434 -0.3514
 3089TIP3   OH230901   2.026   2.096   0.578 -0.4714 -0.1846  0.0497
 3089TIP3    H130902   1.952   2.035   0.580 -1.8805  1.4890  2.1247
 3089TIP3    H230903   2.005   2.157   0.508 -0.7625 -0.0649  0.2404
 3090TIP3   OH230904   6.411   0.907   0.726 -0.5592 -0.2356  0.1048
 3090TIP3    H130905   6.365   0.962   0.663  0.1088  1.4394  1.0318
 3090TIP3    H230906   6.422   0.962   0.804  2.7723 -0.5899  0.0289
 3091TIP3   OH230907   2.591   4.768   1.927 -0.0206  0.0681 -0.3133
 3091TIP3    H130908   2.555   4.857   1.927  2.0816  1.0059  0.3228
 3091TIP3    H230909   2.660   4.771   1.860  0.8369 -0.7052  0.5033
 3092TIP3   OH230910   1.144   0.333   0.600 -0.5461 -0.4380 -0.0755
 3092TIP3    H130911   1.087   0.375   0.535 -2.6693 -0.1043  1.8806
 3092TIP3    H230912   1.214   0.397   0.615 -0.6038 -0.0825 -1.2264
 3093TIP3   OH230913   0.448   4.518   7.922  0.0399 -0.4225  0.3955
 3093TIP3    H130914   0.396   4.579   7.869  0.9941  0.3978  0.3732
 3093TIP3    H230915   0.473   4.449   7.861 -0.6206 -0.5865  0.2984
 3094TIP3   OH230916   2.166   6.102   7.332 -0.2130 -0.1268 -0.0621
 3094TIP3    H130917   2.123   6.151   7.261 -0.5428  0.9137  0.8155
 3094TIP3    H230918   2.109   6.117   7.408  0.5284 -0.5888  0.5967
 3095TIP3   OH230919   2.166   1.582   6.690  0.5028  0.5402 -0.4178
 3095TIP3    H130920   2.080   1.563   6.653  0.7734 -0.1681 -0.6910
 3095TIP3    H230921   2.211   1.632   6.622  0.3547  0.8025 -0.3247
 3096TIP3   OH230922   0.122   0.217   1.611  0.0986 -0.0594 -0.3847
 3096TIP3    H130923   0.215   0.215   1.632  0.4551  4.2605 -0.7040
 3096TIP3    H230924   0.079   0.179   1.688  2.0314  0.1213  0.8370
 3097TIP3   OH230925   6.357   1.024   6.784 -0.2819  0.1624 -0.0468
 3097TIP3    H130926   6.312   0.997   6.864  1.1797 -0.4880  0.5894
 3097TIP3    H230927   6.401   0.944   6.753  2.3317  1.2272  0.6603
 3098TIP3   OH230928   3.014   3.157   7.923  0.2301  0.2882 -0.9099
 3098TIP3    H130929   3.064   3.077   7.907  1.0857  0.7052 -0.3732
 3098TIP3    H230930   2.954   3.133   7.994 -2.2716 -1.0036 -3.2465
 3099TIP3   OH230931   1.810   5.400   0.451  0.2773 -0.2761 -0.2638
 3099TIP3    H130932   1.849   5.315   0.474 -2.1142 -0.7477  2.6098
 3099TIP3    H230933   1.738   5.378   0.392  1.5963  0.1495 -2.0922
 3100TIP3   OH230934   2.909   5.916   0.724 -0.0616  0.0056  0.0310
 3100TIP3    H130935   2.839   5.980   0.740  0.2696  0.7236 -1.2647
 3100TIP3    H230936   2.878   5.866   0.648 -0.3072 -1.3942  1.0170
 3101TIP3   OH230937   2.191   4.921   6.187  0.1263  0.2966 -0.0496
 3101TIP3    H130938   2.119   4.887   6.134 -2.1115  0.4789  2.6576
 3101TIP3    H230939   2.225   4.844   6.233  1.8574  0.1861 -1.3901
 3102TIP3   OH230940   3.789   1.718   8.670 -0.3610  0.4003  0.1834
 3102TIP3    H130941   3.816   1.634   8.635 -0.0681  0.4022  0.3960
 3102TIP3    H230942   3.856   1.739   8.736 -0.5765  0.6708  0.3191
 3103TIP3   OH230943   6.896   3.621   1.423  0.4367 -0.2100 -0.2859
 3103TIP3    H130944   6.980   3.631   1.379  2.4230  1.1180  3.3865
 3103TIP3    H230945   6.871   3.711   1.446 -0.2548 -0.8543  1.6199
 3104TIP3   OH230946   1.411   0.173   6.656 -0.0204  0.2842 -0.1793
 3104TIP3    H130947   1.400   0.265   6.633 -0.4330  0.3769  0.3452
 3104TIP3    H230948   1.418   0.128   6.572  1.6123  0.9413 -0.4230
 3105TIP3   OH230949   2.217   0.566   7.754 -0.3614  0.6884  0.2533
 3105TIP3    H130950   2.186   0.489   7.802 -0.6315  0.2002 -0.6670
 3105TIP3    H230951   2.273   0.612   7.816 -1.1245  0.3754  1.2108
 3106TIP3   OH230952   5.678   1.285   1.596  0.4095 -0.1486  0.5760
 3106TIP3    H130953   5.653   1.348   1.664  0.3758  1.6874 -1.0577
 3106TIP3    H230954   5.727   1.336   1.532 -0.8363 -1.4641 -1.5518
 3107TIP3   OH230955   5.978   5.688   0.503  0.0879 -0.2644  0.4358
 3107TIP3    H130956   5.887   5.667   0.525 -0.0325  0.5013  0.6954
 3107TIP3    H230957   5.972   5.737   0.421  0.5346 -3.0887 -1.4198
 3108TIP3   OH230958   1.444   2.824   1.094 -0.1130  0.1579  0.3882
 3108TIP3    H130959   1.472   2.887   1.161 -1.0077 -0.0913  1.0092
 3108TIP3    H230960   1.454   2.739   1.135  1.2070 -0.1541 -0.4953
 3109TIP3   OH230961   2.085   6.894   1.455 -0.3589  0.7658 -0.4667
 3109TIP3    H130962   2.006   6.884   1.509  0.3609 -2.4902  0.1832
 3109TIP3    H230963   2.074   6.830   1.385  0.6194  2.0530 -1.8560
 3110TIP3   OH230964   2.959   1.145   1.067  0.3031  0.6047 -0.2376
 3110TIP3    H130965   3.028   1.145   1.133  1.7834  0.6172 -1.7173
 3110TIP3    H230966   2.992   1.203   0.998 -0.8054 -0.0722 -1.3732
 3111TIP3   OH230967   5.269   3.617   7.614 -0.3275  0.1017  0.6118
 3111TIP3    H130968   5.343   3.557   7.615 -1.4659 -1.3305  0.8872
 3111TIP3    H230969   5.210   3.585   7.683 -2.5116 -0.5021 -1.4248
 3112TIP3   OH230970   2.806   1.423   0.658  1.2872 -0.1569 -0.0135
 3112TIP3    H130971   2.834   1.335   0.635 -1.2987 -0.6026 -1.8090
 3112TIP3    H230972   2.752   1.412   0.737  0.5369 -0.2788 -0.5357
 3113TIP3   OH230973   3.540   2.174   7.110  0.0622 -0.0430 -0.1317
 3113TIP3    H130974   3.495   2.207   7.033  2.3871  2.1221 -0.7075
 3113TIP3    H230975   3.470   2.146   7.169 -1.8468 -0.0224 -2.2474
 3114TIP3   OH230976   1.889   1.787   2.659  0.4570  0.4478  0.2315
 3114TIP3    H130977   1.935   1.872   2.655  0.4626  0.4032 -2.9571
 3114TIP3    H230978   1.799   1.807   2.635  0.0847 -0.2851  0.9554
 3115TIP3   OH230979   5.634   6.709   7.319 -0.0661  0.7846  0.2570
 3115TIP3    H130980   5.638   6.617   7.347  0.2897  1.0292  1.0320
 3115TIP3    H230981   5.600   6.705   7.230  0.7764 -0.1709 -0.0382
 3116TIP3   OH230982   1.918   1.507   7.755 -0.8011 -0.6360 -0.1136
 3116TIP3    H130983   1.834   1.529   7.795 -0.5354 -1.8258  1.1909
 3116TIP3    H230984   1.983   1.550   7.811 -0.5102  1.4021 -1.8641
 3117TIP3   OH230985   1.433   3.852   8.497 -0.3729  0.0613 -0.1559
 3117TIP3    H130986   1.405   3.931   8.451  0.5858  0.8233  0.5072
 3117TIP3    H230987   1.526   3.844   8.476  0.0058  0.2151  1.3053
 3118TIP3   OH230988   6.481   6.687   1.799  0.8524  0.8029  0.3094
 3118TIP3    H130989   6.447   6.777   1.800  0.6968  0.7549 -0.3051
 3118TIP3    H230990   6.556   6.690   1.740 -0.2560  0.1541 -1.1867
 3119TIP3   OH230991   4.254   2.537   8.616 -0.0580  0.5691  0.5075
 3119TIP3    H130992   4.342   2.547   8.579  0.0669 -1.6660  0.0882
 3119TIP3    H230993   4.210   2.619   8.595  0.4617  0.0317 -3.3556
 3120TIP3   OH230994   3.414   5.481   7.149  0.0364 -0.0373 -0.1040
 3120TIP3    H130995   3.346   5.541   7.119 -0.3702 -0.6494 -0.4241
 3120TIP3    H230996   3.459   5.454   7.070  1.4318  1.2657  0.2110
 3121TIP3   OH230997   2.952   0.979   1.795  0.2251 -0.2104 -0.3507
 3121TIP3    H130998   3.035   1.010   1.759 -0.5684  1.8564 -0.4751
 3121TIP3    H230999   2.974   0.949   1.883  1.3582 -1.1353 -0.9203
 3122TIP3   OH231000   6.462   4.276   0.902  0.1790 -0.3099 -0.5640
 3122TIP3    H131001   6.538   4.234   0.942  0.2337  0.7394  0.4624
 3122TIP3    H231002   6.498   4.348   0.850 -0.0712 -0.1089 -0.4644
 3123TIP3   OH231003   4.466   1.659   2.028 -0.3329 -0.8858 -0.4790
 3123TIP3    H131004   4.454   1.566   2.009  0.3230 -1.2312  0.7122
 3123TIP3    H231005   4.512   1.661   2.112 -1.8879  0.5324  0.4234
 3124TIP3   OH231006   2.997   2.137   0.475  0.6278 -1.1128 -0.1471
 3124TIP3    H131007   2.920   2.150   0.421  0.7496 -1.2594 -0.3589
 3124TIP3    H231008   2.999   2.042   0.491  0.1601 -0.9785  0.7593
 3125TIP3   OH231009   6.865   3.620   0.627  0.0802 -0.7429 -0.0721
 3125TIP3    H131010   6.824   3.628   0.713  0.2174  0.2787 -0.0866
 3125TIP3    H231011   6.952   3.659   0.638 -0.0920 -0.1276 -0.7843
 3126TIP3   OH231012   3.779   3.811   6.384 -0.8786 -0.1179 -0.0754
 3126TIP3    H131013   3.823   3.771   6.459  0.0131 -1.5211 -1.2916
 3126TIP3    H231014   3.842   3.875   6.351 -0.8425 -0.2433 -0.2494
 3127TIP3   OH231015   4.109   3.241   0.001  0.3953 -0.5050  0.3607
 3127TIP3    H131016   4.202   3.235   0.025  0.4962 -0.7278 -0.0673
 3127TIP3    H231017   4.104   3.318  -0.056  0.6359 -1.4588 -0.9964
 3128TIP3   OH231018   5.033   4.227   6.764  0.0447 -0.5595  0.5695
 3128TIP3    H131019   5.027   4.164   6.691 -0.7671  1.6448 -1.3966
 3128TIP3    H231020   5.116   4.271   6.750 -0.1383 -0.0876  0.9577
 3129TIP3   OH231021   4.292   4.830   6.675 -0.1650 -0.2706  0.2186
 3129TIP3    H131022   4.358   4.773   6.636 -0.2553 -0.8141  0.8488
 3129TIP3    H231023   4.299   4.912   6.625  0.8956 -0.3564  0.1964
 3130TIP3   OH231024   0.555   0.115   1.199  0.0683 -0.4312 -0.3439
 3130TIP3    H131025   0.568   0.028   1.237  3.0885 -0.4715 -1.2069
 3130TIP3    H231026   0.490   0.101   1.130 -1.7493 -1.3153  1.4174
 3131TIP3   OH231027   1.576   5.585   7.388  0.3817  0.3068 -0.0822
 3131TIP3    H131028   1.626   5.519   7.436 -1.0992 -2.4289 -2.0147
 3131TIP3    H231029   1.570   5.550   7.299  0.5484  3.7192 -1.5766
 3132TIP3   OH231030   0.738   0.822   1.693 -0.3478  0.2443  0.2312
 3132TIP3    H131031   0.750   0.916   1.705 -1.8032  0.1818  3.2600
 3132TIP3    H231032   0.785   0.783   1.768 -1.1455 -1.3088 -0.0484
 3133TIP3   OH231033   5.718   6.419   0.985 -0.3495  0.4654  0.1381
 3133TIP3    H131034   5.641   6.428   1.040 -0.7943  1.9533 -0.6778
 3133TIP3    H231035   5.747   6.329   0.998 -0.3106  0.7885  2.9400
 3134TIP3   OH231036   2.584   0.121   7.712  0.4782  0.0906 -0.3876
 3134TIP3    H131037   2.489   0.134   7.715  0.5268  0.2554  1.5632
 3134TIP3    H231038   2.595   0.040   7.661 -0.8317 -0.9001  0.8114
 3135TIP3   OH231039   2.381   3.857   7.113  0.2811 -0.5747 -0.3688
 3135TIP3    H131040   2.297   3.813   7.107 -0.4320  0.7495 -0.3790
 3135TIP3    H231041   2.400   3.861   7.207 -0.3269  0.3101 -0.2749
 3136TIP3   OH231042   3.730   4.439   7.014  0.0340  0.9162  0.7301
 3136TIP3    H131043   3.645   4.400   6.991  0.1707  0.7132  0.5673
 3136TIP3    H231044   3.722   4.457   7.108 -0.0972  0.6550  0.7725
 3137TIP3   OH231045   4.237   0.800   7.442  0.0094  0.1830  0.5615
 3137TIP3    H131046   4.267   0.866   7.505 -1.1310  0.6721  0.6137
 3137TIP3    H231047   4.260   0.836   7.357  2.6184 -1.0070  0.6744
 3138TIP3   OH231048   6.559   3.935   2.006  0.0735 -0.1804  0.6325
 3138TIP3    H131049   6.641   3.974   1.977 -0.9549  1.0963 -0.7368
 3138TIP3    H231050   6.530   3.991   2.078  0.7436 -1.0714  1.6141
 3139TIP3   OH231051   0.292   3.057   7.461 -0.0464 -0.0723 -0.1839
 3139TIP3    H131052   0.382   3.088   7.455  0.7428 -2.0091  0.8407
 3139TIP3    H231053   0.241   3.135   7.484  1.5959  0.7490  0.8490
 3140TIP3   OH231054   2.518   1.454   2.102 -0.7336  0.1314  0.3494
 3140TIP3    H131055   2.519   1.509   2.181 -0.9633 -0.6972  0.9478
 3140TIP3    H231056   2.448   1.490   2.048  0.4994  1.7584 -0.2722
 3141TIP3   OH231057   5.137   3.886   1.263  0.0174  0.1054 -0.2254
 3141TIP3    H131058   5.176   3.859   1.180  1.0713 -0.1925  0.3466
 3141TIP3    H231059   5.066   3.945   1.238  0.0587 -0.3012 -1.3482
 3142TIP3   OH231060   3.866   2.871   8.386 -0.0991  0.5159  0.1085
 3142TIP3    H131061   3.874   2.955   8.340  3.3994 -0.0173 -0.5503
 3142TIP3    H231062   3.772   2.854   8.389 -0.7283  1.5112 -5.1379
 3143TIP3   OH231063   2.755   3.227   0.674  0.0275 -0.1296 -0.8265
 3143TIP3    H131064   2.749   3.224   0.579 -1.6442  0.8777 -0.8054
 3143TIP3    H231065   2.668   3.258   0.702  0.5676 -0.1629  1.0031
 3144TIP3   OH231066   0.189   3.885   7.027  0.4759  0.1256  0.0537
 3144TIP3    H131067   0.191   3.791   7.011 -0.3394  0.0283  0.4734
 3144TIP3    H231068   0.214   3.924   6.943  2.0377 -0.4686  0.2099
 3145TIP3   OH231069   3.257   0.546   8.156 -0.1032 -0.3808  0.5046
 3145TIP3    H131070   3.200   0.481   8.114  0.9404 -1.1743  0.2885
 3145TIP3    H231071   3.346   0.518   8.135  0.3837  1.4859 -0.1413
 3146TIP3   OH231072   3.697   1.595   8.278  0.0515  0.0559  0.1812
 3146TIP3    H131073   3.760   1.581   8.208  1.1696 -1.6999  1.4442
 3146TIP3    H231074   3.654   1.509   8.289 -0.7416  0.5411  1.0353
 3147TIP3   OH231075   5.764   4.490   0.837 -0.1761  0.8475  0.5770
 3147TIP3    H131076   5.844   4.452   0.873 -0.1452 -0.4498 -0.7291
 3147TIP3    H231077   5.699   4.481   0.907  0.5576  1.0006  1.2942
 3148TIP3   OH231078   4.695   4.408   1.354 -0.0078  0.1894  0.7397
 3148TIP3    H131079   4.635   4.476   1.385 -0.3036  0.6786 -0.8309
 3148TIP3    H231080   4.780   4.452   1.347 -0.0600  0.2354  0.3525
 3149TIP3   OH231081   3.756   3.036   7.283  0.4785 -0.4481  0.4688
 3149TIP3    H131082   3.841   3.030   7.327  1.8841  1.3099 -1.8116
 3149TIP3    H231083   3.698   3.073   7.349  2.3292  1.4566  1.1570
 3150TIP3   OH231084   6.219   5.594   6.289  0.0791 -0.0808 -0.6701
 3150TIP3    H131085   6.193   5.677   6.249  0.9336  1.5823  1.9341
 3150TIP3    H231086   6.151   5.577   6.354 -0.2854 -1.6831 -1.4161
 3151TIP3   OH231087   3.380   0.585   0.099  0.4262 -0.6736 -0.0513
 3151TIP3    H131088   3.314   0.525   0.063  0.1428 -0.1556 -0.3998
 3151TIP3    H231089   3.436   0.529   0.153  1.1081 -1.5593 -1.6067
 3152TIP3   OH231090   5.774   2.938   7.701 -0.1454 -0.3360  0.2878
 3152TIP3    H131091   5.724   2.918   7.621  0.5487  1.4384 -0.6398
 3152TIP3    H231092   5.865   2.922   7.676  0.2098  1.6288  0.2261
 3153TIP3   OH231093   0.068   1.059   8.245  0.1547 -0.0240  0.5216
 3153TIP3    H131094   0.126   1.008   8.302 -1.1242 -0.6715  1.3003
 3153TIP3    H231095  -0.020   1.028   8.267 -0.3923 -0.4323 -1.9664
 3154TIP3   OH231096   2.150   5.779   2.199  0.5684  0.2362  0.0437
 3154TIP3    H131097   2.246   5.783   2.202  0.6975  0.5537 -2.5497
 3154TIP3    H231098   2.122   5.870   2.200  0.2783  0.1471  0.6327
 3155TIP3   OH231099   6.564   6.037   8.417  0.0848 -0.1179 -0.3391
 3155TIP3    H131100   6.594   6.118   8.459  2.5287 -0.9616 -0.3253
 3155TIP3    H231101   6.590   6.046   8.325 -3.2911  0.7706 -1.3774
 3156TIP3   OH231102   4.850   2.422   1.394 -0.4762  0.1710 -0.0554
 3156TIP3    H131103   4.784   2.420   1.325 -0.1029 -0.0535 -0.4118
 3156TIP3    H231104   4.927   2.462   1.352 -0.1004 -0.3855  0.0920
 3157TIP3   OH231105   0.192   1.013   2.069  0.3123  0.5621  0.2186
 3157TIP3    H131106   0.125   1.070   2.106 -0.0557  1.5826 -1.8886
 3157TIP3    H231107   0.172   0.927   2.107 -1.5810  1.0332  0.4329
 3158TIP3   OH231108   6.751   6.348   7.874  0.2551  0.1841  0.1226
 3158TIP3    H131109   6.833   6.351   7.924  0.3308 -1.0300  0.1029
 3158TIP3    H231110   6.684   6.326   7.938  0.1330 -0.0020 -0.0670
 3159TIP3   OH231111   0.140   4.349   6.771  0.7893  0.2951  0.1152
 3159TIP3    H131112   0.170   4.376   6.858 -1.1247  0.3293  0.7957
 3159TIP3    H231113   0.062   4.401   6.755  0.4740 -0.5258 -1.1627
 3160TIP3   OH231114   5.084   4.796   1.687  0.4250  0.0526 -0.0679
 3160TIP3    H131115   5.161   4.837   1.725 -0.4911  1.3238  0.4658
 3160TIP3    H231116   5.039   4.756   1.761  0.1964 -0.0793 -0.2748
 3161TIP3   OH231117   0.007   6.100   8.687  0.0561  0.0697  0.5372
 3161TIP3    H131118  -0.031   6.141   8.764 -0.9932  1.6570 -0.7549
 3161TIP3    H231119  -0.049   6.129   8.614  1.7925 -0.2430 -1.0002
 3162TIP3   OH231120   5.988   4.475   8.295  0.6598 -0.0075  0.4575
 3162TIP3    H131121   5.941   4.540   8.242  1.9299  0.7971  0.2720
 3162TIP3    H231122   6.076   4.474   8.259  0.3666 -2.8248 -0.4043
 3163TIP3   OH231123   5.118   0.732   8.031  0.4471  0.4298  0.5735
 3163TIP3    H131124   5.056   0.672   8.073  0.7854 -0.0477  0.4018
 3163TIP3    H231125   5.125   0.701   7.941  0.6755  0.6890  0.4980
 3164TIP3   OH231126   0.901   3.028   1.193 -0.1496  0.0253 -0.4507
 3164TIP3    H131127   0.836   3.004   1.127 -2.8670  3.4063  0.7052
 3164TIP3    H231128   0.901   2.955   1.255 -3.0768 -0.0459 -0.4046
 3165TIP3   OH231129   0.032   4.946   6.089  0.4796  0.4721 -0.6967
 3165TIP3    H131130  -0.017   5.024   6.064 -1.3061 -0.4831 -0.3966
 3165TIP3    H231131  -0.012   4.874   6.043  0.0869 -0.7307  1.3882
 3166TIP3   OH231132   3.998   2.721   2.551  0.1595  0.2691 -0.1451
 3166TIP3    H131133   4.010   2.816   2.549 -0.2123  0.3817  1.5470
 3166TIP3    H231134   4.077   2.686   2.510  0.8869  1.2907  0.3318
 3167TIP3   OH231135   3.790   2.197   2.575 -0.3082 -0.3450  0.4840
 3167TIP3    H131136   3.882   2.223   2.575  0.5844 -3.1308  0.0807
 3167TIP3    H231137   3.782   2.141   2.497 -2.5769  0.4676  0.0721
 3168TIP3   OH231138   2.616   2.431   8.314  0.4673  0.4579  0.2939
 3168TIP3    H131139   2.609   2.500   8.249  0.4432  0.3703  0.2031
 3168TIP3    H231140   2.581   2.469   8.394 -0.0001  0.3893  0.1217
 3169TIP3   OH231141   3.871   1.504   7.344 -0.0373 -0.5492  0.0592
 3169TIP3    H131142   3.919   1.543   7.271 -0.7038 -0.3234 -0.2765
 3169TIP3    H231143   3.931   1.510   7.419  0.1649  0.4465 -0.1631
 3170TIP3   OH231144   3.479   3.110   7.294  0.0131 -0.0458 -0.1467
 3170TIP3    H131145   3.479   3.126   7.200  1.1439  0.9068 -0.0068
 3170TIP3    H231146   3.390   3.079   7.313  0.0744 -1.2522 -1.6699
 3171TIP3   OH231147   5.478   2.821   1.711 -0.4529 -0.0684 -0.4942
 3171TIP3    H131148   5.552   2.862   1.754  0.5068 -1.0820 -1.1345
 3171TIP3    H231149   5.456   2.881   1.639 -0.9438  0.7538  0.3294
 3172TIP3   OH231150   4.542   0.047   1.097  0.1345 -0.5184  0.4163
 3172TIP3    H131151   4.572   0.018   1.183 -1.4644  1.0397  1.5448
 3172TIP3    H231152   4.529  -0.035   1.048  0.6031 -1.4583  1.7957
 3173TIP3   OH231153   0.536   5.904   0.331 -0.4423 -0.1288  0.2774
 3173TIP3    H131154   0.520   5.851   0.252  1.6456  1.3258 -1.2416
 3173TIP3    H231155   0.631   5.903   0.341 -0.5366  1.3277  1.6571
 3174TIP3   OH231156   1.533   1.249   2.661 -0.9587 -0.3727  0.0609
 3174TIP3    H131157   1.551   1.157   2.680 -0.1277 -0.4785 -1.1765
 3174TIP3    H231158   1.619   1.289   2.647 -1.4097 -0.0885 -2.3608
 3175TIP3   OH231159   4.430   0.635   1.708 -0.8068  0.8115 -0.3768
 3175TIP3    H131160   4.470   0.561   1.753  0.0627  1.2978 -0.3178
 3175TIP3    H231161   4.409   0.602   1.620 -3.0068 -0.2982  0.5093
 3176TIP3   OH231162   6.811   0.636   7.487  0.6750 -0.2308 -0.0975
 3176TIP3    H131163   6.799   0.575   7.559 -2.9009  0.7625  0.3191
 3176TIP3    H231164   6.819   0.581   7.409 -2.5714 -1.3783  0.2474
 3177TIP3   OH231165   5.457   5.073   1.922 -0.0034 -0.2772 -0.3862
 3177TIP3    H131166   5.516   4.998   1.920 -1.7028 -1.8666  2.3608
 3177TIP3    H231167   5.386   5.047   1.981 -1.8195  2.7143 -0.9876
 3178TIP3   OH231168   1.778   2.146   7.865 -0.5707 -0.0316 -1.1535
 3178TIP3    H131169   1.695   2.159   7.819  0.2152  2.1648 -2.1111
 3178TIP3    H231170   1.778   2.214   7.933 -0.1978 -1.0165 -0.1369
 3179TIP3   OH231171   3.482   2.222   6.575 -0.0272  0.1272  0.3706
 3179TIP3    H131172   3.507   2.302   6.528 -1.5191 -0.1602 -0.9823
 3179TIP3    H231173   3.473   2.250   6.666 -0.4105  1.4756 -0.0608
 3180TIP3   OH231174   0.472   0.349   7.195  0.4999  0.2054  0.4771
 3180TIP3    H131175   0.508   0.402   7.266  3.4426  0.1339 -0.8264
 3180TIP3    H231176   0.470   0.408   7.120 -0.0315 -0.4557 -0.0400
 3181TIP3   OH231177   1.946   3.505   7.684  0.5757  0.1239  0.7034
 3181TIP3    H131178   1.877   3.519   7.619  1.6214 -0.4834 -0.5849
 3181TIP3    H231179   1.902   3.463   7.758 -0.6043  0.6529  0.3115
 3182TIP3   OH231180   1.714   2.549   1.337 -0.2923 -0.4167  0.1940
 3182TIP3    H131181   1.782   2.546   1.405  0.0244  1.0440 -0.0338
 3182TIP3    H231182   1.747   2.489   1.269 -0.2338 -1.2830  0.9700
 3183TIP3   OH231183   6.442   1.291   6.041  0.2604 -0.2657 -0.2710
 3183TIP3    H131184   6.423   1.365   6.099  1.8681  0.5133 -0.6824
 3183TIP3    H231185   6.358   1.247   6.030 -0.6899  1.3419  0.1963
 3184TIP3   OH231186   1.469   1.663   6.928  0.5139 -0.1428 -0.0533
 3184TIP3    H131187   1.503   1.630   6.845 -0.3135 -1.3894  0.0846
 3184TIP3    H231188   1.537   1.722   6.960  1.6248 -1.0211 -0.7513
 3185TIP3   OH231189   0.463   5.539   7.909 -0.1363 -0.2580  0.1032
 3185TIP3    H131190   0.468   5.487   7.829 -1.0939 -1.2598  0.6755
 3185TIP3    H231191   0.461   5.475   7.980 -1.9690  0.5088  0.8066
 3186TIP3   OH231192   2.143   4.913   5.427 -0.5462 -0.6247 -0.0055
 3186TIP3    H131193   2.062   4.958   5.450 -0.4558 -0.7083  0.4971
 3186TIP3    H231194   2.171   4.953   5.345 -1.5099 -1.1301 -0.6123
 3187TIP3   OH231195   6.447   5.157   8.329  0.2931  0.2554 -0.1855
 3187TIP3    H131196   6.461   5.251   8.323  0.3987  0.2562  0.0482
 3187TIP3    H231197   6.363   5.142   8.286  1.2475  0.1667 -2.0854
 3188TIP3   OH231198   3.389   5.438   6.437 -0.1160  0.6771 -0.3978
 3188TIP3    H131199   3.452   5.461   6.506  1.3168  1.4032 -1.8843
 3188TIP3    H231200   3.443   5.407   6.364 -1.6804 -1.6234 -0.6814
 3189TIP3   OH231201   5.556   6.003   1.200 -0.2208 -0.0467  0.1404
 3189TIP3    H131202   5.507   5.998   1.118 -0.8583  1.8904  0.3586
 3189TIP3    H231203   5.493   5.980   1.267 -0.8189  2.0649  0.3843
 3190TIP3   OH231204   0.036   6.065   7.498  0.0752  0.0732 -0.7189
 3190TIP3    H131205   0.132   6.072   7.496  0.0973  0.2447  0.3765
 3190TIP3    H231206   0.009   6.135   7.558 -0.5900 -1.2824  0.6109
 3191TIP3   OH231207   2.389   5.243   6.616 -0.5901 -0.8642  0.0820
 3191TIP3    H131208   2.327   5.315   6.619 -1.3425 -1.5053  1.6556
 3191TIP3    H231209   2.459   5.272   6.558 -1.0393  0.9827  0.4226
 3192TIP3   OH231210   0.234   4.574   1.015 -0.3142 -0.1812  0.1315
 3192TIP3    H131211   0.316   4.618   0.991 -0.9450  0.4314 -0.9969
 3192TIP3    H231212   0.220   4.510   0.946  0.3507 -1.9111  1.5199
 3193TIP3   OH231213   1.020   2.846   6.362  0.6287  0.4016  0.1305
 3193TIP3    H131214   1.031   2.889   6.446  1.4611 -1.0077  0.7719
 3193TIP3    H231215   0.947   2.893   6.321  0.7652  1.6596  1.2563
 3194TIP3   OH231216   4.046   3.414   7.343 -0.0565  0.1849 -0.6845
 3194TIP3    H131217   4.128   3.460   7.362 -0.1667 -0.0095  0.2908
 3194TIP3    H231218   3.991   3.481   7.301 -0.1923  0.9600  0.6584
 3195TIP3   OH231219   1.577   3.015   6.810 -0.0215 -0.5850  0.1070
 3195TIP3    H131220   1.495   3.062   6.825  0.6679  0.2318  1.4924
 3195TIP3    H231221   1.645   3.080   6.829  0.9489 -1.2904 -0.8872
 3196TIP3   OH231222   2.745   3.055   7.536  0.3447  0.6012 -0.2049
 3196TIP3    H131223   2.753   2.960   7.543 -1.0219  0.4785 -0.1831
 3196TIP3    H231224   2.757   3.087   7.625  0.2321  0.4049 -0.1205
 3197TIP3   OH231225   0.054   1.246   7.363 -0.0696 -0.5915 -0.5420
 3197TIP3    H131226  -0.003   1.228   7.288  0.1759 -0.6419 -0.7166
 3197TIP3    H231227   0.109   1.168   7.371  1.3433  0.2329 -1.6132
 3198TIP3   OH231228   1.539   2.597   8.399  0.1146 -0.4761 -0.6104
 3198TIP3    H131229   1.583   2.654   8.335 -0.3388 -0.5912 -1.0318
 3198TIP3    H231230   1.469   2.556   8.349  0.3600 -1.3141 -0.2782
 3199TIP3   OH231231   3.379   3.111   2.115 -0.2834  0.5292  0.0025
 3199TIP3    H131232   3.333   3.027   2.116 -0.8064  0.8210  1.1957
 3199TIP3    H231233   3.338   3.163   2.184  0.4188  1.5680 -0.3305
 3200TIP3   OH231234   0.492   3.189   0.955 -0.3231 -0.6446 -0.0219
 3200TIP3    H131235   0.398   3.202   0.939 -0.3851  0.9171  1.3570
 3200TIP3    H231236   0.535   3.228   0.879 -0.7496  1.2666  0.6601
 3201TIP3   OH231237   2.511   5.366   6.417  0.4521  0.1477  0.7282
 3201TIP3    H131238   2.543   5.367   6.327  0.1059 -2.0871  0.5268
 3201TIP3    H231239   2.427   5.411   6.414 -0.6485 -1.8807 -0.5582
 3202TIP3   OH231240   0.511   2.520   2.444  0.2928  0.4870 -0.3816
 3202TIP3    H131241   0.542   2.450   2.385  0.0589  1.1512 -1.3184
 3202TIP3    H231242   0.422   2.539   2.413 -1.9178 -2.5090  3.2627
 3203TIP3   OH231243   1.379   1.314   6.525  0.0874  0.1251 -0.2600
 3203TIP3    H131244   1.420   1.229   6.539  0.9592  0.7444  1.1346
 3203TIP3    H231245   1.345   1.309   6.436 -0.8906 -2.0810  0.1696
 3204TIP3   OH231246   6.482   4.455   7.664  0.3151 -0.0370 -0.1791
 3204TIP3    H131247   6.414   4.388   7.657  1.3135 -0.9782 -1.6525
 3204TIP3    H231248   6.549   4.416   7.720  1.2060 -0.6281 -1.5758
 3205TIP3   OH231249   0.785   5.403   7.638  0.4778  0.4148 -0.5472
 3205TIP3    H131250   0.730   5.399   7.560 -1.4030 -0.0166  0.7321
 3205TIP3    H231251   0.827   5.317   7.641  0.0193  0.1811 -0.7073
 3206TIP3   OH231252   6.293   3.614   1.839  0.6194  0.1635 -0.0991
 3206TIP3    H131253   6.296   3.707   1.815  1.1447  0.9651  2.7758
 3206TIP3    H231254   6.222   3.579   1.785  0.8735  2.0383 -1.7855
 3207TIP3   OH231255   1.897   1.759   8.044 -0.4167 -0.0653 -0.0920
 3207TIP3    H131256   1.931   1.792   7.960 -0.3537 -0.6637 -0.3044
 3207TIP3    H231257   1.952   1.683   8.064  0.0654  0.5180  0.8778
 3208TIP3   OH231258   4.763   3.613   0.636 -0.1102  0.0109  0.0893
 3208TIP3    H131259   4.769   3.656   0.722  1.1312 -0.3903  0.2220
 3208TIP3    H231260   4.718   3.677   0.581  2.5372  1.9599  0.0161
 3209TIP3   OH231261   6.429   6.381   6.686 -0.0006 -0.0597 -0.2159
 3209TIP3    H131262   6.347   6.408   6.727  0.1223  0.2274 -0.1566
 3209TIP3    H231263   6.455   6.303   6.735 -0.7147 -0.7084 -0.8391
 3210TIP3   OH231264   2.656   0.020   6.640 -0.0353  0.0905 -0.4659
 3210TIP3    H131265   2.693  -0.025   6.716  1.0458  0.7014 -0.6096
 3210TIP3    H231266   2.561   0.012   6.651  0.1119 -0.1268  0.7612
 3211TIP3   OH231267   6.683   3.570   2.168  0.3613 -0.1103  0.0014
 3211TIP3    H131268   6.745   3.635   2.200 -1.4541  0.8921  1.6074
 3211TIP3    H231269   6.634   3.614   2.098  1.6877 -1.0629 -1.6300
 3212TIP3   OH231270   4.450   6.487   8.572  0.1403 -0.1832  0.3643
 3212TIP3    H131271   4.361   6.521   8.561  0.4138  0.8284  1.0406
 3212TIP3    H231272   4.500   6.563   8.602  0.9796 -0.9957  1.0898
 3213TIP3   OH231273   3.178   0.778   1.570  0.1455 -0.3856  0.4544
 3213TIP3    H131274   3.123   0.743   1.640 -0.8860  0.0444 -0.1050
 3213TIP3    H231275   3.198   0.867   1.598 -1.2746  0.2153 -0.2979
 3214TIP3   OH231276   4.198   1.378   2.162  0.1263 -0.0153 -0.4800
 3214TIP3    H131277   4.145   1.440   2.113 -0.8935  0.5787  1.2852
 3214TIP3    H231278   4.147   1.359   2.241  1.6491 -0.9757  0.3399
 3215TIP3   OH231279   2.174   6.664   0.818  0.2618 -0.2380  0.1277
 3215TIP3    H131280   2.245   6.604   0.797  1.1884  0.8579  0.0239
 3215TIP3    H231281   2.214   6.751   0.813 -0.3199  0.2975  2.9352
 3216TIP3   OH231282   0.770   6.098   6.104 -0.0837  0.0429 -0.7252
 3216TIP3    H131283   0.806   6.085   6.016 -0.0350  1.3929 -0.9339
 3216TIP3    H231284   0.814   6.032   6.158  0.8388  0.0221 -1.4703
 3217TIP3   OH231285   5.541   6.632   0.357  0.2230 -0.7253  0.1776
 3217TIP3    H131286   5.623   6.592   0.327  0.4508 -0.4970  0.4916
 3217TIP3    H231287   5.492   6.560   0.396  0.5556 -0.7439  0.5751
 3218TIP3   OH231288   6.429   0.309   7.814  0.7621 -0.7873  0.1049
 3218TIP3    H131289   6.458   0.400   7.804  1.5895 -1.1087 -0.4130
 3218TIP3    H231290   6.344   0.317   7.860  0.1633  0.3154 -1.1259
 3219TIP3   OH231291   6.206   5.137   6.665 -0.5352 -0.3005 -0.7933
 3219TIP3    H131292   6.147   5.175   6.600 -0.3081 -1.5293 -1.7467
 3219TIP3    H231293   6.265   5.081   6.614 -0.9774 -2.0763  0.5498
 3220TIP3   OH231294   3.933   4.046   2.073  0.0663  0.0815 -0.0397
 3220TIP3    H131295   3.997   3.979   2.049 -0.9520 -0.8209 -0.2862
 3220TIP3    H231296   3.899   4.017   2.158 -0.2267  0.4054 -0.0449
 3221TIP3   OH231297   1.369   2.825   1.664  0.2373 -0.2637 -0.2048
 3221TIP3    H131298   1.455   2.809   1.626  0.8654 -1.3270  1.5396
 3221TIP3    H231299   1.311   2.765   1.618  0.8854 -1.1809  0.1406
 3222TIP3   OH231300   3.105   6.573   0.717  0.1224  0.3478 -0.1561
 3222TIP3    H131301   3.138   6.508   0.779 -1.1617  1.7982  2.2261
 3222TIP3    H231302   3.037   6.527   0.668  0.2568 -0.5187  0.4484
 3223TIP3   OH231303   3.867   1.900   8.194 -0.3801 -0.4913  0.6151
 3223TIP3    H131304   3.874   1.828   8.132  0.3532 -0.3509  0.5293
 3223TIP3    H231305   3.811   1.866   8.264 -0.4215 -0.9807  0.3491
 3224TIP3   OH231306   2.297   0.723   1.428 -0.0168  0.2344  0.2209
 3224TIP3    H131307   2.345   0.767   1.498 -2.5843  1.1912  1.4957
 3224TIP3    H231308   2.255   0.649   1.471 -0.7845  0.2128 -0.5452
 3225TIP3   OH231309   1.972   2.189   7.391 -0.0881  0.4080 -0.5445
 3225TIP3    H131310   2.025   2.209   7.314  0.8346 -0.0024 -0.0220
 3225TIP3    H231311   1.922   2.270   7.407 -1.7542 -0.0876 -2.6816
 3226TIP3   OH231312   3.094   3.062   8.557 -0.5493  0.0793 -0.0373
 3226TIP3    H131313   3.052   3.071   8.643 -0.0413 -0.8850  0.3292
 3226TIP3    H231314   3.097   2.968   8.542 -1.1676  0.2571 -1.3925
 3227TIP3   OH231315   1.202   3.301   7.998  0.4274  0.2867  0.8167
 3227TIP3    H131316   1.139   3.360   7.956  1.7594  1.5771  0.5432
 3227TIP3    H231317   1.257   3.359   8.052  2.5314 -0.4773 -0.3798
 3228TIP3   OH231318   2.498   4.938   8.283  0.9962 -0.0734 -0.2383
 3228TIP3    H131319   2.580   4.901   8.251  1.6060 -1.1707  2.3809
 3228TIP3    H231320   2.519   4.972   8.370 -1.0262  0.8623 -0.0571
 3229TIP3   OH231321   0.334   1.706   8.384  0.4658 -0.1280 -0.0850
 3229TIP3    H131322   0.338   1.782   8.326  1.0761 -0.1206 -0.0375
 3229TIP3    H231323   0.283   1.641   8.335 -0.0960  0.3213 -0.1084
 3230TIP3   OH231324   6.081   6.058   7.657  0.3415  0.2414 -0.1259
 3230TIP3    H131325   6.170   6.049   7.621  0.5241  0.1312  0.3461
 3230TIP3    H231326   6.086   6.135   7.714  0.3892 -0.3330  0.6611
 3231TIP3   OH231327   1.962   5.565   8.325  0.4549  0.2504 -0.1620
 3231TIP3    H131328   1.939   5.657   8.335 -0.1433  0.1228 -0.2642
 3231TIP3    H231329   1.971   5.552   8.230 -0.5422 -0.0281 -0.2340
 3232TIP3   OH231330   3.009   6.071   7.182 -0.2554 -0.0470  0.4281
 3232TIP3    H131331   2.972   6.128   7.115 -0.6600 -1.8356 -0.9337
 3232TIP3    H231332   2.933   6.034   7.227 -0.1327 -1.7485 -0.6745
 3233TIP3   OH231333   0.558   4.273   0.986  0.0405 -0.2887 -0.1168
 3233TIP3    H131334   0.528   4.259   0.896 -2.5956 -0.1093  0.6298
 3233TIP3    H231335   0.609   4.195   1.008 -0.9317 -1.2453 -1.1512
 3234TIP3   OH231336   0.089   4.517   7.927 -0.3708 -0.4968  0.4473
 3234TIP3    H131337   0.095   4.431   7.886 -1.2647  0.4351 -1.8154
 3234TIP3    H231338   0.018   4.561   7.880 -0.4855  1.2037  2.0841
 3235TIP3   OH231339   2.966   5.080   7.210 -0.1250 -0.1931 -0.2681
 3235TIP3    H131340   2.928   5.045   7.129  0.7369  0.4235 -0.9579
 3235TIP3    H231341   2.925   5.166   7.220  0.5190  0.1654 -0.6224
 3236TIP3   OH231342   5.879   0.891   1.307  0.4824  0.6254  0.4632
 3236TIP3    H131343   5.802   0.936   1.340  1.1975  1.4810  1.0052
 3236TIP3    H231344   5.897   0.933   1.223  0.6698  0.7920  0.5864
 3237TIP3   OH231345   0.064   4.527   6.044 -0.9480  0.1561  0.2129
 3237TIP3    H131346   0.037   4.445   6.087  0.7874 -0.1675  0.7880
 3237TIP3    H231347   0.139   4.557   6.096  0.1835  0.6465 -1.6036
 3238TIP3   OH231348   3.695   0.037   0.436  0.0920 -0.5018  0.2503
 3238TIP3    H131349   3.730  -0.043   0.398  3.1274  0.3851  0.8944
 3238TIP3    H231350   3.646   0.008   0.513  0.3027 -1.7851 -0.0749
 3239TIP3   OH231351   6.012   0.435   1.951  0.0098  0.3256  0.1744
 3239TIP3    H131352   5.987   0.489   2.026 -0.6768  0.5666 -0.2119
 3239TIP3    H231353   5.951   0.360   1.954 -0.2387  0.5011 -0.3182
 3240TIP3   OH231354   0.633   0.720   8.067 -0.1195 -0.7460  0.8833
 3240TIP3    H131355   0.620   0.738   8.160 -0.3261 -0.9644  0.8965
 3240TIP3    H231356   0.612   0.803   8.024  0.6267 -0.4469  1.0809
 3241TIP3   OH231357   0.752   4.095   7.555 -0.3632 -0.2601  0.1147
 3241TIP3    H131358   0.845   4.084   7.540 -0.4351 -0.4340 -0.2215
 3241TIP3    H231359   0.715   4.109   7.468 -0.5237  0.7808  0.3306
 3242TIP3   OH231360   6.219   6.239   7.361 -0.8264  0.4213  0.5282
 3242TIP3    H131361   6.295   6.232   7.418 -1.7185  0.5129  1.7846
 3242TIP3    H231362   6.187   6.149   7.352  0.2639  0.1651 -1.2417
 3243TIP3   OH231363   3.194   1.544   0.732 -0.4368 -0.5971  0.0385
 3243TIP3    H131364   3.258   1.473   0.741  1.0580  0.5896 -0.7945
 3243TIP3    H231365   3.167   1.541   0.641  1.1289  1.0662 -0.5418
 3244TIP3   OH231366   1.890   1.289   1.413  0.1433 -0.1154  0.0103
 3244TIP3    H131367   1.983   1.267   1.407  0.1262 -0.5268  1.0538
 3244TIP3    H231368   1.883   1.376   1.374  1.1768  0.4396  0.9905
 3245TIP3   OH231369   5.142   2.244   7.090  0.6390  0.4246 -0.2510
 3245TIP3    H131370   5.229   2.241   7.052  0.8307  0.8721  0.1508
 3245TIP3    H231371   5.093   2.304   7.034  0.2202 -0.7610 -1.2121
 3246TIP3   OH231372   0.733   1.038   8.111  0.8744  0.5174  0.0520
 3246TIP3    H131373   0.637   1.038   8.115  0.7975 -0.7347 -1.0817
 3246TIP3    H231374   0.760   0.970   8.172  0.9251 -0.4666 -1.0364
 3247TIP3   OH231375   0.646   1.940   0.817 -0.1197 -0.1207  0.2384
 3247TIP3    H131376   0.611   1.913   0.902  1.6298 -1.0095  0.7289
 3247TIP3    H231377   0.642   1.861   0.764  3.2205 -1.0149  1.0695
 3248TIP3   OH231378   4.856   5.070   2.047 -0.4583  0.0105  0.5619
 3248TIP3    H131379   4.838   4.983   2.083 -0.0744 -0.5259 -0.5102
 3248TIP3    H231380   4.923   5.055   1.981 -1.4319  0.9115 -0.6633
 3249TIP3   OH231381   3.152   0.168   0.221 -0.0540  0.0675  0.0100
 3249TIP3    H131382   3.229   0.192   0.272 -0.8410  2.4762  0.2197
 3249TIP3    H231383   3.079   0.177   0.282 -0.8107  1.0854 -0.9908
 3250TIP3   OH231384   4.564   4.798   1.189 -0.4356 -0.0456  0.3442
 3250TIP3    H131385   4.570   4.846   1.272 -0.3091  0.0723  0.2688
 3250TIP3    H231386   4.631   4.730   1.195 -1.0128 -0.5936  0.6927
 3251TIP3   OH231387   2.544   0.140   8.582 -0.0804 -0.2099  0.1093
 3251TIP3    H131388   2.488   0.100   8.648  0.7962 -1.5145  0.1158
 3251TIP3    H231389   2.616   0.077   8.571 -0.1688  0.0071 -2.0357
 3252TIP3   OH231390   5.146   2.493   7.674  0.5143 -0.2670  0.0210
 3252TIP3    H131391   5.223   2.439   7.658  0.6976  0.2975 -1.0752
 3252TIP3    H231392   5.099   2.447   7.744  2.2174 -0.2169  1.2671
 3253TIP3   OH231393   5.460   5.257   1.671 -0.5158  0.2473  0.2311
 3253TIP3    H131394   5.464   5.347   1.704 -0.2361 -0.2676  1.7017
 3253TIP3    H231395   5.494   5.204   1.743 -3.0962 -1.2983  0.4418
 3254TIP3   OH231396   3.641   5.179   8.149 -0.3714 -0.6385 -0.0958
 3254TIP3    H131397   3.648   5.091   8.185  1.6239 -0.9441 -1.0798
 3254TIP3    H231398   3.691   5.176   8.068  2.7743  2.2026  1.4616
 3255TIP3   OH231399   1.253   4.705   8.380 -0.7913 -0.6276 -0.8493
 3255TIP3    H131400   1.340   4.726   8.348  0.9456 -0.3172  3.3731
 3255TIP3    H231401   1.198   4.779   8.355  1.3075  1.3536  0.1116
 3256TIP3   OH231402   1.745   4.982   1.041 -0.2406 -0.0846  0.2958
 3256TIP3    H131403   1.709   5.027   1.117  0.1171 -0.0592  0.4545
 3256TIP3    H231404   1.837   5.010   1.038 -0.8142  1.8911 -1.5897
 3257TIP3   OH231405   5.763   2.261   0.483 -0.1843 -0.1116 -0.0381
 3257TIP3    H131406   5.847   2.292   0.516  1.5841 -2.7558 -1.6629
 3257TIP3    H231407   5.752   2.307   0.399 -0.3600  0.1780  0.1395
 3258TIP3   OH231408   5.539   3.195   8.239 -0.1827  0.0694  0.8826
 3258TIP3    H131409   5.605   3.213   8.306 -0.0130 -0.2517  0.8059
 3258TIP3    H231410   5.537   3.274   8.185  1.4805 -0.5801 -0.2291
 3259TIP3   OH231411   0.555   2.033   7.011  0.1085  0.9015 -0.2586
 3259TIP3    H131412   0.480   1.993   6.966 -0.5053  1.6423  0.0761
 3259TIP3    H231413   0.621   1.964   7.014 -0.2027  0.5281 -1.4156
 3260TIP3   OH231414   0.108   5.135   8.411  0.0212 -0.3679  0.1435
 3260TIP3    H131415   0.172   5.125   8.339  0.1229 -3.3094  0.4967
 3260TIP3    H231416   0.112   5.051   8.457 -2.9303 -0.0329  1.1874
 3261TIP3   OH231417   6.663   4.449   6.970  0.1495 -0.1254 -0.1278
 3261TIP3    H131418   6.702   4.404   7.045  2.3206  2.9615  0.7884
 3261TIP3    H231419   6.581   4.485   7.003  1.0060  1.0640  0.7689
 3262TIP3   OH231420   4.479   2.941   6.453 -0.1646  0.2799 -0.2712
 3262TIP3    H131421   4.535   2.876   6.495  0.7167  1.4197  0.3688
 3262TIP3    H231422   4.422   2.972   6.523 -0.8981 -0.1154 -0.6795
 3263TIP3   OH231423   2.593   5.862   0.487 -0.1664  0.1593 -0.5807
 3263TIP3    H131424   2.569   5.903   0.403  1.2037 -0.1526 -1.1472
 3263TIP3    H231425   2.681   5.829   0.473  0.0956  0.1189  1.0159
 3264TIP3   OH231426   0.114   4.914   0.164  0.3821 -0.5855  0.3817
 3264TIP3    H131427   0.061   4.974   0.111  0.4938 -0.0522  0.8519
 3264TIP3    H231428   0.157   4.972   0.228  2.1606 -0.8727 -0.4762
 3265TIP3   OH231429   0.985   2.397   8.208 -0.4755 -0.1028 -0.6025
 3265TIP3    H131430   0.919   2.437   8.264 -2.3885  0.0508 -2.8123
 3265TIP3    H231431   1.045   2.468   8.188 -0.4252  0.1181  0.2760
 3266TIP3   OH231432   0.857   0.143   1.142 -0.1885 -0.2369 -0.4530
 3266TIP3    H131433   0.912   0.104   1.074 -1.4730 -1.6496 -0.7585
 3266TIP3    H231434   0.788   0.189   1.094 -0.7807 -0.7663 -0.1365
 3267TIP3   OH231435   4.801   1.930   1.854  0.6908  0.1647 -0.7187
 3267TIP3    H131436   4.727   1.906   1.799  1.5257  0.6178 -2.0984
 3267TIP3    H231437   4.870   1.954   1.792  1.7728  0.4068  0.5328
 3268TIP3   OH231438   5.462   1.542   7.905  0.3899  0.4972 -0.1940
 3268TIP3    H131439   5.550   1.580   7.902 -0.7392  3.3352 -2.6638
 3268TIP3    H231440   5.469   1.461   7.854  1.8307 -0.1214  0.9194
 3269TIP3   OH231441   5.975   0.769   6.928  0.2186  0.6916 -0.7537
 3269TIP3    H131442   5.986   0.743   6.836  1.3797 -0.6166 -0.2786
 3269TIP3    H231443   5.924   0.697   6.966 -1.0360  1.6619 -0.5543
 3270TIP3   OH231444   1.412   5.769   8.469  0.2973  0.0779 -0.7421
 3270TIP3    H131445   1.496   5.731   8.493  0.3547  0.2731 -0.6280
 3270TIP3    H231446   1.403   5.751   8.376 -0.3952 -1.5789 -0.3820
 3271TIP3   OH231447   0.179   4.922   7.248 -0.1096  0.0494  0.1488
 3271TIP3    H131448   0.249   4.960   7.302  2.4915 -1.3230 -2.0270
 3271TIP3    H231449   0.135   4.998   7.210  0.7041  0.9454  0.9412
 3272TIP3   OH231450   4.401   4.844   8.441  0.2513 -0.2419  0.1477
 3272TIP3    H131451   4.445   4.904   8.501 -0.7017 -1.9685  2.7380
 3272TIP3    H231452   4.423   4.757   8.473 -2.5734 -1.2091 -0.2100
 3273TIP3   OH231453   2.659   5.036   8.623 -0.3926  0.3560  0.1379
 3273TIP3    H131454   2.706   5.083   8.691 -1.2442  0.5344  0.6151
 3273TIP3    H231455   2.593   5.098   8.591 -0.5795 -0.0228 -0.2363
 3274TIP3   OH231456   1.439   5.391   1.068 -0.1062 -0.1345 -0.2311
 3274TIP3    H131457   1.357   5.428   1.034 -0.3326  2.0153  2.2984
 3274TIP3    H231458   1.493   5.468   1.087  0.9049 -1.2764  1.8218
 3275TIP3   OH231459   1.785   0.613   0.047  0.8522 -0.0394 -0.8461
 3275TIP3    H131460   1.806   0.551   0.116 -1.3573  1.7363  1.6256
 3275TIP3    H231461   1.832   0.693   0.071 -0.4249  0.7868 -0.9915
 3276TIP3   OH231462   5.224   1.017   6.260 -0.0529  0.4740 -0.6513
 3276TIP3    H131463   5.298   0.975   6.304  0.5236 -0.1032 -2.1204
 3276TIP3    H231464   5.247   1.016   6.168 -0.6896  2.7548 -0.8880
 3277TIP3   OH231465   0.803   5.149   7.727  0.1604 -0.0011  0.0673
 3277TIP3    H131466   0.840   5.082   7.784  0.7371  1.2302  1.2039
 3277TIP3    H231467   0.710   5.126   7.721 -0.2918  0.6941  2.8882
 3278TIP3   OH231468   3.716   3.616   7.965  0.8731  0.2316 -0.0494
 3278TIP3    H131469   3.623   3.629   7.981  0.9612  2.1926 -0.8422
 3278TIP3    H231470   3.758   3.640   8.048  0.7199 -0.3417  0.2036
 3279TIP3   OH231471   3.036   5.423   6.221  0.8472 -0.0433 -0.1764
 3279TIP3    H131472   3.066   5.455   6.306 -1.3610 -0.2494  0.7518
 3279TIP3    H231473   3.027   5.328   6.232  3.0228 -0.4815 -1.5080
 3280TIP3   OH231474   1.690   5.176   7.067  0.3310  0.0506  0.3652
 3280TIP3    H131475   1.670   5.095   7.112  1.3352 -0.0623  0.6288
 3280TIP3    H231476   1.606   5.205   7.031 -0.0858 -0.9477  0.5094
 3281TIP3   OH231477   2.315   0.093   7.721 -0.1169 -0.1430  0.0452
 3281TIP3    H131478   2.316   0.006   7.760  1.1210 -0.5003 -0.7233
 3281TIP3    H231479   2.234   0.096   7.671  0.7904 -1.6902 -1.6544
 3282TIP3   OH231480   4.504   3.374   0.510 -0.3459  0.0731  0.2859
 3282TIP3    H131481   4.474   3.465   0.500 -1.8456 -0.4074  0.1540
 3282TIP3    H231482   4.596   3.377   0.485 -0.0953  1.7372  1.2463
 3283TIP3   OH231483   2.127   1.950   8.048 -0.3078  0.2944  0.0085
 3283TIP3    H131484   2.149   1.867   8.090 -3.8865 -0.9623 -0.3143
 3283TIP3    H231485   2.102   2.008   8.120 -1.0146  0.0025 -0.0041
 3284TIP3   OH231486   3.283   5.737   1.493  0.0431 -0.5659 -0.0934
 3284TIP3    H131487   3.312   5.687   1.416  2.8798 -0.9694  1.1151
 3284TIP3    H231488   3.271   5.670   1.561  2.0960  0.1116  1.0312
 3285TIP3   OH231489   3.270   5.928   0.155 -0.5917 -0.8503  0.0674
 3285TIP3    H131490   3.257   5.835   0.175  0.8145 -1.1316 -0.1999
 3285TIP3    H231491   3.332   5.929   0.083  1.0419  0.3105  1.3924
 3286TIP3   OH231492   2.257   3.518   7.046  0.2186 -0.2340  0.8799
 3286TIP3    H131493   2.309   3.438   7.044  2.9265  1.4197 -0.1915
 3286TIP3    H231494   2.205   3.515   6.965  1.8140 -0.0580 -0.2016
 3287TIP3   OH231495   6.659   5.490   2.158  0.0816  0.0632 -0.1873
 3287TIP3    H131496   6.651   5.577   2.197 -0.4972 -0.4242  0.7984
 3287TIP3    H231497   6.708   5.505   2.077  2.5012  0.9250  1.3442
 3288TIP3   OH231498   3.137   0.320   8.448 -0.0472  0.4777  0.1553
 3288TIP3    H131499   3.170   0.231   8.443 -0.8775  0.1867 -0.2333
 3288TIP3    H231500   3.215   0.375   8.436  0.2819 -0.2003 -0.9332
 3289TIP3   OH231501   1.250   6.674   1.346  0.3165  0.6352  0.3714
 3289TIP3    H131502   1.297   6.602   1.305 -0.9580 -0.2052  0.3018
 3289TIP3    H231503   1.287   6.753   1.307  1.7327  0.0319  0.4307
 3290TIP3   OH231504   4.884   3.808   7.743 -0.0721  0.5685  0.2306
 3290TIP3    H131505   4.799   3.851   7.753  0.0030  0.5387  1.0599
 3290TIP3    H231506   4.875   3.726   7.792 -0.4867 -0.7912 -1.9753
 3291TIP3   OH231507   5.463   3.892   7.986  0.0168  0.2429 -0.6046
 3291TIP3    H131508   5.397   3.844   8.035  0.0215  1.3955  0.5969
 3291TIP3    H231509   5.544   3.876   8.033 -0.2537  2.7285  0.9077
 3292TIP3   OH231510   2.511   0.752   0.216  0.6126 -0.0543 -0.6331
 3292TIP3    H131511   2.468   0.776   0.134 -0.2391  0.9498  0.0811
 3292TIP3    H231512   2.439   0.726   0.274  0.8194  2.4229  0.8512
 3293TIP3   OH231513   3.024   1.876   2.080  0.0168  0.2849 -0.0560
 3293TIP3    H131514   3.030   1.969   2.056  1.2661  0.2846  0.1624
 3293TIP3    H231515   2.963   1.874   2.153 -1.8036  0.6236 -1.5036
 3294TIP3   OH231516   6.670   6.477   7.523  0.3776  0.2333  0.7043
 3294TIP3    H131517   6.675   6.457   7.429  0.0897 -0.8362  0.8983
 3294TIP3    H231518   6.576   6.471   7.544  0.6399 -2.3357  1.5831
 3295TIP3   OH231519   4.287   4.960   1.205  0.0886 -0.3911 -0.1614
 3295TIP3    H131520   4.271   5.054   1.200  0.8277 -0.2589 -0.1447
 3295TIP3    H231521   4.376   4.952   1.240 -0.5645 -1.1155  1.4603
 3296TIP3   OH231522   0.555   1.112   1.286  0.0358  0.4942  0.3974
 3296TIP3    H131523   0.625   1.071   1.235 -0.1767  1.6845 -0.9049
 3296TIP3    H231524   0.587   1.109   1.377  0.2017 -2.1392  0.3404
 3297TIP3   OH231525   0.043   5.486   7.464 -0.2055  0.0648 -0.0046
 3297TIP3    H131526   0.002   5.427   7.402  0.9001 -0.4734 -0.2444
 3297TIP3    H231527  -0.000   5.570   7.450 -0.2198 -0.1414 -1.2405
 3298TIP3   OH231528   4.428   6.287   7.152  0.0739 -0.7001  0.3251
 3298TIP3    H131529   4.497   6.298   7.087 -1.9760  1.2098 -1.7243
 3298TIP3    H231530   4.422   6.192   7.165  0.7943 -1.1388 -2.0431
 3299TIP3   OH231531   6.196   2.106   7.227 -0.0735  0.0478 -0.1567
 3299TIP3    H131532   6.250   2.046   7.176  1.1270 -1.0208  2.2034
 3299TIP3    H231533   6.246   2.188   7.227 -1.3307  0.9325 -2.7118
 3300TIP3   OH231534   3.707   5.439   0.627 -0.2146 -0.6643  0.0809
 3300TIP3    H131535   3.629   5.492   0.646 -0.5838 -1.1789  0.0190
 3300TIP3    H231536   3.725   5.393   0.709  0.6838  0.2688  0.4385
 3301TIP3   OH231537   2.705   0.977   1.712 -0.0667 -0.3081  0.5419
 3301TIP3    H131538   2.799   0.981   1.724 -0.0199 -0.8626  0.3845
 3301TIP3    H231539   2.671   0.947   1.796 -0.3762  2.5588  1.5620
 3302TIP3   OH231540   2.793   0.097   2.072 -0.1842  0.7310  0.2797
 3302TIP3    H131541   2.869   0.148   2.046 -0.0176  0.9759  1.1995
 3302TIP3    H231542   2.770   0.130   2.159  1.0918 -1.9740  1.7948
 3303TIP3   OH231543   1.523   0.203   6.931  0.1472 -1.0160 -0.4973
 3303TIP3    H131544   1.449   0.215   6.991  2.4416 -0.5067  2.4778
 3303TIP3    H231545   1.483   0.203   6.844 -3.1997  0.3743  0.8461
 3304TIP3   OH231546   6.732   3.316   2.269 -0.0445 -0.6188  0.3350
 3304TIP3    H131547   6.664   3.299   2.334  1.1981 -0.7925  1.6404
 3304TIP3    H231548   6.719   3.408   2.244 -1.4237 -0.9602 -0.2748
 3305TIP3   OH231549   4.875   0.267   7.223  0.2092 -0.8117 -0.2446
 3305TIP3    H131550   4.800   0.325   7.214  0.1801 -0.8782 -0.4450
 3305TIP3    H231551   4.838   0.183   7.249  0.2909 -0.6281  0.4820
 3306TIP3   OH231552   2.440   2.150   6.398  0.2646  0.3413  0.2372
 3306TIP3    H131553   2.372   2.162   6.464 -1.1224 -0.5061 -0.9854
 3306TIP3    H231554   2.426   2.222   6.336 -0.1625 -0.3909 -0.5326
 3307TIP3   OH231555   2.486   6.277   0.113 -0.1215  0.3563 -0.4708
 3307TIP3    H131556   2.567   6.319   0.141 -0.5774  3.4581 -3.1817
 3307TIP3    H231557   2.511   6.226   0.035 -0.5619  0.3477 -0.6104
 3308TIP3   OH231558   5.632   4.105   0.474 -0.7237 -0.0519  0.1555
 3308TIP3    H131559   5.711   4.136   0.430 -0.5744 -0.5668  0.0480
 3308TIP3    H231560   5.601   4.180   0.525 -1.1716  0.7086 -1.1860
 3309TIP3   OH231561   5.947   3.893   1.525  0.3592  0.5729 -0.2493
 3309TIP3    H131562   6.008   3.947   1.474  1.1866 -0.0487  0.0738
 3309TIP3    H231563   5.985   3.888   1.612  0.2426 -0.4598 -0.2480
 3310TIP3   OH231564   0.383   3.133   8.299 -0.8289  0.1651 -0.3624
 3310TIP3    H131565   0.324   3.136   8.224  0.9678 -0.9504 -1.9304
 3310TIP3    H231566   0.463   3.176   8.269  0.2895 -1.1732  0.5339
 3311TIP3   OH231567   4.205   1.536   8.464 -0.2711  1.8122  0.1393
 3311TIP3    H131568   4.225   1.572   8.551 -1.4577 -0.9675  1.7135
 3311TIP3    H231569   4.111   1.554   8.453 -0.1354  2.0945 -0.5454
 3312TIP3   OH231570   5.992   1.318   7.208 -0.4168 -0.1708  0.6506
 3312TIP3    H131571   6.067   1.375   7.192  0.4729 -1.3012  0.6571
 3312TIP3    H231572   5.927   1.374   7.250 -1.1712  1.8764 -2.8266
 3313TIP3   OH231573   6.749   6.742   8.270  0.3643  0.1053  0.4497
 3313TIP3    H131574   6.670   6.741   8.324 -0.7172  1.3353 -1.0124
 3313TIP3    H231575   6.742   6.664   8.215 -1.8948  2.1156 -2.3571
 3314TIP3   OH231576   3.197   3.547   8.188 -0.0642  0.5840  0.4649
 3314TIP3    H131577   3.146   3.495   8.126  0.0610  1.2069 -0.1714
 3314TIP3    H231578   3.149   3.630   8.194 -0.3332  0.3650  1.5634
 3315TIP3   OH231579   4.418   0.648   0.162  0.3992 -0.5887 -0.3583
 3315TIP3    H131580   4.349   0.710   0.139  0.3252 -0.1814  0.8754
 3315TIP3    H231581   4.373   0.563   0.166  0.3000 -0.5746 -1.0926
 3316TIP3   OH231582   1.275   5.369   8.608 -0.4245  0.0757 -0.3647
 3316TIP3    H131583   1.241   5.404   8.525 -2.5223  0.5542  0.6237
 3316TIP3    H231584   1.238   5.280   8.612  1.0149 -0.5612 -0.6662
 3317TIP3   OH231585   4.230   1.037   2.215 -0.5456 -0.4521  0.1651
 3317TIP3    H131586   4.247   1.051   2.308  0.5123 -1.6713  0.1983
 3317TIP3    H231587   4.143   0.997   2.212 -0.5335 -0.5219  0.6416
 3318TIP3   OH231588   5.009   6.236   7.042 -0.3191 -0.2154  0.9160
 3318TIP3    H131589   5.019   6.192   7.126 -0.4258 -2.3106 -0.1199
 3318TIP3    H231590   4.954   6.312   7.061  2.1606  1.1612  3.2667
 3319TIP3   OH231591   2.894   4.160   1.905  0.3931 -0.3540  0.1040
 3319TIP3    H131592   2.845   4.079   1.924  1.1761 -0.7819  0.3225
 3319TIP3    H231593   2.986   4.135   1.911  0.6624  0.8627  1.4842
 3320TIP3   OH231594   4.890   6.514   7.981  0.3182 -0.4187 -0.3641
 3320TIP3    H131595   4.864   6.424   7.961  0.1310 -0.5347  0.3785
 3320TIP3    H231596   4.845   6.534   8.063 -1.0406  0.9686 -1.4131
 3321TIP3   OH231597   0.050   2.688   1.236  0.0170 -0.1655 -0.5259
 3321TIP3    H131598   0.033   2.594   1.229  1.0246 -0.3628 -0.4897
 3321TIP3    H231599   0.145   2.694   1.248 -0.3208  0.6414  2.8506
 3322TIP3   OH231600   0.642   1.202   6.865 -0.4210 -0.0260 -0.0127
 3322TIP3    H131601   0.661   1.112   6.891 -2.5771 -0.1492  1.3975
 3322TIP3    H231602   0.614   1.196   6.774 -0.6984 -0.7921  0.1220
 3323TIP3   OH231603   4.991   4.224   0.163  0.3307  0.2752 -0.9331
 3323TIP3    H131604   4.900   4.202   0.184 -0.0171  2.3516 -0.0366
 3323TIP3    H231605   5.023   4.148   0.114 -1.1161 -1.5775  0.8034
 3324TIP3   OH231606   4.561   1.181   0.862 -0.2953 -0.4020 -0.6318
 3324TIP3    H131607   4.562   1.221   0.775 -1.8552  1.1473 -0.0048
 3324TIP3    H231608   4.617   1.237   0.915  0.4579 -1.2013 -0.5727
 3325TIP3   OH231609   5.941   1.846   0.576 -0.4029  0.4760 -0.1013
 3325TIP3    H131610   5.962   1.833   0.483 -2.0862  0.0921 -0.4511
 3325TIP3    H231611   6.025   1.831   0.621  0.1303 -0.8222 -1.4330
 3326TIP3   OH231612   4.992   1.823   0.268  0.4361  0.2063 -0.2130
 3326TIP3    H131613   5.086   1.840   0.279  0.1968  1.6752 -0.2555
 3326TIP3    H231614   4.982   1.798   0.177  0.7789  0.1122 -0.2260
 3327TIP3   OH231615   4.873   5.314   2.529 -0.6441 -0.2369  0.4197
 3327TIP3    H131616   4.865   5.409   2.520 -1.1493 -0.2885  0.2849
 3327TIP3    H231617   4.877   5.281   2.439 -0.5069 -0.3475  0.4656
 3328TIP3   OH231618   0.382   3.124   7.828 -0.0764  0.3042 -0.2315
 3328TIP3    H131619   0.407   3.083   7.745 -0.5804  0.2579 -0.3685
 3328TIP3    H231620   0.290   3.100   7.839 -0.2007  0.8684  0.0080
 3329TIP3   OH231621   5.309   4.306   0.150  0.2778  0.7332  0.6720
 3329TIP3    H131622   5.322   4.267   0.063  0.4193 -2.6608  2.0521
 3329TIP3    H231623   5.369   4.380   0.152  0.6914  0.5716 -1.9102
 3330TIP3   OH231624   6.217   5.133   8.209 -0.4965  0.3700 -0.6345
 3330TIP3    H131625   6.176   5.211   8.169 -1.7707 -0.3676 -0.8250
 3330TIP3    H231626   6.144   5.072   8.222  0.3024 -0.3640  0.5696
 3331TIP3   OH231627   0.586   0.032   0.858  0.2385  0.1953  0.3016
 3331TIP3    H131628   0.499   0.060   0.887 -0.4607 -1.2501 -0.3278
 3331TIP3    H231629   0.642   0.108   0.874 -0.8455  0.6921  2.0311
 3332TIP3   OH231630   4.814   6.090   7.329  0.1286 -0.0244 -0.2980
 3332TIP3    H131631   4.769   6.024   7.276  1.3446 -2.5353  1.5854
 3332TIP3    H231632   4.752   6.111   7.399  0.5106 -0.7890  0.2822
 3333TIP3   OH231633   3.315   5.200   0.637  0.1651 -0.4181  0.9253
 3333TIP3    H131634   3.339   5.215   0.728  0.0205 -1.2439  1.1071
 3333TIP3    H231635   3.226   5.165   0.641 -0.2524  0.5182  0.3925
 3334TIP3   OH231636   5.609   5.955   8.544  0.3648  1.2876 -0.4505
 3334TIP3    H131637   5.650   6.017   8.604 -2.4970  0.9861  2.1123
 3334TIP3    H231638   5.548   6.008   8.493  1.4758  1.2548 -1.8589
 3335TIP3   OH231639   1.836   4.188   1.640  0.8313 -0.2032 -0.4653
 3335TIP3    H131640   1.828   4.105   1.687 -0.0645 -0.0792 -0.3878
 3335TIP3    H231641   1.872   4.249   1.705 -1.3432  0.2312  0.4265
 3336TIP3   OH231642   2.406   1.337   6.708  0.1566  0.0049  0.4473
 3336TIP3    H131643   2.406   1.385   6.625 -1.1696 -1.6473 -0.5668
 3336TIP3    H231644   2.315   1.339   6.737  0.4570 -0.1518  1.4613
 3337TIP3   OH231645   2.002   4.330   6.995 -0.1959 -0.5123  0.2052
 3337TIP3    H131646   2.015   4.241   7.029  0.7621 -0.3678  0.2635
 3337TIP3    H231647   1.917   4.357   7.030  0.2120 -0.8187  1.5070
 3338TIP3   OH231648   4.816   2.675   1.536 -0.1183 -0.2083  0.3440
 3338TIP3    H131649   4.835   2.636   1.621  0.1163  0.6474  0.6966
 3338TIP3    H231650   4.820   2.601   1.474  1.2627 -0.5978  0.8502
 3339TIP3   OH231651   6.058   1.574   7.593  0.5195  0.3009 -0.2286
 3339TIP3    H131652   6.070   1.636   7.521  1.3435  1.6919  1.0400
 3339TIP3    H231653   5.965   1.551   7.591  0.2933  1.2417 -0.9935
 3340TIP3   OH231654   5.953   0.220   7.429  0.1219 -0.0367 -0.4825
 3340TIP3    H131655   5.908   0.255   7.353  0.0406 -1.7506 -1.2501
 3340TIP3    H231656   5.917   0.133   7.442  2.2932 -0.9929 -0.3780
 3341TIP3   OH231657   4.758   2.402   6.676 -0.3674 -0.0586 -0.1650
 3341TIP3    H131658   4.666   2.376   6.680 -0.4643  0.1572 -0.8794
 3341TIP3    H231659   4.806   2.322   6.701 -0.6223 -1.3983 -3.4708
 3342TIP3   OH231660   0.348   6.751   8.007  0.3266 -0.3198 -0.2113
 3342TIP3    H131661   0.261   6.789   7.993 -0.1518 -1.3337 -0.1547
 3342TIP3    H231662   0.386   6.804   8.077 -0.6827 -0.5011  0.5073
 3343TIP3   OH231663   4.938   6.369   0.176  0.1569 -0.6200  0.6937
 3343TIP3    H131664   5.027   6.383   0.209  0.9286  0.3982 -1.6253
 3343TIP3    H231665   4.896   6.454   0.186 -1.0523 -1.3990  2.9386
 3344TIP3   OH231666   0.365   4.335   0.664 -0.3446  0.1239  0.1171
 3344TIP3    H131667   0.283   4.332   0.615  0.8350  1.1643 -2.0323
 3344TIP3    H231668   0.368   4.423   0.702  0.7418  0.9180 -1.6828
 3345TIP3   OH231669   4.286   4.091   8.247  0.2703  0.5053 -0.3424
 3345TIP3    H131670   4.346   4.018   8.231 -1.1745 -0.3463 -2.1443
 3345TIP3    H231671   4.222   4.057   8.309 -1.0673 -0.1874 -2.0530
 3346TIP3   OH231672   5.982   6.701   1.152  0.2213  0.0894  0.1160
 3346TIP3    H131673   5.922   6.661   1.089  0.9116  1.9693 -1.8205
 3346TIP3    H231674   6.069   6.687   1.115  0.8555 -0.6449  1.7777
 3347TIP3   OH231675   4.707   4.227   1.718 -0.0319  0.0337  0.2434
 3347TIP3    H131676   4.649   4.200   1.788 -2.0962 -0.7540 -1.6424
 3347TIP3    H231677   4.761   4.150   1.699  1.8112  0.7951  2.0590
 3348TIP3   OH231678   1.508   5.645   7.904 -0.3109  0.1924 -0.2294
 3348TIP3    H131679   1.541   5.573   7.850 -0.3935  0.2802 -0.3963
 3348TIP3    H231680   1.558   5.639   7.985 -0.5932 -0.2999 -0.0848
 3349TIP3   OH231681   5.311   0.061   2.040  0.2009  0.5247  0.5889
 3349TIP3    H131682   5.268   0.079   1.956  2.9338 -2.9621 -1.8203
 3349TIP3    H231683   5.394   0.109   2.036  1.0930 -0.9740  0.4975
 3350TIP3   OH231684   1.806   4.814   5.781 -0.1620 -0.0333 -0.0569
 3350TIP3    H131685   1.865   4.788   5.709 -1.7839 -0.4987 -1.2842
 3350TIP3    H231686   1.817   4.908   5.788  0.0932  0.0101 -0.8763
 3351TIP3   OH231687   0.705   5.615   0.607 -0.2918 -0.0182 -0.1682
 3351TIP3    H131688   0.619   5.607   0.566  0.2384 -1.3532 -1.1069
 3351TIP3    H231689   0.757   5.665   0.544  0.9211 -3.2409 -1.9586
 3352TIP3   OH231690   0.903   0.028   8.170 -0.2788  0.2093 -0.2727
 3352TIP3    H131691   0.957  -0.028   8.114 -0.0078 -0.9784  1.0917
 3352TIP3    H231692   0.817  -0.014   8.171 -0.5019  0.6638 -0.4336
 3353TIP3   OH231693   4.198   1.467   1.861 -1.0181 -0.2828 -0.4363
 3353TIP3    H131694   4.280   1.475   1.910  0.6952 -0.6124 -3.0655
 3353TIP3    H231695   4.132   1.507   1.918  1.0010  0.3373  1.6162
 3354TIP3   OH231696   5.627   5.332   7.454  0.2261 -0.0296 -0.9491
 3354TIP3    H131697   5.696   5.299   7.511 -0.9978 -0.0738  0.5801
 3354TIP3    H231698   5.549   5.283   7.481 -0.4552  0.1667 -2.4852
 3355TIP3   OH231699   2.941   2.591   1.815  0.0014 -0.1935 -0.2646
 3355TIP3    H131700   2.909   2.608   1.726  2.4004  0.4074 -1.0850
 3355TIP3    H231701   2.978   2.674   1.843  1.6714 -1.0553  0.2074
 3356TIP3   OH231702   5.360   4.699   8.188  0.0851  0.2715  0.2216
 3356TIP3    H131703   5.332   4.719   8.277 -0.4736  0.2031  0.0637
 3356TIP3    H231704   5.414   4.621   8.197  0.7433  0.7572  0.6048
 3357TIP3   OH231705   3.666   2.496   1.134  0.2519 -0.1969  0.2235
 3357TIP3    H131706   3.623   2.415   1.103  1.0596 -0.0369 -1.4570
 3357TIP3    H231707   3.759   2.479   1.121  0.4208  1.0460 -0.2702
 3358TIP3   OH231708   4.468   3.893   7.552 -0.4560  0.4266  0.6286
 3358TIP3    H131709   4.453   3.979   7.513  0.5838  0.6355  0.6497
 3358TIP3    H231710   4.528   3.850   7.491  0.2755  0.3226  1.4059
 3359TIP3   OH231711   6.871   1.998   1.510 -0.0339  0.5213  0.4394
 3359TIP3    H131712   6.882   1.982   1.603  0.6076 -1.6503  0.0490
 3359TIP3    H231713   6.778   2.018   1.499 -0.4095 -0.6298  1.3778
 3360TIP3   OH231714   3.740   2.713   0.973 -0.6336 -0.4519 -0.1330
 3360TIP3    H131715   3.702   2.654   1.038 -0.2055 -0.8308 -0.2239
 3360TIP3    H231716   3.826   2.676   0.954 -0.0403  0.6172  0.3651
 3361TIP3   OH231717   3.481   6.490   2.253 -0.1094 -0.0043  0.2462
 3361TIP3    H131718   3.397   6.448   2.274 -0.0665  0.3934  1.2633
 3361TIP3    H231719   3.467   6.583   2.269  1.0073 -0.1190  2.1452
 3362TIP3   OH231720   1.704   4.903   7.276  0.0445 -0.2816 -0.5524
 3362TIP3    H131721   1.695   4.860   7.191 -0.6073  1.9750 -1.7179
 3362TIP3    H231722   1.617   4.938   7.295  0.0309 -1.2297  1.3745
 3363TIP3   OH231723   0.232   0.638   7.421  0.5876 -0.6170 -0.1331
 3363TIP3    H131724   0.142   0.648   7.388  0.5050 -0.5644  0.1058
 3363TIP3    H231725   0.223   0.642   7.516  1.0828  1.4747 -0.1241
 3364TIP3   OH231726   4.688   3.816   0.468 -0.0886 -0.1372 -0.5044
 3364TIP3    H131727   4.620   3.864   0.421 -0.9294 -1.7706 -1.0510
 3364TIP3    H231728   4.757   3.802   0.403  0.3911  0.7568 -0.1983
 3365TIP3   OH231729   4.430   0.428   7.950  0.1546  0.0701 -0.2558
 3365TIP3    H131730   4.471   0.342   7.960 -2.2186 -1.0276  0.6759
 3365TIP3    H231731   4.354   0.412   7.894 -1.0957  1.2574  1.0316
 3366TIP3   OH231732   3.502   5.701   2.214  0.5392  0.9757  0.7322
 3366TIP3    H131733   3.509   5.796   2.222  0.4719  1.0081  0.4362
 3366TIP3    H231734   3.411   5.681   2.235  0.2524  1.1067 -0.3337
 3367TIP3   OH231735   4.566   3.704   2.017  0.3700  0.3930  0.1578
 3367TIP3    H131736   4.471   3.714   2.014  0.1601 -0.8150  1.4010
 3367TIP3    H231737   4.599   3.793   2.023 -0.4892  1.0330 -2.8417
 3368TIP3   OH231738   0.780   2.021   0.386  0.7125 -0.7753 -0.2665
 3368TIP3    H131739   0.813   2.042   0.473  1.6728  0.8713 -0.9814
 3368TIP3    H231740   0.710   1.958   0.401 -0.3192  0.7684  1.8404
 3369TIP3   OH231741   1.562   5.902   0.803  0.6031 -0.6657  0.0239
 3369TIP3    H131742   1.656   5.891   0.792  0.4041 -1.2173 -1.4285
 3369TIP3    H231743   1.545   5.876   0.894  1.3300 -4.7886 -0.7946
 3370TIP3   OH231744   0.972   4.510   8.298 -0.4002  0.4683 -0.5281
 3370TIP3    H131745   0.969   4.508   8.394 -0.6700 -0.5675 -0.5498
 3370TIP3    H231746   0.881   4.497   8.271  0.0371 -2.3397 -0.9365
 3371TIP3   OH231747   0.110   6.296   6.652  0.1810  0.0545  0.4482
 3371TIP3    H131748   0.092   6.387   6.630 -0.2501 -0.4145 -1.2779
 3371TIP3    H231749   0.203   6.295   6.676  0.5916  0.7186 -0.9899
 3372TIP3   OH231750   0.906   3.566   1.492  0.1627  0.0096 -0.0999
 3372TIP3    H131751   0.918   3.660   1.504  0.3921 -0.0971  0.5482
 3372TIP3    H231752   0.842   3.541   1.558  0.8893 -0.4642  0.4516
 3373TIP3   OH231753   4.416   5.294   7.708 -0.2212 -0.1183 -0.2165
 3373TIP3    H131754   4.391   5.219   7.653 -1.4493  0.1216 -0.0127
 3373TIP3    H231755   4.445   5.361   7.645 -1.4913  0.1070 -0.5842
 3374TIP3   OH231756   3.167   6.399   1.030  1.1237 -0.4892  0.0923
 3374TIP3    H131757   3.215   6.327   0.989  1.0485 -0.4815 -0.0116
 3374TIP3    H231758   3.077   6.369   1.033  1.0552 -0.3122 -0.1543
 3375TIP3   OH231759   0.374   6.562   0.035 -0.1909  1.1284  0.1909
 3375TIP3    H131760   0.451   6.506   0.041 -0.3031  1.0430  0.8466
 3375TIP3    H231761   0.308   6.508  -0.007  0.2425  1.3617 -0.8536
 3376TIP3   OH231762   1.741   3.258   2.403  0.1222 -0.2220  0.0015
 3376TIP3    H131763   1.728   3.349   2.430 -0.7123 -0.4891  0.5436
 3376TIP3    H231764   1.707   3.254   2.313 -0.0356 -0.0410  0.0526
 3377TIP3   OH231765   6.230   0.074   0.973  0.3658  0.1053  0.5856
 3377TIP3    H131766   6.178   0.014   0.919  2.6854 -0.3981 -1.2933
 3377TIP3    H231767   6.238   0.153   0.919  1.3629  0.2292  0.8970
 3378TIP3   OH231768   5.686   6.270   7.320  0.3446  0.1470  0.3957
 3378TIP3    H131769   5.725   6.295   7.236 -0.1623  0.1943  0.1729
 3378TIP3    H231770   5.603   6.228   7.297 -0.4444  1.3568  0.9384
 3379TIP3   OH231771   3.039   6.341   8.635  0.5899 -0.2009  0.1999
 3379TIP3    H131772   3.129   6.340   8.604  0.3775  1.3461 -0.5253
 3379TIP3    H231773   3.037   6.275   8.705  2.5634  0.6004  1.0581
 3380TIP3   OH231774   4.987   0.753   6.055 -0.2071 -0.2345 -0.4687
 3380TIP3    H131775   4.909   0.697   6.055 -0.8092  0.5804  0.2154
 3380TIP3    H231776   5.029   0.736   6.139 -0.3482  0.2806 -0.2926
 3381TIP3   OH231777   1.440   2.601   7.149  0.3004 -0.4869 -0.0702
 3381TIP3    H131778   1.438   2.633   7.059 -1.3134 -1.5977 -0.4604
 3381TIP3    H231779   1.534   2.592   7.168  0.7470 -3.3072 -2.8037
 3382TIP3   OH231780   1.045   1.771   6.665  0.1689 -0.2628 -0.7830
 3382TIP3    H131781   1.108   1.700   6.661 -1.4199 -1.7654 -0.5758
 3382TIP3    H231782   1.018   1.784   6.574  3.1972  2.8236 -1.4595
 3383TIP3   OH231783   4.274   1.451   7.830  0.0870 -0.6197  0.3733
 3383TIP3    H131784   4.261   1.485   7.741  1.5534 -0.4494  0.1952
 3383TIP3    H231785   4.369   1.445   7.839 -0.0465 -0.8024  1.8769
 3384TIP3   OH231786   1.127   2.315   7.784 -0.1201 -0.1229  0.3053
 3384TIP3    H131787   1.064   2.287   7.718 -1.9359  2.5914  0.7463
 3384TIP3    H231788   1.121   2.249   7.852 -0.0860 -1.5980 -1.0617
 3385TIP3   OH231789   3.651   4.321   0.016  0.2565  0.7373  0.0325
 3385TIP3    H131790   3.707   4.244   0.009 -0.1348  0.3242  1.2602
 3385TIP3    H231791   3.695   4.387  -0.038  0.6812 -0.2806 -0.9029
 3386TIP3   OH231792   0.160   6.365   7.756 -0.1531 -0.5608  0.2359
 3386TIP3    H131793   0.124   6.354   7.844  0.4380  0.3460  0.6100
 3386TIP3    H231794   0.230   6.300   7.750 -0.2451 -0.6757  0.4144
 3387TIP3   OH231795   5.731   0.521   6.640  0.1196 -0.4027 -0.4259
 3387TIP3    H131796   5.721   0.530   6.545 -0.0216 -0.1411 -0.3856
 3387TIP3    H231797   5.654   0.564   6.677  1.1477  1.2523 -0.1303
 3388TIP3   OH231798   4.306   2.762   1.170 -0.4269  0.6324 -0.4687
 3388TIP3    H131799   4.294   2.715   1.253  1.7000 -1.2024 -1.1165
 3388TIP3    H231800   4.217   2.777   1.138 -1.2470 -0.1634  1.2991
 3389TIP3   OH231801   0.752   3.438   7.708  0.5527 -0.4850  0.7043
 3389TIP3    H131802   0.773   3.370   7.644  2.9033  0.3476  0.4857
 3389TIP3    H231803   0.702   3.393   7.776 -1.4026 -1.5553 -1.2851
 3390TIP3   OH231804   0.249   6.043   8.575  0.5293  0.3073  0.2851
 3390TIP3    H131805   0.159   6.027   8.604  1.0919 -0.8641  1.5171
 3390TIP3    H231806   0.297   6.061   8.656  1.8198 -1.2493 -0.0923
 3391TIP3   OH231807   3.560   5.040   1.016  0.4548  0.2568 -0.0439
 3391TIP3    H131808   3.571   4.949   0.991  0.2215  0.0371  0.6279
 3391TIP3    H231809   3.644   5.081   0.996  1.1440 -0.4760  1.1794
 3392TIP3   OH231810   6.339   0.774   1.067  0.2037  0.4600  0.5112
 3392TIP3    H131811   6.380   0.792   1.152 -1.1011 -1.7855  1.7281
 3392TIP3    H231812   6.297   0.689   1.079 -0.2073  0.1674 -2.3605
 3393TIP3   OH231813   4.720   1.327   1.443 -0.5746 -0.4592  0.0232
 3393TIP3    H131814   4.773   1.304   1.519  1.6583 -1.3524 -1.7153
 3393TIP3    H231815   4.697   1.419   1.456 -0.9114 -0.7883  2.1089
 3394TIP3   OH231816   0.098   1.479   8.509  0.4078 -0.2003 -0.1185
 3394TIP3    H131817   0.045   1.401   8.496 -0.9552  0.3993  1.5588
 3394TIP3    H231818   0.114   1.512   8.421 -0.3567 -1.4662 -0.7580
 3395TIP3   OH231819   3.495   0.023   6.940 -0.1201 -0.0296  0.2583
 3395TIP3    H131820   3.426   0.022   6.874 -2.2297 -0.1199  2.2955
 3395TIP3    H231821   3.555   0.092   6.913 -0.9748  0.0235 -1.6222
 3396TIP3   OH231822   6.235   6.377   8.422 -0.0847  0.1084 -0.1344
 3396TIP3    H131823   6.246   6.471   8.404 -0.7907  0.2223 -0.0002
 3396TIP3    H231824   6.153   6.371   8.470 -0.3230 -0.6399 -0.6138
 3397TIP3   OH231825   0.751   1.149   0.879 -0.0622  0.1510  0.4171
 3397TIP3    H131826   0.833   1.155   0.831  0.0339  0.6107  0.6370
 3397TIP3    H231827   0.712   1.236   0.872 -0.9145 -0.2767 -0.3613
 3398TIP3   OH231828   5.760   2.039   0.641  0.1097  0.9435  0.1052
 3398TIP3    H131829   5.741   2.102   0.570 -3.3395 -0.6785 -0.6535
 3398TIP3    H231830   5.825   1.980   0.604 -0.8534  0.7580 -1.4143
 3399TIP3   OH231831   1.374   6.293   1.597  0.0328 -0.1766 -0.2469
 3399TIP3    H131832   1.351   6.280   1.689  0.2261 -1.6815 -0.3801
 3399TIP3    H231833   1.293   6.276   1.550 -0.6827  2.8299 -0.2872
 3400TIP3   OH231834   2.178   3.501   7.969  0.4855  0.4528  0.5179
 3400TIP3    H131835   2.137   3.577   7.928  0.6907 -0.4353 -1.4647
 3400TIP3    H231836   2.105   3.451   8.005  0.1523  0.5983  0.0540
 3401TIP3   OH231837   1.525   2.563   7.865 -0.1464 -0.3257 -0.1488
 3401TIP3    H131838   1.472   2.559   7.785 -0.8202 -0.5408  0.3006
 3401TIP3    H231839   1.508   2.480   7.909  1.2968 -0.8206 -0.4390
 3402TIP3   OH231840   0.292   2.061   2.204 -0.6934 -0.4766  0.0038
 3402TIP3    H131841   0.334   2.017   2.130 -1.4975 -2.0589  0.4380
 3402TIP3    H231842   0.264   1.990   2.261  0.6868  0.7110  2.2990
 3403TIP3   OH231843   1.773   4.251   6.256  0.4321  0.0879  0.2421
 3403TIP3    H131844   1.698   4.280   6.308  0.5598  0.5934  0.1579
 3403TIP3    H231845   1.785   4.159   6.278  0.8587  0.4402  1.5729
 3404TIP3   OH231846   0.991   5.275   8.170 -0.5286  0.6863 -0.5529
 3404TIP3    H131847   0.987   5.347   8.107 -0.7657  0.5064 -0.7483
 3404TIP3    H231848   0.900   5.260   8.194 -0.4252  0.8536 -0.0492
 3405TIP3   OH231849   3.317   4.593   0.549 -0.2406  0.0388  0.1135
 3405TIP3    H131850   3.407   4.588   0.583 -0.1147 -0.0657 -0.2266
 3405TIP3    H231851   3.277   4.665   0.598 -0.2346 -0.4680  0.8696
 3406TIP3   OH231852   1.450   6.861   0.559 -0.0725 -0.4099  0.1363
 3406TIP3    H131853   1.438   6.954   0.580 -0.7848 -0.9277  2.2955
 3406TIP3    H231854   1.421   6.853   0.468  0.7480  1.6004 -0.3618
 3407TIP3   OH231855   5.968   1.718   8.282 -0.8019 -0.3009  0.2620
 3407TIP3    H131856   5.964   1.669   8.199 -0.4452 -1.5243  0.9369
 3407TIP3    H231857   5.941   1.807   8.259  1.8628  0.1236 -1.7319
 3408TIP3   OH231858   2.368   2.238   0.395 -0.0609  0.2323  0.5230
 3408TIP3    H131859   2.336   2.263   0.308 -0.5366 -0.5136  0.4730
 3408TIP3    H231860   2.365   2.142   0.395  0.3371  0.2160  1.2154
 3409TIP3   OH231861   3.729   0.634   1.502  0.1405  0.1375 -0.4393
 3409TIP3    H131862   3.655   0.694   1.496 -0.2177 -0.0227  1.6260
 3409TIP3    H231863   3.699   0.555   1.457 -0.8792  0.1473  0.1927
 3410TIP3   OH231864   3.716   6.356   0.811 -0.1938  0.4695 -0.2349
 3410TIP3    H131865   3.694   6.269   0.778  1.0670  0.1557 -0.3205
 3410TIP3    H231866   3.632   6.396   0.834 -0.9095 -0.1594 -1.6793
 3411TIP3   OH231867   0.510   2.479   7.910  0.1405  0.6052 -0.1066
 3411TIP3    H131868   0.425   2.462   7.950  0.9831  0.5676  1.8105
 3411TIP3    H231869   0.520   2.411   7.844 -0.9637  0.1148  0.2153
 3412TIP3   OH231870   0.726   1.551   0.910 -0.5862 -0.2187 -0.2843
 3412TIP3    H131871   0.800   1.493   0.927 -1.7233 -1.1478  1.8198
 3412TIP3    H231872   0.742   1.628   0.964  0.8995  1.5801 -3.0378
 3413TIP3   OH231873   6.399   0.027   1.546  0.1071 -0.1770  0.4438
 3413TIP3    H131874   6.325   0.080   1.516  0.6104  1.5469  2.1251
 3413TIP3    H231875   6.407   0.046   1.639  2.4390 -0.6329  0.3977
 3414TIP3   OH231876   6.741   0.153   0.467  0.6243  0.3776  0.4420
 3414TIP3    H131877   6.831   0.120   0.462  0.7308  0.7720 -0.2381
 3414TIP3    H231878   6.746   0.228   0.526  0.7290  0.3742  0.4376
 3415TIP3   OH231879   3.525   6.474   8.456 -0.3456  0.4863  0.6526
 3415TIP3    H131880   3.483   6.471   8.370 -0.8181 -0.6482  0.9045
 3415TIP3    H231881   3.618   6.458   8.438 -0.4539  0.1614  0.3581
 3416TIP3   OH231882   3.580   1.126   1.448 -0.1331 -0.4712  0.1855
 3416TIP3    H131883   3.568   1.165   1.535 -0.8788  1.1310 -0.5914
 3416TIP3    H231884   3.640   1.053   1.463  3.1692  2.1965  1.4633
 3417TIP3   OH231885   5.940   4.686   6.241  0.5994 -0.1304  0.3019
 3417TIP3    H131886   5.953   4.727   6.327  1.5138 -0.0763  0.1483
 3417TIP3    H231887   5.847   4.664   6.239 -0.1509  2.6551  0.0821
 3418TIP3   OH231888   0.206   6.661   6.749  0.2747  0.4184 -0.7850
 3418TIP3    H131889   0.167   6.666   6.836  1.1288  0.2001 -0.3747
 3418TIP3    H231890   0.252   6.744   6.738 -1.4950  1.3242 -1.8853
 3419TIP3   OH231891   2.283   3.538   7.678  0.0056 -0.1504 -0.2823
 3419TIP3    H131892   2.338   3.468   7.642 -0.7921 -0.2440 -1.3558
 3419TIP3    H231893   2.252   3.503   7.761  2.5083  0.3693  0.9791
 3420TIP3   OH231894   5.412   6.304   0.649 -0.1871  0.3941  0.7399
 3420TIP3    H131895   5.470   6.355   0.706  0.3338 -0.1981  0.7537
 3420TIP3    H231896   5.390   6.364   0.577 -1.3746  1.3713  1.8689
 3421TIP3   OH231897   5.834   1.999   0.924  0.4156 -0.0423 -0.5392
 3421TIP3    H131898   5.801   2.009   0.835 -0.1212  0.9102 -0.2529
 3421TIP3    H231899   5.915   2.051   0.925  1.0886 -1.0458 -0.7888
 3422TIP3   OH231900   2.856   5.894   6.850 -0.1974 -0.2156 -0.2742
 3422TIP3    H131901   2.806   5.856   6.778 -1.6138 -2.2170  1.6045
 3422TIP3    H231902   2.938   5.922   6.811 -1.2743 -0.3418 -2.8018
 3423TIP3   OH231903   2.137   5.853   8.289 -0.6443  0.0215  0.1621
 3423TIP3    H131904   2.148   5.838   8.383 -2.1346  1.4684  0.6049
 3423TIP3    H231905   2.190   5.931   8.272  0.5605 -0.9034 -0.4680
 3424TIP3   OH231906   1.155   2.609   1.233 -0.5115 -0.2489 -0.1159
 3424TIP3    H131907   1.156   2.661   1.153  3.8728 -0.7244 -0.6447
 3424TIP3    H231908   1.244   2.619   1.268 -1.6072 -1.8224  3.5339
 3425TIP3   OH231909   0.349   0.230   0.507 -0.1425  0.3873  0.0926
 3425TIP3    H131910   0.315   0.255   0.421  0.2933 -1.1313 -0.5629
 3425TIP3    H231911   0.434   0.190   0.488 -0.9115 -1.8235  0.9787
 3426TIP3   OH231912   6.042   5.741   1.717  0.1568 -0.9576  0.2169
 3426TIP3    H131913   6.033   5.670   1.654  1.6011 -1.5460  0.6298
 3426TIP3    H231914   6.019   5.702   1.801  0.9294 -0.9498  0.4415
 3427TIP3   OH231915   0.156   2.437   1.192  0.0589  0.5020 -0.0634
 3427TIP3    H131916   0.066   2.413   1.174 -0.1869  1.2605  0.0986
 3427TIP3    H231917   0.176   2.397   1.276  0.2125 -0.5066 -0.5657
 3428TIP3   OH231918   4.866   2.237   2.323 -0.6040 -0.6967  0.4935
 3428TIP3    H131919   4.851   2.280   2.238  0.3082 -0.4700  0.4407
 3428TIP3    H231920   4.819   2.154   2.317 -2.5598  0.3388  0.6584
 3429TIP3   OH231921   0.001   6.596   0.164  0.1083 -0.2964 -0.6530
 3429TIP3    H131922  -0.048   6.673   0.190 -0.7783 -0.2839 -2.2485
 3429TIP3    H231923   0.077   6.594   0.223 -0.6896  0.8719  0.4480
 3430TIP3   OH231924   0.724   2.053   1.681 -0.0636 -0.5682 -0.0358
 3430TIP3    H131925   0.700   1.961   1.689 -0.0332 -0.7061 -1.4017
 3430TIP3    H231926   0.664   2.099   1.739 -0.1119 -1.4353  0.6142
 3431TIP3   OH231927   4.668   6.491   1.781 -0.0202  0.2856 -0.1400
 3431TIP3    H131928   4.664   6.507   1.875  1.3126  0.4864 -0.0900
 3431TIP3    H231929   4.685   6.577   1.743 -1.8950  0.4315 -0.7012
 3432TIP3   OH231930   6.550   6.307   8.370 -0.2017  0.4536  0.0166
 3432TIP3    H131931   6.550   6.282   8.277 -0.3753 -0.8677  0.3456
 3432TIP3    H231932   6.483   6.375   8.377 -0.5086  0.2390 -0.7504
 3433TIP3   OH231933   4.000   3.968   0.655 -0.2433 -0.4626 -0.3313
 3433TIP3    H131934   4.043   4.045   0.692  2.8429 -0.4986 -3.3560
 3433TIP3    H231935   4.037   3.895   0.703 -2.4630 -0.2797  1.8825
 3434TIP3   OH231936   3.290   1.708   8.242 -0.2731 -0.6656 -0.2208
 3434TIP3    H131937   3.329   1.652   8.309 -0.0094 -1.3261 -0.9087
 3434TIP3    H231938   3.207   1.665   8.221  0.5454 -1.6031 -1.7291
 3435TIP3   OH231939   5.824   0.319   8.694  0.1297  0.5627  0.1869
 3435TIP3    H131940   5.828   0.258   8.768 -0.3569  0.7289  0.3532
 3435TIP3    H231941   5.857   0.402   8.729 -0.1486  0.6549  0.2340
 3436TIP3   OH231942   0.098   6.886   1.105  0.1237  0.2364  0.2714
 3436TIP3    H131943   0.062   6.941   1.174 -3.5857 -0.8056 -0.6066
 3436TIP3    H231944   0.023   6.836   1.073  2.5686 -2.7226 -1.3933
 3437TIP3   OH231945   1.615   2.690   1.595 -0.3787 -0.1335 -0.3126
 3437TIP3    H131946   1.590   2.639   1.672 -0.5239 -0.8158 -0.8001
 3437TIP3    H231947   1.711   2.681   1.591 -0.2869  0.5568  0.2322
 3438TIP3   OH231948   4.202   1.131   8.463 -0.6505  0.5304 -0.3578
 3438TIP3    H131949   4.187   1.074   8.387  0.2558 -0.4420  0.1647
 3438TIP3    H231950   4.219   1.217   8.425 -2.6320  0.6282 -1.1400
 3439TIP3   OH231951   5.181   6.043   1.875  0.1218  0.3180 -0.4385
 3439TIP3    H131952   5.196   6.136   1.859  1.2231  0.1382 -0.5882
 3439TIP3    H231953   5.203   6.030   1.967  0.3459  0.1423 -0.5140
 3440TIP3   OH231954   2.904   1.816   7.132  0.1561  0.1984 -0.5929
 3440TIP3    H131955   2.905   1.721   7.129  0.4262  0.1515  0.5188
 3440TIP3    H231956   2.955   1.838   7.210  1.3298  1.2949 -1.5994
 3441TIP3   OH231957   6.878   5.975   7.011 -0.2338  0.3771 -0.1210
 3441TIP3    H131958   6.909   6.027   7.085  1.6605 -0.2327 -0.4362
 3441TIP3    H231959   6.894   6.031   6.934 -3.0138  1.3790 -0.0866
 3442TIP3   OH231960   2.094   6.436   0.951 -0.2910  0.0785  0.1422
 3442TIP3    H131961   2.090   6.517   0.900 -0.9785 -0.1264 -0.1461
 3442TIP3    H231962   2.077   6.367   0.887 -0.0807 -0.2659  0.4562
 3443TIP3   OH231963   1.545   1.805   8.124  0.4241 -0.4282 -0.4017
 3443TIP3    H131964   1.577   1.771   8.207  0.7847 -1.0117 -0.7718
 3443TIP3    H231965   1.456   1.771   8.116 -0.5143  1.5350  0.8251
 3444TIP3   OH231966   6.742   0.953   0.223  0.1281 -0.0274  0.4351
 3444TIP3    H131967   6.778   1.038   0.247  1.9723 -0.7094  0.3027
 3444TIP3    H231968   6.671   0.972   0.163  0.6540  1.4143  0.2453
 3445TIP3   OH231969   0.840   4.133   1.298  0.4203  0.5600 -0.7256
 3445TIP3    H131970   0.928   4.149   1.263  0.1333 -1.5030 -2.5806
 3445TIP3    H231971   0.856   4.104   1.388  1.7874 -0.9391 -1.3891
 3446TIP3   OH231972   4.016   0.048   0.275  0.4496 -0.2825 -0.2527
 3446TIP3    H131973   4.007   0.123   0.215 -2.6105  0.6640  1.2058
 3446TIP3    H231974   3.926   0.021   0.293  1.3283 -1.7973  2.3570
 3447TIP3   OH231975   6.899   2.215   6.423 -0.5776  0.1822  0.7369
 3447TIP3    H131976   6.953   2.253   6.492  0.2140  0.5651 -0.0737
 3447TIP3    H231977   6.851   2.145   6.466  0.2995  0.0666  1.5565
 3448TIP3   OH231978   6.265   0.354   0.032  0.1073 -0.6351 -0.7904
 3448TIP3    H131979   6.186   0.383  -0.014  0.1688 -0.0225 -0.5174
 3448TIP3    H231980   6.247   0.373   0.124 -0.0298 -1.8807 -0.5503
 3449TIP3   OH231981   1.109   3.560   8.217 -0.3659  0.2334  0.1628
 3449TIP3    H131982   1.154   3.644   8.210 -0.9874  0.5035 -0.8042
 3449TIP3    H231983   1.175   3.500   8.253  0.0562  1.1398  0.9327
 3450TIP3   OH231984   2.324   3.978   1.122 -0.2319  0.0773 -0.0399
 3450TIP3    H131985   2.291   3.949   1.207 -0.4490 -1.3317 -0.5808
 3450TIP3    H231986   2.417   3.956   1.123 -0.5008 -1.1296 -0.6444
 3451TIP3   OH231987   0.883   5.216   0.647  0.1403  0.0457 -0.1748
 3451TIP3    H131988   0.871   5.308   0.622  0.2251 -0.1507 -0.9696
 3451TIP3    H231989   0.835   5.207   0.729  0.0074  0.7664 -0.1659
 3452TIP3   OH231990   2.155   6.155   7.947  0.0998  0.5483  0.3660
 3452TIP3    H131991   2.245   6.142   7.917 -0.4347  0.5340 -1.3172
 3452TIP3    H231992   2.158   6.236   7.998  0.6750  1.7755 -1.5346
 3453TIP3   OH231993   0.986   4.592   7.866 -0.2885  0.3298 -0.1182
 3453TIP3    H131994   1.075   4.569   7.839  0.0963 -2.0252  2.5994
 3453TIP3    H231995   0.996   4.630   7.953 -1.8900  1.2616 -0.2965
 3454TIP3   OH231996   6.780   6.247   7.616  1.0706 -0.3789  0.5603
 3454TIP3    H131997   6.781   6.268   7.710  1.1087 -1.8503  0.9055
 3454TIP3    H231998   6.748   6.327   7.575 -1.4432 -0.4928  2.0653
 3455TIP3   OH231999   2.884   6.511   0.571  0.1530  0.6217  0.0844
 3455TIP3    H132000   2.949   6.530   0.502 -1.2036  0.3536 -1.3285
 3455TIP3    H232001   2.820   6.581   0.563  0.4637  1.1185  1.7507
 3456TIP3   OH232002   4.308   6.585   1.203 -0.2153 -0.1107 -0.3624
 3456TIP3    H132003   4.267   6.564   1.119 -1.5720 -1.1026  0.5064
 3456TIP3    H232004   4.302   6.504   1.253 -1.4892  1.0740  1.4929
 3457TIP3   OH232005   2.268   5.044   7.769 -0.4447 -0.0331 -0.3605
 3457TIP3    H132006   2.298   5.024   7.858 -0.6682  0.2489 -0.2213
 3457TIP3    H232007   2.174   5.027   7.772 -0.3107 -0.8753 -0.7855
 3458TIP3   OH232008   4.834   4.569   7.535 -0.6099 -0.1020 -0.2419
 3458TIP3    H132009   4.745   4.575   7.501 -0.7064 -0.4047 -0.0442
 3458TIP3    H232010   4.869   4.489   7.495 -0.9309 -0.8003  0.8400
 3459TIP3   OH232011   3.336   3.662   7.672  0.1145  0.2770 -0.4467
 3459TIP3    H132012   3.425   3.698   7.675  0.3853 -0.2597 -1.4969
 3459TIP3    H232013   3.288   3.711   7.739  1.3356  0.1900  0.5314
 3460TIP3   OH232014   2.787   5.394   0.807 -0.2928 -0.2682 -0.4636
 3460TIP3    H132015   2.787   5.298   0.804 -1.0482 -0.2832 -3.0051
 3460TIP3    H232016   2.871   5.417   0.847  0.2264 -1.9813 -0.4698
 3461TIP3   OH232017   6.489   3.350   7.525  0.5404 -0.1550  0.5108
 3461TIP3    H132018   6.447   3.412   7.585 -0.1858  0.8244 -0.9309
 3461TIP3    H232019   6.431   3.274   7.524 -0.4356  0.5725 -0.3013
 3462TIP3   OH232020   3.359   5.568   7.659 -0.3752  0.5901 -0.7841
 3462TIP3    H132021   3.341   5.642   7.600  0.1743  0.1807 -1.4913
 3462TIP3    H232022   3.450   5.579   7.684 -0.6799  0.9072  0.2237
 3463TIP3   OH232023   3.582   4.494   0.708  0.2629  0.1317  0.4328
 3463TIP3    H132024   3.656   4.535   0.753  0.5658 -1.2454  1.2426
 3463TIP3    H232025   3.521   4.473   0.778 -0.3582  0.1619 -0.0958
 3464TIP3   OH232026   5.677   3.284   8.479 -0.0585 -0.2220  0.2395
 3464TIP3    H132027   5.620   3.278   8.555 -2.2245 -0.6195 -1.3295
 3464TIP3    H232028   5.704   3.376   8.476 -0.9132  0.0559  0.7962
 3465TIP3   OH232029   4.553   2.828   1.452  0.3615  0.5088 -0.0612
 3465TIP3    H132030   4.628   2.771   1.471 -1.6656 -2.2760  0.0726
 3465TIP3    H232031   4.556   2.840   1.357  1.6815  1.6083  0.0707
 3466TIP3   OH232032   2.915   2.028   6.964 -0.2511  0.0822 -0.0969
 3466TIP3    H132033   3.011   2.028   6.963 -0.2250  0.1004  1.3344
 3466TIP3    H232034   2.892   1.974   7.039 -1.3758  0.2904 -0.2791
 3467TIP3   OH232035   4.843   4.372   6.937  0.6317 -0.3395  0.1753
 3467TIP3    H132036   4.877   4.454   6.971  0.3471 -0.5174  0.9020
 3467TIP3    H232037   4.904   4.348   6.867 -0.1221  1.2484 -1.1015
 3468TIP3   OH232038   2.826   0.514   7.772 -0.0500  0.0591  0.1608
 3468TIP3    H132039   2.806   0.427   7.806 -0.0955 -0.4709 -1.1798
 3468TIP3    H232040   2.909   0.503   7.726  0.3610  0.9207  0.6610
 3469TIP3   OH232041   5.008   2.343   2.515  0.2618  0.4996 -0.1432
 3469TIP3    H132042   4.941   2.313   2.453 -0.3502  0.8735  0.3219
 3469TIP3    H232043   5.024   2.267   2.571  1.6477 -0.2147 -1.4219
 3470TIP3   OH232044   2.253   3.043   6.514 -0.3937  0.0564  0.0782
 3470TIP3    H132045   2.346   3.057   6.535 -0.3194  0.7433 -0.6837
 3470TIP3    H232046   2.228   2.967   6.568  0.5717 -0.0625  0.3845
 3471TIP3   OH232047   5.321   1.193   0.502 -0.1667  0.2240 -0.0366
 3471TIP3    H132048   5.364   1.181   0.418  1.4027 -1.0949  0.8922
 3471TIP3    H232049   5.283   1.107   0.522 -3.0067  1.2567 -0.6484
 3472TIP3   OH232050   0.541   5.154   8.301 -0.2121  0.1587 -0.5843
 3472TIP3    H132051   0.531   5.187   8.391  0.6379 -0.6990 -0.1515
 3472TIP3    H232052   0.543   5.059   8.311 -2.1072 -0.0478 -1.7498
 3473TIP3   OH232053   1.039   1.668   1.025  0.5285 -0.1822 -0.0720
 3473TIP3    H132054   1.121   1.619   1.037  0.7147  0.2473  0.4450
 3473TIP3    H232055   1.007   1.683   1.113  1.9050  3.0068  0.0291
 3474TIP3   OH232056   6.313   5.217   0.029  0.1743 -0.3779  0.1329
 3474TIP3    H132057   6.252   5.199  -0.042 -0.2526 -2.2348  0.9221
 3474TIP3    H232058   6.274   5.174   0.105  1.6464 -0.1803  1.0267
 3475TIP3   OH232059   0.536   4.880   8.297  0.1357 -0.0741 -0.3860
 3475TIP3    H132060   0.630   4.864   8.301  0.9846  3.9496 -0.1317
 3475TIP3    H232061   0.517   4.888   8.203  0.3548  0.4226 -0.3928
 3476TIP3   OH232062   6.356   1.263   6.649  0.1720  0.2243  0.0277
 3476TIP3    H132063   6.439   1.251   6.604  0.4009 -1.2454  0.7696
 3476TIP3    H232064   6.342   1.181   6.697 -0.1516  1.5960  2.4629
 3477TIP3   OH232065   3.113   4.081   1.683 -0.0169  0.2256 -0.4610
 3477TIP3    H132066   3.194   4.124   1.658 -0.9021  1.3151 -1.5171
 3477TIP3    H232067   3.105   4.097   1.777 -0.0720  1.9812 -0.7397
 3478TIP3   OH232068   3.648   0.756   8.306 -0.0596  0.3386 -0.7392
 3478TIP3    H132069   3.721   0.709   8.347 -1.3266  0.0337  1.3469
 3478TIP3    H232070   3.660   0.743   8.212  1.0954 -1.9261 -0.3457
 3479TIP3   OH232071   3.203   5.366   1.385 -0.4767 -0.1765  0.2596
 3479TIP3    H132072   3.287   5.410   1.395 -0.4845  0.1409 -0.8626
 3479TIP3    H232073   3.146   5.407   1.450  0.0923 -0.0085  0.6532
 3480TIP3   OH232074   3.620   1.340   1.162  0.1995 -0.5092  0.5398
 3480TIP3    H132075   3.685   1.410   1.176  0.0377 -0.4376  0.9298
 3480TIP3    H232076   3.542   1.371   1.208 -0.3821 -0.2084 -0.6100
 3481TIP3   OH232077   1.289   2.155   8.560  0.0400  0.0036  0.6284
 3481TIP3    H132078   1.231   2.193   8.494  2.3847  0.7438 -1.1801
 3481TIP3    H232079   1.278   2.210   8.637 -0.2918  1.2890 -0.3040
 3482TIP3   OH232080   2.324   2.395   1.148 -0.8310 -0.1713  1.1903
 3482TIP3    H132081   2.240   2.380   1.191 -2.1448  0.8999 -0.8720
 3482TIP3    H232082   2.309   2.375   1.056 -0.3979  4.6723 -0.2440
 3483TIP3   OH232083   2.410   3.980   0.037  0.4860  0.1923 -0.2765
 3483TIP3    H132084   2.416   3.914   0.105 -1.1365 -0.3314 -0.5856
 3483TIP3    H232085   2.322   3.969   0.001  0.8995  1.2068 -1.6862
 3484TIP3   OH232086   3.040   6.579   8.002 -0.1955  0.2783  0.5975
 3484TIP3    H132087   3.078   6.643   7.941  0.4024  1.5309  2.2149
 3484TIP3    H232088   2.950   6.607   8.014  0.3033  1.4196  1.9863
 3485TIP3   OH232089   4.360   3.048   1.125  0.6850  0.0383 -0.1177
 3485TIP3    H132090   4.446   3.062   1.085  1.2344 -0.7890  0.7276
 3485TIP3    H232091   4.334   2.960   1.098  0.1718  0.2189 -0.2313
 3486TIP3   OH232092   6.521   1.325   1.586 -0.1840  0.1168 -0.2361
 3486TIP3    H132093   6.536   1.301   1.495 -3.2542  1.2114 -1.1385
 3486TIP3    H232094   6.595   1.381   1.609  0.1496  0.6155 -2.3573
 3487TIP3   OH232095   3.169   2.601   0.718 -0.2917 -0.1193 -0.4062
 3487TIP3    H132096   3.113   2.673   0.689  0.3445  0.0494 -1.2945
 3487TIP3    H232097   3.193   2.623   0.808 -0.3258  0.6413 -0.5806
 3488TIP3   OH232098   4.750   4.216   1.174  0.4914  0.1651  0.5409
 3488TIP3    H132099   4.727   4.274   1.246 -0.1954 -0.1657  0.6001
 3488TIP3    H232100   4.665   4.188   1.139  0.8147 -0.6641  0.4093
 3489TIP3   OH232101   0.778   3.755   8.402  0.7572  0.0620  0.3456
 3489TIP3    H132102   0.723   3.802   8.465 -1.3425 -1.2819 -0.3864
 3489TIP3    H232103   0.839   3.705   8.456 -2.6472 -3.1247  1.6338
 3490TIP3   OH232104   3.538   2.551   0.537  0.1479 -0.6425  0.3436
 3490TIP3    H132105   3.608   2.611   0.512  0.7745 -1.5261 -0.0671
 3490TIP3    H232106   3.458   2.604   0.529  0.8042  0.5913  1.5312
 3491TIP3   OH232107   1.408   1.845   6.630  0.0658 -0.1074 -0.2400
 3491TIP3    H132108   1.347   1.892   6.573 -0.0122 -0.9818 -0.8949
 3491TIP3    H232109   1.491   1.846   6.583  0.3047  0.1644  0.1720
 3492TIP3   OH232110   0.749   6.729   0.926 -0.5397 -0.5474 -0.4500
 3492TIP3    H132111   0.832   6.744   0.882  0.7747  0.6579  2.2176
 3492TIP3    H232112   0.701   6.811   0.916 -1.0252 -0.9047 -1.1457
 3493TIP3   OH232113   0.196   5.351   8.544 -0.1816 -0.1049  0.3888
 3493TIP3    H132114   0.190   5.272   8.491 -2.4594 -1.0506  1.9002
 3493TIP3    H232115   0.109   5.359   8.585  0.7070  1.9030  2.0641
 3494TIP3   OH232116   0.396   0.096   0.065 -0.0234 -0.5754 -0.0805
 3494TIP3    H132117   0.440   0.023   0.108  0.6164  0.7506  1.6285
 3494TIP3    H232118   0.466   0.156   0.040 -0.5306 -0.5311 -1.5034
 3495TIP3   OH232119   4.928   2.824   1.236  0.2105  0.3267 -0.1105
 3495TIP3    H132120   4.841   2.786   1.223  1.2776 -2.3616  0.0562
 3495TIP3    H232121   4.918   2.882   1.312 -1.2024 -0.8121  0.6171
 3496TIP3   OH232122   3.597   5.335   8.548 -0.2169 -0.1350 -0.2096
 3496TIP3    H132123   3.621   5.353   8.457  0.3474  2.3642  0.3555
 3496TIP3    H232124   3.527   5.398   8.567  0.7866  0.5232  1.5350
 3497TIP3   OH232125   3.618   0.165   0.880  0.1740  0.2623  0.4111
 3497TIP3    H132126   3.592   0.253   0.906 -0.0074  0.4974 -0.5553
 3497TIP3    H232127   3.705   0.175   0.842 -0.9689  0.5161 -2.3496
 3498TIP3   OH232128   4.342   6.553   1.633 -0.4110  0.2130 -0.0092
 3498TIP3    H132129   4.265   6.504   1.605 -0.2409 -0.2717  0.3490
 3498TIP3    H232130   4.358   6.522   1.722  0.3125  0.1637 -0.1539
 3499TIP3   OH232131   6.725   4.578   0.976 -0.0790  0.0316 -0.2310
 3499TIP3    H132132   6.636   4.570   0.941  0.1706  2.9026 -1.7502
 3499TIP3    H232133   6.778   4.607   0.902  1.6955  0.5724  1.1835
 3500TIP3   OH232134   6.234   0.586   0.497  0.5557 -0.3170  0.1038
 3500TIP3    H132135   6.304   0.648   0.520  0.7880 -0.8758  0.9686
 3500TIP3    H232136   6.161   0.611   0.554 -0.1555  0.6117 -1.1844
 3501TIP3   OH232137   2.722   4.377   7.201 -0.2813  0.0718 -0.3328
 3501TIP3    H132138   2.814   4.368   7.227 -1.1999 -2.4838  2.6150
 3501TIP3    H232139   2.681   4.423   7.273 -1.8597 -1.7700  0.0358
 3502TIP3   OH232140   0.930   1.376   0.048 -0.5512 -0.1778  0.1328
 3502TIP3    H132141   0.866   1.320   0.005  0.3634  0.0886 -1.6623
 3502TIP3    H232142   0.973   1.319   0.112 -1.1538 -0.9193 -0.1165
 3503TIP3   OH232143   4.283   6.413   6.923 -0.2951 -0.1591 -0.1444
 3503TIP3    H132144   4.251   6.452   6.842 -0.7104 -0.5239 -0.1551
 3503TIP3    H232145   4.234   6.332   6.933  1.5231 -1.4162 -0.8573
 3504TIP3   OH232146   2.178   4.846   1.226 -0.0220  0.2875 -0.3866
 3504TIP3    H132147   2.165   4.850   1.321 -0.0298  1.3015 -0.4105
 3504TIP3    H232148   2.159   4.756   1.202 -1.1081  0.2841  0.4265
 3505TIP3   OH232149   6.304   1.652   1.094  0.2019 -0.0847  0.5868
 3505TIP3    H132150   6.251   1.582   1.132  1.1755  0.2982  2.8391
 3505TIP3    H232151   6.379   1.660   1.153  1.2759  1.3605 -0.8600
 3506TIP3   OH232152   1.957   0.627   6.526  0.0234  0.2672  0.0281
 3506TIP3    H132153   1.886   0.568   6.501  0.7340 -0.9789  0.8316
 3506TIP3    H232154   2.031   0.598   6.472  0.0228  1.3422 -0.5742
 3507TIP3   OH232155   0.155   2.179   6.783 -0.9684  0.4873  0.1793
 3507TIP3    H132156   0.197   2.226   6.854  2.5626  1.1289 -2.0756
 3507TIP3    H232157   0.158   2.240   6.709 -2.7927 -0.7972 -1.0609
 3508TIP3   OH232158   1.074   5.029   6.343  0.6123 -0.2791  0.3356
 3508TIP3    H132159   1.079   5.125   6.338 -1.1047 -0.1589  0.4271
 3508TIP3    H232160   1.139   4.999   6.280  2.1887  0.9117  1.2944
 3509TIP3   OH232161   2.331   0.543   8.693  0.1407  0.2099 -0.3316
 3509TIP3    H132162   2.319   0.628   8.736 -0.0698 -0.7818  1.6893
 3509TIP3    H232163   2.384   0.492   8.754 -0.4894 -1.4164 -1.0790
 3510TIP3   OH232164   2.244   5.890   7.572  0.4876  0.8762 -0.0993
 3510TIP3    H132165   2.328   5.907   7.530  1.3640  0.3819  1.3729
 3510TIP3    H232166   2.226   5.971   7.621  0.9454  0.3910  0.9014
 3511TIP3   OH232167   4.889   6.296   1.639 -0.0319 -0.4196 -0.2995
 3511TIP3    H132168   4.906   6.383   1.604 -0.3045  0.0371  0.6621
 3511TIP3    H232169   4.881   6.240   1.562 -3.4786  1.0356 -1.1834
 3512TIP3   OH232170   3.359   3.250   0.761 -0.0780  0.1255  0.2302
 3512TIP3    H132171   3.313   3.260   0.844 -0.1076  0.2844  0.1958
 3512TIP3    H232172   3.327   3.322   0.707  0.4276  0.4188  0.3079
 3513TIP3   OH232173   6.181   2.417   7.612  0.7942  0.6048  0.3506
 3513TIP3    H132174   6.244   2.472   7.566  1.4866 -0.6788 -0.2819
 3513TIP3    H232175   6.109   2.405   7.550 -0.5113  2.7301  1.3594
 3514TIP3   OH232176   2.498   6.744   1.170  0.2123 -0.3368 -0.4773
 3514TIP3    H132177   2.460   6.811   1.227  0.6004 -0.3417 -0.2075
 3514TIP3    H232178   2.427   6.681   1.157  0.4553 -0.9636  0.9860
 3515TIP3   OH232179   1.557   4.060   0.346 -0.6947 -0.0643 -0.0815
 3515TIP3    H132180   1.553   3.989   0.411  0.4681  0.5570  0.7023
 3515TIP3    H232181   1.613   4.126   0.387 -1.4229  1.1349 -0.9753
 3516TIP3   OH232182   5.307   1.661   8.657 -0.3201 -0.2333  0.6098
 3516TIP3    H132183   5.386   1.715   8.657 -0.1647 -0.4459  1.3700
 3516TIP3    H232184   5.245   1.709   8.602 -0.0049  0.4525  0.8365
 3517TIP3   OH232185   2.326   1.987   7.341 -0.4890 -0.4704 -0.2488
 3517TIP3    H132186   2.269   1.930   7.290  0.3388 -0.5312 -1.1292
 3517TIP3    H232187   2.330   1.946   7.427 -0.5089 -1.3318 -0.6456
 3518TIP3   OH232188   5.973   6.482   7.501  0.2571  0.1935 -0.2092
 3518TIP3    H132189   5.954   6.494   7.408 -0.5873 -0.3222 -0.1063
 3518TIP3    H232190   5.919   6.408   7.528 -2.3318  2.4919  1.5162
 3519TIP3   OH232191   4.684   2.969   8.056  0.1803 -0.0025 -0.0171
 3519TIP3    H132192   4.615   2.904   8.053  0.9543 -0.8150 -2.3683
 3519TIP3    H232193   4.749   2.939   7.992  1.7160  1.8182  0.5669
 3520TIP3   OH232194   6.878   0.071   6.354  0.1790 -0.3580  0.4703
 3520TIP3    H132195   6.948   0.092   6.415 -0.4919  0.0579  1.1173
 3520TIP3    H232196   6.806   0.129   6.379 -0.0756 -0.1044 -0.7941
 3521TIP3   OH232197   0.762   6.350   6.258 -0.0396 -0.2628 -0.0007
 3521TIP3    H132198   0.758   6.259   6.228 -1.0507 -0.2096 -0.0536
 3521TIP3    H232199   0.843   6.384   6.220  0.3825 -1.1466  0.0633
 3522TIP3   OH232200   0.639   0.742   6.800  0.4775  0.1647 -0.1615
 3522TIP3    H132201   0.632   0.819   6.744 -2.6170  0.7251  0.8314
 3522TIP3    H232202   0.563   0.688   6.778  0.9214 -1.1455  1.2851
 3523TIP3   OH232203   6.558   5.041   1.083 -0.0040 -0.0792 -0.2335
 3523TIP3    H132204   6.639   5.032   1.032 -0.1456 -0.1120 -0.4536
 3523TIP3    H232205   6.503   4.969   1.052  0.3098 -0.7592  0.7254
 3524TIP3   OH232206   4.284   4.777   8.198  0.0345  0.0535  0.4160
 3524TIP3    H132207   4.315   4.795   8.286  5.0765 -0.0912 -1.0034
 3524TIP3    H232208   4.256   4.862   8.164 -0.6568  0.3384  1.6261
 3525TIP3   OH232209   3.047   3.882   0.399  0.4053 -0.2013  0.6227
 3525TIP3    H132210   3.064   3.975   0.386 -0.7188 -0.0340  0.2015
 3525TIP3    H232211   2.952   3.873   0.389  0.4852 -1.3852  0.7087
 3526TIP3   OH232212   4.722   1.982   0.696  0.0457 -0.2274  0.3899
 3526TIP3    H132213   4.735   1.969   0.602 -0.4378  0.5296  0.2147
 3526TIP3    H232214   4.724   2.077   0.709  1.1417 -0.3502  1.3014
 3527TIP3   OH232215   5.604   6.344   0.365 -0.4508  0.1780 -0.1676
 3527TIP3    H132216   5.656   6.368   0.288 -1.3601 -1.0859 -1.2170
 3527TIP3    H232217   5.659   6.281   0.412  0.1177  0.9727  0.2554
 3528TIP3   OH232218   5.723   1.514   0.819 -0.5011 -0.1525 -0.3043
 3528TIP3    H132219   5.783   1.469   0.760 -1.7150 -1.2365 -0.7572
 3528TIP3    H232220   5.674   1.573   0.762 -1.0186 -0.5092 -0.2383
 3529TIP3   OH232221   0.283   4.099   7.650  0.0846  0.4638 -0.5538
 3529TIP3    H132222   0.305   4.006   7.643 -0.0357  0.4458 -0.7095
 3529TIP3    H232223   0.191   4.099   7.675  0.1731  0.5391 -0.2359
 3530TIP3   OH232224   6.580   2.186   0.991 -0.4899  0.0931 -0.1323
 3530TIP3    H132225   6.653   2.234   0.952 -0.9811 -0.1263 -1.3832
 3530TIP3    H232226   6.559   2.234   1.071 -1.0867  2.1092 -1.4272
 3531TIP3   OH232227   5.852   4.095   1.859 -0.3397 -0.1547 -0.4952
 3531TIP3    H132228   5.855   4.013   1.810 -4.3586 -1.3977  0.9587
 3531TIP3    H232229   5.936   4.098   1.905  1.1804 -1.7991 -2.9175
 3532TIP3   OH232230   2.369   5.318   1.850  0.2436 -0.0242  0.2497
 3532TIP3    H132231   2.297   5.259   1.872  0.9340 -0.5629  1.1493
 3532TIP3    H232232   2.401   5.286   1.766 -1.3213  0.9780 -0.7777
 3533TIP3   OH232233   0.770   6.517   1.299  0.3526  0.4009 -0.5087
 3533TIP3    H132234   0.823   6.439   1.285 -0.8896 -0.9473  1.7374
 3533TIP3    H232235   0.680   6.487   1.288 -0.2134  1.2004  1.5266
 3534TIP3   OH232236   4.049   0.685   0.982 -0.5241 -0.1651  0.2171
 3534TIP3    H132237   4.110   0.758   0.973 -0.5005 -0.3302 -1.1573
 3534TIP3    H232238   3.984   0.716   1.045  0.3882  0.4054  0.9047
 3535TIP3   OH232239   5.031   1.485   1.029 -1.0114 -0.1252  0.0034
 3535TIP3    H132240   5.097   1.552   1.011 -0.7282 -1.1218 -3.4631
 3535TIP3    H232241   4.949   1.533   1.036 -0.3773  0.8361  1.1792
 3536TIP3   OH232242   5.322   6.089   6.381 -0.0807 -0.1241  0.0277
 3536TIP3    H132243   5.247   6.038   6.411 -1.1232  1.7050  0.7067
 3536TIP3    H232244   5.290   6.179   6.378  1.7030  0.5309 -1.0286
 3537TIP3   OH232245   1.166   4.380   1.488 -0.3691  0.2961 -0.2171
 3537TIP3    H132246   1.096   4.419   1.541 -1.7022 -0.7261 -1.1616
 3537TIP3    H232247   1.247   4.414   1.527 -1.3404  0.7425  1.5195
 3538TIP3   OH232248   3.323   1.634   0.494  0.3732  0.0457  0.3095
 3538TIP3    H132249   3.313   1.567   0.426  1.1057  1.8795 -1.7134
 3538TIP3    H232250   3.413   1.623   0.524 -0.3542 -1.6511  2.0578
 3539TIP3   OH232251   4.284   0.052   0.258  0.1582 -1.0700  0.0601
 3539TIP3    H132252   4.275   0.083   0.168 -1.6013 -0.1529  0.5005
 3539TIP3    H232253   4.195   0.026   0.283  0.3188  0.0793  2.0063
 3540TIP3   OH232254   3.844   1.756   1.488  0.4943  0.2282 -0.0620
 3540TIP3    H132255   3.881   1.835   1.448  0.7969 -0.2311 -0.6969
 3540TIP3    H232256   3.919   1.699   1.503  0.1448 -0.4225 -0.7104
 3541TIP3   OH232257   6.656   5.268   7.987 -0.2306  0.0730  0.6317
 3541TIP3    H132258   6.704   5.325   7.926 -0.2220  0.0447  0.6119
 3541TIP3    H232259   6.574   5.315   8.004 -0.4192 -0.1179  0.2668
 3542TIP3   OH232260   0.465   3.835   8.336 -0.2848 -0.1432 -0.1320
 3542TIP3    H132261   0.491   3.839   8.428 -1.3781  0.5882  0.1685
 3542TIP3    H232262   0.374   3.805   8.337 -0.8048  1.2960 -0.8507
 3543TIP3   OH232263   5.147   4.118   2.140 -0.1208 -0.0207 -0.4712
 3543TIP3    H132264   5.131   4.024   2.135 -1.2281 -0.0089  1.6788
 3543TIP3    H232265   5.213   4.128   2.208 -0.4570  0.7813 -0.2445
 3544TIP3   OH232266   1.034   0.988   1.107 -0.2512  0.3239  0.2280
 3544TIP3    H132267   1.090   1.029   1.174 -0.4757 -0.5558  0.9811
 3544TIP3    H232268   1.089   0.985   1.029 -0.6661  3.2742 -0.3056
 3545TIP3   OH232269   2.581   6.392   6.255  0.8163  0.6355  0.7757
 3545TIP3    H132270   2.490   6.389   6.283  0.4320  1.0692 -0.3829
 3545TIP3    H232271   2.613   6.478   6.284  0.2247  1.3611 -0.6536
 3546TIP3   OH232272   5.381   3.608   1.133  0.4409 -0.2601 -0.1036
 3546TIP3    H132273   5.352   3.698   1.145  0.4446 -0.3127  0.2974
 3546TIP3    H232274   5.472   3.607   1.161  1.2106  0.1577 -2.4320
 3547TIP3   OH232275   1.407   2.399   0.896 -0.1378 -0.1346  0.0514
 3547TIP3    H132276   1.333   2.372   0.841  0.9534 -1.6897 -0.7173
 3547TIP3    H232277   1.400   2.345   0.974 -0.4914  0.5857  0.5270
 3548TIP3   OH232278   5.902   5.279   0.150  0.4253  0.3112  0.2673
 3548TIP3    H132279   5.921   5.364   0.189  0.2369  0.7885 -0.6596
 3548TIP3    H232280   5.829   5.296   0.090  0.2100 -0.5580  0.2684
 3549TIP3   OH232281   4.467   5.349   0.173 -0.9817  0.2227 -0.0338
 3549TIP3    H132282   4.540   5.383   0.224 -0.0454  0.8408 -1.6988
 3549TIP3    H232283   4.461   5.409   0.098 -1.8409 -1.0455 -1.0082
 3550TIP3   OH232284   5.638   5.079   8.549  0.1329 -0.6101  0.0611
 3550TIP3    H132285   5.645   5.017   8.621  0.9288 -1.7633 -0.9690
 3550TIP3    H232286   5.633   5.164   8.591 -0.8570 -1.3332  1.5205
 3551TIP3   OH232287   5.842   6.856   7.726 -0.4536 -0.7082  0.1749
 3551TIP3    H132288   5.902   6.918   7.767 -0.4036 -0.4402 -0.2954
 3551TIP3    H232289   5.829   6.788   7.792  0.2054 -0.6625  0.3612
 3552TIP3   OH232290   2.196   2.775   8.690  0.3304 -0.0192  0.7585
 3552TIP3    H132291   2.184   2.687   8.725 -1.4992 -0.3975 -0.6584
 3552TIP3    H232292   2.218   2.761   8.598 -2.7530  0.9098 -0.2563
 3553TIP3   OH232293   0.162   4.339   0.474  0.5882  0.0900  0.5463
 3553TIP3    H132294   0.074   4.317   0.508 -0.1809 -0.0283 -1.4245
 3553TIP3    H232295   0.175   4.279   0.401  2.4614 -0.0686  0.9563
 3554TIP3   OH232296   5.085   6.132   7.279 -0.2690  0.1865  0.3935
 3554TIP3    H132297   4.994   6.130   7.308 -1.4219  0.8535 -2.8213
 3554TIP3    H232298   5.126   6.198   7.335 -1.1361 -1.5520  3.2727
 3555TIP3   OH232299   5.126   4.240   0.487 -0.3824  0.3644  0.2234
 3555TIP3    H132300   5.127   4.286   0.571 -0.8732  1.0325 -0.1183
 3555TIP3    H232301   5.104   4.150   0.509  0.8015  0.2280  0.9369
 3556TIP3   OH232302   4.526   4.522   6.308  0.2223  0.0138 -0.3943
 3556TIP3    H132303   4.540   4.488   6.220  0.7620 -1.8830  0.3713
 3556TIP3    H232304   4.446   4.479   6.338  1.4556 -1.4104  0.9677
 3557TIP3   OH232305   1.279   5.800   7.882 -0.3592 -0.1178 -0.3248
 3557TIP3    H132306   1.342   5.729   7.875  1.5151  1.3533  0.8299
 3557TIP3    H232307   1.256   5.821   7.791 -0.6009 -1.8358 -0.6945
 3558TIP3   OH232308   0.693   4.036   7.260  0.1514 -0.1760 -0.4949
 3558TIP3    H132309   0.735   3.954   7.235  0.1246 -0.0632 -0.9081
 3558TIP3    H232310   0.764   4.100   7.263  0.4708 -0.5403  1.4336
 3559TIP3   OH232311   2.745   4.457   1.096 -0.4365 -0.0834 -0.2564
 3559TIP3    H132312   2.744   4.464   1.191  2.2810 -1.1233 -0.0513
 3559TIP3    H232313   2.731   4.364   1.078 -0.5694  0.0490 -0.8601
 3560TIP3   OH232314   1.960   2.352   6.342 -1.1634  0.0130 -0.3699
 3560TIP3    H132315   1.890   2.376   6.282 -1.8672 -1.0860 -0.0199
 3560TIP3    H232316   1.933   2.267   6.378  0.9026 -1.0271 -1.1023
 3561TIP3   OH232317   0.024   0.625   8.023  0.0234 -0.0801  0.1073
 3561TIP3    H132318  -0.025   0.651   8.101  2.4815 -1.1297  2.1530
 3561TIP3    H232319   0.079   0.701   8.003  0.1359 -0.1749  0.0555
 3562TIP3   OH232320   3.345   1.168   8.567 -0.2253 -0.6346 -0.2165
 3562TIP3    H132321   3.433   1.132   8.556  0.6090  1.0882  0.4467
 3562TIP3    H232322   3.297   1.134   8.492  1.4217 -0.4162 -1.4384
 3563TIP3   OH232323   5.136   6.202   7.882  0.4896  0.6006 -0.7992
 3563TIP3    H132324   5.136   6.106   7.881 -1.4924  0.5723 -0.8141
 3563TIP3    H232325   5.203   6.224   7.947 -0.8812 -0.8847  1.2691
 3564TIP3   OH232326   5.644   1.228   7.116  0.1274 -0.1457  0.1252
 3564TIP3    H132327   5.715   1.176   7.079  0.1675 -0.2585  0.3579
 3564TIP3    H232328   5.585   1.164   7.155  0.6381  0.0300  1.2178
 3565TIP3   OH232329   4.507   1.988   8.092  0.2404 -0.2381 -0.1519
 3565TIP3    H132330   4.538   1.928   8.160 -1.2239 -0.8440  0.0135
 3565TIP3    H232331   4.476   2.064   8.141 -1.1318 -0.8142 -0.0744
 3566TIP3   OH232332   1.362   0.715   6.520  0.1541 -0.3704  0.6905
 3566TIP3    H132333   1.424   0.720   6.446 -1.7705  2.0838 -0.9474
 3566TIP3    H232334   1.418   0.714   6.598  2.2763  0.1469 -0.7180
 3567TIP3   OH232335   4.694   4.952   7.582 -0.0599  0.3263 -0.4343
 3567TIP3    H132336   4.765   4.996   7.535 -0.8368  1.5093 -0.5206
 3567TIP3    H232337   4.637   4.918   7.513  0.2598 -0.3712 -0.3619
 3568TIP3   OH232338   0.215   2.311   2.269  0.1546  0.1285 -0.6696
 3568TIP3    H132339   0.129   2.275   2.289 -1.8521  2.3904 -4.1319
 3568TIP3    H232340   0.271   2.235   2.255 -1.2052 -1.3995  1.5174
 3569TIP3   OH232341   1.662   5.850   8.242  0.1560 -0.3000 -0.2166
 3569TIP3    H132342   1.717   5.865   8.319  0.6583 -0.2229 -0.5867
 3569TIP3    H232343   1.694   5.914   8.177  1.0084 -1.6250 -1.1435
 3570TIP3   OH232344   1.068   2.050   0.187 -0.6037 -0.6287  0.1765
 3570TIP3    H132345   1.011   1.989   0.140  1.5900 -0.9391 -2.2937
 3570TIP3    H232346   1.145   2.059   0.131  0.0085  2.9810  1.3169
 3571TIP3   OH232347   3.672   3.365   6.678  0.0476 -0.3366 -0.1230
 3571TIP3    H132348   3.743   3.367   6.615  1.3242 -1.0032  1.2472
 3571TIP3    H232349   3.621   3.287   6.656 -0.0652 -0.0521 -0.8843
 3572TIP3   OH232350   1.245   5.479   8.344  0.3941  0.1858  0.0269
 3572TIP3    H132351   1.197   5.446   8.268 -0.0265 -1.4435  0.9298
 3572TIP3    H232352   1.336   5.458   8.326  0.6153  1.8181 -0.9717
 3573TIP3   OH232353   0.043   4.073   7.760  0.5251  0.2819  0.3951
 3573TIP3    H132354  -0.006   3.997   7.728  0.0262  1.4091 -1.6965
 3573TIP3    H232355   0.061   4.052   7.852 -1.0299 -1.6153  0.3516
 3574TIP3   OH232356   4.643   4.242   7.444  0.0187  0.0889  0.7957
 3574TIP3    H132357   4.605   4.328   7.424  1.0893  0.6087  0.9440
 3574TIP3    H232358   4.621   4.189   7.367  0.5573  0.9095  0.0412
 3575TIP3   OH232359   1.019   1.431   8.011 -0.0867  0.4894  0.1156
 3575TIP3    H132360   1.093   1.418   8.070  1.8106  0.8666 -2.0608
 3575TIP3    H232361   1.006   1.525   8.008  0.4842  0.5537 -0.7789
 3576TIP3   OH232362   6.356   2.554   6.722  0.3876 -0.5559 -0.1496
 3576TIP3    H132363   6.320   2.560   6.633  0.5622 -1.1472 -0.2652
 3576TIP3    H232364   6.426   2.489   6.715  0.0260 -1.0388  0.5327
 3577TIP3   OH232365   3.372   6.151   0.956 -0.1492  0.0336  0.2812
 3577TIP3    H132366   3.377   6.074   1.014 -1.5762  0.4355  1.0107
 3577TIP3    H232367   3.309   6.125   0.889  1.7382 -0.5453 -1.3523
 3578TIP3   OH232368   3.634   0.724   8.035 -0.1084  0.4505  0.3867
 3578TIP3    H132369   3.667   0.798   7.985  1.9904 -0.7112 -0.0876
 3578TIP3    H232370   3.539   0.733   8.032 -0.1268  0.5997 -3.6226
 3579TIP3   OH232371   3.910   5.399   0.038 -0.1219  0.1940  0.2359
 3579TIP3    H132372   3.918   5.310   0.003 -0.8034  0.3144 -0.2511
 3579TIP3    H232373   3.864   5.448  -0.030  2.2902  1.5423 -0.5240
 3580TIP3   OH232374   2.002   1.948   0.259 -0.2147  0.2179 -0.0569
 3580TIP3    H132375   2.009   1.878   0.324 -0.8842  0.1339 -0.0680
 3580TIP3    H232376   1.949   2.015   0.302  0.2249  0.6223 -0.1339
 3581TIP3   OH232377   1.249   5.457   8.073  0.1267  0.3489 -0.0650
 3581TIP3    H132378   1.271   5.398   8.002 -0.1573  0.7199 -0.4663
 3581TIP3    H232379   1.318   5.443   8.138  1.1414  0.9448 -0.9704
 3582TIP3   OH232380   0.266   0.589   8.256  0.0037  0.4206 -0.0407
 3582TIP3    H132381   0.316   0.550   8.184  1.0902  1.2712  0.2225
 3582TIP3    H232382   0.281   0.530   8.330  0.2757  0.4371 -0.0804
 3583TIP3   OH232383   4.333   0.027   7.479  0.7865  0.3192  0.5129
 3583TIP3    H132384   4.256  -0.004   7.527 -0.7693  0.9966 -1.3750
 3583TIP3    H232385   4.362  -0.049   7.429 -0.3609  0.7073 -0.8105
 3584TIP3   OH232386   6.345   0.334   1.676  0.1859  0.1220  0.5847
 3584TIP3    H132387   6.369   0.271   1.744 -1.1566 -2.6209 -1.3299
 3584TIP3    H232388   6.278   0.388   1.717  0.5996 -0.3642  1.9577
 3585TIP3   OH232389   3.178   3.464   0.881  0.3197 -0.1682 -0.7417
 3585TIP3    H132390   3.102   3.456   0.824 -0.4528  1.5271 -0.0132
 3585TIP3    H232391   3.158   3.408   0.956  0.1581 -0.3431 -0.9147
 3586TIP3   OH232392   1.324   0.043   6.186 -0.7258 -0.0787  0.1590
 3586TIP3    H132393   1.290   0.091   6.110 -1.3375  2.0121  1.6511
 3586TIP3    H232394   1.404   0.090   6.209 -0.2840 -1.0055  0.5275
 3587TIP3   OH232395   5.201   1.858   2.495  0.0619  0.1240 -0.1943
 3587TIP3    H132396   5.169   1.779   2.452  1.1413 -2.2654  3.0034
 3587TIP3    H232397   5.288   1.872   2.458  1.4839 -2.6010  1.7527
 3588TIP3   OH232398   1.086   2.648   1.861 -1.1966 -0.1606 -0.7594
 3588TIP3    H132399   1.063   2.726   1.810  0.1814 -0.2287 -1.5285
 3588TIP3    H232400   1.152   2.678   1.923 -0.5199 -0.7207 -1.1815
 3589TIP3   OH232401   6.789   2.826   6.712 -0.2757  0.2347  0.4458
 3589TIP3    H132402   6.847   2.822   6.788 -0.6038 -0.3788  0.6723
 3589TIP3    H232403   6.704   2.849   6.749 -0.3660  0.2617  0.2218
 3590TIP3   OH232404   2.218   4.841   6.635 -0.6608  0.0558 -0.2690
 3590TIP3    H132405   2.211   4.900   6.710 -0.0979  0.0603 -0.2088
 3590TIP3    H232406   2.266   4.893   6.569 -1.4448  0.1682 -0.7556
 3591TIP3   OH232407   5.079   4.408   8.470  0.0754 -0.0207 -0.4953
 3591TIP3    H132408   5.023   4.426   8.394  0.1635  4.4866  0.2435
 3591TIP3    H232409   5.018   4.392   8.542 -0.0036 -3.0909 -1.0919
 3592TIP3   OH232410   4.651   2.766   6.597 -0.4270  0.7315 -0.0677
 3592TIP3    H132411   4.620   2.723   6.677  1.6728 -0.7319  0.0474
 3592TIP3    H232412   4.728   2.816   6.625  1.1249 -0.8481 -1.3270
 3593TIP3   OH232413   5.907   2.642   7.661 -0.1926  0.0943 -0.4333
 3593TIP3    H132414   5.901   2.570   7.599 -1.6095 -1.7658  1.7388
 3593TIP3    H232415   5.992   2.631   7.704 -1.4210 -1.9641  1.6912
 3594TIP3   OH232416   3.953   1.665   1.056 -0.4553  0.7197 -0.0283
 3594TIP3    H132417   3.951   1.757   1.029  1.2619  0.7097 -0.3313
 3594TIP3    H232418   4.002   1.665   1.138 -0.4472  0.0783 -0.0257
 3595TIP3   OH232419   6.458   5.155   1.574 -0.3814  0.6009 -0.0501
 3595TIP3    H132420   6.522   5.171   1.644 -1.9059  1.3117  1.2464
 3595TIP3    H232421   6.397   5.092   1.613 -0.4260 -0.1715 -1.3154
 3596TIP3   OH232422   3.329   2.959   0.755 -0.3421 -0.2033 -0.3782
 3596TIP3    H132423   3.382   2.926   0.828 -1.7378 -0.0206  0.7478
 3596TIP3    H232424   3.345   3.053   0.755 -2.0155  0.1322  1.1485
 3597TIP3   OH232425   5.595   1.411   7.309  0.0832  0.0582  0.3781
 3597TIP3    H132426   5.590   1.350   7.236  0.8850  0.4759 -0.0371
 3597TIP3    H232427   5.632   1.491   7.272 -0.0155  0.4646  1.1238
 3598TIP3   OH232428   2.813   4.931   6.622 -0.0595  0.6084 -0.5522
 3598TIP3    H132429   2.790   4.887   6.540 -1.0847 -0.6679  0.3689
 3598TIP3    H232430   2.729   4.951   6.663  0.4329  0.9492  0.3286
 3599TIP3   OH232431   2.234   5.479   6.593  0.1255 -0.1502  0.7295
 3599TIP3    H132432   2.207   5.558   6.641  1.2520  2.2181 -2.2288
 3599TIP3    H232433   2.195   5.489   6.506  0.0927 -3.0781  0.3039
 3600TIP3   OH232434   3.923   5.217   7.422  0.0340 -0.4078 -0.1168
 3600TIP3    H132435   4.008   5.260   7.418 -0.1715  0.0738  0.6913
 3600TIP3    H232436   3.861   5.282   7.390  0.0837 -1.1580 -1.9037
 3601TIP3   OH232437   5.796   1.358   0.113  0.5002 -0.0276 -0.4239
 3601TIP3    H132438   5.744   1.284   0.083  1.6133 -0.5572 -1.1340
 3601TIP3    H232439   5.883   1.343   0.075  1.2548  0.6626  0.9474
 3602TIP3   OH232440   0.401   5.253   0.643  0.0425  0.1855  0.1734
 3602TIP3    H132441   0.396   5.294   0.557 -2.0034  0.4585  0.3687
 3602TIP3    H232442   0.490   5.269   0.672  0.0892  2.1981 -0.8888
 3603TIP3   OH232443   3.456   1.916   0.886  0.0701 -0.1320 -0.0960
 3603TIP3    H132444   3.382   1.867   0.851 -0.1375 -0.1657  0.3790
 3603TIP3    H232445   3.451   2.001   0.843 -0.5446  0.0429  0.3076
 3604TIP3   OH232446   2.780   0.593   6.693 -0.1764 -0.2443  0.2593
 3604TIP3    H132447   2.793   0.531   6.622  0.6005 -0.0767  0.2480
 3604TIP3    H232448   2.733   0.544   6.760  1.8615 -1.3687  0.9449
 3605TIP3   OH232449   1.551   1.497   6.723  0.2183 -0.1770  0.4340
 3605TIP3    H132450   1.533   1.437   6.650 -0.6572  1.2373 -0.5707
 3605TIP3    H232451   1.622   1.455   6.771  0.8961 -1.1274 -1.2871
 3606TIP3   OH232452   1.555   3.104   1.220 -0.6764  0.1715 -0.2987
 3606TIP3    H132453   1.531   3.160   1.294 -0.2049  0.0810 -0.0764
 3606TIP3    H232454   1.518   3.149   1.143 -1.2893  0.1913  0.0010
 3607TIP3   OH232455   3.493   3.919   0.361  0.4223 -0.3685 -0.1722
 3607TIP3    H132456   3.419   3.863   0.384 -1.7793  2.0441 -0.9037
 3607TIP3    H232457   3.546   3.865   0.303 -1.6135 -1.7044 -0.9185
 3608TIP3   OH232458   1.825   5.747   0.818  0.7895  0.0616 -0.1575
 3608TIP3    H132459   1.863   5.722   0.903  1.1446 -0.7634 -0.5482
 3608TIP3    H232460   1.884   5.711   0.753 -0.9314 -1.8050 -0.7996
 3609TIP3   OH232461   6.537   1.498   0.930 -0.1527  0.0240  0.0362
 3609TIP3    H132462   6.464   1.437   0.941  0.9419 -1.2922  0.2852
 3609TIP3    H232463   6.589   1.460   0.859  0.0172  1.2473 -0.5231
 3610TIP3   OH232464   6.732   6.382   2.025 -0.4459  0.7143 -0.1625
 3610TIP3    H132465   6.737   6.476   2.008  1.4672  0.4876 -1.1391
 3610TIP3    H232466   6.824   6.354   2.031 -0.9749 -0.9629  0.9371
 3611TIP3   OH232467   3.728   0.733   8.660 -0.6953 -0.1381  0.8413
 3611TIP3    H132468   3.635   0.737   8.637 -0.8325 -1.2802  1.1201
 3611TIP3    H232469   3.766   0.673   8.596  0.1382  1.3579 -0.1057
 3612TIP3   OH232470   1.745   2.529   8.619 -0.0634  0.1748 -0.1712
 3612TIP3    H132471   1.723   2.488   8.703 -0.8456 -0.4624 -0.6695
 3612TIP3    H232472   1.660   2.546   8.577  0.3066 -1.8153 -1.9018
 3613TIP3   OH232473   3.013   1.852   0.576 -0.2071  0.3532 -0.1940
 3613TIP3    H132474   2.935   1.887   0.618 -0.6809 -0.6934 -0.1670
 3613TIP3    H232475   2.989   1.763   0.550  0.5169  0.5002 -1.4586
 3614TIP3   OH232476   6.561   0.157   1.217  0.1978 -0.0754  0.0779
 3614TIP3    H132477   6.507   0.184   1.292  2.2626  0.0834  1.5943
 3614TIP3    H232478   6.634   0.219   1.216 -0.7701  1.2453 -3.4298
 3615TIP3   OH232479   1.303   4.959   7.399 -0.1122  0.5146 -0.4575
 3615TIP3    H132480   1.298   5.021   7.472 -1.0907  1.5938 -1.3787
 3615TIP3    H232481   1.213   4.954   7.367  0.0795 -0.9061 -0.8145
 3616TIP3   OH232482   5.427   0.385   1.245 -0.1961  0.3801 -0.0138
 3616TIP3    H132483   5.332   0.395   1.254 -0.1172 -0.2792  1.9030
 3616TIP3    H232484   5.462   0.471   1.268 -0.2281 -0.1425  2.1933
 3617TIP3   OH232485   1.083   5.013   1.161  0.0045 -0.6529 -0.5563
 3617TIP3    H132486   1.057   4.972   1.078  0.3992  0.2946 -1.1577
 3617TIP3    H232487   1.152   4.957   1.194 -1.0355 -1.7737 -0.2039
 3618TIP3   OH232488   0.656   3.696   2.129 -0.0601 -0.4345  0.0769
 3618TIP3    H132489   0.721   3.749   2.175 -1.3295  0.5728  0.7732
 3618TIP3    H232490   0.707   3.647   2.063  1.3685  0.3777  0.5351
 3619TIP3   OH232491   6.433   4.062   0.513 -0.1132  0.1349 -0.1169
 3619TIP3    H132492   6.364   4.005   0.480 -0.0188  0.6873 -1.3152
 3619TIP3    H232493   6.493   4.003   0.558 -0.6699 -0.5314 -0.2282
 3620TIP3   OH232494   2.600   4.692   7.113  0.0243  0.5781 -0.2937
 3620TIP3    H132495   2.565   4.769   7.157 -2.0361 -1.0725  1.1580
 3620TIP3    H232496   2.608   4.626   7.182  2.5491 -0.3038 -1.3166
 3621TIP3   OH232497   0.667   2.190   1.222 -0.7356 -0.4188  0.1868
 3621TIP3    H132498   0.672   2.257   1.154 -0.0355 -1.3877 -0.7558
 3621TIP3    H232499   0.582   2.203   1.263 -0.6080  1.0482  0.0431
 3622TIP3   OH232500   3.724   1.356   0.112 -0.2607  0.0889 -0.3115
 3622TIP3    H132501   3.710   1.418   0.040  0.0717  1.0452  0.4338
 3622TIP3    H232502   3.781   1.289   0.075  1.8021  1.7609 -0.3295
 3623TIP3   OH232503   4.101   4.604   7.260  0.1627 -0.8225 -0.0769
 3623TIP3    H132504   4.087   4.664   7.334 -2.1367  0.7808 -1.7076
 3623TIP3    H232505   4.096   4.517   7.300  2.1081 -0.0500  2.1215
 3624TIP3   OH232506   1.963   1.143   8.144 -0.5124 -1.3162  0.0741
 3624TIP3    H132507   1.993   1.152   8.053  0.6721  1.4414  0.6337
 3624TIP3    H232508   1.870   1.121   8.136 -0.2808 -1.8151 -1.8018
 3625TIP3   OH232509   2.064   6.061   1.091 -0.4373  0.4442 -0.3279
 3625TIP3    H132510   2.102   6.091   1.009 -0.0892 -1.0567 -0.7572
 3625TIP3    H232511   2.122   5.989   1.119  0.0541  1.5796  1.7818
 3626TIP3   OH232512   4.249   2.446   0.180  0.3285 -0.2226 -0.0479
 3626TIP3    H132513   4.212   2.444   0.092 -1.8112  0.5660  0.7510
 3626TIP3    H232514   4.206   2.374   0.225 -0.7647  1.0792  1.0829
 3627TIP3   OH232515   4.447   0.530   1.314 -0.2038 -0.1537  0.2729
 3627TIP3    H132516   4.369   0.476   1.303 -0.7739  0.6120  0.5065
 3627TIP3    H232517   4.415   0.620   1.308  0.5470  0.1800  1.1295
 3628TIP3   OH232518   6.126   1.185   8.192 -0.3228 -0.5637  0.1320
 3628TIP3    H132519   6.036   1.190   8.161 -0.0536  1.4296 -0.4505
 3628TIP3    H232520   6.179   1.182   8.113  0.1482 -1.8711  0.4681
 3629TIP3   OH232521   5.684   3.067   7.944  0.4860  0.1463  0.4310
 3629TIP3    H132522   5.716   2.997   7.887  1.5860 -0.1172  1.3154
 3629TIP3    H232523   5.674   3.025   8.030 -0.0931  0.7796  0.6802
 3630TIP3   OH232524   1.661   3.004   8.007 -0.3262  0.3435  0.0268
 3630TIP3    H132525   1.670   3.006   8.102  1.3417  0.2081 -0.1064
 3630TIP3    H232526   1.593   2.939   7.991 -0.1746 -0.1060  1.0996
 3631TIP3   OH232527   3.766   4.367   8.103  0.4710 -0.1919  0.5453
 3631TIP3    H132528   3.759   4.449   8.152 -1.3880  0.4645 -0.7042
 3631TIP3    H232529   3.857   4.362   8.076  0.6449  1.4248  0.7366
 3632TIP3   OH232530   3.302   1.182   1.306 -0.5343  0.8917  0.3353
 3632TIP3    H132531   3.393   1.162   1.328 -1.2750 -1.1233  1.8425
 3632TIP3    H232532   3.308   1.248   1.236  2.0441  1.1636  0.7267
 3633TIP3   OH232533   2.227   0.849   7.641  0.0762 -0.3146  0.1750
 3633TIP3    H132534   2.145   0.820   7.679 -0.4959 -0.2850 -1.0045
 3633TIP3    H232535   2.224   0.819   7.550  0.9508  0.4912 -0.1378
 3634TIP3   OH232536   5.121   1.034   0.232 -0.4364 -0.2753 -0.2930
 3634TIP3    H132537   5.073   1.112   0.205 -2.5313 -1.1238  0.6997
 3634TIP3    H232538   5.165   1.003   0.152  0.7813  2.0834 -0.6066
 3635TIP3   OH232539   0.726   1.965   6.245 -0.4647 -0.3148 -0.3044
 3635TIP3    H132540   0.815   1.987   6.220 -0.4404 -0.1227 -0.0461
 3635TIP3    H232541   0.693   1.912   6.172  0.0737 -0.9267 -0.1094
 3636TIP3   OH232542   1.144   5.284   7.082  0.2920  0.3291 -0.3595
 3636TIP3    H132543   1.172   5.350   7.019 -0.1109 -0.4000 -1.3283
 3636TIP3    H232544   1.152   5.327   7.167  1.0502  1.2635 -0.8809
 3637TIP3   OH232545   6.664   0.852   0.981  0.2034  0.9471 -0.1086
 3637TIP3    H132546   6.579   0.809   0.990  0.5957  0.4580  1.6442
 3637TIP3    H232547   6.645   0.945   0.999 -0.0901  0.9856 -0.5910
 3638TIP3   OH232548   1.581   0.113   1.411 -0.0272 -0.1500  0.1479
 3638TIP3    H132549   1.506   0.107   1.351 -0.4790 -2.7912  0.8529
 3638TIP3    H232550   1.544   0.149   1.491  0.1616  1.4866 -0.4605
 3639TIP3   OH232551   6.581   3.816   1.382  0.1817  0.2824  0.4071
 3639TIP3    H132552   6.536   3.748   1.432  0.1345 -0.9446 -1.2179
 3639TIP3    H232553   6.518   3.888   1.376 -0.8363 -0.6368 -0.1648
 3640TIP3   OH232554   2.473   0.107   7.438  0.4813 -0.8008 -0.1783
 3640TIP3    H132555   2.536   0.149   7.495  1.7167 -1.2718 -1.1406
 3640TIP3    H232556   2.400   0.169   7.432  0.6232 -0.4490  1.3120
 3641TIP3   OH232557   6.198   0.103   7.293  0.2360 -0.1778  0.6554
 3641TIP3    H132558   6.109   0.134   7.304  0.6920  1.4406  0.1228
 3641TIP3    H232559   6.252   0.173   7.331  1.2931 -0.7437  0.2258
 3642TIP3   OH232560   6.276   2.310   1.381 -0.1615 -0.1750  0.1182
 3642TIP3    H132561   6.370   2.318   1.399  0.0574 -0.0894 -0.9965
 3642TIP3    H232562   6.234   2.320   1.467  0.7699  1.2869  0.4399
 3643TIP3   OH232563   2.346   0.822   2.086  0.0752 -0.0041  0.0346
 3643TIP3    H132564   2.285   0.748   2.094  0.3014 -0.2319 -0.3601
 3643TIP3    H232565   2.289   0.897   2.070 -0.1654 -0.0692  0.5523
 3644TIP3   OH232566   3.035   0.910   8.599 -0.1096 -0.5165 -0.0112
 3644TIP3    H132567   3.090   0.918   8.521  1.2383 -0.7781  0.8915
 3644TIP3    H232568   3.073   0.837   8.648 -1.0520 -0.4748  0.8116
 3645TIP3   OH232569   0.017   2.983   1.512 -0.6006  0.5030  0.3005
 3645TIP3    H132570   0.108   3.006   1.527  0.5096 -1.7405 -2.2049
 3645TIP3    H232571  -0.008   3.033   1.435 -0.4448 -1.1329 -0.8619
 3646TIP3   OH232572   0.790   4.203   0.255 -0.6070 -0.2027 -0.3859
 3646TIP3    H132573   0.828   4.164   0.334 -0.8573  0.2191 -0.0561
 3646TIP3    H232574   0.866   4.222   0.200 -0.2247  1.4722  0.6485
 3647TIP3   OH232575   4.372   1.814   7.395 -0.1336  0.0005 -0.3471
 3647TIP3    H132576   4.432   1.754   7.440  0.9599  0.3596 -1.2632
 3647TIP3    H232577   4.286   1.774   7.403 -0.0086  0.1156  2.1546
 3648TIP3   OH232578   1.553   3.206   0.753  0.3094 -0.2405  0.6236
 3648TIP3    H132579   1.545   3.220   0.659  1.9136  1.1052  0.6220
 3648TIP3    H232580   1.528   3.115   0.767 -1.1528 -0.1116 -0.9054
 3649TIP3   OH232581   5.565   0.824   1.402  0.3083  0.2759 -0.0529
 3649TIP3    H132582   5.502   0.812   1.473 -0.6232 -0.0044 -0.9041
 3649TIP3    H232583   5.584   0.918   1.402  0.2326  0.2900  0.4997
 3650TIP3   OH232584   0.884   1.908   8.356 -0.6569  0.3172 -0.1424
 3650TIP3    H132585   0.912   1.817   8.366  0.5959  0.7358  0.4475
 3650TIP3    H232586   0.807   1.915   8.412 -2.7933 -1.1615 -2.6763
 3651TIP3   OH232587   3.039   0.125   0.485  0.0796  0.3796  0.5375
 3651TIP3    H132588   3.111   0.172   0.526 -0.3480  1.0460  0.5266
 3651TIP3    H232589   3.033   0.043   0.534  2.0312 -0.5295 -0.5996
 3652TIP3   OH232590   0.196   3.722   8.355  0.2405  0.2418 -0.1363
 3652TIP3    H132591   0.136   3.789   8.388  0.7861  0.8889 -0.4521
 3652TIP3    H232592   0.152   3.639   8.375 -0.4016  0.6861  0.3282
 3653TIP3   OH232593   6.136   5.694   1.422  0.2761 -0.0872 -0.3512
 3653TIP3    H132594   6.100   5.630   1.483  0.1917 -0.6452 -0.9817
 3653TIP3    H232595   6.231   5.680   1.426  0.2519 -0.3205 -0.5568
 3654TIP3   OH232596   6.495   1.856   0.005  0.3962  0.2534 -0.1917
 3654TIP3    H132597   6.546   1.893  -0.067  0.2057 -0.1167 -0.5225
 3654TIP3    H232598   6.426   1.805  -0.038  0.1227  0.2443  0.2534
 3655TIP3   OH232599   5.934   2.734   6.972 -0.5127  0.2411 -0.1169
 3655TIP3    H132600   5.842   2.753   6.993 -0.2488  1.5041 -0.0310
 3655TIP3    H232601   5.968   2.691   7.050 -1.0455 -0.3429 -0.1905
 3656TIP3   OH232602   2.745   2.073   6.651 -0.0896  0.6510  0.2856
 3656TIP3    H132603   2.739   2.057   6.557  1.2476  1.2570  0.0875
 3656TIP3    H232604   2.720   1.989   6.690  0.2034  0.1251 -0.6194
 3657TIP3   OH232605   0.655   1.571   8.499  0.5671 -0.4095  0.2558
 3657TIP3    H132606   0.600   1.521   8.439  0.3538 -2.4764  2.0609
 3657TIP3    H232607   0.632   1.539   8.586  1.3368  2.0087  1.4569
 3658TIP3   OH232608   3.383   4.072   8.020 -0.4554 -0.2064 -0.0503
 3658TIP3    H132609   3.436   4.148   8.042  1.2053 -0.9716 -1.2397
 3658TIP3    H232610   3.293   4.107   8.015 -0.1526  1.0857  2.0813
 3659TIP3   OH232611   4.654   2.761   7.110  0.2154  0.2172  0.1892
 3659TIP3    H132612   4.691   2.722   7.031  1.0056  0.0875  0.6122
 3659TIP3    H232613   4.574   2.710   7.127  0.3375 -0.1094 -0.2168
 3660TIP3   OH232614   0.102   6.865   7.987 -0.0093  0.4042 -0.4801
 3660TIP3    H132615   0.106   6.940   8.046  0.6664  1.1339 -1.4223
 3660TIP3    H232616   0.010   6.839   7.987 -0.1798  0.9747  0.1592
 3661TIP3   OH232617   4.760   1.331   1.020 -0.1663  0.9807  0.6982
 3661TIP3    H132618   4.829   1.321   1.085  1.1840  0.9502 -0.6996
 3661TIP3    H232619   4.705   1.402   1.054  1.6097  2.2798  0.9605
 3662TIP3   OH232620   3.080   2.087   1.568  0.6136 -0.3266  0.0710
 3662TIP3    H132621   3.010   2.033   1.605  1.0844 -1.5301 -0.7419
 3662TIP3    H232622   3.036   2.169   1.545 -0.7846 -1.3769 -1.2696
 3663TIP3   OH232623   4.346   5.906   6.247 -0.3816 -0.2804  0.2083
 3663TIP3    H132624   4.392   5.982   6.285 -0.7741  0.1475 -0.1646
 3663TIP3    H232625   4.405   5.875   6.179 -0.9444  0.7207 -0.7711
 3664TIP3   OH232626   6.879   1.478   7.568  0.1585  0.8028  0.5307
 3664TIP3    H132627   6.966   1.444   7.587 -0.4255 -0.2255  1.5057
 3664TIP3    H232628   6.860   1.445   7.480 -0.0128 -0.6881  1.0882
 3665TIP3   OH232629   1.949   1.267   8.376 -0.2437 -0.0547  0.0461
 3665TIP3    H132630   2.018   1.332   8.393  0.9671 -1.9526  3.3101
 3665TIP3    H232631   1.971   1.231   8.290  1.6471  0.8528  0.0905
 3666TIP3   OH232632   0.830   4.821   8.332  0.0692 -0.2341 -0.2860
 3666TIP3    H132633   0.839   4.799   8.424  1.0509  0.2231 -0.2638
 3666TIP3    H232634   0.903   4.879   8.313 -0.6069  0.3826 -1.1445
 3667TIP3   OH232635   1.817   5.223   1.350  0.5224  0.2769 -0.5620
 3667TIP3    H132636   1.731   5.199   1.316 -0.4726 -0.1489  2.0468
 3667TIP3    H232637   1.878   5.197   1.280 -1.3020 -1.0185 -1.7694
 3668TIP3   OH232638   2.623   3.894   8.578  0.1702 -0.4320  0.1598
 3668TIP3    H132639   2.605   3.880   8.485 -0.9149 -1.3006  0.4695
 3668TIP3    H232640   2.551   3.950   8.608  1.8753  1.9951 -0.0177
 3669TIP3   OH232641   6.827   2.306   7.464 -0.2838  0.3452  0.7550
 3669TIP3    H132642   6.812   2.222   7.421 -0.4451  1.4115 -1.3854
 3669TIP3    H232643   6.869   2.283   7.547 -0.5989 -1.8452  0.3720
 3670TIP3   OH232644   2.503   2.948   0.490  0.1153 -0.1133 -0.6307
 3670TIP3    H132645   2.437   2.926   0.556  0.4558 -1.4897 -0.7337
 3670TIP3    H232646   2.494   3.043   0.478 -1.5944 -0.2196 -0.3808
 3671TIP3   OH232647   6.062   1.901   7.973 -0.5337  0.0029  0.1002
 3671TIP3    H132648   6.064   1.954   7.894  0.7432 -0.8357 -0.4591
 3671TIP3    H232649   6.130   1.939   8.029  0.1827 -0.8138 -0.1831
 3672TIP3   OH232650   1.344   3.973   6.191 -0.3187 -0.1971 -0.0748
 3672TIP3    H132651   1.418   4.007   6.142 -0.2615  0.2052  0.2890
 3672TIP3    H232652   1.269   4.026   6.161 -0.4020 -0.3831 -0.1997
 3673TIP3   OH232653   0.728   6.560   7.243 -0.2483  0.1012 -0.6732
 3673TIP3    H132654   0.746   6.652   7.265 -0.1464  0.0438 -0.5177
 3673TIP3    H232655   0.735   6.514   7.326  2.0775 -0.4204 -1.1016
 3674TIP3   OH232656   1.833   1.568   7.362 -0.7089  0.2205  0.0135
 3674TIP3    H132657   1.903   1.609   7.414  0.7536 -2.1907  0.0930
 3674TIP3    H232658   1.760   1.558   7.424  0.1678 -0.4605  0.9738
 3675TIP3   OH232659   0.864   6.847   6.258 -0.3859  0.9495  0.7291
 3675TIP3    H132660   0.936   6.819   6.203 -0.3150 -0.9181  1.7155
 3675TIP3    H232661   0.838   6.933   6.223 -0.0023  0.0794 -1.8157
 3676TIP3   OH232662   3.331   2.026   1.508  0.6148 -0.5989  0.7409
 3676TIP3    H132663   3.343   2.069   1.423 -0.6134  1.6046  1.5808
 3676TIP3    H232664   3.242   2.051   1.535  0.2513 -2.8102  1.8586
 3677TIP3   OH232665   1.132   0.657   7.015  0.1310  0.1077  0.3154
 3677TIP3    H132666   1.212   0.702   7.044  1.1431  0.4561 -2.6435
 3677TIP3    H232667   1.102   0.708   6.940 -1.5242 -1.4066 -0.1125
 3678TIP3   OH232668   2.098   5.138   7.445 -0.4493 -0.9297  0.8925
 3678TIP3    H132669   2.099   5.206   7.378 -1.4494 -0.4820  1.2979
 3678TIP3    H232670   2.123   5.184   7.526 -1.4606 -0.9428  1.2322
 3679TIP3   OH232671   3.362   3.008   6.389 -0.0936  0.2724 -0.1525
 3679TIP3    H132672   3.325   2.962   6.464  1.0374 -0.3765  0.0239
 3679TIP3    H232673   3.308   3.087   6.381  0.3700  0.8902  1.9871
 3680TIP3   OH232674   6.089   2.976   7.489  0.0317  0.3250  0.4257
 3680TIP3    H132675   6.113   3.069   7.494  2.0046 -0.1141  0.0123
 3680TIP3    H232676   6.155   2.932   7.542  0.1665 -1.0005 -0.7955
 3681TIP3   OH232677   0.764   1.037   1.139  0.0355  0.1069  0.4494
 3681TIP3    H132678   0.859   1.027   1.137 -0.0950 -1.1381 -1.0373
 3681TIP3    H232679   0.735   1.018   1.050 -1.7403 -1.2533  1.2452
 3682TIP3   OH232680   6.662   3.444   7.309 -0.2964 -0.0108 -0.0378
 3682TIP3    H132681   6.722   3.387   7.262 -2.0862 -0.8173 -1.4816
 3682TIP3    H232682   6.624   3.388   7.377  0.0318  0.2864  0.3954
 3683TIP3   OH232683   5.883   1.285   0.361 -0.1718 -0.2374 -0.2872
 3683TIP3    H132684   5.910   1.294   0.270 -0.2744 -1.6897 -0.4880
 3683TIP3    H232685   5.874   1.191   0.374 -0.3299 -0.0445  1.1807
 3684TIP3   OH232686   4.939   2.668   7.642 -0.5110  0.3550  0.4607
 3684TIP3    H132687   4.977   2.712   7.567 -1.1603  3.1285  1.6322
 3684TIP3    H232688   4.990   2.588   7.652  0.1902  0.3737 -2.3165
 3685TIP3   OH232689   5.590   3.854   0.593  0.2390 -0.4425  0.1120
 3685TIP3    H132690   5.503   3.825   0.564  0.1442  0.4209 -0.4981
 3685TIP3    H232691   5.615   3.921   0.529  0.3321  1.0231  1.6395
 3686TIP3   OH232692   0.659   6.362   7.780  0.5988  0.0019  0.1273
 3686TIP3    H132693   0.743   6.326   7.752 -0.0246 -0.9595 -0.5896
 3686TIP3    H232694   0.674   6.394   7.869  1.5043 -0.9585  0.3336
 3687TIP3   OH232695   6.813   3.037   0.310 -0.3457 -0.0281 -0.1577
 3687TIP3    H132696   6.799   3.041   0.404 -0.6611 -0.2104 -0.1939
 3687TIP3    H232697   6.763   3.110   0.275  1.3490  1.2493 -0.0253
 3688TIP3   OH232698   1.550   4.520   7.273 -0.0749 -0.1727  0.0254
 3688TIP3    H132699   1.520   4.587   7.335  0.7623  0.0232  0.2299
 3688TIP3    H232700   1.519   4.550   7.188 -0.9241 -0.2582  0.2979
 3689TIP3   OH232701   2.915   2.917   1.033 -0.9798  0.4486 -0.8429
 3689TIP3    H132702   2.848   2.945   0.971 -1.1453  0.6074 -0.5936
 3689TIP3    H232703   2.960   2.999   1.057 -1.7065  0.5731  0.1784
 3690TIP3   OH232704   1.734   0.471   8.506  0.4324  0.3189  0.1854
 3690TIP3    H132705   1.776   0.387   8.522  0.9544  0.7291  1.0753
 3690TIP3    H232706   1.762   0.526   8.579  1.9971  1.9820 -1.5626
 3691TIP3   OH232707   2.583   4.676   7.707  0.4330  0.3188 -0.4472
 3691TIP3    H132708   2.512   4.626   7.667  1.0454 -0.6123 -0.4048
 3691TIP3    H232709   2.542   4.758   7.736 -0.7211 -0.3870 -0.0174
 3692TIP3   OH232710   1.486   4.190   0.785  0.0940  0.4131  0.0491
 3692TIP3    H132711   1.413   4.222   0.839 -0.8851 -0.5279 -0.6651
 3692TIP3    H232712   1.498   4.258   0.719  0.8244  1.2353  0.9984
 3693TIP3   OH232713   4.603   3.152   1.759  0.6796  0.0431  0.7169
 3693TIP3    H132714   4.531   3.215   1.757  0.0210 -0.7112  0.1827
 3693TIP3    H232715   4.682   3.206   1.746  0.2514  0.9079  1.5941
 3694TIP3   OH232716   1.933   0.188   1.927 -0.2072 -0.3862 -0.1157
 3694TIP3    H132717   1.854   0.135   1.939 -0.7677 -0.2948 -2.8187
 3694TIP3    H232718   1.984   0.140   1.862  1.3921  0.2098  0.6465
 3695TIP3   OH232719   5.959   2.599   7.218 -0.5524 -0.0029 -0.3144
 3695TIP3    H132720   5.929   2.671   7.274 -1.8069 -0.2918 -0.5821
 3695TIP3    H232721   6.006   2.541   7.278  0.1736  0.8665 -0.0310
 3696TIP3   OH232722   6.655   3.695   8.162  0.0603  0.8157  0.6583
 3696TIP3    H132723   6.674   3.788   8.160 -0.5797  0.9726 -2.2323
 3696TIP3    H232724   6.720   3.656   8.103 -2.4352  0.1107 -1.8131
 3697TIP3   OH232725   5.293   4.517   7.980 -0.4725 -0.1403 -0.1013
 3697TIP3    H132726   5.229   4.445   7.979  2.2299 -2.7816  1.4458
 3697TIP3    H232727   5.267   4.570   8.055 -1.8204 -0.1322 -0.5386
 3698TIP3   OH232728   2.957   4.036   1.019  0.3043  0.5675 -0.9166
 3698TIP3    H132729   2.871   4.001   1.045 -0.3828  2.2513 -0.7784
 3698TIP3    H232730   2.946   4.131   1.022  3.3448  1.0523  3.0854
 3699TIP3   OH232731   1.769   0.918   1.495 -0.2319  0.0243 -0.5015
 3699TIP3    H132732   1.841   0.978   1.472 -1.5831  1.0882 -2.2663
 3699TIP3    H232733   1.768   0.854   1.424 -0.1081 -0.8816  0.2961
 3700TIP3   OH232734   4.754   2.297   8.373 -0.3178  0.3263  0.0648
 3700TIP3    H132735   4.788   2.384   8.354  0.7169 -0.3248 -1.1634
 3700TIP3    H232736   4.679   2.288   8.313 -0.7848  0.5720  0.5987
 3701TIP3   OH232737   5.433   6.192   7.269 -0.1102 -0.0338  0.1805
 3701TIP3    H132738   5.359   6.147   7.311 -0.4310 -0.1806 -0.5274
 3701TIP3    H232739   5.477   6.124   7.218  1.5473 -0.3406  1.9167
 3702TIP3   OH232740   0.748   6.723   0.288  0.1496 -0.1638 -0.0963
 3702TIP3    H132741   0.770   6.753   0.377  0.4133 -0.7427  0.0353
 3702TIP3    H232742   0.662   6.760   0.271 -0.0714 -0.3659  0.5527
 3703TIP3   OH232743   6.762   0.608   1.570  0.5002 -0.1929 -0.8443
 3703TIP3    H132744   6.802   0.575   1.650  1.0283  1.0561 -0.5712
 3703TIP3    H232745   6.667   0.601   1.585  0.5939  0.3357  0.0235
 3704TIP3   OH232746   3.759   1.557   1.207 -0.4160 -0.2564 -0.0648
 3704TIP3    H132747   3.826   1.552   1.274 -0.6046 -1.0676  0.0789
 3704TIP3    H232748   3.792   1.621   1.144 -1.4428  2.5694  2.0874
 3705TIP3   OH232749   2.988   5.231   0.440  0.3463 -0.1256  0.1051
 3705TIP3    H132750   2.896   5.209   0.422  0.0045  1.6365 -0.5104
 3705TIP3    H232751   3.004   5.198   0.528 -0.5597 -1.3712 -0.1694
 3706TIP3   OH232752   1.902   6.334   7.350  0.5903  0.3470  0.5625
 3706TIP3    H132753   1.917   6.308   7.441  0.1077  2.8397  1.4408
 3706TIP3    H232754   1.827   6.281   7.322  0.7009 -0.4047  1.6538
 3707TIP3   OH232755   0.608   2.594   0.445  0.8415 -0.1507  0.1236
 3707TIP3    H132756   0.555   2.559   0.373  2.3660  0.8271 -1.5756
 3707TIP3    H232757   0.622   2.519   0.503 -1.7939 -0.5783  0.3142
 3708TIP3   OH232758   0.435   1.422   7.980 -0.4580  0.3122  0.0982
 3708TIP3    H132759   0.462   1.463   7.898 -0.4819 -0.0132 -0.0739
 3708TIP3    H232760   0.501   1.355   7.996 -1.0935 -0.4106 -0.2639
 3709TIP3   OH232761   2.962   2.331   1.879 -0.1462  0.1465 -0.1845
 3709TIP3    H132762   2.954   2.422   1.905 -1.1807 -0.6591  2.6759
 3709TIP3    H232763   2.884   2.313   1.827 -0.1225  0.7822 -0.4445
 3710TIP3   OH232764   2.447   4.431   7.055 -0.4392 -0.3348  0.2649
 3710TIP3    H132765   2.356   4.454   7.039 -0.5470 -0.7256  0.3316
 3710TIP3    H232766   2.497   4.491   6.999 -0.7656 -0.7569 -0.4863
 3711TIP3   OH232767   3.069   1.543   1.116 -0.1168 -0.4809 -0.0999
 3711TIP3    H132768   3.121   1.621   1.135  0.1184 -0.6991  0.1603
 3711TIP3    H232769   3.132   1.471   1.116 -0.4091 -0.7394  0.1585
 3712TIP3   OH232770   3.192   6.652   1.120  0.4817  0.1020  0.5047
 3712TIP3    H132771   3.187   6.578   1.059 -2.7299  0.8860 -0.3522
 3712TIP3    H232772   3.278   6.642   1.161  1.3987 -2.3996 -1.6740
 3713TIP3   OH232773   6.803   4.509   7.716  0.1540 -0.2160 -0.3770
 3713TIP3    H132774   6.741   4.452   7.762  0.2042  0.3767  0.4331
 3713TIP3    H232775   6.867   4.448   7.678 -0.9110 -0.8400 -1.2518
 3714TIP3   OH232776   0.828   4.421   1.412  0.3926 -0.6501  0.1496
 3714TIP3    H132777   0.819   4.357   1.483 -0.3621  1.0097  1.6240
 3714TIP3    H232778   0.758   4.400   1.351 -0.5378 -0.5848  1.1650
 3715TIP3   OH232779   0.177   2.227   8.652 -0.6599 -0.4945 -0.0231
 3715TIP3    H132780   0.180   2.226   8.748  0.5648 -0.6657 -0.0402
 3715TIP3    H232781   0.137   2.311   8.630 -0.8147 -0.3898  0.6412
 3716TIP3   OH232782   3.958   2.115   7.519 -0.4607 -0.6166 -0.3467
 3716TIP3    H132783   3.971   2.195   7.468 -0.5220 -0.9209 -0.8407
 3716TIP3    H232784   3.956   2.145   7.610  0.7750 -0.1988 -0.4295
 3717TIP3   OH232785   2.032   2.487   7.007  0.0993  0.2463 -0.2242
 3717TIP3    H132786   1.943   2.463   7.031 -0.0459 -0.0048 -0.9772
 3717TIP3    H232787   2.041   2.456   6.917  1.5396 -1.3456  0.4085
 3718TIP3   OH232788   5.488   6.152   7.934  0.0990  0.1511  0.3982
 3718TIP3    H132789   5.519   6.103   8.010 -0.9428 -0.8887  0.1812
 3718TIP3    H232790   5.501   6.093   7.860 -0.7985  0.3478  0.0691
 3719TIP3   OH232791   4.161   6.102   1.719 -0.3745  0.2576  0.1573
 3719TIP3    H132792   4.087   6.047   1.748 -0.8531  0.7992 -0.0206
 3719TIP3    H232793   4.226   6.092   1.788 -0.3103 -0.8144 -0.0310
 3720TIP3   OH232794   6.893   3.157   6.796  0.4392  0.3096 -0.2516
 3720TIP3    H132795   6.951   3.144   6.722 -0.5303 -3.3472 -0.5178
 3720TIP3    H232796   6.930   3.103   6.866 -0.0143  1.7946  1.2305
 3721TIP3   OH232797   1.499   5.917   0.415  0.2114  0.4126  0.0833
 3721TIP3    H132798   1.443   5.905   0.337 -1.0456  0.6838  0.9094
 3721TIP3    H232799   1.474   6.003   0.449  0.0472 -0.1112  1.3289
 3722TIP3   OH232800   5.235   1.503   8.093  0.2471  0.0393  0.1016
 3722TIP3    H132801   5.155   1.452   8.106 -0.2174  0.4477 -0.9973
 3722TIP3    H232802   5.287   1.450   8.031  0.9649 -0.3616  1.0289
 3723TIP3   OH232803   0.729   4.482   6.599 -0.1235 -0.8222 -0.1646
 3723TIP3    H132804   0.784   4.429   6.656  0.8855  1.3619  0.9881
 3723TIP3    H232805   0.770   4.568   6.599 -2.4966  0.3865 -0.7938
 3724TIP3   OH232806   0.138   6.188   7.120 -0.2607 -0.0141 -0.0424
 3724TIP3    H132807   0.092   6.262   7.081 -1.5537 -0.0298  1.3676
 3724TIP3    H232808   0.204   6.228   7.176  0.0284  0.0370 -0.4147
 3725TIP3   OH232809   5.553   3.913   6.910 -0.6943 -0.0329 -0.8573
 3725TIP3    H132810   5.635   3.936   6.867  0.0951  0.2843  0.7453
 3725TIP3    H232811   5.488   3.971   6.870 -0.0292  0.1970 -1.6423
 3726TIP3   OH232812   4.147   1.134   7.406 -0.0433 -0.1808  0.8382
 3726TIP3    H132813   4.115   1.070   7.469 -0.9488 -1.5624 -0.9497
 3726TIP3    H232814   4.225   1.171   7.447  0.2643 -2.1086  2.1170
 3727TIP3   OH232815   0.433   5.892   7.177  0.0379 -0.5263 -0.2746
 3727TIP3    H132816   0.463   5.964   7.232 -0.0734  0.0178 -0.9028
 3727TIP3    H232817   0.378   5.934   7.110  0.2544 -1.1459 -0.8607
 3728TIP3   OH232818   5.968   2.604   1.375 -0.6820 -0.0830  0.3218
 3728TIP3    H132819   5.908   2.529   1.374  0.4036 -0.9795  0.3113
 3728TIP3    H232820   6.034   2.581   1.441 -0.1818  0.7402  0.1226
 3729TIP3   OH232821   6.624   5.688   8.270  0.0941 -0.4300 -0.1254
 3729TIP3    H132822   6.627   5.782   8.254 -1.9219 -0.3259 -0.0975
 3729TIP3    H232823   6.716   5.661   8.268  0.9352  1.8568  1.8200
 3730TIP3   OH232824   3.897   6.734   7.384 -0.0501 -0.1435  0.1282
 3730TIP3    H132825   3.817   6.699   7.345  0.1834 -1.2029  0.5645
 3730TIP3    H232826   3.915   6.814   7.335 -1.7678  0.5163  0.4774
 3731TIP3   OH232827   6.196   0.577   7.393  0.0074 -0.2321 -0.0050
 3731TIP3    H132828   6.217   0.586   7.300 -0.1636  0.1592 -0.0085
 3731TIP3    H232829   6.244   0.648   7.435 -0.4351 -0.0083  0.1237
 3732TIP3   OH232830   2.822   0.404   6.488 -0.1227 -0.0294 -0.5569
 3732TIP3    H132831   2.774   0.388   6.406  0.5551 -0.2402 -0.9179
 3732TIP3    H232832   2.912   0.378   6.469  0.0105 -0.2394  0.3154
 3733TIP3   OH232833   3.353   2.535   7.461 -0.3689  0.2714 -0.0219
 3733TIP3    H132834   3.411   2.598   7.417 -0.2984  1.0550  1.1394
 3733TIP3    H232835   3.270   2.543   7.416 -0.0016  0.2531 -0.7194
 3734TIP3   OH232836   4.933   5.816   0.208  0.4927  0.0431  0.0773
 3734TIP3    H132837   5.027   5.839   0.210  0.1621  1.6377 -0.8965
 3734TIP3    H232838   4.889   5.898   0.229 -0.7643  0.0847 -2.4508
 3735TIP3   OH232839   5.753   6.029   0.126 -0.2415 -0.3526  0.3642
 3735TIP3    H132840   5.788   6.115   0.100 -1.4662 -0.1164 -0.5593
 3735TIP3    H232841   5.660   6.044   0.139 -0.6008 -1.6984 -0.5027
 3736TIP3   OH232842   1.616   4.900   7.816 -0.7576  0.6759 -0.3779
 3736TIP3    H132843   1.692   4.858   7.776 -2.1504 -2.3431 -0.0978
 3736TIP3    H232844   1.653   4.959   7.881  1.4091 -2.0156  1.0438
 3737TIP3   OH232845   4.190   2.376   0.998  0.3701 -0.1388 -0.2201
 3737TIP3    H132846   4.255   2.310   1.022  0.9567  0.4724 -0.1015
 3737TIP3    H232847   4.236   2.460   1.006 -0.7000  0.3974  0.8577
 3738TIP3   OH232848   5.471   4.552   0.723  0.0771  0.6921  0.4867
 3738TIP3    H132849   5.528   4.628   0.728  0.0363  0.7904 -0.4049
 3738TIP3    H232850   5.384   4.588   0.708  0.0738  0.4783 -0.0408
 3739TIP3   OH232851   4.507   1.099   7.680 -0.2067  0.0099 -0.3452
 3739TIP3    H132852   4.549   1.135   7.757  0.4369 -0.5283 -0.4309
 3739TIP3    H232853   4.471   1.175   7.634 -1.3209  0.2629  0.8890
 3740TIP3   OH232854   0.319   0.134   7.185 -0.0431  0.0335  0.8268
 3740TIP3    H132855   0.336   0.081   7.263  3.2345  1.1771  1.0468
 3740TIP3    H232856   0.370   0.213   7.199 -0.0251  0.6386 -2.1504
 3741TIP3   OH232857   5.413   6.104   0.454 -0.3967  0.4726 -0.0593
 3741TIP3    H132858   5.467   6.110   0.375 -1.3145 -1.7545 -0.9450
 3741TIP3    H232859   5.445   6.174   0.510  1.4098  1.0882 -1.7325
 3742TIP3   OH232860   1.555   1.189   6.825  0.3069  0.0819 -0.0785
 3742TIP3    H132861   1.527   1.243   6.898 -0.4906  0.9537 -1.0020
 3742TIP3    H232862   1.474   1.161   6.783  0.6697 -2.1759  0.5794
 3743TIP3   OH232863   3.956   1.648   8.388 -0.2217 -0.3012 -0.2536
 3743TIP3    H132864   3.877   1.604   8.419 -1.3821  2.6243  1.3031
 3743TIP3    H232865   3.958   1.631   8.293 -1.6370 -1.9708 -0.0188
 3744TIP3   OH232866   1.875   1.253   0.766  0.2194  0.2436  0.3140
 3744TIP3    H132867   1.954   1.216   0.728  1.4934  0.3218  2.6699
 3744TIP3    H232868   1.898   1.345   0.784 -0.7437  0.5255  0.1703
 3745TIP3   OH232869   1.839   3.860   7.116 -0.1802 -0.5693 -0.4468
 3745TIP3    H132870   1.837   3.765   7.119  0.0297 -0.5919 -0.9455
 3745TIP3    H232871   1.891   3.886   7.192  0.3478 -0.8776 -0.7038
 3746TIP3   OH232872   3.576   0.415   1.024  0.0362  0.2148  0.4345
 3746TIP3    H132873   3.670   0.414   1.004  1.0217  0.4605  4.3078
 3746TIP3    H232874   3.547   0.502   0.997  0.7861  0.0170 -1.1231
 3747TIP3   OH232875   4.192   3.280   1.354  0.2961 -0.1181  0.1312
 3747TIP3    H132876   4.195   3.206   1.414 -0.7073 -2.0723 -2.0608
 3747TIP3    H232877   4.187   3.357   1.410  1.9186 -1.6383  2.5325
 3748TIP3   OH232878   5.504   4.951   1.233 -0.3325  0.1033  0.2930
 3748TIP3    H132879   5.575   4.994   1.280  0.3874  1.0267 -1.5700
 3748TIP3    H232880   5.436   5.017   1.226  0.2704  0.5792 -1.4633
 3749TIP3   OH232881   2.827   0.405   7.016 -0.0683 -0.5697 -0.0678
 3749TIP3    H132882   2.873   0.468   7.072 -0.3255 -1.5214  1.2701
 3749TIP3    H232883   2.749   0.382   7.066  0.3829 -2.4829 -0.1795
 3750TIP3   OH232884   1.494   1.711   1.428  0.0484  0.4040 -0.1857
 3750TIP3    H132885   1.585   1.710   1.459  0.6860  3.1426 -1.6202
 3750TIP3    H232886   1.478   1.622   1.396  1.9458 -0.3508  0.8308
 3751TIP3   OH232887   5.214   6.786   0.588 -0.0596 -0.0484  0.0586
 3751TIP3    H132888   5.136   6.737   0.614 -0.6424  0.5696 -0.4698
 3751TIP3    H232889   5.183   6.876   0.578  0.3059 -0.0994 -1.8726
 3752TIP3   OH232890   1.976   2.016   7.077 -0.1151 -0.1002  0.4977
 3752TIP3    H132891   2.032   2.001   7.001 -0.5842  0.8250 -0.0510
 3752TIP3    H232892   1.985   1.937   7.130  1.3258 -0.1685  0.1867
 3753TIP3   OH232893   6.333   6.262   7.879 -0.2232  0.0119  0.2730
 3753TIP3    H132894   6.246   6.294   7.902 -0.3022  0.4204 -0.5379
 3753TIP3    H232895   6.325   6.167   7.885 -1.0499 -0.0164 -0.7876
 3754TIP3   OH232896   4.518   0.106   0.358  0.1584  0.1276  0.3221
 3754TIP3    H132897   4.514   0.178   0.421 -0.8070 -0.6942  1.2370
 3754TIP3    H232898   4.433   0.109   0.314  0.5134  0.1776 -0.3711
 3755TIP3   OH232899   3.121   2.865   0.171  0.4016 -0.2514  0.4999
 3755TIP3    H132900   3.066   2.936   0.206 -0.3644  0.1611 -1.4178
 3755TIP3    H232901   3.119   2.798   0.239 -0.7245  0.6348  1.3898
 3756TIP3   OH232902   5.427   4.921   1.613  0.1308  0.3051 -0.6702
 3756TIP3    H132903   5.344   4.909   1.567 -0.8942  0.1616  1.1183
 3756TIP3    H232904   5.422   5.009   1.650  0.0368 -0.2764  0.7816
 3757TIP3   OH232905   6.401   6.751   0.773 -0.0826  0.0679  0.2965
 3757TIP3    H132906   6.460   6.678   0.758 -0.6461  0.0073 -2.1861
 3757TIP3    H232907   6.431   6.819   0.712 -1.5044  0.6833  0.2335
 3758TIP3   OH232908   2.566   0.434   0.545 -0.3258  0.2150 -0.2415
 3758TIP3    H132909   2.477   0.409   0.568 -0.3769 -0.4907 -1.1319
 3758TIP3    H232910   2.621   0.367   0.585 -0.1757  0.7297  0.4279
 3759TIP3   OH232911   0.069   2.414   2.004 -1.0279  0.4286  0.2427
 3759TIP3    H132912  -0.004   2.415   2.065 -1.5948 -1.1716 -0.3524
 3759TIP3    H232913   0.048   2.342   1.943 -0.7581  2.2491 -2.1390
 3760TIP3   OH232914   5.730   3.795   1.402 -0.5896  0.2088  0.1268
 3760TIP3    H132915   5.665   3.780   1.470 -1.0728 -0.5568 -0.4872
 3760TIP3    H232916   5.808   3.826   1.449 -0.8281 -0.5625  1.0479
 3761TIP3   OH232917   2.335   1.343   0.582  0.0679  0.5924 -0.6253
 3761TIP3    H132918   2.379   1.400   0.645  0.8040  0.4849 -1.0318
 3761TIP3    H232919   2.404   1.287   0.547 -0.7168 -0.9127  0.1352
 3762TIP3   OH232920   2.668   0.132   6.994  0.7523  0.1544  0.0714
 3762TIP3    H132921   2.686   0.175   6.910 -0.8172 -0.4520 -0.6241
 3762TIP3    H232922   2.578   0.157   7.014  0.9528 -0.1111  1.3401
 3763TIP3   OH232923   3.221   5.430   8.404 -0.1733  0.3536  0.6468
 3763TIP3    H132924   3.234   5.442   8.310 -0.7884  1.4217  0.6808
 3763TIP3    H232925   3.127   5.446   8.417  0.2755  2.3918  1.7368
 3764TIP3   OH232926   2.778   3.733   7.625  0.2404  0.2232  0.1044
 3764TIP3    H132927   2.802   3.823   7.646 -1.3190  1.1757 -1.9144
 3764TIP3    H232928   2.722   3.707   7.698  0.8318  0.8138  0.7900
 3765TIP3   OH232929   4.139   4.488   6.738 -0.1819  0.2657 -0.6283
 3765TIP3    H132930   4.134   4.511   6.831 -1.8587 -0.0515 -0.6147
 3765TIP3    H232931   4.220   4.438   6.730  0.8439  1.7112  0.3244
 3766TIP3   OH232932   1.031   6.472   7.261  0.1348 -0.1281 -0.1568
 3766TIP3    H132933   0.978   6.455   7.339  0.2584 -0.4799 -0.1483
 3766TIP3    H232934   1.084   6.393   7.250  1.2637  0.5533  0.3129
 3767TIP3   OH232935   1.285   1.377   0.755 -0.4767  0.2550 -0.2788
 3767TIP3    H132936   1.267   1.392   0.662 -1.2150  0.8829 -0.0410
 3767TIP3    H232937   1.298   1.464   0.792 -1.1736  0.0903  0.3971
 3768TIP3   OH232938   3.440   6.372   0.792  0.4799  0.0978  0.3611
 3768TIP3    H132939   3.434   6.352   0.698 -1.2097  2.2691 -0.0879
 3768TIP3    H232940   3.421   6.289   0.836 -0.2380 -0.6300 -1.2314
 3769TIP3   OH232941   0.897   1.675   7.980  0.0183  0.5704 -0.3664
 3769TIP3    H132942   0.871   1.766   7.994 -2.3672 -0.0941  0.0283
 3769TIP3    H232943   0.868   1.655   7.891  0.1637  0.0791 -0.3041
 3770TIP3   OH232944   4.391   5.947   6.679 -0.3756 -0.4475 -0.7390
 3770TIP3    H132945   4.376   6.009   6.751 -0.7500  0.0654 -1.2516
 3770TIP3    H232946   4.441   5.876   6.719 -0.1464  0.0687 -0.0841
 3771TIP3   OH232947   6.273   1.743   8.600 -0.4539 -0.1371  0.0962
 3771TIP3    H132948   6.275   1.777   8.510  0.8264  0.8221  0.4732
 3771TIP3    H232949   6.183   1.759   8.629 -1.1756 -1.3359 -1.3179
 3772TIP3   OH232950   0.634   5.122   7.157  0.1067 -0.2716 -0.0439
 3772TIP3    H132951   0.601   5.033   7.150 -2.3666  0.6859 -2.3278
 3772TIP3    H232952   0.704   5.128   7.093  0.7910 -0.7397  0.6471
 3773TIP3   OH232953   1.982   3.001   7.179 -0.3623  0.2664 -0.6619
 3773TIP3    H132954   2.021   2.936   7.120 -2.1770 -2.2512  0.7184
 3773TIP3    H232955   1.904   3.032   7.134 -0.5880 -0.0529 -0.4964
 3774TIP3   OH232956   3.903   4.457   6.577 -0.5478  0.3586  0.2481
 3774TIP3    H132957   3.996   4.479   6.586 -0.4416  0.7721 -1.4887
 3774TIP3    H232958   3.902   4.383   6.516 -1.3656  0.4737  0.1147
 3775TIP3   OH232959   3.077   1.892   0.089 -0.4527 -0.1577  1.0844
 3775TIP3    H132960   3.146   1.866   0.028 -1.8346 -0.3243 -0.4842
 3775TIP3    H232961   3.121   1.899   0.174  1.7876  1.1627 -0.0818
 3776TIP3   OH232962   3.869   2.827   1.374  0.6839  0.3153 -0.8115
 3776TIP3    H132963   3.790   2.866   1.411  0.3920 -0.5186 -0.5284
 3776TIP3    H232964   3.873   2.862   1.285  1.2134  2.0838 -0.1220
 3777TIP3   OH232965   5.380   0.934   2.346  0.1581 -0.5239  0.3915
 3777TIP3    H132966   5.317   0.995   2.384  2.0442 -0.0854  3.0607
 3777TIP3    H232967   5.440   0.988   2.296 -1.5912 -0.9807 -2.4856
 3778TIP3   OH232968   4.359   4.384   8.616  0.2016  0.2995  0.5441
 3778TIP3    H132969   4.268   4.357   8.603  1.0008 -1.9769 -0.8827
 3778TIP3    H232970   4.411   4.317   8.572  2.5821  1.9080  0.6899
 3779TIP3   OH232971   6.468   0.536   7.665 -0.0962 -0.6126 -0.3251
 3779TIP3    H132972   6.511   0.490   7.593  0.3458 -0.4292 -0.1789
 3779TIP3    H232973   6.410   0.599   7.622 -0.2669 -0.9002 -0.5212
 3780TIP3   OH232974   4.221   3.480   0.711  0.1220  0.3522  0.0639
 3780TIP3    H132975   4.271   3.526   0.644  0.6597 -0.5286 -0.1588
 3780TIP3    H232976   4.241   3.527   0.792  3.2523 -1.3425  0.4238
 3781TIP3   OH232977   6.338   4.784   6.574  0.3125  0.1186 -0.2497
 3781TIP3    H132978   6.365   4.863   6.527 -1.6667  0.7748 -0.3849
 3781TIP3    H232979   6.266   4.749   6.522 -0.2331 -0.5848  0.9295
 3782TIP3   OH232980   3.746   3.954   1.317  0.3198 -0.5080 -0.0899
 3782TIP3    H132981   3.709   3.883   1.264  0.6522 -1.6440  1.1250
 3782TIP3    H232982   3.824   3.982   1.269 -1.2299  0.8880 -1.9129
 3783TIP3   OH232983   2.625   5.830   0.926 -0.3696  0.5898 -0.0383
 3783TIP3    H132984   2.626   5.908   0.982 -0.3056  0.9322 -0.5164
 3783TIP3    H232985   2.621   5.864   0.837 -1.9485  0.0188 -0.2099
 3784TIP3   OH232986   1.135   6.572   8.664  0.0126 -0.5140 -0.1992
 3784TIP3    H132987   1.087   6.604   8.587  0.3360 -1.8098 -0.9666
 3784TIP3    H232988   1.116   6.636   8.732 -0.0593  0.8468 -1.4291
 3785TIP3   OH232989   6.608   0.750   0.628  0.6413  0.3449 -0.1476
 3785TIP3    H132990   6.544   0.739   0.558 -0.6594 -0.8481  1.1662
 3785TIP3    H232991   6.568   0.813   0.688  1.2876  0.5928  0.0342
 3786TIP3   OH232992   6.098   2.223   1.599 -0.2614 -0.2260 -0.4583
 3786TIP3    H132993   6.119   2.130   1.611 -0.6436 -0.2530  0.0021
 3786TIP3    H232994   6.145   2.267   1.670 -0.2149 -0.0796 -0.5788
 3787TIP3   OH232995   2.950   6.879   7.060 -0.0940 -0.4116 -0.0475
 3787TIP3    H132996   3.017   6.937   7.022 -0.2914  0.0359  0.2738
 3787TIP3    H232997   2.869   6.929   7.051 -0.6414 -1.4814 -1.6695
 3788TIP3   OH232998   1.168   1.060   6.468  0.3316 -0.1974  0.6445
 3788TIP3    H132999   1.132   1.138   6.427 -1.7946 -0.9643  0.9159
 3788TIP3    H233000   1.178   0.997   6.396 -1.4901 -0.8719  0.9385
 3789TIP3   OH233001   1.455   6.087   1.368 -0.1200  0.3174 -0.3019
 3789TIP3    H133002   1.477   6.153   1.303 -0.7789  1.1218  0.2744
 3789TIP3    H233003   1.524   6.094   1.434  1.0028 -1.0460 -1.2637
 3790TIP3   OH233004   6.223   5.585   7.893  0.0424 -0.1085  0.2946
 3790TIP3    H133005   6.174   5.666   7.883 -0.1714 -0.2725 -0.0429
 3790TIP3    H233006   6.315   5.610   7.879 -0.1370 -0.1315 -1.1468
 3791TIP3   OH233007   3.690   1.450   0.379  0.2115 -0.3408 -0.1762
 3791TIP3    H133008   3.733   1.536   0.384 -1.3947  0.4374  0.9515
 3791TIP3    H233009   3.700   1.424   0.287  0.9228  0.9458 -0.4905
 3792TIP3   OH233010   1.683   1.502   0.853 -0.3347 -0.1846  0.2167
 3792TIP3    H133011   1.763   1.507   0.905 -0.2040  0.2417 -0.0200
 3792TIP3    H233012   1.619   1.555   0.900  0.0864  1.0709 -0.5817
 3793TIP3   OH233013   0.836   4.141   7.870  0.1985 -1.0038  0.0331
 3793TIP3    H133014   0.845   4.210   7.803 -1.6391  1.2250  1.8914
 3793TIP3    H233015   0.762   4.088   7.840 -0.4033 -0.2135  0.0523
 3794TIP3   OH233016   3.234   0.295   1.910 -0.3445 -0.2127 -0.2748
 3794TIP3    H133017   3.250   0.385   1.937 -1.5983 -0.3574  1.0428
 3794TIP3    H233018   3.143   0.278   1.933 -0.8400 -1.1168 -2.5648
 3795TIP3   OH233019   4.597   1.012   7.337 -0.1280 -0.1762  0.2173
 3795TIP3    H133020   4.604   0.953   7.412  2.1210  1.2286  1.2069
 3795TIP3    H233021   4.513   0.989   7.297 -0.5055 -2.2883  2.0104
 3796TIP3   OH233022   1.706   1.475   1.560 -0.9105 -0.4358  0.2773
 3796TIP3    H133023   1.666   1.389   1.549  0.8571 -1.1812 -0.9177
 3796TIP3    H233024   1.763   1.485   1.484 -0.0029  1.1829  1.1023
 3797TIP3   OH233025   0.023   5.906   8.415 -0.0309  0.1078  0.3251
 3797TIP3    H133026   0.102   5.961   8.419 -0.3882  0.5293  2.1455
 3797TIP3    H233027  -0.047   5.961   8.449 -0.8641 -0.7312  0.0142
 3798TIP3   OH233028   1.525   2.331   8.048  0.1363 -0.3524 -0.3252
 3798TIP3    H133029   1.516   2.247   8.004  1.0464  0.0363 -1.3102
 3798TIP3    H233030   1.618   2.337   8.071 -0.2874 -0.4909  1.5960
 3799TIP3   OH233031   2.414   5.324   6.021 -0.4028  0.0525  0.0543
 3799TIP3    H133032   2.346   5.257   6.027  0.3268 -0.6465  0.9464
 3799TIP3    H233033   2.392   5.387   6.091 -0.6619  0.3413 -0.2842
 3800TIP3   OH233034   1.440   4.886   1.271  0.1837 -0.1403 -0.1509
 3800TIP3    H133035   1.472   4.882   1.181  0.8594 -0.9125  0.1127
 3800TIP3    H233036   1.358   4.836   1.269  1.1153 -1.7306  0.0231
 3801TIP3   OH233037   1.686   3.331   0.441  0.4486  0.2520 -0.5976
 3801TIP3    H133038   1.621   3.392   0.477  0.0065  0.1185 -1.1471
 3801TIP3    H233039   1.751   3.321   0.511 -0.2242  0.2409  0.0417
 3802TIP3   OH233040   4.230   5.224   7.291  0.1788  0.4533 -0.0466
 3802TIP3    H133041   4.160   5.160   7.275 -0.7067  1.7616 -1.7223
 3802TIP3    H233042   4.281   5.225   7.210  0.4074  1.5658  0.0933
 3803TIP3   OH233043   4.542   4.554   8.303  0.0778  0.3865 -0.1610
 3803TIP3    H133044   4.526   4.459   8.297  2.2192 -0.2808  2.5121
 3803TIP3    H233045   4.554   4.570   8.396  1.6344  2.9607 -0.7133
 3804TIP3   OH233046   5.960   2.641   0.042  0.2285  0.3405  0.1828
 3804TIP3    H133047   5.991   2.630   0.133  0.6931 -2.0094 -0.1931
 3804TIP3    H233048   6.035   2.615  -0.011 -0.4513  0.4815 -0.8560
 3805TIP3   OH233049   2.525   4.622   0.677  0.1528  0.4845 -0.1927
 3805TIP3    H133050   2.569   4.631   0.762 -0.0172 -1.6184  0.1879
 3805TIP3    H233051   2.521   4.710   0.642  1.4416  1.2222  1.3923
 3806TIP3   OH233052   5.483   3.416   7.509  0.3084  0.0344 -0.1524
 3806TIP3    H133053   5.562   3.363   7.518 -0.0781 -1.0199 -2.3251
 3806TIP3    H233054   5.501   3.474   7.435 -0.6853  0.3025 -0.1997
 3807TIP3   OH233055   0.118   3.378   7.003  0.2884  0.4304  0.1480
 3807TIP3    H133056   0.194   3.329   7.033  0.9053  0.2358 -1.6054
 3807TIP3    H233057   0.115   3.362   6.909 -1.0221  1.6941 -0.0636
 3808TIP3   OH233058   4.165   5.435   7.451 -0.5593 -0.1853 -0.4109
 3808TIP3    H133059   4.100   5.465   7.387 -0.2913 -0.6823 -0.9266
 3808TIP3    H233060   4.216   5.369   7.404 -0.2527 -0.4420  0.2697
 3809TIP3   OH233061   0.038   6.444   6.977 -0.1292 -0.2106  0.3655
 3809TIP3    H133062  -0.019   6.500   7.030 -1.0528 -1.2872  0.5352
 3809TIP3    H233063  -0.016   6.416   6.904  0.9048  0.6245 -0.7712
 3810TIP3   OH233064   6.535   6.120   2.258  0.3233 -0.8351  0.0357
 3810TIP3    H133065   6.589   6.097   2.183 -0.4065  0.8087 -1.0618
 3810TIP3    H233066   6.595   6.118   2.333  1.6884 -0.0293 -0.9849
 3811TIP3   OH233067   4.017   0.922   0.755 -0.2440  0.4655 -0.0452
 3811TIP3    H133068   4.039   0.868   0.679  2.0595  1.5412 -0.2336
 3811TIP3    H233069   3.922   0.923   0.757 -0.4488 -3.5589 -0.0140
 3812TIP3   OH233070   3.665   5.443   7.376 -0.1925 -0.6716 -0.3180
 3812TIP3    H133071   3.615   5.419   7.298 -2.7917  1.0489  0.6651
 3812TIP3    H233072   3.639   5.380   7.443  0.0242 -0.5796 -0.1434
 3813TIP3   OH233073   5.665   4.603   7.585  0.1562 -0.2475  0.0608
 3813TIP3    H133074   5.578   4.564   7.596  0.3212 -0.0997  2.6532
 3813TIP3    H233075   5.724   4.529   7.574 -0.1179 -0.4365 -0.1430
 3814TIP3   OH233076   5.527   3.645   8.303 -0.0063 -0.8239  0.4123
 3814TIP3    H133077   5.557   3.572   8.250  0.2908  0.0117 -0.6009
 3814TIP3    H233078   5.606   3.695   8.323 -0.4374  0.3252 -0.6399
 3815TIP3   OH233079   4.685   1.258   7.216 -0.4105  0.0388 -0.1146
 3815TIP3    H133080   4.757   1.222   7.165  1.3919  1.4309  1.2801
 3815TIP3    H233081   4.660   1.188   7.276  1.0335  0.0818  0.5804
 3816TIP3   OH233082   4.826   0.941   0.399  0.0901  0.2665  0.0302
 3816TIP3    H133083   4.744   0.978   0.430 -0.2181 -0.2475 -0.1689
 3816TIP3    H233084   4.882   0.938   0.477 -0.3256 -0.0514  0.3169
 3817TIP3   OH233085   0.101   2.697   7.632 -0.1470 -0.1142 -0.2480
 3817TIP3    H133086   0.113   2.631   7.701 -0.5338  0.2799  0.2109
 3817TIP3    H233087   0.187   2.706   7.591 -0.5170 -2.3098 -1.6368
 3818TIP3   OH233088   6.411   4.912   7.661 -0.0728  0.1319  0.3340
 3818TIP3    H133089   6.506   4.924   7.655 -0.0354 -0.4104 -0.2630
 3818TIP3    H233090   6.400   4.830   7.708 -0.1830 -1.0990 -1.7523
 3819TIP3   OH233091   5.162   4.751   1.033 -0.0009  0.1844 -0.0387
 3819TIP3    H133092   5.170   4.843   1.009  0.9759 -0.0395 -0.6496
 3819TIP3    H233093   5.240   4.734   1.087  0.1597 -0.4261 -0.4475
 3820TIP3   OH233094   6.042   6.289   7.799  0.0650 -0.1369 -0.1892
 3820TIP3    H133095   6.058   6.381   7.821 -3.0649  0.0339  2.1582
 3820TIP3    H233096   5.974   6.292   7.731 -0.7477 -0.6810  0.5834
 3821TIP3   OH233097   3.284   6.374   8.555 -0.0453  0.3415  0.1832
 3821TIP3    H133098   3.305   6.314   8.484 -0.7610  0.1389  0.1359
 3821TIP3    H233099   3.332   6.454   8.534  0.5287 -0.0523 -0.0075
 3822TIP3   OH233100   6.289   4.260   0.663  0.0354 -0.9950 -0.5250
 3822TIP3    H133101   6.333   4.199   0.605  1.0736 -2.6875  1.8731
 3822TIP3    H233102   6.302   4.224   0.751 -1.4141  1.4099  0.8046
 3823TIP3   OH233103   1.368   0.338   0.230  0.5417  0.0868  0.0652
 3823TIP3    H133104   1.451   0.292   0.242  1.4294  1.6604  0.2394
 3823TIP3    H233105   1.393   0.426   0.201 -1.0599  0.6352  0.2302
 3824TIP3   OH233106   6.165   3.941   7.551 -0.0549  0.2766  0.2176
 3824TIP3    H133107   6.248   3.987   7.539  0.1936 -0.4309 -0.9533
 3824TIP3    H233108   6.190   3.857   7.590 -0.5927  1.4153  3.2814
 3825TIP3   OH233109   6.498   1.889   7.979  0.4428  0.2027 -0.2103
 3825TIP3    H133110   6.525   1.799   8.000 -0.8848  0.2120  1.8609
 3825TIP3    H233111   6.453   1.881   7.895  1.1885 -0.8961 -0.5281
 3826TIP3   OH233112   5.231   6.542   1.189  0.6362  0.0148  0.4082
 3826TIP3    H133113   5.318   6.513   1.161  1.3630 -1.4744  3.7065
 3826TIP3    H233114   5.176   6.464   1.184 -0.1086  0.5408 -0.0189
 3827TIP3   OH233115   0.912   6.482   1.909  0.2912  0.2845  0.3273
 3827TIP3    H133116   0.911   6.487   1.814 -0.1939 -0.0418  0.3126
 3827TIP3    H233117   0.820   6.480   1.934  0.4049 -0.9904  0.7295
 3828TIP3   OH233118   0.605   2.781   6.310  0.4980  0.3825  0.1120
 3828TIP3    H133119   0.629   2.865   6.350  3.5604  0.1716 -1.0049
 3828TIP3    H233120   0.684   2.728   6.316 -0.5982 -1.5593 -1.3962
 3829TIP3   OH233121   3.674   2.774   7.933 -0.6197 -0.5595  0.0479
 3829TIP3    H133122   3.613   2.719   7.982 -0.4382  0.2549  1.2148
 3829TIP3    H233123   3.710   2.716   7.866  0.0010 -2.0443  1.6012
 3830TIP3   OH233124   5.490   2.850   7.233  0.1861  0.6288 -0.3089
 3830TIP3    H133125   5.501   2.924   7.173 -0.9001 -0.2840 -1.6768
 3830TIP3    H233126   5.395   2.837   7.238  0.3361 -0.2783  0.4372
 3831TIP3   OH233127   6.032   3.119   1.405  0.5590  0.3898  0.0535
 3831TIP3    H133128   6.003   3.031   1.428  1.0679  0.5607  1.3840
 3831TIP3    H233129   5.970   3.177   1.448  0.9761  0.7069  0.2318
 3832TIP3   OH233130   1.249   3.168   0.612 -0.5775 -0.0349  0.3780
 3832TIP3    H133131   1.323   3.112   0.590 -1.6319 -0.2974 -3.0917
 3832TIP3    H233132   1.259   3.244   0.555 -2.4934  0.3259  0.4497
 3833TIP3   OH233133   2.486   0.347   8.379 -0.1577 -0.1982  0.2209
 3833TIP3    H133134   2.548   0.288   8.422 -1.1747 -0.0334  2.0449
 3833TIP3    H233135   2.521   0.435   8.396 -0.4783 -0.1413  0.6226
 3834TIP3   OH233136   4.788   0.741   8.112  0.0426 -0.5908  0.0489
 3834TIP3    H133137   4.706   0.701   8.141  0.1925 -0.3866  0.7761
 3834TIP3    H233138   4.856   0.685   8.150  0.2442 -0.4407 -0.0940
 3835TIP3   OH233139   6.188   4.739   1.709 -0.2339 -0.3970 -0.4568
 3835TIP3    H133140   6.119   4.731   1.775  0.2490 -2.2115 -0.0964
 3835TIP3    H233141   6.170   4.669   1.646  0.0648  0.4738 -1.5435
 3836TIP3   OH233142   5.593   0.062   0.828 -0.3201  0.6484 -0.3654
 3836TIP3    H133143   5.542   0.072   0.908  0.9168 -1.6975  0.8300
 3836TIP3    H233144   5.552  -0.011   0.781  0.8144 -0.0851 -0.2607
 3837TIP3   OH233145   4.644   4.352   6.086 -0.0915  0.1121 -0.6214
 3837TIP3    H133146   4.644   4.264   6.124 -1.7220  0.5504  0.4929
 3837TIP3    H233147   4.578   4.348   6.018 -0.4166  0.5632 -0.3326
 3838TIP3   OH233148   2.891   1.487   1.668  0.1209  0.3120 -0.4592
 3838TIP3    H133149   2.819   1.448   1.718  1.5774 -1.3994  0.4275
 3838TIP3    H233150   2.875   1.459   1.577 -0.6765  0.4951 -0.3772
 3839TIP3   OH233151   1.961   6.431   1.228  0.2625  0.5151  0.0701
 3839TIP3    H133152   2.000   6.365   1.286  0.8917  1.0768  0.3091
 3839TIP3    H233153   1.969   6.393   1.140 -3.2736 -1.6404  0.4762
 3840TIP3   OH233154   0.087   0.149   8.176 -0.2194  0.1101 -0.0566
 3840TIP3    H133155   0.068   0.234   8.136  0.3743  0.8579  1.1865
 3840TIP3    H233156   0.015   0.135   8.237  0.3854  0.3848  0.7349
 3841TIP3   OH233157   3.814   3.089   1.798 -0.3798 -0.1007  0.4377
 3841TIP3    H133158   3.821   2.996   1.777  2.7838  0.3552 -1.1743
 3841TIP3    H233159   3.780   3.130   1.718 -0.7608  0.2515  0.7739
 3842TIP3   OH233160   0.024   5.134   7.148  0.2491 -0.1807  0.6820
 3842TIP3    H133161   0.009   5.115   7.055 -0.9339  1.6861  0.4342
 3842TIP3    H233162  -0.059   5.171   7.178  0.8053 -0.2286  2.3553
 3843TIP3   OH233163   4.381   5.507   8.610  0.3037 -0.4869 -0.1881
 3843TIP3    H133164   4.289   5.533   8.607  0.4759  0.0742 -0.9234
 3843TIP3    H233165   4.426   5.584   8.645  0.4624 -0.8614  0.4362
 3844TIP3   OH233166   5.511   5.198   1.394 -0.1064  0.2220  0.0998
 3844TIP3    H133167   5.509   5.241   1.479 -1.2758  0.2000  0.0913
 3844TIP3    H233168   5.436   5.233   1.347 -0.9115 -1.5354 -0.0296
 3845TIP3   OH233169   5.173   5.026   0.975  0.0120  0.4082 -0.3173
 3845TIP3    H133170   5.148   5.114   1.005 -1.7188 -0.0471 -0.2820
 3845TIP3    H233171   5.118   5.011   0.898 -0.4784 -1.0040  0.2572
 3846TIP3   OH233172   0.541   2.907   1.447 -0.0441  0.0262 -0.6659
 3846TIP3    H133173   0.634   2.898   1.427  0.3676 -0.1842  1.1598
 3846TIP3    H233174   0.504   2.821   1.428  0.6549 -0.6799  0.9561
 3847TIP3   OH233175   1.772   1.371   6.368  0.4928  0.0454 -0.2903
 3847TIP3    H133176   1.793   1.304   6.433  0.8676 -0.2323 -0.6870
 3847TIP3    H233177   1.787   1.454   6.413  0.5407 -0.1415  0.0444
 3848TIP3   OH233178   2.147   0.317   1.029 -0.2305 -0.4379  0.0896
 3848TIP3    H133179   2.233   0.331   1.070 -0.5739  2.4148 -0.0274
 3848TIP3    H233180   2.084   0.347   1.094 -1.1525 -1.7556 -0.1487
 3849TIP3   OH233181   1.986   3.515   2.208  0.0482  0.7738 -0.3042
 3849TIP3    H133182   2.016   3.469   2.286  1.3594  0.1738 -1.1212
 3849TIP3    H233183   2.047   3.587   2.197 -1.0776  1.8231  0.0864
 3850TIP3   OH233184   3.146   3.183   6.512  0.3662 -0.4124  0.1054
 3850TIP3    H133185   3.116   3.144   6.594 -0.1455  1.1177  0.6821
 3850TIP3    H233186   3.069   3.230   6.478  0.8842 -0.1061 -0.6784
 3851TIP3   OH233187   5.841   1.922   1.820 -0.6837  0.1935  0.4003
 3851TIP3    H133188   5.759   1.971   1.824 -1.0289 -0.2860 -0.4980
 3851TIP3    H233189   5.820   1.845   1.766  0.7023  0.7474 -1.0078
 3852TIP3   OH233190   4.825   1.669   1.113  0.1158 -0.0607  0.2863
 3852TIP3    H133191   4.797   1.711   1.032  0.8133 -0.2441 -0.0645
 3852TIP3    H233192   4.754   1.609   1.136 -0.0813 -0.0149 -0.2000
 3853TIP3   OH233193   1.075   0.468   1.874 -0.0558  0.0681  0.2731
 3853TIP3    H133194   1.144   0.426   1.923 -0.0271  0.8433  0.9161
 3853TIP3    H233195   1.087   0.438   1.784  0.9454 -0.0136  0.4300
 3854TIP3   OH233196   0.503   6.414   8.360  0.7941 -0.0811  0.0071
 3854TIP3    H133197   0.573   6.391   8.421 -1.4551  0.0390  2.8753
 3854TIP3    H233198   0.490   6.508   8.374  0.8116  0.1305 -1.3315
 3855TIP3   OH233199   2.692   4.677   0.920  0.2766  0.1341  0.4375
 3855TIP3    H133200   2.604   4.675   0.959 -0.1498  1.2886 -0.4080
 3855TIP3    H233201   2.737   4.601   0.959 -0.8068  0.0092  1.5288
 3856TIP3   OH233202   4.632   6.657   7.893 -0.0913  0.7741  0.1333
 3856TIP3    H133203   4.714   6.703   7.877  0.2588 -0.3130 -1.3648
 3856TIP3    H233204   4.631   6.585   7.830 -0.6317 -1.2960  2.3113
 3857TIP3   OH233205   6.341   3.507   8.177 -0.4143  0.2288  0.4749
 3857TIP3    H133206   6.376   3.576   8.121 -2.8878  1.9122  0.8230
 3857TIP3    H233207   6.383   3.520   8.262  2.2787 -1.4429 -0.4688
 3858TIP3   OH233208   1.332   3.624   2.477 -0.0784  0.4112 -0.0338
 3858TIP3    H133209   1.241   3.614   2.451 -0.2502  1.7253 -0.0016
 3858TIP3    H233210   1.355   3.540   2.518 -0.6499 -0.6643 -1.8273
 3859TIP3   OH233211   0.576   3.524   1.242 -0.1994  0.3177  0.8465
 3859TIP3    H133212   0.546   3.578   1.169  0.6109 -0.0956  0.1828
 3859TIP3    H233213   0.538   3.565   1.320 -1.3803  0.5463  0.1637
 3860TIP3   OH233214   2.290   5.914   1.732 -0.1182  0.5170 -0.5366
 3860TIP3    H133215   2.352   5.841   1.727  0.4236  0.8575  0.8068
 3860TIP3    H233216   2.288   5.937   1.825 -2.2095  0.5794 -0.5507
 3861TIP3   OH233217   3.190   2.004   8.401 -0.0185 -0.8595 -0.1187
 3861TIP3    H133218   3.279   2.000   8.438 -0.4782 -0.3352  1.1229
 3861TIP3    H233219   3.147   1.924   8.434 -0.4609 -0.3434  0.5911
 3862TIP3   OH233220   6.517   5.385   0.094  0.2278  0.2944 -0.3843
 3862TIP3    H133221   6.441   5.336   0.062  0.2238  0.0977 -0.0694
 3862TIP3    H233222   6.552   5.332   0.165  0.1923  0.7747 -0.0043
 3863TIP3   OH233223   3.697   5.204   1.355 -0.2224 -0.1064 -1.2601
 3863TIP3    H133224   3.772   5.183   1.410 -0.2591 -2.1250 -1.9072
 3863TIP3    H233225   3.670   5.291   1.384  0.9477 -0.2890  0.5415
 3864TIP3   OH233226   4.466   4.402   1.607 -0.3984  0.4632 -0.2282
 3864TIP3    H133227   4.438   4.403   1.699 -1.2831 -1.5738 -0.4374
 3864TIP3    H233228   4.559   4.378   1.610 -0.9381 -1.7509  0.0786
 3865TIP3   OH233229   3.971   4.733   8.278  0.2507  0.1201  0.4734
 3865TIP3    H133230   3.895   4.681   8.302  0.3737 -0.0798  0.4351
 3865TIP3    H233231   4.033   4.720   8.349 -1.2578  3.5679  2.6878
 3866TIP3   OH233232   2.058   1.354   0.119  0.1268  0.0045  0.2177
 3866TIP3    H133233   2.112   1.383   0.193  0.1543 -0.5788  0.4341
 3866TIP3    H233234   2.074   1.260   0.114  0.4004  0.0936 -0.7579
 3867TIP3   OH233235   1.868   6.000   7.028 -0.0848  0.0105  0.3866
 3867TIP3    H133236   1.824   6.039   6.953  3.0634  2.2318 -0.5057
 3867TIP3    H233237   1.880   5.908   7.005 -0.0306  0.4510 -1.4353
 3868TIP3   OH233238   1.637   6.385   7.621 -0.4332  0.4484 -0.1963
 3868TIP3    H133239   1.659   6.302   7.578  0.6787  0.1322  0.9331
 3868TIP3    H233240   1.722   6.422   7.647 -1.0656  0.3815  2.1505
 3869TIP3   OH233241   0.351   2.290   2.013 -0.2658  0.6154 -0.0094
 3869TIP3    H133242   0.321   2.377   1.986 -0.4446  0.7164  0.5021
 3869TIP3    H233243   0.271   2.242   2.034 -0.1499  0.4329  0.0238
 3870TIP3   OH233244   3.228   6.683   8.680  0.3966 -0.6739 -0.0122
 3870TIP3    H133245   3.277   6.664   8.600  0.8418  0.7709 -0.1074
 3870TIP3    H233246   3.255   6.772   8.704 -2.6095  0.4549 -0.3884
 3871TIP3   OH233247   1.462   0.195   1.653  0.1932 -0.6381 -0.2673
 3871TIP3    H133248   1.370   0.179   1.670 -0.2041 -0.2703 -1.8823
 3871TIP3    H233249   1.491   0.249   1.726 -0.8435 -0.8026  0.2860
 3872TIP3   OH233250   5.146   2.488   1.785 -0.6397 -0.5095  0.4361
 3872TIP3    H133251   5.082   2.434   1.738  0.9297 -2.8663  0.7882
 3872TIP3    H233252   5.201   2.525   1.716 -1.3167  0.0801  0.2117
 3873TIP3   OH233253   3.018   6.079   1.065  0.5921  0.3259 -0.2462
 3873TIP3    H133254   3.091   6.022   1.042  1.1519  0.4809  1.0868
 3873TIP3    H233255   2.971   6.032   1.133  1.6088  1.8217  1.5588
 3874TIP3   OH233256   2.972   3.063   7.379 -0.0194 -0.4410  0.0479
 3874TIP3    H133257   2.965   2.979   7.334 -0.3311 -0.0009 -0.7468
 3874TIP3    H233258   2.883   3.081   7.410 -0.0054 -0.2889 -0.0006
 3875TIP3   OH233259   3.573   6.094   1.467  0.7617 -0.8160 -0.1443
 3875TIP3    H133260   3.596   6.009   1.505  0.4878 -1.2321 -0.8856
 3875TIP3    H233261   3.481   6.085   1.441  1.0086 -0.6432 -1.1461
 3876TIP3   OH233262   4.731   5.785   7.302  0.6670  0.2610  0.0477
 3876TIP3    H133263   4.691   5.777   7.389 -0.2195  0.5143 -0.3243
 3876TIP3    H233264   4.665   5.831   7.249  0.7652 -0.7814 -1.0314
 3877TIP3   OH233265   0.744   5.057   1.143 -0.6816 -0.8620 -0.5633
 3877TIP3    H133266   0.750   5.146   1.178 -0.8251 -1.2834  0.5698
 3877TIP3    H233267   0.743   5.001   1.220  0.8983 -1.9590 -1.2848
 3878TIP3   OH233268   3.566   2.591   8.103 -0.7157  0.5574  0.1526
 3878TIP3    H133269   3.630   2.524   8.081 -1.0304 -0.0647  1.0441
 3878TIP3    H233270   3.531   2.563   8.188 -1.3484  1.4854  0.2120
 3879TIP3   OH233271   5.487   5.097   8.328 -0.4984  0.0803  0.0959
 3879TIP3    H133272   5.533   5.096   8.412 -1.1258 -1.6469  0.4516
 3879TIP3    H233273   5.554   5.071   8.264 -0.2985  0.2977  0.2133
 3880TIP3   OH233274   1.120   4.990   7.205 -0.3580 -0.4463  0.8707
 3880TIP3    H133275   1.035   4.947   7.195 -0.6514  0.4668 -1.0557
 3880TIP3    H233276   1.132   5.038   7.123  1.1418  1.0122  1.8842
 3881TIP3   OH233277   2.353   6.897   0.977 -0.1757  0.3540 -0.3583
 3881TIP3    H133278   2.419   6.870   0.913  0.9425  0.3581  0.7464
 3881TIP3    H233279   2.389   6.869   1.061 -1.9841 -0.3868  0.2078
 3882TIP3   OH233280   2.148   2.394   6.072 -0.2473  0.4010  0.8406
 3882TIP3    H133281   2.158   2.477   6.025  1.3259 -0.7154 -0.9450
 3882TIP3    H233282   2.230   2.382   6.119 -0.1989 -0.4173  0.5747
 3883TIP3   OH233283   5.537   1.611   8.176  0.3273 -0.0460  0.6865
 3883TIP3    H133284   5.518   1.593   8.084 -0.0545  0.8237  0.5851
 3883TIP3    H233285   5.452   1.605   8.220  0.6991 -1.8338  1.2471
 3884TIP3   OH233286   3.652   1.116   8.230  0.0665 -0.2564  0.9364
 3884TIP3    H133287   3.578   1.081   8.281 -0.2733  1.0376  1.3898
 3884TIP3    H233288   3.615   1.131   8.143  0.2469 -1.1102  0.7067
 3885TIP3   OH233289   2.609   3.462   7.154 -0.7357 -0.7936  0.5727
 3885TIP3    H133290   2.640   3.527   7.217  2.7339 -1.3298 -0.3675
 3885TIP3    H233291   2.599   3.382   7.204 -0.8825 -0.5240  0.9764
 3886TIP3   OH233292   1.759   2.978   1.017 -0.2651  0.0574  0.4012
 3886TIP3    H133293   1.691   2.925   0.975 -0.5552  0.5643  0.2298
 3886TIP3    H233294   1.841   2.933   0.995 -0.6499 -1.9995  2.6617
 3887TIP3   OH233295   0.274   5.739   7.855 -0.5146 -0.3423 -0.3298
 3887TIP3    H133296   0.331   5.670   7.891 -2.5823 -1.9377  0.0515
 3887TIP3    H233297   0.241   5.701   7.773 -0.6751  0.7678 -0.7980
 3888TIP3   OH233298   3.633   0.355   7.867 -0.1939  0.0325  0.0289
 3888TIP3    H133299   3.718   0.399   7.872  0.6431 -1.6249  0.8245
 3888TIP3    H233300   3.586   0.384   7.945  0.0903  0.0270  0.2014
 3889TIP3   OH233301   2.091   4.036   7.724  0.5060  0.5816 -0.0365
 3889TIP3    H133302   2.083   3.965   7.660  0.8596 -1.3020  1.8798
 3889TIP3    H233303   2.001   4.064   7.741  0.1715 -0.7822  0.5844
 3890TIP3   OH233304   2.455   1.569   7.581  0.0771 -0.2166 -0.6931
 3890TIP3    H133305   2.465   1.618   7.663 -1.0822  0.1989 -0.7708
 3890TIP3    H233306   2.495   1.484   7.598  1.8852  0.6448 -0.4515
 3891TIP3   OH233307   6.477   4.384   6.586  0.4323 -0.2798 -0.6028
 3891TIP3    H133308   6.406   4.329   6.554  0.8031 -0.5051 -1.0457
 3891TIP3    H233309   6.551   4.325   6.596  0.3595 -0.1870  0.5676
 3892TIP3   OH233310   4.108   0.220   0.463  0.5903  0.1038  0.2609
 3892TIP3    H133311   4.016   0.245   0.473  0.9451  1.1733  0.9401
 3892TIP3    H233312   4.104   0.138   0.413 -0.8669 -1.1289  2.2293
 3893TIP3   OH233313   2.705   4.541   8.262  0.5597 -0.4170 -0.2147
 3893TIP3    H133314   2.786   4.493   8.277  0.5157  0.0622  1.9141
 3893TIP3    H233315   2.730   4.615   8.207  1.8628  0.3259  1.2849
 3894TIP3   OH233316   6.049   6.780   2.309  0.0310  0.1520 -0.2746
 3894TIP3    H133317   6.063   6.687   2.290 -2.5199 -0.4750  0.4521
 3894TIP3    H233318   5.958   6.796   2.282 -0.5455  1.6583  2.2524
 3895TIP3   OH233319   6.074   1.511   1.316  0.4652  0.7448 -0.7184
 3895TIP3    H133320   6.105   1.552   1.397 -4.1049 -0.9078  2.2627
 3895TIP3    H233321   6.111   1.423   1.319 -1.7934 -0.2447  1.2534
 3896TIP3   OH233322   6.000   5.491   1.591  0.2963  0.3856 -0.0444
 3896TIP3    H133323   5.913   5.451   1.584  0.4302  0.2594 -1.0965
 3896TIP3    H233324   6.060   5.418   1.576  0.6203  0.3445  1.2920
 3897TIP3   OH233325   2.060   0.339   8.457  0.3669  0.4631  0.5762
 3897TIP3    H133326   2.055   0.419   8.508  1.1144  0.7813  0.1608
 3897TIP3    H233327   1.984   0.343   8.399 -1.9760 -1.0824  3.2704
 3898TIP3   OH233328   6.611   2.076   7.615  0.3405  0.3623  0.4748
 3898TIP3    H133329   6.656   2.068   7.531  2.9519  2.1440  1.5608
 3898TIP3    H233330   6.583   2.168   7.618 -0.4049  0.1245  1.2458
 3899TIP3   OH233331   3.437   3.476   0.051 -0.3202  0.2036 -0.1414
 3899TIP3    H133332   3.407   3.557   0.009  0.1692  0.6624  0.3902
 3899TIP3    H233333   3.530   3.471   0.030  0.3594  1.3315  2.2561
 3900TIP3   OH233334   0.754   1.278   7.178 -0.4683 -0.0566  0.1801
 3900TIP3    H133335   0.792   1.236   7.255  1.0212 -0.2865 -0.6440
 3900TIP3    H233336   0.750   1.209   7.113  1.5591  0.8919 -1.0429
 3901TIP3   OH233337   0.959   1.349   1.032 -0.3680 -0.3479  0.7477
 3901TIP3    H133338   1.034   1.323   1.085  0.3130 -2.6386 -1.1656
 3901TIP3    H233339   0.978   1.314   0.945 -1.7551  2.6285 -0.8929
 3902TIP3   OH233340   0.249   2.976   6.388  0.0744 -0.0115 -0.5961
 3902TIP3    H133341   0.228   2.968   6.481  0.2830  2.3517 -0.2790
 3902TIP3    H233342   0.317   2.910   6.373  0.2223 -0.2520  0.9813
 3903TIP3   OH233343   1.557   2.293   1.834  0.3235 -0.1452 -0.0999
 3903TIP3    H133344   1.624   2.299   1.902 -0.1760  2.2100  0.2706
 3903TIP3    H233345   1.605   2.268   1.755  1.1860 -1.1358  0.7080
 3904TIP3   OH233346   1.230   6.886   7.662  0.3405  0.0631  0.1136
 3904TIP3    H133347   1.213   6.801   7.622  2.1248 -1.0633  1.5741
 3904TIP3    H233348   1.143   6.924   7.677 -0.6190 -2.3950  1.2637
 3905TIP3   OH233349   2.432   3.663   7.954 -0.3898  0.5483  0.1177
 3905TIP3    H133350   2.424   3.758   7.947 -0.3667  0.4439 -1.9762
 3905TIP3    H233351   2.343   3.630   7.941 -0.7415  0.2952  2.6916
 3906TIP3   OH233352   2.501   1.410   6.959  0.3118  0.1166  0.1700
 3906TIP3    H133353   2.458   1.391   6.875 -0.5145  2.3834 -0.0056
 3906TIP3    H233354   2.441   1.376   7.025 -0.4870  0.8756 -0.1364
 3907TIP3   OH233355   3.979   5.426   1.993  0.1734  0.0490  0.4440
 3907TIP3    H133356   4.004   5.333   1.989  1.1225  0.3342 -1.0928
 3907TIP3    H233357   4.017   5.457   2.075 -0.3347 -0.9599  1.0817
 3908TIP3   OH233358   3.884   3.149   1.522  0.0370 -0.0722 -0.2737
 3908TIP3    H133359   3.861   3.239   1.547  2.7163  0.5648  0.2148
 3908TIP3    H233360   3.892   3.152   1.427 -0.5904  0.0309 -0.3228
 3909TIP3   OH233361   3.549   4.540   6.715  0.2964  0.2674  0.1020
 3909TIP3    H133362   3.563   4.614   6.655  0.6084  0.6494  0.6398
 3909TIP3    H233363   3.569   4.463   6.662 -0.9039  0.5030 -0.7280
 3910TIP3   OH233364   3.575   3.481   8.476  0.0794  0.6696  0.2291
 3910TIP3    H133365   3.512   3.415   8.445  0.3934  0.9353 -0.9924
 3910TIP3    H233366   3.522   3.560   8.489  0.0182  0.6694 -0.0197
 3911TIP3   OH233367   1.832   5.878   8.451 -0.2558 -0.4364 -0.1498
 3911TIP3    H133368   1.925   5.898   8.451 -0.4572  0.6696  1.4622
 3911TIP3    H233369   1.817   5.833   8.534 -1.1914 -0.4725 -0.3247
 3912TIP3   OH233370   3.344   0.858   1.886 -0.4934  0.3281  0.5820
 3912TIP3    H133371   3.420   0.842   1.943  1.1760  0.5562 -1.4637
 3912TIP3    H233372   3.341   0.782   1.828 -2.9383 -0.5237  1.6943
 3913TIP3   OH233373   5.006   2.619   8.579  0.7505  0.3972  0.2342
 3913TIP3    H133374   4.923   2.627   8.625  0.0790 -1.1201 -0.6525
 3913TIP3    H233375   4.985   2.572   8.498  2.5720 -0.6756  0.3172
 3914TIP3   OH233376   4.650   0.630   6.995  0.0400 -0.3145 -0.0020
 3914TIP3    H133377   4.560   0.601   7.004 -0.6628  1.6478 -0.3821
 3914TIP3    H233378   4.661   0.697   7.063  0.4151  1.2059 -1.4857
 3915TIP3   OH233379   5.889   4.827   6.469 -0.2803  0.1672 -0.1611
 3915TIP3    H133380   5.946   4.904   6.465 -0.8434  0.6689  1.0571
 3915TIP3    H233381   5.800   4.863   6.464 -0.5234 -0.5181 -0.8858
 3916TIP3   OH233382   6.891   1.702   8.623 -0.5727 -0.0101 -0.5418
 3916TIP3    H133383   6.924   1.613   8.607  0.0060 -0.3838  2.1544
 3916TIP3    H233384   6.886   1.742   8.537 -1.3318 -2.8156 -1.9006
 3917TIP3   OH233385   4.836   2.581   8.338  0.4943 -0.8023 -0.7355
 3917TIP3    H133386   4.750   2.567   8.299  0.2274 -0.8427 -0.1389
 3917TIP3    H233387   4.894   2.595   8.263  0.1216 -1.5700 -1.1817
 3918TIP3   OH233388   2.491   1.997   8.173 -0.5224  0.3454  0.0299
 3918TIP3    H133389   2.488   1.901   8.174 -0.7554  0.3301 -1.1290
 3918TIP3    H233390   2.408   2.023   8.213  0.2381  0.1011  1.8828
 3919TIP3   OH233391   3.709   3.973   0.558  0.0279  0.3937  0.1073
 3919TIP3    H133392   3.649   3.969   0.484 -0.1507  0.0143  0.2688
 3919TIP3    H233393   3.726   3.881   0.580  3.3714  0.3413 -2.0809
 3920TIP3   OH233394   0.632   4.027   0.093  0.2399  0.7521  0.1870
 3920TIP3    H133395   0.543   4.024   0.126  0.4023 -0.6900  0.5975
 3920TIP3    H233396   0.671   4.105   0.134 -0.6543  1.0641  0.4566
 3921TIP3   OH233397   5.833   2.075   8.609 -0.3314 -0.0177  0.0966
 3921TIP3    H133398   5.905   2.068   8.546 -0.3960  1.9098 -0.2334
 3921TIP3    H233399   5.759   2.035   8.563 -0.0339  0.0836 -0.4900
 3922TIP3   OH233400   2.788   5.970   7.368  0.4767 -0.4484 -0.3000
 3922TIP3    H133401   2.726   5.943   7.300 -0.5333 -1.8584  1.1102
 3922TIP3    H233402   2.737   6.028   7.425  0.8890 -0.4030  0.0338
 3923TIP3   OH233403   0.299   1.931   8.222 -0.3260 -0.8643 -0.1538
 3923TIP3    H133404   0.300   1.867   8.151 -0.2431  0.4617 -1.4071
 3923TIP3    H233405   0.218   1.980   8.209  0.2087  0.0889  0.0064
 3924TIP3   OH233406   5.292   4.835   8.432  0.6744  0.3265 -0.1317
 3924TIP3    H133407   5.384   4.855   8.415  0.7435 -1.1634 -1.7645
 3924TIP3    H233408   5.244   4.911   8.399  1.2665  1.0026  0.5062
 3925TIP3   OH233409   4.015   5.842   7.343 -0.2177  0.4613 -0.1168
 3925TIP3    H133410   4.015   5.800   7.257 -0.9421 -2.1381  1.0587
 3925TIP3    H233411   4.089   5.803   7.389 -1.2621 -0.0212  1.2231
 3926TIP3   OH233412   1.801   3.850   0.120 -0.3050 -0.0303  0.7854
 3926TIP3    H133413   1.745   3.921   0.092  0.4672  0.1072 -0.5176
 3926TIP3    H233414   1.741   3.779   0.144 -1.0497  0.7307  1.2042
 3927TIP3   OH233415   0.133   2.789   0.477 -0.4004 -0.4241 -0.0990
 3927TIP3    H133416   0.160   2.864   0.424  1.5795 -0.8133  0.2677
 3927TIP3    H233417   0.042   2.773   0.452 -0.2135  0.7746 -1.7154
 3928TIP3   OH233418   1.813   2.605   2.007  0.1097 -0.1946 -0.1743
 3928TIP3    H133419   1.746   2.560   2.059 -0.5474  0.9377 -0.0075
 3928TIP3    H233420   1.810   2.696   2.038  2.2528 -0.2601  0.3765
 3929TIP3   OH233421   4.551   5.307   8.534  0.2705  0.0130  0.5135
 3929TIP3    H133422   4.483   5.366   8.568 -0.4140 -0.8193  0.6409
 3929TIP3    H233423   4.627   5.362   8.522 -0.7651  1.2441 -0.7376
 3930TIP3   OH233424   2.244   4.542   0.942 -0.0799 -0.4408  0.2039
 3930TIP3    H133425   2.199   4.553   1.026  0.9656  0.5757  0.6472
 3930TIP3    H233426   2.187   4.585   0.879  0.3618  1.0869  0.8071
 3931TIP3   OH233427   3.295   4.894   1.226 -0.9263 -0.2749  0.2631
 3931TIP3    H133428   3.355   4.968   1.237 -0.2592 -1.0088  1.9449
 3931TIP3    H233429   3.324   4.830   1.291 -2.6644 -1.2502  0.1368
 3932TIP3   OH233430   3.367   2.497   8.304  0.0754  0.0592 -0.5513
 3932TIP3    H133431   3.323   2.422   8.346  1.2127 -1.7055 -2.3225
 3932TIP3    H233432   3.310   2.571   8.324 -1.1929 -1.2638  1.1874
 3933TIP3   OH233433   2.115   6.701   8.107  0.0465  0.4781  0.2473
 3933TIP3    H133434   2.093   6.718   8.016 -0.9753  1.7770  0.7128
 3933TIP3    H233435   2.144   6.786   8.142  0.9062 -0.1013  1.0165
 3934TIP3   OH233436   1.225   0.623   1.286  0.2623 -0.7925 -0.1906
 3934TIP3    H133437   1.270   0.696   1.330 -0.4426  0.3986 -1.3607
 3934TIP3    H233438   1.259   0.545   1.328 -0.3140  0.2661  2.4016
 3935TIP3   OH233439   1.221   4.102   7.788 -0.3649  0.2172 -0.0368
 3935TIP3    H133440   1.275   4.167   7.743 -0.8853 -0.8201 -2.3258
 3935TIP3    H233441   1.170   4.153   7.851  0.5967  1.7529 -0.4389
 3936TIP3   OH233442   3.962   5.613   7.941 -0.5518 -0.0860  0.0715
 3936TIP3    H133443   4.046   5.581   7.909 -0.2190  1.0832 -0.2553
 3936TIP3    H233444   3.914   5.533   7.965  0.2908 -0.8154 -0.5946
 3937TIP3   OH233445   4.646   1.848   8.285  0.1672 -0.0509 -0.0184
 3937TIP3    H133446   4.735   1.846   8.320 -0.7534 -2.0495  2.5171
 3937TIP3    H233447   4.590   1.829   8.361 -2.6054  2.8003 -1.1326
 3938TIP3   OH233448   2.753   5.690   6.665 -0.3446  0.5163  0.2522
 3938TIP3    H133449   2.782   5.693   6.574  0.4588 -0.5341  0.4526
 3938TIP3    H233450   2.703   5.609   6.672 -0.6732  0.7516  0.6705
 3939TIP3   OH233451   0.501   5.060   1.456  0.4423  0.0079  0.0870
 3939TIP3    H133452   0.500   5.140   1.403  1.2870  0.8528  1.2761
 3939TIP3    H233453   0.532   5.089   1.542 -0.4356 -1.3947  0.9206
 3940TIP3   OH233454   6.696   5.958   8.168 -0.4190 -0.1791 -0.6001
 3940TIP3    H133455   6.765   5.892   8.178 -1.1906 -0.8738  0.3838
 3940TIP3    H233456   6.669   5.951   8.077 -0.0414 -0.7696 -0.6750
 3941TIP3   OH233457   0.130   2.273   1.406  0.4369  0.4039  0.6309
 3941TIP3    H133458   0.070   2.200   1.388  0.5077  0.5919 -0.4318
 3941TIP3    H233459   0.090   2.320   1.479 -0.1924 -0.0448  0.5804
 3942TIP3   OH233460   1.941   4.037   6.787  0.1378  0.3215 -0.2217
 3942TIP3    H133461   2.032   4.018   6.765 -0.0782 -0.9926 -0.0572
 3942TIP3    H233462   1.944   4.072   6.876  0.4076 -0.7667  0.2184
 3943TIP3   OH233463   3.685   1.757   7.615  0.1858  0.1970  0.0064
 3943TIP3    H133464   3.777   1.746   7.638  0.0871  0.4294  0.5218
 3943TIP3    H233465   3.643   1.787   7.696 -0.3756 -0.0786 -0.1728
 3944TIP3   OH233466   2.815   2.275   7.045  0.1848 -0.3704  0.0456
 3944TIP3    H133467   2.837   2.195   6.997  1.5819 -0.3484  0.6000
 3944TIP3    H233468   2.724   2.293   7.021 -0.1162 -2.0500 -0.1869
 3945TIP3   OH233469   4.100   5.986   0.786 -0.0510 -0.2566 -0.4640
 3945TIP3    H133470   4.173   6.033   0.745  0.2120  2.3312  2.5984
 3945TIP3    H233471   4.093   6.025   0.873 -2.0651 -3.7413  1.1057
 3946TIP3   OH233472   5.767   2.448   8.671  0.0779 -0.3481  0.3323
 3946TIP3    H133473   5.833   2.514   8.652  0.2462 -0.5287  0.2779
 3946TIP3    H233474   5.806   2.393   8.739  0.1918 -0.7534 -0.0496
 3947TIP3   OH233475   0.655   1.888   8.526 -0.0458 -0.3138 -0.3944
 3947TIP3    H133476   0.611   1.947   8.464 -1.7861 -0.3521  0.7346
 3947TIP3    H233477   0.604   1.807   8.521  0.5502 -0.7268  0.1823
 3948TIP3   OH233478   2.406   2.026   6.078 -0.1308 -0.0769  0.0327
 3948TIP3    H133479   2.398   2.114   6.115  0.2456 -0.5480  1.2976
 3948TIP3    H233480   2.418   2.040   5.984 -0.0312  1.2143  0.2192
 3949TIP3   OH233481   6.709   5.293   1.087 -0.3556  0.4270 -0.4289
 3949TIP3    H133482   6.790   5.243   1.098 -0.7314  0.0694  0.9539
 3949TIP3    H233483   6.641   5.226   1.083 -0.6071  0.7332 -1.4282
 3950TIP3   OH233484   5.287   4.573   2.212 -0.0253 -0.6827  0.2604
 3950TIP3    H133485   5.250   4.597   2.127 -0.2456  3.1039  1.2524
 3950TIP3    H233486   5.236   4.622   2.276  0.8597 -2.5179  2.5678
 3951TIP3   OH233487   4.697   6.647   8.575 -0.1703 -0.1514  0.1300
 3951TIP3    H133488   4.784   6.652   8.537  0.7903 -3.1765  1.6223
 3951TIP3    H233489   4.681   6.734   8.611  0.4277  1.7000 -3.6168
 3952TIP3   OH233490   3.302   0.247   0.991  0.5389 -0.2235  0.7768
 3952TIP3    H133491   3.313   0.256   1.086  0.7414  0.5838  0.6801
 3952TIP3    H233492   3.211   0.274   0.975  0.5574 -0.2000  0.7150
 3953TIP3   OH233493   3.266   2.898   6.639 -0.4503 -0.0339  0.6133
 3953TIP3    H133494   3.195   2.834   6.648 -1.6896  0.9131 -1.6316
 3953TIP3    H233495   3.259   2.953   6.717 -1.8228 -0.3253  0.7227
 3954TIP3   OH233496   1.317   3.411   8.342 -0.0537 -0.3262 -0.2990
 3954TIP3    H133497   1.287   3.472   8.410 -1.7272  1.0531 -2.1302
 3954TIP3    H233498   1.253   3.340   8.343 -1.2989  0.7138 -1.6939
 3955TIP3   OH233499   5.499   4.209   8.161 -0.4236 -0.5441 -0.3018
 3955TIP3    H133500   5.425   4.167   8.204  1.5089 -1.0045  2.9002
 3955TIP3    H233501   5.466   4.294   8.132 -2.6721 -1.5283 -0.7910
 3956TIP3   OH233502   5.704   3.524   0.172 -0.3310 -0.3918  0.0522
 3956TIP3    H133503   5.782   3.574   0.148 -0.8997  0.0613 -0.9372
 3956TIP3    H233504   5.731   3.472   0.248  1.3599 -1.2897 -1.0773
 3957TIP3   OH233505   0.950   2.084   7.318  0.1931  0.1264 -0.2649
 3957TIP3    H133506   1.004   2.109   7.244 -1.6947  0.9216 -1.4537
 3957TIP3    H233507   0.878   2.034   7.280 -0.5917  0.1676  1.0729
 3958TIP3   OH233508   2.509   6.387   6.741  0.1131  0.1356 -0.5873
 3958TIP3    H133509   2.599   6.352   6.740  0.3281  0.6411  0.2777
 3958TIP3    H233510   2.465   6.336   6.809 -0.5758 -0.8431 -1.7251
 3959TIP3   OH233511   5.587   2.213   8.349  0.2871  0.3578 -0.0176
 3959TIP3    H133512   5.494   2.192   8.338  0.1162  1.9648 -2.6117
 3959TIP3    H233513   5.630   2.129   8.361 -1.3756 -0.5148  0.0578
 3960TIP3   OH233514   3.378   1.708   1.498  0.5542  0.1182 -0.0242
 3960TIP3    H133515   3.354   1.801   1.501 -1.1345 -0.2270 -1.5036
 3960TIP3    H233516   3.299   1.662   1.524  1.6854 -0.9418  1.7826
 3961TIP3   OH233517   4.650   2.146   7.851  0.0775  0.4925  1.1895
 3961TIP3    H133518   4.586   2.111   7.913 -1.4549  1.5333  0.2733
 3961TIP3    H233519   4.615   2.124   7.765  2.1117 -0.8385  0.6430
 3962TIP3   OH233520   4.523   0.314   6.948 -0.0092  0.1703 -0.2056
 3962TIP3    H133521   4.527   0.384   7.013 -0.0224  1.6422 -1.7002
 3962TIP3    H233522   4.459   0.252   6.983  0.1777  0.7832  1.2874
 3963TIP3   OH233523   6.884   0.479   6.205  0.1082 -0.1004  0.1731
 3963TIP3    H133524   6.826   0.499   6.278  0.8825  1.3468  0.4253
 3963TIP3    H233525   6.913   0.564   6.173  0.7495 -0.7466 -1.0521
 3964TIP3   OH233526   0.287   4.208   7.082 -0.2708  0.1935  0.9915
 3964TIP3    H133527   0.339   4.218   7.002 -0.0694  0.4863  1.1618
 3964TIP3    H233528   0.207   4.164   7.052  0.4059 -0.9939  0.8639
 3965TIP3   OH233529   4.271   5.961   1.069 -0.1916  0.5392 -0.4056
 3965TIP3    H133530   4.231   6.045   1.044 -1.0016  0.7352  1.3728
 3965TIP3    H233531   4.218   5.931   1.144  0.4999 -1.2418 -0.5883
 3966TIP3   OH233532   4.505   5.226   7.131  0.2913  0.6505 -0.7153
 3966TIP3    H133533   4.556   5.197   7.055  0.1318 -0.8999 -0.2773
 3966TIP3    H233534   4.431   5.274   7.094  0.3859  0.1788 -1.5347
 3967TIP3   OH233535   5.852   2.318   8.400 -0.2433 -0.0039  0.1569
 3967TIP3    H133536   5.900   2.285   8.476 -0.6204 -1.6049 -0.2736
 3967TIP3    H233537   5.771   2.268   8.399 -0.2183 -0.0569 -1.3238
 3968TIP3   OH233538   2.761   3.911   0.272 -0.1610  0.2463 -0.1724
 3968TIP3    H133539   2.775   3.977   0.340 -1.2065  2.3118 -1.8627
 3968TIP3    H233540   2.730   3.960   0.196  1.3574 -1.9019 -2.3345
 3969TIP3   OH233541   2.276   5.182   8.377 -0.3098 -0.3860 -0.1238
 3969TIP3    H133542   2.281   5.265   8.329 -2.3578 -0.4752 -0.5731
 3969TIP3    H233543   2.284   5.115   8.310 -2.2106 -0.5086 -0.2894
 3970TIP3   OH233544   1.715   2.418   0.174  0.1587  0.0716 -0.1939
 3970TIP3    H133545   1.794   2.414   0.227  1.6285 -0.9735 -2.3496
 3970TIP3    H233546   1.673   2.333   0.187  0.1606  0.0733 -0.1773
 3971TIP3   OH233547   3.029   6.069   2.472 -0.2806  0.2612 -0.1723
 3971TIP3    H133548   3.123   6.086   2.474 -0.1518 -0.3912 -0.4499
 3971TIP3    H233549   2.992   6.142   2.422  0.0527  0.6115  0.0882
 3972TIP3   OH233550   1.298   5.632   6.068  0.5294 -0.4432  0.4438
 3972TIP3    H133551   1.387   5.660   6.092  0.4080  0.2302  0.1240
 3972TIP3    H233552   1.271   5.573   6.139  1.2597 -0.7164  0.5037
 3973TIP3   OH233553   4.272   3.365   8.066  0.0556 -1.1435  0.1012
 3973TIP3    H133554   4.249   3.273   8.081  0.2849 -0.9482  1.8064
 3973TIP3    H233555   4.324   3.390   8.142  1.5848 -0.1067 -1.2112
 3974TIP3   OH233556   4.663   3.142   0.318 -0.1416 -0.2350 -0.1165
 3974TIP3    H133557   4.673   3.237   0.325  1.7606 -0.4197 -0.0104
 3974TIP3    H233558   4.656   3.125   0.224  0.5838 -0.0828 -0.1995
 3975TIP3   OH233559   6.254   3.380   0.703 -0.2168 -0.9017  0.4925
 3975TIP3    H133560   6.259   3.427   0.620  0.4651  2.4015  2.2241
 3975TIP3    H233561   6.230   3.291   0.679 -0.8050  0.0861 -3.1499
 3976TIP3   OH233562   3.468   1.680   2.398 -0.5292 -0.4617 -0.2028
 3976TIP3    H133563   3.499   1.629   2.472 -0.7599  1.3960  1.2397
 3976TIP3    H233564   3.372   1.679   2.407 -0.5900 -0.7195 -0.8307
 3977TIP3   OH233565   5.634   2.929   2.056  0.3071  0.4053 -0.0605
 3977TIP3    H133566   5.721   2.944   2.091  0.2996  1.0092 -0.2695
 3977TIP3    H233567   5.604   2.847   2.096  1.3805 -0.3630 -0.7989
 3978TIP3   OH233568   1.872   6.155   1.358 -0.0811 -0.0579 -0.4168
 3978TIP3    H133569   1.843   6.141   1.268 -0.2934  0.2866 -0.4078
 3978TIP3    H233570   1.847   6.075   1.404 -0.6136  0.0466 -0.5136
 3979TIP3   OH233571   3.392   3.230   8.634  0.8004  0.2000  0.2357
 3979TIP3    H133572   3.368   3.310   8.681 -0.7452 -0.0426 -0.0822
 3979TIP3    H233573   3.425   3.172   8.703 -1.3401 -0.1142  1.0674
 3980TIP3   OH233574   0.677   2.413   6.413 -0.1348  0.1484  0.2449
 3980TIP3    H133575   0.618   2.441   6.483  1.2971 -1.4267  2.1682
 3980TIP3    H233576   0.726   2.492   6.391 -0.4527  0.6169  1.1541
 3981TIP3   OH233577   6.707   5.599   1.891  0.2551 -0.0662  0.3353
 3981TIP3    H133578   6.740   5.688   1.877 -2.5638  1.0449 -0.0875
 3981TIP3    H233579   6.678   5.570   1.805 -0.3485 -0.7134  0.7436
 3982TIP3   OH233580   4.013   4.687   1.597 -0.5756 -0.3600  0.7273
 3982TIP3    H133581   4.084   4.683   1.661 -0.0784 -0.2031  0.1986
 3982TIP3    H233582   4.036   4.761   1.541 -0.5511 -1.0010 -0.1404
 3983TIP3   OH233583   6.312   1.252   7.930 -0.3438  0.2454  0.5592
 3983TIP3    H133584   6.251   1.326   7.929 -1.0460 -0.2555  2.4103
 3983TIP3    H233585   6.259   1.177   7.904  0.3459  0.3288 -1.2231
 3984TIP3   OH233586   4.444   3.149   8.431 -0.4134  0.3091  0.2439
 3984TIP3    H133587   4.371   3.129   8.490  0.3316  0.7153  1.3446
 3984TIP3    H233588   4.493   3.067   8.426 -1.6257 -0.3602 -1.5566
 3985TIP3   OH233589   3.200   1.130   2.276  0.0623 -0.0313  0.5699
 3985TIP3    H133590   3.115   1.106   2.312 -0.4897  0.1412 -0.5805
 3985TIP3    H233591   3.225   1.210   2.322 -0.8669  0.4736  0.2014
 3986TIP3   OH233592   2.463   4.752   1.455 -0.3383 -0.7040 -0.7492
 3986TIP3    H133593   2.433   4.694   1.524  1.4462 -0.4033  0.3598
 3986TIP3    H233594   2.419   4.835   1.473 -0.2378 -0.7561 -0.2402
 3987TIP3   OH233595   6.615   4.567   7.415  0.0516 -0.2322 -0.0365
 3987TIP3    H133596   6.656   4.649   7.442  0.6481 -0.9428  1.3538
 3987TIP3    H233597   6.573   4.534   7.495 -0.4519 -1.1239 -0.6469
 3988TIP3   OH233598   2.641   0.248   0.285  0.1391 -0.0532 -0.2310
 3988TIP3    H133599   2.670   0.266   0.374 -1.5056 -0.3189  0.3920
 3988TIP3    H233600   2.646   0.153   0.276 -0.6604 -0.1120 -0.0697
 3989TIP3   OH233601   0.618   1.795   1.660 -0.1424  0.5553  0.3455
 3989TIP3    H133602   0.579   1.713   1.690 -1.6666  1.6089  1.4019
 3989TIP3    H233603   0.544   1.846   1.628  1.0199  0.7959 -2.2234
 3990TIP3   OH233604   4.428   3.674   7.291 -0.3631  0.4732 -0.4269
 3990TIP3    H133605   4.493   3.684   7.222 -0.5214  0.0383 -0.6443
 3990TIP3    H233606   4.457   3.598   7.341 -0.4396  0.5735 -0.2285
 3991TIP3   OH233607   2.214   6.523   0.167  0.6329 -0.1058  0.1401
 3991TIP3    H133608   2.174   6.445   0.128 -0.0628 -0.4553  1.4872
 3991TIP3    H233609   2.160   6.596   0.136 -0.2589 -0.4366  0.8605
 3992TIP3   OH233610   1.556   4.591   0.306  0.6809 -0.0898 -0.5042
 3992TIP3    H133611   1.598   4.619   0.388 -0.2299 -0.6933  0.1853
 3992TIP3    H233612   1.616   4.526   0.270 -0.2385 -2.0107  1.1967
 3993TIP3   OH233613   0.820   5.606   0.995  0.1085 -0.4363  0.1616
 3993TIP3    H133614   0.904   5.643   1.021  0.8624  0.2189 -2.8443
 3993TIP3    H233615   0.760   5.680   0.991 -0.3566 -0.7357  1.2382
 3994TIP3   OH233616   0.507   5.343   0.412  0.5156  0.8277 -0.2457
 3994TIP3    H133617   0.514   5.298   0.328 -2.2090 -0.1962 -0.0244
 3994TIP3    H233618   0.498   5.435   0.389 -1.9170  0.4158 -1.2956
 3995TIP3   OH233619   0.539   6.641   0.526 -0.3123 -0.1298 -0.0080
 3995TIP3    H133620   0.447   6.630   0.551  0.3326 -3.2064  1.4045
 3995TIP3    H233621   0.561   6.730   0.555 -2.0837 -0.3469  2.2286
 3996TIP3   OH233622   3.934   0.024   6.930 -0.1924  0.5753 -0.6098
 3996TIP3    H133623   3.943  -0.000   6.838 -2.0760  2.1344 -1.2741
 3996TIP3    H233624   3.985  -0.042   6.977  1.0973 -0.0825 -2.7573
 3997TIP3   OH233625   0.896   0.612   7.147  0.0964  0.0114 -0.3763
 3997TIP3    H133626   0.964   0.622   7.081  1.3049  0.6138  0.8989
 3997TIP3    H233627   0.939   0.566   7.219 -1.3125 -1.0552 -0.1718
 3998TIP3   OH233628   0.301   5.554   1.381  0.4734  0.2850 -0.4222
 3998TIP3    H133629   0.366   5.605   1.332  0.9533  0.7150  0.6362
 3998TIP3    H233630   0.353   5.496   1.436  0.1187  2.4339  2.4002
 3999TIP3   OH233631   5.407   6.058   0.983  0.2160  0.1802  0.3885
 3999TIP3    H133632   5.339   6.105   0.935  0.8384  0.2642 -0.4257
 3999TIP3    H233633   5.483   6.059   0.925  0.4912 -1.1435  0.7003
 4000TIP3   OH233634   3.474   3.562   6.751 -0.3209  0.0373  0.6533
 4000TIP3    H133635   3.537   3.490   6.748  0.4896  0.6212  2.4368
 4000TIP3    H233636   3.389   3.519   6.744  0.1907 -0.8266 -1.0343
 4001TIP3   OH233637   3.596   6.128   1.798  0.0699 -0.1130 -0.5848
 4001TIP3    H133638   3.512   6.113   1.754 -0.1289 -1.2299  0.1476
 4001TIP3    H233639   3.661   6.125   1.727 -0.4370  0.2005 -1.0768
 4002TIP3   OH233640   1.495   1.940   0.400  0.4459 -0.1814 -0.1628
 4002TIP3    H133641   1.425   1.937   0.465  0.4129 -1.2439 -0.2328
 4002TIP3    H233642   1.553   1.867   0.424  1.1096  0.1965 -0.5753
 4003TIP3   OH233643   4.475   4.295   7.735  0.9161  0.2628 -0.0794
 4003TIP3    H133644   4.502   4.360   7.670  1.6956 -1.4722 -1.6003
 4003TIP3    H233645   4.502   4.332   7.819  3.9721  0.6953 -1.1244
 4004TIP3   OH233646   0.567   4.503   2.179 -0.1286  0.0113 -0.8512
 4004TIP3    H133647   0.660   4.480   2.179  0.6362  2.7092 -1.5167
 4004TIP3    H233648   0.548   4.529   2.269 -0.6996 -1.9240 -0.3622
 4005TIP3   OH233649   6.190   1.330   1.911 -0.2241  0.1030 -0.4618
 4005TIP3    H133650   6.127   1.279   1.861 -1.2730  1.3762 -0.4913
 4005TIP3    H233651   6.244   1.374   1.846  0.7059 -0.9432 -0.4366
 4006TIP3   OH233652   4.770   0.595   8.523 -0.8051  0.2900 -0.3001
 4006TIP3    H133653   4.720   0.582   8.603  1.4921 -0.4110  1.1340
 4006TIP3    H233654   4.807   0.509   8.503  2.3258  1.2546  0.6200
 4007TIP3   OH233655   0.857   5.028   7.450  0.5365 -0.0207  0.3922
 4007TIP3    H133656   0.862   5.122   7.472  0.2815 -0.2170  1.3530
 4007TIP3    H233657   0.771   5.002   7.483  1.4819 -1.0839  2.1806
 4008TIP3   OH233658   1.990   2.511   1.093  0.0371  0.1640 -0.1692
 4008TIP3    H133659   2.024   2.600   1.099 -1.7655  0.8390  0.7457
 4008TIP3    H233660   1.958   2.504   1.003  0.4944  0.3174 -0.3468
 4009TIP3   OH233661   4.272   5.752   7.428 -0.3660  0.3937 -0.4788
 4009TIP3    H133662   4.301   5.666   7.398 -1.6342  0.0093 -0.6790
 4009TIP3    H233663   4.318   5.814   7.372  0.1625 -0.1777 -0.6813
 4010TIP3   OH233664   4.119   6.779   8.250  0.6902  0.6415  0.5045
 4010TIP3    H133665   4.089   6.818   8.167 -1.9986 -2.1557 -0.0218
 4010TIP3    H233666   4.215   6.784   8.245  0.6418  0.5712 -2.8139
 4011TIP3   OH233667   1.451   4.669   2.327  0.0691  0.0694  0.0318
 4011TIP3    H133668   1.522   4.662   2.263 -0.3125 -0.6755 -0.3189
 4011TIP3    H233669   1.411   4.583   2.328 -1.8469  0.8891 -0.9496
 4012TIP3   OH233670   1.589   6.776   7.636  0.4288  0.2188  0.3887
 4012TIP3    H133671   1.606   6.743   7.724  0.2238 -0.0849  0.3154
 4012TIP3    H233672   1.577   6.871   7.647 -2.9387 -0.1822  1.2042
 4013TIP3   OH233673   0.533   1.095   7.487 -0.1694 -0.0083 -0.0889
 4013TIP3    H133674   0.613   1.044   7.475  0.1451 -0.5845  3.3900
 4013TIP3    H233675   0.464   1.029   7.501 -0.4237  0.4466  0.9349
 4014TIP3   OH233676   6.889   4.660   7.025 -0.5020  0.0144 -0.0175
 4014TIP3    H133677   6.915   4.607   7.100  0.5718  0.6980  0.1197
 4014TIP3    H233678   6.965   4.715   7.008 -1.9629  2.3840  0.6274
 4015TIP3   OH233679   6.802   4.177   1.543 -0.9607  0.5815 -0.0879
 4015TIP3    H133680   6.852   4.171   1.625 -1.6617  0.3726  0.3321
 4015TIP3    H233681   6.788   4.270   1.530  0.2054  0.6924 -0.6229
 4016TIP3   OH233682   4.755   0.118   0.922  0.2907  0.2014 -0.2273
 4016TIP3    H133683   4.804   0.037   0.913  1.7559  1.0419 -0.2201
 4016TIP3    H233684   4.679   0.095   0.976  0.1997 -1.3260 -0.9614
 4017TIP3   OH233685   3.284   0.055   0.003 -0.7189  0.6972  0.3684
 4017TIP3    H133686   3.252   0.064  -0.087  0.9491  2.6987 -0.1171
 4017TIP3    H233687   3.228   0.113   0.054 -2.8897 -1.8356  1.0781
 4018TIP3   OH233688   4.738   1.883   1.349 -0.1627 -0.6750 -0.3015
 4018TIP3    H133689   4.660   1.860   1.299 -0.7964  0.6996  0.0134
 4018TIP3    H233690   4.710   1.882   1.440 -0.0564  0.6522 -0.2342
 4019TIP3   OH233691   6.810   5.161   6.003  0.0104  0.1379  0.1271
 4019TIP3    H133692   6.805   5.207   6.086 -0.2413 -2.7039  1.8187
 4019TIP3    H233693   6.763   5.217   5.941 -1.8767  1.2701  2.4388
 4020TIP3   OH233694   6.220   4.151   1.694 -0.0502  0.2956 -0.5040
 4020TIP3    H133695   6.170   4.150   1.776  1.9021 -1.6703  0.7647
 4020TIP3    H233696   6.238   4.244   1.678 -1.0413  0.7594  0.9272
 4021TIP3   OH233697   4.370   4.692   7.555  0.0337 -0.0405 -0.3914
 4021TIP3    H133698   4.274   4.697   7.556 -0.0081 -0.6726 -0.4008
 4021TIP3    H233699   4.397   4.720   7.643 -0.1493  0.2906 -0.4399
 4022TIP3   OH233700   6.472   5.544   7.105 -0.8073  0.1139  0.7930
 4022TIP3    H133701   6.422   5.615   7.065 -1.8820 -0.8230  0.4271
 4022TIP3    H233702   6.412   5.469   7.105  0.2071 -0.7257  1.4076
 4023TIP3   OH233703   3.269   0.156   7.617  0.2172 -0.3172 -0.5313
 4023TIP3    H133704   3.219   0.188   7.693  1.3583 -1.5079  0.7673
 4023TIP3    H233705   3.358   0.186   7.632  0.7398 -1.7097 -0.6931
 4024TIP3   OH233706   6.830   3.855   7.668 -0.5020  0.1813  0.0409
 4024TIP3    H133707   6.921   3.836   7.645  0.1678  1.1549  1.6837
 4024TIP3    H233708   6.787   3.873   7.584  0.9916  0.3946 -0.7124
 4025TIP3   OH233709   0.842   5.701   8.019  0.3642 -0.0829 -0.0669
 4025TIP3    H133710   0.930   5.714   8.053  0.2448 -0.0618  0.2303
 4025TIP3    H233711   0.841   5.611   7.986  0.3488 -0.2366  0.3579
 4026TIP3   OH233712   6.860   2.998   6.336  0.1140 -0.0023 -0.1004
 4026TIP3    H133713   6.914   2.984   6.258  0.3123 -0.2701  0.0839
 4026TIP3    H233714   6.832   3.089   6.329  0.4432  0.0884 -0.2926
 4027TIP3   OH233715   6.518   3.271   2.477  0.3270 -0.0851 -0.1234
 4027TIP3    H133716   6.479   3.184   2.486 -0.2384  0.0334 -1.2626
 4027TIP3    H233717   6.461   3.329   2.527  0.9639 -0.4165  1.0308
 4028TIP3   OH233718   4.948   4.540   1.444  0.4689 -0.2969 -0.4606
 4028TIP3    H133719   4.949   4.495   1.529  1.1942 -2.5556 -1.5759
 4028TIP3    H233720   5.006   4.488   1.389  2.4924  2.8394 -1.5636
 4029TIP3   OH233721   5.298   4.571   7.578 -0.0178 -0.2361 -0.6014
 4029TIP3    H133722   5.359   4.497   7.571  1.0650  0.5507  0.2631
 4029TIP3    H233723   5.212   4.529   7.585  0.7325 -1.5453  2.0685
 4030TIP3   OH233724   4.895   2.068   0.082  0.4209  0.4002 -0.0024
 4030TIP3    H133725   4.871   2.055   0.174 -0.5351  0.5987 -0.2184
 4030TIP3    H233726   4.942   1.988   0.059 -2.9793 -1.6449 -0.5260
 4031TIP3   OH233727   1.103   6.427   2.364 -0.6339  0.1432 -0.2259
 4031TIP3    H133728   1.139   6.513   2.344  0.2698 -0.2964 -0.5223
 4031TIP3    H233729   1.089   6.385   2.279  0.2093 -0.5071 -0.0633
 4032TIP3   OH233730   4.390   0.576   7.053  0.1186 -0.2169  0.0923
 4032TIP3    H133731   4.349   0.543   7.133 -0.4033 -0.7347 -0.3809
 4032TIP3    H233732   4.345   0.659   7.036 -1.6563 -1.3426 -1.0867
 4033TIP3   OH233733   1.793   3.797   6.723 -0.3306  0.0086 -0.0230
 4033TIP3    H133734   1.855   3.736   6.764  0.4595  1.9548  1.9109
 4033TIP3    H233735   1.822   3.884   6.753 -1.7089  1.3263 -2.2199
 4034TIP3   OH233736   1.717   1.708   2.158  0.0347  0.5289 -0.3302
 4034TIP3    H133737   1.778   1.781   2.145  0.2399  0.3526 -0.3639
 4034TIP3    H233738   1.638   1.734   2.110  0.4518  0.3022 -1.1417
 4035TIP3   OH233739   0.627   3.187   0.729  0.1419  0.0198 -0.4224
 4035TIP3    H133740   0.574   3.115   0.694  0.3126 -0.1646 -0.3027
 4035TIP3    H233741   0.699   3.144   0.774 -1.7109  0.0461  2.9487
 4036TIP3   OH233742   1.306   6.148   7.471 -0.0440  0.0918  0.6335
 4036TIP3    H133743   1.329   6.139   7.563 -0.8224 -0.6137  0.7695
 4036TIP3    H233744   1.299   6.243   7.457  1.3893  0.2547  0.9549
 4037TIP3   OH233745   4.340   2.849   7.291 -0.0754 -0.2235 -0.2166
 4037TIP3    H133746   4.373   2.792   7.360  1.1395  0.5695 -0.1040
 4037TIP3    H233747   4.367   2.807   7.209 -1.6022 -1.2144 -0.2453
 4038TIP3   OH233748   1.539   6.352   7.056  0.6071  0.1207 -0.4022
 4038TIP3    H133749   1.569   6.411   6.988 -1.7953 -1.7507 -3.3554
 4038TIP3    H233750   1.488   6.407   7.116 -0.5746  1.2971 -2.3913
 4039TIP3   OH233751   0.146   0.555   0.096 -0.3742 -0.3205  0.5913
 4039TIP3    H133752   0.070   0.524   0.146 -1.3670  0.4730 -0.3949
 4039TIP3    H233753   0.109   0.600   0.021  1.0826  0.3978  0.2709
 4040TIP3   OH233754   4.110   4.139   0.838  0.0489  0.0653  0.0224
 4040TIP3    H133755   4.205   4.134   0.842  0.0424 -0.8923 -0.7139
 4040TIP3    H233756   4.079   4.075   0.902 -0.1123  0.3210  0.2061
 4041TIP3   OH233757   1.723   5.087   8.019  0.4530  0.1621  0.4170
 4041TIP3    H133758   1.721   5.174   7.981  1.2800  0.6852  1.4865
 4041TIP3    H233759   1.670   5.094   8.099 -0.8912 -0.7862 -0.3553
 4042TIP3   OH233760   4.420   2.186   0.599  0.2125  0.2179  0.7379
 4042TIP3    H133761   4.513   2.205   0.611  0.0406  1.9652 -0.2712
 4042TIP3    H233762   4.410   2.095   0.626  2.0598  0.2254  1.6022
 4043TIP3   OH233763   2.406   0.161   6.584 -0.3204  0.1582 -0.2961
 4043TIP3    H133764   2.368   0.241   6.548 -0.8166 -0.1852 -0.5423
 4043TIP3    H233765   2.403   0.099   6.512  0.6868  0.1133 -0.3113
 4044TIP3   OH233766   3.532   5.619   6.129  0.1755  0.7096 -0.0056
 4044TIP3    H133767   3.591   5.573   6.069  1.9538  1.4080  1.1376
 4044TIP3    H233768   3.447   5.577   6.115  1.0724 -0.8400 -1.1880
 4045TIP3   OH233769   2.490   1.800   0.981  0.3602  0.4606  0.4496
 4045TIP3    H133770   2.567   1.852   0.957 -0.9144  1.9761 -0.5527
 4045TIP3    H233771   2.428   1.816   0.910 -0.2165 -2.2412  0.2496
 4046TIP3   OH233772   4.231   2.798   0.458 -0.0047  0.0158 -0.2667
 4046TIP3    H133773   4.325   2.809   0.468  0.2353 -1.1417 -1.0155
 4046TIP3    H233774   4.214   2.817   0.366 -0.3249 -0.8205 -0.3896
 4047TIP3   OH233775   2.042   2.258   7.769 -0.4561  0.2108  0.0785
 4047TIP3    H133776   2.102   2.200   7.723  0.5988 -1.4059  3.1632
 4047TIP3    H233777   1.962   2.207   7.779 -0.7080  0.5747 -0.0993
 4048TIP3   OH233778   2.670   1.076   8.460  0.3851  0.0065  0.3449
 4048TIP3    H133779   2.738   1.086   8.393 -1.1711 -1.6514 -1.5832
 4048TIP3    H233780   2.648   0.983   8.459 -2.2306  0.5491  0.5584
 4049TIP3   OH233781   3.233   5.979   7.403 -0.0501  0.1297 -0.5811
 4049TIP3    H133782   3.197   6.011   7.486 -0.3366  0.9363 -0.9974
 4049TIP3    H233783   3.165   6.000   7.338  1.2289  1.9123 -1.4325
 4050TIP3   OH233784   5.652   5.320   8.145 -0.1687 -0.3343  0.1875
 4050TIP3    H133785   5.675   5.294   8.234 -0.7057  2.3106  1.1976
 4050TIP3    H233786   5.557   5.330   8.147 -0.2363 -0.6994 -0.8254
 4051TIP3   OH233787   1.876   3.214   1.226  0.1830 -0.2401  0.0447
 4051TIP3    H133788   1.942   3.256   1.171  0.4900 -0.0860  0.5268
 4051TIP3    H233789   1.878   3.262   1.309 -1.1885  0.3751 -0.2405
 4052TIP3   OH233790   2.700   6.122   7.916  0.0296  1.1539  0.2661
 4052TIP3    H133791   2.734   6.119   7.826 -0.0663 -0.3093  0.2544
 4052TIP3    H233792   2.778   6.140   7.969  0.6735 -0.8112  0.1090
 4053TIP3   OH233793   3.408   5.958   7.741  0.3006  0.3989 -0.4556
 4053TIP3    H133794   3.460   5.879   7.725 -0.1661 -0.0537  0.2190
 4053TIP3    H233795   3.322   5.937   7.705  0.7265  1.3852 -2.1648
 4054TIP3   OH233796   4.012   2.983   6.472 -0.0192 -0.5151  0.1802
 4054TIP3    H133797   4.031   2.912   6.411  1.5965  1.2078 -1.4422
 4054TIP3    H233798   4.083   2.981   6.536  0.0127 -0.3698  0.1498
 4055TIP3   OH233799   6.288   3.148   8.307 -0.3430  0.0082 -0.0314
 4055TIP3    H133800   6.278   3.055   8.327 -0.9836 -0.0511 -0.5966
 4055TIP3    H233801   6.293   3.191   8.392  2.2944 -0.7577  0.3100
 4056TIP3   OH233802   6.605   4.889   8.208  0.3177 -0.3561 -0.8336
 4056TIP3    H133803   6.579   4.949   8.279  0.3072 -0.9734 -0.3071
 4056TIP3    H233804   6.554   4.919   8.132  0.8663  0.7657 -0.7847
 4057TIP3   OH233805   3.113   4.219   8.052  0.7220 -0.0743 -0.4372
 4057TIP3    H133806   3.086   4.159   8.122 -1.2994  1.7708  0.4647
 4057TIP3    H233807   3.121   4.304   8.095 -0.0255  1.0083 -2.3381
 4058TIP3   OH233808   2.658   4.145   6.943  0.0490 -0.0840 -0.2209
 4058TIP3    H133809   2.605   4.173   6.868  0.2899  0.2099 -0.2854
 4058TIP3    H233810   2.732   4.098   6.903  1.7117  2.4558 -0.4055
 4059TIP3   OH233811   2.688   6.306   1.435 -0.3324  0.9239 -0.2181
 4059TIP3    H133812   2.704   6.285   1.527  1.1886 -0.5004 -0.7528
 4059TIP3    H233813   2.595   6.289   1.422 -0.3736  0.2565  0.8360
 4060TIP3   OH233814   6.318   5.814   1.712 -0.1402  0.1466 -0.3360
 4060TIP3    H133815   6.222   5.815   1.704 -0.0984 -1.6448 -2.0011
 4060TIP3    H233816   6.346   5.755   1.642  2.1585  0.1533  0.5169
 4061TIP3   OH233817   1.623   2.702   8.152 -0.3883  0.0215 -0.1301
 4061TIP3    H133818   1.702   2.754   8.135  0.9150 -2.0492 -0.7400
 4061TIP3    H233819   1.609   2.653   8.071 -2.6735  0.7428 -0.2287
 4062TIP3   OH233820   2.674   4.026   7.255 -0.8962 -0.6355  0.4015
 4062TIP3    H133821   2.730   3.951   7.238 -0.8880 -0.9314  1.6741
 4062TIP3    H233822   2.588   3.988   7.275 -1.1692 -0.2569 -0.0384
 4063TIP3   OH233823   1.804   6.094   0.061  0.2751  0.1490 -0.0104
 4063TIP3    H133824   1.723   6.145   0.069 -0.7223 -1.3964  0.2551
 4063TIP3    H233825   1.776   6.004   0.076  1.8631 -0.5566 -1.0703
 4064TIP3   OH233826   4.986   1.316   8.121 -0.6322 -0.8845 -0.1062
 4064TIP3    H133827   4.982   1.220   8.119 -1.4827 -0.8486 -0.7911
 4064TIP3    H233828   4.957   1.340   8.209 -0.8741 -1.2425 -0.0848
 4065TIP3   OH233829   3.920   2.641   1.960  0.6781  0.4288  0.0463
 4065TIP3    H133830   3.932   2.720   2.013  1.5181 -0.4953  1.2864
 4065TIP3    H233831   3.896   2.573   2.023  0.5477 -0.4452 -0.9237
 4066TIP3   OH233832   0.193   5.107   0.848 -0.7306  0.6219  0.1971
 4066TIP3    H133833   0.167   5.056   0.772 -0.5495 -1.4865  1.4928
 4066TIP3    H233834   0.245   5.179   0.812 -0.5474 -0.3912 -1.6463
 4067TIP3   OH233835   0.185   5.059   7.885 -0.1358 -0.1286 -0.1408
 4067TIP3    H133836   0.201   5.080   7.793  0.0593 -0.4386 -0.1774
 4067TIP3    H233837   0.263   5.010   7.912  0.3639  0.9907  0.5199
 4068TIP3   OH233838   5.646   2.790   8.434  0.6624 -0.2846 -0.2943
 4068TIP3    H133839   5.674   2.698   8.425  0.9060 -0.1840 -0.6024
 4068TIP3    H233840   5.717   2.831   8.483 -0.2747 -0.6456  1.4213
 4069TIP3   OH233841   6.871   2.974   8.518  0.2457  0.2699  0.4402
 4069TIP3    H133842   6.890   2.932   8.602 -2.6690 -0.4096  0.8586
 4069TIP3    H233843   6.883   2.904   8.454  2.3007  0.7444  0.2232
 4070TIP3   OH233844   4.423   5.546   1.287  0.3160  0.2471  0.3551
 4070TIP3    H133845   4.456   5.603   1.356  1.0528 -0.4239  0.5637
 4070TIP3    H233846   4.436   5.457   1.320  2.8241 -0.1986 -1.5543
 4071TIP3   OH233847   4.423   3.798   0.713 -0.4042 -0.7269 -0.2335
 4071TIP3    H133848   4.501   3.839   0.751  0.6052 -1.3244 -1.5644
 4071TIP3    H233849   4.403   3.726   0.771 -0.4407 -0.1062  0.5420
 4072TIP3   OH233850   5.122   1.764   7.109 -0.2106 -0.4883 -0.4079
 4072TIP3    H133851   5.074   1.683   7.127 -0.7721 -0.1854 -0.5140
 4072TIP3    H233852   5.054   1.826   7.079  0.1381  0.1689  0.1413
 4073TIP3   OH233853   2.875   6.273   2.306 -0.1833 -0.1894 -0.3301
 4073TIP3    H133854   2.785   6.252   2.330 -0.1071 -0.1458  0.0034
 4073TIP3    H233855   2.870   6.361   2.269 -0.1507  0.1761  0.5173
 4074TIP3   OH233856   6.617   5.286   0.588 -0.3998 -0.1955  0.1558
 4074TIP3    H133857   6.616   5.381   0.598 -1.5964 -0.0347 -1.1434
 4074TIP3    H233858   6.536   5.256   0.629 -0.2103 -0.6183  0.2330
 4075TIP3   OH233859   4.378   1.428   1.652  0.0657 -0.7535  0.3124
 4075TIP3    H133860   4.418   1.380   1.725  2.0581  1.8860  1.1338
 4075TIP3    H233861   4.358   1.515   1.688  2.9045  1.3622 -2.5692
 4076TIP3   OH233862   6.776   2.010   0.249  0.4168  0.7336  0.0743
 4076TIP3    H133863   6.682   2.006   0.265  0.0547  1.1479 -1.6680
 4076TIP3    H233864   6.799   1.922   0.219  0.1520  1.1312 -1.3924
 4077TIP3   OH233865   6.222   3.338   7.888  0.0196  0.0208 -0.7941
 4077TIP3    H133866   6.278   3.298   7.955  1.1563 -2.1855 -2.8869
 4077TIP3    H233867   6.151   3.275   7.875 -1.6203  1.6032  0.0114
 4078TIP3   OH233868   4.313   3.641   8.438  0.1074 -0.4602  0.4333
 4078TIP3    H133869   4.225   3.638   8.402 -0.5095 -0.2617  1.8534
 4078TIP3    H233870   4.345   3.729   8.418 -0.6077 -0.0115  1.2052
 4079TIP3   OH233871   0.997   0.863   7.924 -0.0708 -0.1245 -0.0768
 4079TIP3    H133872   0.984   0.887   7.832 -1.5032 -2.0137 -0.4332
 4079TIP3    H233873   0.924   0.904   7.970  1.4327  2.0482  0.5450
 4080TIP3   OH233874   4.167   6.467   6.690  0.4447  0.4038  0.1482
 4080TIP3    H133875   4.089   6.521   6.676 -0.1703 -0.3519  0.5788
 4080TIP3    H233876   4.231   6.500   6.627  0.1055  1.6665  0.4504
 4081TIP3   OH233877   4.059   6.536   7.395  0.1074  0.0061 -0.0227
 4081TIP3    H133878   3.988   6.598   7.384 -1.0872 -1.2488  0.2581
 4081TIP3    H233879   4.020   6.464   7.445  1.9167 -0.1597  1.2382
 4082TIP3   OH233880   1.995   1.100   7.875  0.0404 -0.5096 -0.0965
 4082TIP3    H133881   2.067   1.153   7.840  0.1620 -0.0692  0.7913
 4082TIP3    H233882   1.924   1.112   7.813 -0.3966  1.7946  0.7202
 4083TIP3   OH233883   5.132   3.733   0.354  0.2126  0.6076  0.3009
 4083TIP3    H133884   5.152   3.753   0.262 -1.2809 -3.1068 -1.0469
 4083TIP3    H233885   5.215   3.703   0.390  0.1798 -1.1847 -0.9667
 4084TIP3   OH233886   0.087   6.220   8.273 -0.0445 -0.1646  0.5021
 4084TIP3    H133887   0.035   6.230   8.353  1.0530  2.8952  0.9459
 4084TIP3    H233888   0.178   6.220   8.303  0.3432 -0.6849 -0.6344
 4085TIP3   OH233889   6.661   4.991   7.913 -0.2983 -0.0863  0.0755
 4085TIP3    H133890   6.663   5.085   7.933  0.3320 -0.2403  0.8121
 4085TIP3    H233891   6.575   4.962   7.943  0.2539 -0.1168  1.7529
 4086TIP3   OH233892   3.425   4.113   7.402 -0.2913 -0.0489  0.5666
 4086TIP3    H133893   3.354   4.051   7.386 -0.6021  0.8905 -2.2914
 4086TIP3    H233894   3.502   4.072   7.363  0.2084 -0.0010  1.4893
 4087TIP3   OH233895   6.796   4.732   1.680  0.2928  0.1863 -0.6632
 4087TIP3    H133896   6.771   4.780   1.759 -0.6043  0.6235 -1.1951
 4087TIP3    H233897   6.780   4.794   1.609 -0.3239 -0.6937 -1.3076
 4088TIP3   OH233898   1.271   1.254   0.052 -0.1890 -0.1161  0.4909
 4088TIP3    H133899   1.277   1.160   0.033 -1.5649  0.0829 -1.2956
 4088TIP3    H233900   1.216   1.259   0.130 -2.4907 -0.7794 -0.9842
 4089TIP3   OH233901   6.534   4.904   0.503  0.2783 -0.2110  0.0820
 4089TIP3    H133902   6.479   4.960   0.557  1.0756  0.4884  0.1954
 4089TIP3    H233903   6.589   4.856   0.566  2.0540  1.4843 -0.0732
 4090TIP3   OH233904   1.865   4.800   1.525  0.3421 -0.2093 -0.2135
 4090TIP3    H133905   1.959   4.787   1.511  0.3955  0.5686 -0.6341
 4090TIP3    H233906   1.855   4.895   1.535 -0.1542 -0.4286  1.7084
 4091TIP3   OH233907   5.598   6.482   0.745 -0.4258 -0.3559  0.0302
 4091TIP3    H133908   5.640   6.433   0.815 -2.0789  0.3343  1.6058
 4091TIP3    H233909   5.669   6.530   0.703  0.4493  0.8488  2.6331
 4092TIP3   OH233910   4.536   5.518   7.498 -0.0067  0.1679 -0.1153
 4092TIP3    H133911   4.498   5.535   7.412  1.5968  0.7245 -0.7496
 4092TIP3    H233912   4.577   5.600   7.523 -1.2471  0.3076  1.6524
 4093TIP3   OH233913   2.447   3.854   7.388  0.3590 -0.0440 -0.3065
 4093TIP3    H133914   2.415   3.860   7.478  0.6861  2.4276 -0.2845
 4093TIP3    H233915   2.525   3.798   7.394  0.9452  0.8764  1.1260
 4094TIP3   OH233916   0.923   4.217   0.876 -0.2991 -0.9260 -0.0539
 4094TIP3    H133917   0.947   4.126   0.890 -1.9842 -1.3307  0.5314
 4094TIP3    H233918   0.857   4.214   0.806 -0.7213 -0.2211  0.2964
 4095TIP3   OH233919   4.485   1.878   1.203  0.1988 -0.0735 -0.4505
 4095TIP3    H133920   4.422   1.847   1.139 -0.2112 -1.4992  0.6009
 4095TIP3    H233921   4.436   1.944   1.254 -0.1311 -0.4225 -0.3056
 4096TIP3   OH233922   5.930   0.752   8.157 -0.0803  0.8106 -0.6076
 4096TIP3    H133923   5.961   0.662   8.171  1.8677  1.5269  0.0682
 4096TIP3    H233924   5.875   0.746   8.079 -1.3067 -1.2238  0.3274
 4097TIP3   OH233925   6.030   5.737   7.154 -0.4315  0.4014  0.6624
 4097TIP3    H133926   5.982   5.799   7.209 -0.0331  0.1609  1.3032
 4097TIP3    H233927   6.062   5.789   7.081  0.1863  1.0404  1.3649
 4098TIP3   OH233928   6.559   5.950   8.699 -0.0902  0.2450 -0.1103
 4098TIP3    H133929   6.549   5.879   8.762 -1.2386 -0.1085 -0.6601
 4098TIP3    H233930   6.583   5.906   8.617 -2.4002  0.2794 -0.8633
 4099TIP3   OH233931   1.446   4.245   7.652  0.3363  0.4785  0.2481
 4099TIP3    H133932   1.404   4.251   7.566  0.2040 -0.1893  0.2574
 4099TIP3    H233933   1.506   4.319   7.655 -1.1931  1.7433  0.4355
 4100TIP3   OH233934   6.144   0.709   0.149  0.3856  0.5004  0.2041
 4100TIP3    H133935   6.166   0.630   0.198  0.3724  0.3005 -0.1080
 4100TIP3    H233936   6.223   0.730   0.099 -0.5479 -1.1032 -2.1171
 4101TIP3   OH233937   5.218   4.607   0.694 -0.0648  0.1242  0.2264
 4101TIP3    H133938   5.204   4.550   0.770 -1.1409  0.2699  0.1447
 4101TIP3    H233939   5.151   4.674   0.701 -0.5410 -0.1738 -1.1491
 4102TIP3   OH233940   6.267   4.376   0.302 -0.1612 -0.4352  0.0371
 4102TIP3    H133941   6.337   4.380   0.238 -2.6433  2.6567 -2.9174
 4102TIP3    H233942   6.276   4.457   0.353 -0.9773 -0.4946  0.3014
 4103TIP3   OH233943   3.429   2.485   7.133 -0.2692  0.2574 -0.0406
 4103TIP3    H133944   3.391   2.397   7.140 -0.9055  0.2916 -2.2311
 4103TIP3    H233945   3.357   2.540   7.100  0.2583  1.4939  0.8076
 4104TIP3   OH233946   3.979   4.003   0.375 -0.5777  0.0721 -0.1900
 4104TIP3    H133947   3.939   3.918   0.355 -0.7323  0.2282 -0.5577
 4104TIP3    H233948   3.981   4.007   0.470  0.3047 -0.7504 -0.1648
 4105TIP3   OH233949   0.244   3.470   1.292 -0.0256 -0.5609  0.3666
 4105TIP3    H133950   0.223   3.469   1.199 -1.6178  0.4976  0.6829
 4105TIP3    H233951   0.192   3.399   1.329  2.6299 -2.8080  0.1330
 4106TIP3   OH233952   3.653   5.960   8.140 -0.0137  0.3686 -0.0569
 4106TIP3    H133953   3.600   5.954   8.060  0.9243 -0.4947 -0.6255
 4106TIP3    H233954   3.704   6.040   8.128 -1.1589  1.2203  0.5029
 4107TIP3   OH233955   1.043   6.658   6.397  0.0252  0.1750  0.2282
 4107TIP3    H133956   1.135   6.673   6.373  0.0565 -0.6657 -0.2243
 4107TIP3    H233957   1.011   6.743   6.426  1.5417  0.0514  2.4712
 4108TIP3   OH233958   1.099   1.163   5.666  0.4264 -0.1256  0.2366
 4108TIP3    H133959   1.148   1.151   5.747 -0.0667 -0.8384  0.4404
 4108TIP3    H233960   1.034   1.093   5.667 -0.3828  0.6009 -0.1813
 4109TIP3   OH233961   3.800   2.446   1.709  0.3541 -0.3766  0.2750
 4109TIP3    H133962   3.792   2.357   1.744  0.6665 -1.3587 -2.0081
 4109TIP3    H233963   3.894   2.464   1.709  0.2145  0.7538  2.4310
 4110TIP3   OH233964   3.931   4.109   7.662 -0.1835 -0.0955  0.2464
 4110TIP3    H133965   3.959   4.164   7.735 -0.9964  1.3898 -0.5244
 4110TIP3    H233966   3.854   4.153   7.627  0.4992 -0.4789 -1.8412
 4111TIP3   OH233967   4.134   5.614   8.589  0.3264  0.0272  0.0592
 4111TIP3    H133968   4.082   5.574   8.520  0.4126 -1.0618  0.6149
 4111TIP3    H233969   4.070   5.662   8.642  0.2271  0.6657 -0.6041
 4112TIP3   OH233970   4.503   4.027   7.255 -0.0194 -0.5967  0.3031
 4112TIP3    H133971   4.464   4.068   7.177 -1.6559 -0.9006  0.9204
 4112TIP3    H233972   4.526   3.939   7.225  0.5147 -0.3066 -0.1621
 4113TIP3   OH233973   6.505   6.422   2.158  0.1845 -0.2589 -0.0028
 4113TIP3    H133974   6.571   6.389   2.097 -0.5891 -0.4683 -0.7475
 4113TIP3    H233975   6.485   6.347   2.214 -0.7456 -0.7525 -0.9642
 4114TIP3   OH233976   0.864   3.123   1.589  0.4079 -0.0282 -0.2013
 4114TIP3    H133977   0.931   3.184   1.622 -0.2995  0.8092 -0.2808
 4114TIP3    H233978   0.836   3.161   1.506 -1.7415  0.8797  0.8565
 4115TIP3   OH233979   4.387   5.198   8.324  0.0089 -0.1671  0.0173
 4115TIP3    H133980   4.367   5.159   8.409  1.0617  0.1878  0.4457
 4115TIP3    H233981   4.428   5.282   8.345  0.2486 -0.0521 -0.8446
 4116TIP3   OH233982   4.010   6.030   1.232  0.3394  0.6150 -0.3745
 4116TIP3    H133983   3.976   6.053   1.145  2.3416 -1.5777 -1.8538
 4116TIP3    H233984   4.051   6.111   1.263  0.8959  1.0793 -2.1712
 4117TIP3   OH233985   1.911   5.686   6.435 -0.6842 -0.3766 -0.3780
 4117TIP3    H133986   1.850   5.636   6.381 -0.9147 -1.0038  0.4541
 4117TIP3    H233987   1.998   5.658   6.406 -0.8012 -2.1480  0.8507
 4118TIP3   OH233988   3.006   2.780   8.636 -0.1942  0.2507 -0.2916
 4118TIP3    H133989   2.913   2.766   8.654 -0.4353  1.2365 -0.6961
 4118TIP3    H233990   3.040   2.818   8.717  0.0786 -0.9566  0.1864
 4119TIP3   OH233991   1.012   4.707   8.100 -0.1283  0.5257  0.2278
 4119TIP3    H133992   1.097   4.750   8.094  0.5243 -0.8336 -1.3628
 4119TIP3    H233993   1.021   4.646   8.173  0.2541  0.4445  0.1188
 4120TIP3   OH233994   4.666   4.861   0.893 -0.3813 -0.1977 -0.4718
 4120TIP3    H133995   4.618   4.783   0.921  1.2845 -1.5798 -1.2391
 4120TIP3    H233996   4.677   4.912   0.973  0.3413 -1.8129  0.5194
 4121TIP3   OH233997   2.316   4.982   1.649 -0.0777 -0.6023  0.3410
 4121TIP3    H133998   2.293   5.002   1.740  0.4151  1.9566 -0.0230
 4121TIP3    H233999   2.412   4.974   1.649 -0.1765 -2.1796  0.2720
 4122TIP3   OH234000   0.046   2.179   7.951  0.3027 -0.3781 -0.1572
 4122TIP3    H134001   0.055   2.085   7.936 -0.9957 -0.5105 -0.2320
 4122TIP3    H234002  -0.049   2.194   7.951  0.4962  0.9327 -0.1562
 4123TIP3   OH234003   1.784   2.654   6.977  0.0601 -0.3258 -0.1658
 4123TIP3    H134004   1.870   2.675   6.940  0.1513  0.8709  0.6562
 4123TIP3    H234005   1.723   2.664   6.905  0.6593 -1.8536 -0.9376
 4124TIP3   OH234006   4.735   4.180   8.532  0.2735 -0.1234 -0.0077
 4124TIP3    H134007   4.816   4.136   8.507 -0.1779 -0.5640 -0.6993
 4124TIP3    H234008   4.764   4.265   8.566  1.0902 -0.6395  0.6370
 4125TIP3   OH234009   3.781   4.589   1.240  0.1244  0.2692 -0.0569
 4125TIP3    H134010   3.692   4.622   1.253 -0.2798 -0.8725  0.1390
 4125TIP3    H234011   3.808   4.558   1.326  0.7450  0.6580 -0.1042
 4126TIP3   OH234012   0.808   2.743   1.644 -0.1562 -0.0853 -0.2173
 4126TIP3    H134013   0.812   2.648   1.651  0.7749  0.0560  2.0783
 4126TIP3    H234014   0.877   2.775   1.702 -0.4016  2.0166 -0.9585
 4127TIP3   OH234015   4.413   0.237   0.592  0.0534  0.2648  0.4476
 4127TIP3    H134016   4.369   0.291   0.658  0.7893  0.6916  0.5971
 4127TIP3    H234017   4.505   0.236   0.618 -0.0783 -1.8590  0.9848
 4128TIP3   OH234018   4.658   3.451   1.580 -0.6322  0.4083 -0.0667
 4128TIP3    H134019   4.573   3.421   1.547 -0.6212  2.7249 -2.5868
 4128TIP3    H234020   4.642   3.474   1.671 -3.1727  2.1106 -0.8291
 4129TIP3   OH234021   2.786   1.609   8.218 -0.1423 -0.0490  0.2285
 4129TIP3    H134022   2.874   1.635   8.193 -0.1989 -0.8306 -0.8452
 4129TIP3    H234023   2.797   1.568   8.304  0.9666 -2.2565 -0.8630
 4130TIP3   OH234024   0.790   3.555   6.975 -0.3796 -0.4721  0.2048
 4130TIP3    H134025   0.801   3.633   7.029  1.0897 -0.6636  0.2290
 4130TIP3    H234026   0.875   3.543   6.934 -0.2058 -2.7289  1.1146
 4131TIP3   OH234027   5.456   6.697   0.001 -0.4815  0.1143  0.1626
 4131TIP3    H134028   5.534   6.657   0.040 -0.5557  0.7673  1.0087
 4131TIP3    H234029   5.411   6.624  -0.043 -1.0547 -0.9459  2.3646
 4132TIP3   OH234030   1.395   2.754   0.432 -0.1123 -0.4329 -0.0764
 4132TIP3    H134031   1.418   2.845   0.448 -0.8661 -0.2641  0.0797
 4132TIP3    H234032   1.457   2.725   0.365 -0.9599  0.7152 -1.4322
 4133TIP3   OH234033   3.529   2.364   8.644 -0.3426 -0.2250  0.4123
 4133TIP3    H134034   3.436   2.341   8.646 -0.2701 -0.7644 -0.9429
 4133TIP3    H234035   3.534   2.449   8.688 -1.4024 -0.4161  0.9307
 4134TIP3   OH234036   3.337   1.594   7.921  0.0998 -0.5032  0.3092
 4134TIP3    H134037   3.342   1.600   8.016 -1.4221  1.6866  0.3135
 4134TIP3    H234038   3.419   1.633   7.890 -0.3861  0.9026  0.7269
 4135TIP3   OH234039   1.078   3.617   0.125  0.1167 -0.1825 -0.3096
 4135TIP3    H134040   1.056   3.682   0.192 -1.1041 -0.7660 -0.1194
 4135TIP3    H234041   1.134   3.664   0.064  0.4156  0.6494  0.5816
 4136TIP3   OH234042   2.170   3.495   0.600  0.0266 -0.1429 -0.1011
 4136TIP3    H134043   2.190   3.587   0.588 -0.1371 -0.0681  0.1937
 4136TIP3    H234044   2.187   3.455   0.515  1.0075 -0.0043  0.0211
 4137TIP3   OH234045   4.122   3.038   0.582  0.4823  0.1450  0.0101
 4137TIP3    H134046   4.141   2.952   0.545  0.5768  0.4034 -0.5435
 4137TIP3    H234047   4.038   3.026   0.628  0.5972 -0.2911  0.1084
 4138TIP3   OH234048   6.422   5.076   0.281  0.4199 -0.0108  0.1405
 4138TIP3    H134049   6.326   5.076   0.282  0.3892 -1.8178 -0.4488
 4138TIP3    H234050   6.447   5.030   0.361  0.8095  0.3049  0.2061
 4139TIP3   OH234051   6.141   6.557   1.549 -0.0716  0.1709 -0.3615
 4139TIP3    H134052   6.182   6.621   1.490  0.9063 -0.2027 -0.1091
 4139TIP3    H234053   6.203   6.485   1.552 -1.0544 -0.7004 -0.4579
 4140TIP3   OH234054   0.372   1.737   8.659 -0.1567  0.2929 -0.3801
 4140TIP3    H134055   0.371   1.744   8.564 -0.2715  0.2116 -0.3852
 4140TIP3    H234056   0.356   1.645   8.677 -0.5956  0.3865 -0.2740
 4141TIP3   OH234057   4.771   3.627   8.374 -0.3371 -0.3390  0.6114
 4141TIP3    H134058   4.740   3.678   8.449 -1.4024 -0.2572  0.1230
 4141TIP3    H234059   4.863   3.652   8.365  0.8427 -2.7177  3.9012
 4142TIP3   OH234060   1.919   5.178   0.523 -0.3893  0.2689  0.7795
 4142TIP3    H134061   1.983   5.181   0.453 -1.2804  0.6468 -0.0362
 4142TIP3    H234062   1.968   5.146   0.599  0.9662  1.4535  0.4298
 4143TIP3   OH234063   0.416   1.170   7.735  0.3707  0.4680 -0.7429
 4143TIP3    H134064   0.487   1.148   7.796 -0.4565 -0.2640 -0.0230
 4143TIP3    H234065   0.452   1.151   7.649  0.6526 -1.0840 -0.3107
 4144TIP3   OH234066   5.408   0.263   8.578 -0.0193 -0.3534  0.7485
 4144TIP3    H134067   5.441   0.349   8.550 -0.8643 -0.2257  0.1252
 4144TIP3    H234068   5.402   0.212   8.497 -1.7947 -0.2149  0.7580
 4145TIP3   OH234069   6.387   4.377   0.058  0.4044  0.2489 -0.2050
 4145TIP3    H134070   6.426   4.465   0.051 -0.1523  0.4921 -0.3511
 4145TIP3    H234071   6.322   4.374  -0.012 -0.1064 -0.0013  0.2622
 4146TIP3   OH234072   5.645   4.470   0.330  0.4320  0.2295 -0.1069
 4146TIP3    H134073   5.713   4.463   0.398  0.9327  1.1271 -0.5087
 4146TIP3    H234074   5.572   4.419   0.365  0.0738  1.9527  1.8646
 4147TIP3   OH234075   3.976   3.545   0.920  0.6127 -0.4517  0.4548
 4147TIP3    H134076   3.895   3.528   0.872  0.0497  0.0418  1.2030
 4147TIP3    H234077   3.994   3.463   0.967  0.4486 -0.5088  0.4185
 4148TIP3   OH234078   1.627   3.046   0.041  0.1642  0.2857  0.1192
 4148TIP3    H134079   1.703   3.090   0.003  0.1894 -0.0660 -0.2406
 4148TIP3    H234080   1.649   3.034   0.133 -0.7916  3.1691  0.8190
 4149TIP3   OH234081   4.833   0.329   8.433  0.0567 -0.0768  0.4972
 4149TIP3    H134082   4.845   0.300   8.523  0.8636 -3.9027 -0.6367
 4149TIP3    H234083   4.917   0.310   8.390 -1.0616 -0.7358 -1.5628
 4150TIP3   OH234084   5.412   1.165   1.589  0.0681 -0.2237  0.3154
 4150TIP3    H134085   5.361   1.239   1.557  0.0277 -0.4426 -0.1336
 4150TIP3    H234086   5.503   1.193   1.583  0.1212 -0.6101 -0.9205
 4151TIP3   OH234087   1.006   3.559   1.186 -0.5780 -0.1701 -0.1680
 4151TIP3    H134088   1.082   3.529   1.137 -0.2953  1.6144 -0.9184
 4151TIP3    H234089   1.044   3.608   1.260 -1.0026 -0.6801  0.3920
 4152TIP3   OH234090   6.520   0.862   7.031 -0.9211 -0.1450  0.8389
 4152TIP3    H134091   6.558   0.933   6.979 -1.2896 -0.7570 -0.3003
 4152TIP3    H234092   6.466   0.813   6.969 -0.5081 -1.5421  1.5495
 4153TIP3   OH234093   0.579   0.784   1.464 -0.8073 -0.3798 -0.3453
 4153TIP3    H134094   0.654   0.753   1.413 -0.3107  3.3906 -2.2704
 4153TIP3    H234095   0.616   0.813   1.547 -0.9539 -2.4883  0.5418
 4154TIP3   OH234096   3.842   2.319   1.424 -0.2331  0.1839  0.0076
 4154TIP3    H134097   3.849   2.414   1.432  0.3019  0.0646  1.3098
 4154TIP3    H234098   3.890   2.298   1.344  2.5444  0.7524  1.3914
 4155TIP3   OH234099   0.625   1.321   0.370 -0.0667 -0.4864 -0.5026
 4155TIP3    H134100   0.541   1.317   0.415  0.4176 -0.0515  0.4737
 4155TIP3    H234101   0.656   1.411   0.385 -0.0588 -0.2038 -2.0393
 4156TIP3   OH234102   0.303   1.432   8.684  0.2393 -0.5273 -0.3747
 4156TIP3    H134103   0.243   1.456   8.614  0.9300  0.5449 -0.6196
 4156TIP3    H234104   0.255   1.367   8.736 -2.3887  2.4736  1.2584
 4157TIP3   OH234105   2.515   5.740   1.723  0.0757 -0.4521  0.9358
 4157TIP3    H134106   2.539   5.648   1.732  0.3436 -0.2225  3.7128
 4157TIP3    H234107   2.587   5.787   1.765  0.8586  1.2191 -2.0666
 4158TIP3   OH234108   3.931   3.782   7.263  0.1524  0.4109 -0.2776
 4158TIP3    H134109   3.854   3.731   7.236  0.6955 -0.3775 -0.3708
 4158TIP3    H234110   3.924   3.788   7.359  0.2329 -0.0859 -0.2396
 4159TIP3   OH234111   6.157   6.156   0.129 -0.6041 -0.1049 -0.4402
 4159TIP3    H134112   6.201   6.124   0.208 -0.9191 -0.9477 -0.5997
 4159TIP3    H234113   6.219   6.137   0.058 -0.8501 -0.5142 -0.5525
 4160TIP3   OH234114   0.170   5.335   0.272  0.0741 -0.0388  0.3048
 4160TIP3    H134115   0.218   5.260   0.308  0.4537 -0.4133 -0.9315
 4160TIP3    H234116   0.139   5.383   0.349 -1.4644 -2.2692  1.1854
 4161TIP3   OH234117   4.969   5.614   0.884  1.2458 -0.0756  0.0598
 4161TIP3    H134118   4.987   5.684   0.822 -0.8810 -1.4205 -2.2246
 4161TIP3    H234119   4.892   5.644   0.932 -0.0391 -0.9931 -1.3349
 4162TIP3   OH234120   1.848   5.760   7.714 -0.1292  0.0911  0.7471
 4162TIP3    H134121   1.874   5.676   7.753 -1.0405 -0.7805 -0.4435
 4162TIP3    H234122   1.889   5.760   7.628  0.6212  1.3075  1.0816
 4163TIP3   OH234123   5.601   3.753   7.753 -0.1116  0.2081 -0.5431
 4163TIP3    H134124   5.593   3.827   7.693 -0.8991 -0.3057 -1.0823
 4163TIP3    H234125   5.632   3.792   7.835  1.9414  0.8084 -1.5280
 4164TIP3   OH234126   1.815   4.936   6.673  0.1918  0.4202  0.1371
 4164TIP3    H134127   1.880   4.952   6.741  0.5247 -0.5034  0.0500
 4164TIP3    H234128   1.831   4.847   6.644 -0.5247  0.4898 -0.5350
 4165TIP3   OH234129   5.319   1.171   2.176  0.1486  0.0116  0.3022
 4165TIP3    H134130   5.409   1.139   2.167  0.4483  1.3763 -3.1190
 4165TIP3    H234131   5.265   1.095   2.154  0.6727  0.1717 -1.7694
 4166TIP3   OH234132   2.211   5.262   1.280  0.3310 -0.2500 -0.3142
 4166TIP3    H134133   2.188   5.273   1.372 -0.0423  1.4446 -0.5633
 4166TIP3    H234134   2.294   5.310   1.271 -0.1074  0.3957 -1.0295
 4167TIP3   OH234135   6.753   4.046   1.219 -0.0455 -0.0700  0.1199
 4167TIP3    H134136   6.749   4.106   1.294 -0.7520  2.0899 -1.5618
 4167TIP3    H234137   6.672   3.995   1.225  0.5693 -0.9711  1.5686
 4168TIP3   OH234138   2.836   0.595   8.553 -0.1922  0.1961  0.4848
 4168TIP3    H134139   2.821   0.662   8.620 -0.0771 -0.1481  0.8563
 4168TIP3    H234140   2.928   0.572   8.562 -1.0943 -3.2242  3.4222
 4169TIP3   OH234141   4.275   4.790   0.982 -0.5178 -0.0969 -0.5434
 4169TIP3    H134142   4.278   4.712   1.037 -1.4134  0.5960  0.5397
 4169TIP3    H234143   4.267   4.863   1.044  0.8971  0.9185 -1.4968
 4170TIP3   OH234144   2.104   4.596   6.704 -0.1209  0.3320  0.6525
 4170TIP3    H134145   2.155   4.672   6.679 -1.8856  1.6820  0.9841
 4170TIP3    H234146   2.019   4.631   6.730  0.0178 -1.3719  4.0208
 4171TIP3   OH234147   2.983   2.422   0.359  0.1217 -0.0977  0.2933
 4171TIP3    H134148   2.963   2.435   0.452  2.9167 -1.9977  1.2915
 4171TIP3    H234149   2.925   2.351   0.332 -0.6474  0.4052  0.5852
 4172TIP3   OH234150   2.236   2.962   1.336  0.4392  0.2655  0.2597
 4172TIP3    H134151   2.237   3.057   1.338 -0.6132  0.3064 -0.1081
 4172TIP3    H234152   2.285   2.935   1.413 -2.4389  1.1664  2.5911
 4173TIP3   OH234153   0.822   2.794   7.687  0.0474  0.8241 -0.6416
 4173TIP3    H134154   0.781   2.843   7.616  0.6974 -0.4810 -1.9805
 4173TIP3    H234155   0.896   2.750   7.646  0.5992  0.2219  0.9167
 4174TIP3   OH234156   6.677   0.495   8.670 -0.3835  0.5036  0.3515
 4174TIP3    H134157   6.585   0.492   8.647 -1.0898  1.0228  2.8059
 4174TIP3    H234158   6.678   0.516   8.764  2.2091 -0.0750  0.5387
 4175TIP3   OH234159   6.745   0.921   7.220  0.0255 -0.3158 -0.3753
 4175TIP3    H134160   6.809   0.853   7.242 -1.3820 -0.7668  2.9075
 4175TIP3    H234161   6.673   0.874   7.178  0.5720 -0.2488 -1.4155
 4176TIP3   OH234162   4.792   4.896   0.469  0.4191  0.6227  0.6107
 4176TIP3    H134163   4.731   4.844   0.416  1.2406 -0.0704  0.3323
 4176TIP3    H234164   4.735   4.956   0.518 -0.4747  0.1300  0.2061
 4177TIP3   OH234165   0.810   2.205   0.192  0.1061  0.2803 -0.1212
 4177TIP3    H134166   0.775   2.164   0.271  0.1503  1.8048  0.7209
 4177TIP3    H234167   0.845   2.132   0.141 -0.8766 -0.8569  0.7639
 4178TIP3   OH234168   6.855   6.872   6.679  0.2333 -0.1253 -0.0796
 4178TIP3    H134169   6.869   6.890   6.772 -0.7153  0.6815 -0.0777
 4178TIP3    H234170   6.939   6.894   6.637  0.1250  1.2202  0.3642
 4179TIP3   OH234171   6.322   5.749   6.988 -0.1064 -0.2128  0.4820
 4179TIP3    H134172   6.232   5.736   6.958 -0.1635 -0.8643  0.9152
 4179TIP3    H234173   6.334   5.844   6.987 -0.3216 -0.1677 -0.9519
 4180TIP3   OH234174   0.551   2.447   1.530  0.3970  0.3379  0.3297
 4180TIP3    H134175   0.520   2.537   1.538  1.7517  0.8942 -0.5219
 4180TIP3    H234176   0.541   2.426   1.437  0.4876 -0.2603  0.4490
 4181TIP3   OH234177   4.279   0.109   1.393  0.2505 -0.0571  0.4592
 4181TIP3    H134178   4.234   0.028   1.367  1.0209 -0.3437 -0.0025
 4181TIP3    H234179   4.250   0.124   1.483 -1.8393  0.5060 -0.2433
 4182TIP3   OH234180   0.466   3.339   7.323  0.0394  0.4186 -0.4565
 4182TIP3    H134181   0.381   3.297   7.333  0.4669 -0.4096 -0.2953
 4182TIP3    H234182   0.529   3.267   7.319  0.5805  0.9367 -2.2614
 4183TIP3   OH234183   2.308   0.947   0.882 -0.5466  0.1554 -0.1824
 4183TIP3    H134184   2.263   1.001   0.947 -1.5765  1.2907 -1.7389
 4183TIP3    H234185   2.401   0.965   0.896 -0.7315  0.1750  1.1185
 4184TIP3   OH234186   4.460   2.815   8.143  0.5629  0.0022 -0.4616
 4184TIP3    H134187   4.493   2.728   8.165  0.0801 -0.2044 -0.5367
 4184TIP3    H234188   4.367   2.802   8.126  0.2060  0.7443  0.7664
 4185TIP3   OH234189   2.341   4.160   7.814  0.4024 -0.2690  0.3411
 4185TIP3    H134190   2.252   4.126   7.811  0.6446 -0.9703  0.6284
 4185TIP3    H234191   2.349   4.200   7.901  0.2299  0.1913  0.1445
 4186TIP3   OH234192   5.770   6.149   1.354  0.2106 -0.0186 -0.0674
 4186TIP3    H134193   5.679   6.169   1.373  0.3217 -0.9850  1.6004
 4186TIP3    H234194   5.794   6.079   1.414  1.6403 -0.8432 -1.4889
 4187TIP3   OH234195   5.426   5.338   6.451 -0.0403 -0.1075  0.0739
 4187TIP3    H134196   5.430   5.431   6.469 -0.6038 -0.3457  1.5646
 4187TIP3    H234197   5.444   5.296   6.535  0.9929 -1.3589 -0.7287
 4188TIP3   OH234198   3.598   2.223   1.439  0.6049  0.0418 -0.0425
 4188TIP3    H134199   3.604   2.133   1.407 -0.8830  0.1083 -0.5686
 4188TIP3    H234200   3.687   2.258   1.430  1.0001 -1.0853 -0.6799
 4189TIP3   OH234201   0.613   2.738   7.895  0.2059  0.6260  0.1544
 4189TIP3    H134202   0.569   2.653   7.887 -1.4451  1.3776  0.8608
 4189TIP3    H234203   0.542   2.802   7.900  1.3009  1.7973  2.8423
 4190TIP3   OH234204   6.426   1.665   0.371 -0.6922  0.0004 -0.5819
 4190TIP3    H134205   6.429   1.663   0.275 -2.5510  1.2564 -0.7284
 4190TIP3    H234206   6.351   1.721   0.391 -0.2990 -0.1766  1.6238
 4191TIP3   OH234207   2.057   2.921   1.615  0.4561  0.4061  0.1773
 4191TIP3    H134208   2.055   2.917   1.710 -0.8508 -1.6054  0.1334
 4191TIP3    H234209   2.047   2.830   1.587  0.4615  0.9859 -1.8766
 4192TIP3   OH234210   2.472   6.015   2.153  0.6060  0.0601 -0.2574
 4192TIP3    H134211   2.493   5.928   2.118  0.1044 -0.5311  0.8664
 4192TIP3    H234212   2.388   6.037   2.113  0.6185 -0.0810 -0.3621
 4193TIP3   OH234213   0.483   4.624   7.056  0.2867  0.2732  0.1404
 4193TIP3    H134214   0.473   4.611   6.962 -1.2967  0.4174  0.2630
 4193TIP3    H234215   0.544   4.556   7.083 -0.6020 -0.9184 -0.7316
 4194TIP3   OH234216   6.442   6.379   6.396 -0.4655  0.6657  0.0138
 4194TIP3    H134217   6.445   6.361   6.490 -1.4196  2.5611  0.4576
 4194TIP3    H234218   6.352   6.357   6.371  0.1366 -1.0798 -0.7813
 4195TIP3   OH234219   3.836   0.882   0.383  0.4780  0.0130 -0.6857
 4195TIP3    H134220   3.799   0.960   0.424 -0.9100  0.2759 -2.3401
 4195TIP3    H234221   3.907   0.855   0.442  1.3746  2.8384 -0.3574
 4196TIP3   OH234222   3.004   3.625   1.365  0.2110 -0.4312 -0.0518
 4196TIP3    H134223   3.067   3.692   1.338  0.3914 -0.6714 -0.2351
 4196TIP3    H234224   3.058   3.556   1.404  0.1134 -0.8630 -0.6667
 4197TIP3   OH234225   6.505   6.646   0.358  0.2334 -0.2343  0.1901
 4197TIP3    H134226   6.500   6.585   0.433 -0.2033 -0.1615  0.2213
 4197TIP3    H234227   6.487   6.591   0.282 -0.2679 -0.1223  0.2284
 4198TIP3   OH234228   4.358   0.560   7.354  0.1678 -0.4329  0.3639
 4198TIP3    H134229   4.342   0.646   7.392  0.7510 -0.8980  1.6986
 4198TIP3    H234230   4.401   0.511   7.423  1.1064 -1.3659 -0.8494
 4199TIP3   OH234231   2.204   2.680   8.431  0.0708  0.2696 -0.0962
 4199TIP3    H134232   2.112   2.661   8.449  0.2619  1.2508  2.2262
 4199TIP3    H234233   2.203   2.724   8.346 -1.6399  0.5861  0.0498
 4200TIP3   OH234234   3.380   3.802   6.357 -0.1438 -0.4567  0.3681
 4200TIP3    H134235   3.447   3.733   6.353  1.0231  0.6106  0.8088
 4200TIP3    H234236   3.308   3.763   6.406  0.2450 -1.5556  0.0983
 4201TIP3   OH234237   2.409   0.095   7.083 -0.1427  0.1068 -0.2050
 4201TIP3    H134238   2.401   0.001   7.064  0.0061  0.2348 -0.9375
 4201TIP3    H234239   2.351   0.137   7.019  1.8404  0.6846 -1.7413
 4202TIP3   OH234240   1.077   3.259   8.433  0.4755  0.4165  0.0952
 4202TIP3    H134241   0.992   3.290   8.400  0.4488 -0.5389 -0.7857
 4202TIP3    H234242   1.079   3.166   8.409  1.6380  0.3603  0.3886
 4203TIP3   OH234243   4.268   2.872   1.803  0.3562  0.2946 -0.3410
 4203TIP3    H134244   4.197   2.908   1.749  0.3523  1.7154  0.5469
 4203TIP3    H234245   4.289   2.788   1.763 -0.0663  1.0157 -2.1732
 4204TIP3   OH234246   2.508   5.229   1.637 -0.1746 -0.2261 -0.7143
 4204TIP3    H134247   2.485   5.204   1.547 -0.1888  0.1467 -0.8165
 4204TIP3    H234248   2.598   5.261   1.630  0.5973 -2.1381 -0.2306
 4205TIP3   OH234249   2.396   0.756   1.102 -0.5234  0.1354 -0.0043
 4205TIP3    H134250   2.305   0.734   1.119 -0.0224 -2.6232 -0.4218
 4205TIP3    H234251   2.426   0.690   1.040  2.0037  0.3607  0.8491
 4206TIP3   OH234252   3.810   6.209   7.948  0.1337  0.0963 -0.0544
 4206TIP3    H134253   3.823   6.300   7.921 -2.0644  0.9247  1.4429
 4206TIP3    H234254   3.830   6.158   7.869 -1.1577  2.0571 -1.7629
 4207TIP3   OH234255   6.478   0.745   1.358  0.1566 -0.6116  0.2611
 4207TIP3    H134256   6.559   0.782   1.393  0.8114  0.4360 -2.1569
 4207TIP3    H234257   6.461   0.669   1.414  1.9529  0.0007  1.7777
 4208TIP3   OH234258   2.322   4.100   7.543  0.0935  0.2086 -0.0213
 4208TIP3    H134259   2.381   4.169   7.572  1.4561 -0.9111 -0.0125
 4208TIP3    H234260   2.293   4.058   7.624  1.5544 -1.0296 -0.1001
 4209TIP3   OH234261   2.226   3.854   8.587  0.5447  0.3302 -0.2131
 4209TIP3    H134262   2.220   3.899   8.503  1.2263  1.4661  0.3242
 4209TIP3    H234263   2.136   3.831   8.609  0.4006 -0.3150 -1.4232
 4210TIP3   OH234264   1.360   1.408   6.961 -0.9028 -0.1984 -0.0047
 4210TIP3    H134265   1.406   1.367   7.035 -1.0298 -1.3409 -0.5331
 4210TIP3    H234266   1.385   1.500   6.965  0.7970 -0.6360  0.2123
 4211TIP3   OH234267   4.126   4.147   7.409 -0.0995  0.5553 -0.6298
 4211TIP3    H134268   4.051   4.205   7.396 -2.7640 -1.8980  2.1579
 4211TIP3    H234269   4.140   4.148   7.504  2.3651 -0.3757 -0.9170
 4212TIP3   OH234270   6.545   6.250   6.912 -0.2510 -0.1110  0.2344
 4212TIP3    H134271   6.494   6.290   6.982  0.6307 -0.2392  0.9678
 4212TIP3    H234272   6.620   6.309   6.901 -0.8864  0.4592 -1.3197
 4213TIP3   OH234273   6.027   3.019   7.931  0.8402  0.3192  0.1869
 4213TIP3    H134274   6.013   3.078   7.856  0.4779 -0.0189 -0.0152
 4213TIP3    H234275   6.009   3.073   8.007 -0.2252  0.2936 -0.0195
 4214TIP3   OH234276   3.933   0.034   8.367  0.7634 -0.2790 -0.1629
 4214TIP3    H134277   3.941  -0.009   8.452  1.3586 -0.2137 -0.1834
 4214TIP3    H234278   3.984  -0.020   8.308  0.6573 -0.1150 -0.4033
 4215TIP3   OH234279   3.165   5.612   7.031  0.3051  0.0563  0.4936
 4215TIP3    H134280   3.179   5.704   7.006 -0.8937  0.1386  0.0808
 4215TIP3    H234281   3.090   5.584   6.978 -0.4069 -0.6646  1.8377
 4216TIP3   OH234282   3.842   0.294   7.123 -0.6656 -0.2822 -0.4392
 4216TIP3    H134283   3.814   0.289   7.032 -0.2810  0.0696 -0.5801
 4216TIP3    H234284   3.927   0.337   7.120 -0.4778 -0.6062  0.0555
 4217TIP3   OH234285   2.074   5.515   1.807  0.2257 -0.2544  0.5675
 4217TIP3    H134286   2.168   5.535   1.814  0.6622 -1.2166 -1.6875
 4217TIP3    H234287   2.059   5.446   1.872  0.9959  0.0836  1.1228
 4218TIP3   OH234288   2.429   6.598   6.583 -0.0172 -0.6068  0.5453
 4218TIP3    H134289   2.391   6.538   6.518 -0.0614 -0.7915  0.7434
 4218TIP3    H234290   2.466   6.541   6.650 -0.0507 -0.4132  0.7288
 4219TIP3   OH234291   4.283   1.526   7.112  0.3738 -0.0461  0.2474
 4219TIP3    H134292   4.328   1.486   7.037  0.9663  1.3230 -0.1446
 4219TIP3    H234293   4.352   1.567   7.163 -0.2530  0.8148  0.4201
 4220TIP3   OH234294   5.372   5.283   8.641  0.3298 -0.4031  0.1350
 4220TIP3    H134295   5.420   5.359   8.607 -0.4966  0.0745 -0.0069
 4220TIP3    H234296   5.308   5.262   8.573  1.0161 -1.6940 -0.1448
 4221TIP3   OH234297   6.547   5.147   2.508 -0.1123 -0.0380  0.7674
 4221TIP3    H134298   6.610   5.076   2.499  3.0134  2.3120  2.2254
 4221TIP3    H234299   6.540   5.185   2.421 -0.5895 -1.0781  0.3264
 4222TIP3   OH234300   4.385   6.441   0.819 -0.3954 -0.1535 -0.2452
 4222TIP3    H134301   4.325   6.505   0.856  0.1901  1.6470 -2.2285
 4222TIP3    H234302   4.332   6.390   0.758 -0.5726 -0.7705  0.3992
 4223TIP3   OH234303   4.504   4.401   7.209 -0.5844  0.0768  0.7644
 4223TIP3    H134304   4.426   4.396   7.153 -1.3260  1.2747  1.6325
 4223TIP3    H234305   4.577   4.389   7.149 -1.4236 -2.9572  0.1726
 4224TIP3   OH234306   6.818   2.457   0.135  1.2775 -0.0351 -0.2710
 4224TIP3    H134307   6.817   2.366   0.106  1.9443 -0.3512  0.6673
 4224TIP3    H234308   6.727   2.479   0.151  0.9541 -0.0722 -1.8717
 4225TIP3   OH234309   3.612   4.212   1.427 -0.4084 -0.3895 -0.4938
 4225TIP3    H134310   3.652   4.131   1.394 -1.6025 -0.5164 -1.7479
 4225TIP3    H234311   3.522   4.208   1.396  0.0159  2.3910 -2.4772
 4226TIP3   OH234312   4.304   3.699   1.736  0.2214 -0.0987  0.1331
 4226TIP3    H134313   4.297   3.676   1.829 -0.4728 -1.0964 -0.1516
 4226TIP3    H234314   4.326   3.792   1.736  0.5600 -0.1683  1.3019
 4227TIP3   OH234315   2.947   0.393   0.207  0.3523 -0.0326 -0.5993
 4227TIP3    H134316   2.889   0.340   0.152  0.5001 -1.9852  1.0080
 4227TIP3    H234317   2.894   0.414   0.284  0.2397  2.4104 -1.2738
 4228TIP3   OH234318   0.556   4.030   0.576 -0.4214 -0.1773  0.5591
 4228TIP3    H134319   0.611   3.951   0.572 -1.3059 -0.7994  0.4602
 4228TIP3    H234320   0.617   4.099   0.601  0.6045 -0.6638 -0.4432
 4229TIP3   OH234321   2.658   5.940   0.233 -0.4650 -0.2072 -0.5761
 4229TIP3    H134322   2.737   5.899   0.199  0.0985 -0.2792  0.7907
 4229TIP3    H234323   2.680   6.033   0.241  0.3534 -0.5392  2.0312
 4230TIP3   OH234324   5.084   4.144   0.955 -0.6043  0.4705 -0.2362
 4230TIP3    H134325   5.049   4.183   0.874 -0.0033 -0.3487 -0.9037
 4230TIP3    H234326   5.036   4.062   0.964  0.8324 -0.4811 -0.9516
 4231TIP3   OH234327   4.877   2.287   7.542  0.9932 -0.2855  0.0647
 4231TIP3    H134328   4.842   2.371   7.511 -1.6401 -0.9043  1.0722
 4231TIP3    H234329   4.941   2.261   7.475 -0.3705  1.0800 -1.8791
 4232TIP3   OH234330   2.231   2.316   6.442  0.6592 -0.0994  0.3116
 4232TIP3    H134331   2.146   2.313   6.397  1.5874  0.9444 -1.6279
 4232TIP3    H234332   2.243   2.408   6.465  0.8506 -0.3985  1.4565
 4233TIP3   OH234333   3.008   1.712   1.809 -0.7356 -0.2917  0.1591
 4233TIP3    H134334   2.931   1.671   1.770 -2.0149  2.1844 -0.1156
 4233TIP3    H234335   2.979   1.742   1.895 -0.2827  1.1071 -0.1325
 4234TIP3   OH234336   6.434   6.273   7.547 -1.1395 -0.5096  0.5498
 4234TIP3    H134337   6.431   6.189   7.593  0.3559  0.4751  2.5881
 4234TIP3    H234338   6.416   6.338   7.615 -1.4318  0.8962 -0.8121
 4235TIP3   OH234339   1.317   2.141   8.212  0.4844  0.1818  0.1038
 4235TIP3    H134340   1.372   2.115   8.138  0.1503  0.3213 -0.1973
 4235TIP3    H234341   1.334   2.075   8.279 -0.2553 -0.7420 -0.5964
 4236TIP3   OH234342   0.343   0.039   8.252  0.2277 -0.2116 -0.0540
 4236TIP3    H134343   0.259   0.072   8.221  0.7512  0.3829 -0.8783
 4236TIP3    H234344   0.368   0.099   8.322  0.4549  0.2539 -0.5243
 4237TIP3   OH234345   3.281   0.300   0.524 -0.0841 -0.0299 -0.0926
 4237TIP3    H134346   3.259   0.394   0.527 -0.0610 -0.0539  1.9537
 4237TIP3    H234347   3.376   0.298   0.520 -0.1071 -0.0052 -2.3788
 4238TIP3   OH234348   4.437   4.249   1.321  0.5943 -0.1013 -0.1439
 4238TIP3    H134349   4.462   4.300   1.399 -0.2258 -0.2799  0.2498
 4238TIP3    H234350   4.407   4.165   1.356 -2.1635  0.6732 -0.3898
 4239TIP3   OH234351   0.932   1.209   6.609  0.8399  0.1536  0.1965
 4239TIP3    H134352   0.839   1.208   6.584  1.1349 -1.3272 -1.0472
 4239TIP3    H234353   0.964   1.294   6.578 -0.0806  0.6750  0.6243
 4240TIP3   OH234354   2.994   5.651   1.180 -0.3111  0.2367  0.5738
 4240TIP3    H134355   2.975   5.670   1.089 -0.3432  2.7075  1.0366
 4240TIP3    H234356   2.982   5.556   1.188 -1.1633  0.0962 -1.7611
 4241TIP3   OH234357   0.089   5.920   6.667 -0.6179 -0.0270 -0.0185
 4241TIP3    H134358   0.157   5.961   6.614  0.2463 -1.6021 -0.1928
 4241TIP3    H234359   0.056   5.990   6.723  1.1547  0.7795  0.0848
 4242TIP3   OH234360   4.415   5.891   1.639  0.1624  0.0971 -0.6069
 4242TIP3    H134361   4.376   5.952   1.577  0.7955  1.8979  0.7072
 4242TIP3    H234362   4.386   5.922   1.724  1.4417 -0.7538  0.1690
 4243TIP3   OH234363   5.857   1.441   1.444 -0.2138  0.1719  0.5340
 4243TIP3    H134364   5.890   1.440   1.534 -1.1861 -0.8368  0.9028
 4243TIP3    H234365   5.928   1.479   1.393  1.3019 -1.3417  1.3856
 4244TIP3   OH234366   4.074   6.113   8.575 -0.1391 -0.1882 -0.6236
 4244TIP3    H134367   4.014   6.179   8.610  0.8370 -0.1483  1.1127
 4244TIP3    H234368   4.160   6.154   8.580  0.5174 -1.5861  0.6502
 4245TIP3   OH234369   5.156   3.156   8.318 -0.4814 -0.2005  0.5214
 4245TIP3    H134370   5.195   3.240   8.295  0.2450  0.0305  2.4320
 4245TIP3    H234371   5.066   3.176   8.342 -0.6595 -0.1597 -0.1599
 4246TIP3   OH234372   1.048   4.078   7.457 -0.2806 -0.3492 -0.7489
 4246TIP3    H134373   1.010   4.125   7.383 -0.4554 -2.7229 -2.2785
 4246TIP3    H234374   1.089   4.001   7.418  0.3542 -1.2687  1.5581
 4247TIP3   OH234375   5.754   5.193   0.387 -0.1489  0.2999  0.2150
 4247TIP3    H134376   5.672   5.153   0.359  0.4739 -0.2293 -0.8726
 4247TIP3    H234377   5.800   5.213   0.306  1.6354 -1.1417  0.8115
 4248TIP3   OH234378   3.525   2.527   7.811  0.1979  0.1731  0.5406
 4248TIP3    H134379   3.494   2.503   7.898  0.6982  0.7892  0.9041
 4248TIP3    H234380   3.596   2.466   7.792  0.9338  0.8338  1.1164
 4249TIP3   OH234381   0.219   3.496   0.586 -0.1613 -0.8978 -0.4441
 4249TIP3    H134382   0.133   3.455   0.594  0.0828 -1.3361  0.0164
 4249TIP3    H234383   0.263   3.476   0.669 -0.1454  0.5710 -0.0826
 4250TIP3   OH234384   2.238   2.629   1.459  0.5959 -0.7077 -0.4181
 4250TIP3    H134385   2.252   2.629   1.554 -1.1178 -2.6439 -0.1004
 4250TIP3    H234386   2.143   2.633   1.448  0.7864  0.8091 -2.1440
 4251TIP3   OH234387   3.185   4.928   8.481 -0.6323 -0.3312 -0.0494
 4251TIP3    H134388   3.228   5.013   8.480 -1.4494  0.1045 -1.5047
 4251TIP3    H234389   3.130   4.928   8.402 -1.0789 -1.9834  0.2220
 4252TIP3   OH234390   2.249   0.131   8.446 -0.1984  0.2068  0.0272
 4252TIP3    H134391   2.341   0.134   8.473 -0.5871 -0.9384  1.6569
 4252TIP3    H234392   2.226   0.222   8.429  1.3045  0.4772 -0.7043
 4253TIP3   OH234393   0.780   6.081   0.504 -0.4577 -0.5471 -0.7667
 4253TIP3    H134394   0.776   6.165   0.458 -1.1757  0.0827  0.4014
 4253TIP3    H234395   0.689   6.061   0.526 -0.2829 -1.6144 -0.9905
 4254TIP3   OH234396   1.337   2.107   1.694 -0.6897 -0.2371 -0.4731
 4254TIP3    H134397   1.269   2.043   1.714  0.5451 -0.7618  2.5842
 4254TIP3    H234398   1.419   2.056   1.695  0.4196  1.3479  2.8722
 4255TIP3   OH234399   4.874   0.061   0.098  0.1210  0.4031 -0.0100
 4255TIP3    H134400   4.870   0.144   0.050  1.4666  0.0715 -0.7284
 4255TIP3    H234401   4.924   0.082   0.177 -0.2652  0.4612  0.2214
 4256TIP3   OH234402   1.010   5.950   0.246  0.0005  0.6205 -0.0880
 4256TIP3    H134403   1.013   5.925   0.338 -0.9327  0.6853 -0.0294
 4256TIP3    H234404   1.079   6.015   0.236  0.0489  0.6741  0.5827
 4257TIP3   OH234405   1.077   5.825   0.517  0.2975  0.3527  0.0722
 4257TIP3    H134406   1.119   5.760   0.461  2.3030  1.7168 -0.0901
 4257TIP3    H234407   1.143   5.846   0.583 -1.6630 -0.5623  2.5156
 4258TIP3   OH234408   1.204   3.439   7.665 -0.6783  0.6202  0.5155
 4258TIP3    H134409   1.260   3.368   7.695 -1.3489  0.1509  0.6853
 4258TIP3    H234410   1.158   3.403   7.590 -1.1454  0.8142  0.7031
 4259TIP3   OH234411   1.021   3.544   0.645 -0.7965 -0.0880  0.0630
 4259TIP3    H134412   1.065   3.553   0.729  0.4203 -0.5731 -0.4981
 4259TIP3    H234413   1.053   3.617   0.593 -0.7817 -0.3511 -0.3048
 4260TIP3   OH234414   0.949   5.885   8.464 -0.0839  0.2296  0.1078
 4260TIP3    H134415   1.000   5.961   8.435  2.1695 -1.7110 -1.3854
 4260TIP3    H234416   0.917   5.846   8.382  0.5408 -1.5442  0.6737
 4261TIP3   OH234417   2.917   5.604   0.251 -0.4707  0.0385 -0.1785
 4261TIP3    H134418   2.955   5.586   0.165 -0.8438 -2.6280  0.1289
 4261TIP3    H234419   2.977   5.562   0.313 -0.8422  0.8963  0.7912
 4262TIP3   OH234420   2.146   3.180   0.832  0.5921  0.2003 -0.4921
 4262TIP3    H134421   2.156   3.275   0.845  0.6337  0.1794 -0.3675
 4262TIP3    H234422   2.065   3.171   0.781 -0.4171  0.2086  1.0333
 4263TIP3   OH234423   5.382   1.581   1.380  0.0076  0.6580 -0.4870
 4263TIP3    H134424   5.443   1.524   1.427  0.9971  1.2254 -1.0626
 4263TIP3    H234425   5.319   1.521   1.339  1.5949 -0.1017 -1.8904
 4264TIP3   OH234426   3.775   1.717   0.350 -0.2432  0.3849 -0.9500
 4264TIP3    H134427   3.768   1.808   0.381 -1.0002 -0.1699  0.5699
 4264TIP3    H234428   3.852   1.718   0.293 -0.3853  2.0315 -1.1754
 4265TIP3   OH234429   3.203   6.345   0.381  0.4171  0.1084  0.4476
 4265TIP3    H134430   3.161   6.430   0.372 -0.8296 -0.4051  1.2540
 4265TIP3    H234431   3.169   6.309   0.463 -0.3248 -1.8193 -0.6294
 4266TIP3   OH234432   6.099   4.776   6.979  0.0552 -0.4306 -0.3326
 4266TIP3    H134433   6.068   4.850   7.031  1.0626 -1.0176  1.1617
 4266TIP3    H234434   6.193   4.774   6.993 -0.0370 -2.4914  0.3615
 4267TIP3   OH234435   0.659   0.132   8.669 -0.0612 -0.3463  0.5823
 4267TIP3    H134436   0.675   0.207   8.726 -0.2880 -0.5839  0.9664
 4267TIP3    H234437   0.744   0.089   8.659  0.3743  0.7716 -0.8248
 4268TIP3   OH234438   3.983   3.587   0.575 -0.2269 -0.3227  0.5324
 4268TIP3    H134439   4.038   3.626   0.507 -0.0258 -1.1675  0.2035
 4268TIP3    H234440   4.044   3.535   0.628 -0.4569 -0.0265  1.0977
 4269TIP3   OH234441   2.891   6.357   7.883 -0.1898  0.2187  0.2090
 4269TIP3    H134442   2.825   6.359   7.813  0.8378 -0.4795 -0.8171
 4269TIP3    H234443   2.921   6.447   7.891  1.6387 -0.0852 -2.2264
 4270TIP3   OH234444   0.224   1.817   0.873  0.4420  0.2626 -0.0701
 4270TIP3    H134445   0.146   1.822   0.928  0.3479 -0.7072 -0.0985
 4270TIP3    H234446   0.194   1.844   0.786  0.1750  0.0796 -0.0365
 4271TIP3   OH234447   5.030   4.795   0.547 -0.4519 -0.5307 -0.0550
 4271TIP3    H134448   5.073   4.865   0.596 -0.6710 -1.5507  1.6866
 4271TIP3    H234449   4.943   4.829   0.527 -2.0471 -1.5370  4.1855
 4272TIP3   OH234450   3.279   5.517   6.091 -0.2003  0.3165 -0.2247
 4272TIP3    H134451   3.243   5.538   6.005 -0.3353  1.5391  0.1197
 4272TIP3    H234452   3.203   5.499   6.145 -0.0733 -2.0271 -0.7103
 4273TIP3   OH234453   5.085   2.931   0.867  0.5518 -0.0399 -0.0635
 4273TIP3    H134454   5.113   2.948   0.957 -1.2276  1.0454  0.3408
 4273TIP3    H234455   5.153   2.970   0.812  3.1057 -3.0687  0.6645
 4274TIP3   OH234456   6.297   3.399   6.703 -0.0090 -0.0336 -0.2432
 4274TIP3    H134457   6.297   3.399   6.607  1.5763  1.2137 -0.2916
 4274TIP3    H234458   6.225   3.458   6.727 -1.2221 -1.3124 -0.6007
 4275TIP3   OH234459   5.009   0.365   1.721 -0.1630  0.1384  0.0657
 4275TIP3    H134460   4.931   0.395   1.768 -0.7955 -0.3886 -0.6109
 4275TIP3    H234461   4.979   0.353   1.631  0.0694 -2.3330  0.2523
 4276TIP3   OH234462   5.867   3.185   7.372  0.2783  0.3340  0.2257
 4276TIP3    H134463   5.866   3.155   7.281  0.9278 -2.0964  0.9516
 4276TIP3    H234464   5.786   3.151   7.409  0.0591  1.2382  0.5972
 4277TIP3   OH234465   4.338   1.203   8.012 -0.0555 -0.1948 -0.2350
 4277TIP3    H134466   4.361   1.121   7.967 -0.4642  0.2074 -1.2012
 4277TIP3    H234467   4.388   1.270   7.966 -0.9087  0.2991 -0.4553
 4278TIP3   OH234468   6.726   4.431   1.450  0.2321  0.1126 -0.5338
 4278TIP3    H134469   6.788   4.429   1.377  0.4168  1.4054 -0.4350
 4278TIP3    H234470   6.728   4.522   1.481  0.7174 -0.5639  1.5644
 4279TIP3   OH234471   1.905   3.199   0.065  0.2438  0.1948  0.1189
 4279TIP3    H134472   1.901   3.236   0.154  0.1185  1.5733 -0.4270
 4279TIP3    H234473   1.986   3.148   0.064  0.2523  0.1638  1.0165
 4280TIP3   OH234474   0.375   0.383   0.729  0.1326 -0.1013  0.3953
 4280TIP3    H134475   0.375   0.334   0.647  1.4064  1.5486 -0.6694
 4280TIP3    H234476   0.389   0.474   0.703  1.5729  0.3677  2.4900
 4281TIP3   OH234477   1.808   4.856   8.299  1.0315  0.6024  0.3231
 4281TIP3    H134478   1.793   4.931   8.356 -1.8470 -0.1229  0.6616
 4281TIP3    H234479   1.805   4.781   8.358  1.0902  0.0400 -0.3792
 4282TIP3   OH234480   4.575   3.394   2.162  0.0422  0.5152  0.0456
 4282TIP3    H134481   4.608   3.321   2.111  2.4985  2.7455 -1.7748
 4282TIP3    H234482   4.483   3.402   2.137  0.4226 -0.3504 -1.7020
 4283TIP3   OH234483   1.984   4.800   6.027 -0.9309 -0.3575  0.5412
 4283TIP3    H134484   2.051   4.731   6.033 -0.1944  0.2185 -0.6151
 4283TIP3    H234485   1.931   4.775   5.952  0.2694  1.0572 -0.8567
 4284TIP3   OH234486   4.386   6.503   8.187  0.3892  0.2926 -0.0192
 4284TIP3    H134487   4.293   6.482   8.184  0.4326 -1.0602  3.2398
 4284TIP3    H234488   4.419   6.479   8.101 -1.6364 -2.9107 -0.0612
 4285TIP3   OH234489   1.417   6.248   0.922 -0.0022 -0.2588  0.1101
 4285TIP3    H134490   1.369   6.330   0.908  0.6662 -0.2643 -3.0231
 4285TIP3    H234491   1.352   6.180   0.905 -0.4328 -0.4353  2.2375
 4286TIP3   OH234492   6.350   4.664   7.792 -0.2028 -0.0560  0.5948
 4286TIP3    H134493   6.404   4.607   7.738  1.4487  2.0012 -0.0971
 4286TIP3    H234494   6.260   4.642   7.769  0.3972 -1.5296 -0.4938
 4287TIP3   OH234495   4.872   2.766   0.147 -0.5750 -0.1132  0.4453
 4287TIP3    H134496   4.821   2.688   0.125  1.0808 -1.3676  0.8897
 4287TIP3    H234497   4.881   2.813   0.064 -1.2960 -0.5436  0.1095
 4288TIP3   OH234498   0.107   4.684   6.598 -0.2707  0.2605  0.5324
 4288TIP3    H134499   0.168   4.624   6.556 -0.8481 -0.0999  0.2040
 4288TIP3    H234500   0.025   4.636   6.603 -0.5723  0.7972  0.8317
 4289TIP3   OH234501   3.198   3.822   7.843  0.7319 -0.2224  0.3951
 4289TIP3    H134502   3.219   3.914   7.831 -0.9911  0.0452 -1.1477
 4289TIP3    H234503   3.168   3.815   7.933 -1.9174  1.4324 -0.2312
 4290TIP3   OH234504   3.457   2.200   7.781 -0.0546 -0.0413 -0.0840
 4290TIP3    H134505   3.426   2.258   7.851  0.5923  0.3211 -0.0870
 4290TIP3    H234506   3.473   2.259   7.707 -0.0868 -0.3276 -0.3213
 4291TIP3   OH234507   3.899   4.867   0.014 -0.3327 -0.3875 -0.4421
 4291TIP3    H134508   3.951   4.844  -0.063 -1.9279  0.9856 -2.0152
 4291TIP3    H234509   3.954   4.928   0.062  0.0133  0.1336 -1.4617
 4292TIP3   OH234510   5.178   2.791   7.759  0.1016 -0.1149 -0.5544
 4292TIP3    H134511   5.129   2.719   7.719 -0.0440 -0.4056  0.1368
 4292TIP3    H234512   5.249   2.748   7.806  1.5345  0.3334 -2.1791
 4293TIP3   OH234513   5.958   1.658   7.988 -0.1220 -0.1527  0.1329
 4293TIP3    H134514   6.014   1.735   7.978  0.3132 -0.4877 -0.0702
 4293TIP3    H234515   5.898   1.662   7.913 -1.3507  0.9960  1.1501
 4294TIP3   OH234516   1.569   0.463   0.970  0.5846  0.0581  0.1194
 4294TIP3    H134517   1.523   0.409   1.034 -0.5702  0.3715 -0.4270
 4294TIP3    H234518   1.509   0.470   0.896  0.2135  2.9125  0.5703
 4295TIP3   OH234519   1.116   4.318   7.933 -0.0904  0.2707 -0.3957
 4295TIP3    H134520   1.030   4.356   7.911  0.2374  0.9181 -0.5835
 4295TIP3    H234521   1.179   4.383   7.903  0.4513  0.0964  0.3430
 4296TIP3   OH234522   4.787   4.654   7.150 -0.2298  0.1762  0.0442
 4296TIP3    H134523   4.851   4.675   7.081 -0.1937  0.8461  0.2692
 4296TIP3    H234524   4.707   4.700   7.123 -0.4949 -0.3261 -0.0270
 4297TIP3   OH234525   5.069   0.766   2.216  0.1185 -0.4182 -0.9514
 4297TIP3    H134526   5.050   0.672   2.224 -0.7745 -0.0558  2.4736
 4297TIP3    H234527   4.985   0.809   2.230  0.9156  0.9366 -0.1878
 4298TIP3   OH234528   2.435   1.174   8.363  0.0047 -0.5495 -0.6079
 4298TIP3    H134529   2.515   1.149   8.409 -0.6800 -0.0192  0.9258
 4298TIP3    H234530   2.454   1.260   8.326  0.2363 -0.5530 -0.4960
 4299TIP3   OH234531   4.295   0.375   0.307  0.5438  0.0065  0.2391
 4299TIP3    H134532   4.213   0.328   0.323 -0.5359  2.0605  1.1516
 4299TIP3    H234533   4.333   0.389   0.393  0.7799  0.8781  0.0066
 4300TIP3   OH234534   4.828   2.303   8.652 -0.5050  0.4975 -0.4086
 4300TIP3    H134535   4.772   2.287   8.576 -1.7001  0.2156  0.4981
 4300TIP3    H234536   4.855   2.216   8.680  0.4444  0.6361 -0.8646
 4301TIP3   OH234537   3.237   6.526   1.603 -0.8035  0.0607 -0.3290
 4301TIP3    H134538   3.185   6.537   1.683 -0.9280 -1.6215 -0.1478
 4301TIP3    H234539   3.184   6.566   1.534 -1.1221  0.6964  0.2652
 4302TIP3   OH234540   6.476   4.085   1.399  0.6255 -0.3196 -0.5698
 4302TIP3    H134541   6.474   4.150   1.469  0.9890 -0.0351 -0.8263
 4302TIP3    H234542   6.483   4.136   1.318 -0.5635 -0.6049 -0.8815
 4303TIP3   OH234543   2.833   3.052   8.120  0.2573 -0.6373  0.4872
 4303TIP3    H134544   2.773   3.037   8.192 -1.6615 -0.0915 -0.9037
 4303TIP3    H234545   2.811   2.984   8.056  1.1466 -0.4428 -0.0437
 4304TIP3   OH234546   6.511   4.563   2.128 -0.1369  0.0113 -0.0171
 4304TIP3    H134547   6.441   4.623   2.154 -0.1394 -0.8225  2.0341
 4304TIP3    H234548   6.470   4.476   2.129  0.4467 -0.2810 -0.6858
 4305TIP3   OH234549   1.548   5.901   1.127  0.4891  0.4304  0.2648
 4305TIP3    H134550   1.628   5.946   1.099  1.5058 -1.3895  0.0393
 4305TIP3    H234551   1.563   5.882   1.220  0.4385 -0.1467  0.1564
 4306TIP3   OH234552   1.144   3.414   1.514 -0.0464 -0.1702  0.1019
 4306TIP3    H134553   1.116   3.355   1.584 -0.1934 -1.9502 -1.3664
 4306TIP3    H234554   1.068   3.469   1.497 -0.9618 -1.5455 -0.4295
 4307TIP3   OH234555   3.745   0.241   8.412 -0.2186  0.2587  0.0645
 4307TIP3    H134556   3.810   0.182   8.374 -0.3941  1.1403 -1.7437
 4307TIP3    H234557   3.672   0.185   8.436 -0.5306 -0.2779 -1.9541
 4308TIP3   OH234558   0.032   2.398   8.163 -0.4102 -0.3118  0.4404
 4308TIP3    H134559  -0.036   2.420   8.227 -1.1185  0.6851 -0.6073
 4308TIP3    H234560   0.011   2.310   8.135 -0.6205 -0.4216  0.9192
 4309TIP3   OH234561   3.452   4.426   0.927 -0.5645 -0.3225  0.2043
 4309TIP3    H134562   3.518   4.413   0.995 -0.9332 -0.0708  0.6214
 4309TIP3    H234563   3.370   4.400   0.969 -1.0506  1.4925  0.4429
 4310TIP3   OH234564   3.457   3.699   1.346  0.4110 -0.2071  0.5127
 4310TIP3    H134565   3.414   3.615   1.328 -0.0599  0.0732  0.3299
 4310TIP3    H234566   3.514   3.713   1.270  0.6330 -0.4526  0.6327
 4311TIP3   OH234567   0.036   4.599   0.750 -0.2222 -0.0981 -0.1617
 4311TIP3    H134568   0.054   4.534   0.818  0.1013 -1.2016 -1.2734
 4311TIP3    H234569   0.121   4.636   0.729 -0.2620 -0.0548 -0.2469
 4312TIP3   OH234570   6.659   3.781   1.712  0.0584  0.4601  0.0146
 4312TIP3    H134571   6.567   3.792   1.736 -0.0950 -0.9776  0.1647
 4312TIP3    H234572   6.704   3.850   1.761 -0.9136  1.1397 -0.0062
 4313TIP3   OH234573   1.079   6.112   0.637 -0.0153 -0.3138 -0.0616
 4313TIP3    H134574   1.006   6.051   0.623 -1.0948  1.0518 -0.5246
 4313TIP3    H234575   1.100   6.102   0.730 -0.0553 -1.4921 -0.1589
 4314TIP3   OH234576   3.604   3.910   8.653  0.4172  0.3536 -0.3497
 4314TIP3    H134577   3.674   3.848   8.630 -0.3884 -0.5424 -0.4532
 4314TIP3    H234578   3.604   3.974   8.582  1.7429  0.9130  0.1196
 4315TIP3   OH234579   1.919   5.648   1.061 -0.5788 -0.3379 -0.4763
 4315TIP3    H134580   1.883   5.647   1.149  2.8011 -0.2405  1.0764
 4315TIP3    H234581   1.960   5.562   1.051 -0.1024 -0.0051 -1.5731
 4316TIP3   OH234582   4.300   4.407   6.416 -0.5719 -0.3657 -0.0814
 4316TIP3    H134583   4.359   4.372   6.483  0.0980  1.1202  0.1235
 4316TIP3    H234584   4.239   4.334   6.399  0.6628 -1.5757  0.4406
 4317TIP3   OH234585   2.256   1.024   1.628 -0.1046  0.0720  0.2687
 4317TIP3    H134586   2.341   1.056   1.599 -0.3660  1.8660  1.3639
 4317TIP3    H234587   2.273   0.934   1.657  0.4069 -1.5107 -4.0751
 4318TIP3   OH234588   4.728   3.198   6.756  0.2442 -0.1257  0.2437
 4318TIP3    H134589   4.683   3.113   6.753  1.9597 -1.0545 -1.3129
 4318TIP3    H234590   4.808   3.180   6.807  1.3855  0.0960 -1.3801
 4319TIP3   OH234591   4.215   0.171   2.315 -0.4298  0.1359 -0.4181
 4319TIP3    H134592   4.126   0.157   2.346 -0.9145  1.4445 -1.1499
 4319TIP3    H234593   4.223   0.115   2.238 -0.2616 -0.7592  0.2368
 4320TIP3   OH234594   6.653   6.001   7.904  0.1319 -0.2462  0.0746
 4320TIP3    H134595   6.635   6.094   7.895  0.3373 -0.3297 -1.3855
 4320TIP3    H234596   6.651   5.967   7.814  1.4604 -1.3845  0.4363
 4321TIP3   OH234597   5.262   1.264   6.430 -0.7235 -0.5630  0.2305
 4321TIP3    H134598   5.263   1.188   6.371  2.0232 -0.1358 -0.3960
 4321TIP3    H234599   5.239   1.338   6.373 -0.3911 -0.4837  0.2009
 4322TIP3   OH234600   4.599   2.367   7.233  0.1942  0.6616 -0.2271
 4322TIP3    H134601   4.612   2.313   7.155 -0.2418 -1.4263  1.0521
 4322TIP3    H234602   4.675   2.425   7.236  0.3823  0.5532 -2.0010
 4323TIP3   OH234603   3.100   5.492   0.422  0.2809 -0.1256  0.2311
 4323TIP3    H134604   3.168   5.506   0.487 -0.4711  1.4962  0.7350
 4323TIP3    H234605   3.067   5.404   0.440 -0.6110  0.6249  2.7960
 4324TIP3   OH234606   1.738   2.232   2.446 -0.4020 -0.2453 -0.2088
 4324TIP3    H134607   1.732   2.232   2.542 -0.1217  0.0084 -0.1921
 4324TIP3    H234608   1.665   2.287   2.417  1.6900  2.8846 -0.0019
 4325TIP3   OH234609   1.104   4.757   0.285 -0.0486  0.4159 -0.5109
 4325TIP3    H134610   1.025   4.808   0.266 -0.3018 -0.2318 -1.2855
 4325TIP3    H234611   1.129   4.719   0.200  0.2620 -0.5341 -0.0150
 4326TIP3   OH234612   3.059   6.707   7.542 -0.2372  0.2000 -0.1432
 4326TIP3    H134613   2.988   6.708   7.478 -0.7126 -1.7583  0.2926
 4326TIP3    H234614   3.017   6.729   7.625 -0.0995  0.2115 -0.0770
 4327TIP3   OH234615   1.670   4.190   7.385 -0.3213  0.4782 -0.8492
 4327TIP3    H134616   1.648   4.220   7.473  1.0233 -1.0991  0.0623
 4327TIP3    H234617   1.590   4.147   7.354  0.3521 -2.5932  1.2694
 4328TIP3   OH234618   2.459   4.093   1.600 -0.6297  0.3722  0.1585
 4328TIP3    H134619   2.491   4.130   1.682 -1.9662 -0.7355  1.2219
 4328TIP3    H234620   2.419   4.010   1.625 -1.0533 -0.0046 -1.6293
 4329TIP3   OH234621   2.607   2.052   7.590 -0.3676  0.4280  0.0689
 4329TIP3    H134622   2.527   2.003   7.574  0.1909 -0.7806  0.7962
 4329TIP3    H234623   2.652   2.002   7.659  0.6003  1.5433  0.2788
 4330TIP3   OH234624   3.566   4.780   0.891  0.0528  0.0398  0.1406
 4330TIP3    H134625   3.640   4.720   0.904  0.6250  0.7720  0.3439
 4330TIP3    H234626   3.489   4.723   0.886  0.6913 -0.7866 -0.6685
 4331TIP3   OH234627   4.918   1.608   7.728  0.7330 -0.0144  0.2488
 4331TIP3    H134628   5.002   1.652   7.720  0.5226  0.2081 -0.8662
 4331TIP3    H234629   4.856   1.679   7.746  0.5752  0.0023 -0.3454
 4332TIP3   OH234630   4.573   0.576   8.289  0.5868  0.1308  0.0473
 4332TIP3    H134631   4.636   0.578   8.361  1.3718  1.4413 -0.6287
 4332TIP3    H234632   4.543   0.486   8.286  2.7249 -0.6409  0.1564
 4333TIP3   OH234633   6.895   0.011   6.962  0.2444 -0.6402  0.0670
 4333TIP3    H134634   6.833  -0.006   7.033 -0.6892 -0.2690 -0.6367
 4333TIP3    H234635   6.955  -0.063   6.965  1.1743  0.1224  2.2033
 4334TIP3   OH234636   0.864   6.327   7.448 -0.3727  0.1568  0.0055
 4334TIP3    H134637   0.861   6.251   7.389 -2.6095 -0.3216  0.6318
 4334TIP3    H234638   0.860   6.289   7.536  0.4452  0.9594  0.4037
 4335TIP3   OH234639   4.290   6.357   1.845 -0.6079 -0.5050 -0.1601
 4335TIP3    H134640   4.207   6.322   1.878 -0.6820 -0.2830 -0.1110
 4335TIP3    H234641   4.330   6.400   1.921  1.4387 -3.9733  0.9853
 4336TIP3   OH234642   6.818   5.086   2.148 -0.6939  0.2492  0.0646
 4336TIP3    H134643   6.755   5.017   2.169  0.0724 -0.2196  0.9300
 4336TIP3    H234644   6.846   5.119   2.234  0.4478  0.2385 -0.2855
 4337TIP3   OH234645   2.866   6.747   7.371  0.6174  0.1264  0.0072
 4337TIP3    H134646   2.809   6.682   7.328  0.7088 -0.9298  1.4069
 4337TIP3    H234647   2.838   6.831   7.334 -1.1535 -0.4562 -0.1101
 4338TIP3   OH234648   4.904   4.722   0.216 -0.0077 -0.5057  0.3037
 4338TIP3    H134649   4.982   4.772   0.240  0.3563 -0.8857 -0.0809
 4338TIP3    H234650   4.836   4.789   0.205  0.6236 -0.0121 -0.8097
 4339TIP3   OH234651   0.010   5.714   7.107  0.2044 -0.3640  0.2217
 4339TIP3    H134652   0.093   5.667   7.115  0.0834 -0.9308 -1.4105
 4339TIP3    H234653   0.030   5.788   7.050  0.5790  2.1664  3.3625
 4340TIP3   OH234654   4.786   3.574   2.139 -0.5616  0.0208 -0.3400
 4340TIP3    H134655   4.731   3.642   2.099 -0.5589 -0.1723 -0.6752
 4340TIP3    H234656   4.724   3.504   2.163 -0.3844 -0.4769 -1.3097
 4341TIP3   OH234657   0.102   3.948   1.175 -0.0118  0.2887  0.2661
 4341TIP3    H134658   0.138   3.968   1.262 -0.2360  1.7124  0.0677
 4341TIP3    H234659   0.009   3.970   1.181 -0.3437 -1.0159  0.0736
 4342TIP3   OH234660   1.049   4.271   0.226  0.0343  0.0769  0.2600
 4342TIP3    H134661   1.070   4.322   0.303  0.1714 -0.9152  0.8956
 4342TIP3    H234662   1.124   4.213   0.214 -0.8489 -1.1651  0.5732
 4343TIP3   OH234663   3.232   2.048   6.301 -0.2833 -0.0993  0.1321
 4343TIP3    H134664   3.203   1.974   6.355 -0.2257  0.8796  1.5623
 4343TIP3    H234665   3.183   2.123   6.334  1.0225  0.8577 -0.0059
 4344TIP3   OH234666   1.746   6.822   1.318 -0.2188  0.6269  0.1026
 4344TIP3    H134667   1.765   6.749   1.377 -0.5357 -0.6150 -1.2503
 4344TIP3    H234668   1.679   6.873   1.362 -1.9813 -1.4335 -0.0258
 4345TIP3   OH234669   2.425   6.732   7.395 -0.3705  0.0981 -0.6251
 4345TIP3    H134670   2.428   6.827   7.397  0.1821  0.1059 -1.2796
 4345TIP3    H234671   2.405   6.711   7.303 -1.8699 -0.3945 -0.2108
 4346TIP3   OH234672   5.698   3.795   7.269 -0.5436 -0.4838 -0.4679
 4346TIP3    H134673   5.752   3.869   7.298 -2.1152  0.5259  0.0264
 4346TIP3    H234674   5.742   3.718   7.306  0.9417  0.2029 -0.7040
 4347TIP3   OH234675   0.679   6.184   2.118  0.0064  0.1895  0.2171
 4347TIP3    H134676   0.649   6.104   2.161 -0.0692  0.2075  0.1987
 4347TIP3    H234677   0.774   6.183   2.127  0.0632 -0.2474 -0.3899
 4348TIP3   OH234678   4.985   5.781   0.603  0.4085 -0.4682  0.6311
 4348TIP3    H134679   5.047   5.739   0.542  0.5063  0.6437 -0.0705
 4348TIP3    H234680   4.903   5.734   0.590  0.8227 -1.2554  0.7823
 4349TIP3   OH234681   2.370   3.140   8.508 -0.0160 -0.2677 -0.4422
 4349TIP3    H134682   2.391   3.073   8.573  0.7935  0.9380  0.5993
 4349TIP3    H234683   2.281   3.168   8.529 -0.0319 -0.4087 -0.3218
 4350TIP3   OH234684   5.057   5.716   6.866 -0.0139  0.4884 -0.2352
 4350TIP3    H134685   5.078   5.635   6.820 -1.9178 -0.1145 -0.1347
 4350TIP3    H234686   5.060   5.693   6.959 -1.0593  0.3621 -0.2171
 4351TIP3   OH234687   5.710   6.462   8.161  0.7293  0.0167  0.1533
 4351TIP3    H134688   5.789   6.515   8.172  1.5472 -0.4687 -2.7493
 4351TIP3    H234689   5.638   6.524   8.173  1.3883  0.3706  3.3591
 4352TIP3   OH234690   0.425   4.925   8.063 -1.0603  0.3290  0.5143
 4352TIP3    H134691   0.475   4.924   7.982  0.7908  0.2436  1.5979
 4352TIP3    H234692   0.368   4.849   8.057 -0.3876 -0.1246 -0.3833
 4353TIP3   OH234693   4.530   1.460   8.168 -0.5353  0.4317 -0.6894
 4353TIP3    H134694   4.515   1.551   8.141  1.2941  0.4947 -1.5807
 4353TIP3    H234695   4.553   1.414   8.088  0.1162 -0.4714 -0.0023
 4354TIP3   OH234696   5.283   2.322   6.828 -0.0788 -0.3854 -0.2084
 4354TIP3    H134697   5.202   2.316   6.778 -0.4468  0.8843  0.1857
 4354TIP3    H234698   5.327   2.400   6.792 -0.4767  0.7131  1.5658
 4355TIP3   OH234699   3.013   4.478   8.165 -0.4432  0.4853  0.4678
 4355TIP3    H134700   3.022   4.524   8.249 -0.9801  0.2452  0.6623
 4355TIP3    H234701   3.035   4.544   8.099  1.3651  0.3102  0.8316
 4356TIP3   OH234702   1.312   5.107   0.268 -0.2959  0.0205 -0.1324
 4356TIP3    H134703   1.357   5.034   0.226  1.0239  0.3484  0.6312
 4356TIP3    H234704   1.365   5.125   0.346 -1.6868  0.5395  0.7306
 4357TIP3   OH234705   0.723   0.317   0.954  0.1245  0.0549 -0.8818
 4357TIP3    H134706   0.640   0.333   1.000 -0.1389  0.6522 -1.5461
 4357TIP3    H234707   0.726   0.385   0.887 -0.8255 -2.3453 -3.5395
 4358TIP3   OH234708   5.917   5.393   1.042  0.4489 -0.5724 -0.1991
 4358TIP3    H134709   5.850   5.327   1.029  0.6580 -1.1479  1.4112
 4358TIP3    H234710   5.883   5.448   1.112  0.7549  0.4021 -0.7928
 4359TIP3   OH234711   5.657   3.065   0.612 -0.3267  0.3060  0.0010
 4359TIP3    H134712   5.618   3.005   0.547  0.1907 -0.6118  0.5169
 4359TIP3    H234713   5.687   3.008   0.682  3.2156  0.7557 -0.9418
 4360TIP3   OH234714   5.221   1.427   1.241  0.0130  0.3796  0.1623
 4360TIP3    H134715   5.266   1.357   1.193  0.9013  0.8604  0.2643
 4360TIP3    H234716   5.144   1.447   1.188  0.2828  0.0025 -0.3804
 4361TIP3   OH234717   1.029   3.901   1.821  0.0163  0.0118  0.2907
 4361TIP3    H134718   1.009   3.811   1.797  0.0534  0.0096  0.2682
 4361TIP3    H234719   0.944   3.938   1.846 -0.0521  0.0702 -0.0252
 4362TIP3   OH234720   5.401   2.318   1.120  0.1857 -0.4128 -0.3126
 4362TIP3    H134721   5.393   2.295   1.213  0.3775  2.0716  0.3878
 4362TIP3    H234722   5.481   2.274   1.092  0.6066 -0.4864  0.9358
 4363TIP3   OH234723   0.394   3.422   0.770  0.6614 -0.5563 -0.0125
 4363TIP3    H134724   0.463   3.363   0.739  0.8872 -0.7238  0.7922
 4363TIP3    H234725   0.322   3.363   0.794  1.0101 -0.5444  1.1127
 4364TIP3   OH234726   1.249   2.315   2.551 -0.3068  0.1389  0.4742
 4364TIP3    H134727   1.232   2.227   2.517  0.6088  0.4905 -0.9837
 4364TIP3    H234728   1.163   2.356   2.553 -0.5616 -0.3325 -0.2021
 4365TIP3   OH234729   6.334   5.858   8.433 -0.0214  0.2373 -0.2779
 4365TIP3    H134730   6.421   5.894   8.451 -0.0086  0.6387 -1.1032
 4365TIP3    H234731   6.296   5.918   8.369 -0.3107 -0.7743 -1.0815
 4366TIP3   OH234732   3.329   0.659   1.149  0.5604  0.1101 -0.2849
 4366TIP3    H134733   3.284   0.689   1.227  1.5976 -0.6047  0.6176
 4366TIP3    H234734   3.275   0.690   1.076 -0.8300  0.1245  0.7224
 4367TIP3   OH234735   1.829   6.879   6.199 -0.2439 -0.0891  0.3019
 4367TIP3    H134736   1.806   6.848   6.286 -0.2145 -0.7626  0.0722
 4367TIP3    H234737   1.759   6.848   6.143 -1.1791  1.8056  0.3370
 4368TIP3   OH234738   6.276   2.854   7.666 -0.1481 -0.5102 -0.0134
 4368TIP3    H134739   6.275   2.875   7.760  0.3603 -1.5132  0.2317
 4368TIP3    H234740   6.364   2.876   7.637 -0.9634  2.0745 -0.8460
 4369TIP3   OH234741   5.057   5.762   8.092  0.0252  0.0470  0.2178
 4369TIP3    H134742   5.097   5.761   8.179 -1.9565  0.6973  1.1930
 4369TIP3    H234743   5.021   5.674   8.081  1.8367 -0.6376 -0.7878
 4370TIP3   OH234744   0.050   3.518   8.056  0.3114  0.4828 -0.9140
 4370TIP3    H134745   0.124   3.465   8.027  0.4302 -0.9020  1.7040
 4370TIP3    H234746   0.090   3.587   8.109 -0.1937  0.4996 -0.5581
 4371TIP3   OH234747   2.843   5.750   8.620  0.5390  0.4200  0.1941
 4371TIP3    H134748   2.867   5.833   8.660  0.3290  0.6606 -0.1753
 4371TIP3    H234749   2.779   5.712   8.680  1.8554 -0.2647  1.2260
 4372TIP3   OH234750   1.589   5.476   0.236  0.2466  0.0442  1.0614
 4372TIP3    H134751   1.650   5.549   0.247 -0.8871  0.8952  1.8677
 4372TIP3    H234752   1.525   5.506   0.172  1.0141 -1.0997 -0.2976
 4373TIP3   OH234753   4.787   5.961   0.498  0.2297  0.4387  0.0476
 4373TIP3    H134754   4.855   5.902   0.529  0.1664  0.9182  1.1407
 4373TIP3    H234755   4.834   6.039   0.469  0.2680  0.0893 -0.8899
 4374TIP3   OH234756   4.094   5.685   0.258  0.0031 -0.9399 -0.0598
 4374TIP3    H134757   4.126   5.601   0.291  0.3571 -0.7775  0.0113
 4374TIP3    H234758   3.999   5.681   0.272 -0.1796 -1.9109 -1.3475
 4375TIP3   OH234759   4.381   1.293   7.496  0.0068 -0.0598  0.3258
 4375TIP3    H134760   4.397   1.387   7.506 -2.2305  0.2533  1.7647
 4375TIP3    H234761   4.389   1.277   7.402  3.0233  0.9690  0.2762
 4376TIP3   OH234762   2.329   4.594   0.147  0.1757 -0.1418  0.1197
 4376TIP3    H134763   2.375   4.513   0.125 -1.2585 -0.9031 -0.1434
 4376TIP3    H234764   2.309   4.634   0.062 -1.5648 -0.9283  0.1242
 4377TIP3   OH234765   5.278   1.256   0.151  0.1186 -0.6595 -0.5176
 4377TIP3    H134766   5.240   1.325   0.206  0.2449 -1.3231  0.4396
 4377TIP3    H234767   5.308   1.301   0.073  2.9708  0.9511  1.3332
 4378TIP3   OH234768   1.744   6.219   7.191  0.4491 -0.0135 -0.4917
 4378TIP3    H134769   1.763   6.130   7.160  2.0845 -0.2951  1.1436
 4378TIP3    H234770   1.714   6.266   7.113 -0.8935 -2.0873 -1.3202
 4379TIP3   OH234771   3.710   4.049   0.860 -0.3424 -0.6877 -0.5769
 4379TIP3    H134772   3.625   4.045   0.903  0.3765 -3.4866  0.8383
 4379TIP3    H234773   3.696   4.006   0.775 -0.2088 -1.8622 -0.0191
 4380TIP3   OH234774   5.248   4.889   2.012 -0.2872 -0.4955  0.3193
 4380TIP3    H134775   5.334   4.851   1.995 -1.0525 -1.8562 -0.7693
 4380TIP3    H234776   5.200   4.821   2.060 -0.9043  0.0711  0.5340
 4381TIP3   OH234777   4.858   3.372   1.410  0.2350 -0.2325 -0.2945
 4381TIP3    H134778   4.785   3.385   1.470  0.5980 -0.3913  0.1877
 4381TIP3    H234779   4.928   3.337   1.464 -0.5912 -4.1115 -1.4578
 4382TIP3   OH234780   6.135   2.334   8.632  0.2605 -0.1448  0.2514
 4382TIP3    H134781   6.214   2.388   8.639  1.5009 -2.0351  1.5464
 4382TIP3    H234782   6.145   2.287   8.549  2.2158 -2.8000  1.8350
 4383TIP3   OH234783   2.658   6.804   1.894  0.2068 -0.4188 -0.3773
 4383TIP3    H134784   2.709   6.862   1.951  0.3560 -2.4111  1.6994
 4383TIP3    H234785   2.724   6.744   1.857 -0.1483 -0.4320 -0.9952
 4384TIP3   OH234786   4.107   1.899   1.825 -0.1059 -0.7032  0.2470
 4384TIP3    H134787   4.073   1.853   1.902 -2.0313 -1.1909 -0.8245
 4384TIP3    H234788   4.143   1.830   1.769  1.5570 -0.3227  0.7701
 4385TIP3   OH234789   3.039   5.515   7.857 -0.6404 -0.0831  0.3297
 4385TIP3    H134790   2.993   5.514   7.773  1.6678  1.3105 -1.0648
 4385TIP3    H234791   2.988   5.574   7.912 -0.3368  1.8310 -1.3225
 4386TIP3   OH234792   0.042   5.090   1.301 -0.0631  0.8507 -0.3446
 4386TIP3    H134793   0.059   5.134   1.218  2.2049  0.6833 -0.0365
 4386TIP3    H234794   0.118   5.112   1.355 -0.4134 -0.8598  0.9204
 4387TIP3   OH234795   2.788   5.006   7.006 -0.1335 -0.1689 -0.5993
 4387TIP3    H134796   2.705   5.036   7.043  0.5556  0.7004  0.3171
 4387TIP3    H234797   2.778   5.018   6.912 -1.4307 -1.1118 -0.6017
 4388TIP3   OH234798   3.201   1.879   0.343 -0.2969  0.3140 -0.4084
 4388TIP3    H134799   3.123   1.856   0.393 -1.1060 -1.2894 -2.2798
 4388TIP3    H234800   3.267   1.815   0.370 -1.0680 -1.2728 -2.0717
 4389TIP3   OH234801   6.480   0.928   7.748 -0.2715 -0.3380 -0.5110
 4389TIP3    H134802   6.442   1.013   7.723 -0.1778 -0.2835 -0.4688
 4389TIP3    H234803   6.565   0.926   7.704  1.8157  1.5728  2.9983
 4390TIP3   OH234804   3.124   6.178   0.169  0.4875  0.1675 -0.0467
 4390TIP3    H134805   3.160   6.239   0.232  0.5667  0.9358 -0.8178
 4390TIP3    H234806   3.187   6.106   0.166  1.7084  1.2401 -0.9850
 4391TIP3   OH234807   2.122   1.871   6.706  0.2484  0.4134 -0.1084
 4391TIP3    H134808   2.068   1.869   6.628 -1.5700  1.0540  1.0606
 4391TIP3    H234809   2.113   1.784   6.744  1.6174 -0.0928 -0.8873
 4392TIP3   OH234810   2.295   1.848   0.787 -0.2397  0.1052 -0.0788
 4392TIP3    H134811   2.276   1.787   0.716 -1.1967  0.2180  0.0650
 4392TIP3    H234812   2.217   1.845   0.843  0.5345 -0.0467  1.0149
 4393TIP3   OH234813   2.899   1.623   0.508  0.0156 -0.4415  0.2068
 4393TIP3    H134814   2.835   1.652   0.443 -0.6053 -2.4020 -0.1216
 4393TIP3    H234815   2.854   1.554   0.557  1.2206 -0.5081  1.2717
 4394TIP3   OH234816   3.640   1.072   1.924  0.3978  1.0372  0.5407
 4394TIP3    H134817   3.699   1.101   1.994 -1.1217  1.0938  1.8445
 4394TIP3    H234818   3.554   1.104   1.949  0.0534  2.7665 -2.3766
 4395TIP3   OH234819   4.254   5.334   7.035  0.2271  0.3713  0.0943
 4395TIP3    H134820   4.170   5.377   7.020  0.5136  1.0086  0.2670
 4395TIP3    H234821   4.266   5.278   6.958 -0.3251  0.3264  0.0400
 4396TIP3   OH234822   3.650   5.938   1.152 -0.0853  0.3398 -0.0858
 4396TIP3    H134823   3.556   5.957   1.147 -0.0290  0.5016 -0.6166
 4396TIP3    H234824   3.684   6.001   1.216 -0.0784  1.3706 -1.0647
 4397TIP3   OH234825   1.568   2.454   6.320  0.5998 -0.0256 -0.7104
 4397TIP3    H134826   1.591   2.392   6.251  0.8457 -1.5415  0.6700
 4397TIP3    H234827   1.600   2.413   6.400  0.6239  1.8401  0.2775
 4398TIP3   OH234828   3.589   3.768   7.139 -0.6961 -0.1471 -0.2372
 4398TIP3    H134829   3.556   3.716   7.213 -0.2937 -0.2246 -0.1071
 4398TIP3    H234830   3.611   3.853   7.178  0.4599 -0.5061 -0.0509
 4399TIP3   OH234831   6.608   6.538   0.781 -0.6801  0.3457 -0.4949
 4399TIP3    H134832   6.574   6.500   0.700  0.2984 -0.0733 -0.7202
 4399TIP3    H234833   6.578   6.480   0.850  1.3495 -1.3093 -0.8875
 4400TIP3   OH234834   6.355   1.496   1.741 -0.2856 -0.3855  0.0304
 4400TIP3    H134835   6.411   1.439   1.688 -0.3669 -0.5151  0.0841
 4400TIP3    H234836   6.410   1.572   1.761 -0.8664  0.6001 -1.8779
 4401TIP3   OH234837   6.511   4.542   0.818  0.0507 -0.3495 -0.2682
 4401TIP3    H134838   6.518   4.533   0.723 -1.2101 -3.0453 -0.1957
 4401TIP3    H234839   6.439   4.603   0.831  0.8208  0.7551 -1.0009
 4402TIP3   OH234840   6.507   4.262   1.184 -0.4341  0.6177 -0.4020
 4402TIP3    H134841   6.585   4.264   1.128  0.5471 -2.1610  0.6852
 4402TIP3    H234842   6.434   4.256   1.122  0.5491 -1.4364 -1.4915
 4403TIP3   OH234843   0.462   5.645   0.484 -0.3832  0.1020  0.3460
 4403TIP3    H134844   0.400   5.660   0.555 -0.6542  0.0058  0.1295
 4403TIP3    H234845   0.463   5.728   0.435 -1.2532 -0.2855 -0.3594
 4404TIP3   OH234846   1.500   1.457   1.314  0.6890  0.1723 -0.1063
 4404TIP3    H134847   1.473   1.403   1.388 -1.6995 -0.8336 -1.5997
 4404TIP3    H234848   1.517   1.394   1.244  1.8837  1.1633 -0.7490
 4405TIP3   OH234849   4.553   6.201   0.512  0.0278  0.1491 -0.1275
 4405TIP3    H134850   4.605   6.124   0.487 -1.3045 -1.4874  1.7699
 4405TIP3    H234851   4.481   6.202   0.450  1.4247  1.5197 -1.8142
 4406TIP3   OH234852   5.693   6.549   0.013  0.1269  0.0059  0.0383
 4406TIP3    H134853   5.742   6.573   0.092  0.4886 -0.1532 -0.1370
 4406TIP3    H234854   5.720   6.613  -0.052  0.7974 -0.6328 -0.3194
 4407TIP3   OH234855   2.250   4.787   7.609  0.2875  0.2487 -0.2283
 4407TIP3    H134856   2.247   4.753   7.698  1.1795 -0.7691 -0.5681
 4407TIP3    H234857   2.175   4.846   7.603 -0.1328 -0.1436  0.9991
 4408TIP3   OH234858   0.081   0.802   2.212  0.6628  0.5926 -0.1075
 4408TIP3    H134859   0.165   0.763   2.234  0.8120  0.5281 -0.7926
 4408TIP3    H234860   0.027   0.788   2.291  0.7306 -0.9408 -0.3070
 4409TIP3   OH234861   0.104   4.974   0.604  0.1331  0.5185  0.1511
 4409TIP3    H134862   0.024   4.982   0.551  1.9900  1.7306 -2.7264
 4409TIP3    H234863   0.126   4.881   0.598 -0.9975  0.1676  0.9765
 4410TIP3   OH234864   4.081   6.190   6.474  0.4690 -0.6937  0.2590
 4410TIP3    H134865   4.031   6.211   6.553  0.5685  0.3034  0.0672
 4410TIP3    H234866   4.083   6.094   6.472 -0.1846 -0.7371  1.0529
 4411TIP3   OH234867   0.614   0.975   6.650  0.6496  0.5211 -0.4416
 4411TIP3    H134868   0.663   1.049   6.613  1.8095 -0.5982 -1.2271
 4411TIP3    H234869   0.578   0.930   6.574 -0.2839  0.4107  0.0499
 4412TIP3   OH234870   6.184   2.761   0.323 -0.1831 -0.6428  0.5325
 4412TIP3    H134871   6.235   2.773   0.403  0.1096 -0.3904  0.3144
 4412TIP3    H234872   6.093   2.774   0.350  0.0264  1.2553  0.5160
 4413TIP3   OH234873   2.768   6.333   7.151  0.1765  0.4133  0.1693
 4413TIP3    H134874   2.732   6.252   7.116 -0.1706 -0.2376  1.9563
 4413TIP3    H234875   2.846   6.350   7.098  0.6717 -1.4854  0.2499
 4414TIP3   OH234876   5.807   6.552   0.266  0.0632 -0.2987  0.5852
 4414TIP3    H134877   5.850   6.467   0.273  1.2608  0.3063  0.9485
 4414TIP3    H234878   5.862   6.611   0.318 -0.7115  0.7099  0.3017
 4415TIP3   OH234879   1.758   3.057   2.583  0.4735 -0.3711 -0.0190
 4415TIP3    H134880   1.764   3.136   2.530  0.5088 -0.4147 -0.0798
 4415TIP3    H234881   1.685   3.073   2.642  0.7143 -0.1397  0.2216
 4416TIP3   OH234882   3.789   2.450   0.221  0.7791 -0.9416  0.1409
 4416TIP3    H134883   3.757   2.379   0.277 -0.0374 -2.4139 -2.0561
 4416TIP3    H234884   3.732   2.524   0.242  0.3653 -1.5044  1.1046
 4417TIP3   OH234885   1.317   4.199   7.409  0.2338  0.1196  0.1332
 4417TIP3    H134886   1.317   4.250   7.329  0.3857 -0.2861 -0.1327
 4417TIP3    H234887   1.229   4.163   7.415  0.7848 -1.5726 -0.9963
 4418TIP3   OH234888   6.720   4.104   7.399  0.1382  0.1466 -0.1206
 4418TIP3    H134889   6.790   4.103   7.464 -0.5548  1.0271  0.6820
 4418TIP3    H234890   6.725   4.192   7.360 -2.7254  1.7307  2.5529
 4419TIP3   OH234891   2.246   6.091   8.573 -0.2591  0.4262 -0.3073
 4419TIP3    H134892   2.300   6.160   8.535  1.6281 -0.0824  1.2719
 4419TIP3    H234893   2.156   6.118   8.555  0.4727  2.2247 -1.5096
 4420TIP3   OH234894   3.617   3.695   0.248 -0.6859  0.3329  0.5394
 4420TIP3    H134895   3.616   3.628   0.180  2.2048  0.6795  0.0220
 4420TIP3    H234896   3.621   3.645   0.330 -0.3086 -0.1318  0.2437
 4421TIP3   OH234897   1.071   6.805   0.340  0.0635 -0.0270  0.5723
 4421TIP3    H134898   1.140   6.872   0.336 -0.3068  0.3711  0.7412
 4421TIP3    H234899   0.997   6.850   0.380 -0.4479 -0.3250 -0.0348
 4422TIP3   OH234900   4.831   6.845   1.185 -0.1635  0.3201 -0.5476
 4422TIP3    H134901   4.922   6.866   1.166  0.1905  0.2263  0.9201
 4422TIP3    H234902   4.831   6.750   1.201 -0.2953  0.4868  0.5202
 4423TIP3   OH234903   0.253   3.773   1.340 -0.5082  0.1108  0.0324
 4423TIP3    H134904   0.345   3.747   1.345 -0.1293  1.2843 -0.3976
 4423TIP3    H234905   0.233   3.774   1.246 -0.1025  2.5144 -0.1102
 4424TIP3   OH234906   4.398   0.146   1.952  0.6895  0.1677 -0.5394
 4424TIP3    H134907   4.362   0.233   1.968 -0.0043  0.1602 -1.8463
 4424TIP3    H234908   4.341   0.087   2.001  0.2578  0.3416 -0.8258
 4425TIP3   OH234909   6.688   6.057   2.040  0.2545 -0.2387 -0.0227
 4425TIP3    H134910   6.783   6.066   2.028  0.3473 -0.5489  0.4708
 4425TIP3    H234911   6.651   6.086   1.957  0.8249 -1.0816 -0.5810
 4426TIP3   OH234912   1.629   5.581   1.174  0.1766 -0.2116 -0.1198
 4426TIP3    H134913   1.600   5.658   1.224  1.3730  0.0798  0.1744
 4426TIP3    H234914   1.696   5.541   1.230  0.5929 -0.6389 -0.9148
 4427TIP3   OH234915   3.994   5.628   0.548 -0.2705 -0.1354 -0.5681
 4427TIP3    H134916   3.961   5.552   0.502 -1.9059 -0.2522  0.7102
 4427TIP3    H234917   4.083   5.604   0.575 -1.1185 -2.0502  0.7300
 4428TIP3   OH234918   0.329   6.028   7.514  0.1886  0.4200 -0.4713
 4428TIP3    H134919   0.418   6.011   7.486  0.3607  0.1221  0.2290
 4428TIP3    H234920   0.289   5.942   7.524  0.0821  0.5196  0.0130
 4429TIP3   OH234921   5.516   0.946   0.518  0.0230 -0.4287 -0.0733
 4429TIP3    H134922   5.486   1.015   0.460 -0.5672 -1.2914 -0.8123
 4429TIP3    H234923   5.587   0.902   0.470 -0.3521 -1.0399 -0.0809
 4430TIP3   OH234924   0.476   1.457   8.271  0.4028 -0.5678  0.1436
 4430TIP3    H134925   0.496   1.523   8.205  0.1892  1.7978  2.2921
 4430TIP3    H234926   0.395   1.416   8.240 -0.5784  1.5928 -0.3016
 4431TIP3   OH234927   2.086   2.584   2.270  0.4994 -0.0577  0.4294
 4431TIP3    H134928   2.105   2.498   2.232  0.3604 -0.5359  1.4274
 4431TIP3    H234929   2.113   2.646   2.202  3.6067 -0.7517  0.8559
 4432TIP3   OH234930   2.665   1.385   0.936  0.2204  1.1634 -0.1278
 4432TIP3    H134931   2.727   1.452   0.965 -0.4343  2.2306 -1.0967
 4432TIP3    H234932   2.582   1.432   0.926 -0.8967 -0.3182  1.5858
 4433TIP3   OH234933   1.743   1.208   1.958 -0.2528 -0.7592  0.6664
 4433TIP3    H134934   1.763   1.206   1.864 -2.0122  1.4511  0.1379
 4433TIP3    H234935   1.820   1.249   1.998 -0.2309  0.0018 -0.1084
 4434TIP3   OH234936   1.453   3.052   0.418 -0.2515 -0.2148  0.0559
 4434TIP3    H134937   1.416   3.110   0.351 -1.1131  0.3564  0.9952
 4434TIP3    H234938   1.546   3.043   0.394 -0.0703  1.6454 -0.0609
 4435TIP3   OH234939   2.066   1.792   7.206  0.3715 -0.1858 -0.3590
 4435TIP3    H134940   2.101   1.741   7.280 -1.3958 -1.4214 -0.2939
 4435TIP3    H234941   2.033   1.726   7.145 -0.7953  0.8430 -0.9000
 4436TIP3   OH234942   0.355   1.415   1.581 -0.0991 -0.0848 -0.1163
 4436TIP3    H134943   0.360   1.354   1.655 -0.5152  0.0582  0.0380
 4436TIP3    H234944   0.315   1.494   1.619 -2.2173 -0.7045 -0.9095
 4437TIP3   OH234945   1.336   3.906   6.780  0.2384  0.3416 -0.3980
 4437TIP3    H134946   1.426   3.909   6.813  0.2705  0.8919 -0.5280
 4437TIP3    H234947   1.288   3.856   6.846  0.5898  0.2553 -0.2044
 4438TIP3   OH234948   3.134   4.788   0.017 -0.1953 -0.1170 -0.3676
 4438TIP3    H134949   3.151   4.814  -0.074  0.9057 -1.0718 -0.4617
 4438TIP3    H234950   3.214   4.743   0.044 -1.1946 -1.4557  0.4889
 4439TIP3   OH234951   0.589   6.800   8.228 -0.1236 -0.1497  0.5001
 4439TIP3    H134952   0.501   6.832   8.244 -0.7010 -1.4094 -0.0607
 4439TIP3    H234953   0.630   6.799   8.314 -1.1900 -1.0652  1.0208
 4440TIP3   OH234954   6.552   2.255   0.278  0.4350 -0.2396 -0.0365
 4440TIP3    H134955   6.543   2.164   0.250 -1.3190 -0.0946 -0.0977
 4440TIP3    H234956   6.489   2.265   0.349  2.1923  0.3804  1.5029
 4441TIP3   OH234957   3.480   2.055   8.487 -0.4148  0.1733  0.2865
 4441TIP3    H134958   3.536   1.990   8.445 -0.6997 -0.8487  1.4379
 4441TIP3    H234959   3.519   2.139   8.464  0.7474 -0.4613 -0.1107
 4442TIP3   OH234960   6.264   5.467   7.549  0.0384 -0.8846  0.1608
 4442TIP3    H134961   6.326   5.453   7.476  1.4024  0.4083  1.0249
 4442TIP3    H234962   6.301   5.417   7.621  0.8664  0.9604  1.0786
 4443TIP3   OH234963   0.120   4.148   7.344 -0.4906 -0.2241  0.0275
 4443TIP3    H134964   0.118   4.056   7.371 -0.9684  0.2042  1.5678
 4443TIP3    H234965   0.203   4.157   7.297  0.8109 -0.9127  2.0352
 4444TIP3   OH234966   3.736   5.304   1.098 -0.3833 -0.4510  0.2582
 4444TIP3    H134967   3.721   5.258   1.180  2.4332 -2.3434 -0.1878
 4444TIP3    H234968   3.814   5.357   1.113 -1.0811  0.9157 -0.6017
 4445TIP3   OH234969   4.503   2.311   8.212  0.1574 -0.3069  0.4192
 4445TIP3    H134970   4.470   2.276   8.129 -0.9292  2.5789 -0.4865
 4445TIP3    H234971   4.437   2.286   8.277  0.3314 -1.4130  0.2000
 4446TIP3   OH234972   5.578   6.823   6.587 -0.3717  0.5724  0.2418
 4446TIP3    H134973   5.651   6.763   6.592 -0.0112  1.1239  2.4521
 4446TIP3    H234974   5.549   6.818   6.496  2.5672  0.5513 -0.7983
 4447TIP3   OH234975   4.997   5.173   7.925  0.3832  0.0669 -0.3698
 4447TIP3    H134976   4.911   5.137   7.903  0.0043  0.8543 -0.2114
 4447TIP3    H234977   5.059   5.108   7.892 -0.2746 -0.6125 -0.2953
 4448TIP3   OH234978   1.841   1.154   7.038 -0.6840  0.0126 -0.1915
 4448TIP3    H134979   1.885   1.197   7.111 -1.3534 -1.8929  1.4274
 4448TIP3    H234980   1.883   1.068   7.031 -1.8996 -0.5740 -0.7796
 4449TIP3   OH234981   0.872   5.010   6.601 -0.1353  0.3238  0.8714
 4449TIP3    H134982   0.930   5.086   6.603 -0.4881  0.6073  2.9783
 4449TIP3    H234983   0.926   4.940   6.564  1.0700  0.9676  1.3298
 4450TIP3   OH234984   5.828   6.796   0.762 -0.6495 -0.7870  0.4953
 4450TIP3    H134985   5.771   6.864   0.798 -0.3408  0.1316 -0.6907
 4450TIP3    H234986   5.849   6.827   0.674  0.8671 -1.6122  0.5469
 4451TIP3   OH234987   1.683   0.805   7.772  0.0697  0.1866 -0.0891
 4451TIP3    H134988   1.701   0.728   7.718 -0.6768  0.3923 -0.6402
 4451TIP3    H234989   1.758   0.810   7.832  1.1585  0.2131 -1.4006
 4452TIP3   OH234990   3.848   4.119   8.585  0.2377  0.6910 -0.1250
 4452TIP3    H134991   3.811   4.043   8.541  2.0907  0.5906 -1.6582
 4452TIP3    H234992   3.879   4.085   8.669 -0.0192  0.0238 -0.2929
 4453TIP3   OH234993   6.627   4.394   7.898 -0.2665  0.2867  0.3287
 4453TIP3    H134994   6.617   4.316   7.954 -1.2796  1.7993  2.4008
 4453TIP3    H234995   6.629   4.467   7.960 -0.6891  2.0227 -1.6177
 4454TIP3   OH234996   4.429   5.114   0.989  0.2588  0.6318 -0.4134
 4454TIP3    H134997   4.348   5.136   1.035  0.8173  0.9530  0.4392
 4454TIP3    H234998   4.400   5.078   0.905 -0.8198 -0.9975  0.6089
 4455TIP3   OH234999   5.474   1.118   0.284 -0.6357  0.1689  0.6446
 4455TIP3    H135000   5.409   1.156   0.225 -0.9810 -2.5489 -0.8738
 4455TIP3    H235001   5.555   1.115   0.232  0.0733  1.1728  1.6455
 4456TIP3   OH235002   3.497   6.629   0.220 -0.3496  0.6928 -0.0645
 4456TIP3    H135003   3.557   6.615   0.294 -0.7270  0.8511  0.2764
 4456TIP3    H235004   3.464   6.542   0.199 -0.4019  0.6743  0.0905
 4457TIP3   OH235005   1.609   6.282   0.163  0.6079  0.2491  0.1823
 4457TIP3    H135006   1.631   6.305   0.253 -0.6642 -0.8967  0.8310
 4457TIP3    H235007   1.523   6.322   0.148  0.9080  0.6278 -0.6114
 4458TIP3   OH235008   2.561   4.885   6.145  0.4081  0.5389 -0.1571
 4458TIP3    H135009   2.505   4.846   6.078  1.9127 -1.0931 -0.5269
 4458TIP3    H235010   2.585   4.971   6.108  0.8651 -0.1521 -1.5439
 4459TIP3   OH235011   4.579   3.197   8.181  0.4555  0.5403  0.1235
 4459TIP3    H135012   4.619   3.122   8.136  0.1460  0.4505 -0.0046
 4459TIP3    H235013   4.500   3.161   8.222  0.0796  0.8793 -0.2859
 4460TIP3   OH235014   1.691   2.488   7.206  0.4134 -0.1356 -0.4374
 4460TIP3    H135015   1.662   2.414   7.152  0.0272  0.0341 -0.4702
 4460TIP3    H235016   1.715   2.555   7.143 -1.9021  0.7811 -0.4343
 4461TIP3   OH235017   1.470   2.057   8.016 -0.5753 -0.4098 -0.5852
 4461TIP3    H135018   1.488   2.069   7.923  1.3181  0.8286 -0.1065
 4461TIP3    H235019   1.497   1.966   8.034  1.8301  0.2030 -0.7190
 4462TIP3   OH235020   3.500   3.665   2.142  0.4212  0.2423 -0.9499
 4462TIP3    H135021   3.444   3.702   2.074  1.0043  1.1103 -0.9733
 4462TIP3    H235022   3.473   3.574   2.148 -0.2826  0.3891 -1.6828
 4463TIP3   OH235023   1.919   5.701   8.678  0.4521  0.3596 -0.2128
 4463TIP3    H135024   1.989   5.757   8.645 -0.3950  1.8792  0.4395
 4463TIP3    H235025   1.960   5.649   8.746  0.6455  2.5633  1.4888
 4464TIP3   OH235026   3.184   3.721   1.602  0.5730  0.3991 -0.4751
 4464TIP3    H135027   3.264   3.773   1.596  0.3600  0.9789  1.2503
 4464TIP3    H235028   3.214   3.631   1.616  0.9217  0.5360 -0.3506
 4465TIP3   OH235029   4.970   4.995   6.837  0.8595 -0.2138  0.0840
 4465TIP3    H135030   4.949   5.001   6.743 -0.0444 -2.4196  0.0952
 4465TIP3    H235031   5.065   5.002   6.840  0.8677  0.4661 -0.9204
 4466TIP3   OH235032   3.236   2.782   8.166 -0.7925 -0.2490 -0.0092
 4466TIP3    H135033   3.204   2.719   8.101 -2.1236 -0.3255  0.6840
 4466TIP3    H235034   3.192   2.757   8.247 -1.1209  1.3779  0.3535
 4467TIP3   OH235035   2.787   6.148   6.367 -0.2399 -0.3428  1.0297
 4467TIP3    H135036   2.738   6.223   6.333  1.1567  0.7758  1.3905
 4467TIP3    H235037   2.785   6.085   6.296 -2.0476 -0.2907  0.9743
 4468TIP3   OH235038   0.121   0.465   1.494  0.1693 -0.3904  0.0844
 4468TIP3    H135039   0.124   0.370   1.481  1.6336 -0.4183  0.5255
 4468TIP3    H235040   0.029   0.483   1.513 -0.9753 -1.2047 -3.7155
 4469TIP3   OH235041   6.128   3.904   1.175 -0.5204  0.4187 -0.4160
 4469TIP3    H135042   6.138   3.992   1.139 -2.3873  1.6448  1.8324
 4469TIP3    H235043   6.041   3.903   1.214  1.0532 -0.8055  3.6447
 4470TIP3   OH235044   4.948   1.477   8.571  0.4925  0.1906  0.4895
 4470TIP3    H135045   4.891   1.506   8.642  2.1871  1.8933  1.2523
 4470TIP3    H235046   4.982   1.393   8.602 -0.1897  0.0329  0.8378
 4471TIP3   OH235047   4.419   1.419   0.577  0.2279  0.1192  0.3416
 4471TIP3    H135048   4.371   1.337   0.590 -0.4518  0.5554  0.6612
 4471TIP3    H235049   4.383   1.479   0.643  0.5874  0.7272 -0.0034
 4472TIP3   OH235050   0.388   3.801   0.543 -0.1044  0.0287 -0.1186
 4472TIP3    H135051   0.353   3.756   0.467  0.8519  0.1154 -0.6297
 4472TIP3    H235052   0.394   3.893   0.515 -0.9063  0.2716  0.4924
 4473TIP3   OH235053   3.280   5.745   8.070 -0.7278 -0.0145  0.5506
 4473TIP3    H135054   3.342   5.818   8.068 -1.5008  0.6417 -0.1741
 4473TIP3    H235055   3.198   5.784   8.099 -1.0781 -0.6617  0.4492
 4474TIP3   OH235056   3.543   6.278   8.198  0.0845  0.1811  0.2209
 4474TIP3    H135057   3.635   6.266   8.225  0.6231  0.9114 -1.1901
 4474TIP3    H235058   3.548   6.293   8.104 -1.8035 -3.9438 -0.7693
 4475TIP3   OH235059   3.225   0.879   1.303  0.2414 -0.2716  0.2070
 4475TIP3    H135060   3.273   0.958   1.326  3.4702 -2.3307  1.3621
 4475TIP3    H235061   3.170   0.860   1.379 -0.6472  0.8596 -0.1322
 4476TIP3   OH235062   2.431   0.361   7.959  0.0646  0.2626 -0.3404
 4476TIP3    H135063   2.460   0.290   8.016  1.2358 -1.1826 -2.6372
 4476TIP3    H235064   2.336   0.366   7.974 -0.4353 -3.2235 -1.5728
 4477TIP3   OH235065   1.877   2.620   0.842  0.2450  0.0302 -0.1331
 4477TIP3    H135066   1.796   2.639   0.889 -1.1428 -1.0691 -1.9730
 4477TIP3    H235067   1.938   2.689   0.871 -2.0957  2.4600 -0.5753
 4478TIP3   OH235068   1.357   4.817   0.226  0.4024 -0.1243  0.4927
 4478TIP3    H135069   1.411   4.738   0.232 -0.1492 -0.4455  1.4591
 4478TIP3    H235070   1.278   4.796   0.276  0.1232  0.9469  0.5321
 4479TIP3   OH235071   3.585   6.849   7.579  0.0212  0.5862 -0.2463
 4479TIP3    H135072   3.647   6.787   7.541 -1.5181 -0.2322 -1.5293
 4479TIP3    H235073   3.565   6.813   7.666  0.9644  0.6283  0.0037
 4480TIP3   OH235074   5.660   3.713   0.832 -0.2911 -0.2162  0.4205
 4480TIP3    H135075   5.655   3.756   0.746  0.9836 -0.1811  0.3481
 4480TIP3    H235076   5.752   3.717   0.856 -0.5958 -0.3725  1.7310
 4481TIP3   OH235077   3.372   0.973   0.817 -0.3696  0.2877 -0.9250
 4481TIP3    H135078   3.454   0.984   0.771  0.2121  0.3439  0.0845
 4481TIP3    H235079   3.360   1.054   0.867  0.3473 -0.7212  1.0101
 4482TIP3   OH235080   1.165   1.837   7.753 -0.2595 -0.0631 -0.4193
 4482TIP3    H135081   1.172   1.746   7.725 -3.0227 -0.8674  1.1052
 4482TIP3    H235082   1.153   1.886   7.671 -0.4725 -1.2953 -1.1490
 4483TIP3   OH235083   4.436   3.417   8.308  0.7195 -0.2464 -1.1571
 4483TIP3    H135084   4.425   3.339   8.362  0.9613  0.8572  0.5841
 4483TIP3    H235085   4.399   3.488   8.362  0.9197  0.9078 -2.4863
 4484TIP3   OH235086   2.707   3.801   1.717 -0.2248 -0.4361 -0.1865
 4484TIP3    H135087   2.801   3.820   1.716 -0.3712  0.3090 -1.1986
 4484TIP3    H235088   2.673   3.855   1.789 -0.1889  0.9560 -1.1800
 4485TIP3   OH235089   3.121   1.265   2.592 -0.1455  0.1616  0.0806
 4485TIP3    H135090   3.216   1.258   2.581 -0.0708 -0.1205  0.8665
 4485TIP3    H235091   3.085   1.194   2.539  0.2213 -1.3572  1.7609
 4486TIP3   OH235092   2.165   6.224   6.856  0.0488  0.9883 -0.8728
 4486TIP3    H135093   2.126   6.233   6.942 -1.4297  0.4592 -1.4519
 4486TIP3    H235094   2.220   6.146   6.863 -1.9179 -0.5024 -0.9897
 4487TIP3   OH235095   3.097   2.141   2.013  0.0046  0.1734 -0.2861
 4487TIP3    H135096   3.062   2.188   1.938 -0.9654  0.1109  0.1091
 4487TIP3    H235097   3.069   2.193   2.089  0.4281 -0.0998  0.0629
 4488TIP3   OH235098   2.507   5.371   7.223 -0.4898  0.0288 -0.2459
 4488TIP3    H135099   2.598   5.341   7.229 -0.4787 -0.4551 -2.2332
 4488TIP3    H235100   2.456   5.291   7.215 -0.9484  0.3407 -0.4697
 4489TIP3   OH235101   6.626   5.671   7.701 -0.1246  0.6067  0.0293
 4489TIP3    H135102   6.640   5.755   7.656  2.4550 -0.1032 -0.6855
 4489TIP3    H235103   6.618   5.694   7.793 -0.4946  1.7277 -0.2706
 4490TIP3   OH235104   4.261   0.987   7.624 -0.3463  0.1291 -0.5607
 4490TIP3    H135105   4.216   1.008   7.706 -0.6246 -0.2458 -0.6111
 4490TIP3    H235106   4.349   1.023   7.634  0.2518 -1.5307  0.6960
 4491TIP3   OH235107   5.727   0.730   1.698 -0.2855  0.1779 -0.0786
 4491TIP3    H135108   5.720   0.825   1.691  0.9948  0.2886 -0.1083
 4491TIP3    H235109   5.690   0.709   1.783  1.3779  0.9701  0.8967
 4492TIP3   OH235110   3.972   0.225   7.589  0.5630 -0.1561  0.2685
 4492TIP3    H135111   3.934   0.291   7.646  1.9632  1.0498 -0.1294
 4492TIP3    H235112   3.992   0.152   7.646 -0.1708  0.1195  0.8924
 4493TIP3   OH235113   3.233   3.832   6.737  0.3418  0.0884 -0.3638
 4493TIP3    H135114   3.318   3.820   6.781 -0.3882 -1.4425  0.6879
 4493TIP3    H235115   3.248   3.800   6.648  0.5946 -1.3004  0.1474
 4494TIP3   OH235116   0.437   0.506   1.255  0.3329  0.5926 -0.1412
 4494TIP3    H135117   0.479   0.450   1.320 -0.0358  0.8786  0.3431
 4494TIP3    H235118   0.510   0.552   1.213  0.5679  0.4648  0.1214
 4495TIP3   OH235119   6.370   5.944   0.595  0.1857  0.1244  0.1232
 4495TIP3    H135120   6.367   5.915   0.503  1.0161 -0.4673  0.2757
 4495TIP3    H235121   6.356   5.864   0.646 -1.4682  0.6266  0.5232
 4496TIP3   OH235122   2.364   3.469   8.202  0.3418 -0.3114 -0.1569
 4496TIP3    H135123   2.318   3.460   8.119  2.4138 -2.1853 -1.2113
 4496TIP3    H235124   2.371   3.564   8.216 -0.8511  0.0190 -1.6278
 4497TIP3   OH235125   2.174   3.713   2.191 -0.0401  0.1032  0.2755
 4497TIP3    H135126   2.250   3.715   2.132 -0.2224 -0.4328  0.0129
 4497TIP3    H235127   2.156   3.805   2.210 -0.4095  0.3260 -1.0704
 4498TIP3   OH235128   6.232   6.551   5.995  0.4255 -0.0086  0.4955
 4498TIP3    H135129   6.308   6.501   5.965  0.8253 -0.4652  2.1918
 4498TIP3    H235130   6.162   6.486   6.002  0.1516  0.2190 -0.0299
 4499TIP3   OH235131   1.669   1.711   8.340 -0.5754 -0.2258 -0.0289
 4499TIP3    H135132   1.659   1.705   8.435 -2.4965  2.5925  0.0619
 4499TIP3    H235133   1.753   1.755   8.327 -1.3340  1.4826  0.5377
 4500TIP3   OH235134   5.025   0.299   8.019 -0.4587  0.0138 -0.1874
 4500TIP3    H135135   5.071   0.285   7.937  1.2743  0.2591  0.6864
 4500TIP3    H235136   4.964   0.225   8.025  1.2605 -1.5114 -0.4711
 4501TIP3   OH235137   3.440   3.105   1.666 -0.3231 -0.1303 -0.4044
 4501TIP3    H135138   3.397   3.142   1.588 -0.6878 -0.0132 -0.1522
 4501TIP3    H235139   3.449   3.179   1.726  0.6552 -0.0602 -0.6346
 4502TIP3   OH235140   5.049   0.466   1.071 -0.5379  0.6013  0.3786
 4502TIP3    H135141   5.046   0.380   1.031  0.8886  0.3765  0.6841
 4502TIP3    H235142   5.024   0.527   1.001 -1.9095 -0.0611  0.2647
 4503TIP3   OH235143   4.002   6.653   6.967 -0.6979  0.5528 -0.2491
 4503TIP3    H135144   3.993   6.635   6.873  2.6508  0.4614 -0.6690
 4503TIP3    H235145   3.959   6.580   7.010  0.4846 -1.1307 -1.8051
 4504TIP3   OH235146   5.222   0.301   7.537 -0.0298  0.5448  0.7261
 4504TIP3    H135147   5.132   0.333   7.533 -0.1893  0.1776  1.2121
 4504TIP3    H235148   5.236   0.258   7.453 -0.6955 -0.3803  1.0753
 4505TIP3   OH235149   6.256   3.332   1.634  0.2240 -0.1316  0.5377
 4505TIP3    H135150   6.308   3.349   1.712  0.2057  0.2109  0.4775
 4505TIP3    H235151   6.201   3.410   1.624 -0.7138 -0.7347  0.9218
 4506TIP3   OH235152   1.868   5.311   8.629 -0.1908  0.3003 -0.5028
 4506TIP3    H135153   1.849   5.283   8.719  0.6370  0.3058 -0.3186
 4506TIP3    H235154   1.948   5.363   8.636  0.6269 -0.7745 -1.4057
 4507TIP3   OH235155   1.357   3.130   0.171 -0.1082  0.0212  0.1802
 4507TIP3    H135156   1.279   3.085   0.137 -1.8819  2.1790  1.1561
 4507TIP3    H235157   1.420   3.127   0.099 -0.6924 -2.5372 -0.3455
 4508TIP3   OH235158   1.813   2.997   7.499  0.3226 -0.2659  0.2093
 4508TIP3    H135159   1.839   2.925   7.441 -1.1954 -0.9824  0.3764
 4508TIP3    H235160   1.798   2.955   7.583  0.9003  0.5146  0.7164
 4509TIP3   OH235161   6.387   1.630   2.269  0.8504  0.4296  0.2451
 4509TIP3    H135162   6.356   1.560   2.213  1.1904  0.6124 -0.1781
 4509TIP3    H235163   6.313   1.690   2.276 -0.2135 -0.9897  2.3647
 4510TIP3   OH235164   1.986   2.515   1.839 -0.0209  0.0256  0.2287
 4510TIP3    H135165   1.957   2.552   1.756  0.5396  1.9985  0.8392
 4510TIP3    H235166   1.923   2.549   1.903  0.5726  0.0044  0.8396
 4511TIP3   OH235167   2.030   6.686   6.179  0.4051 -0.4795 -0.3648
 4511TIP3    H135168   1.960   6.748   6.161  0.3628 -1.1613 -2.9733
 4511TIP3    H235169   1.987   6.612   6.221 -0.3453 -0.5527 -1.2308
 4512TIP3   OH235170   3.192   1.804   0.834  0.5069 -0.4128 -0.3782
 4512TIP3    H135171   3.152   1.848   0.759  2.2231 -0.2578 -1.2273
 4512TIP3    H235172   3.199   1.712   0.807 -0.3663 -0.6792  0.2516
 4513TIP3   OH235173   4.625   0.048   6.653  0.4362  0.0235 -0.2609
 4513TIP3    H135174   4.681   0.095   6.591  1.6263  0.1439  0.8756
 4513TIP3    H235175   4.570  -0.007   6.597  1.0928  0.5356 -1.4573
 4514TIP3   OH235176   0.099   0.973   1.722 -0.2334  0.3023 -0.0660
 4514TIP3    H135177   0.042   1.050   1.720 -0.1985  0.3601  0.7281
 4514TIP3    H235178   0.180   1.004   1.761  0.0683  0.0416 -0.4833
 4515TIP3   OH235179   2.154   0.623   1.181  0.1405 -0.1227  0.6720
 4515TIP3    H135180   2.143   0.542   1.230  1.3460 -1.3836 -1.0335
 4515TIP3    H235181   2.195   0.684   1.243 -0.1924 -0.9866  1.7786
 4516TIP3   OH235182   4.594   6.824   7.156 -0.5950  0.1590  0.3596
 4516TIP3    H135183   4.532   6.771   7.205 -0.5938  0.5167  0.7602
 4516TIP3    H235184   4.563   6.822   7.066 -0.6863 -0.3814  0.3999
 4517TIP3   OH235185   3.340   3.450   1.347  0.1923 -0.3644  0.0267
 4517TIP3    H135186   3.388   3.446   1.430  2.1385 -1.5916 -1.0789
 4517TIP3    H235187   3.248   3.437   1.371 -0.0561  3.9092  2.4644
 4518TIP3   OH235188   4.062   5.649   8.244 -0.2853  0.6577  0.5256
 4518TIP3    H135189   4.092   5.734   8.274  0.2183  1.7819 -2.7760
 4518TIP3    H235190   3.984   5.668   8.191 -0.6480 -1.0246  0.3999
 4519TIP3   OH235191   3.858   0.643   8.425  1.0577 -0.2549  0.0925
 4519TIP3    H135192   3.896   0.722   8.388  0.6708 -1.1979 -2.5263
 4519TIP3    H235193   3.934   0.594   8.459  1.7932 -0.4417 -1.7121
 4520TIP3   OH235194   2.006   1.311   1.940 -0.3337  0.3229 -0.5215
 4520TIP3    H135195   2.042   1.230   1.978  1.0936  1.2678  0.2441
 4520TIP3    H235196   2.065   1.331   1.867  0.4088  1.5578  0.3638
 4521TIP3   OH235197   4.540   3.116   7.557  0.3463 -0.7673 -0.3008
 4521TIP3    H135198   4.598   3.140   7.484  1.1066  0.7734  0.7796
 4521TIP3    H235199   4.454   3.147   7.530  0.9120  1.2997  0.1111
 4522TIP3   OH235200   2.771   4.372   0.233 -0.2151 -0.0482 -0.4665
 4522TIP3    H135201   2.741   4.324   0.157  0.9995  0.4309 -1.2932
 4522TIP3    H235202   2.723   4.335   0.307 -1.0065 -0.8963 -1.3908
 4523TIP3   OH235203   6.133   0.065   0.276 -0.9704  0.1509 -0.1344
 4523TIP3    H135204   6.153   0.102   0.361  0.1204 -0.9050  0.1027
 4523TIP3    H235205   6.169  -0.024   0.280 -0.9199  0.0751 -1.6742
 4524TIP3   OH235206   0.929   4.369   1.101  0.4457  0.2540  0.0616
 4524TIP3    H135207   0.934   4.296   1.040  0.2299 -0.2001  0.5861
 4524TIP3    H235208   0.862   4.426   1.064  1.3685  0.7487 -0.9330
 4525TIP3   OH235209   2.781   3.670   0.153  0.6320  0.0368 -0.6303
 4525TIP3    H135210   2.696   3.630   0.137  1.4501 -1.6992 -0.7715
 4525TIP3    H235211   2.760   3.756   0.189 -1.1780  0.0074 -1.5058
 4526TIP3   OH235212   3.652   5.041   7.410 -0.4771 -0.4337  0.0359
 4526TIP3    H135213   3.613   5.048   7.322  0.8399  1.6272 -0.4311
 4526TIP3    H235214   3.599   5.099   7.464  1.8937  2.6267 -0.6664
 4527TIP3   OH235215   3.211   5.315   7.612  0.2443  0.0371 -0.4171
 4527TIP3    H135216   3.226   5.407   7.630  0.9781 -0.4269  1.5245
 4527TIP3    H235217   3.250   5.300   7.526 -0.0643  1.5518 -0.8453
 4528TIP3   OH235218   5.959   5.099   8.063  0.5482 -0.3456  0.2548
 4528TIP3    H135219   5.949   5.141   8.149  1.8247 -0.5363  0.5137
 4528TIP3    H235220   5.962   5.172   8.001 -0.6847 -0.2175  0.3156
 4529TIP3   OH235221   5.779   5.049   7.314 -0.0052  0.7341 -0.4269
 4529TIP3    H135222   5.845   5.099   7.361  0.2574  3.3330 -3.2751
 4529TIP3    H235223   5.700   5.059   7.366  1.2084 -0.5093  1.8370
 4530TIP3   OH235224   1.654   3.463   1.612  0.6275 -0.2584  0.1229
 4530TIP3    H135225   1.595   3.407   1.561  2.0326 -0.1814 -1.7099
 4530TIP3    H235226   1.623   3.455   1.702 -1.1664 -1.4636 -0.5433
 4531TIP3   OH235227   3.911   5.783   1.173  0.1999 -0.0445  0.9124
 4531TIP3    H135228   3.827   5.819   1.146  0.6546 -0.5099 -1.3743
 4531TIP3    H235229   3.956   5.855   1.216 -1.0406  0.4400  1.4458
 4532TIP3   OH235230   2.733   6.262   1.000 -0.4015 -0.5881 -0.0569
 4532TIP3    H135231   2.726   6.199   1.071  0.9695  0.2744  0.8947
 4532TIP3    H235232   2.642   6.288   0.982 -1.0108 -2.8320 -0.5390
 4533TIP3   OH235233   3.802   0.573   0.341  0.4219  0.3750  0.2419
 4533TIP3    H135234   3.849   0.567   0.258  0.4882  0.6449  0.2581
 4533TIP3    H235235   3.871   0.579   0.407  0.4096 -1.6201  0.4812
 4534TIP3   OH235236   2.841   1.639   1.016 -0.3379 -0.0840  0.1152
 4534TIP3    H135237   2.914   1.594   1.058  0.8494  1.4858 -0.1714
 4534TIP3    H235238   2.881   1.687   0.943 -1.9088 -0.4592 -1.0340
 4535TIP3   OH235239   2.736   0.286   1.170 -0.3262  0.4196 -0.1658
 4535TIP3    H135240   2.809   0.289   1.108 -1.5001  1.4710 -1.5839
 4535TIP3    H235241   2.733   0.195   1.199 -0.3050 -0.3761 -2.4325
 4536TIP3   OH235242   1.881   5.293   8.333  0.4057  0.0084  0.6638
 4536TIP3    H135243   1.909   5.384   8.340  1.0533 -0.2958  3.4859
 4536TIP3    H235244   1.916   5.262   8.250 -2.0840  2.9780 -1.7102
 4537TIP3   OH235245   5.943   6.745   0.406  0.0853 -0.0650  0.1080
 4537TIP3    H135246   6.035   6.748   0.382  0.9930 -1.7976  2.9721
 4537TIP3    H235247   5.924   6.833   0.439  1.1444 -0.0901  0.8264
 4538TIP3   OH235248   4.747   1.552   6.546  0.0681  0.3704 -0.2345
 4538TIP3    H135249   4.796   1.533   6.466  1.6650  1.2376  0.4868
 4538TIP3    H235250   4.699   1.633   6.526 -1.9208 -0.9694 -1.2572
 4539TIP3   OH235251   2.969   2.480   6.809 -0.5146 -0.1992 -0.8150
 4539TIP3    H135252   2.939   2.572   6.811 -1.7174 -0.5718 -0.7393
 4539TIP3    H235253   2.888   2.429   6.805  0.1220 -1.2957 -0.0803
 4540TIP3   OH235254   3.377   5.942   1.139  0.2619 -0.3790 -0.2074
 4540TIP3    H135255   3.318   5.981   1.203 -0.1609  1.0016 -1.3862
 4540TIP3    H235256   3.336   5.859   1.115 -0.7751  0.1915 -0.4157
 4541TIP3   OH235257   2.256   0.623   7.463 -0.1114 -0.4511  0.3689
 4541TIP3    H135258   2.250   0.607   7.558 -2.0689  1.4612  0.6566
 4541TIP3    H235259   2.170   0.598   7.429  0.2049 -0.0975 -0.7337
 4542TIP3   OH235260   4.364   4.607   0.339 -0.0525 -0.1471 -0.4065
 4542TIP3    H135261   4.270   4.621   0.352  0.1511 -0.3758  1.7982
 4542TIP3    H235262   4.403   4.634   0.422  1.9205  0.5587 -1.5164
 4543TIP3   OH235263   4.782   5.262   7.567 -0.4209  0.1300 -0.5606
 4543TIP3    H135264   4.723   5.317   7.618  0.8510 -0.1079  1.2572
 4543TIP3    H235265   4.748   5.267   7.477 -1.9154  1.6798  0.0396
 4544TIP3   OH235266   0.234   5.749   7.522 -0.2816 -0.3494  0.0845
 4544TIP3    H135267   0.147   5.731   7.486 -0.2122 -0.2705 -0.1243
 4544TIP3    H235268   0.287   5.674   7.496 -0.6567 -1.1166  1.4825
 4545TIP3   OH235269   2.224   6.479   7.092  0.3318 -0.1977 -0.4705
 4545TIP3    H135270   2.132   6.499   7.108  0.7197  0.2200  1.5473
 4545TIP3    H235271   2.234   6.485   6.997 -2.1250 -2.1639 -0.9428
 4546TIP3   OH235272   3.451   0.219   1.588  0.4427  0.9343  0.0723
 4546TIP3    H135273   3.523   0.278   1.609 -0.2652  1.3638  1.4332
 4546TIP3    H235274   3.375   0.277   1.578 -0.0506  0.3593  0.4150
 4547TIP3   OH235275   3.034   4.329   1.260 -0.3215  0.0253  0.0700
 4547TIP3    H135276   3.087   4.283   1.326  0.1122 -0.2286 -0.4507
 4547TIP3    H235277   2.983   4.259   1.218 -0.4598  0.1635  0.0079
 4548TIP3   OH235278   4.327   6.852   0.587  0.8329  0.4733 -0.0777
 4548TIP3    H135279   4.342   6.926   0.529  1.4586  0.0896 -0.4210
 4548TIP3    H235280   4.397   6.857   0.651  1.2872 -0.1921 -0.5022
 4549TIP3   OH235281   3.971   6.603   7.703 -0.3996 -0.1115 -0.6201
 4549TIP3    H135282   4.008   6.549   7.772 -2.3798  0.3502  0.9066
 4549TIP3    H235283   4.033   6.596   7.631  1.0086 -1.8006  0.6666
 4550TIP3   OH235284   1.040   6.286   0.414 -0.1618  0.4056  0.3388
 4550TIP3    H135285   1.102   6.360   0.412  0.2501  0.1677 -3.5937
 4550TIP3    H235286   1.061   6.239   0.494  2.2359  2.4077  1.0028
 4551TIP3   OH235287   5.047   2.677   7.122 -0.4536  0.1918  0.2387
 4551TIP3    H135288   5.135   2.715   7.121 -0.1895 -0.4108 -0.0047
 4551TIP3    H235289   5.017   2.682   7.031 -1.2009  1.5630  0.5248
 4552TIP3   OH235290   4.937   3.542   1.215 -0.1911  0.1258  0.3409
 4552TIP3    H135291   4.964   3.516   1.128  2.7147  0.4916  1.0221
 4552TIP3    H235292   4.927   3.460   1.263 -1.0139 -0.0472 -0.1203
 4553TIP3   OH235293   3.772   3.712   0.711  0.5980  0.1707  0.3647
 4553TIP3    H135294   3.750   3.651   0.641  2.5593 -1.3134  0.9635
 4553TIP3    H235295   3.867   3.723   0.706  0.2252  5.1348 -1.2011
 4554TIP3   OH235296   4.105   4.250   8.609 -0.2763  0.1429 -0.5206
 4554TIP3    H135297   4.026   4.298   8.585 -1.1481 -0.7453  0.4141
 4554TIP3    H235298   4.082   4.158   8.594  0.7837 -0.0936 -0.7665
 4555TIP3   OH235299   2.622   3.262   7.342 -0.1534  0.2308 -0.6419
 4555TIP3    H135300   2.647   3.274   7.433 -2.0572  1.5322 -0.2261
 4555TIP3    H235301   2.568   3.183   7.342  1.6747 -1.0599 -1.0731
 4556TIP3   OH235302   0.075   3.953   8.012 -0.3517  0.1134 -0.3199
 4556TIP3    H135303   0.150   3.897   8.030  0.0473  0.4063 -1.0039
 4556TIP3    H235304   0.066   4.008   8.089 -0.4258 -0.5351  0.1368
 4557TIP3   OH235305   4.948   1.872   6.295 -0.1237 -0.4017 -1.1504
 4557TIP3    H135306   4.853   1.862   6.298 -0.0427 -1.0900 -0.7834
 4557TIP3    H235307   4.971   1.857   6.203 -0.3208 -0.6424 -1.1589
 4558TIP3   OH235308   4.680   3.932   0.857  0.7134  0.0151  0.0130
 4558TIP3    H135309   4.664   3.978   0.939 -2.3973 -0.5923 -0.1331
 4558TIP3    H235310   4.731   3.855   0.883  1.2242  0.6867  1.0853
 4559TIP3   OH235311   0.915   6.633   7.041 -0.1191 -0.3970 -0.0579
 4559TIP3    H135312   0.903   6.584   7.122 -0.0352 -2.1743 -1.0903
 4559TIP3    H235313   0.910   6.568   6.971  2.6885  0.5978 -1.3455
 4560TIP3   OH235314   4.584   4.906   1.448 -0.4445  0.1514 -0.0856
 4560TIP3    H135315   4.503   4.912   1.498  0.9415 -0.6488  2.4336
 4560TIP3    H235316   4.653   4.910   1.514  1.6154  1.4876 -2.2017
 4561TIP3   OH235317   5.713   1.452   8.003 -0.3661 -0.4552  0.0708
 4561TIP3    H135318   5.791   1.491   8.041 -1.1591  0.5670  0.7029
 4561TIP3    H235319   5.675   1.401   8.074 -0.4432 -0.6990 -0.1433
 4562TIP3   OH235320   2.208   3.309   7.233 -0.3315 -0.7433 -0.3994
 4562TIP3    H135321   2.158   3.376   7.186 -1.0123 -1.8137 -1.2461
 4562TIP3    H235322   2.177   3.315   7.323  1.2196  1.5550  0.0618
 4563TIP3   OH235323   5.173   2.921   1.129 -0.4562  0.2615 -0.2802
 4563TIP3    H135324   5.203   2.830   1.134  1.1832  0.8198  1.0770
 4563TIP3    H235325   5.094   2.923   1.182 -0.5764 -0.3911 -0.4245
 4564TIP3   OH235326   3.832   2.370   6.796  0.7735  0.3151 -0.5262
 4564TIP3    H135327   3.915   2.416   6.804  0.4299  0.9181 -0.3219
 4564TIP3    H235328   3.855   2.283   6.763  1.5024  0.3883 -0.2181
 4565TIP3   OH235329   5.725   0.763   7.968 -0.2356  0.3704  0.2396
 4565TIP3    H135330   5.645   0.711   7.965 -0.1569  0.1304  1.5327
 4565TIP3    H235331   5.697   0.851   7.945 -0.6818  0.0865 -0.3254
 4566TIP3   OH235332   0.790   6.414   1.641  0.3522  0.1253  0.6005
 4566TIP3    H135333   0.722   6.426   1.574 -0.6068 -1.7065  1.1869
 4566TIP3    H235334   0.755   6.346   1.699  2.4598 -0.4920  1.2361
 4567TIP3   OH235335   3.098   6.155   7.541  0.5261 -0.0547  0.2294
 4567TIP3    H135336   3.054   6.235   7.512 -0.4938  0.1572  2.1687
 4567TIP3    H235337   3.110   6.168   7.635 -0.4636 -2.5155  0.7641
 4568TIP3   OH235338   1.773   1.147   7.640  0.0109 -0.0278  0.0434
 4568TIP3    H135339   1.718   1.204   7.694 -1.2198 -2.7421  1.9026
 4568TIP3    H235340   1.711   1.087   7.598  1.0190  1.2260 -3.6876
 4569TIP3   OH235341   1.796   3.910   6.467 -0.6744  1.3433  0.2015
 4569TIP3    H135342   1.806   3.868   6.553  0.3353  1.6518  0.2487
 4569TIP3    H235343   1.719   3.869   6.429 -0.1113 -0.0759  0.5307
 4570TIP3   OH235344   1.834   0.125   1.079 -0.2553  0.1346  0.2115
 4570TIP3    H135345   1.800   0.056   1.135  0.4297  0.3543  0.9242
 4570TIP3    H235346   1.929   0.117   1.087 -0.1639  0.6756 -0.2930
 4571TIP3   OH235347   6.187   3.130   0.613  0.2457 -0.4616  0.6941
 4571TIP3    H135348   6.111   3.121   0.555  1.0022  0.0658 -0.4256
 4571TIP3    H235349   6.251   3.070   0.577  0.6484 -0.2969  1.1319
 4572TIP3   OH235350   4.030   2.840   1.622  0.1343  0.2090  0.2833
 4572TIP3    H135351   3.982   2.874   1.546  0.6021  1.8800  0.6955
 4572TIP3    H235352   3.999   2.750   1.631 -0.3634  0.1482 -1.5275
 4573TIP3   OH235353   5.234   2.427   8.607  0.0031  0.2341 -0.2195
 4573TIP3    H135354   5.161   2.386   8.652  0.2898 -1.7625 -1.4505
 4573TIP3    H235355   5.194   2.487   8.544 -0.4860  0.5374  0.3718
 4574TIP3   OH235356   0.386   4.431   0.229  0.1756  0.5020  0.0669
 4574TIP3    H135357   0.470   4.414   0.187  0.8249  0.9633  1.1553
 4574TIP3    H235358   0.376   4.360   0.292 -0.9961 -0.4285 -1.1195
 4575TIP3   OH235359   6.585   2.044   1.524  0.2419 -0.2418  0.2446
 4575TIP3    H135360   6.541   2.066   1.606  0.9640 -0.7185  0.7842
 4575TIP3    H235361   6.525   2.073   1.455 -0.1529  0.6387  0.9334
 4576TIP3   OH235362   4.484   5.782   1.085  0.3946 -0.3295  0.7867
 4576TIP3    H135363   4.438   5.717   1.139  1.2009 -0.6569  1.0954
 4576TIP3    H235364   4.444   5.866   1.110 -0.6689 -0.6961  0.3693
 4577TIP3   OH235365   6.296   3.910   0.726  0.0891  0.5920 -0.7103
 4577TIP3    H135366   6.247   3.913   0.644 -1.3837  1.4583  0.1585
 4577TIP3    H235367   6.388   3.902   0.699 -0.3862  0.5800 -2.4205
 4578TIP3   OH235368   0.454   4.257   1.849  0.2337 -0.2809 -0.1271
 4578TIP3    H135369   0.511   4.227   1.779 -1.5450 -0.9594 -1.3617
 4578TIP3    H235370   0.375   4.288   1.804 -0.5832  0.1798  1.5317
 4579TIP3   OH235371   6.526   1.396   7.871 -0.1684  0.1433 -0.3160
 4579TIP3    H135372   6.491   1.473   7.826 -1.4240  0.4472  1.0908
 4579TIP3    H235373   6.448   1.353   7.908  0.7228 -0.5827  0.7845
 4580TIP3   OH235374   2.673   2.040   1.900 -0.1336  0.2770  0.2343
 4580TIP3    H135375   2.672   2.046   1.995 -0.7885  1.1323  0.1874
 4580TIP3    H235376   2.654   2.129   1.870  0.6378  0.1460 -0.6991
 4581TIP3   OH235377   2.728   2.380   6.727 -0.2176 -0.0876 -0.0260
 4581TIP3    H135378   2.669   2.434   6.675  1.4377 -0.1168 -2.0923
 4581TIP3    H235379   2.718   2.292   6.690  3.3261  0.4366 -2.7652
 4582TIP3   OH235380   0.957   3.646   8.570 -0.5486 -0.1277  0.0092
 4582TIP3    H135381   0.948   3.627   8.664 -4.0195  0.5188 -0.0869
 4582TIP3    H235382   0.946   3.561   8.528 -0.8341 -0.1397  0.1095
 4583TIP3   OH235383   3.992   1.506   1.332 -0.6002  0.1758 -0.3358
 4583TIP3    H135384   3.936   1.429   1.346  0.8121 -0.9468 -0.5800
 4583TIP3    H235385   4.038   1.517   1.415 -0.8268  0.8050 -0.2896
 4584TIP3   OH235386   6.163   5.008   7.863 -0.0757  0.1224  0.4017
 4584TIP3    H135387   6.160   5.091   7.816  2.9936  0.1274 -0.0262
 4584TIP3    H235388   6.234   4.960   7.822 -0.1932 -1.7316  2.1853
 4585TIP3   OH235389   1.824   0.102   0.667 -0.9342  0.0756 -0.6058
 4585TIP3    H135390   1.783   0.149   0.740 -0.9338 -1.1048  0.1888
 4585TIP3    H235391   1.836   0.013   0.700  0.6513 -0.0497 -1.4519
 4586TIP3   OH235392   3.371   5.745   7.440  0.3003  0.4200  0.1681
 4586TIP3    H135393   3.334   5.834   7.438 -0.6040  0.1069 -3.4716
 4586TIP3    H235394   3.462   5.756   7.412  0.1239  0.1761 -0.5025
 4587TIP3   OH235395   6.530   5.560   1.663  0.0072 -0.3720 -0.1264
 4587TIP3    H135396   6.616   5.599   1.647  0.3037 -0.8184  0.3378
 4587TIP3    H235397   6.515   5.505   1.586 -0.5082  0.8038 -0.8802
 4588TIP3   OH235398   1.931   2.853   2.529  0.2090 -0.6799 -0.0678
 4588TIP3    H135399   1.884   2.936   2.526  0.1283 -0.6852  0.7675
 4588TIP3    H235400   1.993   2.857   2.456 -1.2096 -0.7560 -1.3150
 4589TIP3   OH235401   5.869   2.788   7.381  0.5682 -0.6108 -0.5700
 4589TIP3    H135402   5.944   2.807   7.438 -0.0064 -1.3721  0.4726
 4589TIP3    H235403   5.798   2.843   7.416 -0.0759 -1.8448  0.1504
 4590TIP3   OH235404   0.102   3.530   6.409 -0.0178 -0.0107 -0.8138
 4590TIP3    H135405   0.182   3.498   6.368  0.1001  0.2877 -0.8213
 4590TIP3    H235406   0.131   3.567   6.492 -0.4530 -1.9981  0.2759
 4591TIP3   OH235407   1.120   2.865   0.700  0.7854  0.4604 -0.0725
 4591TIP3    H135408   1.080   2.788   0.738  1.8402  0.9093  2.0922
 4591TIP3    H235409   1.159   2.834   0.618 -0.4231 -0.8431 -0.1837
 4592TIP3   OH235410   2.710   4.401   1.411  0.5384  0.1087  0.2154
 4592TIP3    H135411   2.637   4.380   1.470 -0.5937 -0.1736 -1.2534
 4592TIP3    H235412   2.758   4.319   1.404  0.0087 -0.1725 -0.1646
 4593TIP3   OH235413   0.772   1.866   7.035 -0.1696 -0.5729  0.3233
 4593TIP3    H135414   0.775   1.777   7.000  1.5229 -0.4735  0.1156
 4593TIP3    H235415   0.862   1.897   7.029 -1.0591  1.9870 -1.6726
 4594TIP3   OH235416   2.569   5.605   7.724  0.3633  0.3103  0.1813
 4594TIP3    H135417   2.568   5.675   7.658  3.6055 -0.2752 -0.6407
 4594TIP3    H235418   2.601   5.647   7.804 -0.7645  0.3826  0.6209
 4595TIP3   OH235419   5.161   6.668   0.942 -0.0737  0.0837 -0.4158
 4595TIP3    H135420   5.179   6.708   1.027 -0.3845  2.1278 -1.2676
 4595TIP3    H235421   5.239   6.687   0.890 -0.6805  0.5427 -1.1683
 4596TIP3   OH235422   0.528   2.055   0.167  0.1677  1.0584  0.0872
 4596TIP3    H135423   0.532   2.136   0.218 -2.9995  2.2391 -1.2637
 4596TIP3    H235424   0.513   2.084   0.077 -2.4778 -0.9568 -0.2481
 4597TIP3   OH235425   1.225   5.927   2.114 -0.1106  0.6152  0.2208
 4597TIP3    H135426   1.287   5.998   2.100  1.2090 -0.7867 -1.5922
 4597TIP3    H235427   1.139   5.965   2.094  0.6207  1.5849 -1.2779
 4598TIP3   OH235428   1.331   2.450   8.189  0.1312 -0.1700  0.2897
 4598TIP3    H135429   1.383   2.381   8.148 -0.6473 -1.3085  1.1356
 4598TIP3    H235430   1.253   2.405   8.221 -0.8732  1.2915  0.0086
 4599TIP3   OH235431   0.979   5.283   1.026  0.0888 -0.0564 -0.2728
 4599TIP3    H135432   0.885   5.296   1.017  0.2568  1.1966 -0.4132
 4599TIP3    H235433   0.989   5.234   1.108 -0.7118 -0.7264 -0.5642
 4600TIP3   OH235434   3.893   5.887   0.643  0.0711 -0.0694  0.3108
 4600TIP3    H135435   3.963   5.910   0.705  1.5244  1.7586 -1.8358
 4600TIP3    H235436   3.925   5.808   0.600  0.8298  0.6894 -0.5737
 4601TIP3   OH235437   5.724   5.675   0.589 -0.4023  0.4525 -0.3989
 4601TIP3    H135438   5.692   5.761   0.561 -0.0852  0.1983 -1.5938
 4601TIP3    H235439   5.663   5.648   0.658 -0.6942  1.4841 -0.2383
 4602TIP3   OH235440   4.628   3.969   2.020  0.2949  0.1731  0.3458
 4602TIP3    H135441   4.562   4.032   1.991  0.8543  0.9027  0.6506
 4602TIP3    H235442   4.707   4.021   2.034  0.5995 -0.5009  1.1849
 4603TIP3   OH235443   6.430   2.986   1.996  0.0097  0.0920 -0.1529
 4603TIP3    H135444   6.457   3.052   1.933 -0.0189  0.0696 -0.1885
 4603TIP3    H235445   6.417   3.034   2.078 -0.5230  0.2176 -0.3085
 4604TIP3   OH235446   4.012   4.030   0.074 -0.3465  0.2318  0.7675
 4604TIP3    H135447   4.095   4.077   0.069  0.3975 -1.1261  0.0279
 4604TIP3    H235448   3.991   4.028   0.168  2.3575 -2.5725  1.4631
 4605TIP3   OH235449   5.015   1.337   7.852 -0.2749  0.2924  0.0797
 4605TIP3    H135450   4.981   1.361   7.938  0.6978  1.7975  0.0730
 4605TIP3    H235451   5.092   1.283   7.871 -1.0171 -0.7893  0.1127
 4606TIP3   OH235452   6.364   3.467   0.025 -0.0135 -0.2293 -0.6415
 4606TIP3    H135453   6.408   3.383   0.035  0.9146  0.1516 -1.3623
 4606TIP3    H235454   6.418   3.516  -0.037  0.0811  1.3228  0.5733
 4607TIP3   OH235455   4.072   5.025   0.772  0.5384 -0.0891 -0.6455
 4607TIP3    H135456   4.129   5.096   0.741  1.8000 -1.1539 -0.8879
 4607TIP3    H235457   4.021   5.064   0.843  2.0762  0.7324  0.0530
 4608TIP3   OH235458   1.027   0.402   1.192 -0.5204  0.4953  0.0895
 4608TIP3    H135459   0.968   0.330   1.215 -0.9168  0.8408  0.1579
 4608TIP3    H235460   1.106   0.385   1.245 -0.4551 -0.1003 -0.1877
 4609TIP3   OH235461   3.222   4.027   7.656 -0.1750  0.7284  0.3944
 4609TIP3    H135462   3.286   4.050   7.589  0.5624  1.8618  1.4285
 4609TIP3    H235463   3.209   4.108   7.705  0.0228 -0.2591  2.1710
 4610TIP3   OH235464   1.481   5.745   1.743 -0.4018 -0.2716  0.6596
 4610TIP3    H135465   1.537   5.811   1.703 -1.9621 -0.2539 -1.7520
 4610TIP3    H235466   1.405   5.793   1.775 -1.0189 -0.7273 -0.0705
 4611TIP3   OH235467   1.522   0.742   1.868  0.0215  0.2827 -0.0118
 4611TIP3    H135468   1.561   0.676   1.924 -0.6272  0.8000  1.1002
 4611TIP3    H235469   1.592   0.805   1.852  0.3941 -0.2076 -0.3533
 4612TIP3   OH235470   4.262   1.736   1.069 -0.1125  0.0206  0.1532
 4612TIP3    H135471   4.278   1.659   1.014  0.6603  0.2876 -0.0185
 4612TIP3    H235472   4.226   1.801   1.009  0.4568  0.2143  0.0088
 4613TIP3   OH235473   6.490   3.963   7.781  0.0997 -0.1308  0.0778
 4613TIP3    H135474   6.537   3.938   7.860 -2.9359 -0.0166  2.1215
 4613TIP3    H235475   6.460   3.880   7.743  1.1114 -0.1571 -0.6999
 4614TIP3   OH235476   4.378   5.914   7.599  0.3855  0.0482 -0.4023
 4614TIP3    H135477   4.334   5.998   7.589 -1.5658 -0.6386  1.4685
 4614TIP3    H235478   4.320   5.851   7.556  0.9670 -0.5565 -0.3287
 4615TIP3   OH235479   5.640   3.810   6.604  0.0402 -0.6780  0.2309
 4615TIP3    H135480   5.675   3.887   6.650  1.0447 -0.8393 -0.2403
 4615TIP3    H235481   5.555   3.839   6.571 -0.0466 -0.0943  0.9309
 4616TIP3   OH235482   4.803   4.876   1.606  0.3922  0.4172  0.1388
 4616TIP3    H135483   4.878   4.935   1.614  0.8874 -0.2175  0.2978
 4616TIP3    H235484   4.833   4.794   1.645 -0.5043  0.2536  0.5035
 4617TIP3   OH235485   5.054   2.555   0.896  0.4712  0.1319 -0.6339
 4617TIP3    H135486   5.115   2.621   0.862  0.4958 -0.7844 -2.4912
 4617TIP3    H235487   5.107   2.502   0.956  0.4686  1.6817  0.8420
 4618TIP3   OH235488   2.426   1.507   0.796 -0.5163  0.1179  0.3316
 4618TIP3    H135489   2.493   1.549   0.742  1.2548 -2.1576  0.6177
 4618TIP3    H235490   2.358   1.574   0.805  1.0344  2.0412 -1.1687
 4619TIP3   OH235491   5.236   4.704   7.806  0.0609  0.3696  0.0058
 4619TIP3    H135492   5.268   4.632   7.861  0.5781  0.8312  0.3059
 4619TIP3    H235493   5.253   4.675   7.716 -0.6301 -0.3097  0.0787
 4620TIP3   OH235494   6.620   0.161   6.830  0.4601  1.2009  0.1440
 4620TIP3    H135495   6.715   0.160   6.838  0.4261 -0.2894  0.6444
 4620TIP3    H235496   6.589   0.142   6.919 -0.2108 -1.5518 -0.5856
 4621TIP3   OH235497   2.797   0.247   0.559 -0.3490 -0.6643 -0.3246
 4621TIP3    H135498   2.786   0.192   0.637 -1.0551  1.0777  0.8732
 4621TIP3    H235499   2.875   0.212   0.516 -1.0640 -2.8980  0.0834
 4622TIP3   OH235500   3.006   6.434   7.484 -0.1101  0.5858 -0.4246
 4622TIP3    H135501   3.045   6.513   7.522 -1.5694  1.1595 -0.0588
 4622TIP3    H235502   3.018   6.445   7.389  0.3602  0.8795 -0.3377
 4623TIP3   OH235503   0.844   0.103   2.081  0.2280  0.0405 -0.6794
 4623TIP3    H135504   0.878   0.192   2.091  0.0097  0.1677 -1.0385
 4623TIP3    H235505   0.839   0.069   2.171 -1.9604  1.2507 -0.2751
 4624TIP3   OH235506   0.166   1.118   1.392 -0.4076  0.3189  0.1920
 4624TIP3    H135507   0.113   1.194   1.412  0.3632  1.1143 -0.6894
 4624TIP3    H235508   0.253   1.153   1.372 -0.6685 -0.4967 -2.8509
 4625TIP3   OH235509   5.719   3.242   2.130 -0.2287 -0.1395  0.5033
 4625TIP3    H135510   5.640   3.222   2.180  0.5801 -2.5683  0.9327
 4625TIP3    H235511   5.791   3.213   2.187  0.8433 -0.3521 -0.9211
 4626TIP3   OH235512   6.066   6.033   8.398 -0.4180  0.1508  0.1044
 4626TIP3    H135513   6.057   5.938   8.403  1.8058 -0.1051 -0.0560
 4626TIP3    H235514   6.064   6.062   8.489  3.9907 -0.6930  0.6861
 4627TIP3   OH235515   6.713   3.935   8.272 -0.1574 -0.3801  0.5721
 4627TIP3    H135516   6.653   3.993   8.319 -0.5912 -1.7888  1.8257
 4627TIP3    H235517   6.790   3.929   8.327  0.5557  0.2380 -0.3253
 4628TIP3   OH235518   6.849   1.735   0.417  0.2409 -0.6637 -0.0777
 4628TIP3    H135519   6.797   1.708   0.342  1.5402 -1.4529 -0.7272
 4628TIP3    H235520   6.936   1.699   0.400  0.4468 -1.3198  2.0375
 4629TIP3   OH235521   2.420   3.914   7.881 -0.1654 -0.1739 -0.3782
 4629TIP3    H135522   2.392   3.993   7.836  1.2709 -0.5715 -2.0508
 4629TIP3    H235523   2.483   3.944   7.947 -0.6641  0.1935 -0.0625
 4630TIP3   OH235524   2.454   4.667   1.045  0.2602 -0.3177  0.8456
 4630TIP3    H135525   2.474   4.601   1.112 -0.5008  0.7098  2.1470
 4630TIP3    H235526   2.386   4.626   0.992  0.6145 -1.0152  0.9095
 4631TIP3   OH235527   6.504   4.319   1.563  0.4991 -0.0980 -0.2192
 4631TIP3    H135528   6.592   4.346   1.539  0.2735 -0.1004 -1.0603
 4631TIP3    H235529   6.448   4.394   1.541 -0.0662 -1.0301 -2.1431
 4632TIP3   OH235530   2.480   1.042   2.480  0.2866  0.0982 -0.3855
 4632TIP3    H135531   2.455   1.126   2.440  0.6546 -0.0641 -0.9774
 4632TIP3    H235532   2.506   1.065   2.569 -0.5707  0.4698 -0.2173
 4633TIP3   OH235533   2.242   1.871   1.554 -0.0121 -0.4705 -0.1019
 4633TIP3    H135534   2.307   1.801   1.558  0.2547 -0.2094  0.2052
 4633TIP3    H235535   2.290   1.949   1.580 -0.4361 -0.2643  0.0616
 4634TIP3   OH235536   2.294   2.687   0.707  0.1180 -0.1277 -0.7474
 4634TIP3    H135537   2.262   2.607   0.668  1.5424 -0.9282 -0.3548
 4634TIP3    H235538   2.371   2.660   0.758 -0.0588  1.2969  0.3501
 4635TIP3   OH235539   4.281   4.359   7.064  0.4433 -0.2131 -0.3318
 4635TIP3    H135540   4.221   4.421   7.023  1.2827  0.7242 -0.1730
 4635TIP3    H235541   4.252   4.273   7.033 -1.4973  0.1339  0.4099
 4636TIP3   OH235542   6.521   4.133   1.787  0.2142  0.3246 -0.1702
 4636TIP3    H135543   6.526   4.182   1.705  0.7577 -0.0910 -0.3882
 4636TIP3    H235544   6.589   4.067   1.780 -1.1039 -1.0865 -0.2714
 4637TIP3   OH235545   0.914   0.487   0.097 -0.3103  0.6429 -0.5898
 4637TIP3    H135546   1.001   0.506   0.063  0.3456 -0.1117  0.5836
 4637TIP3    H235547   0.902   0.393   0.082 -0.2289  0.4048  0.6880
 4638TIP3   OH235548   4.327   2.625   8.321  0.3636 -0.1761 -0.0570
 4638TIP3    H135549   4.275   2.551   8.290 -0.4495  0.5512 -0.4664
 4638TIP3    H235550   4.273   2.702   8.304  2.3750  0.8619 -2.5403
 4639TIP3   OH235551   2.151   4.235   1.199  0.1426 -0.0745 -0.5425
 4639TIP3    H135552   2.058   4.242   1.179  0.0007 -1.0268 -0.2423
 4639TIP3    H235553   2.162   4.147   1.234  0.3544  1.3441  3.4938
 4640TIP3   OH235554   2.310   4.973   0.364  0.0760 -0.2874  0.7858
 4640TIP3    H135555   2.367   4.989   0.289  0.6073  1.2366  1.4723
 4640TIP3    H235556   2.359   5.008   0.439 -0.2892 -2.0759  1.9201
 4641TIP3   OH235557   5.006   3.232   0.541  0.4375 -0.0370  0.1566
 4641TIP3    H135558   4.947   3.279   0.601 -1.2724  0.8231 -2.0569
 4641TIP3    H235559   5.000   3.141   0.570 -1.6435  0.1006  0.3268
 4642TIP3   OH235560   4.780   6.417   1.211  0.0670  0.1534  0.1540
 4642TIP3    H135561   4.686   6.431   1.204  0.1577  1.2126  0.7696
 4642TIP3    H235562   4.803   6.449   1.299  1.1319  0.7137 -0.3054
 4643TIP3   OH235563   4.798   5.610   0.096  0.2574  0.4619  0.7063
 4643TIP3    H135564   4.850   5.681   0.134  0.5220  0.3981  0.4619
 4643TIP3    H235565   4.707   5.638   0.109  0.3257  0.2087  1.8382
 4644TIP3   OH235566   2.721   3.406   7.982 -0.1083  0.1817  0.0203
 4644TIP3    H135567   2.680   3.374   8.062 -0.2518 -0.2659 -0.2301
 4644TIP3    H235568   2.815   3.402   8.000 -0.1317 -0.1412  0.0848
 4645TIP3   OH235569   0.935   6.594   8.461  0.2690 -0.0497 -0.3082
 4645TIP3    H135570   0.938   6.543   8.380 -1.1733  1.0877 -1.1296
 4645TIP3    H235571   0.885   6.540   8.522 -1.1725  0.2848 -1.1434
 4646TIP3   OH235572   6.014   0.646   1.312 -0.1345  0.4746 -0.2544
 4646TIP3    H135573   5.926   0.613   1.333 -0.2144  1.2221  0.6322
 4646TIP3    H235574   6.006   0.741   1.315  0.4517  0.5798 -1.3054
 4647TIP3   OH235575   6.658   6.197   0.096 -0.6362  0.2622  0.1325
 4647TIP3    H135576   6.622   6.245   0.022  2.6861 -0.3789 -2.1361
 4647TIP3    H235577   6.651   6.105   0.071 -1.1053 -0.0965  1.4918
 4648TIP3   OH235578   2.712   1.720   0.332  0.5401  0.2393  0.3446
 4648TIP3    H135579   2.760   1.752   0.256 -0.0535  0.0072 -0.1408
 4648TIP3    H235580   2.670   1.798   0.369  0.5180  0.2973  0.1993
 4649TIP3   OH235581   5.228   4.117   8.214 -0.1666  0.3321 -0.4160
 4649TIP3    H135582   5.145   4.082   8.183  0.1628 -0.4528 -0.4345
 4649TIP3    H235583   5.256   4.057   8.282  1.3051 -0.5230 -1.7130
 4650TIP3   OH235584   6.358   1.435   7.303  0.0500  0.0466  0.3895
 4650TIP3    H135585   6.374   1.506   7.365 -1.3332  0.7296  0.0079
 4650TIP3    H235586   6.443   1.419   7.262 -0.0428  3.4607 -1.5756
 4651TIP3   OH235587   0.083   6.836   7.704  0.0814 -0.5623  0.0690
 4651TIP3    H135588   0.113   6.818   7.793 -0.6861  1.8716  0.9172
 4651TIP3    H235589   0.039   6.757   7.676 -2.0325 -0.5413  2.9163
 4652TIP3   OH235590   5.413   3.627   2.189  0.0029  0.2652 -0.2746
 4652TIP3    H135591   5.502   3.659   2.197  0.3140 -0.7998  0.7652
 4652TIP3    H235592   5.416   3.537   2.222 -1.5964  0.4742  0.5776
 4653TIP3   OH235593   3.100   6.638   1.392 -0.2602  0.2630  0.0502
 4653TIP3    H135594   3.127   6.643   1.300  0.6766  1.1872  0.3584
 4653TIP3    H235595   3.024   6.579   1.391 -1.0624  1.2397 -1.5028
 4654TIP3   OH235596   5.180   0.154   7.293 -0.0294  0.1052  0.0033
 4654TIP3    H135597   5.217   0.067   7.275 -1.0391 -0.6113  1.2702
 4654TIP3    H235598   5.087   0.145   7.273 -1.1174 -0.5253  4.3324
 4655TIP3   OH235599   3.959   4.796   8.010  0.1199 -0.2814 -0.2194
 4655TIP3    H135600   3.965   4.771   8.102  0.2237  0.1861 -0.0947
 4655TIP3    H235601   3.971   4.891   8.010 -1.2284 -0.0820 -0.5742
 4656TIP3   OH235602   1.830   4.651   6.781  0.4931  0.3321  0.4488
 4656TIP3    H135603   1.768   4.600   6.728  0.2460 -0.1634  1.1969
 4656TIP3    H235604   1.808   4.629   6.872  2.1446 -0.3310  0.7277
 4657TIP3   OH235605   6.840   5.251   8.199  0.1629 -0.3715  0.2653
 4657TIP3    H135606   6.758   5.248   8.149 -0.5784  0.4651  1.3687
 4657TIP3    H235607   6.829   5.183   8.266  0.5618 -0.5530  0.1494
 4658TIP3   OH235608   1.060   1.507   7.132  0.2685 -0.2196 -0.1716
 4658TIP3    H135609   1.057   1.583   7.191  0.1892  1.0453 -1.7433
 4658TIP3    H235610   1.152   1.501   7.106  0.3634 -0.9789  0.3215
 4659TIP3   OH235611   3.986   5.442   6.973  0.4353 -0.2310 -0.3126
 4659TIP3    H135612   3.893   5.431   6.955  0.3165 -0.0708  0.1971
 4659TIP3    H235613   4.011   5.519   6.921  0.0116  0.4457  0.4676
 4660TIP3   OH235614   0.939   0.760   1.237  0.0349  0.5439 -0.1724
 4660TIP3    H135615   0.935   0.787   1.329 -1.2705  1.7169 -0.5239
 4660TIP3    H235616   0.947   0.843   1.189 -1.6217  0.1582 -1.1963
 4661TIP3   OH235617   4.258   1.102   0.025  0.3626 -0.0502  0.0334
 4661TIP3    H135618   4.255   1.113  -0.070 -0.7825 -0.6300 -0.0107
 4661TIP3    H235619   4.229   1.012   0.040  0.0995  0.1776  0.9582
 4662TIP3   OH235620   6.041   5.154   1.321  0.1663 -0.1952 -0.7980
 4662TIP3    H135621   6.096   5.095   1.373  0.5719  0.8296 -0.0344
 4662TIP3    H235622   5.966   5.173   1.377  0.4065  0.6008 -0.7378
 4663TIP3   OH235623   0.783   5.269   1.320 -0.1430 -0.4500 -0.0283
 4663TIP3    H135624   0.741   5.354   1.329  1.3924  0.2572  0.6431
 4663TIP3    H235625   0.805   5.243   1.409  1.4588 -0.4635 -0.3962
 4664TIP3   OH235626   0.832   6.073   0.041  0.6544 -0.2034 -0.3755
 4664TIP3    H135627   0.870   6.050  -0.043 -1.7749 -1.8593 -1.1236
 4664TIP3    H235628   0.854   5.999   0.099  2.1298  0.8250  0.4465
 4665TIP3   OH235629   1.539   3.095   7.415 -0.5024 -0.3960  0.4829
 4665TIP3    H135630   1.473   3.104   7.346 -0.6309 -1.3003  0.4692
 4665TIP3    H235631   1.622   3.105   7.369 -0.6299  1.2341  0.5832
 4666TIP3   OH235632   4.897   6.658   8.365  0.5440 -0.0375  0.5584
 4666TIP3    H135633   4.812   6.640   8.325  2.1055 -3.5511 -1.6118
 4666TIP3    H235634   4.942   6.715   8.303 -0.0352  1.6713  1.6218
 4667TIP3   OH235635   3.175   5.842   7.680 -0.3893 -0.1824 -0.3664
 4667TIP3    H135636   3.161   5.779   7.751  1.4841  1.2644  1.3917
 4667TIP3    H235637   3.087   5.855   7.643 -0.9095 -3.5251 -0.6624
 4668TIP3   OH235638   1.878   5.208   7.762 -0.5424 -0.1430  0.2516
 4668TIP3    H135639   1.796   5.180   7.720  0.0251 -1.1391 -0.2308
 4668TIP3    H235640   1.926   5.127   7.778  0.0199  0.3690  1.2521
 4669TIP3   OH235641   6.623   3.121   6.981 -0.4407 -0.0573 -0.3366
 4669TIP3    H135642   6.550   3.177   6.954  0.1871  0.8855 -0.1629
 4669TIP3    H235643   6.629   3.055   6.913 -1.4266 -0.1234 -0.3741
 4670TIP3   OH235644   5.589   1.035   7.908  0.0228  0.2586 -0.0279
 4670TIP3    H135645   5.504   0.992   7.897 -0.6687  1.6617 -0.3918
 4670TIP3    H235646   5.594   1.055   8.002 -0.9879  1.9584 -0.2928
 4671TIP3   OH235647   2.846   6.090   1.589 -0.2093  0.4839 -0.3947
 4671TIP3    H135648   2.932   6.057   1.565  0.1593  1.2478 -0.1659
 4671TIP3    H235649   2.833   6.060   1.679  0.1310  0.9500 -0.1824
 4672TIP3   OH235650   2.475   5.230   8.556 -0.5465  0.0213 -0.0864
 4672TIP3    H135651   2.407   5.222   8.489  0.2820  1.2994 -1.1181
 4672TIP3    H235652   2.508   5.320   8.546 -0.5467  0.3423  2.1863
 4673TIP3   OH235653   2.909   4.444   7.735 -0.2883 -0.6323 -0.1081
 4673TIP3    H135654   2.945   4.530   7.755  2.8350 -2.2488  2.0754
 4673TIP3    H235655   2.848   4.426   7.807 -0.8379 -0.3257 -0.4914
 4674TIP3   OH235656   1.001   5.552   7.019 -0.1129 -0.3791 -0.1729
 4674TIP3    H135657   1.057   5.596   7.082  1.8360 -2.1384 -0.5804
 4674TIP3    H235658   0.914   5.553   7.059  0.0916  2.6269  0.3605
 4675TIP3   OH235659   6.829   4.710   0.182 -0.7694  0.1037 -0.1106
 4675TIP3    H135660   6.807   4.741   0.095  0.4841 -0.3786 -0.6263
 4675TIP3    H235661   6.888   4.776   0.217 -1.2964  0.3129  0.3987
 4676TIP3   OH235662   1.838   6.436   0.098  0.1603 -0.1554  0.6512
 4676TIP3    H135663   1.840   6.480   0.183 -1.3855  1.3353 -0.0162
 4676TIP3    H235664   1.772   6.367   0.108 -1.1463  0.9899  0.2829
 4677TIP3   OH235665   4.124   3.910   8.420 -0.3146 -0.9658 -0.5842
 4677TIP3    H135666   4.084   3.865   8.346 -2.5865  0.6483 -0.4528
 4677TIP3    H235667   4.097   3.859   8.497  0.3987 -1.5306 -0.6957
 4678TIP3   OH235668   0.163   4.436   8.298  0.0196  0.1810  0.0357
 4678TIP3    H135669   0.257   4.454   8.308 -0.2113  1.1194  0.5825
 4678TIP3    H235670   0.127   4.445   8.386 -0.2727 -2.2381  0.2475
 4679TIP3   OH235671   6.872   5.817   1.858  0.2348  0.3769  0.4283
 4679TIP3    H135672   6.964   5.811   1.836  0.3478  1.4593  0.5136
 4679TIP3    H235673   6.868   5.887   1.924 -0.5337 -0.2704  1.0958
 4680TIP3   OH235674   3.935   0.603   1.712  0.2770  0.6130 -0.0040
 4680TIP3    H135675   3.858   0.623   1.660 -0.0254  0.5545  0.4109
 4680TIP3    H235676   3.909   0.624   1.802 -0.3067 -2.2006  0.5786
 4681TIP3   OH235677   4.877   5.926   7.108  0.1714 -0.6619 -0.3101
 4681TIP3    H135678   4.848   5.843   7.146 -0.1476  0.2017  1.4585
 4681TIP3    H235679   4.963   5.942   7.148  0.4878 -0.4148 -1.0812
 4682TIP3   OH235680   1.532   3.577   0.769 -0.1819 -0.1387  0.4903
 4682TIP3    H135681   1.591   3.561   0.843  1.3514  1.6931 -0.2247
 4682TIP3    H235682   1.489   3.660   0.790  1.7442  1.4705 -1.4294
 4683TIP3   OH235683   3.629   6.303   0.452 -0.0030  0.4597 -0.2928
 4683TIP3    H135684   3.702   6.241   0.456  0.7428  1.3400  0.4415
 4683TIP3    H235685   3.553   6.254   0.482  0.6690  0.0219  0.7574
 4684TIP3   OH235686   0.026   4.484   1.229 -0.0790  0.4652  0.4837
 4684TIP3    H135687   0.096   4.483   1.164  0.5901  2.2653  1.1348
 4684TIP3    H235688  -0.049   4.523   1.184 -0.9075 -1.8875 -0.3612
 4685TIP3   OH235689   5.925   4.759   1.551  0.2639 -0.4827  0.3154
 4685TIP3    H135690   5.856   4.753   1.486 -0.8775  0.3082  1.4071
 4685TIP3    H235691   5.912   4.682   1.607  1.3943 -1.2979 -0.5064
 4686TIP3   OH235692   6.532   4.862   1.611  0.5760  0.1134 -0.1438
 4686TIP3    H135693   6.480   4.921   1.667  0.9824  0.2682  0.0799
 4686TIP3    H235694   6.602   4.918   1.577  0.5430 -0.0722 -0.5162
 4687TIP3   OH235695   4.288   6.696   7.674  0.1038  0.0757 -0.4598
 4687TIP3    H135696   4.347   6.626   7.647  0.3222 -0.1564  0.5803
 4687TIP3    H235697   4.337   6.745   7.740 -0.9892 -0.3755  0.7362
 4688TIP3   OH235698   5.333   5.855   8.632 -0.4390  0.8158  0.1285
 4688TIP3    H135699   5.418   5.893   8.613  1.1419 -1.0713  2.7670
 4688TIP3    H235700   5.287   5.923   8.683  0.2575  1.1248  0.3485
 4689TIP3   OH235701   3.256   6.720   7.343  0.3950 -0.2645  0.3668
 4689TIP3    H135702   3.309   6.799   7.356 -0.8478  0.9980 -1.7157
 4689TIP3    H235703   3.203   6.714   7.422 -1.8718  2.9997 -0.7369
 4690TIP3   OH235704   4.622   3.128   1.039 -0.4726 -0.3902 -0.0509
 4690TIP3    H135705   4.651   3.060   0.979 -0.2751 -1.1445  0.8710
 4690TIP3    H235706   4.674   3.115   1.118 -1.4885 -0.1398  0.6955
 4691TIP3   OH235707   5.155   3.479   0.075 -0.0314 -0.6094 -0.0517
 4691TIP3    H135708   5.174   3.459   0.167  0.0863  1.2373  0.3591
 4691TIP3    H235709   5.203   3.412   0.026  0.9308 -0.8768  1.2017
 4692TIP3   OH235710   1.285   4.527   6.899 -0.1110  0.3947  0.0621
 4692TIP3    H135711   1.221   4.510   6.969  0.3583 -0.1027  0.3745
 4692TIP3    H235712   1.253   4.476   6.825 -0.3929  0.6058  0.0352
 4693TIP3   OH235713   2.118   3.247   8.557 -0.1791  0.1411 -0.4584
 4693TIP3    H135714   2.037   3.196   8.558  0.5006 -1.1173 -2.4571
 4693TIP3    H235715   2.135   3.263   8.464  0.6095  2.5296  0.0185
 4694TIP3   OH235716   6.440   5.739   0.752  0.4180 -0.1089  0.0403
 4694TIP3    H135717   6.444   5.805   0.820  1.3517 -1.1010  0.9856
 4694TIP3    H235718   6.348   5.717   0.744  0.2005  0.6890  0.2987
 4695TIP3   OH235719   5.249   3.694   7.326  0.5495  0.7074 -0.1133
 4695TIP3    H135720   5.321   3.757   7.322 -1.3138  3.0685  0.4132
 4695TIP3    H235721   5.217   3.700   7.416 -0.0587 -0.5940 -0.2183
 4696TIP3   OH235722   3.044   5.579   8.694  0.1897  0.1101 -0.2811
 4696TIP3    H135723   3.014   5.491   8.672  0.6930  0.4402 -2.5058
 4696TIP3    H235724   2.989   5.637   8.641  0.6697  1.0658  0.2412
 4697TIP3   OH235725   6.555   3.164   0.790 -0.0375  0.3229  0.1163
 4697TIP3    H135726   6.634   3.207   0.822 -1.1027  0.9972  2.0394
 4697TIP3    H235727   6.574   3.070   0.795  0.4323  0.4586  1.2465
 4698TIP3   OH235728   0.219   0.974   7.320 -0.5970  0.0331 -0.1845
 4698TIP3    H135729   0.282   0.989   7.249  1.5463  0.0063  1.6036
 4698TIP3    H235730   0.165   0.902   7.289  3.7977 -3.9294  0.2044
 4699TIP3   OH235731   0.406   4.544   6.826  0.0085 -0.5348 -0.5515
 4699TIP3    H135732   0.448   4.586   6.751  1.5323 -0.3527  0.3584
 4699TIP3    H235733   0.363   4.467   6.790  0.3262 -0.1940 -1.6904
 4700TIP3   OH235734   5.952   1.899   1.539 -0.2802 -0.0807 -0.1127
 4700TIP3    H135735   6.027   1.941   1.582  0.0233  0.8051 -1.4463
 4700TIP3    H235736   5.941   1.948   1.457 -1.1229 -1.4195 -0.8326
 4701TIP3   OH235737   2.564   0.879   1.931  0.1307  0.2335 -0.3888
 4701TIP3    H135738   2.642   0.824   1.919 -0.4084 -0.1967 -2.3190
 4701TIP3    H235739   2.510   0.832   1.993  1.3772  0.5338  0.9837
 4702TIP3   OH235740   6.353   3.978   8.139  0.0326  0.2984 -0.2411
 4702TIP3    H135741   6.259   3.977   8.153  0.2001  1.6497  1.2819
 4702TIP3    H235742   6.377   4.071   8.139  1.3780 -0.0152 -0.5581
 4703TIP3   OH235743   4.622   2.699   0.734 -0.4619  0.0023 -0.3265
 4703TIP3    H135744   4.538   2.673   0.773 -0.0980  0.7652  1.0220
 4703TIP3    H235745   4.631   2.792   0.756  0.4367  0.0934 -1.0365
 4704TIP3   OH235746   1.630   1.679   0.343 -0.1712  0.5071 -0.0396
 4704TIP3    H135747   1.633   1.583   0.338  0.6508  0.4866  0.7676
 4704TIP3    H235748   1.609   1.706   0.253 -3.1842 -0.4986  0.2235
 4705TIP3   OH235749   1.680   5.624   8.103  0.0526  0.1788 -0.1923
 4705TIP3    H135750   1.637   5.688   8.160  0.4554 -1.9773  2.7222
 4705TIP3    H235751   1.773   5.631   8.126  0.2750 -0.5143 -0.8632
 4706TIP3   OH235752   0.201   0.667   1.324 -0.3006 -0.3038 -0.1067
 4706TIP3    H135753   0.175   0.599   1.385  0.8342  0.1446  0.9158
 4706TIP3    H235754   0.285   0.637   1.289 -0.2225  0.1573 -0.3208
 4707TIP3   OH235755   2.623   6.770   7.572 -0.1576 -0.1852  0.2338
 4707TIP3    H135756   2.557   6.756   7.504 -0.4682 -1.2447  0.7285
 4707TIP3    H235757   2.707   6.755   7.528 -0.2838  0.2960 -0.1848
 4708TIP3   OH235758   5.649   1.558   1.117 -0.0465  0.1679  0.1613
 4708TIP3    H135759   5.694   1.534   1.036  1.4975 -0.9779  1.2868
 4708TIP3    H235760   5.613   1.645   1.100 -0.5354 -0.4089 -2.0334
 4709TIP3   OH235761   1.532   4.801   8.347  0.3379  0.3177  0.4103
 4709TIP3    H135762   1.618   4.820   8.309  0.1065 -0.6774 -0.6600
 4709TIP3    H235763   1.524   4.864   8.419  1.8921  0.5301  0.4462
 4710TIP3   OH235764   6.635   5.344   6.572 -0.1181 -0.8251  0.5463
 4710TIP3    H135765   6.557   5.298   6.544 -0.0323 -2.2712  2.4267
 4710TIP3    H235766   6.701   5.324   6.505 -1.0344 -0.4607 -0.4925
 4711TIP3   OH235767   0.791   6.813   7.395  0.4216  0.1577  0.2543
 4711TIP3    H135768   0.717   6.855   7.438  0.0226  1.9513 -1.9801
 4711TIP3    H235769   0.829   6.755   7.462 -1.8867  0.5328  1.9946
 4712TIP3   OH235770   2.614   6.504   0.680  0.3489  0.6474  0.2189
 4712TIP3    H135771   2.708   6.498   0.701  0.3647  3.3825  1.3482
 4712TIP3    H235772   2.610   6.555   0.599 -0.1764  0.0269 -0.1594
 4713TIP3   OH235773   3.083   5.191   8.118 -0.2160 -0.3863  0.3641
 4713TIP3    H135774   3.168   5.188   8.164 -0.7360  0.4574  1.4325
 4713TIP3    H235775   3.099   5.245   8.041  0.3176 -0.5652  0.3457
 4714TIP3   OH235776   2.433   5.684   7.348 -0.1452  0.6722  0.1851
 4714TIP3    H135777   2.478   5.757   7.391  0.5135 -0.1325  0.9024
 4714TIP3    H235778   2.503   5.629   7.314 -0.5645 -0.4076  0.9848
 4715TIP3   OH235779   5.971   3.671   0.421 -0.0165 -0.4634 -0.2484
 4715TIP3    H135780   5.972   3.762   0.390  1.8633 -0.6649 -0.9349
 4715TIP3    H235781   5.884   3.659   0.459 -0.6329  1.3377 -0.9871
 4716TIP3   OH235782   0.774   0.797   8.671 -0.0432 -0.1626 -0.6606
 4716TIP3    H135783   0.687   0.811   8.634 -0.2771 -0.6692 -0.3196
 4716TIP3    H235784   0.812   0.727   8.617 -0.8836 -1.8232  0.8093
 4717TIP3   OH235785   0.847   6.647   7.601 -0.2843 -0.2030  0.0996
 4717TIP3    H135786   0.927   6.617   7.645 -0.9919 -0.8567  0.9798
 4717TIP3    H235787   0.779   6.588   7.633 -1.1719  0.5095 -0.4410
 4718TIP3   OH235788   2.471   5.620   6.562 -0.5132 -0.0420 -0.3446
 4718TIP3    H135789   2.432   5.672   6.492  0.4996  1.7833  0.3674
 4718TIP3    H235790   2.400   5.563   6.592 -2.2421  2.1017 -0.0719
 4719TIP3   OH235791   5.581   1.685   8.467 -0.1738  0.0368  0.1071
 4719TIP3    H135792   5.538   1.648   8.391 -0.1257  0.5176 -0.1599
 4719TIP3    H235793   5.573   1.618   8.535  0.4199 -0.6947 -0.5244
 4720TIP3   OH235794   4.505   5.709   0.116  0.4324  0.2113  0.2781
 4720TIP3    H135795   4.472   5.787   0.072  1.3415  1.4187  1.6286
 4720TIP3    H235796   4.530   5.740   0.203  0.7086 -1.6289  0.8985
 4721TIP3   OH235797   5.681   2.703   7.917  0.0604 -0.0281 -0.8863
 4721TIP3    H135798   5.610   2.757   7.953  0.7637 -0.1822  0.8568
 4721TIP3    H235799   5.726   2.760   7.855 -1.1440  0.3073 -1.4757
 4722TIP3   OH235800   5.742   6.159   0.524  0.5402 -0.6905  0.3903
 4722TIP3    H135801   5.799   6.125   0.455 -0.6573 -0.9742 -0.4847
 4722TIP3    H235802   5.797   6.157   0.603  3.2684  3.2205 -1.0995
 4723TIP3   OH235803   5.176   2.570   2.315  0.2500  0.2554 -0.7676
 4723TIP3    H135804   5.123   2.535   2.387 -0.3470  0.0993 -1.2670
 4723TIP3    H235805   5.125   2.550   2.236  1.7380 -1.1990 -1.4095
 4724TIP3   OH235806   4.373   5.121   1.612 -0.3181  0.3511  0.2438
 4724TIP3    H135807   4.332   5.037   1.595 -0.0969  0.5681 -1.5571
 4724TIP3    H235808   4.417   5.110   1.697  0.9838 -1.8689 -0.6341
 4725TIP3   OH235809   5.257   1.866   0.278  0.2605 -0.4039  0.4573
 4725TIP3    H135810   5.323   1.797   0.265  1.3565  0.3878  1.5778
 4725TIP3    H235811   5.282   1.934   0.216 -1.5191 -1.4136 -1.5078
 4726TIP3   OH235812   0.696   1.050   8.477  0.0009  0.0887  0.2576
 4726TIP3    H135813   0.789   1.030   8.473  0.2503  1.0134  1.1975
 4726TIP3    H235814   0.683   1.118   8.410 -0.1167 -0.4388 -0.2644
 4727TIP3   OH235815   0.524   2.550   6.590 -0.0772  0.5355  0.0265
 4727TIP3    H135816   0.433   2.562   6.565  0.0356  0.2751 -0.5361
 4727TIP3    H235817   0.565   2.635   6.573 -0.0059  0.3692 -0.6952
 4728TIP3   OH235818   1.800   3.542   8.151  0.1391  0.2607  0.5018
 4728TIP3    H135819   1.850   3.590   8.216 -0.5325  0.8905  0.5598
 4728TIP3    H235820   1.728   3.502   8.200  1.0061 -1.3177  0.5638
 4729TIP3   OH235821   0.811   2.551   8.335 -0.3726 -0.6756 -0.0853
 4729TIP3    H135822   0.843   2.582   8.420  0.1367 -1.3121 -0.0407
 4729TIP3    H235823   0.787   2.631   8.288 -1.7292 -0.3662  1.0664
 4730TIP3   OH235824   5.640   4.767   1.783 -0.0577 -0.1405 -0.4188
 4730TIP3    H135825   5.684   4.849   1.807  0.1894 -0.5150  0.4771
 4730TIP3    H235826   5.708   4.714   1.744  0.6446 -1.1696  2.0309
 4731TIP3   OH235827   6.731   4.760   0.675  0.3863  0.0592  0.0722
 4731TIP3    H135828   6.757   4.826   0.739  1.5542 -0.8667  0.5927
 4731TIP3    H235829   6.810   4.708   0.660 -0.6373 -1.6030  0.1486
 4732TIP3   OH235830   2.757   4.750   1.678  0.0131  0.4664 -0.2192
 4732TIP3    H135831   2.826   4.701   1.633  0.7992  1.0568  0.2950
 4732TIP3    H235832   2.754   4.834   1.633 -1.7818 -0.2372 -1.5174
 4733TIP3   OH235833   0.389   0.748   7.226 -0.1327  0.5287  0.0187
 4733TIP3    H135834   0.341   0.700   7.294  1.3601  0.7378  1.2666
 4733TIP3    H235835   0.422   0.679   7.167  2.4025 -0.1453  2.0602
 4734TIP3   OH235836   0.457   4.807   1.341  0.3932  0.1880  0.1801
 4734TIP3    H135837   0.530   4.755   1.307 -0.1281  0.5681 -1.6324
 4734TIP3    H235838   0.497   4.887   1.373  1.1915 -1.1707  2.8906
 4735TIP3   OH235839   1.865   3.074   1.510 -0.2991 -0.2711 -0.0686
 4735TIP3    H135840   1.793   3.084   1.573 -1.8712 -0.6066 -1.7377
 4735TIP3    H235841   1.927   3.016   1.554 -1.7647 -1.2187  0.8330
 4736TIP3   OH235842   3.479   1.778   7.089 -0.3476  0.1976  0.4027
 4736TIP3    H135843   3.432   1.821   7.161  2.6744  2.0995  1.4545
 4736TIP3    H235844   3.550   1.731   7.131  3.0249  3.3160 -1.1816
 4737TIP3   OH235845   4.636   0.403   7.231  0.1668  0.4064  0.1250
 4737TIP3    H135846   4.573   0.474   7.217 -0.3358 -0.0282  0.1898
 4737TIP3    H235847   4.587   0.323   7.215  0.6524  0.0544  0.3684
 4738TIP3   OH235848   3.434   2.683   1.573 -0.0738 -1.0689  0.2554
 4738TIP3    H135849   3.518   2.646   1.546 -0.4043 -3.4082  2.0691
 4738TIP3    H235850   3.450   2.718   1.661 -0.5395  0.3110 -0.1892
 4739TIP3   OH235851   5.920   3.281   0.043  0.3798 -0.2100 -0.6418
 4739TIP3    H135852   5.977   3.319   0.110 -0.8788 -2.2001  1.6934
 4739TIP3    H235853   5.871   3.355   0.008 -0.4338  0.6783  2.1659
 4740TIP3   OH235854   2.931   5.730   0.923 -0.2769  0.4135  0.3813
 4740TIP3    H135855   2.876   5.802   0.892 -0.7093 -0.4117 -0.8639
 4740TIP3    H235856   2.990   5.713   0.850  1.9065  1.4905  1.8006
 4741TIP3   OH235857   5.071   0.631   0.261 -0.2485 -0.5939  0.2995
 4741TIP3    H135858   4.976   0.626   0.247 -0.2356  0.0759 -0.0604
 4741TIP3    H235859   5.109   0.616   0.174  0.1433 -4.3343  0.9324
 4742TIP3   OH235860   4.365   3.297   1.788  0.1356 -0.0935 -0.3874
 4742TIP3    H135861   4.390   3.338   1.870  1.5693 -1.8831  0.1497
 4742TIP3    H235862   4.282   3.253   1.807 -0.4917  1.0246 -0.4655
 4743TIP3   OH235863   1.488   1.728   2.002 -0.0747 -0.4217 -0.5428
 4743TIP3    H135864   1.506   1.724   1.908  1.2813 -0.0245 -0.3157
 4743TIP3    H235865   1.416   1.665   2.015  1.0294 -1.9646 -1.5435
 4744TIP3   OH235866   5.767   5.730   8.505 -0.3828  0.3077 -0.4435
 4744TIP3    H135867   5.690   5.697   8.459  0.1141 -0.0787 -1.0105
 4744TIP3    H235868   5.746   5.821   8.525 -1.0326  0.1676 -0.4874
 4745TIP3   OH235869   5.364   1.798   7.629 -0.6212 -0.1160  0.0758
 4745TIP3    H135870   5.417   1.724   7.602 -1.9127 -0.6176 -1.2196
 4745TIP3    H235871   5.331   1.774   7.716 -0.0396 -0.4926  0.2002
 4746TIP3   OH235872   2.093   2.360   2.093 -0.5996 -0.0090 -0.4012
 4746TIP3    H135873   2.065   2.409   2.016 -0.0842  0.7324 -0.1300
 4746TIP3    H235874   2.065   2.271   2.077  0.5220 -0.1094 -1.9767
 4747TIP3   OH235875   2.047   3.915   0.594 -0.0828 -0.0153 -0.0941
 4747TIP3    H135876   1.972   3.963   0.559 -0.7380 -0.4447  0.6813
 4747TIP3    H235877   2.009   3.854   0.657  1.0072  0.3755  0.9809
 4748TIP3   OH235878   2.285   2.106   8.367  0.8085 -0.5004 -0.3031
 4748TIP3    H135879   2.304   2.183   8.421  1.1204 -0.2395 -0.7727
 4748TIP3    H235880   2.215   2.135   8.309  0.0337 -0.9786  0.3845
 4749TIP3   OH235881   6.583   1.896   1.106  0.1098  0.0555 -0.1615
 4749TIP3    H135882   6.574   1.876   1.012  0.9037  1.1703 -0.4891
 4749TIP3    H235883   6.651   1.962   1.110  0.7505 -0.6500  1.3046
 4750TIP3   OH235884   1.302   5.522   7.026 -0.2924  0.6462  0.5663
 4750TIP3    H135885   1.364   5.539   7.096  2.2438 -1.2654 -1.0149
 4750TIP3    H235886   1.289   5.607   6.984  3.0061  0.8637 -0.2971
 4751TIP3   OH235887   0.037   5.771   0.300 -0.0662  0.9112  0.0650
 4751TIP3    H135888  -0.013   5.747   0.221  0.1699 -1.6701  0.6108
 4751TIP3    H235889   0.090   5.846   0.273 -1.2768  1.1794 -1.7133
 4752TIP3   OH235890   1.225   5.850   7.597 -0.2391  0.1547  0.4085
 4752TIP3    H135891   1.214   5.758   7.573  0.1744  0.2034 -0.0105
 4752TIP3    H235892   1.292   5.882   7.536 -1.3683  1.0978 -0.3931
 4753TIP3   OH235893   0.235   3.336   8.410  0.2265 -0.0932 -0.1670
 4753TIP3    H135894   0.295   3.277   8.366  1.3517 -0.3199  1.5645
 4753TIP3    H235895   0.169   3.278   8.449 -0.3539  0.0481 -0.9217
 4754TIP3   OH235896   5.297   2.434   8.075  0.0788  0.2507  0.2593
 4754TIP3    H135897   5.261   2.346   8.079  0.2450  0.0630 -1.4570
 4754TIP3    H235898   5.334   2.450   8.162 -1.9248 -0.4859  1.3012
 4755TIP3   OH235899   4.560   6.223   1.699 -0.1211 -0.3085  0.3782
 4755TIP3    H135900   4.470   6.254   1.687 -0.5865 -1.6909  0.0458
 4755TIP3    H235901   4.610   6.301   1.722 -0.6447  1.2246 -3.0687
 4756TIP3   OH235902   2.387   2.900   1.563 -0.4087  0.2873  0.2938
 4756TIP3    H135903   2.393   2.805   1.550  0.1331  0.4644 -0.8088
 4756TIP3    H235904   2.359   2.909   1.654  0.1148 -0.9173  0.6010
 4757TIP3   OH235905   2.703   2.730   1.013 -0.5421  0.1760  0.4462
 4757TIP3    H135906   2.677   2.822   1.007  0.6240  0.4681 -0.3558
 4757TIP3    H235907   2.788   2.731   1.057  0.6602 -0.2646 -1.7279
 4758TIP3   OH235908   1.489   3.685   7.651 -0.0081 -0.4636  0.2043
 4758TIP3    H135909   1.513   3.595   7.630  0.6170  0.1544 -2.0289
 4758TIP3    H235910   1.572   3.729   7.667 -0.2192 -0.0611  0.2151
 4759TIP3   OH235911   3.617   1.434   1.857  0.5681  0.1012 -0.1866
 4759TIP3    H135912   3.671   1.489   1.913 -1.2339  1.3170  0.4411
 4759TIP3    H235913   3.625   1.472   1.770 -0.3896  1.1957  0.1778
 4760TIP3   OH235914   2.169   3.086   7.863  0.0100 -0.0682 -0.0194
 4760TIP3    H135915   2.124   3.163   7.831 -1.1222 -0.9771 -0.7014
 4760TIP3    H235916   2.216   3.052   7.787  0.8300  0.1588  0.3734
 4761TIP3   OH235917   0.196   3.392   0.168  0.3098 -0.2238  0.1115
 4761TIP3    H135918   0.231   3.310   0.132  2.2032  0.3441  0.5657
 4761TIP3    H235919   0.247   3.460   0.125  1.0084  0.5730  2.1078
 4762TIP3   OH235920   2.851   2.801   7.523 -0.5518 -0.0861 -0.1881
 4762TIP3    H135921   2.903   2.819   7.602 -1.5117 -0.4757  0.5544
 4762TIP3    H235922   2.915   2.794   7.453  0.3753 -0.3560  0.6692
 4763TIP3   OH235923   0.728   4.603   7.717 -0.1011  0.4293  0.6950
 4763TIP3    H135924   0.807   4.608   7.771  0.7932  1.5808 -0.6430
 4763TIP3    H235925   0.722   4.511   7.693  0.5518  0.2376  1.2199
 4764TIP3   OH235926   2.383   0.447   7.060  0.3031  0.4716 -0.5093
 4764TIP3    H135927   2.474   0.457   7.087 -0.1765  2.5628  0.5314
 4764TIP3    H235928   2.377   0.497   6.978 -0.2951  1.9226  0.3963
 4765TIP3   OH235929   3.646   4.907   8.239 -0.6463  0.4360  0.4856
 4765TIP3    H135930   3.574   4.871   8.290  0.9196 -0.8661  1.9362
 4765TIP3    H235931   3.703   4.948   8.304  0.5925  0.1964 -0.4096
 4766TIP3   OH235932   3.653   6.719   8.108  0.3520 -0.7554  0.2070
 4766TIP3    H135933   3.742   6.688   8.086  1.3062  1.5153  0.5693
 4766TIP3    H235934   3.662   6.814   8.111 -2.8769 -0.1253 -3.2471
 4767TIP3   OH235935   6.893   0.243   7.244 -0.3066  0.4377  0.1681
 4767TIP3    H135936   6.981   0.207   7.255 -0.2921  1.0546  2.5777
 4767TIP3    H235937   6.834   0.174   7.272 -0.6045  0.1414 -1.1326
 4768TIP3   OH235938   5.044   6.349   1.229  0.3489 -0.4245  0.1480
 4768TIP3    H135939   4.949   6.360   1.235  0.3198 -1.0127  0.8628
 4768TIP3    H235940   5.056   6.260   1.195  0.6416 -0.0824 -0.6727
 4769TIP3   OH235941   0.656   0.430   6.169 -0.5913  0.8255  0.1856
 4769TIP3    H135942   0.644   0.482   6.089 -0.2090  1.6860  0.6826
 4769TIP3    H235943   0.696   0.490   6.232  0.6616 -0.2970  0.5126
 4770TIP3   OH235944   1.082   5.248   0.210 -0.1781 -0.4790 -0.3303
 4770TIP3    H135945   1.167   5.204   0.219 -0.7034 -2.0765 -2.3537
 4770TIP3    H235946   1.024   5.182   0.172 -2.0729  0.8750  0.0626
 4771TIP3   OH235947   6.841   3.208   1.693 -0.3075  0.0020 -0.1291
 4771TIP3    H135948   6.766   3.229   1.748  0.1042  3.4946 -0.6724
 4771TIP3    H235949   6.914   3.199   1.754 -0.6871 -1.1069  0.1998
 4772TIP3   OH235950   6.238   6.569   0.052  0.3484 -0.7177 -0.0469
 4772TIP3    H135951   6.302   6.527   0.110 -0.9312 -1.4941  0.8652
 4772TIP3    H235952   6.169   6.505   0.043  0.6345 -0.7477 -2.7670
 4773TIP3   OH235953   1.733   6.121   7.606  0.3912  0.2821  0.1974
 4773TIP3    H135954   1.668   6.055   7.631  1.0818 -0.7309 -0.6262
 4773TIP3    H235955   1.799   6.118   7.675  0.4030  0.1368  0.1797
 4774TIP3   OH235956   0.160   4.371   1.439 -0.2124 -0.0724 -0.7720
 4774TIP3    H135957   0.116   4.392   1.356  1.3308  0.4414 -1.5205
 4774TIP3    H235958   0.240   4.424   1.436  0.7951 -1.4844  0.1725
 4775TIP3   OH235959   5.766   4.140   1.592  0.0187 -0.1264  0.5043
 4775TIP3    H135960   5.773   4.050   1.561  0.6426  0.5885 -1.6050
 4775TIP3    H235961   5.816   4.141   1.674 -1.2775 -1.9940  1.3951
 4776TIP3   OH235962   4.266   5.148   8.559  0.1658  0.1881 -0.5368
 4776TIP3    H135963   4.245   5.201   8.636  0.0673  1.0393 -1.1415
 4776TIP3    H235964   4.341   5.095   8.587 -0.7926 -0.6106  0.6215
 4777TIP3   OH235965   2.483   3.280   0.776  0.4782  0.1805  0.1148
 4777TIP3    H135966   2.453   3.301   0.864 -0.5845  0.2257 -0.2495
 4777TIP3    H235967   2.441   3.197   0.754  0.5080  0.3077 -0.4609
 4778TIP3   OH235968   2.658   2.121   8.440  0.3608 -0.0966  0.3279
 4778TIP3    H135969   2.627   2.057   8.376 -1.2397  0.3599  0.5901
 4778TIP3    H235970   2.724   2.074   8.492  0.1772 -1.1044 -0.3348
 4779TIP3   OH235971   1.276   4.562   1.106 -0.2614 -0.2290  0.1024
 4779TIP3    H135972   1.191   4.558   1.061 -0.7167 -0.7258  0.9589
 4779TIP3    H235973   1.272   4.643   1.157  1.0936  1.4431 -2.2904
 4780TIP3   OH235974   2.040   0.069   7.692  0.6255  0.0958  0.2151
 4780TIP3    H135975   2.017   0.138   7.630 -1.7460  0.2224  1.1268
 4780TIP3    H235976   2.036   0.110   7.778  1.8934 -0.5549  0.6177
 4781TIP3   OH235977   0.013   1.247   1.723  0.2932 -0.2110 -0.6606
 4781TIP3    H135978   0.029   1.337   1.752  1.6764 -0.2898 -1.0958
 4781TIP3    H235979  -0.010   1.256   1.630  1.6215 -0.3730 -1.0230
 4782TIP3   OH235980   5.184   5.208   8.465  0.4920 -0.1508 -0.4678
 4782TIP3    H135981   5.140   5.281   8.421 -1.1315 -1.1806 -0.6570
 4782TIP3    H235982   5.208   5.148   8.394  0.6390 -0.3979 -0.2103
 4783TIP3   OH235983   1.948   1.741   7.544  0.4039 -0.0520  0.5400
 4783TIP3    H135984   2.028   1.690   7.552  0.2578 -0.1554  1.4604
 4783TIP3    H235985   1.939   1.785   7.628  0.3147  1.1875 -0.1086
 4784TIP3   OH235986   3.546   5.095   2.082 -0.1319  0.5911  0.1347
 4784TIP3    H135987   3.519   5.018   2.133  0.1589 -0.3919 -1.1541
 4784TIP3    H235988   3.632   5.118   2.119  0.2595 -0.3569 -0.1603
 4785TIP3   OH235989   6.782   0.682   2.375  0.2404 -0.0627  0.0899
 4785TIP3    H135990   6.711   0.704   2.436 -2.2444 -0.0332 -2.6305
 4785TIP3    H235991   6.798   0.588   2.390  0.8578  0.2635  1.8173
 4786TIP3   OH235992   5.674   1.921   1.543 -0.3361 -0.3000  1.2674
 4786TIP3    H135993   5.757   1.901   1.586 -0.9080 -0.1622  2.4610
 4786TIP3    H235994   5.693   1.911   1.450  1.2317  0.5050  1.4611
 4787TIP3   OH235995   5.779   0.266   8.442  0.6779  0.1258  0.2090
 4787TIP3    H135996   5.847   0.314   8.393  0.4187  1.1538  0.8333
 4787TIP3    H235997   5.806   0.272   8.533  1.4291 -2.2232  0.2079
 4788TIP3   OH235998   0.332   2.289   0.695  0.0957  0.0581  0.1433
 4788TIP3    H135999   0.269   2.340   0.748 -0.3205  0.2316 -0.5057
 4788TIP3    H236000   0.403   2.269   0.755 -0.2769  0.4291  0.7189
 4789TIP3   OH236001   5.856   3.151   7.089 -0.3428 -1.3105  0.4144
 4789TIP3    H136002   5.770   3.115   7.068 -0.0183 -1.1782 -1.2846
 4789TIP3    H236003   5.882   3.197   7.009  0.9339 -0.6193  1.2071
 4790TIP3   OH236004   1.941   0.942   0.922 -0.0764 -0.5594  0.3087
 4790TIP3    H136005   2.008   1.009   0.937  0.8240 -1.1871 -0.7828
 4790TIP3    H236006   1.964   0.872   0.983 -0.5921 -0.1980  0.9347
 4791TIP3   OH236007   2.839   3.627   1.071  0.0179 -0.3302  0.0054
 4791TIP3    H136008   2.831   3.581   1.155  0.7896 -2.5881 -1.0549
 4791TIP3    H236009   2.931   3.656   1.069 -0.0956  0.0371  0.0845
 4792TIP3   OH236010   6.070   2.041   7.741  0.0720  0.1917  0.6143
 4792TIP3    H136011   6.156   2.038   7.698 -0.0325 -1.8017  0.4801
 4792TIP3    H236012   6.007   2.026   7.670 -0.3010  0.1654  0.9481
 4793TIP3   OH236013   4.638   6.126   6.219 -0.7261  0.6817  0.0479
 4793TIP3    H136014   4.584   6.128   6.298  1.2644  0.1141  1.5056
 4793TIP3    H236015   4.723   6.093   6.249 -0.3926 -1.2196 -2.6751
 4794TIP3   OH236016   0.002   0.518   0.359 -0.4257 -0.0310 -0.2935
 4794TIP3    H136017  -0.039   0.594   0.400 -0.2490  0.0842 -0.3294
 4794TIP3    H236018   0.087   0.509   0.403 -1.9614 -2.5313  2.4850
 4795TIP3   OH236019   5.358   6.496   8.544  0.1884 -0.1851  0.3516
 4795TIP3    H136020   5.394   6.430   8.485 -1.7214 -0.0387 -1.0409
 4795TIP3    H236021   5.314   6.559   8.487 -0.6565  0.6438  1.8469
 4796TIP3   OH236022   0.818   5.477   0.011 -0.1242  0.1577 -0.1695
 4796TIP3    H136023   0.799   5.526   0.091 -3.6822  0.4185 -0.9971
 4796TIP3    H236024   0.832   5.387   0.041  0.4650  0.5752  0.8693
 4797TIP3   OH236025   6.376   1.135   7.315 -0.7451 -0.0169  0.0284
 4797TIP3    H136026   6.369   1.179   7.230 -0.3097 -0.7716 -0.4062
 4797TIP3    H236027   6.335   1.196   7.376  1.2123  1.7470 -0.2833
 4798TIP3   OH236028   1.489   5.392   8.226  0.4721  0.3955 -0.0216
 4798TIP3    H136029   1.541   5.366   8.301  0.9411 -1.5899 -0.9608
 4798TIP3    H236030   1.552   5.422   8.161  0.0587  2.2780  0.4083
 4799TIP3   OH236031   2.726   6.666   0.134 -0.7411 -0.2756  0.1154
 4799TIP3    H136032   2.815   6.636   0.115 -1.3255 -2.6118  0.7530
 4799TIP3    H236033   2.687   6.681   0.048 -0.0421 -0.2100 -0.1973
 4800TIP3   OH236034   0.778   4.219   6.941 -0.2349  0.7302  0.0773
 4800TIP3    H136035   0.820   4.226   7.027 -1.0847 -0.6962  0.6449
 4800TIP3    H236036   0.848   4.235   6.879  0.3422  2.0504  1.0333
 4801TIP3   OH236037   0.326   2.002   7.863  0.2812  0.5494  0.5133
 4801TIP3    H136038   0.261   2.037   7.925 -1.3112  0.2733 -0.9076
 4801TIP3    H236039   0.304   1.909   7.855  2.0502  0.0168  1.3592
 4802TIP3   OH236040   6.210   2.517   0.220 -0.3921 -0.0063  0.1650
 4802TIP3    H136041   6.202   2.475   0.306  1.1479 -0.1659  0.2624
 4802TIP3    H236042   6.209   2.611   0.239  1.1106 -0.0352  0.5235
 4803TIP3   OH236043   2.757   2.891   8.369  0.3886 -0.0156  0.4113
 4803TIP3    H136044   2.851   2.873   8.363  0.5123  0.4301  0.9493
 4803TIP3    H236045   2.716   2.804   8.373  0.7654 -0.2141  0.0849
 4804TIP3   OH236046   6.437   4.661   0.088 -0.1696 -0.4449 -0.3285
 4804TIP3    H136047   6.472   4.667   0.177  1.6784 -0.1575 -1.0411
 4804TIP3    H236048   6.499   4.710   0.034  0.1666 -2.6891 -2.1533
 4805TIP3   OH236049   6.510   1.205   7.659 -0.0531  0.2835 -0.0899
 4805TIP3    H136050   6.589   1.215   7.606 -0.1242  0.5759 -0.1411
 4805TIP3    H236051   6.530   1.252   7.740  0.9100 -1.9839  1.0799
 4806TIP3   OH236052   1.962   4.551   0.813 -0.0323  0.3012  0.3960
 4806TIP3    H136053   1.954   4.574   0.906 -1.3115  2.2546 -0.1394
 4806TIP3    H236054   1.945   4.633   0.767 -0.5871 -0.8848 -1.6141
 4807TIP3   OH236055   2.856   2.082   8.620  0.3022  0.0163  0.4407
 4807TIP3    H136056   2.888   1.993   8.605 -2.6356 -1.0710 -0.0086
 4807TIP3    H236057   2.833   2.084   8.713 -3.7681 -1.3590 -0.3256
 4808TIP3   OH236058   1.927   2.621   8.427  0.1037 -0.3394  0.2940
 4808TIP3    H136059   1.921   2.546   8.368  1.7460 -1.5346  1.5543
 4808TIP3    H236060   1.874   2.597   8.503  1.4249 -0.7012  1.1319
 4809TIP3   OH236061   5.564   4.082   7.805  0.2944  0.1906  0.0790
 4809TIP3    H136062   5.518   4.018   7.860  1.3538 -0.1232  0.6345
 4809TIP3    H236063   5.517   4.081   7.722 -2.5012  1.9539  1.4647
 4810TIP3   OH236064   2.024   5.081   1.208 -0.6816  0.1418  0.0622
 4810TIP3    H136065   2.058   4.993   1.222  0.5738  0.3905 -1.1987
 4810TIP3    H236066   2.100   5.138   1.219 -1.2960  0.9927 -0.0099
 4811TIP3   OH236067   0.374   6.688   1.465 -0.0988 -0.1314 -0.1588
 4811TIP3    H136068   0.363   6.712   1.373  1.5294 -2.6097 -1.1002
 4811TIP3    H236069   0.417   6.764   1.504 -1.2321  1.1506 -1.2755
 4812TIP3   OH236070   4.050   1.402   0.544 -0.0785 -0.9077  0.2616
 4812TIP3    H136071   4.128   1.372   0.591 -0.0957  0.2298  1.0410
 4812TIP3    H236072   3.976   1.370   0.596 -0.0991 -0.0332  0.7971
 4813TIP3   OH236073   5.125   6.842   8.592  0.2865  0.3892  0.1422
 4813TIP3    H136074   5.041   6.804   8.618 -0.0776  0.0494 -1.4742
 4813TIP3    H236075   5.178   6.837   8.672 -0.5104 -1.3631  0.6134
 4814TIP3   OH236076   1.651   6.354   1.496  0.3568  0.2908  0.7219
 4814TIP3    H136077   1.578   6.348   1.559 -0.9907  1.5945 -0.6369
 4814TIP3    H236078   1.683   6.265   1.489 -0.4073 -0.1417  2.1516
 4815TIP3   OH236079   1.531   2.568   1.812  0.3799 -0.2644  0.1286
 4815TIP3    H136080   1.506   2.558   1.903 -0.4942  0.0479 -0.0734
 4815TIP3    H236081   1.552   2.479   1.783  3.9488 -0.0738  1.5073
 4816TIP3   OH236082   6.881   0.914   6.648  0.1555  0.7012 -0.1288
 4816TIP3    H136083   6.857   0.825   6.673 -0.7387  0.3686 -1.9715
 4816TIP3    H236084   6.976   0.916   6.654  0.3237 -0.8855 -1.4914
 4817TIP3   OH236085   1.871   6.235   0.590 -0.7893 -1.0651  0.4569
 4817TIP3    H136086   1.778   6.214   0.578 -0.6699 -1.6886  0.5625
 4817TIP3    H236087   1.914   6.203   0.511 -0.7833  0.0912 -0.0265
 4818TIP3   OH236088   5.127   4.950   0.230 -0.4199 -0.4400  0.3214
 4818TIP3    H136089   5.202   5.006   0.210 -1.2131  0.1050 -1.4124
 4818TIP3    H236090   5.052   4.998   0.194 -1.3560 -1.8380  0.3196
 4819TIP3   OH236091   6.849   2.162   1.964  0.2211  0.0285  0.0345
 4819TIP3    H136092   6.762   2.201   1.968 -0.9700 -2.2591 -1.5166
 4819TIP3    H236093   6.854   2.105   2.041  0.8316  1.0017  0.7369
 4820TIP3   OH236094   1.520   1.446   5.825 -0.0273 -0.1702  0.2757
 4820TIP3    H136095   1.459   1.437   5.752 -0.5939  0.2214  0.6968
 4820TIP3    H236096   1.492   1.378   5.888 -0.3324  0.3220  0.6766
 4821TIP3   OH236097   1.880   4.530   6.224 -0.0829 -0.0612  0.3637
 4821TIP3    H136098   1.970   4.513   6.250  0.1682 -1.9603 -1.4702
 4821TIP3    H236099   1.832   4.451   6.247 -0.4303 -0.6535 -2.0396
 4822TIP3   OH236100   5.929   1.111   8.628  0.2459  0.2291  0.1261
 4822TIP3    H136101   5.921   1.019   8.605  3.1030 -0.1928  0.4467
 4822TIP3    H236102   5.991   1.147   8.564 -1.4622  2.1866 -0.5357
 4823TIP3   OH236103   0.394   5.977   7.989 -0.5222 -0.2522  0.4701
 4823TIP3    H136104   0.349   5.902   7.950 -0.2894 -0.3175  0.3262
 4823TIP3    H236105   0.324   6.028   8.032 -0.6930 -0.4981  0.4838
 4824TIP3   OH236106   1.015   2.404   7.251 -0.7493 -0.0255 -0.7463
 4824TIP3    H136107   1.061   2.337   7.200 -0.5680 -0.4680 -0.0174
 4824TIP3    H236108   0.936   2.360   7.282  0.1147 -0.4174  1.0275
 4825TIP3   OH236109   1.088   2.844   7.137  0.0260  0.2388 -0.5066
 4825TIP3    H136110   1.128   2.762   7.167  1.1854  1.0461  0.2381
 4825TIP3    H236111   1.127   2.859   7.050  1.2502  0.9185  0.1311
 4826TIP3   OH236112   5.500   0.094   1.725  0.2015 -0.1212 -0.0526
 4826TIP3    H136113   5.408   0.065   1.725  0.1192  0.1396 -0.1259
 4826TIP3    H236114   5.522   0.103   1.818 -0.1175  0.6636 -0.0448
 4827TIP3   OH236115   5.214   0.732   8.293  0.3379  0.1083  0.1724
 4827TIP3    H136116   5.202   0.814   8.341  1.1888  0.1252  0.3740
 4827TIP3    H236117   5.170   0.747   8.209  0.6605  0.8477  0.1253
 4828TIP3   OH236118   1.607   0.714   8.160 -0.2934 -0.1575  0.2817
 4828TIP3    H136119   1.666   0.647   8.195  0.1041 -0.4059 -0.8341
 4828TIP3    H236120   1.614   0.786   8.223  0.1247 -0.7208  0.9042
 4829TIP3   OH236121   6.780   5.020   0.909 -0.0671 -0.0563 -0.4151
 4829TIP3    H136122   6.815   5.095   0.859  1.2027 -0.8700 -0.8141
 4829TIP3    H236123   6.858   4.970   0.934 -0.8717 -1.0718  0.1393
 4830TIP3   OH236124   2.113   4.765   1.789  0.3890  0.0996 -0.0810
 4830TIP3    H136125   2.191   4.732   1.834 -0.3416 -2.1196 -0.3020
 4830TIP3    H236126   2.096   4.850   1.830  1.4214 -0.5249  1.8048
 4831TIP3   OH236127   6.270   2.535   7.892  0.0347 -0.3451 -0.1090
 4831TIP3    H136128   6.199   2.599   7.886  1.9605  1.8915 -0.4753
 4831TIP3    H236129   6.258   2.480   7.815 -0.3430  1.0672 -1.1117
 4832TIP3   OH236130   2.954   6.873   6.381 -0.4269 -0.3632  0.6046
 4832TIP3    H136131   3.002   6.799   6.345 -1.3065 -0.8036  0.3266
 4832TIP3    H236132   2.999   6.950   6.346 -0.0566 -0.7707  0.1801
 4833TIP3   OH236133   0.106   0.572   6.719  0.9861  0.2543 -0.3715
 4833TIP3    H136134   0.110   0.607   6.630 -0.7838 -1.0826 -1.0364
 4833TIP3    H236135   0.068   0.485   6.708 -0.6829  0.6464  1.8375
 4834TIP3   OH236136   5.107   0.010   1.137 -0.5406  0.1366 -0.4102
 4834TIP3    H136137   5.123   0.099   1.106 -0.2623 -0.1150 -1.0027
 4834TIP3    H236138   5.157   0.003   1.219  0.0644  0.2788 -0.7645
 4835TIP3   OH236139   4.191   2.351   0.535  1.0301 -0.0859  0.2124
 4835TIP3    H136140   4.130   2.304   0.478  0.0621 -0.1845  1.2853
 4835TIP3    H236141   4.253   2.284   0.565 -0.2435 -0.7144  1.6060
 4836TIP3   OH236142   5.643   2.540   1.086  0.0708 -0.3698 -0.1983
 4836TIP3    H136143   5.683   2.626   1.099  0.8324 -0.6544 -0.6335
 4836TIP3    H236144   5.608   2.543   0.997 -1.3041  0.0365  0.3302
 4837TIP3   OH236145   2.758   1.325   7.481 -0.1707  0.1552  0.1319
 4837TIP3    H136146   2.668   1.307   7.509 -0.7828  1.4348 -0.9078
 4837TIP3    H236147   2.812   1.284   7.548 -1.5130 -1.2196  0.4361
 4838TIP3   OH236148   3.789   1.919   7.415 -0.2715  0.5726  0.2347
 4838TIP3    H136149   3.745   1.879   7.489  0.8010  0.6929  0.9622
 4838TIP3    H236150   3.850   1.981   7.454  1.4304 -0.4595 -0.6522
 4839TIP3   OH236151   6.680   0.249   6.446  0.1051 -0.0177  0.6646
 4839TIP3    H136152   6.634   0.172   6.480  2.0663 -1.1926  0.8179
 4839TIP3    H236153   6.613   0.298   6.399 -1.6280 -0.8302  2.1442
 4840TIP3   OH236154   3.984   3.518   7.609 -0.5682 -0.0484 -0.6438
 4840TIP3    H136155   3.941   3.495   7.526 -0.4470  1.3625 -1.1293
 4840TIP3    H236156   3.998   3.612   7.603 -0.3554  0.0409  0.9109
 4841TIP3   OH236157   3.203   0.557   0.537 -0.0244 -0.5312  0.3483
 4841TIP3    H136158   3.199   0.575   0.631 -0.4051 -1.9263  0.6334
 4841TIP3    H236159   3.114   0.576   0.505  0.3704  0.9322  0.0428
 4842TIP3   OH236160   3.117   6.216   7.812  0.1475  0.1063 -0.0030
 4842TIP3    H136161   3.043   6.267   7.847 -0.2066 -0.1650 -0.3492
 4842TIP3    H236162   3.136   6.152   7.881 -0.1551 -0.0348 -0.0473
 4843TIP3   OH236163   3.122   3.355   7.639  0.1024 -0.2278  0.7092
 4843TIP3    H136164   3.056   3.423   7.629  1.7308  1.2345 -0.9570
 4843TIP3    H236165   3.104   3.316   7.725 -2.4721  0.5095  0.5970
 4844TIP3   OH236166   4.687   4.877   8.512 -0.4217  0.2192  0.2126
 4844TIP3    H136167   4.754   4.814   8.539  1.5017  1.8828 -0.3651
 4844TIP3    H236168   4.686   4.872   8.416 -1.2004  0.1315  0.2256
 4845TIP3   OH236169   4.056   2.290   1.868  0.1252  0.3603 -0.7204
 4845TIP3    H136170   3.962   2.279   1.887  0.5747 -0.0757  1.5593
 4845TIP3    H236171   4.098   2.216   1.912  1.7140  1.7134  0.1602
 4846TIP3   OH236172   2.762   0.731   7.120 -0.3641  0.3917 -0.0312
 4846TIP3    H136173   2.713   0.810   7.141  1.4298  1.0384  2.1285
 4846TIP3    H236174   2.782   0.738   7.027 -0.0608  2.5952  0.1545
 4847TIP3   OH236175   2.633   3.684   8.316 -0.1671 -0.5421 -0.1932
 4847TIP3    H136176   2.544   3.685   8.280 -1.7570  2.0141  3.2476
 4847TIP3    H236177   2.638   3.605   8.368 -0.2897 -0.8492 -0.6426
 4848TIP3   OH236178   2.469   5.505   1.998  0.2322  0.1551  0.1175
 4848TIP3    H136179   2.425   5.439   1.943  0.5390 -0.2015  0.2982
 4848TIP3    H236180   2.416   5.509   2.077 -0.2511  0.7203 -0.2319
 4849TIP3   OH236181   1.552   0.725   6.706 -0.1342 -0.2172 -0.4320
 4849TIP3    H136182   1.588   0.657   6.764  1.0951 -1.0748 -2.0990
 4849TIP3    H236183   1.610   0.800   6.719  0.4632 -0.5846 -0.8996
 4850TIP3   OH236184   2.162   2.525   7.738 -0.7327  0.0258 -0.0345
 4850TIP3    H136185   2.219   2.505   7.664 -0.5631  0.9142 -0.1547
 4850TIP3    H236186   2.120   2.442   7.759 -0.4900 -0.3244 -0.8826
 4851TIP3   OH236187   2.462   6.769   8.024  0.3148  0.8747  0.0116
 4851TIP3    H136188   2.451   6.848   8.078 -0.8265  0.0350  1.0882
 4851TIP3    H236189   2.380   6.721   8.036  0.7111 -0.1519 -1.1777
 4852TIP3   OH236190   4.699   1.636   8.005 -0.1785  0.3932 -0.2937
 4852TIP3    H136191   4.773   1.686   7.970 -1.3597  0.7954 -2.3915
 4852TIP3    H236192   4.717   1.629   8.099  2.4541  0.5440 -0.7109
 4853TIP3   OH236193   2.979   0.544   1.142 -0.1761  0.0328  0.4262
 4853TIP3    H136194   3.006   0.559   1.233 -1.9477  1.2721  0.7950
 4853TIP3    H236195   3.005   0.453   1.124 -0.2501 -0.4117  2.3413
 4854TIP3   OH236196   1.738   6.409   6.779  0.1447 -0.6245  0.0230
 4854TIP3    H136197   1.663   6.379   6.728  0.1651  0.0855 -0.4386
 4854TIP3    H236198   1.773   6.329   6.819 -0.7833 -0.9804  0.1646
 4855TIP3   OH236199   0.078   3.953   8.449 -0.1600  0.1391  0.1911
 4855TIP3    H136200   0.118   4.032   8.486  1.5217 -1.1461  1.3224
 4855TIP3    H236201   0.038   3.909   8.524  0.7007 -1.0557 -0.0159
 4856TIP3   OH236202   1.478   3.430   7.354  0.2676 -0.0852  0.3975
 4856TIP3    H136203   1.499   3.403   7.443 -0.7812 -0.4342  0.5593
 4856TIP3    H236204   1.426   3.357   7.319 -0.8140  0.7909  0.1199
 4857TIP3   OH236205   6.375   4.375   7.327 -0.8317  0.1443 -0.3300
 4857TIP3    H136206   6.398   4.437   7.258  0.6908  1.0423  0.9233
 4857TIP3    H236207   6.458   4.353   7.369 -1.7992  0.4159  1.8651
 4858TIP3   OH236208   1.325   2.349   7.090  0.0439 -0.0446  0.0449
 4858TIP3    H136209   1.357   2.435   7.120  0.1594  0.1522 -0.6108
 4858TIP3    H236210   1.310   2.362   6.996 -0.6667 -0.5315  0.0897
 4859TIP3   OH236211   2.630   5.320   8.126  0.1354  0.2608 -0.0733
 4859TIP3    H136212   2.703   5.275   8.169 -0.2390 -0.2712  0.0124
 4859TIP3    H236213   2.643   5.302   8.033 -1.4242 -2.2518  0.0987
 4860TIP3   OH236214   2.427   2.203   6.750  0.2067  0.0352 -0.0729
 4860TIP3    H136215   2.473   2.211   6.833 -0.9284 -2.3976  0.8909
 4860TIP3    H236216   2.496   2.197   6.684  1.1262  2.5045  0.5437
 4861TIP3   OH236217   4.243   4.788   0.084  0.4405 -0.0156  0.5206
 4861TIP3    H136218   4.217   4.867   0.131 -0.0859  1.0662 -1.4767
 4861TIP3    H236219   4.338   4.782   0.099  0.4810  0.9758  0.7383
 4862TIP3   OH236220   4.923   1.016   7.740  0.0319 -0.0968  0.3671
 4862TIP3    H136221   4.929   1.111   7.729 -1.3381 -0.0692 -0.3849
 4862TIP3    H236222   5.005   0.983   7.707  0.1833  0.7714 -0.1622
 4863TIP3   OH236223   1.996   5.264   8.051  0.2600 -0.4667  0.4599
 4863TIP3    H136224   2.089   5.287   8.040 -0.6340  3.1238 -0.9080
 4863TIP3    H236225   1.959   5.274   7.963 -1.5483 -1.2501  1.1060
 4864TIP3   OH236226   5.462   5.549   7.711  0.3432  0.4841  0.4532
 4864TIP3    H136227   5.546   5.568   7.670 -0.1911  0.9839 -0.4353
 4864TIP3    H236228   5.446   5.457   7.692  0.9759  0.2030  1.1885
 4865TIP3   OH236229   3.627   6.566   0.484 -0.2359 -0.0770  0.0569
 4865TIP3    H136230   3.651   6.474   0.479  1.0069  0.1639  1.0130
 4865TIP3    H236231   3.564   6.571   0.555  0.2105 -0.1106  0.4628
 4866TIP3   OH236232   5.563   1.894   8.185  0.0384  0.0278 -0.0781
 4866TIP3    H136233   5.582   1.801   8.197  2.4827  0.3334 -0.9110
 4866TIP3    H236234   5.526   1.900   8.097  0.1504 -0.1380 -0.1382
 4867TIP3   OH236235   3.467   0.191   8.220  0.3924  0.0519 -0.5954
 4867TIP3    H136236   3.391   0.162   8.270  1.1034  0.2711  0.6542
 4867TIP3    H236237   3.502   0.111   8.181  1.0553 -0.4831  1.0206
 4868TIP3   OH236238   2.548   5.023   6.671 -0.0990 -0.1191  0.3123
 4868TIP3    H136239   2.504   5.018   6.586 -0.4924 -0.1009  0.5109
 4868TIP3    H236240   2.527   5.110   6.704  1.7808  0.6720 -0.4870
 4869TIP3   OH236241   4.216   4.305   1.173  0.5492  0.4925  0.1485
 4869TIP3    H136242   4.203   4.211   1.157 -0.6273  0.8912 -1.4595
 4869TIP3    H236243   4.304   4.311   1.209  1.6309 -1.0046 -2.0495
 4870TIP3   OH236244   3.411   0.384   8.473  0.0638  0.2769 -0.1720
 4870TIP3    H136245   3.424   0.342   8.558 -2.2089 -1.5952 -0.6517
 4870TIP3    H236246   3.446   0.322   8.409  0.4918  1.0416 -0.7076
 4871TIP3   OH236247   2.198   2.094   1.016 -0.5885 -0.6902 -0.1973
 4871TIP3    H136248   2.199   1.999   1.006 -0.4140 -0.6810 -0.2690
 4871TIP3    H236249   2.202   2.108   1.111  0.3229 -0.7443 -0.2210
 4872TIP3   OH236250   0.288   4.642   7.273 -0.1564 -0.5480  0.1634
 4872TIP3    H136251   0.334   4.623   7.191 -1.8380 -2.5528 -0.3807
 4872TIP3    H236252   0.253   4.730   7.260  0.1387 -0.5839 -1.0170
 4873TIP3   OH236253   1.615   0.711   1.343  0.2817 -0.4676  0.4463
 4873TIP3    H136254   1.590   0.674   1.428 -0.2419 -0.4933  0.2852
 4873TIP3    H236255   1.658   0.639   1.297  3.1231  0.2654  1.7176
 4874TIP3   OH236256   1.374   4.651   1.905 -0.2060  0.0823  0.0708
 4874TIP3    H136257   1.432   4.584   1.941  1.7566  0.5398 -2.0116
 4874TIP3    H236258   1.286   4.617   1.919  0.6883 -2.3440  0.1742
 4875TIP3   OH236259   5.153   4.491   7.327  0.6559  0.7030 -0.5291
 4875TIP3    H136260   5.220   4.454   7.269 -0.1771 -0.2737 -0.9027
 4875TIP3    H236261   5.070   4.471   7.283  0.0383  0.4488  0.7194
 4876TIP3   OH236262   4.834   3.975   0.628  0.3889  0.2970 -0.7818
 4876TIP3    H136263   4.785   3.916   0.570 -0.5873  1.4082 -1.1183
 4876TIP3    H236264   4.800   3.956   0.716  1.2699 -0.7921 -0.6488
 4877TIP3   OH236265   0.673   1.854   7.455  0.3620  0.0835 -0.2646
 4877TIP3    H136266   0.763   1.831   7.431  0.1618 -1.9481  0.7093
 4877TIP3    H236267   0.624   1.772   7.445 -1.5443  1.2884 -1.3695
 4878TIP3   OH236268   0.862   5.972   6.944  0.6130  0.2498  0.7953
 4878TIP3    H136269   0.806   5.935   7.013 -1.0764  2.4656  0.7153
 4878TIP3    H236270   0.951   5.960   6.977 -0.0078 -1.0264  2.1686
 4879TIP3   OH236271   1.901   6.760   0.763  0.3230 -0.0836  0.4031
 4879TIP3    H136272   1.873   6.670   0.748 -0.4029  0.0261  0.9817
 4879TIP3    H236273   1.984   6.752   0.809  0.8677 -0.4368 -0.6197
 4880TIP3   OH236274   3.045   2.769   7.299 -0.0076  0.0000  0.0778
 4880TIP3    H136275   2.979   2.739   7.237 -0.6035 -0.6285  0.9755
 4880TIP3    H236276   3.079   2.688   7.338  1.3377  0.3089 -0.3901
 4881TIP3   OH236277   4.023   2.044   0.462  0.1832  0.0079  0.4479
 4881TIP3    H136278   4.044   2.010   0.549 -0.9895 -1.5923  0.1572
 4881TIP3    H236279   3.931   2.023   0.450  0.3176  0.2544 -1.1582
 4882TIP3   OH236280   0.531   0.215   6.606 -0.4116  0.2272  0.0443
 4882TIP3    H136281   0.524   0.293   6.661  1.8534  0.0823  0.6493
 4882TIP3    H236282   0.581   0.153   6.659 -0.5943 -0.9626 -1.1240
 4883TIP3   OH236283   2.706   0.950   0.787 -0.5504  0.4467  0.2706
 4883TIP3    H136284   2.706   0.868   0.736 -0.0125  2.1150 -2.6408
 4883TIP3    H236285   2.797   0.963   0.812 -0.2037  1.1611 -1.1977
 4884TIP3   OH236286   1.046   4.488   6.526  0.4054 -0.2429  0.6575
 4884TIP3    H136287   1.116   4.476   6.461  0.1786  0.1948  0.3264
 4884TIP3    H236288   1.083   4.454   6.607  1.3328  0.7801  0.6948
 4885TIP3   OH236289   2.656   4.661   0.025 -0.0332 -0.2693 -0.4300
 4885TIP3    H136290   2.737   4.702   0.055  0.3706 -0.5883 -1.0628
 4885TIP3    H236291   2.596   4.669   0.099  0.4071  0.4361 -0.1417
 4886TIP3   OH236292   3.839   6.737   0.332  0.7746 -0.7323 -0.4440
 4886TIP3    H136293   3.908   6.694   0.281 -0.7380 -0.7952 -2.5568
 4886TIP3    H236294   3.791   6.665   0.372  1.3950 -0.7310  0.3113
 4887TIP3   OH236295   3.535   5.250   7.546 -0.4816  0.2264  0.4966
 4887TIP3    H136296   3.501   5.248   7.635 -1.8971 -0.0290 -0.0229
 4887TIP3    H236297   3.457   5.248   7.490  0.4130 -1.2529 -0.7691
 4888TIP3   OH236298   6.703   0.847   7.633 -0.3555  0.5399  0.2324
 4888TIP3    H136299   6.727   0.770   7.580  2.2177  1.1969  0.2818
 4888TIP3    H236300   6.701   0.919   7.571  0.1742  0.8969  0.6237
 4889TIP3   OH236301   2.426   2.643   1.254 -0.7426  0.1295  0.0464
 4889TIP3    H136302   2.403   2.561   1.210 -1.9306  0.9137 -0.8633
 4889TIP3    H236303   2.357   2.655   1.320  0.5586 -0.6067  1.5803
 4890TIP3   OH236304   1.640   3.633   0.199 -0.3264  0.3629  0.4733
 4890TIP3    H136305   1.635   3.540   0.175 -0.6073  0.3738  0.4929
 4890TIP3    H236306   1.552   3.655   0.227  0.0793  0.2389  1.9210
 4891TIP3   OH236307   1.434   2.575   1.231  0.4977 -0.0177  0.0987
 4891TIP3    H136308   1.431   2.486   1.196  3.9238  0.6275 -2.3531
 4891TIP3    H236309   1.506   2.575   1.293 -0.2634  0.8204  1.0219
 4892TIP3   OH236310   5.789   3.779   8.076  0.3509 -0.2019  0.1980
 4892TIP3    H136311   5.736   3.853   8.104 -0.9752 -0.6801 -0.9229
 4892TIP3    H236312   5.832   3.809   7.996 -0.2978 -0.6702 -0.3349
 4893TIP3   OH236313   4.572   2.833   7.819 -0.4230  0.3808  0.4011
 4893TIP3    H136314   4.629   2.759   7.800  0.1458  1.4272 -2.3653
 4893TIP3    H236315   4.490   2.793   7.849  0.3023 -1.2848  0.2558
 4894TIP3   OH236316   2.396   0.399   0.281  0.1770  0.7135  0.8154
 4894TIP3    H136317   2.466   0.337   0.257  0.3577  0.3942  2.0787
 4894TIP3    H236318   2.417   0.425   0.370 -1.8363 -0.1353  1.5976
 4895TIP3   OH236319   3.474   4.335   7.789  0.0289  0.3196 -0.1188
 4895TIP3    H136320   3.380   4.337   7.771 -0.3478 -1.6755  1.2249
 4895TIP3    H236321   3.480   4.312   7.882  1.8497 -0.0954 -0.2882
 4896TIP3   OH236322   4.190   1.548   7.584  0.0189 -0.4508 -0.3616
 4896TIP3    H136323   4.112   1.534   7.637 -0.9367  3.1421 -0.5415
 4896TIP3    H236324   4.182   1.485   7.512 -2.4651 -0.5448 -0.0867
 4897TIP3   OH236325   5.936   5.947   7.315 -0.5000 -0.5668  0.4121
 4897TIP3    H136326   6.017   5.974   7.271 -1.0341  1.4503  0.5598
 4897TIP3    H236327   5.869   6.005   7.279 -1.3783 -0.4100  2.2037
 4898TIP3   OH236328   6.579   6.720   6.374  0.2699 -1.0030 -0.8222
 4898TIP3    H136329   6.574   6.804   6.329  0.3700 -0.9127 -0.6659
 4898TIP3    H236330   6.560   6.655   6.306  0.5628 -0.8769 -1.0305
 4899TIP3   OH236331   6.303   3.681   1.083 -0.4965  0.2069  0.2902
 4899TIP3    H136332   6.272   3.658   0.996  0.4968 -1.1990  0.2827
 4899TIP3    H236333   6.225   3.714   1.128 -1.1952  0.1777 -0.8574
 4900TIP3   OH236334   4.649   0.229   7.863  0.2186  0.1209  0.6417
 4900TIP3    H136335   4.612   0.209   7.777 -0.2660 -1.4707  1.1930
 4900TIP3    H236336   4.677   0.320   7.856 -2.3470  0.9335 -0.3287
 4901TIP3   OH236337   3.700   1.163   7.640  0.3539 -0.3920  0.0331
 4901TIP3    H136338   3.674   1.198   7.725  1.5963 -1.6804  0.9922
 4901TIP3    H236339   3.714   1.240   7.585 -0.8600  0.4489  0.8467
 4902TIP3   OH236340   2.199   2.096   6.835  0.4597 -0.3505  0.4780
 4902TIP3    H136341   2.159   2.028   6.780  0.5738  0.0616 -0.1356
 4902TIP3    H236342   2.275   2.126   6.784  2.2799 -1.9244  2.1355
 4903TIP3   OH236343   0.525   1.364   7.334  0.0797 -0.0284  0.2226
 4903TIP3    H136344   0.608   1.328   7.305  0.1851  0.3491  0.0526
 4903TIP3    H236345   0.491   1.299   7.395  1.4219  0.7216  1.8305
 4904TIP3   OH236346   6.878   3.261   0.618 -0.2559  0.0381 -0.8125
 4904TIP3    H136347   6.889   3.301   0.532 -2.2760  0.4405 -0.9326
 4904TIP3    H236348   6.934   3.183   0.615  0.7304  0.7563 -1.9917
 4905TIP3   OH236349   5.593   2.359   8.060 -0.2495  0.0016  0.3125
 4905TIP3    H136350   5.591   2.454   8.071  1.2164  0.0824  0.0285
 4905TIP3    H236351   5.599   2.325   8.150  3.3510  0.3714  0.3366
 4906TIP3   OH236352   4.421   2.705   0.246 -0.2253 -0.0514  0.6640
 4906TIP3    H136353   4.373   2.622   0.242 -1.4636  0.6754 -0.0900
 4906TIP3    H236354   4.509   2.680   0.277 -1.2216 -1.3479  2.6959
 4907TIP3   OH236355   6.396   2.941   8.468  0.6831  0.0174  0.0947
 4907TIP3    H136356   6.451   2.865   8.488  1.9490  1.5324  2.9616
 4907TIP3    H236357   6.327   2.939   8.535 -0.8287  0.0213 -1.4048
 4908TIP3   OH236358   3.039   5.888   1.503  0.0264 -0.1934  0.7193
 4908TIP3    H136359   2.967   5.829   1.525 -0.0290 -0.0793  0.8533
 4908TIP3    H236360   3.116   5.833   1.499 -0.4703 -0.8323 -2.2044
 4909TIP3   OH236361   1.316   5.266   0.752  0.2001  0.3629  0.8175
 4909TIP3    H136362   1.258   5.298   0.682  1.1601 -3.3243 -1.9575
 4909TIP3    H236363   1.400   5.308   0.734 -0.0258  0.9206  1.0232
 4910TIP3   OH236364   1.349   0.988   7.256  0.3062  0.5140 -0.0487
 4910TIP3    H136365   1.441   1.010   7.244 -0.3654  3.3313 -1.0402
 4910TIP3    H236366   1.325   1.034   7.337 -0.1081 -0.6786  0.5153
 4911TIP3   OH236367   2.563   4.485   7.918  0.2110  0.2110  0.1896
 4911TIP3    H136368   2.598   4.523   7.838  1.0200 -0.5174  0.1763
 4911TIP3    H236369   2.641   4.456   7.966 -0.3463 -1.1419  0.3283
 4912TIP3   OH236370   5.707   2.995   1.716  0.4523  0.7033 -0.1064
 4912TIP3    H136371   5.678   3.047   1.640  0.7243 -2.5479 -2.6605
 4912TIP3    H236372   5.798   3.024   1.730  0.9478  0.3093 -2.1308
 4913TIP3   OH236373   3.812   3.892   7.528 -0.0067  0.1170  0.3691
 4913TIP3    H136374   3.844   3.970   7.574 -1.6294  0.3157  1.2205
 4913TIP3    H236375   3.827   3.821   7.590  0.4755 -0.0859  0.0249
 4914TIP3   OH236376   6.762   3.089   7.391  0.0508  0.2364 -0.0210
 4914TIP3    H136377   6.834   3.026   7.393  1.5361  1.8517  0.4853
 4914TIP3    H236378   6.756   3.116   7.299 -1.7588 -1.8313 -0.5819
 4915TIP3   OH236379   0.235   2.330   7.068 -0.0052 -0.0379 -0.3762
 4915TIP3    H136380   0.196   2.356   7.152  1.2081  0.5786  0.0194
 4915TIP3    H236381   0.287   2.252   7.088 -1.3659 -1.1514 -0.9994
 4916TIP3   OH236382   1.466   4.666   8.094 -0.4601 -0.0264 -0.1179
 4916TIP3    H136383   1.421   4.735   8.044  1.1086  0.1521 -1.3511
 4916TIP3    H236384   1.507   4.713   8.167 -1.0601  0.0133  0.2080
 4917TIP3   OH236385   3.983   6.812   1.010 -0.6303  0.0934 -0.3793
 4917TIP3    H136386   4.034   6.839   1.086  0.5092  0.9758 -1.4189
 4917TIP3    H236387   3.897   6.851   1.024  0.7641  4.0178 -1.5474
 4918TIP3   OH236388   3.133   3.711   7.156 -0.0184  0.4340 -0.8325
 4918TIP3    H136389   3.095   3.670   7.233 -2.4657  0.8970 -1.6979
 4918TIP3    H236390   3.143   3.640   7.093 -0.2646  0.4359 -0.8769
 4919TIP3   OH236391   5.445   3.026   1.537 -0.5391  0.1999 -0.1034
 4919TIP3    H136392   5.430   3.120   1.525  0.6019  0.5143  0.7454
 4919TIP3    H236393   5.445   2.990   1.448  0.6976  1.2845 -0.5709
 4920TIP3   OH236394   0.955   0.896   7.091  0.9042 -0.1693 -0.5739
 4920TIP3    H136395   1.028   0.900   7.153 -1.7038  0.3440  2.7540
 4920TIP3    H236396   0.917   0.809   7.104  0.3207 -0.0672 -1.5145
 4921TIP3   OH236397   2.437   6.484   7.533 -0.3839 -0.3700 -0.3310
 4921TIP3    H136398   2.522   6.467   7.493 -1.0053 -1.7408 -1.1253
 4921TIP3    H236399   2.405   6.562   7.489  1.0934  1.1008  1.0554
 4922TIP3   OH236400   3.597   0.671   0.804 -0.6424 -0.1971 -0.0147
 4922TIP3    H136401   3.523   0.730   0.817 -1.1306 -0.3292 -1.9630
 4922TIP3    H236402   3.625   0.686   0.714  2.1217  0.2874  0.8238
 4923TIP3   OH236403   2.132   0.057   0.831 -0.5596 -0.5507 -0.2616
 4923TIP3    H136404   2.189   0.039   0.906 -2.0515 -0.3718  0.9780
 4923TIP3    H236405   2.126   0.152   0.828 -0.5384 -0.5580 -0.5974
 4924TIP3   OH236406   4.471   1.100   1.121 -0.1005 -0.1704  0.1948
 4924TIP3    H136407   4.549   1.095   1.176 -0.9296 -0.2777  1.4128
 4924TIP3    H236408   4.503   1.128   1.035  1.2193  0.1450  0.7696
 4925TIP3   OH236409   4.034   5.731   7.092 -0.2753  0.2978 -0.2494
 4925TIP3    H136410   4.125   5.714   7.068 -0.1029  2.5932 -1.4870
 4925TIP3    H236411   3.985   5.717   7.012 -1.2326 -1.9684  0.6621
 4926TIP3   OH236412   2.846   3.166   8.685  0.6474 -0.5642 -0.0757
 4926TIP3    H136413   2.776   3.218   8.722  0.1954 -1.7453  0.7977
 4926TIP3    H236414   2.823   3.157   8.592  2.7104  3.9134 -1.2880
 4927TIP3   OH236415   2.285   0.852   0.088  0.0475  0.5401  0.3633
 4927TIP3    H136416   2.319   0.902   0.014 -0.0149  0.7936  0.5047
 4927TIP3    H236417   2.191   0.846   0.071  0.1178  0.0908  0.1223
 4928TIP3   OH236418   6.128   3.577   8.654  0.4739 -0.5543  0.6205
 4928TIP3    H136419   6.168   3.661   8.630 -1.2023  0.3232  0.7548
 4928TIP3    H236420   6.202   3.522   8.681  1.7744  0.3301 -1.0034
 4929TIP3   OH236421   3.891   6.015   0.119  0.4390  0.1336  0.6225
 4929TIP3    H136422   3.848   6.100   0.119 -2.6491 -1.2995  0.1688
 4929TIP3    H236423   3.935   6.010   0.204  0.6893  2.1412  0.6471
 4930TIP3   OH236424   2.202   5.080   6.754  0.1142 -0.0229  0.7790
 4930TIP3    H136425   2.201   5.093   6.849 -1.0629 -0.1589  0.7980
 4930TIP3    H236426   2.270   5.140   6.722  1.9779 -1.4318  1.8872
 4931TIP3   OH236427   5.000   2.501   2.113 -0.1467 -0.3500  0.3829
 4931TIP3    H136428   5.010   2.447   2.034  1.4446  0.2682  0.1159
 4931TIP3    H236429   4.915   2.543   2.102 -0.9694 -1.9780  0.1051
 4932TIP3   OH236430   2.594   0.333   6.695  0.2675  0.1209  0.0847
 4932TIP3    H136431   2.646   0.350   6.617  0.3188  0.1303  0.1215
 4932TIP3    H236432   2.545   0.254   6.674  0.2555  0.1430  0.0297
 4933TIP3   OH236433   4.278   2.859   2.537 -0.1854 -0.1424  0.2777
 4933TIP3    H136434   4.285   2.952   2.519  2.2783 -0.3764 -0.3221
 4933TIP3    H236435   4.366   2.824   2.521 -1.3399 -2.8189 -1.0082
 4934TIP3   OH236436   5.679   2.534   8.309 -0.3578 -0.0251 -0.1637
 4934TIP3    H136437   5.733   2.471   8.356 -1.1426 -0.2270  0.4853
 4934TIP3    H236438   5.738   2.607   8.291  0.7797 -1.2330 -1.6095
 4935TIP3   OH236439   2.616   0.696   1.558 -0.7223  1.1187 -0.2032
 4935TIP3    H136440   2.589   0.758   1.626 -0.2849  1.6326 -0.4948
 4935TIP3    H236441   2.700   0.729   1.527 -0.4061  0.2877 -0.2539
 4936TIP3   OH236442   0.564   3.478   6.699  0.3008  0.1216 -0.5740
 4936TIP3    H136443   0.541   3.570   6.687  0.3999 -0.0781 -2.7182
 4936TIP3    H236444   0.605   3.453   6.616 -0.6154 -2.1026 -0.4308
 4937TIP3   OH236445   0.176   2.995   0.310 -0.2879  0.1720 -0.0901
 4937TIP3    H136446   0.084   3.001   0.282 -1.0174 -0.2959  2.0405
 4937TIP3    H236447   0.179   3.044   0.392  1.2816 -0.2406  0.1191
 4938TIP3   OH236448   6.244   5.474   6.658  0.0999  0.0993  0.4159
 4938TIP3    H136449   6.254   5.379   6.648  0.0326  0.2228 -0.9457
 4938TIP3    H236450   6.177   5.498   6.594 -0.4016  0.9791  1.2440
 4939TIP3   OH236451   2.024   3.050   8.096  0.2608  0.0106  0.3227
 4939TIP3    H136452   2.008   3.131   8.144 -1.5882  0.3286 -0.7255
 4939TIP3    H236453   2.083   3.075   8.024 -0.5553  0.5170 -0.1805
 4940TIP3   OH236454   4.107   3.247   6.471  0.0571  0.0103  0.5136
 4940TIP3    H136455   4.146   3.279   6.390 -1.3673 -0.1150 -0.2688
 4940TIP3    H236456   4.086   3.155   6.454 -1.3357  0.2883  0.5539
 4941TIP3   OH236457   1.564   4.989   6.241  0.4566 -0.1673  0.3566
 4941TIP3    H136458   1.631   4.942   6.290  2.3633  0.5101 -1.4305
 4941TIP3    H236459   1.609   5.019   6.162 -1.4079  2.1612  0.0616
 4942TIP3   OH236460   5.856   3.500   7.996 -0.5763 -0.1961 -0.1138
 4942TIP3    H136461   5.835   3.593   7.998  0.9876  0.2305 -1.4262
 4942TIP3    H236462   5.930   3.491   8.056  0.2577 -0.3066 -1.1501
 4943TIP3   OH236463   1.808   0.248   7.993 -0.0002 -0.0285 -0.0763
 4943TIP3    H136464   1.893   0.204   7.988  0.2570  0.3969  0.4073
 4943TIP3    H236465   1.813   0.318   7.928  1.8913  3.0727  3.0107
 4944TIP3   OH236466   2.580   1.883   2.713 -0.2516 -0.1709 -0.0922
 4944TIP3    H136467   2.581   1.825   2.789 -0.3556 -1.2464 -0.8979
 4944TIP3    H236468   2.560   1.826   2.639  0.1211  0.8122 -0.9766
 4945TIP3   OH236469   4.437   5.489   8.284 -0.0675 -0.5762  1.0271
 4945TIP3    H136470   4.407   5.508   8.195  0.9003  0.3577  0.8793
 4945TIP3    H236471   4.417   5.569   8.333 -1.3683 -1.3853  1.8798
 4946TIP3   OH236472   6.749   0.195   1.538 -0.2825  0.0971  0.1583
 4946TIP3    H136473   6.845   0.195   1.539 -0.2729  0.7061  1.1656
 4946TIP3    H236474   6.725   0.103   1.534  0.3350 -0.0350 -0.7843
 4947TIP3   OH236475   6.284   6.841   7.962  0.2714  0.3618 -0.0426
 4947TIP3    H136476   6.289   6.898   8.039 -1.3384  0.7132 -0.1671
 4947TIP3    H236477   6.202   6.865   7.919  0.1870 -1.1612 -0.8177
 4948TIP3   OH236478   2.287   0.207   1.787 -0.1106  0.8180 -0.4479
 4948TIP3    H136479   2.375   0.172   1.801 -0.7115 -2.1429 -2.9291
 4948TIP3    H236480   2.262   0.242   1.872  2.5034 -0.5616  1.0328
 4949TIP3   OH236481   6.726   4.370   2.066 -0.2571  0.0235  0.0507
 4949TIP3    H136482   6.785   4.298   2.044  0.8863  1.2358 -1.0434
 4949TIP3    H236483   6.638   4.333   2.055  0.2990 -1.2916 -0.1374
 4950TIP3   OH236484   5.404   0.679   2.274  0.0493 -0.0932  0.2340
 4950TIP3    H136485   5.398   0.762   2.322 -0.8823 -0.3651  0.6127
 4950TIP3    H236486   5.319   0.669   2.231  0.9941  0.3363 -1.8516
 4951TIP3   OH236487   4.633   6.436   1.472 -0.8126 -0.4310 -0.8443
 4951TIP3    H136488   4.676   6.410   1.553 -2.0463 -1.4152 -0.4879
 4951TIP3    H236489   4.587   6.517   1.494  2.8110  2.2236 -1.8889
 4952TIP3   OH236490   1.093   5.579   7.559  0.5138 -0.6721  0.4981
 4952TIP3    H136491   1.014   5.618   7.598  0.6811 -0.4588  0.6265
 4952TIP3    H236492   1.060   5.508   7.504  0.3093 -1.2642  1.3759
 4953TIP3   OH236493   5.024   5.189   7.512 -0.6138 -0.1536 -0.6977
 4953TIP3    H136494   4.937   5.207   7.549 -0.1390 -2.4113  1.8030
 4953TIP3    H236495   5.078   5.263   7.543 -0.7826 -0.7895  1.2933
 4954TIP3   OH236496   0.474   6.800   7.741 -0.3450  0.3427  0.0967
 4954TIP3    H136497   0.470   6.711   7.707  0.9788  0.8072 -1.3676
 4954TIP3    H236498   0.463   6.789   7.836  2.1687 -1.6496  0.2665
 4955TIP3   OH236499   5.529   4.530   0.091  0.2440 -0.5832 -0.7063
 4955TIP3    H136500   5.580   4.514   0.170  0.8201  2.2331 -0.4080
 4955TIP3    H236501   5.581   4.492   0.020  0.5430 -1.6481  0.0631
 4956TIP3   OH236502   2.431   5.342   0.991 -0.3931 -0.2606  0.4874
 4956TIP3    H136503   2.518   5.373   0.964 -0.7469  1.2837  1.0373
 4956TIP3    H236504   2.372   5.412   0.965 -1.2134 -0.3909  1.9429
 4957TIP3   OH236505   2.923   3.862   8.637 -0.1991 -0.4067  0.1291
 4957TIP3    H136506   2.837   3.878   8.675 -0.3116  1.2036 -0.7016
 4957TIP3    H236507   2.984   3.904   8.698 -0.3044  1.3118 -0.8650
 4958TIP3   OH236508   4.495   6.727   0.317  0.4206 -0.5603  1.0287
 4958TIP3    H136509   4.409   6.689   0.336 -0.2077  0.1053 -0.3661
 4958TIP3    H236510   4.488   6.818   0.346  0.0537 -0.0344 -0.6046
 4959TIP3   OH236511   4.556   4.285   0.405 -0.7985 -0.0244  0.6161
 4959TIP3    H136512   4.633   4.256   0.356 -0.3714 -1.3706  2.0195
 4959TIP3    H236513   4.591   4.317   0.488 -1.7895 -1.7676  1.7720
 4960TIP3   OH236514   5.400   6.588   8.185 -0.1495 -0.5132  0.4338
 4960TIP3    H136515   5.375   6.634   8.105  0.7570 -0.8133 -0.0306
 4960TIP3    H236516   5.392   6.654   8.254  4.2105  1.4277 -0.5935
 4961TIP3   OH236517   6.287   6.648   6.420 -0.1511 -0.0238  0.2195
 4961TIP3    H136518   6.312   6.666   6.329  1.8289 -1.8026  0.3108
 4961TIP3    H236519   6.371   6.644   6.467 -0.8493 -2.3487  1.4291
 4962TIP3   OH236520   1.527   4.004   6.930  0.2014  0.0577 -0.1269
 4962TIP3    H136521   1.474   4.082   6.944 -0.4785  0.1052 -2.5478
 4962TIP3    H236522   1.613   4.028   6.966 -0.8451  0.6334  2.2020
 4963TIP3   OH236523   3.925   5.638   1.413  0.2056  0.0352 -0.5051
 4963TIP3    H136524   3.912   5.667   1.323 -2.8826  2.0033  0.4520
 4963TIP3    H236525   3.974   5.708   1.454  1.7976 -0.9556 -0.6121
 4964TIP3   OH236526   1.626   2.264   6.162  0.3802  0.2597 -0.1766
 4964TIP3    H136527   1.695   2.291   6.101  1.1509  0.9258  0.9408
 4964TIP3    H236528   1.659   2.183   6.200  0.1374  0.1197 -0.2613
 4965TIP3   OH236529   3.670   0.382   1.668 -0.2580 -0.4422 -0.0960
 4965TIP3    H136530   3.691   0.387   1.574  1.0112  0.3492  0.2049
 4965TIP3    H236531   3.735   0.323   1.704  0.8521  1.1863  0.6810
 4966TIP3   OH236532   6.817   0.522   7.237  0.4738 -0.1057 -0.3935
 4966TIP3    H136533   6.824   0.428   7.252 -2.1022 -0.1594  0.9665
 4966TIP3    H236534   6.751   0.531   7.168 -1.7264  0.6914  1.6562
 4967TIP3   OH236535   4.923   3.340   8.403 -0.2963 -0.0963 -0.3364
 4967TIP3    H136536   4.932   3.307   8.493 -0.2020 -0.4469 -0.4766
 4967TIP3    H236537   4.947   3.433   8.410 -1.4835  0.1991  0.2357
 4968TIP3   OH236538   5.313   6.815   7.238 -0.2646 -0.1764  0.1173
 4968TIP3    H136539   5.352   6.748   7.181 -0.2546 -0.8266  0.8618
 4968TIP3    H236540   5.292   6.768   7.319  1.6063  1.1134  1.4391
 4969TIP3   OH236541   5.385   1.966   7.960 -0.0929  0.0076 -0.0776
 4969TIP3    H136542   5.447   2.015   7.906  0.1461 -0.5319 -0.3019
 4969TIP3    H236543   5.304   1.964   7.909 -0.1735  0.3663  0.0362
 4970TIP3   OH236544   2.412   1.063   7.919 -0.6364 -0.0606 -0.8808
 4970TIP3    H136545   2.365   0.984   7.947  0.4543 -0.5616 -0.4089
 4970TIP3    H236546   2.421   1.054   7.824  1.6433 -1.7748 -0.5794
 4971TIP3   OH236547   2.736   1.724   7.589  0.4927  0.0894  0.5213
 4971TIP3    H136548   2.758   1.634   7.565 -0.6210 -0.2118  0.5792
 4971TIP3    H236549   2.713   1.766   7.506 -0.7097 -0.1922  0.6892
 4972TIP3   OH236550   1.495   0.876   7.956  0.1384 -0.3252 -0.7060
 4972TIP3    H136551   1.562   0.846   7.894 -0.8319 -0.3893 -1.7374
 4972TIP3    H236552   1.456   0.953   7.914  0.2029  0.2903  0.3242
 4973TIP3   OH236553   2.953   2.334   8.572  0.5956  0.4765  0.0647
 4973TIP3    H136554   3.020   2.350   8.504 -0.4687  0.1433 -1.1054
 4973TIP3    H236555   2.928   2.242   8.560 -0.1840  0.6391  0.3762
 4974TIP3   OH236556   6.429   1.561   0.110 -0.2381 -0.7404  0.7144
 4974TIP3    H136557   6.432   1.638   0.053 -1.1833  0.0451  1.6857
 4974TIP3    H236558   6.462   1.490   0.056 -0.1591  0.1823 -0.4870
 4975TIP3   OH236559   2.705   1.981   1.248 -0.4348  0.7201  0.6642
 4975TIP3    H136560   2.650   2.055   1.221  1.2159  1.8034  0.0866
 4975TIP3    H236561   2.725   1.998   1.340  2.0654  2.5235 -0.0925
 4976TIP3   OH236562   3.515   0.374   0.618  0.1057  0.4360  0.3202
 4976TIP3    H136563   3.455   0.425   0.672 -0.5109  1.8205 -1.5554
 4976TIP3    H236564   3.522   0.290   0.663 -0.3865  1.4871  2.4948
 4977TIP3   OH236565   4.913   1.180   0.652 -0.3127 -0.0004 -0.2633
 4977TIP3    H136566   4.903   1.235   0.575 -0.4787  0.6812  0.2345
 4977TIP3    H236567   4.827   1.180   0.694 -0.2585 -0.4703 -0.1370
 4978TIP3   OH236568   5.307   3.733   8.133 -0.2440 -0.0014 -0.2887
 4978TIP3    H136569   5.238   3.721   8.198 -0.0433  1.8050  0.3255
 4978TIP3    H236570   5.385   3.698   8.175 -0.3068  0.2755  0.0682
 4979TIP3   OH236571   3.520   4.141   1.053  0.2921 -0.0648  0.2456
 4979TIP3    H136572   3.529   4.180   1.140  0.2598  0.1934  0.1352
 4979TIP3    H236573   3.522   4.216   0.993  2.1658 -0.3663 -0.1207
 4980TIP3   OH236574   1.730   4.384   7.836 -0.3830 -0.1777 -0.6345
 4980TIP3    H136575   1.742   4.433   7.917  1.2606 -0.9909 -0.3459
 4980TIP3    H236576   1.720   4.293   7.864 -0.8280 -0.3439 -1.3008
 4981TIP3   OH236577   2.524   2.176   7.260  0.7934 -0.3222  0.0713
 4981TIP3    H136578   2.577   2.098   7.246 -0.8404 -1.5352  0.4392
 4981TIP3    H236579   2.441   2.144   7.295 -0.3751  1.4648 -0.8598
 4982TIP3   OH236580   1.360   1.914   0.179  0.2373 -0.2977  0.0043
 4982TIP3    H136581   1.438   1.939   0.129  1.1776 -1.3381  0.9101
 4982TIP3    H236582   1.379   1.942   0.268 -1.2725  1.1978 -0.0846
 4983TIP3   OH236583   5.911   6.567   0.873 -0.4724 -0.0518 -0.0360
 4983TIP3    H136584   5.888   6.648   0.828 -0.6379 -0.7027 -1.1518
 4983TIP3    H236585   5.828   6.534   0.907 -0.5307 -0.1743 -0.2963
 4984TIP3   OH236586   3.051   0.935   7.930  0.3536 -0.0493 -0.8834
 4984TIP3    H136587   3.046   0.909   7.838  0.3542  1.4218 -1.3183
 4984TIP3    H236588   3.136   0.979   7.938  0.1047  0.3309 -0.3093
 4985TIP3   OH236589   1.699   4.028   0.949  0.3504  0.1636  0.7109
 4985TIP3    H136590   1.682   4.076   1.030  0.9952  1.5427  0.0810
 4985TIP3    H236591   1.660   4.083   0.880  1.2338 -0.1277 -0.0491
 4986TIP3   OH236592   0.058   2.932   8.050  0.3718 -0.4758  0.3923
 4986TIP3    H136593   0.021   2.866   7.992  2.4237 -1.4151  0.0705
 4986TIP3    H236594   0.149   2.905   8.062  0.3558  0.3470  3.0907
 4987TIP3   OH236595   6.836   4.575   0.441 -0.4564  0.3483  0.5613
 4987TIP3    H136596   6.804   4.648   0.389 -1.8371 -0.5901  0.0318
 4987TIP3    H236597   6.903   4.534   0.386 -0.1293  0.8277  0.5953
 4988TIP3   OH236598   2.637   5.084   1.088 -0.4667  0.9012  0.2207
 4988TIP3    H136599   2.559   5.036   1.115 -1.6696  2.6179  0.0052
 4988TIP3    H236600   2.660   5.136   1.165  2.1074 -1.4726  1.2009
 4989TIP3   OH236601   0.446   5.441   1.585  0.2923 -0.3831  0.2347
 4989TIP3    H136602   0.388   5.454   1.660 -0.4526 -0.9372 -0.2366
 4989TIP3    H236603   0.531   5.423   1.625  0.0361 -0.0990  0.9384
 4990TIP3   OH236604   3.622   6.409   7.520 -0.3044 -0.4100 -0.5981
 4990TIP3    H136605   3.629   6.447   7.607  2.0206 -0.0709 -0.8462
 4990TIP3    H236606   3.528   6.398   7.505 -0.8727  1.6968  0.9983
 4991TIP3   OH236607   1.908   2.084   8.438 -0.2617 -0.1723  0.1012
 4991TIP3    H136608   1.906   1.994   8.469 -0.8853 -0.5904 -1.0986
 4991TIP3    H236609   1.914   2.077   8.343 -0.5670  1.0522 -0.0332
 4992TIP3   OH236610   1.763   4.195   0.536 -0.9181  0.6462  0.3153
 4992TIP3    H136611   1.678   4.176   0.575  0.1342 -0.2333  2.3361
 4992TIP3    H236612   1.822   4.203   0.611  1.4040 -1.9497 -1.0482
 4993TIP3   OH236613   0.422   2.368   6.797 -0.2648  0.7101 -0.6322
 4993TIP3    H136614   0.396   2.284   6.758 -0.5690  0.4634  0.0820
 4993TIP3    H236615   0.462   2.417   6.725  0.4783 -0.2929 -0.9322
 4994TIP3   OH236616   6.208   1.958   1.654  0.1988  0.6776 -0.2472
 4994TIP3    H136617   6.292   1.945   1.609 -0.2882  0.8178 -1.2243
 4994TIP3    H236618   6.228   1.946   1.746  1.2580  0.5039 -0.4890
 4995TIP3   OH236619   4.521   0.224   1.350  0.4386  0.3942 -0.0790
 4995TIP3    H136620   4.429   0.201   1.335  0.5238  1.0407 -1.7896
 4995TIP3    H236621   4.551   0.262   1.267  2.1144  0.6743  0.6015
 4996TIP3   OH236622   4.625   6.159   7.845 -0.4088 -0.5291  0.1017
 4996TIP3    H136623   4.622   6.066   7.865  0.5369 -0.3911  0.9647
 4996TIP3    H236624   4.715   6.185   7.863 -0.8970  0.7602  0.8355
 4997TIP3   OH236625   1.232   1.006   7.813 -0.0225 -0.0378 -0.6635
 4997TIP3    H136626   1.272   1.082   7.856  1.1202 -0.2061 -1.3769
 4997TIP3    H236627   1.175   0.968   7.880 -0.0321  1.0144 -0.0526
 4998TIP3   OH236628   6.214   3.640   6.784 -0.0368 -0.5262  0.3050
 4998TIP3    H136629   6.122   3.661   6.803 -1.0224 -2.4532 -1.7774
 4998TIP3    H236630   6.264   3.689   6.849 -2.4252  1.8846  0.5221
 4999TIP3   OH236631   2.593   2.418   0.468  0.1111  0.0226  0.1628
 4999TIP3    H136632   2.506   2.385   0.446 -0.0156  0.0528  0.6098
 4999TIP3    H236633   2.596   2.416   0.564 -0.0055  1.5479  0.2289
 5000TIP3   OH236634   4.948   0.531   8.141  0.0668  0.0598  0.1841
 5000TIP3    H136635   4.998   0.455   8.110 -0.1744  0.6577 -1.7929
 5000TIP3    H236636   4.921   0.507   8.230  2.6729 -0.8418  0.8442
 5001TIP3   OH236637   0.340   1.885   6.920  0.5208  0.9264 -0.0533
 5001TIP3    H136638   0.380   1.799   6.909 -0.1018  0.9038 -2.9653
 5001TIP3    H236639   0.268   1.870   6.982  0.7263 -0.5481 -0.1334
 5002TIP3   OH236640   4.166   0.601   1.555 -0.3347 -0.2072 -0.2415
 5002TIP3    H136641   4.147   0.647   1.473 -1.2845 -4.2571 -2.5905
 5002TIP3    H236642   4.080   0.587   1.594 -0.3761 -1.8898 -0.8380
 5003TIP3   OH236643   1.586   1.237   1.471 -0.2549  0.0781 -0.3402
 5003TIP3    H136644   1.529   1.176   1.424 -0.6387  0.7803 -0.7867
 5003TIP3    H236645   1.673   1.222   1.434 -0.2772 -0.4557 -0.1886
 5004TIP3   OH236646   3.644   1.585   1.627  0.6216 -0.2582  0.6401
 5004TIP3    H136647   3.708   1.632   1.574  0.0098  0.1679  0.2695
 5004TIP3    H236648   3.569   1.572   1.569  0.0481 -0.0225  1.3155
 5005TIP3   OH236649   3.528   3.750   6.091 -0.1008 -1.0764 -0.0666
 5005TIP3    H136650   3.609   3.800   6.080 -0.4698 -0.5750 -0.5851
 5005TIP3    H236651   3.541   3.700   6.171  0.1882  0.0546  0.6154
 5006TIP3   OH236652   1.454   0.991   0.600 -0.4753 -0.0010 -0.3099
 5006TIP3    H136653   1.439   1.030   0.686 -1.2991 -1.2829  0.1460
 5006TIP3    H236654   1.514   0.918   0.616 -1.3750 -0.8401 -0.6518
 5007TIP3   OH236655   6.366   6.401   1.219 -0.0234  0.4340 -0.3257
 5007TIP3    H136656   6.348   6.460   1.291 -1.1147 -0.5444  0.2407
 5007TIP3    H236657   6.394   6.320   1.260 -1.4332 -0.4025 -0.9325
 5008TIP3   OH236658   2.937   3.455   0.722  0.4190  0.1449  0.1167
 5008TIP3    H136659   2.875   3.386   0.698 -0.1812  0.0098  1.9229
 5008TIP3    H236660   2.913   3.529   0.665 -0.9139 -0.1575  0.2516
 5009TIP3   OH236661   0.723   1.888   6.508  0.4536 -0.9743  0.4607
 5009TIP3    H136662   0.717   1.873   6.414 -0.3492  0.1108  0.3192
 5009TIP3    H236663   0.808   1.930   6.520  0.1868 -0.3042  0.0858
 5010TIP3   OH236664   4.228   5.573   0.662  0.1550 -0.4135  0.2067
 5010TIP3    H136665   4.280   5.496   0.682 -1.4486 -1.3579  0.9407
 5010TIP3    H236666   4.214   5.616   0.746  0.2720  0.1698 -0.0653
 5011TIP3   OH236667   0.196   0.194   6.958  0.5973 -0.0215  0.4529
 5011TIP3    H136668   0.128   0.128   6.945  0.6743  0.2173 -1.4264
 5011TIP3    H236669   0.245   0.163   7.035 -0.2821 -1.3567  0.5115
 5012TIP3   OH236670   5.516   1.584   7.530  0.3268  0.5172  0.3852
 5012TIP3    H136671   5.479   1.510   7.578 -0.2372  1.6970  1.8310
 5012TIP3    H236672   5.519   1.554   7.439 -1.6425 -0.6344  0.6418
 5013TIP3   OH236673   0.019   5.058   1.834  0.1155 -0.4297 -0.0306
 5013TIP3    H136674   0.069   4.990   1.879 -1.4892 -1.3209  0.5121
 5013TIP3    H236675   0.024   5.134   1.892  1.5578 -0.1929 -0.4294
 5014TIP3   OH236676   4.830   5.888   7.776  0.4947  0.3456  0.2859
 5014TIP3    H136677   4.906   5.862   7.827  0.2314  0.8350  0.9415
 5014TIP3    H236678   4.756   5.883   7.837 -0.3757 -2.1040 -0.8421
 5015TIP3   OH236679   0.521   4.648   6.585  0.3714 -0.6024  0.2727
 5015TIP3    H136680   0.561   4.732   6.563 -1.6755  0.3128 -0.1394
 5015TIP3    H236681   0.595   4.586   6.585  1.4819  0.5204 -2.7922
 5016TIP3   OH236682   4.523   2.873   8.424  0.0628 -0.2920 -0.7077
 5016TIP3    H136683   4.516   2.876   8.328 -0.6956 -0.4403 -0.6572
 5016TIP3    H236684   4.433   2.873   8.455  0.2972  0.8871  0.0469
 5017TIP3   OH236685   0.977   6.790   7.908 -0.2591 -0.1275 -0.1348
 5017TIP3    H136686   0.972   6.816   7.816 -0.0773 -0.8855 -0.3613
 5017TIP3    H236687   0.886   6.782   7.936 -0.3289 -1.4605 -0.6994
 5018TIP3   OH236688   3.986   6.404   0.865  0.3825 -0.2881 -0.3265
 5018TIP3    H136689   3.961   6.492   0.839  1.0156 -0.2498 -0.8665
 5018TIP3    H236690   3.904   6.361   0.888 -0.1805 -0.1287 -1.8707
 5019TIP3   OH236691   5.845   0.609   0.368 -0.3604 -0.5810  0.0229
 5019TIP3    H136692   5.770   0.583   0.421 -2.2703 -2.2652 -3.1912
 5019TIP3    H236693   5.813   0.682   0.315  1.3382  0.7593  0.7477
 5020TIP3   OH236694   0.080   2.726   1.562 -0.2535  0.1333 -0.2512
 5020TIP3    H136695   0.072   2.816   1.529 -0.8606  0.1847  0.0054
 5020TIP3    H236696   0.006   2.680   1.523 -1.2173  0.2923  1.3022
 5021TIP3   OH236697   2.706   5.386   6.154 -0.1095  0.1024  0.1577
 5021TIP3    H136698   2.800   5.396   6.138 -0.0766  1.9138  1.2394
 5021TIP3    H236699   2.664   5.435   6.083 -0.1790  0.7550  0.6416
 5022TIP3   OH236700   0.080   6.825   1.484 -0.5425  0.5868 -0.4616
 5022TIP3    H136701   0.050   6.914   1.464  0.0013  0.0626 -4.2232
 5022TIP3    H236702   0.097   6.785   1.399 -1.9705 -3.6165  0.9834
 5023TIP3   OH236703   4.710   6.850   0.511  0.9783 -0.0974  0.0435
 5023TIP3    H136704   4.648   6.850   0.438  1.6939  0.3698 -0.5805
 5023TIP3    H236705   4.659   6.883   0.585 -0.4606 -2.8612  0.4280
 5024TIP3   OH236706   4.446   1.930   0.748  0.0703 -0.3118 -0.3813
 5024TIP3    H136707   4.445   1.835   0.761 -0.0912 -0.0343  2.2110
 5024TIP3    H236708   4.539   1.952   0.741  0.2611 -0.4740  1.2356
 5025TIP3   OH236709   6.678   2.566   0.996 -0.0014 -0.1228 -0.8073
 5025TIP3    H136710   6.731   2.514   0.936 -1.5845 -1.5621 -1.0022
 5025TIP3    H236711   6.684   2.656   0.962  1.6045 -0.3867 -1.2925
 5026TIP3   OH236712   2.791   4.042   6.051  0.3299 -0.1693 -0.0541
 5026TIP3    H136713   2.809   3.989   6.129 -1.7313  1.2862  1.5268
 5026TIP3    H236714   2.708   4.008   6.018  0.6057  0.0013 -0.9405
 5027TIP3   OH236715   6.229   6.846   2.508 -0.3824  0.5414  0.3686
 5027TIP3    H136716   6.163   6.823   2.443  0.8642  1.2135 -1.2249
 5027TIP3    H236717   6.195   6.926   2.549 -1.1216  0.1850  0.4686
 5028TIP3   OH236718   1.468   2.197   7.294  0.1148 -0.7440 -0.0779
 5028TIP3    H136719   1.423   2.127   7.247 -2.8496 -0.7871  2.4644
 5028TIP3    H236720   1.507   2.153   7.370  2.6450 -0.3110 -1.0234
 5029TIP3   OH236721   3.946   3.260   6.720 -0.0715 -0.2831 -0.3437
 5029TIP3    H136722   4.020   3.230   6.773  2.1048  1.6484 -2.0978
 5029TIP3    H236723   3.972   3.245   6.630 -1.8277  0.4925 -1.0379
 5030TIP3   OH236724   5.339   6.047   8.224  0.0501 -0.0714 -0.2245
 5030TIP3    H136725   5.254   6.077   8.192 -1.0110 -1.3159  1.2983
 5030TIP3    H236726   5.401   6.113   8.192 -1.5907  1.3685 -0.5861
 5031TIP3   OH236727   6.221   4.398   8.559  0.3291 -0.4809  0.5073
 5031TIP3    H136728   6.255   4.453   8.488  1.7427  0.1166  1.5824
 5031TIP3    H236729   6.144   4.445   8.591 -0.7764 -1.1427 -1.0834
 5032TIP3   OH236730   1.183   3.825   8.109  0.0523  0.3263  0.5018
 5032TIP3    H136731   1.133   3.874   8.043  0.0515 -0.3140  0.0239
 5032TIP3    H236732   1.133   3.837   8.190 -0.4864  0.2902  0.1788
 5033TIP3   OH236733   2.052   0.543   8.619 -0.0595  0.7465 -0.5390
 5033TIP3    H136734   2.045   0.577   8.708 -1.1200 -0.9781  0.0606
 5033TIP3    H236735   2.146   0.531   8.605  0.0672  0.3955  0.5860
 5034TIP3   OH236736   0.507   3.407   0.267  0.0337  0.1259  0.4033
 5034TIP3    H136737   0.537   3.359   0.190 -0.8371 -0.2746  0.3106
 5034TIP3    H236738   0.516   3.345   0.339  1.8761  0.8383  0.8434
 5035TIP3   OH236739   6.496   2.489   0.187 -0.5105  0.7163 -0.0275
 5035TIP3    H136740   6.400   2.483   0.196 -0.7005  3.0179  0.0890
 5035TIP3    H236741   6.527   2.400   0.200 -2.6619 -0.1198 -0.2349
 5036TIP3   OH236742   2.316   5.934   6.869  0.2286 -0.2113  0.6468
 5036TIP3    H136743   2.400   5.888   6.866 -0.2354 -1.0967  0.8607
 5036TIP3    H236744   2.299   5.947   6.962  0.9077  1.4711  0.5707
 5037TIP3   OH236745   3.128   3.752   7.490 -0.5156  0.0696  0.2265
 5037TIP3    H136746   3.115   3.662   7.461  0.2981 -0.1371  0.4618
 5037TIP3    H236747   3.147   3.745   7.583 -0.4567  0.4815  0.2485
 5038TIP3   OH236748   2.615   1.669   8.032  0.1394 -0.0119 -0.0665
 5038TIP3    H136749   2.535   1.658   8.083  0.8266 -0.1098  1.0098
 5038TIP3    H236750   2.686   1.653   8.094  1.0193  1.1096 -0.7369
 5039TIP3   OH236751   3.202   3.058   1.882  0.1966 -0.6678  0.3883
 5039TIP3    H136752   3.189   2.999   1.956 -1.1453  1.5719  2.0617
 5039TIP3    H236753   3.289   3.097   1.897  0.3744 -0.9905  0.1993
 5040TIP3   OH236754   6.010   2.026   8.412  0.3993 -0.3182  0.2025
 5040TIP3    H136755   5.958   1.981   8.345  0.9769 -2.4820  1.1279
 5040TIP3    H236756   6.064   2.088   8.363 -1.0591  0.0238 -1.0440
 5041TIP3   OH236757   5.965   5.139   7.524  0.6546  0.5662  0.0301
 5041TIP3    H136758   5.954   5.185   7.607 -1.9319 -0.9588  0.6114
 5041TIP3    H236759   6.057   5.112   7.524  1.1629  2.0816  1.5398
 5042TIP3   OH236760   3.631   5.482   7.773  0.0024 -0.1445  0.1744
 5042TIP3    H136761   3.589   5.397   7.783 -0.0699  0.0247  1.4179
 5042TIP3    H236762   3.723   5.461   7.756  0.0651 -0.4615  0.9000
 5043TIP3   OH236763   2.993   6.589   0.086 -0.4125  0.0025  0.1834
 5043TIP3    H136764   2.998   6.507   0.037 -1.1661  0.7183 -1.1504
 5043TIP3    H236765   3.075   6.634   0.068 -0.2917 -0.1455  0.3581
 5044TIP3   OH236766   2.050   2.323   1.484  0.3934  0.8851  0.2991
 5044TIP3    H136767   2.015   2.411   1.496 -1.0196  0.3631  0.2734
 5044TIP3    H236768   2.101   2.306   1.563  0.6038  1.6890  0.3401
 5045TIP3   OH236769   6.283   4.516   1.087  0.1902 -0.5500 -0.0376
 5045TIP3    H136770   6.329   4.599   1.084  1.5045 -1.2772 -1.4485
 5045TIP3    H236771   6.265   4.501   1.180  0.4267  1.0148  0.2794
 5046TIP3   OH236772   2.239   1.448   0.345 -0.5661  0.5185 -0.5168
 5046TIP3    H136773   2.186   1.507   0.399  1.5986  3.4997 -1.3935
 5046TIP3    H236774   2.260   1.375   0.404 -0.8387  2.1040  1.6802
 5047TIP3   OH236775   2.942   5.587   1.591 -0.7442 -0.1230  0.0310
 5047TIP3    H136776   2.985   5.507   1.621 -1.0731 -0.9027 -1.5088
 5047TIP3    H236777   2.974   5.655   1.651 -0.9181 -1.4853  1.7451
 5048TIP3   OH236778   3.761   5.695   8.250  0.0286  0.0278  0.7073
 5048TIP3    H136779   3.672   5.661   8.243 -0.6710  1.1965  2.9586
 5048TIP3    H236780   3.760   5.774   8.195  0.0822 -0.6261 -0.2619
 5049TIP3   OH236781   0.250   4.583   0.404 -0.4382 -0.5193 -0.7053
 5049TIP3    H136782   0.303   4.552   0.331  0.3086 -1.6521  0.2804
 5049TIP3    H236783   0.215   4.503   0.444  0.8448 -0.0954  1.4109
 5050TIP3   OH236784   3.621   5.715   7.326 -0.3459 -0.1441 -0.0529
 5050TIP3    H136785   3.620   5.705   7.230  0.7440 -0.8898 -0.0052
 5050TIP3    H236786   3.644   5.628   7.359  0.6527  0.4275  0.8191
 5051TIP3   OH236787   4.454   5.322   1.474  0.0885  0.0430 -0.3767
 5051TIP3    H136788   4.473   5.393   1.536 -1.4262 -0.3106  0.5507
 5051TIP3    H236789   4.414   5.253   1.527  0.4797 -1.0568 -1.4530
 5052TIP3   OH236790   2.719   0.178   2.321  1.0118  0.1026  0.0947
 5052TIP3    H136791   2.726   0.128   2.403  1.5380  1.1281  0.7002
 5052TIP3    H236792   2.761   0.262   2.341  0.8701  0.4840 -1.1429
 5053TIP3   OH236793   4.164   3.553   1.390  0.6974 -0.5825 -0.3017
 5053TIP3    H136794   4.107   3.609   1.336  3.5430 -0.1717 -3.1653
 5053TIP3    H236795   4.249   3.597   1.389  1.4814 -1.7860  2.7829
 5054TIP3   OH236796   6.724   2.034   6.538 -0.1107  0.6631  0.0413
 5054TIP3    H136797   6.659   2.052   6.606  0.0417  0.8509  0.1345
 5054TIP3    H236798   6.713   1.940   6.520  0.6098  0.3452  1.1196
 5055TIP3   OH236799   0.772   0.962   7.409  0.0846  0.2238 -0.0704
 5055TIP3    H136800   0.838   1.031   7.404  1.1352 -0.7824 -0.6864
 5055TIP3    H236801   0.748   0.945   7.317  3.3433 -3.4007 -0.5248
 5056TIP3   OH236802   0.297   4.586   6.181 -0.0567  0.3784 -0.4333
 5056TIP3    H136803   0.357   4.514   6.197  0.3924  0.9835  0.7678
 5056TIP3    H236804   0.330   4.628   6.102  1.8197  1.3723  0.8147
 5057TIP3   OH236805   0.013   6.567   7.644 -0.9920  0.1977  0.0288
 5057TIP3    H136806  -0.081   6.551   7.633 -1.0483  0.6316 -0.1575
 5057TIP3    H236807   0.043   6.497   7.702 -1.2978 -0.3333 -0.4412
 5058TIP3   OH236808   1.149   0.222   0.066 -0.4995 -0.2177 -0.8983
 5058TIP3    H136809   1.218   0.281   0.094 -1.1777  0.7540 -1.2187
 5058TIP3    H236810   1.176   0.194  -0.022 -0.6974  0.4876 -1.1957
 5059TIP3   OH236811   6.106   3.754   2.048  0.0622  0.4576  0.4701
 5059TIP3    H136812   6.162   3.698   1.995 -1.8422  0.0422 -1.2377
 5059TIP3    H236813   6.029   3.700   2.065 -0.0927  1.1937  2.2651
 5060TIP3   OH236814   0.136   6.119   0.411  0.5988  0.1216  0.4045
 5060TIP3    H136815   0.117   6.193   0.354 -0.6574  0.8424  1.6985
 5060TIP3    H236816   0.231   6.105   0.402  0.3944 -0.0318 -2.0679
 5061TIP3   OH236817   3.905   5.344   0.456  0.2981  0.1689 -0.2243
 5061TIP3    H136818   3.853   5.278   0.411 -2.1246  2.4153 -0.9672
 5061TIP3    H236819   3.851   5.372   0.530  0.5477  2.2731 -0.7627
 5062TIP3   OH236820   0.345   1.201   1.039  0.1770  0.4256  0.4896
 5062TIP3    H136821   0.342   1.240   1.127 -0.6735  1.0740  0.1923
 5062TIP3    H236822   0.330   1.274   0.980  2.8915  0.3901 -0.3545
 5063TIP3   OH236823   4.728   2.042   7.520  0.4101 -1.0354  0.0022
 5063TIP3    H136824   4.764   2.128   7.543  0.9858 -0.5484 -2.4746
 5063TIP3    H236825   4.635   2.048   7.541  0.2745  0.5273 -0.9123
 5064TIP3   OH236826   1.068   0.303   7.189  0.1682  0.3355  0.3105
 5064TIP3    H136827   1.130   0.254   7.243 -1.2237  0.1662  1.8487
 5064TIP3    H236828   0.988   0.251   7.190 -0.3995  1.1423 -0.6015
 5065TIP3   OH236829   5.113   0.945   7.524  0.0393 -0.1025 -0.2955
 5065TIP3    H136830   5.044   0.995   7.481 -0.1279 -0.6537 -0.6816
 5065TIP3    H236831   5.175   0.926   7.453  1.0995  1.2304  0.2325
 5066TIP3   OH236832   4.810   0.705   0.978  0.6009  0.1572  0.4782
 5066TIP3    H136833   4.806   0.801   0.972 -0.7462  0.1922  1.6067
 5066TIP3    H236834   4.896   0.683   0.942  1.8579  1.9705  2.1414
 5067TIP3   OH236835   4.993   0.248   0.888  0.3946  0.1145 -0.1413
 5067TIP3    H136836   4.905   0.213   0.902  0.0310  1.2224  0.4502
 5067TIP3    H236837   4.989   0.288   0.801  0.7036 -0.9461 -0.6608
 5068TIP3   OH236838   1.865   1.061   1.237  0.0669 -0.4445  0.0896
 5068TIP3    H136839   1.947   1.037   1.279  1.1651 -0.0976 -1.7580
 5068TIP3    H236840   1.876   1.154   1.214 -1.8201  0.3284  1.9415
 5069TIP3   OH236841   2.663   5.479   0.554  0.1527 -0.2409 -0.6503
 5069TIP3    H136842   2.633   5.399   0.509  1.2186 -0.2946 -1.3224
 5069TIP3    H236843   2.687   5.449   0.642  1.2900 -0.8513 -1.1399
 5070TIP3   OH236844   0.386   6.397   0.798  0.2455 -0.5291 -0.5632
 5070TIP3    H136845   0.313   6.460   0.795 -0.4224 -1.0799  1.6281
 5070TIP3    H236846   0.348   6.319   0.838  2.2123 -0.4927  1.6243
 5071TIP3   OH236847   1.120   2.176   7.110  0.4671 -0.6987  0.2872
 5071TIP3    H136848   1.197   2.233   7.103 -0.0976  0.1503  0.8809
 5071TIP3    H236849   1.132   2.112   7.040  1.3931 -0.1967 -0.0377
 5072TIP3   OH236850   0.991   2.571   0.822 -0.3423  1.1922 -0.1707
 5072TIP3    H136851   0.985   2.547   0.730 -2.1360  0.1818  0.1615
 5072TIP3    H236852   1.073   2.532   0.852 -0.4669  0.2546 -1.0029
 5073TIP3   OH236853   5.752   6.505   1.514  0.4606  0.1433  0.4728
 5073TIP3    H136854   5.744   6.521   1.608  1.3596 -1.7766  0.9090
 5073TIP3    H236855   5.779   6.590   1.478  1.4193  0.5814  2.1218
 5074TIP3   OH236856   6.270   6.739   1.388 -0.0905 -0.2233 -0.3737
 5074TIP3    H136857   6.299   6.735   1.296  1.2280 -0.0641  0.0094
 5074TIP3    H236858   6.333   6.798   1.430  1.5932 -3.0384  1.4082
 5075TIP3   OH236859   2.650   1.637   7.053  0.2410 -0.7720  0.0185
 5075TIP3    H136860   2.637   1.560   6.997 -0.8321 -0.7408  0.2126
 5075TIP3    H236861   2.572   1.690   7.040  0.2134 -0.5112  1.1559
 5076TIP3   OH236862   0.807   4.630   1.831  0.2239  0.2685  0.4376
 5076TIP3    H136863   0.735   4.623   1.893  0.5337 -0.1363  0.7582
 5076TIP3    H236864   0.857   4.705   1.862  0.7557 -0.3367  1.0916
 5077TIP3   OH236865   0.917   4.779   6.265  0.3536  0.0919 -0.0385
 5077TIP3    H136866   0.966   4.855   6.298  1.5626 -0.4149 -0.6026
 5077TIP3    H236867   0.963   4.753   6.185 -1.0460 -0.2255 -0.7710
 5078TIP3   OH236868   0.274   3.749   8.097  0.1599 -0.1990  0.1664
 5078TIP3    H136869   0.343   3.684   8.110 -0.1740 -0.5266  0.3373
 5078TIP3    H236870   0.243   3.769   8.185 -0.5282 -0.6802  0.0438
 5079TIP3   OH236871   5.752   1.720   1.332 -0.4543  0.1501 -0.1035
 5079TIP3    H136872   5.840   1.758   1.334  0.2011 -1.3148  1.9871
 5079TIP3    H236873   5.746   1.679   1.245  0.8101  0.4981 -0.3762
 5080TIP3   OH236874   2.238   0.063   8.165 -0.2793  0.1439 -0.1106
 5080TIP3    H136875   2.320   0.110   8.147 -1.2400  1.2938 -1.8253
 5080TIP3    H236876   2.224   0.073   8.259  1.7547 -0.4850  0.3021
 5081TIP3   OH236877   5.554   2.068   0.815  0.3048  0.5950  0.3432
 5081TIP3    H136878   5.605   2.143   0.845  0.0401  0.6795  0.5918
 5081TIP3    H236879   5.604   2.032   0.743 -0.3756  2.0320 -0.9182
 5082TIP3   OH236880   0.652   4.823   7.558 -0.2607  0.2145 -0.3357
 5082TIP3    H136881   0.596   4.761   7.511  0.0856 -0.0350 -0.4216
 5082TIP3    H236882   0.704   4.769   7.617 -0.0225  0.4340 -0.3436
 5083TIP3   OH236883   0.006   6.113   2.485  0.3009 -0.1154 -0.5982
 5083TIP3    H136884  -0.014   6.179   2.419  1.5262 -0.7061 -1.6263
 5083TIP3    H236885   0.102   6.108   2.485  0.2504 -2.1025 -0.8186
 5084TIP3   OH236886   0.492   5.941   1.261  0.2095 -0.4445  0.7382
 5084TIP3    H136887   0.408   5.982   1.239 -0.2275 -0.4447  2.2728
 5084TIP3    H236888   0.482   5.851   1.232 -0.8484 -0.7834  2.0135
 5085TIP3   OH236889   4.144   0.536   0.751 -0.1891 -0.5957  0.0755
 5085TIP3    H136890   4.129   0.595   0.825 -0.4695 -0.5931  0.0189
 5085TIP3    H236891   4.237   0.544   0.732 -0.3961  0.5415 -0.5355
 5086TIP3   OH236892   1.820   1.353   2.614 -0.1434 -0.0236  0.1268
 5086TIP3    H136893   1.770   1.435   2.619 -1.1803 -0.6199  0.0098
 5086TIP3    H236894   1.910   1.380   2.600 -0.7731  1.0786 -2.4063
 5087TIP3   OH236895   1.167   3.010   1.285  0.1252 -0.4190 -0.2172
 5087TIP3    H136896   1.105   3.028   1.214  0.3313 -1.0645 -0.5703
 5087TIP3    H236897   1.216   3.091   1.296  0.9981 -0.7030 -1.7319
 5088TIP3   OH236898   5.131   4.350   1.926 -0.3798 -0.1785 -0.7833
 5088TIP3    H136899   5.110   4.339   2.019 -0.7497 -1.8436 -1.0338
 5088TIP3    H236900   5.107   4.266   1.886  0.9198  0.0840 -2.1825
 5089TIP3   OH236901   2.455   4.350   1.535 -0.0900 -0.3786  0.5392
 5089TIP3    H136902   2.368   4.362   1.572  1.1758 -0.1546  3.6962
 5089TIP3    H236903   2.461   4.256   1.519 -1.0765 -0.3239 -0.3161
 5090TIP3   OH236904   5.834   6.277   7.585  0.4775  0.4203  0.5132
 5090TIP3    H136905   5.748   6.290   7.624  1.1824  0.2186  2.2341
 5090TIP3    H236906   5.825   6.199   7.531 -0.1256 -0.3116  1.6348
 5091TIP3   OH236907   6.772   5.563   1.053  0.4335  0.5563 -0.7134
 5091TIP3    H136908   6.813   5.587   1.137  1.5886  1.1046 -1.4165
 5091TIP3    H236909   6.737   5.475   1.068 -1.7908  1.6349  1.2008
 5092TIP3   OH236910   0.098   3.197   8.619  0.2029  0.4208  0.0932
 5092TIP3    H136911   0.180   3.166   8.659  1.1270  1.9954 -0.4710
 5092TIP3    H236912   0.056   3.118   8.586  1.2464 -0.4851  0.8633
 5093TIP3   OH236913   0.246   1.295   8.245 -0.0333 -0.7750  0.2300
 5093TIP3    H136914   0.292   1.255   8.171  0.8368  0.3726  0.1315
 5093TIP3    H236915   0.217   1.220   8.298  1.3317 -1.5602 -0.0730
 5094TIP3   OH236916   1.522   3.467   7.080  0.4814  0.1413 -0.2427
 5094TIP3    H136917   1.525   3.457   7.176 -3.7615  0.1400  0.0895
 5094TIP3    H236918   1.526   3.561   7.066 -0.9227  0.3088  0.2176
 5095TIP3   OH236919   0.079   2.451   8.565  0.1977 -0.5415  0.2274
 5095TIP3    H136920  -0.003   2.441   8.517 -0.0672 -0.0492  0.5710
 5095TIP3    H236921   0.112   2.536   8.538  1.3350 -1.3398 -1.0119
 5096TIP3   OH236922   5.448   3.803   1.332  0.3194 -0.5895 -0.6871
 5096TIP3    H136923   5.421   3.876   1.277  1.7795 -0.4274 -1.2146
 5096TIP3    H236924   5.538   3.822   1.357  0.8116 -2.2884 -1.0136
 5097TIP3   OH236925   2.144   1.234   1.285 -0.3533  0.2133 -0.2711
 5097TIP3    H136926   2.198   1.209   1.361 -0.7151 -0.1292 -0.1232
 5097TIP3    H236927   2.153   1.329   1.280 -2.2672  0.5852  1.7182
 5098TIP3   OH236928   1.039   6.834   1.843 -0.0787 -0.3699  0.0736
 5098TIP3    H136929   1.012   6.799   1.928 -2.5300  1.4737  0.1684
 5098TIP3    H236930   0.981   6.792   1.780 -1.3843  1.5171 -0.0849
 5099TIP3   OH236931   1.343   5.322   6.700  0.2038 -0.0450 -0.0468
 5099TIP3    H136932   1.258   5.355   6.730  0.7809  0.7852  0.7586
 5099TIP3    H236933   1.324   5.276   6.619 -1.2099 -1.0579  0.8181
 5100TIP3   OH236934   1.537   1.682   1.081 -0.1436  0.8813  0.0863
 5100TIP3    H136935   1.471   1.752   1.082 -0.9993  0.1327 -0.9980
 5100TIP3    H236936   1.525   1.635   1.163 -2.7013 -0.7496 -1.0982
 5101TIP3   OH236937   6.831   5.087   0.073 -0.0924 -0.1353  0.6036
 5101TIP3    H136938   6.753   5.034   0.055 -0.6798 -0.0763  2.7220
 5101TIP3    H236939   6.815   5.169   0.026  0.6419 -1.5571 -2.3814
 5102TIP3   OH236940   1.528   0.549   1.568 -0.1018  0.1245  0.8254
 5102TIP3    H136941   1.490   0.461   1.562 -2.0302  0.9249  0.4569
 5102TIP3    H236942   1.545   0.561   1.661 -2.1056  0.2152  1.2280
 5103TIP3   OH236943   3.614   4.070   8.415  0.2198  0.3399  0.6115
 5103TIP3    H136944   3.668   4.065   8.336 -2.0690  0.6853 -1.0839
 5103TIP3    H236945   3.585   4.161   8.418 -1.1833 -0.0907  0.7815
 5104TIP3   OH236946   4.469   4.275   8.376  0.3774 -0.6081 -0.1709
 5104TIP3    H136947   4.419   4.225   8.311  1.0782  0.4931 -1.6357
 5104TIP3    H236948   4.540   4.216   8.402 -0.3183 -1.3211  0.1266
 5105TIP3   OH236949   6.359   0.906   8.575  0.0055  0.1444 -0.0047
 5105TIP3    H136950   6.391   0.830   8.624 -1.9072  0.2502  1.5467
 5105TIP3    H236951   6.286   0.872   8.523 -0.4899  0.7723  0.2595
 5106TIP3   OH236952   4.090   1.480   0.055  0.1706 -0.1636 -0.0233
 5106TIP3    H136953   4.112   1.403   0.107 -0.3614 -0.8361 -0.7767
 5106TIP3    H236954   4.174   1.523   0.039  0.3258  0.1668  1.5333
 5107TIP3   OH236955   6.769   0.777   0.429  0.0752 -0.2158 -0.3580
 5107TIP3    H136956   6.765   0.853   0.371 -0.0510  0.0110 -0.0543
 5107TIP3    H236957   6.705   0.796   0.497  0.0809 -0.5731 -0.2525
 5108TIP3   OH236958   0.929   1.157   7.341 -0.0992  0.2438  0.0195
 5108TIP3    H136959   0.973   1.215   7.403  3.3720 -0.1123 -1.8668
 5108TIP3    H236960   0.977   1.169   7.259 -1.0628 -3.1713 -1.2084
 5109TIP3   OH236961   5.073   3.160   1.297 -0.6630  0.0298  0.0512
 5109TIP3    H136962   5.116   3.106   1.363 -0.0523  0.3689 -0.0662
 5109TIP3    H236963   5.116   3.245   1.303 -2.0013  0.6874  0.6172
 5110TIP3   OH236964   1.324   5.878   0.168  0.2466  0.0470 -0.3284
 5110TIP3    H136965   1.283   5.914   0.090  1.8204  2.5265 -0.1154
 5110TIP3    H236966   1.311   5.944   0.235  2.0345 -0.3759  0.5077
 5111TIP3   OH236967   6.699   6.430   6.772  0.0004 -0.2260  0.1071
 5111TIP3    H136968   6.612   6.461   6.745  0.5031  1.7933  0.6553
 5111TIP3    H236969   6.759   6.473   6.711  0.7014 -0.6233  0.5108
 5112TIP3   OH236970   0.554   6.893   1.578 -0.7975 -0.2709 -0.1020
 5112TIP3    H136971   0.630   6.944   1.550  0.3514 -0.0680  2.9704
 5112TIP3    H236972   0.591   6.824   1.633 -2.6897 -1.7516 -0.5737
 5113TIP3   OH236973   2.614   4.475   1.755  0.1247  0.5112  0.4262
 5113TIP3    H136974   2.657   4.534   1.694  1.8800 -1.6870 -0.6223
 5113TIP3    H236975   2.537   4.443   1.708 -0.6292  1.6294  0.8620
 5114TIP3   OH236976   1.988   4.775   0.569 -0.3542 -0.4435  0.3876
 5114TIP3    H136977   1.981   4.747   0.477  1.3122 -0.3083  0.1802
 5114TIP3    H236978   1.934   4.853   0.575 -0.2342 -0.2734 -0.5783
 5115TIP3   OH236979   3.722   2.841   2.176  0.2656  0.0680  0.0376
 5115TIP3    H136980   3.811   2.877   2.176  1.1569 -1.9878  0.3418
 5115TIP3    H236981   3.682   2.876   2.096  1.2634  1.1931  0.0019
 5116TIP3   OH236982   0.338   5.246   7.255 -0.1167 -0.1983 -0.4639
 5116TIP3    H136983   0.294   5.201   7.182  0.8087 -1.3462 -0.3457
 5116TIP3    H236984   0.358   5.177   7.317  0.3342  0.5710  0.2636
 5117TIP3   OH236985   0.196   0.733   7.707  0.2483  0.7279 -0.2694
 5117TIP3    H136986   0.117   0.740   7.760  0.6507 -1.7673  0.7736
 5117TIP3    H236987   0.267   0.725   7.770  1.1379  1.0224 -1.2043
 5118TIP3   OH236988   6.789   2.893   1.096  0.2857 -0.1179  0.1353
 5118TIP3    H136989   6.846   2.907   1.021 -0.6818 -2.1569 -1.0615
 5118TIP3    H236990   6.845   2.848   1.160  0.2814 -1.2401 -0.6399
 5119TIP3   OH236991   6.505   2.583   1.760  0.1166  0.1957 -0.1659
 5119TIP3    H136992   6.488   2.657   1.701 -0.8969  1.2766  1.4100
 5119TIP3    H236993   6.435   2.588   1.825  1.1773 -0.9839  1.1105
 5120TIP3   OH236994   4.548   1.550   7.227 -0.6755  0.6365 -0.3173
 5120TIP3    H136995   4.591   1.592   7.153 -0.1690  0.3047 -0.2155
 5120TIP3    H236996   4.596   1.468   7.239  0.6689  1.6410  1.7514
 5121TIP3   OH236997   6.789   3.323   0.118 -0.4464 -0.9866  0.1112
 5121TIP3    H136998   6.744   3.399   0.081  0.7359 -0.0632  0.4587
 5121TIP3    H236999   6.858   3.303   0.055 -2.1675 -3.3160 -1.1461
 5122TIP3   OH237000   6.527   6.409   8.639  0.5986  0.2710  0.7203
 5122TIP3    H137001   6.581   6.488   8.642  0.9266  0.0800  0.0240
 5122TIP3    H237002   6.465   6.425   8.568  0.6978 -0.1194  0.5447
 5123TIP3   OH237003   3.056   2.824   1.895  0.0271 -0.5244  0.1555
 5123TIP3    H137004   3.112   2.890   1.855 -0.9513  1.4108  1.7676
 5123TIP3    H237005   3.081   2.824   1.987 -0.2135 -2.2193  0.2426
 5124TIP3   OH237006   3.577   0.993   0.605 -0.1277  0.4224 -0.2984
 5124TIP3    H137007   3.516   1.036   0.545  0.4563  2.1955  0.3068
 5124TIP3    H237008   3.566   0.899   0.588 -0.1844  0.8242 -2.9977
 5125TIP3   OH237009   5.594   0.742   0.316 -0.1937 -0.2116  0.1488
 5125TIP3    H137010   5.502   0.757   0.339  0.0757 -0.7504  1.7380
 5125TIP3    H237011   5.615   0.659   0.358  1.7167  1.1223  2.0247
 5126TIP3   OH237012   5.781   3.475   7.044 -0.1448 -0.1066  0.0257
 5126TIP3    H137013   5.724   3.549   7.024 -0.4201  0.1297  1.5408
 5126TIP3    H237014   5.722   3.405   7.072  0.2313 -0.1985  0.6233
 5127TIP3   OH237015   5.753   6.386   7.890 -0.3484 -0.0577  0.8813
 5127TIP3    H137016   5.749   6.343   7.976 -1.5048 -0.1109  0.8105
 5127TIP3    H237017   5.707   6.326   7.831  0.3640  0.0167  0.2227
 5128TIP3   OH237018   1.214   3.052   1.596  0.0785  0.4251 -0.3516
 5128TIP3    H137019   1.167   3.022   1.519 -0.3614  0.5033 -0.1125
 5128TIP3    H237020   1.254   2.972   1.631 -0.1238  0.3117 -0.3800
 5129TIP3   OH237021   3.168   4.090   0.720  0.4536  0.0814 -0.4375
 5129TIP3    H137022   3.252   4.046   0.738  1.7305  2.0353 -1.2865
 5129TIP3    H237023   3.192   4.167   0.668 -2.0537 -0.1804 -2.1582
 5130TIP3   OH237024   3.650   3.041   7.967 -0.5320 -0.3770 -0.5023
 5130TIP3    H137025   3.653   2.949   7.941  0.2470 -0.9050  1.3359
 5130TIP3    H237026   3.736   3.076   7.942 -1.2007  0.1889 -2.1895
 5131TIP3   OH237027   1.468   1.292   7.198  0.3573  0.6720  0.2304
 5131TIP3    H137028   1.390   1.317   7.248  0.4760  0.0883  0.7203
 5131TIP3    H237029   1.521   1.242   7.260  0.2253 -0.6106 -0.6540
 5132TIP3   OH237030   5.041   2.523   6.633 -0.4904 -0.1470 -0.1062
 5132TIP3    H137031   4.960   2.472   6.635 -0.9397  0.3657 -2.4935
 5132TIP3    H237032   5.070   2.519   6.542  0.9693  1.5355  0.2219
 5133TIP3   OH237033   1.184   6.622   7.613  0.3791 -0.5588 -0.1830
 5133TIP3    H137034   1.133   6.586   7.685  1.6020  0.3962  1.2250
 5133TIP3    H237035   1.199   6.547   7.554 -0.0949 -1.5093  0.8693
 5134TIP3   OH237036   5.861   2.861   8.582  0.1392 -0.1289 -0.8421
 5134TIP3    H137037   5.948   2.896   8.562  0.4070 -1.2560 -1.7529
 5134TIP3    H237038   5.877   2.790   8.644 -0.2085  0.1014 -0.4852
 5135TIP3   OH237039   4.795   2.358   8.040 -0.2000  0.1445  0.1216
 5135TIP3    H137040   4.751   2.284   8.000  0.9433 -1.4278  1.6321
 5135TIP3    H237041   4.845   2.321   8.112  0.7994  2.3280  0.6569
 5136TIP3   OH237042   1.179   0.748   8.087 -0.0182  0.3699 -0.1276
 5136TIP3    H137043   1.145   0.816   8.145  1.1352  1.6599 -0.9129
 5136TIP3    H237044   1.110   0.734   8.022  0.3130  1.8937 -0.8402
 5137TIP3   OH237045   6.531   4.284   6.085  0.2867 -0.6865  0.4064
 5137TIP3    H137046   6.521   4.208   6.143 -2.3335 -0.7201  0.0261
 5137TIP3    H237047   6.626   4.289   6.068  0.7139 -2.8436  1.7726
 5138TIP3   OH237048   1.285   5.182   1.283 -0.3228 -0.2705 -0.0199
 5138TIP3    H137049   1.196   5.147   1.279 -1.0194  1.4011  0.1739
 5138TIP3    H237050   1.291   5.240   1.207 -0.9863  3.0768  2.2761
 5139TIP3   OH237051   1.434   6.187   8.617 -0.0646 -0.2289  0.1441
 5139TIP3    H137052   1.508   6.168   8.675 -0.1351  1.1507  0.7269
 5139TIP3    H237053   1.459   6.149   8.533  1.2295  0.0326  0.3889
 5140TIP3   OH237054   4.929   3.519   0.420  0.0260  0.0749  0.3916
 5140TIP3    H137055   5.021   3.542   0.404  0.0576 -0.0769  0.3550
 5140TIP3    H237056   4.908   3.560   0.504 -0.0102  0.5015  0.1746
 5141TIP3   OH237057   5.423   5.151   7.207 -0.0212 -0.4412  0.3439
 5141TIP3    H137058   5.451   5.082   7.146 -0.8474 -0.6284  0.1511
 5141TIP3    H237059   5.462   5.127   7.290  1.0132 -0.2583 -0.0779
 5142TIP3   OH237060   3.168   1.201   0.098 -0.1773 -0.6572  0.1157
 5142TIP3    H137061   3.239   1.261   0.074 -0.2906  0.1566  1.6678
 5142TIP3    H237062   3.185   1.122   0.047  0.9909  0.0630 -0.6614
 5143TIP3   OH237063   0.352   6.800   1.192  0.0463  0.3076 -0.0570
 5143TIP3    H137064   0.261   6.826   1.175 -0.4581  0.1430  2.1135
 5143TIP3    H237065   0.365   6.722   1.137 -1.8701 -0.9781  1.1799
 5144TIP3   OH237066   0.878   1.661   0.675 -0.2579  0.0795  0.1995
 5144TIP3    H137067   0.811   1.648   0.743 -0.2351  0.2223  0.2514
 5144TIP3    H237068   0.833   1.641   0.593 -0.2468 -0.2264  0.2698
 5145TIP3   OH237069   0.759   2.285   1.529 -0.0211 -0.4301  0.4080
 5145TIP3    H137070   0.763   2.196   1.565 -2.4937 -1.0400 -0.6084
 5145TIP3    H237071   0.669   2.312   1.545  0.1552  1.1379 -1.0567
 5146TIP3   OH237072   3.878   1.607   7.057  0.4390 -0.2664  0.1308
 5146TIP3    H137073   3.905   1.605   6.966  0.9389  1.8285  0.1866
 5146TIP3    H237074   3.787   1.577   7.056  0.8376 -1.5322 -0.8473
 5147TIP3   OH237075   3.932   0.098   2.350  0.1735 -0.2274  0.4328
 5147TIP3    H137076   3.917   0.078   2.257  1.2536 -0.4358  0.2860
 5147TIP3    H237077   3.851   0.141   2.378  0.0456  0.3676 -0.7566
 5148TIP3   OH237078   1.358   3.711   0.242 -0.1756  0.2394 -0.3318
 5148TIP3    H137079   1.324   3.733   0.329 -0.0297 -0.3418 -0.1189
 5148TIP3    H237080   1.362   3.615   0.242  0.4831  0.2619 -0.7305
 5149TIP3   OH237081   0.887   0.691   1.867  0.1240 -0.0943  0.0567
 5149TIP3    H137082   0.932   0.607   1.854 -0.1143 -0.0228 -1.3268
 5149TIP3    H237083   0.904   0.712   1.959  1.6113 -0.8308 -0.0070
 5150TIP3   OH237084   1.468   4.994   5.923  0.7130 -0.0068  0.1265
 5150TIP3    H137085   1.445   4.901   5.919  2.2221 -0.3493 -1.5831
 5150TIP3    H237086   1.561   4.996   5.943  0.5893  1.1871  0.7275
 5151TIP3   OH237087   1.085   2.801   7.902 -0.3375 -0.4657 -0.1539
 5151TIP3    H137088   1.142   2.725   7.903  1.0591  0.5206 -1.1559
 5151TIP3    H237089   1.112   2.851   7.824 -0.7456  1.3880  0.8246
 5152TIP3   OH237090   3.929   6.103   7.272  0.0763  0.1710 -0.4352
 5152TIP3    H137091   3.911   6.103   7.178  0.2387  3.0155 -0.5777
 5152TIP3    H237092   3.971   6.019   7.289 -2.9784 -1.8994 -2.1992
 5153TIP3   OH237093   3.843   0.269   1.866 -0.1055  0.1538  0.0741
 5153TIP3    H137094   3.845   0.234   1.955 -0.8118  0.2177  0.1194
 5153TIP3    H237095   3.931   0.304   1.852 -0.4008  1.4522  1.2758
 5154TIP3   OH237096   4.170   4.994   7.698  0.2672  0.3283 -0.1582
 5154TIP3    H137097   4.223   4.998   7.619  1.6295 -0.9537  0.6480
 5154TIP3    H237098   4.084   4.965   7.668  1.1881 -1.6991 -1.0259
 5155TIP3   OH237099   0.246   3.799   2.384  0.2017 -0.3266  0.4420
 5155TIP3    H137100   0.304   3.748   2.440  1.1873  0.8471  0.5430
 5155TIP3    H237101   0.269   3.774   2.295 -0.0994 -0.8638  0.5116
 5156TIP3   OH237102   5.981   1.157   6.965  0.3105 -0.1445 -0.0725
 5156TIP3    H137103   5.988   1.238   7.017 -2.1782  0.7531 -0.9497
 5156TIP3    H237104   6.029   1.176   6.885 -1.0251  0.9261 -0.6834
 5157TIP3   OH237105   1.825   4.467   8.142  0.4852 -0.6483  0.3046
 5157TIP3    H137106   1.871   4.412   8.206 -0.8540 -1.5371  0.5295
 5157TIP3    H237107   1.896   4.512   8.095  1.5152  0.3856  2.6516
 5158TIP3   OH237108   6.735   6.652   1.699  0.8733 -0.2011 -0.6307
 5158TIP3    H137109   6.777   6.567   1.688  0.4444 -0.5789  0.4709
 5158TIP3    H237110   6.737   6.692   1.612  0.3336 -1.6880 -1.3521
 5159TIP3   OH237111   1.617   5.121   7.667  0.3142 -0.2693  0.1749
 5159TIP3    H137112   1.593   5.032   7.694  1.1848 -0.2732  0.9877
 5159TIP3    H237113   1.689   5.108   7.605  1.9429 -0.1032  1.9305
 5160TIP3   OH237114   2.541   1.339   2.382  0.0242 -0.0144 -0.2864
 5160TIP3    H137115   2.537   1.433   2.363  0.7505  0.2337  0.7095
 5160TIP3    H237116   2.455   1.318   2.418  0.7143  0.8928  2.0555
 5161TIP3   OH237117   4.183   2.532   7.162  0.2139 -0.1232 -0.6851
 5161TIP3    H137118   4.138   2.574   7.089 -0.4498  1.3152  0.4860
 5161TIP3    H237119   4.114   2.515   7.226  0.6754 -1.9372 -0.6180
 5162TIP3   OH237120   1.683   3.276   6.924 -0.2130  0.4633 -0.4550
 5162TIP3    H137121   1.661   3.358   6.968  0.1459  1.3143 -1.7895
 5162TIP3    H237122   1.664   3.293   6.832 -0.6135 -1.1408 -0.6928
 5163TIP3   OH237123   0.148   0.990   2.573 -0.3664 -0.3314  0.0746
 5163TIP3    H137124   0.106   1.076   2.569 -1.5449 -0.5931  3.4019
 5163TIP3    H237125   0.230   1.001   2.526 -1.4601  1.9503 -1.5000
 5164TIP3   OH237126   3.696   1.122   1.037 -0.1886  0.1563  0.0980
 5164TIP3    H137127   3.663   1.206   1.068  1.1437  1.0523 -0.8005
 5164TIP3    H237128   3.687   1.064   1.112 -0.9149  1.1640  0.8173
 5165TIP3   OH237129   3.542   3.095   6.631  0.3106 -0.1450  0.1561
 5165TIP3    H137130   3.467   3.062   6.681  0.4728 -1.7349 -0.5766
 5165TIP3    H237131   3.511   3.101   6.541  0.9911 -0.6489 -0.1264
 5166TIP3   OH237132   4.808   4.639   1.231 -0.3642 -0.8086  0.0785
 5166TIP3    H137133   4.868   4.626   1.305 -0.8558  1.4974  0.9825
 5166TIP3    H237134   4.836   4.722   1.192 -2.5723  0.0902  0.2235
 5167TIP3   OH237135   1.193   0.875   0.503  0.5613  0.0107 -0.1665
 5167TIP3    H137136   1.258   0.928   0.550 -0.1410  0.6339  0.1129
 5167TIP3    H237137   1.201   0.902   0.412  1.0882 -0.3286 -0.2252
 5168TIP3   OH237138   0.105   0.103   0.514  0.0970 -0.9126 -0.6361
 5168TIP3    H137139   0.188   0.127   0.553 -0.0534 -1.2650 -0.0989
 5168TIP3    H237140   0.128   0.068   0.428  0.6437 -2.3714  0.0729
 5169TIP3   OH237141   1.762   1.970   1.367 -0.1641 -0.6617 -0.3729
 5169TIP3    H137142   1.750   2.022   1.446 -1.5072  0.8726 -1.5029
 5169TIP3    H237143   1.856   1.956   1.361  0.3237  2.0738 -0.2366
 5170TIP3   OH237144   6.225   2.817   8.220 -0.1288 -0.3403 -0.0307
 5170TIP3    H137145   6.230   2.733   8.267  0.3688  0.8655  2.2235
 5170TIP3    H237146   6.148   2.860   8.258 -1.3331 -0.3498 -2.2924
 5171TIP3   OH237147   0.863   4.837   7.237 -0.0180  0.1095 -0.4007
 5171TIP3    H137148   0.847   4.906   7.301  0.8646  0.3712 -0.4456
 5171TIP3    H237149   0.823   4.759   7.275  0.9396  0.1403  0.7310
 5172TIP3   OH237150   4.486   1.661   6.392  0.1044 -0.3209 -0.5075
 5172TIP3    H137151   4.544   1.726   6.353  0.7077  0.1187  1.0667
 5172TIP3    H237152   4.403   1.707   6.405  0.6519  0.3184  0.9899
 5173TIP3   OH237153   1.942   3.606   1.015 -0.1755  0.1069 -0.0553
 5173TIP3    H137154   1.947   3.513   0.993 -2.3135 -0.1999  0.5060
 5173TIP3    H237155   1.984   3.612   1.101 -3.8539 -1.2836  2.0776
 5174TIP3   OH237156   1.357   3.291   6.962 -0.0190  0.3419 -0.6092
 5174TIP3    H137157   1.383   3.272   6.871  2.1217  0.2049 -0.0213
 5174TIP3    H237158   1.423   3.352   6.993 -1.3136  1.1932  0.5840
 5175TIP3   OH237159   1.685   1.408   8.080  0.0161 -0.5216  0.3061
 5175TIP3    H137160   1.632   1.385   8.156 -1.6201  0.1440 -0.5845
 5175TIP3    H237161   1.625   1.456   8.023  1.2163 -0.9313 -1.3653
 5176TIP3   OH237162   1.783   6.452   1.824  0.3791 -0.1582 -0.1691
 5176TIP3    H137163   1.789   6.529   1.880  1.9205  0.5838 -1.2727
 5176TIP3    H237164   1.854   6.463   1.761  0.9690 -2.7389 -0.0626
 5177TIP3   OH237165   5.766   5.899   6.128 -0.3328 -0.3945  0.1514
 5177TIP3    H137166   5.693   5.865   6.179 -0.0407 -2.1344 -0.5260
 5177TIP3    H237167   5.750   5.994   6.123 -0.7546 -0.2506  2.7831
 5178TIP3   OH237168   6.590   5.844   0.431 -0.6243 -0.6721  0.6811
 5178TIP3    H137169   6.641   5.768   0.460 -1.2711 -1.6349 -0.5905
 5178TIP3    H237170   6.645   5.919   0.453 -0.8792 -1.3179  3.8745
 5179TIP3   OH237171   5.137   2.852   0.276  0.1720 -0.1889  0.1867
 5179TIP3    H137172   5.219   2.851   0.228 -0.2676 -0.5980 -0.5599
 5179TIP3    H237173   5.071   2.821   0.214 -0.5338  0.0237  0.8059
 5180TIP3   OH237174   3.978   2.219   1.159  0.4024  0.5233  0.5630
 5180TIP3    H137175   3.915   2.191   1.093 -0.4435  0.4734  1.3665
 5180TIP3    H237176   4.046   2.264   1.110  1.0076 -1.5447 -0.6088
 5181TIP3   OH237177   6.021   2.415   7.390 -0.1381  0.1336  0.2127
 5181TIP3    H137178   6.039   2.330   7.350  0.6222  0.3943 -0.0232
 5181TIP3    H237179   5.935   2.405   7.430 -1.0452 -0.0703 -1.6617
 5182TIP3   OH237180   5.021   2.569   1.252 -0.6843 -0.1795 -0.2758
 5182TIP3    H137181   5.110   2.571   1.218  0.2031  1.4641  1.9313
 5182TIP3    H237182   4.990   2.659   1.245 -2.0990 -0.6665 -0.7370
 5183TIP3   OH237183   6.691   0.122   7.413 -0.2376 -0.1385 -0.2314
 5183TIP3    H137184   6.663   0.030   7.411 -0.0128 -0.2479  1.0774
 5183TIP3    H237185   6.725   0.135   7.502 -1.1028  1.4648 -0.1117
 5184TIP3   OH237186   5.256   2.423   7.358  0.1000  0.2230  0.2930
 5184TIP3    H137187   5.183   2.361   7.364  0.0864  0.1211 -0.7534
 5184TIP3    H237188   5.306   2.408   7.438  1.2344 -2.6026 -0.7835
 5185TIP3   OH237189   6.886   0.046   1.793 -0.6175 -0.3845  0.0364
 5185TIP3    H137190   6.832   0.048   1.872 -0.4201 -3.0625  0.3176
 5185TIP3    H237191   6.832   0.003   1.727 -0.4522  1.0241 -1.0671
 5186TIP3   OH237192   6.484   5.087   7.005 -0.2053  0.4076  0.2555
 5186TIP3    H137193   6.528   5.005   7.029  1.3601  0.5661 -1.8061
 5186TIP3    H237194   6.549   5.135   6.954 -1.4166  2.5445  0.6115
 5187TIP3   OH237195   0.303   1.111   2.350  0.1371 -0.1119  0.9642
 5187TIP3    H137196   0.355   1.109   2.269  0.6691 -0.1275  1.3060
 5187TIP3    H237197   0.213   1.104   2.319  0.2283  1.3305  0.2710
 5188TIP3   OH237198   3.439   1.251   0.883 -0.1154  0.0670  0.2534
 5188TIP3    H137199   3.489   1.268   0.803  1.2025  0.4179  1.1155
 5188TIP3    H237200   3.501   1.266   0.954 -0.8903 -1.4857  1.3267
 5189TIP3   OH237201   2.150   6.184   6.165  0.0982 -0.0175  0.9896
 5189TIP3    H137202   2.122   6.158   6.253 -1.3830  1.5995  1.0593
 5189TIP3    H237203   2.070   6.216   6.123  0.9719  0.1645 -0.5979
 5190TIP3   OH237204   1.614   4.148   1.173  0.0966  0.0225 -0.7159
 5190TIP3    H137205   1.572   4.220   1.125  1.0432 -0.0953 -1.7361
 5190TIP3    H237206   1.638   4.187   1.257 -2.4174 -0.0160  0.1248
 5191TIP3   OH237207   4.592   0.886   0.099  0.3237  0.1794  0.1237
 5191TIP3    H137208   4.512   0.834   0.109  0.5798 -0.2796 -0.1903
 5191TIP3    H237209   4.572   0.969   0.142  0.5349 -0.8248  2.3283
 5192TIP3   OH237210   6.734   0.122   8.283  0.2353  0.2458  0.5495
 5192TIP3    H137211   6.742   0.030   8.306 -0.0547  0.2708  0.7462
 5192TIP3    H237212   6.690   0.163   8.358 -0.5723  0.3533  0.0358
 5193TIP3   OH237213   2.219   2.807   8.172  0.2694 -0.1848  0.3842
 5193TIP3    H137214   2.258   2.741   8.114 -0.5638 -1.3633  1.1125
 5193TIP3    H237215   2.184   2.874   8.113 -0.9663 -1.5827 -0.5272
 5194TIP3   OH237216   0.832   3.497   0.948 -0.0460  0.3845 -0.1463
 5194TIP3    H137217   0.786   3.428   0.995  0.6820  0.6770  1.0268
 5194TIP3    H237218   0.894   3.533   1.011  2.4209 -0.5651 -1.8699
 5195TIP3   OH237219   2.417   1.715   2.036  0.0787  0.0818 -0.0953
 5195TIP3    H137220   2.477   1.733   2.108 -1.1863  0.0086  1.0057
 5195TIP3    H237221   2.417   1.796   1.985 -0.3160  0.7731  0.9601
 5196TIP3   OH237222   0.714   0.531   0.761  0.2754 -0.3404 -0.4669
 5196TIP3    H137223   0.719   0.601   0.826  0.5345 -1.5900  0.9402
 5196TIP3    H237224   0.678   0.572   0.683  0.4758  1.3537  0.2963
 5197TIP3   OH237225   5.440   3.264   7.855  0.0575 -0.2974  0.3203
 5197TIP3    H137226   5.481   3.196   7.909 -1.2181 -0.5367  1.0396
 5197TIP3    H237227   5.416   3.219   7.774  2.7157  0.2481 -0.8927
 5198TIP3   OH237228   5.609   4.476   1.073 -0.7220 -0.9171 -0.3847
 5198TIP3    H137229   5.522   4.447   1.045 -1.7989 -0.8634  2.5116
 5198TIP3    H237230   5.630   4.419   1.147  1.6010 -0.6983 -0.8031
 5199TIP3   OH237231   3.393   4.223   8.687  0.3015  0.1399  0.4524
 5199TIP3    H137232   3.355   4.154   8.741  1.9488  0.5373  2.2414
 5199TIP3    H237233   3.467   4.255   8.739  0.7553  1.9155 -1.2015
 5200TIP3   OH237234   5.188   2.198   8.072 -0.0717  0.2509  0.4757
 5200TIP3    H137235   5.177   2.136   7.999 -0.4220 -0.0943  0.8173
 5200TIP3    H237236   5.099   2.218   8.100  0.0730 -1.1608  2.0942
 5201TIP3   OH237237   4.061   5.911   6.189  0.2976  0.1787  0.5652
 5201TIP3    H137238   4.065   6.007   6.180  2.1887 -0.0190 -1.5569
 5201TIP3    H237239   4.152   5.883   6.185 -0.2023 -1.7323  1.4217
 5202TIP3   OH237240   0.939   4.609   1.579  0.2777  0.0237 -0.1277
 5202TIP3    H137241   0.886   4.592   1.657  1.4037 -0.2624  0.5896
 5202TIP3    H237242   0.890   4.568   1.508 -1.0060  0.6924  0.3310
 5203TIP3   OH237243   1.158   3.652   7.863  0.1489 -0.2294  0.0356
 5203TIP3    H137244   1.093   3.582   7.868  0.6121 -0.6367  0.3069
 5203TIP3    H237245   1.160   3.690   7.951 -1.4081  1.3294 -0.5231
 5204TIP3   OH237246   2.551   5.295   7.514  0.1461 -0.4606 -0.6854
 5204TIP3    H137247   2.502   5.344   7.449 -0.0516 -0.5501 -0.6069
 5204TIP3    H237248   2.542   5.203   7.487  0.0663 -0.4979 -0.5371
 5205TIP3   OH237249   3.272   1.795   2.130 -0.3596 -0.0639 -0.7540
 5205TIP3    H137250   3.199   1.838   2.086 -0.1853  0.3185 -0.6725
 5205TIP3    H237251   3.234   1.760   2.211  0.3073  3.5411  1.3042
 5206TIP3   OH237252   3.314   2.695   0.499  0.5631 -0.2158  0.1185
 5206TIP3    H137253   3.238   2.669   0.448  1.2867 -0.2423 -0.9736
 5206TIP3    H237254   3.290   2.674   0.589 -0.7068 -0.2468 -0.2012
 5207TIP3   OH237255   3.485   4.671   1.306 -0.0536  0.7217  0.6504
 5207TIP3    H137256   3.404   4.628   1.277 -0.1411  1.4819 -0.2764
 5207TIP3    H237257   3.530   4.604   1.357 -0.1773 -0.5140 -0.7864
 5208TIP3   OH237258   0.681   4.846   6.098  0.3362  0.1136 -0.1790
 5208TIP3    H137259   0.773   4.819   6.099  0.5154  0.6733 -0.5666
 5208TIP3    H237260   0.683   4.936   6.131 -0.0752  0.1152 -0.1578
 5209TIP3   OH237261   6.616   1.694   2.060 -0.0871  0.0696 -0.0276
 5209TIP3    H137262   6.699   1.742   2.061  0.0862 -0.1376  2.6393
 5209TIP3    H237263   6.571   1.723   2.139 -1.9393 -0.9191 -0.6632
 5210TIP3   OH237264   3.963   6.373   8.588  0.6890  0.2533  0.6160
 5210TIP3    H137265   4.007   6.413   8.513  0.9470 -0.8252  0.1782
 5210TIP3    H237266   3.894   6.436   8.611  0.0055  0.1944 -1.0887
 5211TIP3   OH237267   3.415   2.589   1.219  0.6823 -0.1864  0.1230
 5211TIP3    H137268   3.395   2.532   1.294  0.1475 -1.3779 -0.8974
 5211TIP3    H237269   3.505   2.568   1.196  0.5930 -0.3717 -0.0516
 5212TIP3   OH237270   2.738   0.777   0.059  0.0934 -0.0699  0.1471
 5212TIP3    H137271   2.696   0.755   0.142  0.0082 -0.0733  0.1032
 5212TIP3    H237272   2.718   0.869   0.045 -2.1755 -0.6868 -1.1844
 5213TIP3   OH237273   6.735   6.814   7.961  0.4660 -0.0034  0.0885
 5213TIP3    H137274   6.727   6.757   8.037 -0.3457  1.1120  0.8852
 5213TIP3    H237275   6.666   6.786   7.902 -0.2837  0.4708  0.7150
 5214TIP3   OH237276   2.694   0.062   7.276 -1.0109 -0.5283  0.6560
 5214TIP3    H137277   2.675   0.063   7.182  1.3742  0.6410  0.0998
 5214TIP3    H237278   2.609   0.074   7.317 -2.0212 -0.1572 -1.3894
 5215TIP3   OH237279   1.167   2.304   0.055 -0.1207  0.1603  0.2660
 5215TIP3    H137280   1.209   2.390   0.060  0.0600  0.3600 -2.9272
 5215TIP3    H237281   1.076   2.323   0.031 -0.0327 -0.5056 -0.6590
 5216TIP3   OH237282   6.888   1.762   1.007 -0.4192 -0.7053  0.2721
 5216TIP3    H137283   6.872   1.836   1.065 -1.3630 -0.0144 -0.8144
 5216TIP3    H237284   6.929   1.696   1.062 -0.3656  0.2978  1.4713
 5217TIP3   OH237285   4.844   2.238   0.943  0.2955  0.1878 -0.1118
 5217TIP3    H137286   4.862   2.327   0.973 -0.3448  0.2672  0.0495
 5217TIP3    H237287   4.867   2.182   1.017  2.3917  0.0531 -0.8103
 5218TIP3   OH237288   3.904   1.163   0.014  0.3175 -0.0716  0.7810
 5218TIP3    H137289   3.907   1.076  -0.028  0.7475  0.3116  0.0003
 5218TIP3    H237290   3.970   1.158   0.083  0.5230 -0.2777  0.5717
 5219TIP3   OH237291   1.017   5.703   1.582 -0.6092  0.0744 -0.3711
 5219TIP3    H137292   1.001   5.795   1.564 -1.6917  0.1291  0.7615
 5219TIP3    H237293   1.073   5.674   1.510  1.8565  2.2044  0.5381
 5220TIP3   OH237294   3.548   6.115   6.414 -0.2888  0.1922  0.0589
 5220TIP3    H137295   3.492   6.047   6.452 -0.7252 -0.0014 -0.8999
 5220TIP3    H237296   3.519   6.122   6.323  3.0526 -1.8622 -1.3346
 5221TIP3   OH237297   0.604   4.067   6.342 -0.6284  0.1693  0.3940
 5221TIP3    H137298   0.684   4.018   6.363  0.0457  1.1353  0.1435
 5221TIP3    H237299   0.547   4.002   6.302  0.7815 -0.1538 -1.2291
 5222TIP3   OH237300   6.459   2.802   1.584  0.6673  0.9885  0.1293
 5222TIP3    H137301   6.489   2.836   1.499  0.9343  0.7915  0.1441
 5222TIP3    H237302   6.385   2.859   1.607 -0.7112 -0.1854 -1.1804
 5223TIP3   OH237303   2.377   0.792   1.742  0.0472 -0.2303 -0.6608
 5223TIP3    H137304   2.419   0.843   1.811 -2.4708  2.2727 -0.8146
 5223TIP3    H237305   2.360   0.707   1.781  1.4381  0.0866  0.7261
 5224TIP3   OH237306   4.952   6.823   7.331  0.1598 -0.3272  0.1806
 5224TIP3    H137307   5.002   6.743   7.314  1.7090  0.6185  0.1172
 5224TIP3    H237308   4.987   6.856   7.414  0.3273  0.8678 -0.3532
 5225TIP3   OH237309   4.761   0.732   0.235 -0.9190  0.1988  0.1483
 5225TIP3    H137310   4.731   0.774   0.155  0.1720 -0.0247 -0.3973
 5225TIP3    H237311   4.799   0.804   0.287 -1.2586  0.2791  0.2841
 5226TIP3   OH237312   3.874   3.763   7.773 -0.3064 -0.3363  0.5172
 5226TIP3    H137313   3.960   3.738   7.807  0.2409  1.5350  0.6231
 5226TIP3    H237314   3.813   3.742   7.844  0.5091  1.1920  1.7468
 5227TIP3   OH237315   4.214   3.662   7.454 -0.3754 -0.4834  0.2263
 5227TIP3    H137316   4.281   3.683   7.389 -1.9637  0.1348 -1.3059
 5227TIP3    H237317   4.180   3.748   7.480 -0.2264 -0.7658  1.3828
 5228TIP3   OH237318   3.885   3.109   8.256 -0.0664 -0.1661 -0.1149
 5228TIP3    H137319   3.898   3.186   8.200  2.7186 -0.7580 -0.4351
 5228TIP3    H237320   3.973   3.076   8.271 -0.9029 -1.3300  2.8576
 5229TIP3   OH237321   3.465   5.623   8.281 -0.1705 -0.1361 -0.3502
 5229TIP3    H137322   3.499   5.558   8.220 -0.5380 -0.1390 -0.5604
 5229TIP3    H237323   3.407   5.677   8.228  1.4913  1.4842 -0.5839
 5230TIP3   OH237324   3.956   4.327   7.277 -0.2871 -0.1217  0.0291
 5230TIP3    H137325   3.868   4.290   7.284 -0.0594 -0.6335  0.1765
 5230TIP3    H237326   3.964   4.351   7.185  0.3283 -2.3490 -0.5512
 5231TIP3   OH237327   4.288   3.515   7.111  0.3488  0.2731 -0.3435
 5231TIP3    H137328   4.256   3.554   7.030 -0.1084  0.1777 -0.2157
 5231TIP3    H237329   4.308   3.590   7.167  1.8386  0.3661 -0.9680
 5232TIP3   OH237330   3.059   1.328   6.446  0.1397 -0.4596  0.3947
 5232TIP3    H137331   3.049   1.297   6.356 -1.2302 -0.3300  0.4848
 5232TIP3    H237332   3.100   1.414   6.437 -0.0111 -0.4357 -0.1034
 5233TIP3   OH237333   1.982   1.296   7.284 -0.3461 -0.1348 -0.1724
 5233TIP3    H137334   1.983   1.321   7.377 -1.1241 -1.5843  0.2651
 5233TIP3    H237335   2.052   1.348   7.244  0.1913  0.3087  1.2748
 5234TIP3   OH237336   5.480   4.451   2.047 -0.3141  0.0810 -0.0400
 5234TIP3    H137337   5.393   4.475   2.012 -0.2935  0.5811  0.2385
 5234TIP3    H237338   5.472   4.464   2.141 -0.7762 -2.5697  0.3421
 5235TIP3   OH237339   1.336   1.138   1.333  0.4162  0.6337 -0.1635
 5235TIP3    H137340   1.353   1.073   1.266  1.7325  1.4412 -0.6630
 5235TIP3    H237341   1.241   1.148   1.335  0.2670 -0.5523 -0.7724
 5236TIP3   OH237342   3.899   5.742   7.610  0.9625  0.0730  0.1604
 5236TIP3    H137343   3.909   5.792   7.529 -0.2716  1.1043  0.5985
 5236TIP3    H237344   3.918   5.805   7.680 -2.0516  0.4443  0.7877
 5237TIP3   OH237345   5.081   5.559   0.167  0.0433 -0.0642 -0.5511
 5237TIP3    H137346   4.987   5.568   0.182  0.1144  1.6691 -0.9781
 5237TIP3    H237347   5.095   5.464   0.164 -1.4647 -0.3907  0.7959
 5238TIP3   OH237348   1.319   5.765   1.081 -0.4212 -0.0329  0.6979
 5238TIP3    H137349   1.399   5.803   1.118 -0.7866 -0.7660  2.3425
 5238TIP3    H237350   1.350   5.712   1.008  0.3781  1.1736  0.1315
 5239TIP3   OH237351   1.376   4.048   8.312 -0.0304 -0.6660  0.1410
 5239TIP3    H137352   1.336   4.046   8.225 -1.7852 -0.7593  0.9004
 5239TIP3    H237353   1.330   4.120   8.357  0.7221 -0.7375  1.0497
 5240TIP3   OH237354   4.401   6.368   7.900  0.6736  0.1113 -0.6134
 5240TIP3    H137355   4.468   6.404   7.841  0.1961  0.7510 -0.7779
 5240TIP3    H237356   4.435   6.282   7.925  1.5405  0.4056 -0.7228
 5241TIP3   OH237357   5.949   0.956   6.060  0.6755 -0.0690  0.2794
 5241TIP3    H137358   5.912   0.868   6.064 -1.3819  0.6154 -1.6766
 5241TIP3    H237359   5.931   0.993   6.147 -1.7257 -0.3817 -0.0244
 5242TIP3   OH237360   1.587   3.693   2.423 -0.5150  0.5446  0.3621
 5242TIP3    H137361   1.498   3.675   2.453 -0.5114 -2.8052 -1.1675
 5242TIP3    H237362   1.583   3.683   2.328  1.2240  1.8766  0.0938
 5243TIP3   OH237363   4.747   2.871   7.341 -0.1920 -0.2050 -0.0938
 5243TIP3    H137364   4.678   2.850   7.404  1.7775 -1.8801  1.6703
 5243TIP3    H237365   4.716   2.834   7.258 -2.5940  1.5574 -0.0864
 5244TIP3   OH237366   2.270   6.307   7.660 -0.4932  0.2854  0.0867
 5244TIP3    H137367   2.272   6.331   7.752 -0.8257  0.6030  0.0134
 5244TIP3    H237368   2.337   6.362   7.619 -0.6512  0.4575  0.0629
 5245TIP3   OH237369   1.725   1.788   1.568  0.7565  0.0882 -0.2828
 5245TIP3    H137370   1.766   1.718   1.518  1.1043  0.7040 -0.8816
 5245TIP3    H237371   1.744   1.868   1.518 -2.0376  0.3062 -1.1990
 5246TIP3   OH237372   6.087   3.034   1.017 -0.1337  0.3987  0.2043
 5246TIP3    H137373   6.037   3.059   0.940  0.3166 -0.8425 -0.5112
 5246TIP3    H237374   6.124   3.116   1.049 -1.9635  1.2278  0.3081
 5247TIP3   OH237375   0.511   4.972   0.350 -0.0130  0.7501  0.0455
 5247TIP3    H137376   0.567   4.895   0.342  0.6802  1.0264  1.7625
 5247TIP3    H237377   0.532   5.008   0.436 -1.0976  2.2542 -0.2747
 5248TIP3   OH237378   3.057   0.884   8.195 -0.6327 -0.8697 -0.1748
 5248TIP3    H137379   3.056   0.899   8.101 -3.3411  0.1583 -0.0727
 5248TIP3    H237380   3.006   0.805   8.208 -3.5342  0.9637  0.5503
 5249TIP3   OH237381   4.401   3.769   1.156  0.1080  0.0523  0.5608
 5249TIP3    H137382   4.325   3.725   1.194  0.0419 -0.3521 -0.0287
 5249TIP3    H237383   4.469   3.701   1.152 -0.2654 -0.2663 -1.1670
 5250TIP3   OH237384   0.469   1.852   6.599  0.0591  0.2190  0.1795
 5250TIP3    H137385   0.478   1.767   6.643 -2.1317 -2.3024 -3.6866
 5250TIP3    H237386   0.555   1.867   6.559  0.1042 -0.8970 -0.1761
 5251TIP3   OH237387   1.910   1.634   7.019 -0.0438  0.3277 -0.0611
 5251TIP3    H137388   1.841   1.569   7.011  1.2098 -0.8476 -2.1463
 5251TIP3    H237389   1.869   1.717   6.996 -1.3530  0.1266  1.3903
 5252TIP3   OH237390   6.004   0.818   7.437  0.2074  0.1808 -0.3124
 5252TIP3    H137391   6.005   0.837   7.531  0.1542  0.9787 -0.4703
 5252TIP3    H237392   5.960   0.734   7.430  0.5548 -0.0683  0.4112
 5253TIP3   OH237393   1.096   4.598   1.941 -0.0848  0.6946 -0.6388
 5253TIP3    H137394   1.063   4.515   1.907  0.3018 -0.0638  0.7761
 5253TIP3    H237395   1.018   4.648   1.966 -0.2897  0.4890 -0.8719
 5254TIP3   OH237396   0.788   2.169   7.064  0.0479  0.1768  0.4545
 5254TIP3    H137397   0.700   2.132   7.071  0.0434  0.2860  1.0547
 5254TIP3    H237398   0.800   2.219   7.145  0.2921  0.9787 -0.0657
 5255TIP3   OH237399   6.535   3.663   1.984  0.6088 -0.7241  0.0826
 5255TIP3    H137400   6.533   3.758   1.996 -3.6197 -0.7026  0.7284
 5255TIP3    H237401   6.468   3.645   1.919  0.9118 -3.3340  0.3659
 5256TIP3   OH237402   5.669   5.349   0.007  0.1334 -0.7255 -0.7647
 5256TIP3    H137403   5.602   5.346   0.075  1.0370 -0.6538  0.1589
 5256TIP3    H237404   5.631   5.404  -0.061  0.3614  1.9368  1.0598
 5257TIP3   OH237405   2.429   5.369   0.177 -0.0241  0.0807  0.0891
 5257TIP3    H137406   2.347   5.393   0.134  0.3037 -0.5483 -0.9216
 5257TIP3    H237407   2.449   5.281   0.144  0.7857  0.0158  0.7168
 5258TIP3   OH237408   3.243   1.780   1.107  0.1060  0.0193  0.3979
 5258TIP3    H137409   3.223   1.797   1.015  2.1249  1.5619  0.1943
 5258TIP3    H237410   3.186   1.840   1.155  0.0681  0.2189  0.1062
 5259TIP3   OH237411   2.656   6.558   6.987 -0.3484 -0.3139 -0.3689
 5259TIP3    H137412   2.677   6.625   6.922  0.8180 -0.4206 -0.1093
 5259TIP3    H237413   2.592   6.501   6.942 -0.0154 -0.0440 -1.2088
 5260TIP3   OH237414   6.653   4.193   8.136 -0.2484  0.4980  0.1301
 5260TIP3    H137415   6.699   4.251   8.197 -0.7495  0.4329  0.5793
 5260TIP3    H237416   6.703   4.112   8.137 -1.3326 -0.1840  1.9494
 5261TIP3   OH237417   0.994   5.959   1.955 -0.2639 -0.2890  0.1568
 5261TIP3    H137418   1.019   5.867   1.952  1.0361 -0.0494  1.8791
 5261TIP3    H237419   0.904   5.961   1.921 -0.9036 -2.4328  1.5328
 5262TIP3   OH237420   0.300   3.620   8.641 -0.2522 -0.5030 -0.0844
 5262TIP3    H137421   0.258   3.565   8.574 -0.4406  1.6350 -1.8380
 5262TIP3    H237422   0.391   3.593   8.640 -0.6419 -1.9155  0.3165
 5263TIP3   OH237423   0.923   2.652   2.113  0.2761  0.8955  0.4411
 5263TIP3    H137424   0.971   2.629   2.033 -0.5537  2.2794 -0.4957
 5263TIP3    H237425   0.938   2.578   2.172 -0.1359 -0.7792 -1.4465
 5264TIP3   OH237426   6.138   4.207   1.366 -0.3535  0.1202  0.0426
 5264TIP3    H137427   6.143   4.131   1.424 -0.3301  0.7287  0.8524
 5264TIP3    H237428   6.058   4.253   1.393 -1.1360 -0.3383 -1.3690
 5265TIP3   OH237429   0.608   5.847   6.550  0.4211  0.1538 -0.1686
 5265TIP3    H137430   0.688   5.848   6.497 -0.3597 -0.5881 -1.4134
 5265TIP3    H237431   0.554   5.916   6.512 -0.4975 -0.9601 -0.9473
 5266TIP3   OH237432   1.410   2.386   0.414  0.0900  0.0317 -0.7381
 5266TIP3    H137433   1.383   2.466   0.460  1.0860 -1.0138  1.8607
 5266TIP3    H237434   1.331   2.332   0.411  0.0777 -0.0186  0.1292
 5267TIP3   OH237435   4.667   5.036   0.666  0.1396  0.3518 -0.0970
 5267TIP3    H137436   4.640   5.098   0.734 -1.2972 -1.1335  0.7496
 5267TIP3    H237437   4.665   4.950   0.709  0.7239 -0.4555 -1.6033
 5268TIP3   OH237438   2.507   5.071   6.983 -1.0880  0.1505 -0.3899
 5268TIP3    H137439   2.453   5.098   7.058  0.7366  0.9929  0.6992
 5268TIP3    H237440   2.512   5.150   6.928  0.0339  0.4962  0.1733
 5269TIP3   OH237441   4.215   0.394   8.286  0.3382 -0.1000 -0.2693
 5269TIP3    H137442   4.307   0.418   8.272  0.1799  1.1434  0.6495
 5269TIP3    H237443   4.165   0.457   8.234 -0.0215  0.1673  0.3779
 5270TIP3   OH237444   4.319   1.423   6.446  0.0914  0.1108  0.1045
 5270TIP3    H137445   4.356   1.510   6.428 -0.2485  0.2456  0.0429
 5270TIP3    H237446   4.394   1.370   6.473  0.1874  0.6235  0.8766
 5271TIP3   OH237447   2.719   1.292   1.761 -0.5998  0.2976  0.0298
 5271TIP3    H137448   2.741   1.259   1.674 -0.3431 -0.1847  0.2804
 5271TIP3    H237449   2.636   1.249   1.783  0.4229 -1.2925  0.9462
 5272TIP3   OH237450   4.839   1.934   7.271  0.0525  0.2832 -0.1403
 5272TIP3    H137451   4.854   1.992   7.346 -0.1457 -0.5957  0.6020
 5272TIP3    H237452   4.893   1.857   7.289  0.1863  0.1573 -1.0266
 5273TIP3   OH237453   2.355   5.155   7.233 -0.2267  0.2782  0.7639
 5273TIP3    H137454   2.338   5.064   7.257  0.0316  0.3164  1.0915
 5273TIP3    H237455   2.272   5.200   7.247 -1.4131 -0.5298 -2.5600
 5274TIP3   OH237456   0.439   1.209   8.558 -0.0196 -0.1645  0.3268
 5274TIP3    H137457   0.407   1.224   8.469  0.1310  1.4921  0.5354
 5274TIP3    H237458   0.451   1.296   8.595  0.7196 -0.8159  1.6984
 5275TIP3   OH237459   0.147   1.560   8.257  0.3493 -0.0627 -0.3140
 5275TIP3    H137460   0.135   1.575   8.163 -1.1860  0.9403  0.0026
 5275TIP3    H237461   0.189   1.474   8.262  0.0001 -0.3637 -1.8908
 5276TIP3   OH237462   6.078   3.535   1.656  0.8410 -0.1770 -0.1072
 5276TIP3    H137463   6.078   3.545   1.561 -1.0871 -0.7848 -0.2182
 5276TIP3    H237464   6.007   3.591   1.687 -0.1113 -1.7564  0.7175
 5277TIP3   OH237465   6.307   1.345   0.981  0.5813  0.2983 -0.4882
 5277TIP3    H137466   6.316   1.307   0.894  1.0292  2.2079 -1.3237
 5277TIP3    H237467   6.219   1.382   0.983  1.7882  3.6066 -1.6411
 5278TIP3   OH237468   2.978   4.333   0.937  0.7670  0.1703 -0.3687
 5278TIP3    H137469   2.891   4.363   0.963  1.0894  1.0928 -0.3376
 5278TIP3    H237470   3.004   4.391   0.866  0.8815 -0.8381 -1.1788
 5279TIP3   OH237471   2.451   3.830   0.246 -0.3289  0.0723 -0.3073
 5279TIP3    H137472   2.507   3.759   0.213 -0.1957  0.7224 -1.5131
 5279TIP3    H237473   2.483   3.845   0.335  0.6209 -0.3936 -0.5521
 5280TIP3   OH237474   6.744   0.409   0.642  0.3231 -0.1693 -0.1473
 5280TIP3    H137475   6.735   0.396   0.737  1.9663  2.2045  0.4071
 5280TIP3    H237476   6.810   0.477   0.633  2.2956 -2.2217 -3.1084
 5281TIP3   OH237477   2.134   6.395   8.070  1.1731 -0.3533  0.0367
 5281TIP3    H137478   2.090   6.476   8.097 -0.8613 -1.0243 -1.0487
 5281TIP3    H237479   2.227   6.412   8.086  0.9290  2.5536 -1.0219
 5282TIP3   OH237480   0.541   6.689   8.486 -0.0018 -0.2408  0.2888
 5282TIP3    H137481   0.625   6.735   8.485 -0.2214  0.2603  1.9392
 5282TIP3    H237482   0.533   6.656   8.576 -0.1127 -3.0697 -0.6723
 5283TIP3   OH237483   4.610   1.398   8.443  1.2398  0.0862 -0.0200
 5283TIP3    H137484   4.602   1.486   8.480 -1.4161 -0.2314  0.3847
 5283TIP3    H237485   4.548   1.398   8.370  0.1611 -1.8046  0.8234
 5284TIP3   OH237486   3.547   2.629   0.012 -0.2277  0.1877 -0.6058
 5284TIP3    H137487   3.508   2.712   0.040  0.5182  0.2839  0.1718
 5284TIP3    H237488   3.640   2.649   0.002  0.1902 -0.8655  0.8740
 5285TIP3   OH237489   5.540   0.501   0.939 -0.0973 -0.8452  0.3780
 5285TIP3    H137490   5.475   0.570   0.952 -0.3557 -1.0948  0.4272
 5285TIP3    H237491   5.537   0.482   0.846 -0.4919 -1.2368  0.4646
 5286TIP3   OH237492   0.303   2.228   8.417 -0.5334  0.1969  0.0821
 5286TIP3    H137493   0.271   2.234   8.507  0.8311  0.3505  0.5854
 5286TIP3    H237494   0.361   2.303   8.407  0.7060 -0.7808 -0.3301
 5287TIP3   OH237495   3.436   0.920   8.247  0.1638 -0.1398 -0.5228
 5287TIP3    H137496   3.497   0.857   8.286 -0.9829 -0.9200  0.0369
 5287TIP3    H237497   3.389   0.870   8.180  0.7396  0.6929 -1.5950
 5288TIP3   OH237498   5.768   6.614   1.784  0.0849  0.0703 -0.2443
 5288TIP3    H137499   5.860   6.635   1.772  0.1156 -0.8473 -1.8551
 5288TIP3    H237500   5.766   6.554   1.858  0.8453 -0.2758 -0.4939
 5289TIP3   OH237501   2.623   3.987   1.893  0.0130 -0.6289 -0.0877
 5289TIP3    H137502   2.566   4.063   1.882  0.6484  0.2125  1.9134
 5289TIP3    H237503   2.663   3.999   1.979  0.0914 -3.2956  0.3480
 5290TIP3   OH237504   4.456   1.085   6.729  0.6511 -0.3827 -0.1999
 5290TIP3    H137505   4.450   1.103   6.635 -1.1515 -0.2195 -0.0895
 5290TIP3    H237506   4.548   1.061   6.743  1.2450  0.7942 -1.7731
 5291TIP3   OH237507   0.587   5.050   6.266  0.0684 -0.0231  0.0905
 5291TIP3    H137508   0.620   5.139   6.269 -0.0854  0.0336  0.1405
 5291TIP3    H237509   0.492   5.060   6.261  0.0240 -0.1888  0.5741
 5292TIP3   OH237510   6.462   1.533   6.471  0.2360 -0.5465 -0.3824
 5292TIP3    H137511   6.526   1.466   6.448  0.5282  0.4921 -2.9474
 5292TIP3    H237512   6.392   1.522   6.407  1.2725  2.8094 -2.3948
 5293TIP3   OH237513   5.430   0.724   1.633  0.3966 -0.2909  0.0352
 5293TIP3    H137514   5.457   0.646   1.682 -0.1342 -0.6751 -0.2698
 5293TIP3    H237515   5.384   0.778   1.697  2.5907  0.7913  0.7911
 5294TIP3   OH237516   5.955   4.089   7.642 -0.1668  0.5570 -0.4158
 5294TIP3    H137517   5.953   4.169   7.589  0.2128  0.3135 -0.8088
 5294TIP3    H237518   6.037   4.047   7.618 -0.2958  0.1204 -0.1019
 5295TIP3   OH237519   6.171   0.542   7.112 -0.8260  0.1935  0.9292
 5295TIP3    H137520   6.083   0.540   7.075 -0.6668  2.6317  0.1792
 5295TIP3    H237521   6.204   0.629   7.087  1.6928 -0.5657  1.4087
 5296TIP3   OH237522   0.510   5.144   7.664  0.4392 -0.3374  0.6090
 5296TIP3    H137523   0.552   5.150   7.578  1.3881  0.3460  1.1009
 5296TIP3    H237524   0.441   5.210   7.662  0.4518 -0.3315  0.3615
 5297TIP3   OH237525   0.144   1.917   6.696 -0.3648  0.2657 -0.2206
 5297TIP3    H137526   0.120   2.008   6.714 -2.0233 -0.1712 -0.0084
 5297TIP3    H237527   0.233   1.908   6.727 -0.6893  1.4306  1.1186
 5298TIP3   OH237528   1.786   3.265   0.933 -0.1633 -0.7914  0.1128
 5298TIP3    H137529   1.706   3.233   0.890  0.2225 -3.1589  1.0159
 5298TIP3    H237530   1.799   3.206   1.007  1.9095  0.1520  0.5752
 5299TIP3   OH237531   4.247   4.145   7.663  0.2135 -0.3378 -0.6131
 5299TIP3    H137532   4.176   4.195   7.703 -0.1357 -0.9485 -0.4618
 5299TIP3    H237533   4.326   4.188   7.693 -0.0891  0.3047 -0.7189
 5300TIP3   OH237534   5.339   2.643   0.886  0.1051 -0.3011 -0.1115
 5300TIP3    H137535   5.327   2.703   0.813  1.1640 -0.4939 -0.4699
 5300TIP3    H237536   5.396   2.575   0.852 -2.1085 -2.2566 -0.1132
 5301TIP3   OH237537   1.565   0.687   0.579  0.3875 -0.5062  0.1890
 5301TIP3    H137538   1.609   0.739   0.646  1.6651 -2.0297  0.5970
 5301TIP3    H237539   1.503   0.632   0.627 -0.1162 -0.2027 -0.1058
 5302TIP3   OH237540   5.569   4.543   8.015  0.1568  0.1538  0.6694
 5302TIP3    H137541   5.475   4.534   8.002  0.3645 -0.5746 -0.4419
 5302TIP3    H237542   5.607   4.466   7.974  1.1610 -0.3636  2.4382
 5303TIP3   OH237543   1.189   4.765   1.270 -0.1283 -0.2581  0.1624
 5303TIP3    H137544   1.215   4.718   1.349 -1.9636  0.0760  1.0267
 5303TIP3    H237545   1.113   4.717   1.238 -0.8150  0.9339 -0.0641
 5304TIP3   OH237546   1.970   4.963   8.083  0.1032 -0.3904  0.5345
 5304TIP3    H137547   1.946   5.054   8.062  0.9410 -0.6049 -1.6654
 5304TIP3    H237548   1.905   4.935   8.147  0.0492  1.8713  1.5809
 5305TIP3   OH237549   5.753   4.290   7.884  0.0967 -0.0652  0.1816
 5305TIP3    H137550   5.773   4.305   7.791  1.0056 -1.2591  0.1588
 5305TIP3    H237551   5.680   4.229   7.884  0.7698 -0.8810  0.2379
 5306TIP3   OH237552   0.660   3.025   2.262  0.1206  0.0844 -0.1395
 5306TIP3    H137553   0.718   2.952   2.284 -0.7460 -0.6244 -0.1691
 5306TIP3    H237554   0.575   3.000   2.297 -0.7651 -0.0008 -2.2080
 5307TIP3   OH237555   3.714   6.218   1.282  0.5654 -0.1439 -0.1580
 5307TIP3    H137556   3.650   6.200   1.352  0.8487 -1.1584 -0.1519
 5307TIP3    H237557   3.662   6.257   1.212  0.1018 -0.0870  0.2102
 5308TIP3   OH237558   5.919   6.602   2.161 -0.1966  0.5521  0.1324
 5308TIP3    H137559   5.884   6.571   2.244 -1.3901 -1.2479 -0.9736
 5308TIP3    H237560   5.852   6.577   2.096  1.3959  0.4796 -1.5578
 5309TIP3   OH237561   3.375   4.131   1.318 -0.5405  0.2026 -0.0173
 5309TIP3    H137562   3.287   4.160   1.342 -0.4085 -1.0233  2.2075
 5309TIP3    H237563   3.365   4.097   1.229 -1.8093  2.0225 -0.6265
 5310TIP3   OH237564   6.340   2.961   0.811 -0.1115  0.3227  0.1318
 5310TIP3    H137565   6.266   3.022   0.808 -0.5709 -0.1001  1.8344
 5310TIP3    H237566   6.413   3.014   0.842 -0.0508  0.4230 -0.1826
 5311TIP3   OH237567   0.254   2.794   7.117 -0.1867  0.2430 -0.7279
 5311TIP3    H137568   0.267   2.734   7.044 -4.0208  0.6066 -1.9226
 5311TIP3    H237569   0.282   2.745   7.194  2.7247 -0.6234 -2.1936
 5312TIP3   OH237570   1.837   5.215   0.192  0.6783  0.7130 -0.0653
 5312TIP3    H137571   1.921   5.231   0.235  1.1966 -0.8079 -0.4431
 5312TIP3    H237572   1.806   5.133   0.230  0.6615 -0.1440 -1.7892
 5313TIP3   OH237573   0.467   0.497   6.476  0.0777  0.3879  0.1467
 5313TIP3    H137574   0.559   0.510   6.453  0.9956 -2.8903  1.3880
 5313TIP3    H237575   0.430   0.450   6.401 -0.6617  1.7205 -0.3616
 5314TIP3   OH237576   6.437   0.488   8.568 -0.2905 -0.2251 -0.0378
 5314TIP3    H137577   6.369   0.434   8.608 -1.5902  1.5284  0.2754
 5314TIP3    H237578   6.399   0.516   8.485  0.7715 -0.5978 -0.6678
 5315TIP3   OH237579   6.579   2.636   7.271 -0.0637 -0.2567  0.3040
 5315TIP3    H137580   6.512   2.693   7.232 -0.4419 -1.9857 -1.7509
 5315TIP3    H237581   6.662   2.677   7.245 -0.3135  0.3338  0.4053
 5316TIP3   OH237582   1.789   4.394   7.186 -0.3989  0.0922  0.4175
 5316TIP3    H137583   1.704   4.382   7.229 -0.4707 -0.0618  0.2352
 5316TIP3    H237584   1.820   4.479   7.217 -1.2127  0.7598 -0.5229
 5317TIP3   OH237585   3.012   0.681   7.212 -0.1304 -0.3795 -0.1609
 5317TIP3    H137586   2.995   0.685   7.306 -0.9379 -0.8818 -0.2779
 5317TIP3    H237587   2.927   0.700   7.171  0.2458 -0.0020 -0.7913
 5318TIP3   OH237588   3.908   1.166   7.978 -0.4854  0.3951 -0.9562
 5318TIP3    H137589   3.937   1.226   8.046  2.7531  0.7050 -2.4042
 5318TIP3    H237590   3.827   1.203   7.945 -0.5084  1.8887  0.6887
 5319TIP3   OH237591   2.000   6.715   1.233 -0.3493 -0.0155 -0.5532
 5319TIP3    H137592   1.913   6.754   1.223 -0.3370  0.1697  0.0139
 5319TIP3    H237593   1.984   6.620   1.231 -0.6813  0.0039  0.3524
 5320TIP3   OH237594   1.128   1.954   7.498 -0.4752  0.1270 -0.2436
 5320TIP3    H137595   1.169   2.035   7.528  0.1294 -0.1906 -0.1844
 5320TIP3    H237596   1.059   1.982   7.438 -0.9220  0.7159  0.5400
 5321TIP3   OH237597   0.363   2.653   1.505 -0.0944  0.2078  0.0515
 5321TIP3    H137598   0.359   2.687   1.416  0.8413 -0.5022 -0.2798
 5321TIP3    H237599   0.274   2.663   1.539 -0.5795  0.0171 -1.1316
 5322TIP3   OH237600   5.503   0.388   7.360  1.0492 -0.2343 -0.1371
 5322TIP3    H137601   5.480   0.439   7.438 -0.0300  0.3441 -0.8121
 5322TIP3    H237602   5.537   0.306   7.395  0.2008 -0.1441  0.9565
 5323TIP3   OH237603   5.167   1.776   1.569 -0.0948  0.2595 -0.1751
 5323TIP3    H137604   5.116   1.719   1.512  0.3109 -1.4689  1.0767
 5323TIP3    H237605   5.109   1.849   1.590 -0.5781  0.4267 -1.9640
 5324TIP3   OH237606   6.504   3.673   8.580  0.0794 -0.1240  0.4345
 5324TIP3    H137607   6.466   3.734   8.517  2.5765 -0.1636 -1.2955
 5324TIP3    H237608   6.509   3.722   8.662  0.1420  1.2820 -0.3803
 5325TIP3   OH237609   2.675   2.717   1.359  0.3172 -0.1593  0.2905
 5325TIP3    H137610   2.602   2.688   1.306  1.6022 -0.7427 -1.2465
 5325TIP3    H237611   2.666   2.670   1.442  0.4878 -2.4154 -0.9100
 5326TIP3   OH237612   3.552   5.071   7.134  0.8285 -0.7963 -0.3849
 5326TIP3    H137613   3.459   5.093   7.136  1.4875  2.5789  0.0230
 5326TIP3    H237614   3.569   5.050   7.042  0.5074  3.9760 -1.8175
 5327TIP3   OH237615   6.027   0.893   0.876  0.4253  0.3585 -0.3163
 5327TIP3    H137616   5.980   0.959   0.825 -0.3987 -0.9131 -1.2423
 5327TIP3    H237617   6.076   0.944   0.941 -1.5084  1.8037  0.0935
 5328TIP3   OH237618   5.398   6.722   7.944 -1.0472  0.5631  0.0148
 5328TIP3    H137619   5.362   6.745   7.858  0.2053  1.3367 -0.3365
 5328TIP3    H237620   5.489   6.699   7.926 -0.6566  1.1185  1.1881
 5329TIP3   OH237621   6.178   1.223   0.176 -0.2364  0.2112  0.0556
 5329TIP3    H137622   6.135   1.143   0.208  1.0639 -0.4739  0.1756
 5329TIP3    H237623   6.115   1.261   0.115 -1.3347 -0.3126  0.8298
 5330TIP3   OH237624   0.043   0.358   8.026  0.0624 -0.1756 -0.3681
 5330TIP3    H137625   0.045   0.451   8.007 -1.3526  0.3376  1.6994
 5330TIP3    H237626  -0.041   0.328   7.993 -0.7493 -0.0630  1.4817
 5331TIP3   OH237627   6.671   6.235   2.548 -0.5092 -0.3133 -0.4077
 5331TIP3    H137628   6.742   6.171   2.557  0.3062  0.6814  0.5359
 5331TIP3    H237629   6.716   6.318   2.535 -1.5272  0.2778 -0.2009
 5332TIP3   OH237630   1.383   6.742   0.835  0.1434  0.3366 -0.0332
 5332TIP3    H137631   1.379   6.783   0.748 -0.5250  0.1535 -0.0910
 5332TIP3    H237632   1.466   6.772   0.871  0.4810  0.3270 -0.7816
 5333TIP3   OH237633   3.915   1.630   8.085 -0.2638  0.2463  0.5101
 5333TIP3    H137634   3.863   1.609   8.008  0.6466 -0.0603 -0.0308
 5333TIP3    H237635   4.003   1.596   8.066  0.0108  0.2821  1.6214
 5334TIP3   OH237636   1.228   4.091   0.582 -0.6202 -0.1458  0.2653
 5334TIP3    H137637   1.219   4.126   0.670 -0.2586  0.1105  0.2039
 5334TIP3    H237638   1.307   4.133   0.547 -0.8141 -0.1680 -0.2151
 5335TIP3   OH237639   3.565   0.870   1.159 -0.7507  0.1792 -0.3962
 5335TIP3    H137640   3.483   0.821   1.169  0.2533 -1.3643  0.7930
 5335TIP3    H237641   3.582   0.907   1.246 -0.2964  0.6719 -0.6895
 5336TIP3   OH237642   2.312   3.698   1.001 -0.3860 -0.6689  0.4652
 5336TIP3    H137643   2.251   3.716   1.072  0.3775  0.4370  0.8528
 5336TIP3    H237644   2.398   3.696   1.042  0.0451 -0.2366 -0.3849
 5337TIP3   OH237645   5.210   5.302   7.295  0.0275 -0.5653  0.1030
 5337TIP3    H137646   5.292   5.255   7.280 -0.1067 -0.8076  0.1237
 5337TIP3    H237647   5.169   5.256   7.369 -0.0386 -0.3291  0.2153
 5338TIP3   OH237648   2.376   3.233   7.036  0.0604 -0.3157  0.2789
 5338TIP3    H137649   2.338   3.179   6.967 -0.6615 -1.5988  1.6017
 5338TIP3    H237650   2.303   3.248   7.097  0.9589 -0.3253  1.3913
 5339TIP3   OH237651   0.573   3.092   7.465 -0.3497  0.2983 -0.5502
 5339TIP3    H137652   0.627   3.027   7.420 -1.6997 -0.0297 -1.7503
 5339TIP3    H237653   0.634   3.162   7.487  0.6677 -0.2796 -1.4252
 5340TIP3   OH237654   5.406   4.692   0.298 -0.0231  0.4787  0.2154
 5340TIP3    H137655   5.348   4.731   0.232  0.1787 -0.8692 -0.8157
 5340TIP3    H237656   5.488   4.676   0.251  0.6516  0.8963  1.2268
 5341TIP3   OH237657   6.632   5.838   1.286  0.4953 -0.5412 -0.0190
 5341TIP3    H137658   6.537   5.827   1.294  0.2832  0.1920 -1.2928
 5341TIP3    H237659   6.668   5.783   1.355 -0.9007  0.3349  1.5075
 5342TIP3   OH237660   6.655   6.382   7.242 -0.1232  0.3595  0.2151
 5342TIP3    H137661   6.688   6.442   7.176 -1.0629 -0.4749 -1.0754
 5342TIP3    H237662   6.576   6.344   7.203  0.5140 -1.8245  0.8858
 5343TIP3   OH237663   6.226   5.356   1.512 -0.0921  0.2434  0.4263
 5343TIP3    H137664   6.237   5.361   1.417 -0.6378  1.2142  0.3935
 5343TIP3    H237665   6.300   5.304   1.543  0.3668  0.3383 -0.4869
 5344TIP3   OH237666   2.011   0.809   0.132 -0.0306  0.4960  0.1642
 5344TIP3    H137667   1.991   0.801   0.226 -0.2690  0.4933  0.1127
 5344TIP3    H237668   1.971   0.892   0.106  1.1845  1.1619  0.3675
 5345TIP3   OH237669   3.946   5.282   8.086  0.7838 -0.0739 -0.3799
 5345TIP3    H137670   3.990   5.330   8.156  0.4532  0.1446 -0.3180
 5345TIP3    H237671   3.914   5.202   8.127  0.7735 -0.0457 -0.3338
 5346TIP3   OH237672   4.805   1.551   0.095 -0.3562  0.0318 -0.5613
 5346TIP3    H137673   4.785   1.641   0.118  1.3954  0.5327 -0.8996
 5346TIP3    H237674   4.749   1.499   0.152 -1.7038  1.3117 -0.6523
 5347TIP3   OH237675   0.055   0.754   7.223  0.2811  0.1886 -0.2657
 5347TIP3    H137676   0.017   0.667   7.225  2.2109 -0.7016  1.7716
 5347TIP3    H237677   0.077   0.769   7.131  0.1716 -1.5920 -0.6036
 5348TIP3   OH237678   6.482   4.615   7.107 -0.2995 -0.3732  0.9637
 5348TIP3    H137679   6.510   4.678   7.173  1.5272 -0.1912  0.0985
 5348TIP3    H237680   6.433   4.666   7.043 -1.3041 -0.3910  1.6967
 5349TIP3   OH237681   6.159   4.476   1.348  0.3861  0.4512  0.1388
 5349TIP3    H137682   6.184   4.384   1.335 -0.0025  0.2417  0.8179
 5349TIP3    H237683   6.069   4.472   1.380  0.3865  1.0700  0.2251
 5350TIP3   OH237684   0.296   6.887   7.451  0.6735 -0.1854  0.2210
 5350TIP3    H137685   0.290   6.804   7.500 -0.5189 -0.5413 -0.4771
 5350TIP3    H237686   0.228   6.942   7.490 -1.4128 -1.0242 -1.9627
 5351TIP3   OH237687   6.265   4.533   0.589  0.0470  0.0995 -0.0005
 5351TIP3    H137688   6.291   4.605   0.646  0.8249  0.3167 -0.6005
 5351TIP3    H237689   6.285   4.454   0.639  1.2540  0.2773 -0.1660
 5352TIP3   OH237690   1.383   1.523   2.264  0.2487  1.2334  0.5620
 5352TIP3    H137691   1.478   1.510   2.255  0.0031  0.2450 -1.0155
 5352TIP3    H237692   1.359   1.467   2.338  0.7448  0.5470  0.2210
 5353TIP3   OH237693   5.894   4.510   7.973  0.4177  0.0852 -0.6486
 5353TIP3    H137694   5.873   4.420   7.950  2.6935 -0.1766 -2.0140
 5353TIP3    H237695   5.859   4.562   7.900 -2.4464  0.6101  0.9482
 5354TIP3   OH237696   6.211   4.163   1.103  0.3104  0.3264  0.6130
 5354TIP3    H137697   6.187   4.175   1.195  0.1841 -0.1507  0.6447
 5354TIP3    H237698   6.226   4.251   1.070 -0.4976  0.5555  0.8592
 5355TIP3   OH237699   3.116   5.326   7.114 -0.0654  0.1898 -0.0608
 5355TIP3    H137700   3.032   5.354   7.079 -0.5374  0.8556  1.5179
 5355TIP3    H237701   3.178   5.393   7.084 -0.2013  0.0369 -0.6982
 5356TIP3   OH237702   4.382   3.265   0.095  0.4222 -0.3068  0.6237
 5356TIP3    H137703   4.467   3.241   0.058 -0.4412 -0.1199 -1.6190
 5356TIP3    H237704   4.372   3.358   0.073 -1.7149 -1.0618 -2.1313
 5357TIP3   OH237705   1.528   5.236   0.044  0.0720  0.2054 -0.1699
 5357TIP3    H137706   1.448   5.213   0.091  1.1572 -1.1663  1.1090
 5357TIP3    H237707   1.581   5.283   0.108 -0.1855  2.2540 -1.3837
 5358TIP3   OH237708   5.772   4.732   0.496 -0.5420  0.8938  0.2218
 5358TIP3    H137709   5.859   4.714   0.532 -0.1573 -2.8160 -1.9679
 5358TIP3    H237710   5.718   4.658   0.526 -1.7178  0.8093 -1.8874
 5359TIP3   OH237711   3.664   1.536   0.862 -0.6060  0.1840 -0.3301
 5359TIP3    H137712   3.689   1.444   0.855 -0.9573  0.1257 -0.8712
 5359TIP3    H237713   3.575   1.535   0.895 -0.2990  0.3607  0.5218
 5360TIP3   OH237714   4.448   0.503   6.731 -0.2316 -0.1148 -0.1767
 5360TIP3    H137715   4.534   0.543   6.723 -0.5197  0.5265 -0.1334
 5360TIP3    H237716   4.451   0.455   6.814 -0.5433  1.5115  0.8184
 5361TIP3   OH237717   3.220   4.883   8.068 -0.0363 -0.5549 -0.0998
 5361TIP3    H137718   3.299   4.915   8.112 -0.2787 -1.1047  0.7533
 5361TIP3    H237719   3.156   4.953   8.081 -0.0624 -0.6522  0.2879
 5362TIP3   OH237720   6.069   6.322   0.935 -0.3347 -0.2442 -0.6878
 5362TIP3    H137721   6.026   6.403   0.908  0.6041  0.5963  0.2466
 5362TIP3    H237722   6.095   6.338   1.026  0.9488 -1.1231 -0.8732
 5363TIP3   OH237723   2.185   0.256   0.143 -0.3377 -0.1469  0.4128
 5363TIP3    H137724   2.238   0.334   0.158  0.8012 -0.6907 -0.6101
 5363TIP3    H237725   2.130   0.249   0.221  0.1387  1.1997  0.8956
 5364TIP3   OH237726   3.190   5.565   7.408  0.3002 -0.4448 -0.0057
 5364TIP3    H137727   3.256   5.508   7.368 -0.0815 -0.4272 -0.6783
 5364TIP3    H237728   3.238   5.643   7.434  0.3768  0.0733 -1.5503
 5365TIP3   OH237729   2.169   3.284   8.271  0.0980 -0.3452 -0.1396
 5365TIP3    H137730   2.255   3.315   8.243  0.5401 -0.5895  0.8781
 5365TIP3    H237731   2.113   3.295   8.195  1.1248 -0.5444 -0.9422
 5366TIP3   OH237732   0.467   1.248   0.621  0.5262 -0.2348  0.0808
 5366TIP3    H137733   0.387   1.203   0.649  0.6411 -0.3531  0.2200
 5366TIP3    H237734   0.500   1.291   0.700  1.0118 -0.8166  0.2004
 5367TIP3   OH237735   5.540   2.689   2.142  0.2223  0.3584  0.0857
 5367TIP3    H137736   5.484   2.731   2.208  0.7519 -0.0810  0.8333
 5367TIP3    H237737   5.480   2.636   2.090 -0.2939  1.1918 -0.1785
 5368TIP3   OH237738   5.635   0.385   7.854 -0.3443 -0.3576 -0.5982
 5368TIP3    H137739   5.582   0.458   7.886  0.3428 -0.1488  0.0808
 5368TIP3    H237740   5.716   0.426   7.823 -0.0000 -0.8175 -0.3181
 5369TIP3   OH237741   1.840   3.456   1.403 -0.5106 -0.1435  0.3759
 5369TIP3    H137742   1.763   3.466   1.458  0.7692 -0.2818  2.2790
 5369TIP3    H237743   1.859   3.545   1.372 -0.5847  0.1272  1.0997
 5370TIP3   OH237744   1.295   3.728   6.993 -0.2934 -0.2419 -0.2954
 5370TIP3    H137745   1.380   3.749   7.032 -0.7143  1.6409 -0.3006
 5370TIP3    H237746   1.310   3.646   6.946  1.9287  0.7527 -1.4844
 5371TIP3   OH237747   5.509   4.215   6.617  0.4697 -0.1581 -0.1658
 5371TIP3    H137748   5.537   4.184   6.531 -1.1903 -0.7274 -0.5200
 5371TIP3    H237749   5.591   4.227   6.665  1.3636 -5.0577  0.0184
 5372TIP3   OH237750   2.191   2.356   1.724  0.3821 -0.2195  0.2263
 5372TIP3    H137751   2.123   2.410   1.763  0.0075 -0.4916 -0.0344
 5372TIP3    H237752   2.211   2.290   1.791  0.0237 -0.4471  0.1110
 5373TIP3   OH237753   1.207   1.414   8.203 -0.2359  0.2922 -0.2027
 5373TIP3    H137754   1.277   1.480   8.198  0.7333 -0.7666 -1.4740
 5373TIP3    H237755   1.188   1.405   8.296  1.1663  0.7663  0.1489
 5374TIP3   OH237756   3.437   5.295   0.871  0.0310  0.0217 -0.1295
 5374TIP3    H137757   3.523   5.274   0.834  0.3216  2.5202 -1.0918
 5374TIP3    H237758   3.423   5.228   0.938  2.3090 -1.0029 -0.5539
 5375TIP3   OH237759   1.498   0.874   8.642  0.1038 -0.5069  0.3978
 5375TIP3    H137760   1.532   0.951   8.688 -0.8894  0.1664  0.0480
 5375TIP3    H237761   1.576   0.827   8.613  0.7382  0.4632  0.4722
 5376TIP3   OH237762   2.194   4.254   8.097  0.3518  0.2021  0.5164
 5376TIP3    H137763   2.171   4.167   8.064 -0.1316  0.6120 -0.2712
 5376TIP3    H237764   2.275   4.241   8.146  0.4086 -0.6561  0.2117
 5377TIP3   OH237765   1.187   2.390   0.729 -0.3601 -0.1720 -0.2085
 5377TIP3    H137766   1.142   2.309   0.705 -2.6924  0.7925  0.5894
 5377TIP3    H237767   1.180   2.445   0.650 -0.0785 -0.2273 -0.2711
 5378TIP3   OH237768   2.758   4.824   6.379  0.4697  0.2074  0.1212
 5378TIP3    H137769   2.701   4.837   6.303  0.5612  1.6785  0.2833
 5378TIP3    H237770   2.839   4.788   6.342 -0.4134 -1.6678 -0.1403
 5379TIP3   OH237771   5.206   6.329   6.367  0.1881 -0.4355  0.2781
 5379TIP3    H137772   5.247   6.375   6.441 -0.1213 -1.2240  0.9602
 5379TIP3    H237773   5.197   6.396   6.299 -1.3370  0.8262  1.6343
 5380TIP3   OH237774   6.364   0.763   7.531  0.0262 -0.4809  0.4882
 5380TIP3    H137775   6.432   0.796   7.590 -0.1245  0.0202  0.3872
 5380TIP3    H237776   6.396   0.785   7.444 -0.8692  0.9587  0.4894
 5381TIP3   OH237777   1.099   3.235   7.515 -0.1987  0.5175 -0.1749
 5381TIP3    H137778   1.107   3.172   7.443  0.1553  2.4333 -1.9017
 5381TIP3    H237779   1.142   3.193   7.589 -1.5942 -2.0231 -0.7052
 5382TIP3   OH237780   3.921   5.104   6.941  0.6196 -0.0678 -0.0284
 5382TIP3    H137781   3.965   5.167   6.883 -0.4684  1.4342  0.6982
 5382TIP3    H237782   3.840   5.082   6.896  0.5141 -0.1420  0.1964
 5383TIP3   OH237783   6.110   1.740   7.403  0.0272  0.2033  0.0866
 5383TIP3    H137784   6.050   1.768   7.334  0.6089  0.3407 -0.3790
 5383TIP3    H237785   6.190   1.716   7.356 -0.1944 -1.5445  0.5312
 5384TIP3   OH237786   3.272   3.294   8.047  0.3964 -0.2263  0.3564
 5384TIP3    H137787   3.279   3.358   7.976 -0.3846  0.8552  1.2203
 5384TIP3    H237788   3.278   3.209   8.003 -0.7400  0.3988 -1.1093
 5385TIP3   OH237789   3.565   1.951   2.393 -0.2813  0.4012 -0.3315
 5385TIP3    H137790   3.543   1.860   2.411 -0.2605  0.5404  0.3968
 5385TIP3    H237791   3.499   1.979   2.329 -0.2015 -0.1590 -0.6640
 5386TIP3   OH237792   0.759   6.059   1.445  0.9304 -0.1731 -0.4031
 5386TIP3    H137793   0.817   6.002   1.497  0.3847 -0.9196 -0.5885
 5386TIP3    H237794   0.753   6.015   1.360  0.4251  0.1135 -0.5196
 5387TIP3   OH237795   6.029   4.999   7.121  0.0038  0.4814 -0.2561
 5387TIP3    H137796   6.025   5.094   7.109 -0.6422  0.5776  0.5981
 5387TIP3    H237797   5.946   4.977   7.163  0.9723 -0.1701  1.4196
 5388TIP3   OH237798   4.821   2.962   0.982  0.0110 -0.3178  0.9881
 5388TIP3    H137799   4.824   2.994   1.072  0.1875  2.1028  0.1931
 5388TIP3    H237800   4.911   2.937   0.961  0.6279  1.9982  0.5882
 5389TIP3   OH237801   0.742   5.543   7.080  0.1021 -0.6054 -0.2440
 5389TIP3    H137802   0.666   5.495   7.115  0.9553 -1.2718  0.7404
 5389TIP3    H237803   0.706   5.628   7.053 -0.6086  0.0626  2.4639
 5390TIP3   OH237804   6.579   4.798   8.579 -0.4642  0.3795 -0.4130
 5390TIP3    H137805   6.552   4.887   8.602 -2.1708  0.1417 -1.2973
 5390TIP3    H237806   6.519   4.773   8.508  1.2745 -0.7417 -1.5594
 5391TIP3   OH237807   2.573   1.752   1.499  0.8881 -0.3290  0.4859
 5391TIP3    H137808   2.639   1.722   1.437  1.7973  2.6093 -0.1428
 5391TIP3    H237809   2.604   1.839   1.527 -1.2606 -0.0786  2.4089
 5392TIP3   OH237810   0.537   2.146   1.837  0.5649  0.4364 -0.6607
 5392TIP3    H137811   0.496   2.096   1.908  0.2836  0.8582 -0.5272
 5392TIP3    H237812   0.476   2.216   1.818  0.4109  0.0454 -1.6594
 5393TIP3   OH237813   5.551   2.928   0.972  0.3038 -0.2778  0.2863
 5393TIP3    H137814   5.566   3.000   1.033  0.1589 -0.2003  0.2301
 5393TIP3    H237815   5.612   2.860   1.000  0.6265 -0.0384  0.1813
 5394TIP3   OH237816   6.797   2.181   0.021  0.1133 -0.1055 -0.0188
 5394TIP3    H137817   6.792   2.127   0.099  1.1948 -1.9898 -1.1874
 5394TIP3    H237818   6.886   2.168  -0.013  0.7691  3.1118  0.0767
 5395TIP3   OH237819   4.818   0.480   7.883  0.5625 -0.6491  0.0871
 5395TIP3    H137820   4.858   0.547   7.827  0.4423 -0.0860  0.6568
 5395TIP3    H237821   4.869   0.482   7.963 -1.0944  0.7388  1.2018
 5396TIP3   OH237822   4.783   3.385   1.008  0.0716  0.3007 -0.0636
 5396TIP3    H137823   4.878   3.382   1.006  0.1865  2.6781 -1.2156
 5396TIP3    H237824   4.757   3.295   1.028  2.5193 -0.5519 -0.3607
 5397TIP3   OH237825   1.734   4.353   6.889  0.3652  0.1516 -0.3831
 5397TIP3    H137826   1.724   4.263   6.921  0.7156 -0.1788 -1.1509
 5397TIP3    H237827   1.654   4.398   6.916 -0.0383 -0.5261 -0.4224
 5398TIP3   OH237828   6.503   0.317   1.446 -0.3688  0.6706  0.0130
 5398TIP3    H137829   6.580   0.279   1.488  0.2762  0.8294 -0.9818
 5398TIP3    H237830   6.449   0.349   1.518  2.1501  3.8288  0.7131
 5399TIP3   OH237831   1.287   2.403   1.801 -0.4155 -0.9279 -0.4034
 5399TIP3    H137832   1.355   2.468   1.785 -0.8505 -0.5062 -0.5753
 5399TIP3    H237833   1.320   2.322   1.763  0.4724 -1.0068  0.4874
 5400TIP3   OH237834   6.491   2.980   7.509 -0.4975  0.0651 -0.2480
 5400TIP3    H137835   6.586   2.985   7.496 -0.4827  0.2934 -0.0642
 5400TIP3    H237836   6.455   3.051   7.457 -0.4811  0.6307  0.4979
 5401TIP3   OH237837   4.039   4.557   6.996  0.6518  0.0542 -0.4299
 5401TIP3    H137838   4.054   4.594   7.083 -3.3566 -0.2417  0.5905
 5401TIP3    H237839   3.982   4.620   6.952 -0.1416 -1.3298 -1.5034
 5402TIP3   OH237840   1.518   3.108   2.063 -0.0450  0.2006  0.0643
 5402TIP3    H137841   1.452   3.038   2.063  1.2167 -1.0512 -0.3756
 5402TIP3    H237842   1.543   3.116   2.155  0.3486 -0.4892  0.0263
 5403TIP3   OH237843   3.507   5.629   0.678  0.1517 -0.3820  0.0292
 5403TIP3    H137844   3.555   5.637   0.760  0.7396  1.0412 -0.4203
 5403TIP3    H237845   3.462   5.713   0.668 -1.7801 -1.3640  0.0134
 5404TIP3   OH237846   1.547   3.915   7.985  0.0282  0.4365  0.2143
 5404TIP3    H137847   1.535   4.009   7.973 -1.2037  0.3889  0.9362
 5404TIP3    H237848   1.580   3.884   7.900 -0.3543  1.3807 -0.2950
 5405TIP3   OH237849   5.489   0.168   1.061 -0.1804  0.5605  0.1500
 5405TIP3    H137850   5.400   0.181   1.027 -0.2318  0.0505  0.0815
 5405TIP3    H237851   5.503   0.242   1.120 -0.6077  0.7076  0.0727
 5406TIP3   OH237852   1.652   1.407   0.348 -0.0090  0.1194 -0.6730
 5406TIP3    H137853   1.668   1.350   0.423  0.1171  1.1476  0.1088
 5406TIP3    H237854   1.676   1.354   0.272  2.0611 -0.2060  0.1330
 5407TIP3   OH237855   0.831   2.606   1.036 -0.1271  0.5022  0.2285
 5407TIP3    H137856   0.879   2.573   0.959  0.2164 -1.1147  1.0784
 5407TIP3    H237857   0.866   2.693   1.051 -0.3674  0.9546 -1.5798
 5408TIP3   OH237858   3.305   2.672   7.701  0.1263  0.3920  0.1345
 5408TIP3    H137859   3.330   2.605   7.765 -1.5440 -0.4260 -0.0287
 5408TIP3    H237860   3.303   2.625   7.617 -0.8160  0.7054 -0.0199
 5409TIP3   OH237861   4.342   5.935   6.955  0.0949  0.1528  0.0457
 5409TIP3    H137862   4.430   5.915   6.923  0.1410 -0.3158  0.4438
 5409TIP3    H237863   4.294   5.853   6.945 -0.6656  0.7372 -1.3222
 5410TIP3   OH237864   3.306   0.924   0.113 -0.1731  0.4888 -0.0004
 5410TIP3    H137865   3.351   0.914   0.029 -0.5953 -0.3050 -0.1383
 5410TIP3    H237866   3.346   1.002   0.153  1.9592 -0.7157  0.3156
 5411TIP3   OH237867   5.023   1.765   8.243  0.0142 -0.3269  0.0620
 5411TIP3    H137868   4.948   1.709   8.262 -0.4688  0.9274  2.0779
 5411TIP3    H237869   5.019   1.779   8.148 -3.2155  0.9007  0.2619
 5412TIP3   OH237870   5.503   3.969   8.686  0.5496 -0.2086 -0.3505
 5412TIP3    H137871   5.442   4.035   8.653 -0.0850  2.0951  4.4740
 5412TIP3    H237872   5.450   3.914   8.745  2.3084 -0.7183  0.8511
 5413TIP3   OH237873   6.733   1.765   0.121 -0.3667  0.5012 -0.4856
 5413TIP3    H137874   6.791   1.762   0.046 -0.6282  0.3351 -0.6819
 5413TIP3    H237875   6.650   1.798   0.087 -0.2302  1.2884 -0.0996
 5414TIP3   OH237876   5.029   2.856   8.354  0.7567  0.7051  0.1739
 5414TIP3    H137877   5.093   2.890   8.291  1.4666  0.3384  0.6870
 5414TIP3    H237878   5.069   2.777   8.389 -0.0893  0.3287  0.3306
 5415TIP3   OH237879   3.354   5.152   8.198 -0.0273  0.2978 -0.2723
 5415TIP3    H137880   3.430   5.194   8.157  1.2342 -0.8268  0.7988
 5415TIP3    H237881   3.382   5.134   8.287 -1.1111 -1.2685 -0.2076
 5416TIP3   OH237882   3.249   0.056   6.732 -0.2614  0.3724  0.7117
 5416TIP3    H137883   3.165   0.014   6.717  0.0209 -0.0468  0.2620
 5416TIP3    H237884   3.302   0.031   6.655 -0.1360  1.6736  0.3547
 5417TIP3   OH237885   3.020   2.507   7.663  0.6646  0.0249 -0.4197
 5417TIP3    H137886   2.937   2.492   7.617  0.5487 -0.0185 -0.1976
 5417TIP3    H237887   3.022   2.440   7.731  1.2593 -0.4945 -0.9317
 5418TIP3   OH237888   2.439   4.826   6.917 -0.2755  0.2051  0.2263
 5418TIP3    H137889   2.514   4.772   6.941 -0.1322  1.1920  2.1709
 5418TIP3    H237890   2.471   4.916   6.919 -1.4480  0.6343  0.8642
 5419TIP3   OH237891   2.820   6.527   6.644  0.0486  0.2831 -0.0163
 5419TIP3    H137892   2.915   6.540   6.650  0.2495 -1.1340  0.2166
 5419TIP3    H237893   2.802   6.455   6.705 -0.8009 -1.1774 -1.8864
 5420TIP3   OH237894   4.294   2.938   8.564 -0.4064  0.5658 -0.0855
 5420TIP3    H137895   4.226   2.872   8.578 -0.7349  1.1247  1.0418
 5420TIP3    H237896   4.338   2.945   8.648  0.6222  0.6947 -0.6252
 5421TIP3   OH237897   0.561   0.049   7.527 -0.2956 -0.3444  0.0219
 5421TIP3    H137898   0.548   0.017   7.617 -0.7597  0.8097  0.3758
 5421TIP3    H237899   0.482   0.023   7.480 -0.2382 -0.5775  0.0527
 5422TIP3   OH237900   1.667   4.654   2.157 -0.0776 -0.9427  0.0410
 5422TIP3    H137901   1.645   4.596   2.084  0.9904 -2.1214  0.6070
 5422TIP3    H237902   1.762   4.662   2.154  0.0042 -1.0876  1.3329
 5423TIP3   OH237903   4.369   2.614   7.827 -0.1326  0.6907  0.1463
 5423TIP3    H137904   4.319   2.567   7.894 -0.4552 -1.1020 -1.2537
 5423TIP3    H237905   4.312   2.686   7.802 -1.5385 -0.5827 -0.5186
 5424TIP3   OH237906   2.857   3.737   2.073  0.0286  0.2657  0.8496
 5424TIP3    H137907   2.898   3.740   1.987 -0.0435  2.1576  0.8490
 5424TIP3    H237908   2.914   3.680   2.125 -0.1060 -1.1698 -0.5014
 5425TIP3   OH237909   1.820   2.318   1.714  0.0208  0.1459 -0.5889
 5425TIP3    H137910   1.865   2.325   1.798 -0.9207 -1.9420  0.1617
 5425TIP3    H237911   1.841   2.399   1.668  1.0691  1.0624  1.4041
 5426TIP3   OH237912   6.284   5.140   7.262 -0.3069  0.0348  0.0840
 5426TIP3    H137913   6.197   5.122   7.228 -0.1464 -1.6909  0.5084
 5426TIP3    H237914   6.280   5.116   7.355  0.8408 -0.9522 -0.0908
 5427TIP3   OH237915   0.907   2.450   7.940 -0.5499 -0.4836  0.1589
 5427TIP3    H137916   0.897   2.421   8.031  0.8737 -1.6809 -0.0354
 5427TIP3    H237917   0.942   2.374   7.894 -1.4880  0.0245 -1.4738
 5428TIP3   OH237918   3.367   3.364   7.523 -0.0675  0.2143  0.0055
 5428TIP3    H137919   3.329   3.279   7.502 -1.0070 -0.1470  2.8401
 5428TIP3    H237920   3.300   3.409   7.575  1.5575  1.4900  1.1070
 5429TIP3   OH237921   3.216   0.978   8.381  0.2357  0.4971 -0.2900
 5429TIP3    H137922   3.307   0.965   8.352 -0.3453 -0.9425 -1.5668
 5429TIP3    H237923   3.163   0.941   8.311 -1.3318  0.2855  0.9684
 5430TIP3   OH237924   0.903   2.821   0.280 -0.7605  0.0546 -0.1949
 5430TIP3    H137925   0.890   2.793   0.190 -0.2999  2.3257 -1.0331
 5430TIP3    H237926   0.996   2.803   0.297 -0.4946  0.8959 -0.6883
 5431TIP3   OH237927   0.137   5.162   7.596 -0.4411 -0.0293  0.3214
 5431TIP3    H137928   0.046   5.175   7.569  0.0619 -0.6856 -1.8828
 5431TIP3    H237929   0.154   5.070   7.577  0.3071 -0.2580  1.9915
 5432TIP3   OH237930   2.924   4.726   7.725  0.2958  0.2052 -0.7538
 5432TIP3    H137931   2.962   4.700   7.809 -0.2106 -0.6625 -0.7783
 5432TIP3    H237932   2.883   4.810   7.743  1.7086  0.8976 -0.5885
 5433TIP3   OH237933   0.499   2.736   1.031  0.2142 -0.4994 -0.2285
 5433TIP3    H137934   0.557   2.811   1.021 -1.3587  0.8580  0.3405
 5433TIP3    H237935   0.532   2.690   1.109 -0.9786  1.8001  1.7881
 5434TIP3   OH237936   5.482   5.997   2.291 -0.0142  0.2279  0.7486
 5434TIP3    H137937   5.539   5.928   2.324  3.0464  1.1947 -2.0125
 5434TIP3    H237938   5.483   6.064   2.360 -1.3765 -1.4738  2.5477
 5435TIP3   OH237939   1.612   0.860   0.834  0.4241 -1.1605 -0.3801
 5435TIP3    H137940   1.696   0.903   0.850  0.5971 -1.7959  0.4990
 5435TIP3    H237941   1.548   0.917   0.877  0.3221 -0.3698 -1.5483
 5436TIP3   OH237942   4.505   4.361   8.045 -0.1464  0.0687 -0.4571
 5436TIP3    H137943   4.591   4.339   8.082 -1.8989 -2.0674  2.9295
 5436TIP3    H237944   4.504   4.457   8.041  1.8129  0.2088  1.0256
 5437TIP3   OH237945   4.041   0.554   7.141 -0.6361 -0.4277 -0.1046
 5437TIP3    H137946   4.036   0.644   7.110  1.7314 -0.1762  0.0354
 5437TIP3    H237947   4.041   0.501   7.061  0.6263 -0.0866 -0.3659
 5438TIP3   OH237948   2.516   3.587   0.759 -0.0936  0.5157  0.0523
 5438TIP3    H137949   2.456   3.624   0.824  0.1704 -1.4756  1.5377
 5438TIP3    H237950   2.470   3.509   0.727  1.9529 -1.5745  1.8838
 5439TIP3   OH237951   2.546   5.795   2.008 -0.2278  0.0802  0.1452
 5439TIP3    H137952   2.638   5.781   1.985  0.6072  2.0957  1.9247
 5439TIP3    H237953   2.504   5.711   1.990  2.0087 -0.9989 -0.4223
 5440TIP3   OH237954   2.628   2.052   0.955  0.0063 -0.3526 -0.1278
 5440TIP3    H137955   2.592   2.097   1.032  0.3495  1.3709 -0.9092
 5440TIP3    H237956   2.708   2.011   0.986 -0.2694 -0.3392  0.6159
 5441TIP3   OH237957   0.210   0.303   8.666  0.4894  0.0783 -0.1246
 5441TIP3    H137958   0.149   0.333   8.734 -0.8094  1.1206 -1.6940
 5441TIP3    H237959   0.242   0.219   8.699 -1.1986 -0.1317  1.1344
 5442TIP3   OH237960   6.302   1.708   7.159 -0.1355  0.4962 -0.1191
 5442TIP3    H137961   6.249   1.771   7.111  0.2425 -0.2845 -1.6024
 5442TIP3    H237962   6.370   1.681   7.098  1.6588  1.0098  1.5303
 5443TIP3   OH237963   6.650   6.837   1.488  0.0087  0.3047  0.5391
 5443TIP3    H137964   6.678   6.842   1.397  1.5515 -0.0516  0.9581
 5443TIP3    H237965   6.558   6.862   1.487 -0.7057 -2.0041 -1.4611
 5444TIP3   OH237966   3.451   5.941   0.402  0.1817  0.1071 -0.1687
 5444TIP3    H137967   3.529   5.894   0.375 -0.3525 -0.4660 -0.7296
 5444TIP3    H237968   3.405   5.962   0.321 -0.8179 -0.5650  0.1998
 5445TIP3   OH237969   1.405   3.238   1.693  0.0505  0.3438  0.4638
 5445TIP3    H137970   1.368   3.298   1.759 -0.0281 -0.5435  1.2473
 5445TIP3    H237971   1.337   3.172   1.679 -0.6710  1.4739 -1.8698
 5446TIP3   OH237972   1.352   0.017   6.459 -0.2486 -0.6094  0.7736
 5446TIP3    H137973   1.425  -0.045   6.457 -0.2930 -0.6537 -1.3991
 5446TIP3    H237974   1.331   0.032   6.367 -2.0155  0.5607  1.3317
 5447TIP3   OH237975   0.484   0.985   0.561  0.2189  0.0660 -0.6254
 5447TIP3    H137976   0.575   0.967   0.587  0.6927  0.1170 -2.1291
 5447TIP3    H237977   0.478   1.080   0.560  0.2921  0.0704 -0.9317
 5448TIP3   OH237978   1.132   6.543   0.402  0.2521 -0.1415  0.9450
 5448TIP3    H137979   1.153   6.636   0.400 -0.7585  0.0924  0.7765
 5448TIP3    H237980   1.082   6.532   0.483 -0.0243 -0.4417  0.7354
 5449TIP3   OH237981   5.453   1.961   6.732 -0.5102 -0.3176 -0.4032
 5449TIP3    H137982   5.488   2.007   6.656  0.8692 -1.6327 -0.6121
 5449TIP3    H237983   5.397   1.892   6.695  0.0950 -0.9038 -0.2603
 5450TIP3   OH237984   6.062   5.822   6.892 -0.0939  0.2304 -0.1327
 5450TIP3    H137985   6.051   5.782   6.806 -2.8604 -0.1166  0.3116
 5450TIP3    H237986   6.018   5.906   6.886  0.3295  0.5300  0.7341
 5451TIP3   OH237987   1.235   3.879   7.362 -0.0146  0.5832  0.0864
 5451TIP3    H137988   1.219   3.876   7.267  2.5906 -0.8616 -0.4014
 5451TIP3    H237989   1.233   3.787   7.389 -0.9293  1.0024  1.5065
 5452TIP3   OH237990   3.473   5.094   1.272  1.2125 -0.2853  0.6259
 5452TIP3    H137991   3.535   5.159   1.304  0.9926  0.5490 -0.5473
 5452TIP3    H237992   3.499   5.079   1.181 -0.6812  0.6129 -0.1240
 5453TIP3   OH237993   1.097   0.035   1.418  0.5255 -0.6111 -0.0729
 5453TIP3    H137994   1.180   0.054   1.376  1.9271 -1.8775  1.9168
 5453TIP3    H237995   1.068  -0.047   1.378  0.5601 -0.5058 -0.3155
 5454TIP3   OH237996   4.190   0.317   7.226 -0.0117 -0.0499 -0.6411
 5454TIP3    H137997   4.213   0.296   7.317 -1.3728  1.1071  0.0108
 5454TIP3    H237998   4.155   0.406   7.231  0.4533  0.2584 -2.4129
 5455TIP3   OH237999   4.417   2.079   1.515  0.2164 -0.3020  0.4968
 5455TIP3    H138000   4.414   2.096   1.609 -0.3134 -1.0392  0.6275
 5455TIP3    H238001   4.484   2.012   1.505 -1.3941 -2.0285  0.6838
 5456TIP3   OH238002   6.052   0.106   7.901 -0.8156  0.9645  0.3314
 5456TIP3    H138003   5.999   0.094   7.980  0.1019 -0.5863  0.7541
 5456TIP3    H238004   6.073   0.199   7.901  1.9067  0.5511  3.8229
 5457TIP3   OH238005   5.269   0.253   0.915 -0.0910 -0.6107 -0.6382
 5457TIP3    H138006   5.307   0.245   0.827 -1.7023  2.2110 -1.7150
 5457TIP3    H238007   5.175   0.258   0.901 -0.3950 -0.0545  1.2622
 5458TIP3   OH238008   3.446   6.202   0.006 -0.4939  0.3802 -0.5919
 5458TIP3    H138009   3.453   6.237   0.095 -0.5649 -0.0668 -0.4096
 5458TIP3    H238010   3.405   6.272  -0.044  0.6583  1.1157 -0.5490
 5459TIP3   OH238011   6.841   1.283   8.097  0.3321 -0.3284  0.3069
 5459TIP3    H138012   6.820   1.271   8.004 -0.5779  2.2237  0.1254
 5459TIP3    H238013   6.894   1.206   8.119 -1.2166 -2.0978 -1.7379
 5460TIP3   OH238014   3.718   3.509   0.050 -0.5479  0.8773 -0.1594
 5460TIP3    H138015   3.811   3.489   0.060 -0.1236  2.9991  0.8336
 5460TIP3    H238016   3.683   3.437  -0.002  1.7670  0.3343 -1.0803
 5461TIP3   OH238017   3.696   4.623   8.218 -0.1111  0.2313 -0.2753
 5461TIP3    H138018   3.682   4.716   8.198 -0.8273  0.1967  0.0569
 5461TIP3    H238019   3.682   4.617   8.313  0.1697 -0.1807 -0.2566
 5462TIP3   OH238020   2.536   3.845   1.459 -1.0587 -0.4326  0.3692
 5462TIP3    H138021   2.595   3.861   1.532 -2.2152 -0.2128  1.2769
 5462TIP3    H238022   2.450   3.830   1.499 -2.0931  1.3591 -0.9747
 5463TIP3   OH238023   3.670   4.000   7.327  0.4586  0.6118 -0.0689
 5463TIP3    H138024   3.733   4.041   7.268 -0.0784  0.2327 -0.9389
 5463TIP3    H238025   3.723   3.959   7.395  1.2580 -0.7745 -1.4633
 5464TIP3   OH238026   3.234   0.420   1.660  0.1128  0.3523  0.7042
 5464TIP3    H138027   3.170   0.371   1.712 -0.3087  0.1414  0.0066
 5464TIP3    H238028   3.278   0.477   1.723  0.5323 -0.8345  1.5175
 5465TIP3   OH238029   3.078   1.954   7.849  0.2878 -0.4493 -0.0957
 5465TIP3    H138030   3.143   2.006   7.896 -0.8909  0.5519  0.5064
 5465TIP3    H238031   2.999   2.009   7.850 -0.4340 -1.4299 -1.1912
 5466TIP3   OH238032   2.090   4.411   7.781  0.2590  0.1705  0.6123
 5466TIP3    H138033   2.150   4.384   7.712 -0.6031  1.7318 -0.8191
 5466TIP3    H238034   2.029   4.338   7.790  2.1328 -1.3290  1.9122
 5467TIP3   OH238035   6.350   4.433   6.242 -0.3236  0.0472 -0.2198
 5467TIP3    H138036   6.275   4.449   6.185 -1.9390 -3.0581  0.7914
 5467TIP3    H238037   6.416   4.394   6.184 -0.4438  0.4609 -0.6467
 5468TIP3   OH238038   1.889   4.751   0.311 -0.7461 -0.2341  0.2081
 5468TIP3    H138039   1.824   4.816   0.288 -0.8832 -0.6607 -0.6557
 5468TIP3    H238040   1.967   4.776   0.261 -0.9628 -1.0146 -0.5465
 5469TIP3   OH238041   2.055   4.925   0.070  0.5912 -0.0884  0.4891
 5469TIP3    H138042   2.114   4.975   0.013 -0.4851  0.7785  0.1019
 5469TIP3    H238043   2.075   4.834   0.050  1.7157  0.1794  0.2869
 5470TIP3   OH238044   6.762   4.745   1.231 -0.2131  0.3850  0.4270
 5470TIP3    H138045   6.734   4.689   1.158 -0.6867 -0.4683  1.2521
 5470TIP3    H238046   6.843   4.787   1.199 -0.8432  0.6518 -0.8830
 5471TIP3   OH238047   3.547   5.223   0.474  0.2826 -0.4499  0.1531
 5471TIP3    H138048   3.463   5.178   0.485 -0.0428  0.2225  0.4488
 5471TIP3    H238049   3.598   5.195   0.550  0.2260 -0.6265  0.1292
 5472TIP3   OH238050   4.899   3.152   1.679  0.1692 -0.5691 -0.3598
 5472TIP3    H138051   4.900   3.245   1.703  0.1220 -0.8480  0.7695
 5472TIP3    H238052   4.914   3.106   1.762 -1.9294 -1.6456 -0.5265
 5473TIP3   OH238053   4.476   2.092   7.599 -0.2061 -0.1008 -0.6195
 5473TIP3    H138054   4.397   2.054   7.638  0.8769  0.9067  2.9007
 5473TIP3    H238055   4.448   2.176   7.565 -0.5392  0.8035  1.7020
 5474TIP3   OH238056   1.068   3.126   0.104 -0.3870  0.3024 -0.3666
 5474TIP3    H138057   1.062   3.207   0.052  1.1297  0.6523 -0.0482
 5474TIP3    H238058   0.984   3.083   0.090 -0.3237  0.7379 -2.5441
 5475TIP3   OH238059   1.960   2.856   1.320 -0.3558  0.8478  0.3346
 5475TIP3    H138060   1.925   2.817   1.400 -1.5073 -1.3952 -1.1421
 5475TIP3    H238061   2.052   2.873   1.340 -0.6897  0.6384  2.2220
 5476TIP3   OH238062   2.203   2.214   7.258 -0.5238 -0.0180  0.2561
 5476TIP3    H138063   2.236   2.172   7.178  0.7568  1.9368 -0.3225
 5476TIP3    H238064   2.220   2.150   7.327  0.2754 -0.9285 -0.7391
 5477TIP3   OH238065   2.047   5.544   1.528 -0.0875 -0.2317 -0.4996
 5477TIP3    H138066   2.053   5.532   1.622 -1.5105  0.2094 -0.3390
 5477TIP3    H238067   2.125   5.595   1.505 -1.1504  2.1752  0.8960
 5478TIP3   OH238068   3.034   0.650   0.113 -0.0915 -0.4757 -0.1269
 5478TIP3    H138069   3.116   0.601   0.106  1.5112  2.0606 -0.6623
 5478TIP3    H238070   2.965   0.584   0.114  1.9805 -2.7502  1.0338
 5479TIP3   OH238071   1.802   2.059   0.896 -0.1873 -0.3795 -0.0010
 5479TIP3    H138072   1.828   2.064   0.987  0.4771  1.7902 -0.2534
 5479TIP3    H238073   1.708   2.079   0.896 -0.7219 -2.6347  0.3686
 5480TIP3   OH238074   3.979   5.371   1.200 -0.1212  0.4138 -0.8445
 5480TIP3    H138075   3.993   5.369   1.295  0.2415 -1.6193 -0.8936
 5480TIP3    H238076   4.039   5.439   1.169  1.9279 -0.8304  0.1197
 5481TIP3   OH238077   1.422   1.478   0.029  0.1108 -0.2266  0.6235
 5481TIP3    H138078   1.348   1.538   0.035  0.1899 -0.0956  0.3059
 5481TIP3    H238079   1.383   1.391   0.036 -0.1433 -0.1798 -0.0693
 5482TIP3   OH238080   5.009   5.895   7.413  0.1204 -0.0624  0.0267
 5482TIP3    H138081   5.051   5.966   7.365  0.1284 -0.9381 -1.3076
 5482TIP3    H238082   4.915   5.917   7.410 -0.0679 -0.9162 -1.8641
 5483TIP3   OH238083   4.017   3.792   8.640  0.0859  0.1559  0.2440
 5483TIP3    H138084   4.084   3.751   8.695  0.2612  0.4468  0.2456
 5483TIP3    H238085   4.007   3.880   8.675 -0.1814  0.1676  0.1396
 5484TIP3   OH238086   6.444   1.580   1.329 -0.6238  0.0552 -0.3127
 5484TIP3    H138087   6.403   1.495   1.346  0.0371 -0.3394 -0.6503
 5484TIP3    H238088   6.432   1.630   1.410 -0.4735 -0.5785  0.1019
 5485TIP3   OH238089   2.871   4.831   7.426  0.3530  0.1495  0.1980
 5485TIP3    H138090   2.835   4.920   7.426  1.9658  0.8643  1.6279
 5485TIP3    H238091   2.814   4.782   7.485  0.7020  0.8377  1.1441
 5486TIP3   OH238092   4.955   2.996   7.063 -0.1538  0.1763  0.1781
 5486TIP3    H138093   4.972   3.055   6.989 -0.2993  2.3191  1.7411
 5486TIP3    H238094   5.023   2.929   7.056 -0.1393  0.3493 -1.8429
 5487TIP3   OH238095   2.510   5.032   7.564  0.1617 -0.1040 -0.3026
 5487TIP3    H138096   2.499   5.010   7.656  1.5515 -1.0201 -0.3393
 5487TIP3    H238097   2.423   5.018   7.526  0.2604 -2.7841  0.2648
 5488TIP3   OH238098   2.671   5.619   8.131  0.3096 -0.5622  0.4422
 5488TIP3    H138099   2.636   5.672   8.203 -1.2625  1.2637 -1.5313
 5488TIP3    H238100   2.635   5.532   8.146 -3.8658  0.7836 -0.4334
 5489TIP3   OH238101   0.717   4.340   7.668 -0.4193 -0.2727 -0.1376
 5489TIP3    H138102   0.633   4.310   7.703  0.1978 -1.5165  0.3448
 5489TIP3    H238103   0.753   4.263   7.624  0.9256 -0.0805  0.5769
 5490TIP3   OH238104   0.508   0.892   7.833 -0.3550  0.1491  0.2086
 5490TIP3    H138105   0.471   0.907   7.746  1.9214 -1.2912 -1.1038
 5490TIP3    H238106   0.556   0.973   7.852 -0.9357  0.5074  0.1787
 5491TIP3   OH238107   0.774   2.006   7.744 -0.4561  0.0655 -0.1765
 5491TIP3    H138108   0.730   2.018   7.660 -0.4106  1.0453 -0.0669
 5491TIP3    H238109   0.864   2.034   7.728 -0.8863  2.1097  0.6612
 5492TIP3   OH238110   4.680   2.259   0.665 -0.1681  0.4042  0.1660
 5492TIP3    H138111   4.758   2.314   0.656  0.1910 -0.2109 -0.5873
 5492TIP3    H238112   4.632   2.297   0.739  1.0270  0.5708  0.8801
 5493TIP3   OH238113   1.250   1.961   6.437 -0.1329 -0.1432  0.1528
 5493TIP3    H138114   1.158   1.952   6.461 -0.2188  0.0997 -0.0740
 5493TIP3    H238115   1.248   1.976   6.342  0.0716  0.9904  0.3203
 5494TIP3   OH238116   5.144   1.073   2.441 -0.0948 -0.0894  0.0764
 5494TIP3    H138117   5.107   0.993   2.405  0.4723  0.0129 -0.7682
 5494TIP3    H238118   5.070   1.133   2.448 -0.5036 -0.6585  0.6316
 5495TIP3   OH238119   5.703   1.815   6.582 -0.3401 -0.0042  0.1343
 5495TIP3    H138120   5.645   1.741   6.564 -0.0678  0.3683 -2.6539
 5495TIP3    H238121   5.658   1.891   6.546  1.3146  0.4704 -1.0423
 5496TIP3   OH238122   0.649   2.787   8.203 -0.0461 -0.8632 -0.0518
 5496TIP3    H138123   0.707   2.816   8.133  2.3634 -0.6475  1.8963
 5496TIP3    H238124   0.676   2.837   8.280 -1.4793 -2.2205  1.4297
 5497TIP3   OH238125   0.375   4.308   7.503  0.2337 -0.1675 -0.3910
 5497TIP3    H138126   0.426   4.286   7.425 -1.2225  0.3730 -1.5436
 5497TIP3    H238127   0.326   4.228   7.523  0.6286 -0.3151  0.0016
 5498TIP3   OH238128   1.238   3.730   6.273 -0.6126 -0.6439 -0.2812
 5498TIP3    H138129   1.280   3.812   6.247  1.7417 -0.5023  3.2705
 5498TIP3    H238130   1.187   3.753   6.351 -1.8596 -2.1802 -0.5829
 5499TIP3   OH238131   3.484   4.319   8.073 -0.0639  0.0260 -0.5783
 5499TIP3    H138132   3.580   4.323   8.074 -0.0476 -0.4636 -0.0277
 5499TIP3    H238133   3.456   4.410   8.084  0.3368 -0.0385  1.1877
 5500TIP3   OH238134   6.218   3.559   0.487  0.0728 -0.3539 -0.5205
 5500TIP3    H138135   6.127   3.580   0.465  0.7690  2.2051 -1.2580
 5500TIP3    H238136   6.269   3.595   0.414  1.7524 -0.8839  0.3518
 5501TIP3   OH238137   1.268   1.617   6.664 -0.2950 -0.0359  0.3263
 5501TIP3    H138138   1.309   1.703   6.669  0.2314 -0.1502 -1.4195
 5501TIP3    H238139   1.329   1.559   6.708 -0.1429  0.3095  0.5756
 5502TIP3   OH238140   6.003   5.500   7.295  0.3210 -0.0344 -0.5492
 5502TIP3    H138141   5.991   5.571   7.232  2.2410 -0.2535 -1.2240
 5502TIP3    H238142   5.986   5.541   7.380  0.7465  1.0673 -0.9737
 5503TIP3   OH238143   1.548   3.456   8.210  0.0384  0.1157 -0.5935
 5503TIP3    H138144   1.524   3.544   8.181  0.0348  0.1319 -0.5406
 5503TIP3    H238145   1.474   3.427   8.262  0.0319  0.0743 -0.6254
 5504TIP3   OH238146   5.352   4.183   8.569  0.5070 -0.1469 -0.1067
 5504TIP3    H138147   5.390   4.214   8.487 -0.6036  0.3858 -0.4492
 5504TIP3    H238148   5.258   4.202   8.561  0.5343  1.0852  1.7984
 5505TIP3   OH238149   6.001   1.903   2.046 -0.1055 -0.4143 -0.5028
 5505TIP3    H138150   5.971   1.980   2.095  3.1936  0.2916  0.6338
 5505TIP3    H238151   5.964   1.916   1.958 -1.9261  0.9744  0.3868
 5506TIP3   OH238152   6.291   6.589   2.288 -0.3613 -0.5651  0.3257
 5506TIP3    H138153   6.353   6.605   2.360  0.7917 -2.3806 -0.1979
 5506TIP3    H238154   6.245   6.509   2.313 -1.4138 -0.0751 -0.0174
 5507TIP3   OH238155   0.245   2.683   8.479 -0.0757  0.0940  0.2177
 5507TIP3    H138156   0.315   2.741   8.452 -0.2610  0.8866  1.3748
 5507TIP3    H238157   0.168   2.715   8.432 -0.2955  1.1659  1.2564
 5508TIP3   OH238158   0.808   1.651   0.134 -0.0504  0.6649  0.3142
 5508TIP3    H138159   0.735   1.663   0.073 -1.0215  1.3714  1.5494
 5508TIP3    H238160   0.838   1.562   0.119 -0.5491  0.6763 -0.8676
 5509TIP3   OH238161   0.316   2.784   1.263 -0.3983  0.0712  0.2619
 5509TIP3    H138162   0.295   2.874   1.238 -0.6747 -0.2431 -0.6918
 5509TIP3    H238163   0.380   2.756   1.198 -0.4225 -0.4700  0.4673
 5510TIP3   OH238164   5.155   3.417   2.255 -0.2450  0.2534  0.0125
 5510TIP3    H138165   5.087   3.391   2.193 -1.0591 -0.3451  1.1160
 5510TIP3    H238166   5.116   3.402   2.341  0.5082  1.9490  0.6897
 5511TIP3   OH238167   0.083   1.915   7.182 -0.0940  0.0302  0.1194
 5511TIP3    H138168   0.161   1.869   7.212  0.9095  1.2765 -0.4932
 5511TIP3    H238169   0.042   1.855   7.119 -1.0907 -1.7257  2.3106
 5512TIP3   OH238170   0.821   1.921   1.156  0.4924  0.0897 -0.7441
 5512TIP3    H138171   0.833   1.885   1.244  0.2720  0.1444 -0.6906
 5512TIP3    H238172   0.779   2.006   1.171  0.4491  0.0963 -0.9024
 5513TIP3   OH238173   4.848   5.538   8.130 -0.5387 -0.6848 -0.1190
 5513TIP3    H138174   4.847   5.464   8.191 -0.1538 -0.1079  0.5958
 5513TIP3    H238175   4.905   5.509   8.059  0.3695 -0.7376  0.6084
 5514TIP3   OH238176   0.229   4.751   6.918  0.3072  0.2518 -0.7437
 5514TIP3    H138177   0.313   4.705   6.927 -0.3218 -0.5521  1.6440
 5514TIP3    H238178   0.199   4.728   6.830  1.8205 -0.7847 -1.0264
 5515TIP3   OH238179   0.011   2.761   8.351 -0.2481 -0.2738 -0.4997
 5515TIP3    H138180  -0.029   2.674   8.351 -1.5041  0.2368 -2.1780
 5515TIP3    H238181  -0.019   2.801   8.269  1.4049  1.2465 -0.4231
 5516TIP3   OH238182   2.983   0.831   7.664 -0.5388  0.0432 -0.3089
 5516TIP3    H138183   2.928   0.894   7.617  0.6677  0.0573 -1.7864
 5516TIP3    H238184   2.941   0.746   7.646 -1.0316  0.2104  0.0140
 5517TIP3   OH238185   2.897   5.171   6.723  0.5541 -0.5090 -0.4643
 5517TIP3    H138186   2.993   5.172   6.723  0.6567  0.8532 -3.1283
 5517TIP3    H238187   2.874   5.099   6.665  0.0351 -0.1242 -0.7511
 5518TIP3   OH238188   3.849   4.703   7.439 -0.1789  0.2684  0.4992
 5518TIP3    H138189   3.832   4.642   7.511 -0.2740 -2.2261 -1.5131
 5518TIP3    H238190   3.784   4.681   7.372  2.2729 -0.1989 -1.9113
 5519TIP3   OH238191   2.954   4.981   7.868  0.3837 -0.3558  0.1700
 5519TIP3    H138192   3.022   5.048   7.862  0.2496 -0.3228 -1.8195
 5519TIP3    H238193   2.894   5.001   7.796 -0.5470 -1.6464  0.5470
 5520TIP3   OH238194   5.959   0.239   0.748 -0.5517  0.1122  0.2074
 5520TIP3    H138195   6.048   0.260   0.718 -0.5194  0.4081  0.4988
 5520TIP3    H238196   5.929   0.171   0.689 -0.3433  0.4165 -0.2575
 5521TIP3   OH238197   1.611   0.505   6.892  0.3092  0.9474 -0.2830
 5521TIP3    H138198   1.539   0.456   6.931  0.3316  0.8543 -0.3586
 5521TIP3    H238199   1.635   0.454   6.814 -0.3695  1.6301 -0.9603
 5522TIP3   OH238200   6.157   6.581   6.706 -0.7300  0.7151  0.4327
 5522TIP3    H138201   6.086   6.644   6.696 -0.6429  0.5075 -2.3573
 5522TIP3    H238202   6.145   6.521   6.632  1.9533  0.2983  0.2615
 5523TIP3   OH238203   0.661   4.476   1.631 -0.3715  0.2831 -0.3254
 5523TIP3    H138204   0.639   4.385   1.649 -0.4334  0.3520 -0.0523
 5523TIP3    H238205   0.680   4.514   1.717  1.1985  0.1255 -0.5739
 5524TIP3   OH238206   2.487   2.987   0.039 -0.1298 -0.8399  0.4927
 5524TIP3    H138207   2.500   2.894   0.023 -1.0678 -0.8390 -0.4075
 5524TIP3    H238208   2.563   3.030  -0.001 -1.0231 -1.0521 -1.5147
 5525TIP3   OH238209   6.374   6.866   7.466 -0.1184 -0.7103  0.2380
 5525TIP3    H138210   6.339   6.782   7.494 -1.7081 -0.0765  0.2424
 5525TIP3    H238211   6.313   6.898   7.401  1.8303 -0.6820 -1.6936
 5526TIP3   OH238212   5.868   5.933   1.499  0.3027 -0.2709 -0.3608
 5526TIP3    H138213   5.930   5.861   1.502  1.1764  0.4766 -0.1102
 5526TIP3    H238214   5.811   5.918   1.575  2.6177  1.1388  1.8073
 5527TIP3   OH238215   0.328   4.097   0.044  0.3747 -0.6081 -0.1015
 5527TIP3    H138216   0.402   4.151   0.016 -1.0176  0.6674 -1.5524
 5527TIP3    H238217   0.293   4.059  -0.037 -0.0293 -1.8999  0.6525
 5528TIP3   OH238218   4.264   0.803   8.537 -0.2565  0.1390  0.4197
 5528TIP3    H138219   4.331   0.735   8.528  2.6724  2.5997  1.8237
 5528TIP3    H238220   4.277   0.860   8.461 -1.1093  0.3660  0.4394
 5529TIP3   OH238221   2.337   2.868   0.266  1.2675 -0.6166 -0.1574
 5529TIP3    H138222   2.415   2.853   0.318  1.0537 -2.8592 -0.3524
 5529TIP3    H238223   2.368   2.872   0.175  1.6733  3.5501 -0.0091
 5530TIP3   OH238224   2.078   3.700   7.825  0.0770  0.2167 -0.0795
 5530TIP3    H138225   2.118   3.763   7.765  1.8360  0.3685  1.1775
 5530TIP3    H238226   2.016   3.651   7.771 -0.2258  1.9778 -1.4398
 5531TIP3   OH238227   3.658   5.118   6.732  0.1181 -0.0056 -0.7388
 5531TIP3    H138228   3.672   5.032   6.692 -0.7225  0.5619 -2.3550
 5531TIP3    H238229   3.565   5.136   6.719 -0.2387  0.2014  1.6247
 5532TIP3   OH238230   1.843   4.715   7.733  0.5440  0.1446  1.0732
 5532TIP3    H138231   1.837   4.665   7.652  1.4432  1.5879  0.0541
 5532TIP3    H238232   1.836   4.650   7.803  2.1147 -1.4677 -0.1855
 5533TIP3   OH238233   2.087   3.040   7.431 -0.5115 -0.0292 -0.1104
 5533TIP3    H138234   1.998   3.033   7.466 -0.3703 -3.2455 -0.0800
 5533TIP3    H238235   2.075   3.041   7.336 -0.6193  1.2545 -0.0928
 5534TIP3   OH238236   3.016   4.690   8.350  0.2375 -0.1446  0.2460
 5534TIP3    H138237   3.020   4.769   8.297 -1.0166 -0.6355 -0.6217
 5534TIP3    H238238   2.937   4.700   8.402 -0.7077 -1.4230 -0.8878
 5535TIP3   OH238239   4.361   4.617   1.182 -0.3918 -0.4419 -0.2497
 5535TIP3    H138240   4.387   4.611   1.274  1.1242 -0.9336 -0.6813
 5535TIP3    H238241   4.419   4.684   1.146  0.1590 -1.3965 -1.1958
 5536TIP3   OH238242   6.221   5.709   1.061 -0.5245  0.6711  0.2227
 5536TIP3    H138243   6.191   5.705   1.152 -2.3248 -0.9915 -0.3576
 5536TIP3    H238244   6.309   5.671   1.063 -0.4702  0.8168  1.2820
 5537TIP3   OH238245   4.801   1.747   2.587  0.5319 -0.0923 -0.4349
 5537TIP3    H138246   4.740   1.677   2.565  0.5081 -0.6594  1.2646
 5537TIP3    H238247   4.888   1.708   2.574  0.5283  0.0395 -0.8652
 5538TIP3   OH238248   6.857   6.271   2.290 -0.1863  0.3404 -0.7188
 5538TIP3    H138249   6.774   6.316   2.279 -0.2686  0.4168  0.1920
 5538TIP3    H238250   6.907   6.293   2.211  0.0738  2.6613  0.0350
 5539TIP3   OH238251   0.844   1.290   1.283 -0.3327 -0.2019 -0.1722
 5539TIP3    H138252   0.784   1.217   1.267  0.5913 -0.7964 -1.0328
 5539TIP3    H238253   0.870   1.319   1.195  1.0163 -0.2783  0.1787
 5540TIP3   OH238254   1.555   6.504   0.854  0.5230  0.9289 -0.1468
 5540TIP3    H138255   1.476   6.555   0.835  0.1951  0.7283  0.6298
 5540TIP3    H238256   1.588   6.540   0.936  0.3976  0.0501  0.3087
 5541TIP3   OH238257   4.675   5.823   8.203  0.0868 -0.0448 -0.2051
 5541TIP3    H138258   4.652   5.814   8.295  1.8013 -0.1081  0.2453
 5541TIP3    H238259   4.727   5.745   8.183 -0.8816 -0.4073 -1.4374
 5542TIP3   OH238260   6.492   4.782   1.307 -0.4405  0.1884  0.3097
 5542TIP3    H138261   6.489   4.741   1.394 -0.5965  0.1386  0.2816
 5542TIP3    H238262   6.585   4.793   1.288 -0.4051  0.1194  0.4460
 5543TIP3   OH238263   0.457   0.954   8.116  0.6822  0.0437  0.2304
 5543TIP3    H138264   0.396   0.921   8.182 -0.6027  0.5116 -0.6725
 5543TIP3    H238265   0.413   0.939   8.033  1.4912  1.0343 -0.4085
 5544TIP3   OH238266   3.610   1.360   8.367 -0.3007 -0.1141  0.6045
 5544TIP3    H138267   3.620   1.291   8.301  0.6657  0.6086 -0.0360
 5544TIP3    H238268   3.695   1.363   8.410  0.0398  1.3826 -0.1043
 5545TIP3   OH238269   3.646   6.859   0.703  0.1073 -0.0019 -0.2602
 5545TIP3    H138270   3.626   6.775   0.744  0.6690 -0.6559 -1.2912
 5545TIP3    H238271   3.635   6.923   0.774 -1.1054 -0.8367  0.3333
 5546TIP3   OH238272   4.240   6.675   8.558  0.8472 -0.5387 -0.0724
 5546TIP3    H138273   4.161   6.689   8.506  0.4087  0.2957  0.7897
 5546TIP3    H238274   4.265   6.763   8.588  1.4276 -0.9319  0.6272
 5547TIP3   OH238275   5.252   5.942   0.259  0.1396 -0.5560 -0.4954
 5547TIP3    H138276   5.252   5.852   0.291  0.4701 -0.5050 -0.3446
 5547TIP3    H238277   5.250   5.996   0.338 -0.1199 -0.4322 -0.5876
 5548TIP3   OH238278   0.929   0.242   1.706  0.2463 -0.1164 -0.5307
 5548TIP3    H138279   0.878   0.257   1.785  2.5001 -0.1150  1.0254
 5548TIP3    H238280   0.885   0.169   1.662  0.4847 -2.0822  2.2312
 5549TIP3   OH238281   5.277   4.619   8.579  0.0929  0.8937 -0.4460
 5549TIP3    H138282   5.269   4.710   8.552  1.0487  0.6867 -1.5084
 5549TIP3    H238283   5.249   4.568   8.503 -0.4676  0.2883  0.1464
 5550TIP3   OH238284   0.678   3.775   7.524  0.2592 -0.4399  0.1704
 5550TIP3    H138285   0.599   3.736   7.486 -0.3937  0.3136  0.7083
 5550TIP3    H238286   0.705   3.841   7.460  0.1501 -0.3458  0.2201
 5551TIP3   OH238287   6.286   4.618   2.334  0.7436 -0.0021  0.0821
 5551TIP3    H138288   6.209   4.673   2.323 -0.1572 -1.0408  0.9356
 5551TIP3    H238289   6.358   4.680   2.347 -0.3407  1.0028  1.6504
 5552TIP3   OH238290   2.696   3.996   0.864  0.4295 -0.0696  1.3615
 5552TIP3    H138291   2.695   3.901   0.865  0.6315 -0.1840 -1.4562
 5552TIP3    H238292   2.668   4.020   0.775  1.1660  2.4775  1.7199
 5553TIP3   OH238293   1.902   1.815   8.480 -0.2864 -0.6275 -0.1221
 5553TIP3    H138294   1.992   1.790   8.461  0.3832  0.3984  1.4671
 5553TIP3    H238295   1.884   1.779   8.567 -1.6192 -1.2674 -0.6273
 5554TIP3   OH238296   0.711   6.206   1.822  0.4008  0.3214 -0.1524
 5554TIP3    H138297   0.707   6.111   1.816 -3.0707  0.3140  0.3557
 5554TIP3    H238298   0.756   6.224   1.905 -0.1947 -0.9309  0.4563
 5555TIP3   OH238299   4.017   2.646   0.181  0.1296  0.2540  0.7142
 5555TIP3    H138300   4.070   2.571   0.207  0.2377  0.5530  1.3764
 5555TIP3    H238301   3.953   2.656   0.252 -0.2009  0.4867  0.3900
 5556TIP3   OH238302   6.553   2.957   1.397  0.7956 -0.2177 -0.1808
 5556TIP3    H138303   6.633   3.009   1.394  0.4107  0.4171  0.2892
 5556TIP3    H238304   6.486   3.013   1.357  0.5166 -0.6224 -0.2919
 5557TIP3   OH238305   3.952   5.480   7.287 -0.3879 -0.2222 -0.3619
 5557TIP3    H138306   3.860   5.504   7.293 -0.8699 -1.9218 -0.5360
 5557TIP3    H238307   3.981   5.517   7.204 -0.8794  0.3962 -0.2667
 5558TIP3   OH238308   6.671   6.754   5.926  0.5002 -0.0922 -0.0552
 5558TIP3    H138309   6.712   6.816   5.866 -0.6508  0.8997  0.1446
 5558TIP3    H238310   6.578   6.758   5.905  0.4487 -2.3069 -0.5197
 5559TIP3   OH238311   3.921   1.888   7.721 -0.8588  0.3587  0.6236
 5559TIP3    H138312   3.881   1.912   7.804 -1.3846  0.9824  0.1974
 5559TIP3    H238313   3.991   1.952   7.708 -1.1200  0.5904  0.3372
 5560TIP3   OH238314   1.092   6.897   6.531  0.2631 -0.3389 -0.4004
 5560TIP3    H138315   1.044   6.975   6.505 -1.0171 -0.7426  0.6549
 5560TIP3    H238316   1.184   6.918   6.513 -0.1877  0.8769 -1.3951
 5561TIP3   OH238317   4.801   5.679   1.490 -0.2266  0.4281  0.2668
 5561TIP3    H138318   4.717   5.674   1.445 -0.6860  2.7597  0.7482
 5561TIP3    H238319   4.781   5.656   1.581 -0.2291  0.4492  0.2716
 5562TIP3   OH238320   0.540   3.743   1.882 -0.0455 -0.1038 -0.0426
 5562TIP3    H138321   0.568   3.711   1.968 -0.7847 -1.9404 -0.4374
 5562TIP3    H238322   0.488   3.821   1.901 -1.2241 -1.1572  1.3021
 5563TIP3   OH238323   3.368   0.757   8.024  1.2044  0.0431 -0.4626
 5563TIP3    H138324   3.320   0.691   8.073  0.2568  0.7973 -0.3498
 5563TIP3    H238325   3.342   0.744   7.933 -0.0155  1.0646 -0.2935
 5564TIP3   OH238326   3.019   2.218   7.265  0.5166  0.1777 -0.5297
 5564TIP3    H138327   2.994   2.182   7.350  1.0893  2.1458  0.5297
 5564TIP3    H238328   2.939   2.259   7.231  1.0648  2.4746  0.7523
 5565TIP3   OH238329   3.567   6.660   6.377  1.0426  0.6202 -0.9464
 5565TIP3    H138330   3.651   6.684   6.417 -1.1003  2.1446  3.2513
 5565TIP3    H238331   3.560   6.566   6.393  0.7603  0.9880  1.5335
 5566TIP3   OH238332   0.261   2.411   8.019  0.1064  0.3899 -0.2490
 5566TIP3    H138333   0.181   2.401   8.071  0.2956 -0.2396 -0.0676
 5566TIP3    H238334   0.318   2.340   8.050  0.5757  0.5851 -0.6633
 5567TIP3   OH238335   0.076   5.231   1.061  0.1508 -0.3518 -0.4766
 5567TIP3    H138336   0.113   5.319   1.068 -0.0114 -0.3225  0.0586
 5567TIP3    H238337   0.106   5.199   0.976  0.4069  0.1303 -0.5705
 5568TIP3   OH238338   0.788   5.415   7.923 -0.0699  0.5129  1.0807
 5568TIP3    H138339   0.789   5.328   7.964  0.9197 -0.0126 -0.0057
 5568TIP3    H238340   0.771   5.398   7.831  1.4317  1.3445  0.6178
 5569TIP3   OH238341   3.090   0.460   6.491  0.2978  0.0701  0.0416
 5569TIP3    H138342   3.159   0.505   6.541  0.2543  0.7384 -0.4987
 5569TIP3    H238343   3.133   0.382   6.457  0.8742  0.6316 -0.5321
 5570TIP3   OH238344   1.256   3.629   8.488 -0.1462  0.1124  0.0297
 5570TIP3    H138345   1.175   3.681   8.485 -0.2311  0.0826  1.2351
 5570TIP3    H238346   1.322   3.690   8.521  0.4815  0.2974 -1.4838
 5571TIP3   OH238347   4.169   4.853   6.920  0.0092  0.0271 -0.4520
 5571TIP3    H138348   4.191   4.848   6.827  0.0847 -0.1273 -0.4263
 5571TIP3    H238349   4.084   4.897   6.922 -0.8802 -1.6028 -0.7155
 5572TIP3   OH238350   6.355   1.213   7.018 -0.2804  0.0243 -0.2461
 5572TIP3    H138351   6.274   1.163   7.008 -1.1705  0.9009  1.8686
 5572TIP3    H238352   6.419   1.166   6.966 -1.9568 -1.1416 -1.3736
 5573TIP3   OH238353   4.745   6.560   0.226  0.2863  0.0072 -0.1388
 5573TIP3    H138354   4.682   6.581   0.295  0.3562 -3.4855  1.1692
 5573TIP3    H238355   4.691   6.546   0.148 -0.3088 -0.5076  0.3531
 5574TIP3   OH238356   0.708   0.287   7.453  0.0440  0.1812 -0.3624
 5574TIP3    H138357   0.667   0.202   7.470  1.0067 -0.2214 -0.0029
 5574TIP3    H238358   0.637   0.350   7.464  0.0645 -0.2160  3.2306
 5575TIP3   OH238359   3.723   3.424   0.835 -0.6613 -0.2418  0.2628
 5575TIP3    H138360   3.692   3.469   0.756  1.4549  3.6438  1.3825
 5575TIP3    H238361   3.779   3.354   0.802 -0.8971  0.4262 -1.6727
 5576TIP3   OH238362   2.499   2.556   0.206 -0.0374  0.1310  0.5846
 5576TIP3    H138363   2.491   2.462   0.220  0.1680  0.1544  0.8609
 5576TIP3    H238364   2.546   2.588   0.283  3.4404 -0.1261 -1.2300
 5577TIP3   OH238365   2.625   0.937   7.225 -0.2597 -0.1210 -0.3360
 5577TIP3    H138366   2.562   0.869   7.249 -0.5529  0.4460  0.5270
 5577TIP3    H238367   2.575   1.018   7.228  0.9694  0.6793  2.7371
 5578TIP3   OH238368   0.160   3.300   7.334 -0.0699 -0.0162  0.0348
 5578TIP3    H138369   0.122   3.305   7.422 -1.8707  0.7461 -0.7398
 5578TIP3    H238370   0.126   3.219   7.297  0.1077  0.0181 -0.2101
 5579TIP3   OH238371   6.089   6.681   8.371 -0.1025  0.6217  0.3562
 5579TIP3    H138372   6.176   6.672   8.410 -0.2422  1.8170  0.9985
 5579TIP3    H238373   6.039   6.730   8.436 -0.7237  1.5427 -0.7784
 5580TIP3   OH238374   3.271   4.554   7.913  0.3477  0.3394  0.0586
 5580TIP3    H138375   3.203   4.619   7.932  2.4384  2.6363  0.2007
 5580TIP3    H238376   3.336   4.567   7.983  1.8803 -0.3270 -1.1779
 5581TIP3   OH238377   2.729   1.838   8.415 -0.5988 -0.2960  0.3454
 5581TIP3    H138378   2.682   1.765   8.375 -1.6932  0.8013 -0.4572
 5581TIP3    H238379   2.673   1.866   8.488 -0.1146 -0.3371  0.7421
 5582TIP3   OH238380   1.729   1.439   2.155  0.2376 -0.0900  0.4262
 5582TIP3    H138381   1.709   1.413   2.065  1.8962 -2.0420  0.5528
 5582TIP3    H238382   1.723   1.535   2.154 -1.2152 -0.1309 -1.3582
 5583TIP3   OH238383   3.293   4.519   8.629 -0.4372 -1.1528 -0.3042
 5583TIP3    H138384   3.379   4.527   8.671 -0.3330  2.3864 -0.8534
 5583TIP3    H238385   3.253   4.442   8.669  2.8962 -2.8753  0.0696
 5584TIP3   OH238386   5.456   4.317   0.526  0.1541  0.3538 -0.3416
 5584TIP3    H138387   5.385   4.374   0.495 -1.1582 -0.3884  1.1922
 5584TIP3    H238388   5.496   4.366   0.598  0.5019  0.2828 -0.4827
 5585TIP3   OH238389   3.644   1.928   1.340  0.6939  0.2201 -0.5601
 5585TIP3    H138390   3.675   1.844   1.374  0.4453 -0.0653 -1.0112
 5585TIP3    H238391   3.611   1.907   1.252 -0.6929  0.5150 -0.1444
 5586TIP3   OH238392   1.126   4.624   0.032  0.2448 -0.7362  0.1473
 5586TIP3    H138393   1.088   4.547  -0.009  0.2642 -0.5698 -0.1915
 5586TIP3    H238394   1.219   4.619   0.013  0.3927 -1.1123  0.9261
 5587TIP3   OH238395   4.168   6.568   0.982  0.1451  0.3479 -0.4834
 5587TIP3    H138396   4.122   6.651   0.982  0.1975  0.5152 -3.8321
 5587TIP3    H238397   4.105   6.505   0.946  1.3380 -0.1743 -1.7413
 5588TIP3   OH238398   5.105   5.363   6.474 -0.2486 -0.0048 -0.6105
 5588TIP3    H138399   5.163   5.309   6.421  0.5179 -1.1374  1.2706
 5588TIP3    H238400   5.104   5.448   6.430  1.8815 -0.3162 -1.3842
 5589TIP3   OH238401   6.196   2.487   0.857  0.2845  0.1552 -0.1416
 5589TIP3    H138402   6.258   2.477   0.929  1.1094  1.0699 -0.7017
 5589TIP3    H238403   6.167   2.578   0.863 -0.9240 -0.2222  0.0298
 5590TIP3   OH238404   0.702   4.443   7.102  1.1338 -0.0938  0.3647
 5590TIP3    H138405   0.786   4.400   7.118 -0.0827 -2.2497  1.4854
 5590TIP3    H238406   0.653   4.380   7.050  0.5926  1.6656 -1.3875
 5591TIP3   OH238407   5.820   2.192   7.762 -0.0846 -0.2350  0.0902
 5591TIP3    H138408   5.854   2.275   7.793  0.3308 -0.8885  1.4580
 5591TIP3    H238409   5.897   2.137   7.751 -0.4069 -0.6471 -0.1585
 5592TIP3   OH238410   5.274   3.139   0.711  0.4224 -0.2835 -0.0696
 5592TIP3    H138411   5.318   3.216   0.745  0.2103 -0.1833 -0.0202
 5592TIP3    H238412   5.231   3.169   0.631  0.6151 -0.4302 -0.2286
 5593TIP3   OH238413   4.871   6.239   7.931 -0.1310 -0.1825  0.2589
 5593TIP3    H138414   4.946   6.237   7.871 -0.6190 -0.2020 -0.3650
 5593TIP3    H238415   4.870   6.153   7.971  0.3901 -0.0625  0.5343
 5594TIP3   OH238416   0.431   0.426   7.496  0.0581  0.1277  0.1981
 5594TIP3    H138417   0.379   0.506   7.483  0.0001 -0.1763 -1.7409
 5594TIP3    H238418   0.367   0.358   7.514  0.1232  0.5261  2.0948
 5595TIP3   OH238419   5.042   2.377   0.139  0.3236 -0.1414  0.1911
 5595TIP3    H138420   5.082   2.313   0.198 -2.3122 -0.7525  1.4983
 5595TIP3    H238421   4.970   2.330   0.098 -0.1942  1.3363 -0.6787
 5596TIP3   OH238422   3.727   2.248   7.277  0.0094 -0.0582 -0.2838
 5596TIP3    H138423   3.708   2.180   7.342 -0.5842  0.6681  0.3205
 5596TIP3    H238424   3.660   2.237   7.210 -2.0543  1.8123  1.3111
 5597TIP3   OH238425   5.432   4.105   0.717  0.1214  0.0860 -0.2005
 5597TIP3    H138426   5.381   4.027   0.697  1.6116 -0.7210 -0.9926
 5597TIP3    H238427   5.428   4.158   0.637  0.5441 -0.0007 -0.2830
 5598TIP3   OH238428   6.421   2.402   8.457  0.0344 -0.5018  0.6386
 5598TIP3    H138429   6.441   2.326   8.512  0.7850 -0.5980  0.2373
 5598TIP3    H238430   6.483   2.469   8.485  0.6497 -0.6567 -0.3113
 5599TIP3   OH238431   2.064   6.039   6.672 -0.0659 -0.0503  0.0227
 5599TIP3    H138432   2.047   5.969   6.735 -1.4341  0.6526  0.4679
 5599TIP3    H238433   2.089   6.114   6.725 -0.8859  0.4478 -0.2767
 5600TIP3   OH238434   6.718   2.420   1.844 -0.7028 -0.1179  0.0941
 5600TIP3    H138435   6.706   2.452   1.933  1.0079  2.6035 -0.5361
 5600TIP3    H238436   6.649   2.464   1.793  2.3163  4.0130 -0.9789
 5601TIP3   OH238437   6.547   3.766   0.885  0.0644  0.2535  0.0565
 5601TIP3    H138438   6.536   3.837   0.949 -0.2828 -0.8583  1.2665
 5601TIP3    H238439   6.481   3.702   0.909  0.4501 -0.5484 -0.9537
 5602TIP3   OH238440   6.781   2.209   8.439 -0.1889 -0.2284  0.1747
 5602TIP3    H138441   6.745   2.291   8.404  0.1643 -0.6090 -1.1273
 5602TIP3    H238442   6.758   2.211   8.532 -1.9753  0.3838 -0.2368
 5603TIP3   OH238443   0.828   2.520   1.343  0.6350 -0.0835  0.4569
 5603TIP3    H138444   0.902   2.476   1.300 -1.1724 -0.2791 -2.7953
 5603TIP3    H238445   0.801   2.460   1.412  2.3987 -0.8311  0.5564
 5604TIP3   OH238446   0.973   2.231   6.649 -0.3558 -0.0116 -0.1900
 5604TIP3    H138447   0.972   2.281   6.567 -0.0293 -1.8160 -1.3571
 5604TIP3    H238448   0.883   2.203   6.660 -0.8212  1.8497  1.1758
 5605TIP3   OH238449   6.340   6.013   7.550 -0.7538  0.5308 -0.3015
 5605TIP3    H138450   6.408   6.023   7.483 -0.6207  1.8820 -0.0026
 5605TIP3    H238451   6.340   5.920   7.571  0.0444  0.2867 -1.3042
 5606TIP3   OH238452   4.604   1.046   0.519  0.1868 -0.1096  0.6451
 5606TIP3    H138453   4.603   1.140   0.540 -1.9923  0.0869 -0.1081
 5606TIP3    H238454   4.515   1.016   0.539  0.4265 -1.6901 -0.4825
 5607TIP3   OH238455   2.980   4.480   0.390  0.7141 -0.0575  0.9845
 5607TIP3    H138456   2.946   4.472   0.479  0.6059 -1.1483  0.8679
 5607TIP3    H238457   2.903   4.472   0.334  0.8299  0.2270  0.7822
 5608TIP3   OH238458   6.885   6.385   1.689  0.2484 -0.0447 -0.1252
 5608TIP3    H138459   6.945   6.341   1.749  0.1177 -1.4554 -0.9949
 5608TIP3    H238460   6.940   6.417   1.618 -0.0870 -2.2023 -1.4242
 5609TIP3   OH238461   6.172   3.666   7.354  0.5409  0.0839 -0.0880
 5609TIP3    H138462   6.136   3.631   7.435  2.0877 -0.6413  0.3041
 5609TIP3    H238463   6.266   3.650   7.359  0.9016  1.5464 -1.2745
 5610TIP3   OH238464   4.891   5.879   1.187 -0.0888 -0.2432 -0.3888
 5610TIP3    H138465   4.808   5.919   1.212 -0.3458  1.0304 -2.9069
 5610TIP3    H238466   4.879   5.786   1.206 -2.5525 -0.2681 -1.6624
 5611TIP3   OH238467   4.786   3.215   7.673  0.4316  0.0709  0.6697
 5611TIP3    H138468   4.733   3.150   7.627  1.2419  0.9990 -1.6835
 5611TIP3    H238469   4.751   3.299   7.644  0.1664  0.7561  2.7703
 5612TIP3   OH238470   6.083   3.594   7.604  0.0708  0.2883 -0.3398
 5612TIP3    H138471   5.998   3.550   7.607 -0.5847  1.4013 -1.8036
 5612TIP3    H238472   6.096   3.628   7.693 -0.7519 -0.3361  0.0305
 5613TIP3   OH238473   4.477   3.125   7.854 -0.4233 -0.4859 -0.2859
 5613TIP3    H138474   4.502   3.035   7.875 -1.5250 -0.6958  0.1563
 5613TIP3    H238475   4.504   3.137   7.763 -1.0620 -1.5536 -0.6271
 5614TIP3   OH238476   4.786   4.445   2.027 -0.2970 -0.3475 -0.2217
 5614TIP3    H138477   4.784   4.506   2.101  1.0242 -0.7811  0.2068
 5614TIP3    H238478   4.696   4.414   2.019 -0.0776 -2.3397  2.9976
 5615TIP3   OH238479   0.391   6.451   5.652 -0.4654 -0.3057  0.5563
 5615TIP3    H138480   0.476   6.444   5.695  0.5879  0.7555 -1.2361
 5615TIP3    H238481   0.336   6.499   5.714  0.9190  0.9762  0.8281
 5616TIP3   OH238482   4.564   4.820   2.377 -0.0865  0.3450 -0.0570
 5616TIP3    H138483   4.483   4.810   2.327  0.5289  0.4370 -1.1036
 5616TIP3    H238484   4.554   4.904   2.422 -1.3646 -0.5152  1.3754
 5617TIP3   OH238485   0.248   3.044   1.208 -0.1281  0.3650 -0.7646
 5617TIP3    H138486   0.155   3.066   1.213 -0.5025 -1.2498  0.0356
 5617TIP3    H238487   0.274   3.072   1.120 -1.1429  1.6151 -0.6920
 5618TIP3   OH238488   1.388   1.799   2.386  0.3808 -0.8061  0.2263
 5618TIP3    H138489   1.377   1.710   2.354  1.6966 -1.0977  0.5267
 5618TIP3    H238490   1.471   1.798   2.433  1.1908  0.9222 -1.0284
 5619TIP3   OH238491   4.609   4.802   8.188  0.1414  0.0384  0.2163
 5619TIP3    H138492   4.571   4.719   8.218 -2.7496  0.3293 -2.1508
 5619TIP3    H238493   4.554   4.869   8.229  2.5363  0.9233  2.2219
 5620TIP3   OH238494   4.214   4.074   1.671  0.3676  0.1530 -0.2809
 5620TIP3    H138495   4.144   4.134   1.646  0.8951  0.4112 -1.2380
 5620TIP3    H238496   4.199   3.996   1.617  0.7904  0.1983 -0.4700
 5621TIP3   OH238497   4.216   5.215   1.131  0.0791  0.1358  0.4198
 5621TIP3    H138498   4.241   5.302   1.162  1.3871 -0.7823  2.1855
 5621TIP3    H238499   4.129   5.200   1.170 -0.1248  0.6179  0.1579
 5622TIP3   OH238500   2.876   6.518   8.462 -0.0278  0.0419 -0.3889
 5622TIP3    H138501   2.906   6.608   8.475 -1.2670  0.2754  1.1533
 5622TIP3    H238502   2.947   6.464   8.496  0.5471  0.4360 -0.9445
 5623TIP3   OH238503   5.889   4.573   6.573 -1.0432 -0.0812 -0.0957
 5623TIP3    H138504   5.977   4.567   6.609 -0.7942 -0.9427 -0.8133
 5623TIP3    H238505   5.879   4.665   6.548 -0.8392  0.2993  1.1727
 5624TIP3   OH238506   4.977   4.367   7.759 -0.2930 -0.7665  0.2149
 5624TIP3    H138507   5.000   4.300   7.695  0.1064 -0.9218  0.5174
 5624TIP3    H238508   4.899   4.409   7.722 -0.5770 -1.4205  0.0409
 5625TIP3   OH238509   6.627   5.450   7.482  0.1560 -0.2939  0.1574
 5625TIP3    H138510   6.598   5.532   7.524  2.0725  0.3485  0.3130
 5625TIP3    H238511   6.648   5.475   7.392  0.7722 -0.6035  0.2099
 5626TIP3   OH238512   5.065   4.315   8.007  0.1420  0.6671 -0.1762
 5626TIP3    H138513   5.077   4.221   8.011 -1.4737  0.4408  0.1420
 5626TIP3    H238514   5.011   4.329   7.929  0.8906  1.4044 -0.5798
 5627TIP3   OH238515   5.609   6.034   0.780 -0.1835  0.5254  0.1517
 5627TIP3    H138516   5.606   6.012   0.687 -1.8461 -1.2699  0.5812
 5627TIP3    H238517   5.703   6.034   0.802  0.2581  1.4658 -1.5851
 5628TIP3   OH238518   4.942   4.368   1.672  0.6522  0.3468  0.1262
 5628TIP3    H138519   4.965   4.374   1.765  0.4910 -1.6100  0.3517
 5628TIP3    H238520   4.853   4.332   1.672  0.6066  0.4441 -0.7771
 5629TIP3   OH238521   3.076   2.693   0.374  0.2565 -0.0408 -0.0221
 5629TIP3    H138522   2.991   2.731   0.397 -0.9195 -1.0876 -2.3135
 5629TIP3    H238523   3.059   2.599   0.364  1.8946 -0.4098  0.2923
 5630TIP3   OH238524   3.889   6.403   0.590 -1.5160  0.4110  0.0958
 5630TIP3    H138525   3.850   6.479   0.633  2.8522  1.6491  2.4599
 5630TIP3    H238526   3.908   6.342   0.661 -0.0764 -0.4665 -0.9847
 5631TIP3   OH238527   2.007   2.987   6.851  0.0148 -0.6001 -0.1272
 5631TIP3    H138528   1.994   2.896   6.824  2.2967 -0.4162 -2.1244
 5631TIP3    H238529   1.950   3.038   6.793 -0.2149 -0.6454  0.0558
 5632TIP3   OH238530   1.629   4.471   8.366 -0.2321  0.1032 -0.2454
 5632TIP3    H138531   1.574   4.545   8.339 -0.2048 -0.8123 -3.1771
 5632TIP3    H238532   1.687   4.456   8.292 -0.2491 -2.8483  0.2155
 5633TIP3   OH238533   4.189   1.139   1.133  0.0554  0.0231  0.0384
 5633TIP3    H138534   4.280   1.140   1.161  0.0121  1.7548  0.2573
 5633TIP3    H238535   4.187   1.083   1.056  1.4984  0.7797 -0.5669
 5634TIP3   OH238536   1.284   4.988   6.179  0.0286 -0.0633 -0.1182
 5634TIP3    H138537   1.359   5.046   6.190 -1.0549  1.2245  0.7477
 5634TIP3    H238538   1.316   4.919   6.120  0.7815  2.4669 -2.9511
 5635TIP3   OH238539   6.348   6.028   6.984  0.3190 -0.2745 -0.2384
 5635TIP3    H138540   6.300   6.069   6.911 -0.1580 -1.3839 -0.5785
 5635TIP3    H238541   6.436   6.066   6.979  0.4840 -0.7751 -1.7922
 5636TIP3   OH238542   0.967   0.316   8.181  0.2595  0.0753 -0.1056
 5636TIP3    H138543   0.998   0.332   8.270  1.9696 -1.1535 -0.4106
 5636TIP3    H238544   0.969   0.220   8.173 -0.3999  0.1486 -1.2925
 5637TIP3   OH238545   4.193   6.325   0.079  0.4137 -0.2675 -0.0812
 5637TIP3    H138546   4.264   6.322   0.015 -0.6436 -0.1074 -1.2941
 5637TIP3    H238547   4.113   6.316   0.028 -0.4650 -0.3389  1.2435
 5638TIP3   OH238548   4.485   6.717   1.888  0.2549  0.0775 -0.1990
 5638TIP3    H138549   4.416   6.691   1.949 -0.0154  0.6330 -0.2533
 5638TIP3    H238550   4.549   6.764   1.942 -0.1329  0.8345 -0.3801
 5639TIP3   OH238551   4.107   2.240   8.008  0.0833  0.5591  0.3048
 5639TIP3    H138552   4.012   2.231   8.019  0.0591 -3.0076 -1.3883
 5639TIP3    H238553   4.116   2.308   7.941 -1.6228 -1.2463 -1.9666
 5640TIP3   OH238554   4.153   1.102   7.845 -0.4277  0.6141  0.0262
 5640TIP3    H138555   4.212   1.157   7.897 -0.7023  0.6482  0.3031
 5640TIP3    H238556   4.065   1.127   7.873 -0.6226  1.3721 -1.2042
 5641TIP3   OH238557   4.712   5.852   0.940  0.3483 -0.7585 -0.4360
 5641TIP3    H138558   4.632   5.825   0.984 -0.1607  2.0396  0.5729
 5641TIP3    H238559   4.767   5.888   1.010  0.7290  1.1439 -1.6322
 5642TIP3   OH238560   3.481   6.077   6.119 -0.2331 -0.1146 -0.4040
 5642TIP3    H138561   3.478   6.169   6.144 -4.0478 -0.7519  2.4774
 5642TIP3    H238562   3.414   6.068   6.052 -1.3909 -1.0461  0.8299
 5643TIP3   OH238563   1.403   4.473   1.547  0.3114 -0.1226 -0.3734
 5643TIP3    H138564   1.492   4.462   1.578  0.5487 -3.0995 -1.8256
 5643TIP3    H238565   1.412   4.512   1.460  0.0692  0.8581  0.0206
 5644TIP3   OH238566   3.246   6.432   7.714  0.2504  0.1346  0.6238
 5644TIP3    H138567   3.278   6.372   7.647  2.1811  1.5630  0.1697
 5644TIP3    H238568   3.188   6.379   7.769 -0.5012 -1.3514 -1.4857
 5645TIP3   OH238569   4.007   6.748   0.525  0.5494  0.3447  0.6473
 5645TIP3    H138570   4.087   6.701   0.501 -0.0283 -0.7159  0.7428
 5645TIP3    H238571   3.971   6.779   0.442  0.6970  0.2337  0.5416
 5646TIP3   OH238572   3.282   3.739   0.448  0.4615  0.5299  0.0733
 5646TIP3    H138573   3.267   3.669   0.384 -0.4680  0.2798  0.5468
 5646TIP3    H238574   3.209   3.799   0.434 -0.9323 -0.5356  2.2102
 5647TIP3   OH238575   5.579   4.000   1.203  0.3018  0.2287 -0.2389
 5647TIP3    H138576   5.574   3.958   1.118  1.9381 -0.0475 -0.2379
 5647TIP3    H238577   5.671   3.993   1.228  0.3900  2.6142  0.3675
 5648TIP3   OH238578   0.994   0.207   6.405  0.4675 -0.0183 -0.7077
 5648TIP3    H138579   0.938   0.155   6.346  0.5740 -1.1728  0.1713
 5648TIP3    H238580   0.968   0.297   6.389 -0.0368 -0.3568 -1.9777
 5649TIP3   OH238581   4.236   6.068   7.171 -0.8136 -0.3377 -0.4530
 5649TIP3    H138582   4.178   6.139   7.144  0.0208  0.5236 -0.0587
 5649TIP3    H238583   4.249   6.017   7.092 -2.9745 -1.2124 -0.2989
 5650TIP3   OH238584   3.238   2.284   7.021 -0.2089 -0.1381 -0.0931
 5650TIP3    H138585   3.183   2.248   7.091 -0.1638  0.6795  0.3836
 5650TIP3    H238586   3.247   2.213   6.958  0.3441 -1.1291  1.0772
 5651TIP3   OH238587   4.597   2.730   1.165  0.9485 -0.3451 -0.5989
 5651TIP3    H138588   4.520   2.674   1.161 -0.1015  1.1200 -1.7505
 5651TIP3    H238589   4.653   2.699   1.094  0.7774 -0.4910 -0.6704
 5652TIP3   OH238590   0.163   0.122   6.107 -0.5376  0.1874  0.3520
 5652TIP3    H138591   0.160   0.200   6.052 -2.8793 -1.2102 -1.7081
 5652TIP3    H238592   0.110   0.144   6.183 -2.6672  0.1482 -1.0319
 5653TIP3   OH238593   5.209   6.112   8.503 -0.2078  0.3469  0.1604
 5653TIP3    H138594   5.192   6.106   8.409 -1.9124 -0.9726  0.4835
 5653TIP3    H238595   5.121   6.110   8.543  0.3660  2.5734  1.7347
 5654TIP3   OH238596   5.043   0.973   8.303  0.1264 -0.2810  0.2509
 5654TIP3    H138597   4.988   0.997   8.229  0.2794  0.6910  0.4393
 5654TIP3    H238598   4.982   0.958   8.375 -0.0122 -1.0726 -0.0218
 5655TIP3   OH238599   4.667   0.271   0.676 -0.1479  0.2491 -0.3289
 5655TIP3    H138600   4.664   0.314   0.762  0.4600 -1.4101  0.5824
 5655TIP3    H238601   4.750   0.299   0.638 -0.4341  1.0219 -0.4024
 5656TIP3   OH238602   0.249   4.729   0.645 -0.6914  0.5918  0.6620
 5656TIP3    H138603   0.250   4.683   0.561 -1.3639 -0.2132  1.0761
 5656TIP3    H238604   0.335   4.770   0.651 -0.0219 -0.6904  0.3009
 5657TIP3   OH238605   5.771   6.151   1.049 -0.1960  0.1505  0.0850
 5657TIP3    H138606   5.696   6.116   1.099 -0.2734 -0.8165 -0.6744
 5657TIP3    H238607   5.848   6.113   1.092  0.0770  2.9263  2.3029
 5658TIP3   OH238608   4.632   6.684   0.821 -0.3752  0.2883  0.1996
 5658TIP3    H138609   4.721   6.692   0.856 -0.9154 -0.8929  2.0172
 5658TIP3    H238610   4.622   6.590   0.805 -0.8585  0.5705 -1.3207
 5659TIP3   OH238611   1.305   1.500   1.850 -0.0006  0.2114 -0.4375
 5659TIP3    H138612   1.379   1.461   1.897  0.7203 -1.0760 -2.5354
 5659TIP3    H238613   1.227   1.463   1.892  0.6103 -0.5567  0.0367
 5660TIP3   OH238614   4.379   3.647   7.981  0.2005  0.9484 -0.4482
 5660TIP3    H138615   4.348   3.567   8.024 -0.1962  1.8193  0.9582
 5660TIP3    H238616   4.381   3.625   7.888 -0.5555 -0.4821 -0.1554
 5661TIP3   OH238617   1.404   3.171   8.595 -0.0284 -0.1973  0.2153
 5661TIP3    H138618   1.468   3.135   8.656 -0.7478  1.6119  2.1918
 5661TIP3    H238619   1.454   3.227   8.536  0.2483  1.9108  2.2938
 5662TIP3   OH238620   6.795   2.432   1.220 -0.6785 -0.2738  0.2902
 5662TIP3    H138621   6.761   2.470   1.139  0.1339 -0.6277 -0.2224
 5662TIP3    H238622   6.735   2.359   1.239 -0.5117 -0.5775 -0.3329
 5663TIP3   OH238623   4.632   1.930   2.220  0.6948 -0.1323  0.0697
 5663TIP3    H138624   4.605   1.839   2.231  0.3623 -0.0761 -0.2433
 5663TIP3    H238625   4.554   1.973   2.185  0.0681  0.7868  2.4171
 5664TIP3   OH238626   6.307   4.724   0.796 -0.2022 -0.0936  0.1336
 5664TIP3    H138627   6.300   4.736   0.891  0.2097 -0.7953  0.2637
 5664TIP3    H238628   6.241   4.782   0.759 -2.0493 -1.5657  0.9507
 5665TIP3   OH238629   0.775   2.900   7.373  0.2023 -0.5249 -0.3125
 5665TIP3    H138630   0.820   2.828   7.330 -0.2862 -0.2125 -1.3684
 5665TIP3    H238631   0.820   2.978   7.341 -0.8141 -0.2340 -1.0582
 5666TIP3   OH238632   0.685   0.671   1.219 -0.3521  0.4497 -0.2577
 5666TIP3    H138633   0.701   0.661   1.125 -0.5549 -1.2984 -0.1318
 5666TIP3    H238634   0.767   0.706   1.253  0.2377 -0.2742 -0.8798
 5667TIP3   OH238635   2.079   6.538   6.521  0.3964 -0.4399 -0.1760
 5667TIP3    H138636   2.130   6.603   6.472 -0.3659  0.0992 -0.2710
 5667TIP3    H238637   1.993   6.580   6.534  1.0869  0.2283  3.2432
 5668TIP3   OH238638   5.451   2.122   1.577 -0.5105  0.0716  0.1971
 5668TIP3    H138639   5.459   2.089   1.488 -0.2473  0.0635  0.2248
 5668TIP3    H238640   5.536   2.107   1.617 -0.6886 -0.1162  0.5172
 5669TIP3   OH238641   0.538   6.566   5.910  0.2166  0.2377 -0.4042
 5669TIP3    H138642   0.576   6.613   5.985  1.1071  0.7343 -1.1540
 5669TIP3    H238643   0.447   6.595   5.907  0.2526  0.4388  0.3064
 5670TIP3   OH238644   2.985   4.579   0.714  0.1984 -0.1051  0.5266
 5670TIP3    H138645   3.069   4.624   0.726  0.1018  0.2998 -0.2393
 5670TIP3    H238646   2.926   4.647   0.683 -0.2319 -0.5340  0.3980
 5671TIP3   OH238647   4.897   6.765   0.888 -0.0490 -0.2775  0.1623
 5671TIP3    H138648   4.974   6.736   0.937  0.0158 -0.6426 -0.1471
 5671TIP3    H238649   4.916   6.740   0.797  0.8486  2.4019 -0.4833
 5672TIP3   OH238650   2.302   5.325   8.012 -0.9474 -0.5814 -0.3631
 5672TIP3    H138651   2.347   5.296   7.932  0.8262 -0.3007  0.4880
 5672TIP3    H238652   2.293   5.419   8.002 -0.8046 -0.5574 -0.2563
 5673TIP3   OH238653   2.306   0.893   6.671  0.1049 -0.4301 -0.1176
 5673TIP3    H138654   2.216   0.865   6.654 -0.2511  1.0873 -0.8536
 5673TIP3    H238655   2.306   0.918   6.764 -1.1363  2.5690 -0.8050
 5674TIP3   OH238656   1.243   3.878   7.637  0.2420 -0.4950  1.1829
 5674TIP3    H138657   1.237   3.910   7.547  0.6122 -0.8532  1.0294
 5674TIP3    H238658   1.230   3.955   7.691  1.7894  0.0479  0.8207
 5675TIP3   OH238659   1.549   5.806   1.378 -0.1567 -0.0670  0.2853
 5675TIP3    H138660   1.469   5.845   1.413 -0.4467 -0.3448 -0.0517
 5675TIP3    H238661   1.620   5.858   1.414 -0.4400 -0.3978  1.3555
 5676TIP3   OH238662   1.167   6.693   7.175 -0.1227  0.1538  0.9428
 5676TIP3    H138663   1.147   6.610   7.218  0.8259 -1.8853 -2.2258
 5676TIP3    H238664   1.090   6.711   7.121  0.2793  0.5648  0.4968
 5677TIP3   OH238665   1.852   1.964   6.775  0.3327 -0.0828  0.2821
 5677TIP3    H138666   1.845   2.059   6.765  1.8886  0.0920  0.4744
 5677TIP3    H238667   1.882   1.934   6.689 -0.9289 -0.5201 -0.0219
 5678TIP3   OH238668   0.042   6.331   0.285 -0.1894 -0.6235 -0.7472
 5678TIP3    H138669   0.061   6.413   0.241  0.8255  0.0271  0.8227
 5678TIP3    H238670  -0.039   6.347   0.334 -1.6406 -1.5213 -2.6797
 5679TIP3   OH238671   2.500   3.627   1.773  0.6626  0.2264 -0.0060
 5679TIP3    H138672   2.419   3.659   1.732  0.7410  0.6272  0.1530
 5679TIP3    H238673   2.565   3.694   1.753  1.1755 -0.5097 -0.8816
 5680TIP3   OH238674   5.435   4.975   7.707  0.0957  0.4967  0.0841
 5680TIP3    H138675   5.488   4.897   7.726 -0.3059  0.3710  0.7188
 5680TIP3    H238676   5.420   5.015   7.793  1.2276  1.8933 -0.3271
 5681TIP3   OH238677   4.371   0.830   1.250 -0.1673  0.3017  0.1316
 5681TIP3    H138678   4.415   0.915   1.256 -0.2947  0.4153 -0.4857
 5681TIP3    H238679   4.407   0.790   1.170  1.2325 -0.9951  1.3218
 5682TIP3   OH238680   6.551   3.995   7.099  0.0060 -0.4467  0.4852
 5682TIP3    H138681   6.637   4.011   7.139  0.4181 -3.5297  1.1037
 5682TIP3    H238682   6.490   3.996   7.173 -0.1034 -0.6091  0.3982
 5683TIP3   OH238683   2.180   4.582   1.219  0.1993 -0.4880  0.6782
 5683TIP3    H138684   2.274   4.581   1.237  0.3569 -1.1619 -0.1324
 5683TIP3    H238685   2.143   4.519   1.280  0.3399 -0.5859  0.6618
 5684TIP3   OH238686   3.345   0.580   7.825  0.0893  0.3001  0.3235
 5684TIP3    H138687   3.396   0.641   7.772  0.3761  0.0770  0.3413
 5684TIP3    H238688   3.410   0.531   7.875  0.0045 -1.3218 -1.0696
 5685TIP3   OH238689   4.203   5.716   1.778 -0.0649 -0.1486  0.1223
 5685TIP3    H138690   4.294   5.704   1.804  0.2804  0.2335 -0.9079
 5685TIP3    H238691   4.168   5.779   1.842  0.1360 -0.9293  1.0357
 5686TIP3   OH238692   2.736   4.198   1.084 -0.3478  0.4169  0.1667
 5686TIP3    H138693   2.685   4.184   1.164 -1.1182  2.7222  0.1534
 5686TIP3    H238694   2.702   4.133   1.023 -1.0928 -0.1159  1.1092
 5687TIP3   OH238695   0.082   5.564   2.039  0.1666  0.3438  0.2897
 5687TIP3    H138696   0.068   5.596   2.128  1.7952  0.3350  0.5816
 5687TIP3    H238697   0.051   5.636   1.983 -0.0405  0.7169  0.8726
 5688TIP3   OH238698   1.584   3.730   7.032 -0.3119 -0.2493  0.3965
 5688TIP3    H138699   1.666   3.682   7.047 -1.3184 -3.0853 -2.1666
 5688TIP3    H238700   1.611   3.815   6.999  1.5809 -0.7544  0.5290
 5689TIP3   OH238701   0.407   1.293   7.074 -0.6792  0.2341 -0.5230
 5689TIP3    H138702   0.397   1.204   7.108 -0.5973  0.7900  1.0405
 5689TIP3    H238703   0.465   1.337   7.137 -1.2931  1.5975 -0.8669
 5690TIP3   OH238704   6.438   5.957   0.915  0.0857  0.1827  0.0828
 5690TIP3    H138705   6.504   5.961   0.984  2.1345  2.0476 -1.8198
 5690TIP3    H238706   6.358   5.991   0.956  0.1985 -2.0414  2.4271
 5691TIP3   OH238707   1.148   0.526   8.494  0.1353  0.0943 -0.1034
 5691TIP3    H138708   1.191   0.586   8.555  0.8634  0.0275 -0.5502
 5691TIP3    H238709   1.213   0.459   8.476 -0.3149 -0.2562 -0.4344
 5692TIP3   OH238710   4.320   2.101   8.657 -1.0987  0.0490  0.3157
 5692TIP3    H138711   4.299   2.163   8.587  1.7534 -1.8113 -2.4213
 5692TIP3    H238712   4.246   2.040   8.656 -1.0863  0.0038 -1.2084
 5693TIP3   OH238713   5.026   5.582   8.378  0.4300  0.4097  0.0217
 5693TIP3    H138714   4.984   5.658   8.338  1.1329 -0.2171 -2.0335
 5693TIP3    H238715   5.060   5.615   8.462 -1.3628  1.6996  0.2981
 5694TIP3   OH238716   6.894   6.562   6.615  0.4055 -0.1167  0.2649
 5694TIP3    H138717   6.876   6.601   6.530 -1.1564 -0.7159  0.2791
 5694TIP3    H238718   6.973   6.606   6.646  0.0022  1.3469 -0.7123
 5695TIP3   OH238719   4.117   3.684   1.094 -0.6276 -0.5059  0.1600
 5695TIP3    H138720   4.061   3.760   1.110 -0.7678 -0.7825  1.0105
 5695TIP3    H238721   4.070   3.632   1.029  0.2817  0.9859 -1.8241
 5696TIP3   OH238722   6.506   6.458   0.555  0.4041 -0.1188  0.5313
 5696TIP3    H138723   6.479   6.384   0.608  0.7226 -0.7703 -0.1976
 5696TIP3    H238724   6.561   6.420   0.486 -1.0324  0.5308 -1.0376
 5697TIP3   OH238725   3.328   2.073   0.190 -0.0003  0.1639 -0.3478
 5697TIP3    H138726   3.357   2.140   0.253  0.6293  0.6363 -1.1243
 5697TIP3    H238727   3.287   2.006   0.244  2.7211 -0.6646  0.8621
 5698TIP3   OH238728   2.056   0.960   1.424 -0.2848 -0.4418  1.1266
 5698TIP3    H138729   2.114   0.996   1.491  0.3965  0.1626  0.2378
 5698TIP3    H238730   2.103   0.883   1.390  0.1793  0.2396  0.1757
 5699TIP3   OH238731   1.174   5.492   0.989 -0.3183 -0.4100  0.1029
 5699TIP3    H138732   1.111   5.422   0.975 -0.1254 -0.6466  0.4052
 5699TIP3    H238733   1.122   5.572   0.988 -0.3964 -0.4600 -1.3158
 5700TIP3   OH238734   6.789   4.486   6.728  0.0615  0.2464 -0.0585
 5700TIP3    H138735   6.761   4.427   6.658 -1.0760  1.7434 -0.9111
 5700TIP3    H238736   6.733   4.464   6.802 -0.0781 -0.0196 -0.2403
 5701TIP3   OH238737   6.434   0.104   6.319 -0.0459  0.3679 -0.2074
 5701TIP3    H138738   6.506   0.068   6.269 -0.3645  0.7839 -0.9983
 5701TIP3    H238739   6.389   0.162   6.256 -1.2344 -0.1206  0.1705
 5702TIP3   OH238740   5.164   0.136   0.488 -0.2452  0.3938 -0.3202
 5702TIP3    H138741   5.130   0.115   0.402 -0.4225  0.6604 -0.3158
 5702TIP3    H238742   5.093   0.183   0.532  0.2500  1.2786 -0.4437
 5703TIP3   OH238743   0.566   0.720   0.269 -0.1388 -0.0955  0.2483
 5703TIP3    H138744   0.514   0.657   0.221  0.3149 -1.1696  1.1203
 5703TIP3    H238745   0.561   0.801   0.217 -2.3213 -0.2673  0.1259
 5704TIP3   OH238746   3.925   3.365   0.214 -0.1475 -0.3957 -0.7664
 5704TIP3    H138747   3.967   3.320   0.287 -1.5092  1.1350  1.0637
 5704TIP3    H238748   3.834   3.335   0.216 -1.1444  2.4013  0.6304
 5705TIP3   OH238749   2.640   6.860   0.312  0.6317 -0.0182  0.2449
 5705TIP3    H138750   2.545   6.851   0.310  0.5423  0.3242  1.6034
 5705TIP3    H238751   2.673   6.777   0.277 -0.1758 -0.7854  1.2443
 5706TIP3   OH238752   3.388   6.235   7.439  0.6966 -0.2597  0.1830
 5706TIP3    H138753   3.325   6.267   7.374 -0.0548  1.0585  1.4924
 5706TIP3    H238754   3.382   6.139   7.432  0.3919 -0.1595 -1.4162
 5707TIP3   OH238755   1.536   6.731   8.430 -0.7721  0.1658 -0.5890
 5707TIP3    H138756   1.578   6.781   8.360  0.1364  2.6529  1.5352
 5707TIP3    H238757   1.593   6.655   8.443  1.4574  1.8562  0.1661
 5708TIP3   OH238758   3.749   3.984   1.873  0.1576  0.7135 -0.0560
 5708TIP3    H138759   3.783   3.957   1.958  0.4636  1.5399  0.0936
 5708TIP3    H238760   3.761   4.079   1.871 -0.1658  0.7493 -0.8813
 5709TIP3   OH238761   6.434   0.501   6.871  0.6483 -0.2085 -0.7906
 5709TIP3    H138762   6.402   0.426   6.920  0.3056  0.6661  0.3539
 5709TIP3    H238763   6.355   0.546   6.842  0.7977  1.2196  0.9049
 5710TIP3   OH238764   5.027   5.441   7.939 -0.0450  0.2466  0.8396
 5710TIP3    H138765   5.121   5.434   7.956  0.0556  1.1320  0.6881
 5710TIP3    H238766   5.000   5.352   7.916  1.0738  0.2740 -0.7409
 5711TIP3   OH238767   4.213   5.799   1.329  0.2598 -0.1760  0.6520
 5711TIP3    H138768   4.160   5.793   1.409  1.8409  0.8922  1.8493
 5711TIP3    H238769   4.206   5.713   1.289 -2.8369  0.0873  0.3928
 5712TIP3   OH238770   0.409   4.659   8.373 -0.3691 -0.7545  0.9191
 5712TIP3    H138771   0.457   4.742   8.377 -0.0439 -0.9044  0.3503
 5712TIP3    H238772   0.460   4.605   8.312 -0.6080 -1.3521  1.2399
 5713TIP3   OH238773   6.715   5.645   6.343 -0.3448  0.3139 -0.3225
 5713TIP3    H138774   6.696   5.624   6.252  2.7273 -1.5584 -0.6627
 5713TIP3    H238775   6.636   5.618   6.391 -1.0583 -1.0233 -2.1375
 5714TIP3   OH238776   0.394   0.354   6.263 -0.5680 -0.2280 -0.5695
 5714TIP3    H138777   0.484   0.340   6.235 -0.0799 -1.6625  1.5455
 5714TIP3    H238778   0.342   0.341   6.183  0.9924 -0.2151 -1.6383
 5715TIP3   OH238779   6.532   3.465   0.778  0.3776 -0.1050  0.3254
 5715TIP3    H138780   6.557   3.461   0.686  1.4612  3.0862  0.3800
 5715TIP3    H238781   6.447   3.421   0.781  0.3906 -0.4445 -2.1611
 5716TIP3   OH238782   3.714   0.858   7.005 -0.3636  0.3281 -1.1525
 5716TIP3    H138783   3.792   0.843   7.058 -1.0611 -0.3736 -0.2891
 5716TIP3    H238784   3.729   0.809   6.924  0.1024  0.2212 -1.0003
 5717TIP3   OH238785   6.100   0.442   1.489  0.0772  0.0167  0.0058
 5717TIP3    H138786   6.094   0.528   1.447  0.8471 -0.1793 -0.5410
 5717TIP3    H238787   6.156   0.457   1.565  0.1468  0.0192 -0.0452
 5718TIP3   OH238788   4.130   2.443   8.237  0.2103 -0.4484  0.1228
 5718TIP3    H138789   4.035   2.450   8.226 -0.0306 -0.3615  1.9834
 5718TIP3    H238790   4.158   2.384   8.167 -1.0299  0.4068 -1.1587
 5719TIP3   OH238791   6.366   0.321   7.141  0.0775 -0.6615  0.2774
 5719TIP3    H138792   6.380   0.315   7.235 -1.4589  0.9825  0.6685
 5719TIP3    H238793   6.298   0.387   7.131  1.5616  0.6528 -2.1186
 5720TIP3   OH238794   0.379   1.344   1.916 -0.0643  0.0151  0.4143
 5720TIP3    H138795   0.317   1.369   1.985 -2.6470  0.0141 -1.7299
 5720TIP3    H238796   0.351   1.257   1.889 -0.8117  0.9626 -2.2419
 5721TIP3   OH238797   5.571   5.988   7.159 -0.5468 -0.3666  0.3509
 5721TIP3    H138798   5.659   6.017   7.137 -1.1223  0.3961 -1.0381
 5721TIP3    H238799   5.573   5.893   7.145 -0.4871 -0.0997 -1.7549
 5722TIP3   OH238800   3.991   5.133   0.192  0.5263 -0.5464  0.3597
 5722TIP3    H138801   3.909   5.178   0.215 -0.8053 -2.3529 -0.5406
 5722TIP3    H238802   4.049   5.202   0.163 -1.4073  0.6478 -0.9154
 5723TIP3   OH238803   3.782   3.539   7.398  0.5260 -0.0469 -0.5234
 5723TIP3    H138804   3.743   3.452   7.399  0.0787  0.1529 -0.3912
 5723TIP3    H238805   3.729   3.590   7.459  1.2485  0.1216 -0.0338
 5724TIP3   OH238806   1.879   2.499   7.415 -0.3301  0.5242  0.0635
 5724TIP3    H138807   1.816   2.497   7.343  0.8368  1.7077 -1.0406
 5724TIP3    H238808   1.833   2.546   7.485 -0.6816  1.4050 -0.7373
 5725TIP3   OH238809   1.901   6.748   8.286  0.1004 -0.3506 -0.0857
 5725TIP3    H138810   1.974   6.709   8.238 -0.2341 -0.9067 -0.1584
 5725TIP3    H238811   1.828   6.744   8.224  0.1155  0.6149 -0.1713
 5726TIP3   OH238812   0.354   3.885   7.881 -0.1947 -0.3938  0.4529
 5726TIP3    H138813   0.310   3.815   7.928 -0.3901 -0.6950 -0.1787
 5726TIP3    H238814   0.354   3.959   7.942  0.5266 -1.1057  1.3496
 5727TIP3   OH238815   5.377   4.313   7.202 -0.7370  0.2520 -0.3579
 5727TIP3    H138816   5.414   4.235   7.162  2.3494  0.9930  0.7583
 5727TIP3    H238817   5.352   4.286   7.290  1.0075  0.5655  0.2890
 5728TIP3   OH238818   0.748   3.744   1.243 -0.0815 -0.0754  0.1224
 5728TIP3    H138819   0.736   3.651   1.262 -0.6527 -0.3102 -1.3059
 5728TIP3    H238820   0.822   3.770   1.299 -0.6858 -1.0721  1.4389
 5729TIP3   OH238821   0.946   0.189   0.741  0.6602  0.2480  0.4967
 5729TIP3    H138822   0.979   0.230   0.822 -0.0046  0.5597  0.6196
 5729TIP3    H238823   1.009   0.214   0.674  2.8509 -2.3681  1.3950
 5730TIP3   OH238824   6.435   1.677   7.443 -0.0300 -0.1964  0.3276
 5730TIP3    H138825   6.417   1.720   7.360 -2.2299 -0.3506  0.6574
 5730TIP3    H238826   6.459   1.747   7.503  1.7481 -0.1031 -0.4222
 5731TIP3   OH238827   4.394   5.435   0.853  0.1445  0.6370  0.3365
 5731TIP3    H138828   4.378   5.346   0.822 -0.1252 -0.1916  2.6376
 5731TIP3    H238829   4.468   5.425   0.914 -0.8246  1.6949  1.7379
 5732TIP3   OH238830   1.614   0.964   8.349  0.5631  0.1079 -0.3625
 5732TIP3    H138831   1.580   1.005   8.428 -0.3520  0.4503 -0.9208
 5732TIP3    H238832   1.699   0.929   8.375  0.8183  1.2777  0.4518
 5733TIP3   OH238833   4.720   6.595   7.257 -0.3108 -0.3012 -0.1105
 5733TIP3    H138834   4.704   6.681   7.220 -1.7211 -0.5697 -0.1675
 5733TIP3    H238835   4.734   6.611   7.350  0.4122  0.0771 -0.2770
 5734TIP3   OH238836   2.392   2.369   1.481  0.0503 -0.5348 -0.0809
 5734TIP3    H138837   2.448   2.444   1.458 -0.0398 -0.9021 -1.5801
 5734TIP3    H238838   2.303   2.401   1.470  0.0118 -0.8668 -0.8163
 5735TIP3   OH238839   5.966   0.129   6.505 -0.2464 -0.8056 -0.6942
 5735TIP3    H138840   6.059   0.108   6.507  0.7278  2.8963 -0.9071
 5735TIP3    H238841   5.945   0.141   6.412 -0.2935  0.7308 -0.4990
 5736TIP3   OH238842   1.908   3.641   1.687 -0.1961 -0.5455 -0.1644
 5736TIP3    H138843   1.825   3.594   1.677 -1.1278  0.9129  0.3977
 5736TIP3    H238844   1.899   3.689   1.769  1.0951 -0.1260 -0.2410
 5737TIP3   OH238845   2.129   6.028   1.545 -0.1123  0.2784  0.2188
 5737TIP3    H138846   2.167   5.995   1.627  0.3394  0.4370  0.0747
 5737TIP3    H238847   2.088   5.951   1.506  1.9707 -0.4331 -0.7007
 5738TIP3   OH238848   2.482   4.232   0.130  0.2808  0.0047  0.5627
 5738TIP3    H138849   2.466   4.296   0.060  1.4839  0.1708  0.4202
 5738TIP3    H238850   2.446   4.150   0.096  2.0093 -0.2249 -0.8416
 5739TIP3   OH238851   0.038   2.906   7.450  0.5088  0.2653 -0.3052
 5739TIP3    H138852   0.046   2.824   7.498  0.5622  0.3546 -0.1579
 5739TIP3    H238853   0.128   2.940   7.446  0.4728  0.3646 -0.2776
 5740TIP3   OH238854   5.178   5.770   7.622 -0.1547  0.5485  0.4035
 5740TIP3    H138855   5.106   5.811   7.574  0.8914  1.8633 -0.1181
 5740TIP3    H238856   5.255   5.783   7.566  0.4956 -0.8024  0.9480
 5741TIP3   OH238857   6.822   4.294   0.650 -0.2251 -0.1313  0.0439
 5741TIP3    H138858   6.791   4.384   0.645 -0.2746 -0.0861  0.9511
 5741TIP3    H238859   6.757   4.243   0.602  0.6793  0.4954 -1.9671
 5742TIP3   OH238860   1.342   6.120   0.555 -0.1013  0.8280 -0.1317
 5742TIP3    H138861   1.248   6.132   0.568 -0.3525 -0.5515 -0.5565
 5742TIP3    H238862   1.382   6.162   0.631 -1.0855  0.9062  0.3608
 5743TIP3   OH238863   2.460   1.461   7.293  0.6624  0.0738  0.1835
 5743TIP3    H138864   2.435   1.400   7.363 -1.0178  0.7263  0.2097
 5743TIP3    H238865   2.546   1.430   7.264  0.8963 -0.9021  1.7492
 5744TIP3   OH238866   5.039   0.935   6.453 -0.1230 -0.0166  0.0989
 5744TIP3    H138867   5.036   0.839   6.456 -0.0132 -0.1018 -1.4051
 5744TIP3    H238868   5.073   0.954   6.365 -1.2211  1.4112 -0.0413
 5745TIP3   OH238869   3.652   4.364   1.112  0.8058  0.0466 -0.6979
 5745TIP3    H138870   3.717   4.302   1.079  0.8129  0.6832 -1.9644
 5745TIP3    H238871   3.703   4.433   1.155  0.7427 -1.4492  1.9822
 5746TIP3   OH238872   1.078   6.125   8.403 -0.5231 -0.3282 -0.1879
 5746TIP3    H138873   1.102   6.183   8.475 -0.4405  0.8440 -1.1301
 5746TIP3    H238874   1.162   6.102   8.362 -0.6462 -0.0649 -0.5948
 5747TIP3   OH238875   1.463   0.170   8.661 -0.1064 -0.5412  0.0220
 5747TIP3    H138876   1.431   0.084   8.687  0.0881 -0.3650  0.8663
 5747TIP3    H238877   1.534   0.190   8.722  0.8187 -0.3916 -1.0587
 5748TIP3   OH238878   1.027   3.562   6.856  0.1807 -0.0741  0.1738
 5748TIP3    H138879   1.103   3.614   6.831 -0.5895  0.8874 -0.2249
 5748TIP3    H238880   0.988   3.535   6.772 -1.6163  1.9874  0.2663
 5749TIP3   OH238881   5.213   4.834   1.420  0.7353 -0.3443 -0.3274
 5749TIP3    H138882   5.156   4.816   1.495 -1.1977  1.9777 -1.1087
 5749TIP3    H238883   5.208   4.755   1.367  1.5194 -1.7260  1.5598
 5750TIP3   OH238884   0.581   1.814   7.817 -0.0950 -0.4133 -0.1782
 5750TIP3    H138885   0.509   1.877   7.825 -0.4320 -0.9238  1.0926
 5750TIP3    H238886   0.650   1.863   7.772 -0.4838  0.7655  0.4523
 5751TIP3   OH238887   0.691   2.851   0.614 -0.0934 -0.6378  0.1353
 5751TIP3    H138888   0.699   2.763   0.577  0.3425 -0.6531  0.2579
 5751TIP3    H238889   0.715   2.909   0.542  0.3750 -0.6523  0.2764
 5752TIP3   OH238890   2.821   4.394   7.989  0.2808 -0.0711  0.3534
 5752TIP3    H138891   2.801   4.303   8.015 -1.3432  0.2647  0.4046
 5752TIP3    H238892   2.880   4.426   8.057 -0.4429 -0.5839  1.2479
 5753TIP3   OH238893   5.490   5.848   0.578  0.1204 -0.5864 -0.0807
 5753TIP3    H138894   5.439   5.779   0.536 -1.6689 -0.0738  1.1273
 5753TIP3    H238895   5.441   5.928   0.559  0.6455 -0.0206  0.8764
 5754TIP3   OH238896   6.481   2.765   2.470  0.6794  0.2046 -0.1961
 5754TIP3    H138897   6.543   2.753   2.542  0.2864 -0.1144  0.1008
 5754TIP3    H238898   6.509   2.703   2.403 -1.1707 -2.3779  1.2231
 5755TIP3   OH238899   2.539   5.909   7.143 -0.0107 -0.1821  0.4008
 5755TIP3    H138900   2.528   5.822   7.103 -0.6260 -0.9469  2.1359
 5755TIP3    H238901   2.452   5.931   7.177  0.1701  1.0852  0.0855
 5756TIP3   OH238902   3.240   5.819   6.869 -0.5565 -0.2774 -0.1822
 5756TIP3    H138903   3.242   5.801   6.775  0.3010 -1.5136  0.0454
 5756TIP3    H238904   3.316   5.875   6.884  0.3272 -1.4938  0.0144
 5757TIP3   OH238905   3.827   1.124   6.544  0.1562  0.1471 -0.0274
 5757TIP3    H138906   3.891   1.137   6.474 -1.6762  0.9878 -1.6332
 5757TIP3    H238907   3.814   1.211   6.581 -0.6049  0.1324 -0.2413
 5758TIP3   OH238908   2.433   6.371   2.098 -0.4682  0.6052 -0.1582
 5758TIP3    H138909   2.406   6.304   2.036  0.8844 -0.3065  0.2135
 5758TIP3    H238910   2.378   6.356   2.175  0.4833 -0.7083  0.2854
 5759TIP3   OH238911   4.007   3.461   6.905 -0.1618  0.3920 -0.5457
 5759TIP3    H138912   3.927   3.514   6.902 -0.2413  0.4075  1.1686
 5759TIP3    H238913   4.077   3.524   6.891 -0.1007  1.4632  3.5071
 5760TIP3   OH238914   0.740   2.901   8.446 -0.9965  0.0451 -0.4226
 5760TIP3    H138915   0.835   2.891   8.454 -0.8225 -0.2421 -2.3067
 5760TIP3    H238916   0.721   2.986   8.486 -0.0525 -0.1617  0.5210
 5761TIP3   OH238917   0.141   6.011   8.079  0.1906 -0.1983 -0.0548
 5761TIP3    H138918   0.105   6.079   8.135  2.1078  1.5160 -0.7982
 5761TIP3    H238919   0.105   5.929   8.114 -2.2177  1.1530  0.8306
 5762TIP3   OH238920   4.383   3.637   0.505 -0.0914  0.1406 -0.3591
 5762TIP3    H138921   4.439   3.697   0.554  1.8260  0.4254 -2.7156
 5762TIP3    H238922   4.324   3.693   0.455 -1.0555 -0.0988  0.4887
 5763TIP3   OH238923   4.475   6.658   2.310  0.1159 -0.2800 -0.6341
 5763TIP3    H138924   4.394   6.653   2.259 -0.4000  2.1602 -0.1994
 5763TIP3    H238925   4.479   6.750   2.339  1.5777 -1.0182  1.7609
 5764TIP3   OH238926   5.605   6.854   0.502 -0.4128  0.3078 -0.2385
 5764TIP3    H138927   5.569   6.772   0.467 -0.0421  0.2355 -0.4620
 5764TIP3    H238928   5.546   6.922   0.469 -0.8337  0.1141  0.1098
 5765TIP3   OH238929   4.238   2.635   1.442 -0.0208  0.2927 -0.2150
 5765TIP3    H138930   4.238   2.664   1.533 -1.4936  1.1798 -0.4721
 5765TIP3    H238931   4.300   2.562   1.440  1.7422  1.6778  1.0044
 5766TIP3   OH238932   6.491   0.599   1.612 -0.0159  0.5013 -0.0600
 5766TIP3    H138933   6.446   0.540   1.672  3.0950 -0.8049  1.2368
 5766TIP3    H238934   6.471   0.686   1.644 -1.8072  0.0320  0.2120
 5767TIP3   OH238935   6.186   0.086   0.551 -0.2613 -0.8275 -0.1352
 5767TIP3    H138936   6.140   0.036   0.619  1.7896 -0.5073  1.5719
 5767TIP3    H238937   6.199   0.172   0.589 -1.1368  0.1535 -1.9143
 5768TIP3   OH238938   4.613   6.691   6.799  0.1926 -0.1282  0.1765
 5768TIP3    H138939   4.590   6.766   6.854 -0.0326 -0.7085  0.8890
 5768TIP3    H238940   4.601   6.723   6.710 -1.8979  0.0868  0.4831
 5769TIP3   OH238941   0.877   3.130   2.120 -0.7582  0.1560 -0.4207
 5769TIP3    H138942   0.918   3.053   2.158 -0.3878  0.7080  0.3135
 5769TIP3    H238943   0.787   3.129   2.152 -0.1131  1.3090  1.5746
 5770TIP3   OH238944   1.391   1.052   8.165 -0.0849  0.4438  0.3472
 5770TIP3    H138945   1.312   1.012   8.201  1.0455 -1.1553  1.1849
 5770TIP3    H238946   1.457   0.983   8.169  1.1793  1.5101 -1.0107
 5771TIP3   OH238947   4.461   3.373   1.259 -0.5366  0.5514  0.5805
 5771TIP3    H138948   4.457   3.355   1.353  0.9294  0.1575  0.5990
 5771TIP3    H238949   4.384   3.328   1.222  0.5752 -2.0775  1.2185
 5772TIP3   OH238950   0.694   5.837   1.056  0.0388 -0.1174 -0.7274
 5772TIP3    H138951   0.633   5.777   1.099  1.1728  0.3038  1.6411
 5772TIP3    H238952   0.641   5.914   1.034 -0.8462 -0.8778 -1.2698
 5773TIP3   OH238953   0.636   1.461   6.929 -0.2572 -0.7353 -0.3864
 5773TIP3    H138954   0.608   1.500   6.846  0.5810  0.5209 -0.1216
 5773TIP3    H238955   0.637   1.367   6.913  0.8896 -0.4675 -2.1453
 5774TIP3   OH238956   2.483   2.592   0.927  0.4469  0.4548  0.5406
 5774TIP3    H138957   2.557   2.644   0.956 -0.0671  1.6213 -0.2068
 5774TIP3    H238958   2.516   2.502   0.925  1.9520  0.9977 -0.1676
 5775TIP3   OH238959   2.884   2.495   0.918 -0.0239 -0.2215  0.0311
 5775TIP3    H138960   2.802   2.542   0.906  1.4537  2.4125 -0.5413
 5775TIP3    H238961   2.924   2.537   0.995  0.3034 -2.2426  1.0133
 5776TIP3   OH238962   4.811   2.099   2.063  0.4330 -0.2900  0.2964
 5776TIP3    H138963   4.806   2.034   1.994  0.5285  0.7326 -0.7007
 5776TIP3    H238964   4.721   2.104   2.098  0.4041 -0.8657  0.3047
 5777TIP3   OH238965   1.666   0.701   7.115 -0.5663 -0.2428  0.0032
 5777TIP3    H138966   1.702   0.636   7.054  1.2009  0.9029 -0.2561
 5777TIP3    H238967   1.727   0.774   7.110 -0.2078 -0.1734  3.3272
 5778TIP3   OH238968   0.656   0.261   1.908  0.1110 -0.1191  0.1627
 5778TIP3    H138969   0.562   0.245   1.916  0.1963  0.2302  2.2733
 5778TIP3    H238970   0.697   0.183   1.944  0.6596 -0.2505 -0.7101
 5779TIP3   OH238971   5.132   5.607   6.345 -0.2474 -0.0479  0.7963
 5779TIP3    H138972   5.057   5.666   6.350 -0.0595  0.3131 -0.3851
 5779TIP3    H238973   5.198   5.657   6.297  0.5702 -0.5540  1.3704
 5780TIP3   OH238974   2.822   4.397   0.618 -0.0229 -0.0594 -0.7378
 5780TIP3    H138975   2.861   4.454   0.684 -1.4730 -0.4199  0.4723
 5780TIP3    H238976   2.867   4.313   0.629 -2.3284 -1.0735  1.9924
 5781TIP3   OH238977   0.845   0.520   7.996 -0.6782  0.3862 -0.2994
 5781TIP3    H138978   0.871   0.474   8.075  0.1271  0.4012 -0.5421
 5781TIP3    H238979   0.797   0.597   8.027 -0.4390  0.3509  0.1626
 5782TIP3   OH238980   1.897   5.766   6.707 -0.0631  0.0776  0.0711
 5782TIP3    H138981   1.805   5.765   6.737 -0.6416 -0.5538 -1.6316
 5782TIP3    H238982   1.892   5.742   6.615  1.7938  0.5605 -0.1796
 5783TIP3   OH238983   6.195   4.634   6.329  0.4175 -0.1721 -0.2159
 5783TIP3    H138984   6.250   4.559   6.308  0.0791  0.0334 -1.9624
 5783TIP3    H238985   6.124   4.631   6.265 -0.2269  0.9840  0.4082
 5784TIP3   OH238986   4.843   1.290   7.662 -0.9659  0.6050  0.0973
 5784TIP3    H138987   4.913   1.337   7.707 -0.5852 -0.9262  1.2210
 5784TIP3    H238988   4.778   1.272   7.731 -1.9178  0.9906 -0.6814
 5785TIP3   OH238989   0.618   0.717   8.338  0.2191  0.2097  0.3956
 5785TIP3    H138990   0.525   0.724   8.360  0.3117 -1.8416  1.7037
 5785TIP3    H238991   0.645   0.633   8.374  1.8299 -0.7666 -2.7187
 5786TIP3   OH238992   4.986   1.790   0.008  0.4419  0.4246 -0.0873
 5786TIP3    H138993   4.957   1.701  -0.010  0.6804  0.7825 -2.6000
 5786TIP3    H238994   5.042   1.813  -0.066  0.8709  2.4688  0.7842
 5787TIP3   OH238995   3.705   5.728   8.650 -0.3804  0.0526 -0.1507
 5787TIP3    H138996   3.710   5.655   8.588  0.4395 -0.2073  0.2022
 5787TIP3    H238997   3.792   5.768   8.647 -0.0087 -0.5270  1.4855
 5788TIP3   OH238998   2.073   5.101   0.299  0.2583 -0.3104 -0.2711
 5788TIP3    H138999   2.156   5.061   0.325  0.6584 -0.8471 -2.1813
 5788TIP3    H239000   2.056   5.066   0.211 -2.1552 -0.4494  0.1737
 5789TIP3   OH239001   5.894   0.993   7.880  0.4266  0.5347  0.4715
 5789TIP3    H139002   5.989   0.999   7.868  0.8041 -1.3341  2.0886
 5789TIP3    H239003   5.868   0.921   7.823  0.5374 -1.0740  2.3506
 5790TIP3   OH239004   0.806   1.609   6.551  0.2359 -0.1734 -0.1870
 5790TIP3    H139005   0.754   1.689   6.552  0.9222  0.2892 -1.0123
 5790TIP3    H239006   0.741   1.538   6.552 -0.3723  0.3758  0.5762
 5791TIP3   OH239007   3.024   6.192   8.081  0.0353 -0.4266  0.1065
 5791TIP3    H139008   3.064   6.230   8.159  2.0237  0.6748 -1.3616
 5791TIP3    H239009   2.972   6.264   8.044 -1.5722 -1.1874  0.7967
 5792TIP3   OH239010   0.293   5.236   1.988  0.0032 -0.0319  0.3141
 5792TIP3    H139011   0.199   5.220   1.990  0.1134 -0.8925 -0.5036
 5792TIP3    H239012   0.331   5.165   2.040  0.2291  0.0000  0.1963
 5793TIP3   OH239013   3.077   3.103   6.787  0.4123 -0.0586  0.1931
 5793TIP3    H139014   3.042   3.167   6.849 -1.9668  0.6866 -1.7751
 5793TIP3    H239015   3.074   3.020   6.834  0.8884  0.7941  1.8202
 5794TIP3   OH239016   2.824   6.548   1.015 -0.2878  0.1220 -0.6499
 5794TIP3    H139017   2.821   6.475   0.953  1.4900  0.0473 -0.6759
 5794TIP3    H239018   2.770   6.517   1.089 -0.6775 -0.6532 -1.2379
 5795TIP3   OH239019   2.476   4.929   0.655 -0.3206  0.2379 -0.2012
 5795TIP3    H139020   2.558   4.960   0.616  0.1491 -0.6564  0.0638
 5795TIP3    H239021   2.455   4.994   0.722 -0.7947  1.4495 -1.4654
 5796TIP3   OH239022   4.855   2.476   0.643  0.4848  0.4651  0.2864
 5796TIP3    H139023   4.881   2.427   0.721 -0.0334 -2.9630 -1.5170
 5796TIP3    H239024   4.931   2.471   0.585  0.8986  3.0476  0.4683
 5797TIP3   OH239025   0.238   5.068   0.366 -0.5409 -0.5241 -0.2021
 5797TIP3    H139026   0.315   5.012   0.374 -0.6577 -0.7311 -0.4829
 5797TIP3    H239027   0.203   5.076   0.454  0.4490  0.5042  0.1259
 5798TIP3   OH239028   4.663   5.470   0.307  0.0850  0.5520 -0.1703
 5798TIP3    H139029   4.651   5.547   0.364 -0.0479  0.9144 -0.6740
 5798TIP3    H239030   4.723   5.500   0.239 -0.4793  0.4208 -0.7404
 5799TIP3   OH239031   0.132   1.577   0.698  0.8509 -0.5182 -0.5775
 5799TIP3    H139032   0.163   1.574   0.608  2.1246  1.5591 -0.2763
 5799TIP3    H239033   0.110   1.669   0.713  3.3551 -0.2057  2.0385
 5800TIP3   OH239034   5.462   3.007   7.674  0.4780  0.3327  0.0828
 5800TIP3    H139035   5.370   3.023   7.652  0.5649  1.0504  0.2336
 5800TIP3    H239036   5.460   2.974   7.764  0.3789  0.4481  0.1220
 5801TIP3   OH239037   4.795   0.642   0.607  0.0064 -0.1940 -0.3144
 5801TIP3    H139038   4.860   0.712   0.612 -0.1798 -0.0297 -0.1870
 5801TIP3    H239039   4.847   0.562   0.600  0.3039 -0.3403  2.4261
 5802TIP3   OH239040   3.708   2.903   0.026 -0.2903 -0.0989  0.1432
 5802TIP3    H139041   3.630   2.927  -0.023  0.3517  1.8970  0.0226
 5802TIP3    H239042   3.779   2.950  -0.017  0.6030  0.0780  1.7297
 5803TIP3   OH239043   3.387   3.431   2.232 -0.2199 -0.5933  0.1249
 5803TIP3    H139044   3.338   3.426   2.150 -0.1774 -0.4972  0.0940
 5803TIP3    H239045   3.344   3.367   2.289 -1.3649  0.5549  0.6079
 5804TIP3   OH239046   5.771   2.725   6.587  0.5704  1.1166  0.0760
 5804TIP3    H139047   5.836   2.728   6.658 -0.8166 -0.6879  1.5462
 5804TIP3    H239048   5.688   2.741   6.631 -0.3293  0.0342 -1.1637
 5805TIP3   OH239049   0.717   2.299   7.551 -0.2329  0.6972 -0.3524
 5805TIP3    H139050   0.738   2.379   7.600  1.5037 -0.5411  1.0545
 5805TIP3    H239051   0.664   2.247   7.612 -0.2570  0.2337 -0.7601
 5806TIP3   OH239052   2.047   2.732   6.779 -0.0654  0.1550  0.6703
 5806TIP3    H139053   2.122   2.772   6.735 -0.3748 -0.7297 -0.7206
 5806TIP3    H239054   2.073   2.728   6.871  1.0428  1.0960  0.4237
 5807TIP3   OH239055   0.255   1.737   7.333 -0.6827  0.1261  0.3791
 5807TIP3    H139056   0.212   1.661   7.294 -0.5192 -0.8871  2.0569
 5807TIP3    H239057   0.188   1.776   7.390 -0.3407  0.3878  0.6055
 5808TIP3   OH239058   1.616   0.995   7.260 -0.1020 -0.5472  0.1576
 5808TIP3    H139059   1.670   1.074   7.255 -0.3827 -0.3880 -0.5436
 5808TIP3    H239060   1.678   0.926   7.282  0.2039 -0.1864  0.4512
 5809TIP3   OH239061   4.264   4.368   7.376  0.6495  0.5406  0.1302
 5809TIP3    H139062   4.294   4.344   7.289  2.5983  1.5976  0.4528
 5809TIP3    H239063   4.212   4.293   7.405 -1.7294  0.9365 -2.6343
 5810TIP3   OH239064   4.667   5.320   7.841 -0.2007 -1.0047  0.0690
 5810TIP3    H139065   4.574   5.304   7.826 -0.6915  1.7234 -0.3321
 5810TIP3    H239066   4.679   5.307   7.936 -1.2150 -0.4311  0.2817
 5811TIP3   OH239067   3.059   5.219   7.816  0.2605 -0.0393 -0.0806
 5811TIP3    H139068   3.097   5.240   7.731  0.1298  1.5100  0.2022
 5811TIP3    H239069   3.047   5.304   7.858  0.6613 -0.7923  1.6493
 5812TIP3   OH239070   2.282   0.177   6.841  1.0536  0.2200  0.6607
 5812TIP3    H139071   2.242   0.263   6.834  2.1078  0.6906  0.1344
 5812TIP3    H239072   2.318   0.159   6.754  0.1745 -1.1106  0.5342
 5813TIP3   OH239073   6.020   2.687   7.932 -0.6479  0.3263 -0.2588
 5813TIP3    H139074   5.930   2.666   7.955 -1.5936  2.8676 -1.2799
 5813TIP3    H239075   6.025   2.782   7.936  2.0470  0.2688 -0.1386
 5814TIP3   OH239076   6.788   1.065   0.641 -0.0494  0.6439  0.7589
 5814TIP3    H139077   6.846   1.003   0.596  2.5523  2.9948  0.6415
 5814TIP3    H239078   6.716   1.079   0.579  0.6155 -0.3086 -0.2824
 5815TIP3   OH239079   1.060   4.356   1.806 -0.7836 -0.3668  0.0665
 5815TIP3    H139080   0.984   4.326   1.756 -0.5594 -0.2743 -0.3318
 5815TIP3    H239081   1.105   4.275   1.831  0.3591 -0.3676 -1.8452
 5816TIP3   OH239082   2.889   4.722   7.127  0.2984 -0.2906  0.2440
 5816TIP3    H139083   2.908   4.766   7.210  0.0633 -2.8288  1.7767
 5816TIP3    H239084   2.793   4.718   7.124  0.1971  2.0099 -1.4883
 5817TIP3   OH239085   1.372   3.726   0.519  0.2852  0.3117 -0.4572
 5817TIP3    H139086   1.307   3.752   0.584 -0.3023 -0.5606 -0.6787
 5817TIP3    H239087   1.434   3.800   0.515 -1.9173  2.2254 -1.8909
 5818TIP3   OH239088   3.809   6.499   1.323 -0.9353 -0.2724  0.1934
 5818TIP3    H139089   3.765   6.554   1.388 -0.1868 -0.3118  0.7454
 5818TIP3    H239090   3.750   6.499   1.248 -2.5735 -1.4522  1.4007
 5819TIP3   OH239091   4.372   1.496   6.859  0.3803  0.1280  0.5969
 5819TIP3    H139092   4.456   1.457   6.836  0.6076  0.3941  0.9676
 5819TIP3    H239093   4.379   1.587   6.830  1.5393  1.1371  3.6769
 5820TIP3   OH239094   1.470   4.875   6.879 -0.2097  0.2984  0.0601
 5820TIP3    H139095   1.403   4.904   6.942 -0.5058  0.7843 -0.4624
 5820TIP3    H239096   1.479   4.949   6.820 -1.0703 -0.7103 -1.3955
 5821TIP3   OH239097   2.156   1.073   1.911  0.1974  0.1042 -0.5469
 5821TIP3    H139098   2.104   1.019   1.851 -1.7673  2.1102 -0.7934
 5821TIP3    H239099   2.245   1.067   1.877 -0.3442 -1.1911 -1.8653
 5822TIP3   OH239100   5.092   0.009   2.188  0.0967 -0.5858 -0.3932
 5822TIP3    H139101   5.155   0.008   2.116  0.0225 -2.5124 -0.4734
 5822TIP3    H239102   5.030  -0.061   2.167 -2.3972  1.4921 -0.5453
 5823TIP3   OH239103   3.434   6.180   2.038  0.0390 -0.3793  0.1663
 5823TIP3    H139104   3.382   6.257   2.015 -0.4686 -0.4656  0.9643
 5823TIP3    H239105   3.498   6.172   1.967 -1.2203 -0.4533 -1.0047
 5824TIP3   OH239106   2.006   4.343   8.294  0.2542 -0.0830  0.1829
 5824TIP3    H139107   2.044   4.284   8.359  0.0540  1.1923  1.5090
 5824TIP3    H239108   2.061   4.331   8.216  0.9766 -1.0951  0.8258
 5825TIP3   OH239109   1.103   5.668   8.098  0.1311 -0.1578 -0.3133
 5825TIP3    H139110   1.138   5.725   8.030  0.0560  0.0860 -0.1479
 5825TIP3    H239111   1.162   5.593   8.100  1.6848  1.0484  1.1687
 5826TIP3   OH239112   5.418   0.222   0.475 -0.4919 -0.6067 -0.5052
 5826TIP3    H139113   5.418   0.246   0.382 -2.3397  1.6363 -0.0309
 5826TIP3    H239114   5.327   0.198   0.493 -0.5406  0.5521  1.0290
 5827TIP3   OH239115   4.786   1.612   1.608 -0.0133 -0.3407  0.1434
 5827TIP3    H139116   4.726   1.686   1.610 -1.6962 -1.5367 -1.8695
 5827TIP3    H239117   4.834   1.622   1.526  0.6559 -0.8080  0.4661
 5828TIP3   OH239118   4.158   6.378   7.742  0.2425 -0.2237  0.3656
 5828TIP3    H139119   4.242   6.385   7.788  0.7369 -1.6611 -0.2374
 5828TIP3    H239120   4.176   6.318   7.669 -1.5807 -1.5449  0.9203
 5829TIP3   OH239121   0.331   5.480   7.421 -0.1311 -0.0977  0.2063
 5829TIP3    H139122   0.282   5.454   7.499 -0.3273 -0.9730 -0.1889
 5829TIP3    H239123   0.328   5.402   7.365  1.8635 -0.2510  0.2424
 5830TIP3   OH239124   5.609   4.264   6.998 -0.8771  0.1354  0.0013
 5830TIP3    H139125   5.613   4.240   6.906  0.8024 -0.2181  0.1332
 5830TIP3    H239126   5.640   4.355   7.001  1.7105 -0.6841  0.4471
 5831TIP3   OH239127   1.937   5.667   2.107  0.1636 -0.1094  0.0272
 5831TIP3    H139128   2.016   5.702   2.149 -0.0361 -0.2643  0.5396
 5831TIP3    H239129   1.949   5.687   2.014 -0.6447  2.7089  0.4330
 5832TIP3   OH239130   4.668   4.617   0.454 -0.8915  0.3076  0.3080
 5832TIP3    H139131   4.599   4.618   0.520 -1.5804  0.3660 -0.3917
 5832TIP3    H239132   4.748   4.595   0.502 -1.4544 -0.0858  1.0793
 5833TIP3   OH239133   5.042   3.144   0.259 -0.2917 -0.1113  0.0893
 5833TIP3    H139134   5.001   3.174   0.340 -0.6202 -1.6138  0.5062
 5833TIP3    H239135   5.064   3.053   0.276 -2.2500 -1.1051 -2.2021
 5834TIP3   OH239136   2.744   5.248   7.887  0.5068 -0.1778  0.1907
 5834TIP3    H139137   2.750   5.309   7.813  1.4364 -0.9279 -0.3786
 5834TIP3    H239138   2.803   5.177   7.864 -0.3033 -1.1453  0.9943
 5835TIP3   OH239139   6.720   3.881   7.948  0.3188  0.3121  0.0896
 5835TIP3    H139140   6.812   3.878   7.975  0.3201 -1.4745  0.0038
 5835TIP3    H239141   6.722   3.906   7.855  0.6212  1.4637  0.3931
 5836TIP3   OH239142   3.717   2.178   8.223  0.2822  0.2852 -0.2234
 5836TIP3    H139143   3.793   2.219   8.264  0.5708  1.3927 -1.7799
 5836TIP3    H239144   3.749   2.093   8.193 -0.0034 -0.6627  1.9809
 5837TIP3   OH239145   2.653   3.123   8.490 -0.1911 -0.3000 -0.1540
 5837TIP3    H139146   2.689   3.045   8.448  0.7217 -0.6029  1.1461
 5837TIP3    H239147   2.563   3.128   8.457  0.1507 -1.1340 -1.2795
 5838TIP3   OH239148   3.774   3.987   7.908  0.0046 -0.1742  0.0310
 5838TIP3    H139149   3.826   3.941   7.843  1.6887  1.3363  0.2346
 5838TIP3    H239150   3.684   3.959   7.891  0.7710 -2.4461 -0.6897
 5839TIP3   OH239151   6.249   6.845   0.009 -0.3514  0.8266 -0.3487
 5839TIP3    H139152   6.241   6.751   0.025  0.7960  1.1689  3.1797
 5839TIP3    H239153   6.167   6.882   0.041 -0.5455  1.1172 -1.1566
 5840TIP3   OH239154   4.566   1.950   7.236  0.1737 -0.2006 -0.1220
 5840TIP3    H139155   4.650   1.948   7.283  0.0023 -0.2996  0.1823
 5840TIP3    H239156   4.508   1.895   7.288 -0.3066  0.4921  0.0971
 5841TIP3   OH239157   0.323   3.062   1.530  0.3478  0.2329  0.5687
 5841TIP3    H139158   0.374   3.070   1.611 -0.7264  1.4446  1.1682
 5841TIP3    H239159   0.372   2.999   1.477  0.1685 -2.0037  2.8720
 5842TIP3   OH239160   3.546   2.274   1.052 -0.2105 -0.3154  0.0822
 5842TIP3    H139161   3.462   2.246   1.088 -0.1860 -1.9326 -1.0032
 5842TIP3    H239162   3.532   2.276   0.957  0.7243  0.2811 -0.0565
 5843TIP3   OH239163   5.382   5.339   8.115  0.4546 -0.4352 -0.0384
 5843TIP3    H139164   5.359   5.390   8.037  2.3898  1.1334  0.3338
 5843TIP3    H239165   5.308   5.352   8.175  0.4596  1.1551 -0.3355
 5844TIP3   OH239166   0.220   5.746   6.905  0.2464  0.7344 -0.6373
 5844TIP3    H139167   0.242   5.838   6.914  1.1740  0.4063  0.9697
 5844TIP3    H239168   0.282   5.701   6.962 -1.1337 -0.7518 -0.2184
 5845TIP3   OH239169   6.360   1.075   1.851  0.1308 -0.2762  0.2118
 5845TIP3    H139170   6.353   1.017   1.928 -0.7721 -0.0485  0.3179
 5845TIP3    H239171   6.277   1.123   1.851  0.2674 -0.0349 -0.7198
 5846TIP3   OH239172   3.814   2.138   0.696 -0.1043 -0.0285 -0.1468
 5846TIP3    H139173   3.878   2.208   0.712 -1.8167  1.7155 -0.5756
 5846TIP3    H239174   3.867   2.059   0.687  1.9353  1.2308  0.1602
 5847TIP3   OH239175   6.751   0.896   2.121 -0.0173  0.0114  0.0697
 5847TIP3    H139176   6.729   0.947   2.199  1.7285 -0.9054  1.1967
 5847TIP3    H239177   6.814   0.831   2.151 -0.0773 -1.0291 -1.9127
 5848TIP3   OH239178   3.151   6.022   0.820 -0.0737  0.6349  0.5273
 5848TIP3    H139179   3.065   5.982   0.828 -0.1746  1.0786  2.2577
 5848TIP3    H239180   3.205   5.956   0.778 -0.2752 -1.3466  3.1110
 5849TIP3   OH239181   5.179   3.382   7.907 -0.1310  0.6747 -1.1192
 5849TIP3    H139182   5.250   3.328   7.871 -0.6336 -0.0881 -0.9915
 5849TIP3    H239183   5.205   3.472   7.888  2.2701  0.6351  1.3505
 5850TIP3   OH239184   1.465   4.367   6.726 -0.3825  1.1811  0.2594
 5850TIP3    H139185   1.454   4.350   6.820 -1.1100 -1.0250 -0.1759
 5850TIP3    H239186   1.382   4.342   6.687  0.9481 -1.1922 -1.3239
 5851TIP3   OH239187   2.882   0.139   0.942  0.2734 -0.2372 -0.4425
 5851TIP3    H139188   2.891   0.046   0.919  0.1939 -0.6513  1.1331
 5851TIP3    H239189   2.965   0.178   0.913  1.6468 -1.4127  1.5953
 5852TIP3   OH239190   2.894   5.730   8.022  0.4302 -0.0250  0.5821
 5852TIP3    H139191   2.833   5.689   8.083 -0.5669  1.5461  0.6815
 5852TIP3    H239192   2.946   5.790   8.075  0.4775  0.3666  0.1030
 5853TIP3   OH239193   4.100   0.980   1.555 -0.0790 -0.3980 -0.5051
 5853TIP3    H139194   4.143   0.939   1.630  1.1351 -0.3364 -1.1415
 5853TIP3    H239195   4.161   1.049   1.528 -1.6730  1.2886  0.0098
 5854TIP3   OH239196   5.029   4.039   8.676  0.1522 -0.0855 -0.2310
 5854TIP3    H139197   5.082   3.965   8.706  1.5849  0.5939 -0.9874
 5854TIP3    H239198   5.010   4.019   8.584 -0.5124 -0.0925 -0.0969
 5855TIP3   OH239199   3.475   6.217   7.797  0.2882 -0.0642  0.2843
 5855TIP3    H139200   3.549   6.173   7.755 -0.3105  0.0587 -0.9461
 5855TIP3    H239201   3.398   6.184   7.751 -0.2442  1.5865 -0.0814
 5856TIP3   OH239202   2.524   0.561   1.237  0.0611  0.3917 -0.4577
 5856TIP3    H139203   2.454   0.627   1.234 -0.8375 -0.5394 -0.5987
 5856TIP3    H239204   2.605   0.612   1.235 -0.6016  1.5413  0.5101
 5857TIP3   OH239205   5.916   2.119   7.184 -0.4757  0.3041  0.3242
 5857TIP3    H139206   6.005   2.095   7.212  0.1904  0.7731 -1.2628
 5857TIP3    H239207   5.925   2.209   7.154 -0.6579 -0.6563 -3.0319
 5858TIP3   OH239208   1.083   5.522   0.167  0.2401 -0.1518 -0.3919
 5858TIP3    H139209   1.074   5.427   0.166 -1.7793 -0.0098 -0.5389
 5858TIP3    H239210   1.113   5.544   0.079  2.3790 -0.7126  0.1207
 5859TIP3   OH239211   3.407   5.819   7.118  0.5124 -0.0355 -0.0158
 5859TIP3    H139212   3.356   5.797   7.196  0.5345 -0.6451 -0.1687
 5859TIP3    H239213   3.381   5.908   7.096  1.1898  0.4914  1.2375
 5860TIP3   OH239214   4.611   2.144   1.073 -0.1846 -0.1847 -0.2942
 5860TIP3    H139215   4.670   2.168   1.001  2.1634  0.1754  1.6334
 5860TIP3    H239216   4.647   2.062   1.107 -0.6844  0.1105  1.0108
 5861TIP3   OH239217   3.228   3.204   2.309  0.5923  0.2190 -0.2625
 5861TIP3    H139218   3.145   3.236   2.273 -0.5621 -0.7647  1.3874
 5861TIP3    H239219   3.206   3.173   2.397  2.5374 -0.8907 -0.1091
 5862TIP3   OH239220   3.767   6.256   0.094 -0.3419 -0.2893  0.2792
 5862TIP3    H139221   3.796   6.232   0.007  0.6744  1.0113  0.2248
 5862TIP3    H239222   3.690   6.311   0.079  0.5650  0.9700  0.1114
 5863TIP3   OH239223   0.187   3.394   6.735 -0.1917  0.1051  0.4114
 5863TIP3    H139224   0.174   3.346   6.653 -3.4053 -0.1354  0.9245
 5863TIP3    H239225   0.219   3.480   6.708 -2.1764  0.4053 -1.2539
 5864TIP3   OH239226   5.306   1.269   7.938  0.0460  0.0312 -0.1649
 5864TIP3    H139227   5.331   1.215   8.013  0.0954 -0.0881 -0.2666
 5864TIP3    H239228   5.276   1.206   7.872  1.3310  0.0213 -0.7610
 5865TIP3   OH239229   0.294   1.810   6.381 -0.3908 -0.4231  0.5879
 5865TIP3    H139230   0.358   1.836   6.448  1.1544 -0.5998 -0.7644
 5865TIP3    H239231   0.249   1.891   6.358  1.1810  0.2586 -0.2758
 5866TIP3   OH239232   2.542   2.488   6.569 -0.1145  0.1121 -0.0416
 5866TIP3    H139233   2.510   2.571   6.534  0.9776  0.1771 -0.9648
 5866TIP3    H239234   2.463   2.439   6.590 -0.7829  1.4313  0.6817
 5867TIP3   OH239235   3.352   6.246   1.715 -0.0522 -0.0918 -0.6538
 5867TIP3    H139236   3.304   6.309   1.661 -0.4884 -0.4469 -0.6789
 5867TIP3    H239237   3.348   6.164   1.665 -2.0480 -0.9275  0.7429
 5868TIP3   OH239238   6.787   5.732   8.617 -0.0303 -0.1196  0.2106
 5868TIP3    H139239   6.753   5.677   8.686  3.1494 -1.8470  0.6089
 5868TIP3    H239240   6.794   5.675   8.541  1.2397  0.2777 -0.0142
 5869TIP3   OH239241   1.409   0.969   2.379 -0.1748  0.3834  0.2435
 5869TIP3    H139242   1.485   0.950   2.434  0.3190  1.4996 -0.0290
 5869TIP3    H239243   1.374   0.883   2.357  0.3668 -0.1191  1.2574
 5870TIP3   OH239244   1.444   4.575   8.673  0.1806  0.3687  0.1278
 5870TIP3    H139245   1.424   4.644   8.609 -0.1578 -0.1194 -0.3059
 5870TIP3    H239246   1.533   4.594   8.702  1.1166 -0.5186 -1.9654
 5871TIP3   OH239247   1.488   6.559   0.111 -0.2215  0.7626 -0.3292
 5871TIP3    H139248   1.507   6.552   0.017  1.3932 -0.3927  0.0328
 5871TIP3    H239249   1.571   6.589   0.149  0.1986 -1.9132  1.0812
 5872TIP3   OH239250   3.947   5.200   0.916 -0.7888  0.1732  0.1048
 5872TIP3    H139251   3.948   5.220   1.010  1.2459 -0.7103  0.3383
 5872TIP3    H239252   3.983   5.278   0.874  2.1366 -0.8326  0.5139
 5873TIP3   OH239253   4.026   6.518   8.376  0.8827 -0.4385 -0.2650
 5873TIP3    H139254   4.070   6.583   8.321  0.4239  0.9674  0.9760
 5873TIP3    H239255   3.941   6.503   8.334  0.5008  0.6881  0.0872
 5874TIP3   OH239256   3.708   5.932   6.178 -0.3298  0.3761 -0.2668
 5874TIP3    H139257   3.755   5.913   6.096  0.8733  1.6349  0.1083
 5874TIP3    H239258   3.631   5.980   6.150 -1.0273 -1.0002 -0.8179
 5875TIP3   OH239259   1.622   1.839   2.530 -0.2971  0.4122 -0.0160
 5875TIP3    H139260   1.571   1.912   2.566  0.8857  1.2109  0.0849
 5875TIP3    H239261   1.662   1.874   2.451  0.3052 -0.1219  0.0466
 5876TIP3   OH239262   3.225   3.187   7.056 -0.7920  0.0326 -0.3598
 5876TIP3    H139263   3.151   3.239   7.087 -0.8938 -1.0304  1.2680
 5876TIP3    H239264   3.218   3.104   7.104  2.0774  0.3044  0.6857
 5877TIP3   OH239265   4.008   4.887   6.545 -0.2891  0.5143 -0.3926
 5877TIP3    H139266   3.976   4.823   6.481 -1.2204 -1.0150  1.4691
 5877TIP3    H239267   4.085   4.845   6.583 -1.6874 -0.2267  1.8071
 5878TIP3   OH239268   6.844   0.289   6.837  0.1334 -0.1080 -0.1386
 5878TIP3    H139269   6.896   0.306   6.758  0.1636 -1.7740 -0.5193
 5878TIP3    H239270   6.909   0.277   6.906  0.1294  0.7298  0.0175
 5879TIP3   OH239271   3.275   3.461   1.967  0.0520  0.0140 -0.1020
 5879TIP3    H139272   3.282   3.539   1.912  0.0141 -0.8606 -1.3946
 5879TIP3    H239273   3.183   3.435   1.959 -0.4254  0.8979  1.8773
 5880TIP3   OH239274   4.041   0.779   0.523  0.2785  0.3828  0.5164
 5880TIP3    H139275   4.012   0.689   0.537  0.8200 -0.0307 -0.8988
 5880TIP3    H239276   4.128   0.771   0.485 -0.0210  1.4744 -0.4500
 5881TIP3   OH239277   0.559   6.028   8.218  0.0854 -0.2396 -0.5848
 5881TIP3    H139278   0.480   6.067   8.257  1.0223 -0.3045  1.5065
 5881TIP3    H239279   0.537   6.019   8.125 -1.9524  0.7695 -0.2762
 5882TIP3   OH239280   2.927   5.339   2.035  0.1953 -0.2684  0.0132
 5882TIP3    H139281   2.848   5.384   2.006  0.1665 -1.2659 -1.5269
 5882TIP3    H239282   2.924   5.346   2.131 -1.3842  0.3003 -0.0473
 5883TIP3   OH239283   1.646   3.115   1.668 -0.3550  0.5361 -0.6336
 5883TIP3    H139284   1.662   3.112   1.762  1.4494 -0.2379 -0.9260
 5883TIP3    H239285   1.552   3.132   1.660 -0.7228 -0.3321  1.2991
 5884TIP3   OH239286   2.573   3.602   2.170  0.1814  0.0841 -0.7798
 5884TIP3    H139287   2.646   3.542   2.152 -0.4525 -0.7128 -0.7789
 5884TIP3    H239288   2.613   3.677   2.214  0.8109 -1.0326  0.6475
 5885TIP3   OH239289   6.380   6.346   7.143 -0.1927  0.3093  0.1134
 5885TIP3    H139290   6.332   6.311   7.218 -0.9461  0.6632 -0.1859
 5885TIP3    H239291   6.314   6.396   7.094  0.2656  0.0241 -0.8196
 5886TIP3   OH239292   4.646   6.409   0.714  0.4940 -0.0587 -0.1931
 5886TIP3    H139293   4.639   6.354   0.636 -0.2619  0.3469 -0.4145
 5886TIP3    H239294   4.562   6.399   0.758  0.5928  0.4219  0.1076
 5887TIP3   OH239295   0.872   3.078   7.737  0.1475 -0.3158  0.1942
 5887TIP3    H139296   0.803   3.096   7.801 -0.3398 -1.1035 -0.0916
 5887TIP3    H239297   0.881   2.983   7.737  1.7593 -0.1840  0.7493
 5888TIP3   OH239298   2.913   4.092   7.387  0.1934  0.4206  1.0139
 5888TIP3    H139299   2.973   4.165   7.375 -0.9568  1.0925 -1.3055
 5888TIP3    H239300   2.834   4.119   7.341 -0.7601 -1.7340  1.2822
 5889TIP3   OH239301   1.478   4.011   7.267  0.6913  0.0804 -0.4074
 5889TIP3    H139302   1.415   4.057   7.323 -0.1480 -0.8635 -0.5656
 5889TIP3    H239303   1.439   4.013   7.180  0.0143 -2.0027 -0.2001
 5890TIP3   OH239304   0.410   6.863   1.945  0.3160 -0.6966 -0.4573
 5890TIP3    H139305   0.494   6.872   1.899  1.3732  0.8956  1.5940
 5890TIP3    H239306   0.386   6.952   1.968 -0.3652 -1.3737  1.6443
 5891TIP3   OH239307   2.393   5.666   1.273  0.2154  0.1176 -0.3556
 5891TIP3    H139308   2.385   5.571   1.270 -1.4616  0.1544  1.1920
 5891TIP3    H239309   2.483   5.684   1.247  0.8516 -1.9480  0.3033
 5892TIP3   OH239310   5.286   3.832   1.024 -0.5044 -0.3650 -0.0061
 5892TIP3    H139311   5.232   3.860   0.950 -0.8157  1.3102  0.8073
 5892TIP3    H239312   5.373   3.867   1.004 -0.5410 -0.0895  0.3044
 5893TIP3   OH239313   3.746   2.177   8.653  0.1035  0.2501 -0.1486
 5893TIP3    H139314   3.679   2.229   8.607 -0.1223  0.3759  0.3174
 5893TIP3    H239315   3.804   2.242   8.692  0.8930  0.1428 -1.1018
 5894TIP3   OH239316   5.620   6.408   1.245 -0.0066 -0.1503 -0.0519
 5894TIP3    H139317   5.545   6.355   1.272  0.7515 -1.2720 -0.1292
 5894TIP3    H239318   5.688   6.389   1.309  0.3996  0.4487 -0.2952
 5895TIP3   OH239319   5.397   1.459   0.785  0.7038 -0.1085  0.3123
 5895TIP3    H139320   5.399   1.391   0.852  0.7799 -1.2018 -0.7626
 5895TIP3    H239321   5.331   1.429   0.722  1.3589  0.3781 -0.6281
 5896TIP3   OH239322   2.778   4.752   8.088  0.0697  0.1092  0.6694
 5896TIP3    H139323   2.687   4.763   8.061  0.3907 -1.3655 -1.2417
 5896TIP3    H239324   2.800   4.833   8.134 -2.2797  0.3605  1.4718
 5897TIP3   OH239325   3.365   1.897   8.679 -0.5236  0.2445 -0.0795
 5897TIP3    H139326   3.370   1.946   8.762  2.0265 -0.3886  0.2381
 5897TIP3    H239327   3.417   1.949   8.618  1.2114 -1.3387 -0.0641
 5898TIP3   OH239328   5.914   6.252   8.335 -0.1312  0.1777 -0.7558
 5898TIP3    H139329   5.832   6.263   8.383  0.4648  0.8086  0.1574
 5898TIP3    H239330   5.955   6.175   8.375  1.6670  2.2751  1.7995
 5899TIP3   OH239331   0.911   1.753   1.658 -0.4093 -0.2820 -0.2957
 5899TIP3    H139332   0.845   1.725   1.722 -2.1373  1.3041 -1.2493
 5899TIP3    H239333   0.905   1.689   1.587 -2.7406  1.0639 -1.4559
 5900TIP3   OH239334   4.437   3.311   1.535  0.0133  0.1229  0.5782
 5900TIP3    H139335   4.400   3.228   1.506 -0.2025  0.1597  0.7505
 5900TIP3    H239336   4.414   3.318   1.627  0.3497  0.2021  0.6597
 5901TIP3   OH239337   0.664   5.738   7.836  0.5617 -0.9272  0.4515
 5901TIP3    H139338   0.725   5.739   7.910  1.2200 -1.1297 -0.0863
 5901TIP3    H239339   0.595   5.677   7.863  0.2815 -0.2572  1.2989
 5902TIP3   OH239340   2.722   1.717   1.274 -0.3900  0.2985 -0.4727
 5902TIP3    H139341   2.701   1.809   1.256 -1.6282  0.0684 -0.3052
 5902TIP3    H239342   2.757   1.684   1.192  1.3703  1.2438 -0.1688
 5903TIP3   OH239343   6.534   2.252   8.203  0.2500  0.0275  0.0683
 5903TIP3    H139344   6.495   2.322   8.152  0.3385 -0.9245 -1.3609
 5903TIP3    H239345   6.575   2.296   8.278 -0.9089  1.3307 -0.0390
 5904TIP3   OH239346   5.354   2.073   8.263  0.4006 -0.4118 -0.0056
 5904TIP3    H139347   5.397   1.994   8.228 -0.7911 -0.3492 -1.7620
 5904TIP3    H239348   5.300   2.104   8.190 -2.0181 -0.0584  1.8290
 5905TIP3   OH239349   6.659   0.249   8.507  0.2442 -0.0062 -0.3525
 5905TIP3    H139350   6.589   0.314   8.497 -0.3414 -0.2310  1.7768
 5905TIP3    H239351   6.740   0.298   8.494 -0.1722  1.3242  1.5935
 5906TIP3   OH239352   6.504   2.715   8.572  0.0042 -0.0593  0.0221
 5906TIP3    H139353   6.545   2.733   8.656 -0.4263  0.6429  0.0846
 5906TIP3    H239354   6.572   2.672   8.521  1.0925  1.7846 -0.1595
 5907TIP3   OH239355   1.654   2.848   7.133  0.5490 -0.0373 -0.3186
 5907TIP3    H139356   1.717   2.879   7.198  0.0384  1.6175 -0.5671
 5907TIP3    H239357   1.707   2.799   7.070  1.3423  0.0233  0.2833
 5908TIP3   OH239358   5.826   5.731   7.916  0.3157  0.4707  0.0498
 5908TIP3    H139359   5.825   5.820   7.949 -2.2260  0.1728  1.0049
 5908TIP3    H239360   5.786   5.679   7.986  0.9505 -1.2774 -0.8221
 5909TIP3   OH239361   2.097   0.983   6.029 -0.4370 -0.1895  0.2289
 5909TIP3    H139362   2.169   0.986   5.966 -0.3648  1.5599  0.3358
 5909TIP3    H239363   2.069   0.892   6.029 -0.1371 -0.3545 -1.9865
 5910TIP3   OH239364   0.531   6.318   0.568  1.0040  0.7173 -0.4814
 5910TIP3    H139365   0.599   6.377   0.537  1.4364  0.3091 -0.3147
 5910TIP3    H239366   0.487   6.367   0.638  0.2260  1.5124 -1.4999
 5911TIP3   OH239367   2.048   5.125   0.778  0.2314 -1.0763  0.3365
 5911TIP3    H139368   2.005   5.194   0.829 -0.3608 -0.9984 -0.2545
 5911TIP3    H239369   2.045   5.048   0.834  0.9287 -0.6292  1.0181
 5912TIP3   OH239370   0.070   4.188   8.161  0.3709  0.1515 -0.0793
 5912TIP3    H139371   0.082   4.189   8.256 -1.9893  0.2236  0.2749
 5912TIP3    H239372   0.048   4.279   8.139  1.7420  0.3282 -0.8693
 5913TIP3   OH239373   3.725   5.395   8.292 -0.3907 -0.7535 -0.6157
 5913TIP3    H139374   3.703   5.468   8.234 -0.3824  0.6967  1.1258
 5913TIP3    H239375   3.721   5.318   8.235 -0.5821  0.5553 -2.4786
 5914TIP3   OH239376   1.412   6.803   8.670 -0.5981 -0.6594  0.1508
 5914TIP3    H139377   1.477   6.747   8.713  0.3736 -0.7170 -1.3453
 5914TIP3    H239378   1.432   6.796   8.577 -0.8849  1.6450 -0.1322
 5915TIP3   OH239379   2.831   5.753   0.538 -0.3671  0.2918 -0.0540
 5915TIP3    H139380   2.766   5.685   0.553  1.3495 -1.1775  1.2129
 5915TIP3    H239381   2.906   5.706   0.500  0.9436  1.4153  1.0302
 5916TIP3   OH239382   4.623   1.761   0.163 -0.2155  0.5125 -0.0731
 5916TIP3    H139383   4.595   1.847   0.133 -0.6072  0.8125  1.1044
 5916TIP3    H239384   4.560   1.738   0.231 -0.7799 -1.2009 -1.1184
 5917TIP3   OH239385   4.495   2.440   0.047  0.4603  0.0595 -1.2266
 5917TIP3    H139386   4.504   2.446  -0.048 -0.2424 -0.7224 -1.3502
 5917TIP3    H239387   4.405   2.466   0.065  0.7876  0.8711 -0.6982
 5918TIP3   OH239388   6.152   4.700   0.131  0.2077  0.0258 -0.0203
 5918TIP3    H139389   6.246   4.680   0.131  0.3621  0.7213 -0.4559
 5918TIP3    H239390   6.119   4.658   0.052  0.5411  1.4705 -0.9615
 5919TIP3   OH239391   5.855   3.564   7.337  0.1578 -0.0260  0.1788
 5919TIP3    H139392   5.818   3.497   7.280  1.6188 -0.5852 -0.1671
 5919TIP3    H239393   5.831   3.537   7.426  0.1430 -0.6298 -0.0038
 5920TIP3   OH239394   2.318   1.415   1.863  0.0266  0.2928  0.4413
 5920TIP3    H139395   2.334   1.466   1.784  0.3835 -0.7006 -0.1509
 5920TIP3    H239396   2.355   1.329   1.844  0.3541  0.1074  1.7940
 5921TIP3   OH239397   2.075   6.356   0.021 -0.1312 -0.0287  0.1941
 5921TIP3    H139398   2.048   6.298  -0.050 -1.2070  1.0404 -0.3051
 5921TIP3    H239399   1.993   6.393   0.054  0.4501  0.3723  1.2255
 5922TIP3   OH239400   1.550   4.540   6.935 -0.2749 -0.1069 -0.4032
 5922TIP3    H139401   1.577   4.632   6.929  0.5324 -0.3413 -0.6076
 5922TIP3    H239402   1.456   4.541   6.921 -0.2830  0.6961 -0.3453
 5923TIP3   OH239403   6.676   0.942   1.349  0.1868 -0.3254  0.0446
 5923TIP3    H139404   6.709   0.912   1.264  1.0964 -0.7904  0.5384
 5923TIP3    H239405   6.752   0.934   1.408  0.0516  1.5350  0.5499
 5924TIP3   OH239406   5.038   5.500   1.464 -0.4123  0.4877 -0.1420
 5924TIP3    H139407   5.038   5.482   1.558 -1.2979  0.5957 -0.1155
 5924TIP3    H239408   4.969   5.565   1.452 -0.8493 -0.1173 -0.9867
 5925TIP3   OH239409   5.487   6.669   7.082  0.3689  0.4068 -0.4254
 5925TIP3    H139410   5.435   6.599   7.120  1.6087 -0.2795  0.0632
 5925TIP3    H239411   5.521   6.633   7.000  1.2849  0.2732 -0.0109
 5926TIP3   OH239412   5.132   5.231   6.774 -0.2711  0.1981 -0.1480
 5926TIP3    H139413   5.163   5.154   6.821 -0.2523  0.7499  0.7634
 5926TIP3    H239414   5.146   5.210   6.682 -0.6952 -1.0749  0.0510
 5927TIP3   OH239415   1.054   2.367   1.298  0.5661 -0.2084  0.0170
 5927TIP3    H139416   1.083   2.355   1.389 -2.1470  2.8335  1.5106
 5927TIP3    H239417   1.098   2.447   1.269 -0.2773  0.0863 -0.5000
 5928TIP3   OH239418   1.476   0.536   0.099  0.3359 -0.3424  0.1651
 5928TIP3    H139419   1.492   0.589   0.177 -1.1815  1.0867 -0.4384
 5928TIP3    H239420   1.563   0.514   0.067  1.1260  3.0127 -0.3431
 5929TIP3   OH239421   6.204   5.976   7.230  0.0799 -0.1345  0.0415
 5929TIP3    H139422   6.254   6.003   7.152 -0.9582 -1.0477 -0.9756
 5929TIP3    H239423   6.251   5.899   7.263  1.6131  1.3403  1.4860
 5930TIP3   OH239424   1.708   3.118   7.132  0.0561 -0.0185  0.4648
 5930TIP3    H139425   1.678   3.031   7.103  0.9531 -0.4303  0.7283
 5930TIP3    H239426   1.698   3.174   7.055  2.0863 -1.0162 -0.6106
 5931TIP3   OH239427   0.495   1.804   1.279  0.0184  0.2544  0.2723
 5931TIP3    H139428   0.491   1.718   1.319 -0.4073  0.5933  0.9711
 5931TIP3    H239429   0.562   1.851   1.328  1.1891 -0.0838 -0.9370
 5932TIP3   OH239430   1.957   5.867   6.101 -0.2558  0.8097 -0.2609
 5932TIP3    H139431   2.031   5.807   6.111 -1.5129 -1.0971 -1.6223
 5932TIP3    H239432   1.969   5.906   6.015  0.4897  2.5038  0.5708
 5933TIP3   OH239433   4.737   2.573   6.900 -0.1657  0.2334 -0.2272
 5933TIP3    H139434   4.655   2.534   6.930  0.5792 -1.3744 -0.1780
 5933TIP3    H239435   4.757   2.529   6.818 -0.6448  2.4884 -1.6648
 5934TIP3   OH239436   2.922   2.283   1.428 -0.2560 -0.0444  1.0864
 5934TIP3    H139437   2.837   2.262   1.467  0.1320 -0.4286  1.7344
 5934TIP3    H239438   2.907   2.367   1.384 -1.1904 -0.5040  0.4773
 5935TIP3   OH239439   1.025   0.413   0.355 -0.2581  0.3378 -0.5896
 5935TIP3    H139440   1.039   0.352   0.283  0.9710 -0.4513  0.2736
 5935TIP3    H239441   1.004   0.496   0.313 -2.1959 -0.7044 -1.7912
 5936TIP3   OH239442   5.384   4.706   1.197  0.5192 -0.0880  0.3976
 5936TIP3    H139443   5.407   4.798   1.215  1.7065  0.7693 -4.1032
 5936TIP3    H239444   5.460   4.672   1.150 -1.2911 -2.2163 -1.1803
 5937TIP3   OH239445   4.409   2.346   7.450 -0.6420 -0.2132 -0.3135
 5937TIP3    H139446   4.416   2.430   7.494 -0.8687 -0.7959  0.8702
 5937TIP3    H239447   4.469   2.352   7.375  1.6304 -0.0557  1.4290
 5938TIP3   OH239448   2.072   2.378   6.718  0.2043 -0.1701 -0.0086
 5938TIP3    H139449   2.142   2.428   6.676 -0.4286  0.8690  0.1624
 5938TIP3    H239450   2.105   2.288   6.718  1.2426  0.1888 -0.5563
 5939TIP3   OH239451   0.966   4.451   8.571 -0.2530 -0.3426 -0.3426
 5939TIP3    H139452   0.888   4.481   8.619  0.6401  0.1688  0.8391
 5939TIP3    H239453   0.960   4.356   8.573 -1.0028 -0.3055 -0.5343
 5940TIP3   OH239454   4.377   3.597   7.706  0.4902 -0.0367  0.2023
 5940TIP3    H139455   4.459   3.632   7.671 -0.2205  0.0700 -1.4728
 5940TIP3    H239456   4.310   3.633   7.648 -0.5454 -1.8070  0.2319
 5941TIP3   OH239457   6.629   0.626   7.872 -0.4229  0.2696 -0.4305
 5941TIP3    H139458   6.719   0.592   7.870 -0.7128 -0.6799  1.4106
 5941TIP3    H239459   6.586   0.583   7.797  0.5081  0.3512 -1.0310
 5942TIP3   OH239460   2.538   4.252   7.603 -1.0108 -0.2137  0.2703
 5942TIP3    H139461   2.596   4.228   7.675 -1.8393  0.7956  1.2974
 5942TIP3    H239462   2.594   4.301   7.542  0.0383 -2.2491 -0.5286
 5943TIP3   OH239463   0.986   4.150   8.379 -0.4392  0.0248  0.1278
 5943TIP3    H139464   0.916   4.179   8.438  0.1942 -1.5856  1.7657
 5943TIP3    H239465   0.952   4.168   8.291 -2.5906  0.0043  0.8901
 5944TIP3   OH239466   6.440   3.935   1.088  0.0705 -0.3540 -0.5156
 5944TIP3    H139467   6.381   3.862   1.101  1.4598 -1.3277  0.7445
 5944TIP3    H239468   6.383   4.011   1.074 -1.4638 -1.2295  0.7195
 5945TIP3   OH239469   0.378   2.726   0.603  0.5567 -0.3143 -1.0771
 5945TIP3    H139470   0.289   2.724   0.568 -0.1897 -0.7324  0.7050
 5945TIP3    H239471   0.433   2.748   0.528 -0.9802 -0.5878 -2.3491
 5946TIP3   OH239472   2.945   1.316   8.185 -0.3767 -0.0833  0.0528
 5946TIP3    H139473   2.976   1.324   8.095 -1.9747 -0.1678 -0.5368
 5946TIP3    H239474   3.012   1.360   8.238 -0.6628  2.3210 -1.4354
 5947TIP3   OH239475   0.971   3.444   7.899 -0.1863  0.3032  0.5806
 5947TIP3    H139476   0.906   3.468   7.966  0.1675  1.0328  0.6823
 5947TIP3    H239477   0.922   3.394   7.834 -0.9134  1.0528  0.5310
 5948TIP3   OH239478   3.570   3.599   6.344  0.8575 -0.0814  0.3083
 5948TIP3    H139479   3.627   3.672   6.367  1.4107 -0.3016 -0.3299
 5948TIP3    H239480   3.630   3.530   6.317  0.4208 -1.2366  2.0928
 5949TIP3   OH239481   2.110   3.207   6.330  0.2169 -0.1220  0.0784
 5949TIP3    H139482   2.160   3.173   6.404  1.6069  1.8781  0.1248
 5949TIP3    H239483   2.019   3.184   6.350  0.6861 -0.5495  1.8818
 5950TIP3   OH239484   1.755   0.375   1.630 -0.5843 -0.0479  0.0383
 5950TIP3    H139485   1.747   0.399   1.538 -0.1599  0.5068  0.1472
 5950TIP3    H239486   1.754   0.279   1.629  1.7665 -0.1244 -0.7685
 5951TIP3   OH239487   5.406   6.732   0.790  0.2876 -0.3382 -0.2251
 5951TIP3    H139488   5.343   6.751   0.720 -0.2676 -2.3790 -0.3494
 5951TIP3    H239489   5.439   6.645   0.769 -0.6879 -1.4971  2.6027
 5952TIP3   OH239490   4.769   5.576   2.491 -0.2366  0.7151  0.0916
 5952TIP3    H139491   4.826   5.596   2.417 -0.7669  1.6088 -0.0922
 5952TIP3    H239492   4.692   5.632   2.479  0.2504  1.9017  1.9982
 5953TIP3   OH239493   2.155   6.883   7.058  0.1558  0.5238 -0.6248
 5953TIP3    H139494   2.163   6.827   6.980  0.6482  2.8071 -2.3415
 5953TIP3    H239495   2.117   6.827   7.125 -1.2407 -1.3034 -2.8125
 5954TIP3   OH239496   5.543   0.613   1.877 -0.4205 -0.0435  0.1486
 5954TIP3    H139497   5.479   0.667   1.924 -0.3603  0.2393 -0.0915
 5954TIP3    H239498   5.550   0.534   1.930 -0.4856  0.1962  0.5241
 5955TIP3   OH239499   0.429   1.968   1.587  0.2279  0.0490  0.0648
 5955TIP3    H139500   0.356   1.944   1.644 -1.1832 -2.3305 -2.4642
 5955TIP3    H239501   0.441   2.062   1.601 -1.2869 -0.0575  2.7499
 5956TIP3   OH239502   1.779   4.951   0.524 -0.6351 -0.4463  0.2691
 5956TIP3    H139503   1.690   4.980   0.502 -0.2322  0.8774  0.3166
 5956TIP3    H239504   1.830   5.032   0.528  0.3933 -1.1207  1.0887
 5957TIP3   OH239505   3.191   2.977   1.239 -0.2790 -0.1144  0.2112
 5957TIP3    H139506   3.233   2.959   1.323  0.6667 -1.0985 -0.4426
 5957TIP3    H239507   3.219   2.905   1.182 -2.0425 -0.2547 -0.5523
 5958TIP3   OH239508   2.852   3.815   7.938 -0.1086 -0.1207  0.0976
 5958TIP3    H139509   2.830   3.746   8.000 -0.0129 -1.6866 -1.5248
 5958TIP3    H239510   2.948   3.815   7.935 -0.1079  0.0651  0.0819
 5959TIP3   OH239511   3.711   5.242   0.804 -0.2768  0.5623 -0.7647
 5959TIP3    H139512   3.742   5.189   0.731 -2.1878 -1.8112 -0.0041
 5959TIP3    H239513   3.778   5.232   0.872 -0.3546 -0.5155 -0.8230
 5960TIP3   OH239514   5.348   5.361   0.840  0.5179  0.0364  0.5579
 5960TIP3    H139515   5.356   5.266   0.852 -0.9999 -0.1328  0.5135
 5960TIP3    H239516   5.332   5.395   0.928 -3.7331 -0.3908  0.1791
 5961TIP3   OH239517   5.545   5.335   6.927  0.0237 -0.9324 -0.2087
 5961TIP3    H139518   5.624   5.370   6.968 -0.2771 -0.4562 -0.0285
 5961TIP3    H239519   5.487   5.315   7.001 -0.3110 -0.5764 -0.3741
 5962TIP3   OH239520   1.638   2.168   8.358 -0.2948 -0.0813  0.4769
 5962TIP3    H139521   1.688   2.090   8.380  2.3884  0.8505 -1.6648
 5962TIP3    H239522   1.617   2.157   8.265 -1.2677  1.0292  0.5465
 5963TIP3   OH239523   0.708   6.549   0.708 -0.1785  0.0220  0.7715
 5963TIP3    H139524   0.700   6.605   0.785  0.6447  2.9815 -1.1202
 5963TIP3    H239525   0.638   6.579   0.649  2.3521  1.6084 -1.6686
 5964TIP3   OH239526   1.331   4.865   0.523 -0.1039 -0.9167  0.7119
 5964TIP3    H139527   1.408   4.916   0.500 -0.5556 -0.0735  1.0280
 5964TIP3    H239528   1.256   4.922   0.503 -0.7283 -2.1930 -0.8113
 5965TIP3   OH239529   2.245   0.249   7.434 -0.0452 -0.0513 -0.0137
 5965TIP3    H139530   2.206   0.227   7.349  0.1420 -1.4707  0.2456
 5965TIP3    H239531   2.171   0.278   7.487 -0.2930  0.0313 -0.3958
 5966TIP3   OH239532   2.944   0.201   6.729 -0.1327 -0.0617  0.2138
 5966TIP3    H139533   2.964   0.110   6.707  0.3921  0.1309 -0.1363
 5966TIP3    H239534   2.900   0.235   6.652 -2.0662 -0.5354  1.0603
 5967TIP3   OH239535   0.101   0.880   0.558 -0.5363 -0.1790  0.3401
 5967TIP3    H139536   0.043   0.805   0.546 -0.4926 -0.0891 -0.4437
 5967TIP3    H239537   0.159   0.879   0.482  1.4579 -1.1038  1.7931
 5968TIP3   OH239538   3.315   1.925   7.288 -0.6991 -0.4893 -0.0177
 5968TIP3    H139539   3.375   1.862   7.327 -1.9253 -1.1311  0.8967
 5968TIP3    H239540   3.228   1.898   7.318 -1.4026  0.7695 -0.8067
 5969TIP3   OH239541   2.755   0.264   7.842  0.1360 -0.5107  0.4006
 5969TIP3    H139542   2.684   0.216   7.800  0.2122  0.1144 -0.4770
 5969TIP3    H239543   2.750   0.239   7.935 -1.7927  0.1915  0.5382
 5970TIP3   OH239544   5.174   5.899   0.837  0.1446  0.4567  0.0811
 5970TIP3    H139545   5.103   5.897   0.773 -0.2388 -1.5182  0.5134
 5970TIP3    H239546   5.201   5.991   0.839 -1.6605  1.0652 -0.8837
 5971TIP3   OH239547   0.654   2.971   1.049 -0.0835  0.3619  0.0094
 5971TIP3    H139548   0.642   2.988   1.143  0.2226 -1.7702  0.5009
 5971TIP3    H239549   0.594   3.032   1.006 -2.1225 -0.2829  1.7225
 5972TIP3   OH239550   4.772   0.878   1.376 -1.0466 -0.4640  0.5349
 5972TIP3    H139551   4.704   0.943   1.392 -0.4870 -0.3069  2.6201
 5972TIP3    H239552   4.843   0.928   1.335 -1.6984 -0.3910 -0.5546
 5973TIP3   OH239553   5.188   1.325   1.521 -0.3026 -0.0425  0.1617
 5973TIP3    H139554   5.115   1.374   1.559  0.4453  0.0370  1.5802
 5973TIP3    H239555   5.197   1.358   1.432 -1.6701  0.3002  0.1406
 5974TIP3   OH239556   3.032   2.019   7.567  0.7843 -0.1327 -0.1449
 5974TIP3    H139557   2.977   2.097   7.571  1.7735  0.6032 -0.2595
 5974TIP3    H239558   3.036   1.988   7.657 -2.3074 -2.0630 -0.5489
 5975TIP3   OH239559   0.654   0.438   2.104  0.1811  0.1147  0.7578
 5975TIP3    H139560   0.637   0.529   2.081 -2.5581 -0.4527  0.2055
 5975TIP3    H239561   0.655   0.391   2.020 -1.0395 -0.7100  1.1795
 5976TIP3   OH239562   4.189   3.795   0.374 -0.1579  0.8888 -0.5007
 5976TIP3    H139563   4.196   3.773   0.281 -0.5028  0.9381 -0.5406
 5976TIP3    H239564   4.117   3.859   0.378 -0.0175  1.0304 -0.2263
 5977TIP3   OH239565   4.553   4.456   6.901  0.5817 -0.2778 -0.1029
 5977TIP3    H139566   4.629   4.405   6.930  1.4495  1.4345  0.7933
 5977TIP3    H239567   4.589   4.518   6.837 -0.5329 -1.0534 -1.5408
 5978TIP3   OH239568   6.792   6.102   7.267  0.2975  0.1496  0.3338
 5978TIP3    H139569   6.756   6.191   7.270  0.8782  0.4500 -0.8914
 5978TIP3    H239570   6.849   6.096   7.343 -1.0166  0.2440  1.3534
 5979TIP3   OH239571   3.664   5.718   7.053  0.2512 -0.1335 -0.3325
 5979TIP3    H139572   3.574   5.751   7.061 -0.3075 -1.8335  1.2369
 5979TIP3    H239573   3.667   5.679   6.966 -0.6105 -0.2419 -0.3268
 5980TIP3   OH239574   5.254   6.095   1.564 -0.1529  0.1908 -0.1472
 5980TIP3    H139575   5.216   6.144   1.638  0.1077 -1.1337  0.9060
 5980TIP3    H239576   5.185   6.035   1.537 -0.3568  0.8755 -1.2190
 5981TIP3   OH239577   2.954   6.269   0.854 -0.2556  0.2502  0.2450
 5981TIP3    H139578   2.864   6.260   0.886 -0.3043  0.8351  0.2890
 5981TIP3    H239579   3.003   6.199   0.898 -0.8611 -0.6230 -0.4462
 5982TIP3   OH239580   4.323   3.635   0.913  0.5392  0.0965 -0.5690
 5982TIP3    H139581   4.342   3.553   0.958 -0.6601  0.7978  1.3607
 5982TIP3    H239582   4.308   3.698   0.984  1.1970  1.9424 -1.9799
 5983TIP3   OH239583   5.927   1.449   1.695  0.1865 -0.1673  0.3191
 5983TIP3    H139584   6.021   1.469   1.694  0.7254 -2.2369 -2.5434
 5983TIP3    H239585   5.922   1.366   1.744 -0.0447 -0.4315 -0.1521
 5984TIP3   OH239586   4.659   6.069   1.171 -0.1731 -0.0133 -0.0507
 5984TIP3    H139587   4.631   6.068   1.262 -1.2948 -1.6989 -0.3816
 5984TIP3    H239588   4.694   6.157   1.158  0.4648  0.1109  2.1255
 5985TIP3   OH239589   1.935   2.466   0.349 -0.5130  0.4363  1.0316
 5985TIP3    H139590   1.887   2.542   0.382 -1.6227  0.2855 -0.1622
 5985TIP3    H239591   2.027   2.489   0.360 -0.8335  1.3224  2.0743
 5986TIP3   OH239592   1.331   4.567   0.471 -0.4922  0.0907  0.1701
 5986TIP3    H139593   1.328   4.659   0.498 -0.8363  0.2974 -0.5612
 5986TIP3    H239594   1.406   4.561   0.413  1.4083 -0.7528  2.5392
 5987TIP3   OH239595   4.899   0.257   7.663 -0.2322 -0.1310 -0.1620
 5987TIP3    H139596   4.900   0.272   7.569 -0.3545  0.5825 -0.0520
 5987TIP3    H239597   4.867   0.339   7.701 -1.5113 -0.8603  0.4107
 5988TIP3   OH239598   1.199   6.398   1.238  0.5311  0.1092 -0.3640
 5988TIP3    H139599   1.183   6.310   1.206  1.5524 -0.7160  1.2705
 5988TIP3    H239600   1.288   6.396   1.271  0.3555  1.5754  0.2890
 5989TIP3   OH239601   3.848   0.916   7.292  0.4177 -0.1785 -0.0409
 5989TIP3    H139602   3.908   0.858   7.245 -0.5058 -1.9850  0.8550
 5989TIP3    H239603   3.875   0.908   7.384 -0.2014  0.2237  0.1786
 5990TIP3   OH239604   5.062   6.742   1.650 -0.1154  0.6091 -0.3583
 5990TIP3    H139605   5.020   6.664   1.687  0.2356  0.7830  0.4370
 5990TIP3    H239606   5.057   6.729   1.555  1.5100 -1.2690 -0.2714
 5991TIP3   OH239607   3.551   4.782   6.532 -0.3951 -0.3324 -0.1116
 5991TIP3    H139608   3.596   4.831   6.601 -0.6728  0.8687 -0.7693
 5991TIP3    H239609   3.524   4.848   6.468  0.4513 -1.4630 -1.7255
 5992TIP3   OH239610   5.085   2.956   0.533  0.2886  0.4254 -0.2997
 5992TIP3    H139611   5.113   2.905   0.457 -0.3819 -2.2538  1.1495
 5992TIP3    H239612   4.990   2.941   0.538 -0.2975  3.3160 -0.7895
 5993TIP3   OH239613   4.567   4.103   6.193  0.5427 -0.2347 -0.7821
 5993TIP3    H139614   4.479   4.079   6.166 -0.0889  1.3310 -0.2429
 5993TIP3    H239615   4.581   4.054   6.274 -0.1171  0.0125 -0.5077
 5994TIP3   OH239616   2.725   3.584   1.313 -0.2012 -0.6379  0.4268
 5994TIP3    H139617   2.672   3.517   1.357 -3.7693  0.7183 -1.3752
 5994TIP3    H239618   2.805   3.590   1.365 -1.2745 -3.7195  2.7141
 5995TIP3   OH239619   5.522   1.876   7.197  0.3589 -0.1529 -0.1820
 5995TIP3    H139620   5.552   1.890   7.107 -1.0117 -0.7360 -0.7669
 5995TIP3    H239621   5.494   1.962   7.227 -1.2914 -0.3157 -1.1547
 5996TIP3   OH239622   3.159   2.540   7.097  0.3090 -0.4386  0.1940
 5996TIP3    H139623   3.075   2.552   7.141 -0.2457 -0.8374 -0.7317
 5996TIP3    H239624   3.162   2.447   7.077  0.4602 -0.2341 -0.7732
 5997TIP3   OH239625   3.268   4.575   8.367  0.2413 -0.0853  0.0553
 5997TIP3    H139626   3.277   4.555   8.460 -1.2160 -2.1451 -0.1817
 5997TIP3    H239627   3.179   4.609   8.359  0.0154 -0.8477 -0.7192
 5998TIP3   OH239628   0.538   0.562   7.034 -0.2332  0.1980 -0.2848
 5998TIP3    H139629   0.594   0.581   7.109 -2.2594 -0.8865  1.6284
 5998TIP3    H239630   0.588   0.591   6.958  3.2637 -1.4150  1.1694
 5999TIP3   OH239631   6.534   6.070   7.376  0.2229 -0.3441  0.2072
 5999TIP3    H139632   6.541   6.163   7.401 -1.7323  0.7918 -2.8850
 5999TIP3    H239633   6.596   6.061   7.304 -0.8817 -0.9445 -0.6829
 6000TIP3   OH239634   4.131   6.888   7.148  0.1541 -0.0120 -0.4252
 6000TIP3    H139635   4.069   6.952   7.184 -1.3942 -0.8413 -1.4918
 6000TIP3    H239636   4.124   6.812   7.206  1.6963  0.5896  0.6082
 6001TIP3   OH239637   4.070   5.243   6.722 -0.0974 -0.3881  0.5695
 6001TIP3    H139638   4.143   5.195   6.763  2.3660  3.4795  1.2264
 6001TIP3    H239639   4.105   5.274   6.639 -2.0940 -0.8659 -0.5051
 6002TIP3   OH239640   4.051   2.246   2.526 -0.0228 -0.1655  0.0769
 6002TIP3    H139641   4.116   2.300   2.571 -3.5482  4.7003  0.0737
 6002TIP3    H239642   4.091   2.225   2.442  2.5959 -0.1244  1.2042
 6003TIP3   OH239643   3.429   6.588   8.187  0.6496 -0.7285 -0.6052
 6003TIP3    H139644   3.420   6.536   8.108  1.0856 -0.3430 -0.9154
 6003TIP3    H239645   3.515   6.630   8.179  1.0550 -1.2982  0.4390
 6004TIP3   OH239646   1.800   0.504   0.794  0.1130 -0.0246 -0.3390
 6004TIP3    H139647   1.839   0.589   0.776  0.2474  0.7132  2.9380
 6004TIP3    H239648   1.723   0.523   0.847 -0.7958 -1.8877 -0.9026
 6005TIP3   OH239649   0.199   4.202   8.488  0.2336  0.1506 -0.0931
 6005TIP3    H139650   0.194   4.290   8.526 -0.3079  0.1609 -0.1800
 6005TIP3    H239651   0.276   4.205   8.431 -0.4627  0.9543 -1.0378
 6006TIP3   OH239652   5.622   2.931   0.031 -0.0577 -0.3495  0.1504
 6006TIP3    H139653   5.714   2.933   0.005  1.3477 -1.5414  4.2934
 6006TIP3    H239654   5.574   2.941  -0.052  3.7022  1.2868 -2.1039
 6007TIP3   OH239655   0.761   2.136   0.678  0.1815 -0.5681  0.3351
 6007TIP3    H139656   0.747   2.202   0.746  0.7299 -1.2252  1.1013
 6007TIP3    H239657   0.725   2.055   0.715 -0.7367 -0.6716 -0.7053
 6008TIP3   OH239658   3.265   5.673   0.241  0.1158 -1.2459  0.4291
 6008TIP3    H139659   3.210   5.599   0.217 -1.0407 -0.6259  1.0822
 6008TIP3    H239660   3.351   5.652   0.204 -0.6745 -1.9922 -1.0809
 6009TIP3   OH239661   0.726   4.621   7.313 -0.0871  0.0962 -0.3030
 6009TIP3    H139662   0.654   4.615   7.375  1.1381 -0.8147  1.0752
 6009TIP3    H239663   0.713   4.546   7.254 -0.0610 -0.2684  0.1562
 6010TIP3   OH239664   1.323   0.426   7.014  0.2208  0.0973 -0.1082
 6010TIP3    H139665   1.258   0.493   6.990  0.9968  1.0948  0.4660
 6010TIP3    H239666   1.273   0.362   7.065 -0.3944  0.6830  0.0534
 6011TIP3   OH239667   6.488   1.989   0.233 -0.5337  0.2409  0.0078
 6011TIP3    H139668   6.396   1.967   0.251 -0.7875 -0.2636 -1.7226
 6011TIP3    H239669   6.506   1.948   0.148  1.4863 -0.1796  0.5960
 6012TIP3   OH239670   0.158   2.886   6.118  0.1420  0.1853 -0.0197
 6012TIP3    H139671   0.244   2.928   6.118  0.9644 -1.3819 -1.2730
 6012TIP3    H239672   0.156   2.837   6.200  0.6232 -0.0830 -0.1613
 6013TIP3   OH239673   4.207   3.126   7.926  0.3017  0.1512  0.1497
 6013TIP3    H139674   4.302   3.112   7.923  0.2947 -0.1101  0.9359
 6013TIP3    H239675   4.190   3.191   7.859  0.9697 -0.2090 -0.3796
 6014TIP3   OH239676   0.831   2.840   8.006  0.3156  0.2176  0.1252
 6014TIP3    H139677   0.765   2.800   7.949  0.8097  0.3292 -0.5311
 6014TIP3    H239678   0.915   2.817   7.966  0.7400 -0.7853  1.5045
 6015TIP3   OH239679   1.004   1.087   6.886  0.2453 -0.1981  0.3491
 6015TIP3    H139680   0.989   1.156   6.951  0.4550 -0.2369  0.4411
 6015TIP3    H239681   0.970   1.008   6.927  0.4459 -0.2360  0.4430
 6016TIP3   OH239682   0.975   3.675   7.334 -0.0525 -0.1551  0.2386
 6016TIP3    H139683   0.963   3.687   7.428 -2.4957 -3.1700  0.4577
 6016TIP3    H239684   1.016   3.590   7.325 -0.6292 -0.3057 -1.4204
 6017TIP3   OH239685   1.772   0.382   7.402 -0.7048 -0.1183 -0.5158
 6017TIP3    H139686   1.701   0.445   7.389 -2.0423 -1.1037  1.5715
 6017TIP3    H239687   1.736   0.298   7.374  0.3248 -0.3341 -1.2527
 6018TIP3   OH239688   4.125   2.097   6.601 -0.0312 -0.2656  0.3365
 6018TIP3    H139689   4.053   2.133   6.653  0.0998  0.4276  0.0486
 6018TIP3    H239690   4.084   2.028   6.549 -0.4703  0.0444  0.2605
 6019TIP3   OH239691   5.634   2.907   7.465  0.4979 -0.2363 -0.0120
 6019TIP3    H139692   5.554   2.915   7.517 -0.8600  0.4621 -2.0955
 6019TIP3    H239693   5.603   2.881   7.378  2.7312 -2.0362 -0.3587
 6020TIP3   OH239694   3.653   0.827   1.768  0.2256 -0.3495  0.2692
 6020TIP3    H139695   3.616   0.855   1.684  2.4174  2.4912  0.0820
 6020TIP3    H239696   3.644   0.905   1.824  0.9853 -1.3907  1.8962
 6021TIP3   OH239697   0.317   2.496   7.407  0.3648  0.0702 -0.1801
 6021TIP3    H139698   0.330   2.503   7.502  0.7824 -1.7333 -0.0763
 6021TIP3    H239699   0.383   2.555   7.370 -1.1751  2.4496  0.6352
 6022TIP3   OH239700   2.090   5.220   7.036 -0.2264  0.0517 -0.1418
 6022TIP3    H139701   2.033   5.279   6.987  1.0058  1.4262  0.0356
 6022TIP3    H239702   2.106   5.265   7.119  0.7056 -0.5477  0.0140
 6023TIP3   OH239703   3.253   0.724   6.998  0.2592  0.3549 -0.1700
 6023TIP3    H139704   3.296   0.774   6.929  2.2546  0.9605  1.4319
 6023TIP3    H239705   3.291   0.636   6.991  1.3005  0.7075  0.8085
 6024TIP3   OH239706   5.940   6.568   6.961  0.1045 -0.0104  0.0812
 6024TIP3    H139707   5.965   6.649   7.006 -0.6944  0.6634 -0.6337
 6024TIP3    H239708   6.017   6.511   6.970  0.7396  0.8730  0.4855
 6025TIP3   OH239709   2.923   3.103   0.285 -0.0974 -0.3130 -0.0274
 6025TIP3    H139710   2.880   3.181   0.321  1.1933  0.0833  0.7163
 6025TIP3    H239711   2.867   3.077   0.212 -1.4688  0.3035  0.7691
 6026TIP3   OH239712   4.350   1.665   8.687 -0.1846  0.5043 -0.3799
 6026TIP3    H139713   4.437   1.652   8.651  0.1170 -0.3747  0.6271
 6026TIP3    H239714   4.355   1.751   8.730 -0.0755  0.8304 -1.0267
 6027TIP3   OH239715   6.139   1.082   0.668  0.1667 -0.4166  0.2959
 6027TIP3    H139716   6.106   1.130   0.744 -0.2040  2.5914 -1.6356
 6027TIP3    H239717   6.208   1.137   0.632  0.5925 -1.9554 -1.3991
 6028TIP3   OH239718   2.269   0.437   8.255  0.9157  0.2273 -0.1648
 6028TIP3    H139719   2.188   0.436   8.307 -0.8771 -1.9957 -2.7139
 6028TIP3    H239720   2.331   0.385   8.306  0.0007  0.0806  0.8413
 6029TIP3   OH239721   4.255   2.990   6.666 -0.0290 -0.2561 -0.5080
 6029TIP3    H139722   4.273   3.077   6.699  0.0368  0.3389 -2.0274
 6029TIP3    H239723   4.229   2.939   6.743 -1.8670  1.5717  0.1398
 6030TIP3   OH239724   1.436   5.937   7.370 -0.5350 -0.0002  0.2031
 6030TIP3    H139725   1.501   5.914   7.437  0.4614  0.0532 -0.7316
 6030TIP3    H239726   1.404   6.023   7.397 -1.1994 -0.5874  1.3874
 6031TIP3   OH239727   2.183   6.861   0.562  0.4123 -0.3102 -0.3060
 6031TIP3    H139728   2.161   6.951   0.537  0.3724  0.0007  0.7779
 6031TIP3    H239729   2.134   6.847   0.643  0.2266 -1.4044 -0.5976
 6032TIP3   OH239730   6.241   5.863   0.085  0.0260 -0.3077  0.4827
 6032TIP3    H139731   6.267   5.875  -0.006 -1.3295  2.6112  0.3728
 6032TIP3    H239732   6.209   5.772   0.089  1.1617 -0.8678 -1.6197
 6033TIP3   OH239733   3.668   4.622   7.248 -0.8375 -0.0811  0.8361
 6033TIP3    H139734   3.622   4.634   7.165  0.3858  3.3775  0.4867
 6033TIP3    H239735   3.602   4.644   7.314 -0.9903  0.1817  0.6015
 6034TIP3   OH239736   1.074   2.161   0.644  0.9846 -0.2195 -0.1368
 6034TIP3    H139737   1.070   2.115   0.560  1.5492 -0.0367 -0.2678
 6034TIP3    H239738   0.983   2.163   0.675 -0.1981  3.9653 -3.0583
 6035TIP3   OH239739   1.542   4.997   1.542 -0.1178 -0.0881 -0.0067
 6035TIP3    H139740   1.538   4.923   1.603  0.1236 -0.1356 -0.0492
 6035TIP3    H239741   1.516   4.961   1.458  1.1824 -0.4061 -0.2892
 6036TIP3   OH239742   2.449   0.532   6.803 -0.3265 -0.5065  0.0600
 6036TIP3    H139743   2.373   0.547   6.746 -0.0460 -0.6746 -0.3627
 6036TIP3    H239744   2.488   0.452   6.770 -1.2684 -1.7121  1.7172
 6037TIP3   OH239745   6.068   0.446   8.576  0.2924  0.2361 -0.3380
 6037TIP3    H139746   6.114   0.515   8.528  0.1312 -0.3314 -1.3133
 6037TIP3    H239747   6.012   0.494   8.637  0.0087  0.9832 -1.1711
 6038TIP3   OH239748   5.252   0.980   1.777  0.0905  0.4146 -0.2330
 6038TIP3    H139749   5.242   1.004   1.869 -0.2427  0.4620 -0.2800
 6038TIP3    H239750   5.318   1.040   1.743  0.1406  0.4632 -0.0526
 6039TIP3   OH239751   2.470   5.079   0.119  0.6049 -0.0654  0.8957
 6039TIP3    H139752   2.537   5.011   0.129  1.3239  0.2186 -1.4862
 6039TIP3    H239753   2.471   5.101   0.026 -1.3614  1.4545  1.1632
 6040TIP3   OH239754   3.950   3.049   0.345 -0.2542  0.0656  0.1524
 6040TIP3    H139755   3.969   3.142   0.357  0.1027  0.2460 -1.4994
 6040TIP3    H239756   4.025   3.015   0.295 -0.5023 -1.0498  0.5059
 6041TIP3   OH239757   0.734   3.733   7.193  0.4287  0.2228  0.5034
 6041TIP3    H139758   0.646   3.715   7.227  0.9069 -1.3738  1.0219
 6041TIP3    H239759   0.792   3.717   7.268  1.3671 -1.6544 -0.5436
 6042TIP3   OH239760   4.903   2.951   8.625 -0.0113 -0.1989 -0.4740
 6042TIP3    H139761   4.904   2.943   8.530  1.9183 -4.1065 -0.3389
 6042TIP3    H239762   4.996   2.949   8.650 -0.4816  0.5903  1.5147
 6043TIP3   OH239763   1.161   5.709   1.303  0.2151  0.1718  0.2496
 6043TIP3    H139764   1.160   5.796   1.344  0.3082  0.0786  0.4548
 6043TIP3    H239765   1.221   5.718   1.229  0.3498  0.2432  0.3655
 6044TIP3   OH239766   0.690   6.128   6.667 -0.6358 -0.2262 -0.0686
 6044TIP3    H139767   0.703   6.195   6.733  0.2006 -1.8995  1.5814
 6044TIP3    H239768   0.647   6.173   6.595 -1.1108  1.8037  1.3853
 6045TIP3   OH239769   3.010   6.824   6.654  0.6805 -0.1228  0.3682
 6045TIP3    H139770   3.040   6.734   6.669 -0.0068 -0.2042  1.4243
 6045TIP3    H239771   2.960   6.819   6.572 -0.0166 -0.8934  0.8204
 6046TIP3   OH239772   1.609   2.791   0.899 -0.3115  0.6602 -0.1908
 6046TIP3    H139773   1.579   2.718   0.845  1.3779  1.3322 -2.1759
 6046TIP3    H239774   1.538   2.806   0.961 -1.6278 -1.2521 -1.1398
 6047TIP3   OH239775   5.762   2.309   1.164  0.1585  0.5190  0.0071
 6047TIP3    H139776   5.723   2.395   1.153 -1.3932 -0.1497  0.0441
 6047TIP3    H239777   5.819   2.318   1.241  1.2891  1.8978 -0.9390
 6048TIP3   OH239778   6.582   6.225   8.066  0.9416 -0.1636 -0.1001
 6048TIP3    H139779   6.596   6.134   8.092  2.6818  0.5767  1.8688
 6048TIP3    H239780   6.488   6.232   8.049  0.7412 -2.2424 -0.0315
 6049TIP3   OH239781   6.734   3.775   6.606 -0.8191 -0.1940  0.0801
 6049TIP3    H139782   6.812   3.728   6.577  0.0493  0.8289  0.6813
 6049TIP3    H239783   6.697   3.810   6.526 -2.1309 -2.7594 -0.5393
 6050TIP3   OH239784   0.655   4.709   0.372 -0.0187  0.2309  0.7088
 6050TIP3    H139785   0.715   4.638   0.348 -0.1208  0.6124 -0.7060
 6050TIP3    H239786   0.635   4.692   0.465  1.1469 -0.7119  0.8124
 6051TIP3   OH239787   5.235   2.122   1.750  0.7697  0.1893 -0.9548
 6051TIP3    H139788   5.311   2.122   1.692  1.9459  0.0974  0.5506
 6051TIP3    H239789   5.271   2.134   1.838 -1.0405  1.1967 -0.3027
 6052TIP3   OH239790   0.976   1.398   0.733 -0.4398  0.4192 -0.0631
 6052TIP3    H139791   0.935   1.467   0.682 -2.5705 -0.1290  0.8245
 6052TIP3    H239792   1.047   1.441   0.781  0.4475  1.2801 -2.0360
 6053TIP3   OH239793   0.300   3.058   7.144  0.3244 -0.0708 -0.4759
 6053TIP3    H139794   0.276   2.965   7.153  1.2998 -0.4935 -1.9045
 6053TIP3    H239795   0.395   3.058   7.147  0.3471  1.2375  2.1150
 6054TIP3   OH239796   5.526   2.173   0.248 -0.6485  0.0661  0.5148
 6054TIP3    H139797   5.534   2.268   0.238  0.2691  0.4398  3.5891
 6054TIP3    H239798   5.617   2.142   0.258 -0.8294 -1.3829 -1.6958
 6055TIP3   OH239799   3.207   0.613   7.488  0.5929 -0.0652 -0.1941
 6055TIP3    H139800   3.195   0.520   7.471  1.5974 -0.1395 -0.5754
 6055TIP3    H239801   3.127   0.640   7.533 -0.3784 -0.7758 -1.4189
 6056TIP3   OH239802   5.281   2.060   0.881  0.3928  0.1561 -0.3300
 6056TIP3    H139803   5.267   1.967   0.863  0.5963  0.0669 -0.0278
 6056TIP3    H239804   5.371   2.077   0.852 -0.7218  1.0816 -3.7289
 6057TIP3   OH239805   2.031   4.161   0.057  0.1257  0.0607  0.1596
 6057TIP3    H139806   1.961   4.178   0.119 -0.7538  1.3268 -1.1031
 6057TIP3    H239807   2.086   4.095   0.099 -1.7231 -0.8449  1.2512
 6058TIP3   OH239808   3.458   4.838   8.490 -0.4822 -0.2638 -0.5352
 6058TIP3    H139809   3.363   4.848   8.484 -0.2450  1.2819 -2.9132
 6058TIP3    H239810   3.488   4.917   8.535 -0.3806 -1.7892  2.3806
 6059TIP3   OH239811   1.941   0.445   0.222  0.1629 -0.4718 -0.0157
 6059TIP3    H139812   1.929   0.356   0.254 -0.6161 -0.2675  0.2768
 6059TIP3    H239813   1.927   0.501   0.298  0.3710 -0.0803 -0.2566
 6060TIP3   OH239814   4.720   0.061   1.471 -0.1275  0.4704 -0.0235
 6060TIP3    H139815   4.767   0.015   1.401 -0.8770 -1.3064  0.5635
 6060TIP3    H239816   4.645   0.101   1.428 -0.7648 -0.8837 -0.2355
 6061TIP3   OH239817   3.928   0.831   0.132  0.0523 -0.5303  0.6004
 6061TIP3    H139818   3.901   0.851   0.222  0.2898 -0.3572  0.6324
 6061TIP3    H239819   3.846   0.832   0.082 -0.0185 -0.1006  0.7183
 6062TIP3   OH239820   4.908   4.525   0.636 -0.4238 -0.0962 -0.0755
 6062TIP3    H139821   4.997   4.547   0.608 -0.3777  1.3314  1.0564
 6062TIP3    H239822   4.902   4.559   0.725 -0.8313 -3.6461  1.4043
 6063TIP3   OH239823   0.965   1.797   0.312  0.1323 -0.6321  0.1842
 6063TIP3    H139824   0.928   1.877   0.349  0.0997 -0.0883 -0.9854
 6063TIP3    H239825   0.891   1.754   0.269  0.5675 -0.2046 -1.0257
 6064TIP3   OH239826   3.046   5.177   0.707  0.2664  0.2492  0.0680
 6064TIP3    H139827   3.004   5.121   0.773  0.9937 -0.0634  0.2785
 6064TIP3    H239828   3.051   5.263   0.748 -0.5861  0.4128 -0.1418
 6065TIP3   OH239829   3.003   2.204   6.667 -1.2000  0.3056 -0.4515
 6065TIP3    H139830   2.920   2.157   6.671 -0.8865 -0.2038  1.2242
 6065TIP3    H239831   2.987   2.286   6.715 -0.1596 -0.9045  2.2085
 6066TIP3   OH239832   6.478   1.723   6.922  0.5590 -0.4266 -0.7368
 6066TIP3    H139833   6.528   1.789   6.873  0.9950 -0.9219 -0.9617
 6066TIP3    H239834   6.399   1.710   6.870 -0.6465  1.5714  0.4384
 6067TIP3   OH239835   6.863   6.681   0.822 -0.0490  0.3348 -0.3112
 6067TIP3    H139836   6.803   6.747   0.859  0.7346  1.3811 -0.8528
 6067TIP3    H239837   6.809   6.603   0.812 -0.6807  0.4560  1.6021
 6068TIP3   OH239838   4.504   1.137   8.454  0.1813  0.2093  0.0979
 6068TIP3    H139839   4.513   1.226   8.422  0.0371 -0.5514 -2.2445
 6068TIP3    H239840   4.409   1.122   8.455  0.1969 -0.9796 -3.0499
 6069TIP3   OH239841   4.918   1.642   7.298 -0.4622 -0.3787 -0.0702
 6069TIP3    H139842   4.866   1.584   7.354 -0.3532 -0.9142 -0.5238
 6069TIP3    H239843   5.008   1.633   7.332  0.1482 -2.8571 -2.0104
 6070TIP3   OH239844   3.336   3.890   0.895 -0.5977 -0.0044  0.6397
 6070TIP3    H139845   3.427   3.895   0.926 -0.9784 -0.6351  1.8969
 6070TIP3    H239846   3.339   3.829   0.821  0.3817  1.7887 -0.9014
 6071TIP3   OH239847   5.965   4.571   7.468  0.2062  0.2045  0.2465
 6071TIP3    H139848   5.967   4.566   7.372 -2.1768 -0.2126  0.1560
 6071TIP3    H239849   5.939   4.661   7.486  0.2340  0.1620  0.4968
 6072TIP3   OH239850   6.543   2.895   0.384 -0.3941  0.4137 -0.4644
 6072TIP3    H139851   6.480   2.865   0.450  2.0963 -1.6311  1.1946
 6072TIP3    H239852   6.568   2.983   0.413 -2.0685  1.0433 -0.8669
 6073TIP3   OH239853   3.312   6.781   0.345 -0.1392 -0.3204 -0.3648
 6073TIP3    H139854   3.357   6.719   0.289 -0.5930 -1.1836  0.2029
 6073TIP3    H239855   3.343   6.867   0.316 -0.1786 -0.7537 -1.7506
 6074TIP3   OH239856   5.711   4.511   1.448 -0.3121 -0.6682  0.3527
 6074TIP3    H139857   5.666   4.456   1.513  0.0255 -0.2088  0.9800
 6074TIP3    H239858   5.668   4.596   1.453  0.2923 -0.3718  0.5995
 6075TIP3   OH239859   4.124   0.136   0.743 -0.0933  0.4373 -0.2146
 6075TIP3    H139860   4.190   0.067   0.749  0.3416  0.9596  1.9114
 6075TIP3    H239861   4.148   0.185   0.664  1.2589 -0.1735 -0.2161
 6076TIP3   OH239862   5.176   1.421   1.935 -0.2315 -0.0678 -0.1906
 6076TIP3    H139863   5.139   1.418   1.847  0.0451  1.5786 -0.3950
 6076TIP3    H239864   5.269   1.401   1.922 -0.3552 -0.7085 -0.1376
 6077TIP3   OH239865   2.847   3.523   6.865  0.2383 -0.0844 -0.0600
 6077TIP3    H139866   2.828   3.484   6.779  0.0936 -1.6617  0.6635
 6077TIP3    H239867   2.893   3.604   6.844  0.2097 -0.4398 -1.6351
 6078TIP3   OH239868   5.182   1.505   7.621 -0.5044  0.0308 -0.9546
 6078TIP3    H139869   5.126   1.428   7.608  0.9604 -0.9951 -1.4429
 6078TIP3    H239870   5.254   1.473   7.675 -1.2419  1.7631  1.2133
 6079TIP3   OH239871   3.806   5.115   2.130 -0.3793 -0.1125 -0.6435
 6079TIP3    H139872   3.871   5.116   2.201 -0.4683  0.3504 -0.5684
 6079TIP3    H239873   3.857   5.129   2.050 -0.2178 -1.1095 -0.7256
 6080TIP3   OH239874   5.897   1.260   1.900  0.2468  0.2416 -0.2579
 6080TIP3    H139875   5.877   1.166   1.900  0.3340  0.2079 -1.5048
 6080TIP3    H239876   5.814   1.302   1.923 -0.2605 -0.0873 -1.3854
 6081TIP3   OH239877   4.045   6.606   1.475  0.1074 -0.2918 -0.5079
 6081TIP3    H139878   3.977   6.562   1.423  0.0818  0.6931 -1.3442
 6081TIP3    H239879   4.060   6.548   1.549 -2.3125 -0.1207  0.1949
 6082TIP3   OH239880   4.001   3.858   1.727  0.5633  0.0067 -0.1989
 6082TIP3    H139881   3.943   3.934   1.733  0.1357 -0.3181 -0.2479
 6082TIP3    H239882   3.944   3.785   1.705  0.7247 -0.6621  1.4711
 6083TIP3   OH239883   2.733   6.836   8.598  0.6280  0.3282  0.0943
 6083TIP3    H139884   2.774   6.889   8.666  0.3162 -0.4246  0.8827
 6083TIP3    H239885   2.799   6.830   8.529  0.9469  1.0980  0.3175
 6084TIP3   OH239886   3.050   4.839   1.127 -0.2111 -0.0811  0.1930
 6084TIP3    H139887   3.140   4.862   1.149 -0.1219  0.6986 -0.9173
 6084TIP3    H239888   3.024   4.776   1.194  1.3633 -0.7907  0.1793
 6085TIP3   OH239889   1.437   3.707   1.308 -0.4418  0.7222 -0.3792
 6085TIP3    H139890   1.502   3.638   1.293 -0.8231  0.6871 -2.0116
 6085TIP3    H239891   1.469   3.781   1.258 -1.4776  0.8093 -0.9390
 6086TIP3   OH239892   2.583   5.004   7.840  0.0163 -0.4259  0.6061
 6086TIP3    H139893   2.652   5.071   7.844 -0.2950 -0.0426 -0.1251
 6086TIP3    H239894   2.539   5.010   7.924 -0.9290  1.3207  0.0520
 6087TIP3   OH239895   4.099   3.774   0.804  0.1824 -0.0514 -0.5264
 6087TIP3    H139896   4.190   3.745   0.808  0.6616  1.5540  1.4168
 6087TIP3    H239897   4.051   3.709   0.855  0.5421  0.1688  0.0940
 6088TIP3   OH239898   1.357   1.908   1.094  0.7254  0.1909  0.1751
 6088TIP3    H139899   1.376   1.948   1.178 -1.2076 -1.8367  1.6926
 6088TIP3    H239900   1.392   1.970   1.029  2.1204  1.8923  2.4088
 6089TIP3   OH239901   0.085   0.427   2.315  0.2448  0.1198 -0.3583
 6089TIP3    H139902   0.143   0.378   2.257  2.4095 -0.7013  2.2945
 6089TIP3    H239903   0.105   0.519   2.298  0.2549 -0.0759 -1.4461
 6090TIP3   OH239904   5.696   0.637   7.533 -0.6815  0.7556  0.8172
 6090TIP3    H139905   5.701   0.731   7.553  0.6735  0.4196  2.2768
 6090TIP3    H239906   5.752   0.596   7.599  1.0136 -0.8232 -1.4342
 6091TIP3   OH239907   0.053   1.473   1.835 -0.0448 -0.2249 -0.5987
 6091TIP3    H139908   0.108   1.525   1.776  0.7257 -0.9706 -0.5565
 6091TIP3    H239909   0.091   1.485   1.921 -1.9006  1.8583  0.0248
 6092TIP3   OH239910   1.533   0.528   7.852 -0.7355 -0.0525 -0.4684
 6092TIP3    H139911   1.474   0.591   7.810  0.2822  0.6961 -0.8197
 6092TIP3    H239912   1.573   0.480   7.780  0.9786  1.2000 -0.4255
 6093TIP3   OH239913   1.300   6.567   8.457  0.2653  0.4655  0.9047
 6093TIP3    H139914   1.254   6.559   8.541  1.0470  0.2819  1.3268
 6093TIP3    H239915   1.368   6.632   8.473  0.0577  0.8523  0.2423
 6094TIP3   OH239916   4.674   0.072   8.291  0.3710  0.8000  0.1785
 6094TIP3    H139917   4.746   0.077   8.355  2.0939  0.3551 -1.6235
 6094TIP3    H239918   4.613   0.009   8.328 -1.1364  3.8971  3.6158
 6095TIP3   OH239919   5.240   5.755   7.213 -0.4742 -0.1435 -0.5069
 6095TIP3    H139920   5.153   5.716   7.207 -0.0397 -1.5581  1.4385
 6095TIP3    H239921   5.300   5.680   7.212  0.6417  0.7238 -0.4846
 6096TIP3   OH239922   0.326   1.482   2.311 -0.3444 -0.3006 -0.1389
 6096TIP3    H139923   0.405   1.535   2.300  0.3205 -1.4393 -1.1322
 6096TIP3    H239924   0.352   1.413   2.372 -0.4498 -0.8772 -0.7309
 6097TIP3   OH239925   1.624   2.748   2.290  0.0779  0.6985 -0.2313
 6097TIP3    H139926   1.679   2.670   2.299  0.1080  0.5385 -1.5912
 6097TIP3    H239927   1.536   2.713   2.276  0.4539  0.7392 -3.5845
 6098TIP3   OH239928   2.709   5.175   6.380  0.7684  0.1205  0.2604
 6098TIP3    H139929   2.799   5.196   6.354  0.5993 -1.3277 -1.6471
 6098TIP3    H239930   2.675   5.257   6.415  2.2811  1.1614 -0.5846
 6099TIP3   OH239931   4.310   6.104   0.691  0.0225  0.3585  0.3545
 6099TIP3    H139932   4.393   6.092   0.737  0.7744 -1.2073 -1.3168
 6099TIP3    H239933   4.324   6.181   0.636 -0.3704  1.3364  1.5910
 6100TIP3   OH239934   2.177   3.386   0.072  0.1592 -0.6549  0.3061
 6100TIP3    H139935   2.227   3.462   0.041  0.6910 -0.3750  1.7525
 6100TIP3    H239936   2.141   3.346  -0.007  2.0310 -0.4033 -0.7259
 6101TIP3   OH239937   0.456   4.269   7.811  0.1693 -0.3973 -0.3281
 6101TIP3    H139938   0.407   4.240   7.734 -0.5281  2.0627 -0.9105
 6101TIP3    H239939   0.410   4.230   7.885 -0.7596 -0.6823 -1.0310
 6102TIP3   OH239940   0.563   4.876   7.098 -0.2031  0.1043 -0.4372
 6102TIP3    H139941   0.644   4.860   7.145  1.6347  0.4726 -3.2454
 6102TIP3    H239942   0.517   4.792   7.099  1.4340 -0.8357 -0.9299
 6103TIP3   OH239943   5.205   0.647   6.298 -0.2874  1.0750  0.5775
 6103TIP3    H139944   5.131   0.648   6.359 -0.4026 -0.9885  0.5246
 6103TIP3    H239945   5.281   0.664   6.353 -0.5867  1.2681  0.9413
 6104TIP3   OH239946   1.262   5.071   6.973  0.6724  0.3033 -0.2614
 6104TIP3    H139947   1.218   5.061   6.889  0.3489 -0.2205 -0.0333
 6104TIP3    H239948   1.249   5.163   6.996 -2.5049 -0.3283  0.9824
 6105TIP3   OH239949   2.519   4.134   8.026  0.4377 -0.2299  0.2240
 6105TIP3    H139950   2.594   4.160   8.080  0.8037  0.1280 -0.4481
 6105TIP3    H239951   2.545   4.156   7.937 -0.7498  0.5526  0.0623
 6106TIP3   OH239952   5.988   6.181   8.056 -0.0176 -0.3791 -0.0230
 6106TIP3    H139953   6.017   6.237   7.983  2.2170  0.7660  1.6093
 6106TIP3    H239954   6.056   6.193   8.123  0.3292 -4.7100  0.6561
 6107TIP3   OH239955   6.021   1.229   0.875 -0.3282  0.1181  0.0051
 6107TIP3    H139956   5.926   1.217   0.866 -0.6516  2.2034  0.1869
 6107TIP3    H239957   6.031   1.308   0.928  1.5235 -0.1460  0.1230
 6108TIP3   OH239958   6.575   4.097   8.448  0.2898  0.4393 -0.6324
 6108TIP3    H139959   6.594   4.105   8.541 -0.2712  1.2472 -0.5724
 6108TIP3    H239960   6.480   4.106   8.442  0.4331  1.7973 -1.3946
 6109TIP3   OH239961   2.813   5.330   7.225  0.3944  0.3753 -0.4221
 6109TIP3    H139962   2.854   5.416   7.237  0.8667  0.2133 -0.8645
 6109TIP3    H239963   2.804   5.321   7.130 -1.6923  0.8862 -0.3380
 6110TIP3   OH239964   3.437   4.568   8.136  0.5672  0.3584  0.8061
 6110TIP3    H139965   3.385   4.589   8.213  1.3783 -0.3974  1.5735
 6110TIP3    H239966   3.527   4.562   8.168  0.9217  0.0610 -0.1996
 6111TIP3   OH239967   3.238   3.418   6.688 -0.3294 -0.2130  0.3862
 6111TIP3    H139968   3.190   3.467   6.622  0.7452  0.7306  0.2868
 6111TIP3    H239969   3.242   3.329   6.653 -0.4493  0.1000 -0.4489
 6112TIP3   OH239970   5.744   4.436   0.576 -0.2297 -0.5480  0.1545
 6112TIP3    H139971   5.741   4.452   0.670  1.0154  1.0886 -0.0400
 6112TIP3    H239972   5.834   4.406   0.560 -0.8681 -2.3225 -0.3281
 6113TIP3   OH239973   5.510   4.053   7.126 -0.0163 -0.0657 -0.7945
 6113TIP3    H139974   5.558   4.131   7.098  0.4897  0.6029  1.6609
 6113TIP3    H239975   5.537   3.985   7.065  0.6030  1.3426 -2.1613
 6114TIP3   OH239976   0.648   0.587   7.285  0.0549  0.1844  0.2208
 6114TIP3    H139977   0.637   0.624   7.373  0.4476 -2.7745  1.6409
 6114TIP3    H239978   0.735   0.547   7.286 -0.9999 -2.3919 -0.4023
 6115TIP3   OH239979   3.804   1.200   0.458 -0.5805  0.3774 -0.4808
 6115TIP3    H139980   3.758   1.278   0.429  0.3903  0.8111 -0.9057
 6115TIP3    H239981   3.812   1.211   0.553 -1.1640  0.3978 -0.4350
 6116TIP3   OH239982   1.617   2.107   1.189  0.1703 -0.4857  0.6468
 6116TIP3    H139983   1.655   2.063   1.265  1.4675 -0.7258 -0.1000
 6116TIP3    H239984   1.680   2.175   1.168 -0.4316 -0.0933  0.0844
 6117TIP3   OH239985   2.079   4.366   0.599  0.2090  0.1397 -0.4271
 6117TIP3    H139986   2.037   4.393   0.517  1.2049  2.2097 -0.3290
 6117TIP3    H239987   2.030   4.412   0.667 -0.0939 -0.9199  0.0870
 6118TIP3   OH239988   1.739   1.367   6.843  0.5257  1.0997 -0.0328
 6118TIP3    H139989   1.743   1.365   6.939  1.1845  0.4230 -0.0643
 6118TIP3    H239990   1.698   1.284   6.819 -2.2789  2.4413 -0.2553
 6119TIP3   OH239991   4.465   6.566   7.518 -0.0960  0.5018 -0.2278
 6119TIP3    H139992   4.558   6.569   7.499  0.1731  0.4734  0.9952
 6119TIP3    H239993   4.425   6.529   7.439  1.2305 -2.1019  0.2000
 6120TIP3   OH239994   5.327   0.842   1.170  0.3258 -0.4730  0.0889
 6120TIP3    H139995   5.284   0.920   1.203  2.5699  0.9356 -0.0904
 6120TIP3    H239996   5.361   0.798   1.248 -0.8138 -1.2375  0.1782
 6121TIP3   OH239997   0.281   0.334   0.260 -0.1206 -0.1054  0.1370
 6121TIP3    H139998   0.285   0.356   0.167  2.2329 -0.3284  0.1134
 6121TIP3    H239999   0.257   0.416   0.303 -2.7378 -0.3339 -0.6935
 6122TIP3   OH240000   6.757   5.186   7.528  0.5668  1.0352  0.3597
 6122TIP3    H140001   6.740   5.181   7.434  2.6300  2.3296 -0.1591
 6122TIP3    H240002   6.734   5.276   7.551  2.5606  1.5724  0.4581
 6123TIP3   OH240003   3.295   1.409   0.306  0.3949  0.5168  0.0284
 6123TIP3    H140004   3.333   1.391   0.220 -1.4394 -3.8658 -0.0989
 6123TIP3    H240005   3.201   1.420   0.288  0.2261  1.4374  1.3303
 6124TIP3   OH240006   0.097   0.596   2.006 -0.2031  0.5612 -0.3116
 6124TIP3    H140007   0.123   0.668   2.063 -1.4061  1.0518 -0.3589
 6124TIP3    H240008   0.117   0.517   2.057  0.7986  0.9213 -0.1237
 6125TIP3   OH240009   6.325   2.847   0.555 -0.0337 -0.1034 -0.2343
 6125TIP3    H140010   6.280   2.766   0.577 -1.6592  1.0642  0.9367
 6125TIP3    H240011   6.324   2.899   0.636 -0.7091  1.8385 -1.4070
 6126TIP3   OH240012   2.483   5.878   8.169 -0.2650  0.1837  0.6371
 6126TIP3    H140013   2.562   5.932   8.168 -2.3546  3.5470 -0.0226
 6126TIP3    H240014   2.418   5.931   8.215 -2.6052 -1.6802 -0.2776
 6127TIP3   OH240015   4.880   5.136   7.064 -0.1034  0.8599 -0.5653
 6127TIP3    H140016   4.928   5.087   6.996  0.6473 -1.9334  1.7423
 6127TIP3    H240017   4.789   5.136   7.034 -0.1646 -2.1890 -0.7312
 6128TIP3   OH240018   4.416   5.559   7.265 -0.0236 -0.1047  0.0391
 6128TIP3    H140019   4.327   5.542   7.233  0.2220  2.0795 -2.0554
 6128TIP3    H240020   4.452   5.624   7.204  1.4799  2.3750  3.2564
 6129TIP3   OH240021   5.964   6.789   6.662 -0.0617 -0.4497  0.6290
 6129TIP3    H140022   5.889   6.732   6.644  0.0326 -0.2872 -0.3410
 6129TIP3    H240023   5.956   6.860   6.597 -1.2006  1.6849  2.9119
 6130TIP3   OH240024   1.790   6.487   0.706 -0.0927 -0.1844  0.5562
 6130TIP3    H140025   1.720   6.461   0.765 -0.5651 -0.6424 -0.1883
 6130TIP3    H240026   1.821   6.405   0.668  0.4469  0.0695  0.4392
 6131TIP3   OH240027   6.039   3.614   7.061  0.4817 -0.2359  0.0595
 6131TIP3    H140028   5.949   3.584   7.077  0.6886 -0.9236 -0.0211
 6131TIP3    H240029   6.085   3.594   7.142  0.3208  1.1567  0.5302
 6132TIP3   OH240030   5.419   3.291   1.195  0.1294 -0.5007 -0.8653
 6132TIP3    H140031   5.376   3.242   1.125 -3.9183 -2.5455  2.5516
 6132TIP3    H240032   5.357   3.359   1.219  1.2791  0.0370  0.7954
 6133TIP3   OH240033   3.744   0.457   8.256 -0.1155  0.0181  0.2004
 6133TIP3    H140034   3.807   0.513   8.300 -1.3851  1.2258  0.5455
 6133TIP3    H240035   3.731   0.383   8.316  0.0680  0.3664  0.6758
 6134TIP3   OH240036   2.819   3.765   0.599  0.2657  0.5893 -0.1966
 6134TIP3    H140037   2.783   3.757   0.687 -0.9481  0.8280 -0.6639
 6134TIP3    H240038   2.914   3.773   0.613  0.2692 -0.9732  0.9956
 6135TIP3   OH240039   4.944   5.116   0.132  0.7943 -0.0373 -0.3287
 6135TIP3    H140040   4.907   5.199   0.162  0.8203 -0.4295  0.8386
 6135TIP3    H240041   4.871   5.055   0.135  0.8168 -0.1049 -1.0140
 6136TIP3   OH240042   1.758   4.756   0.776  0.0936  0.3122  0.7815
 6136TIP3    H140043   1.741   4.783   0.686  1.1515 -0.2625  0.3920
 6136TIP3    H240044   1.749   4.837   0.827 -0.5090  0.6448  0.1744
 6137TIP3   OH240045   3.771   4.593   0.891  0.5481  0.0891 -0.1779
 6137TIP3    H140046   3.822   4.512   0.885  0.3858 -0.1554  1.3232
 6137TIP3    H240047   3.837   4.662   0.901  0.6386 -0.0360  0.0901
 6138TIP3   OH240048   0.239   3.574   7.253  0.5591 -0.7000 -0.5458
 6138TIP3    H140049   0.251   3.482   7.230 -1.1997 -1.3122  0.8200
 6138TIP3    H240050   0.169   3.574   7.318  0.3482  1.6334 -0.6954
 6139TIP3   OH240051   3.690   2.225   1.841 -0.4302 -0.0009  0.0619
 6139TIP3    H140052   3.750   2.161   1.803 -2.2475 -2.1164  0.5148
 6139TIP3    H240053   3.619   2.231   1.777 -1.1762  0.0996  0.8882
 6140TIP3   OH240054   0.149   2.048   6.278 -0.1433 -0.1331 -0.6874
 6140TIP3    H140055   0.090   2.105   6.327  0.1826  0.9129 -1.4578
 6140TIP3    H240056   0.131   2.070   6.186  0.9206 -0.3185 -0.9471
 6141TIP3   OH240057   6.171   0.465   0.274 -0.0547  0.5948  0.3386
 6141TIP3    H140058   6.078   0.481   0.282  0.1057  1.6868  0.1490
 6141TIP3    H240059   6.206   0.473   0.363  0.1199  2.0369  0.1650
 6142TIP3   OH240060   6.723   0.656   6.663 -0.3544  0.3667 -0.0801
 6142TIP3    H140061   6.784   0.584   6.683  1.2722  1.6733 -0.0872
 6142TIP3    H240062   6.731   0.668   6.568 -1.6577 -0.3084 -0.2913
 6143TIP3   OH240063   2.791   4.129   0.434 -0.0740 -0.1031 -0.8552
 6143TIP3    H140064   2.761   4.164   0.518  0.1184 -1.3358 -0.2437
 6143TIP3    H240065   2.884   4.154   0.429 -0.2403  0.4985 -0.9982
 6144TIP3   OH240066   1.847   6.605   7.340 -0.2659  1.0171 -0.2546
 6144TIP3    H140067   1.872   6.650   7.420  1.4614 -0.3414  0.0348
 6144TIP3    H240068   1.864   6.512   7.358 -1.1033  0.5417 -1.7317
 6145TIP3   OH240069   6.708   0.885   1.864 -0.0379 -0.0699 -0.2069
 6145TIP3    H140070   6.731   0.881   1.957 -1.2929  1.1132  0.1981
 6145TIP3    H240071   6.791   0.875   1.818  0.4500 -1.9774  0.9838
 6146TIP3   OH240072   5.218   3.162   8.582 -1.0184 -0.4925 -0.1199
 6146TIP3    H140073   5.291   3.100   8.584 -0.3536  0.2667 -0.7428
 6146TIP3    H240074   5.198   3.173   8.489 -1.8004 -0.5237  0.0304
 6147TIP3   OH240075   4.885   4.516   8.280 -0.3520  0.3473 -0.0518
 6147TIP3    H140076   4.889   4.560   8.195 -0.2969 -1.2001 -0.8736
 6147TIP3    H240077   4.802   4.546   8.318 -0.1888  1.3633 -0.4493
 6148TIP3   OH240078   3.044   1.243   1.372 -0.2370 -0.3245  0.1003
 6148TIP3    H140079   3.136   1.224   1.354  0.3781  1.6239  0.9905
 6148TIP3    H240080   3.007   1.158   1.398  1.0670 -1.3109 -1.0622
 6149TIP3   OH240081   5.527   5.522   8.554 -0.2007  0.3105  0.5262
 6149TIP3    H140082   5.497   5.575   8.628 -1.9621 -1.3591  1.1079
 6149TIP3    H240083   5.521   5.580   8.479 -2.0655  0.9765  1.1303
 6150TIP3   OH240084   6.629   5.792   2.144  0.4531 -0.4383 -0.3236
 6150TIP3    H140085   6.668   5.876   2.119 -0.2108  0.3252  1.0490
 6150TIP3    H240086   6.537   5.812   2.160  0.8790 -0.5958  3.2834
 6151TIP3   OH240087   6.635   3.631   7.751 -0.2105 -0.0561  0.0889
 6151TIP3    H140088   6.663   3.723   7.747 -0.2252 -0.0174  0.7490
 6151TIP3    H240089   6.560   3.631   7.811  1.7905 -0.9569  2.7667
 6152TIP3   OH240090   2.899   1.969   1.742  0.2674  0.0317  0.1462
 6152TIP3    H140091   2.966   1.908   1.773  1.0656  0.9923  0.3263
 6152TIP3    H240092   2.831   1.965   1.809  1.3037  0.9693  1.2917
 6153TIP3   OH240093   2.114   1.556   7.954  0.0980 -0.1474  0.4450
 6153TIP3    H140094   2.199   1.597   7.968 -0.0021  0.3278 -0.2784
 6153TIP3    H240095   2.088   1.523   8.040  0.1698  1.3359  1.0637
 6154TIP3   OH240096   6.140   0.864   6.623  0.3134 -0.1692  0.1612
 6154TIP3    H140097   6.100   0.935   6.572  1.8630  1.3906  1.0166
 6154TIP3    H240098   6.160   0.904   6.707  2.7434 -1.1389  0.1189
 6155TIP3   OH240099   6.066   3.192   8.129 -0.2490  0.2651  0.1344
 6155TIP3    H140100   6.154   3.192   8.167 -0.3530  2.2585  0.4697
 6155TIP3    H240101   6.030   3.278   8.151 -1.6813  0.1074 -1.3836
 6156TIP3   OH240102   6.188   1.179   6.025 -0.0624  0.2471 -0.5175
 6156TIP3    H140103   6.118   1.128   5.985  1.3695 -2.1125 -0.2026
 6156TIP3    H240104   6.183   1.158   6.119  0.9079  0.2043 -0.4613
 6157TIP3   OH240105   0.856   0.136   7.204 -0.4780 -0.1541  0.1528
 6157TIP3    H140106   0.767   0.171   7.208 -0.7655 -0.9102  0.4749
 6157TIP3    H240107   0.854   0.056   7.257  1.0800  1.2593  2.5713
 6158TIP3   OH240108   5.531   5.579   7.378 -0.2239  0.3326  0.3262
 6158TIP3    H140109   5.480   5.597   7.299  1.0730  0.5188 -0.4903
 6158TIP3    H240110   5.549   5.485   7.375  0.1837  0.4137  0.1763
 6159TIP3   OH240111   0.556   1.337   0.857 -0.2391 -0.4252  0.7331
 6159TIP3    H140112   0.607   1.419   0.854 -0.6341 -0.2021 -1.4099
 6159TIP3    H240113   0.476   1.361   0.903  0.0504  0.1559  0.9550
 6160TIP3   OH240114   1.047   5.960   7.150 -0.7076  0.1951 -0.2033
 6160TIP3    H140115   1.078   5.873   7.178 -0.8415  0.2288  0.0512
 6160TIP3    H240116   1.081   5.969   7.061 -1.3483 -0.4480 -0.5288
 6161TIP3   OH240117   2.137   6.486   6.795 -0.1805 -0.7415 -0.0831
 6161TIP3    H140118   2.119   6.394   6.812 -3.6006 -0.0006  0.9985
 6161TIP3    H240119   2.125   6.496   6.701 -2.7128 -0.9544  0.1550
 6162TIP3   OH240120   4.195   0.377   1.909  0.0639  1.0160  0.3103
 6162TIP3    H140121   4.210   0.470   1.923 -0.3949  0.9190  1.5666
 6162TIP3    H240122   4.144   0.349   1.985  1.2294 -0.5073  0.5844
 6163TIP3   OH240123   1.966   3.917   1.027  0.0253  0.1126 -0.0243
 6163TIP3    H140124   2.008   3.933   1.112 -0.7891  0.7421  0.2593
 6163TIP3    H240125   1.874   3.936   1.041  0.0107  1.0807 -1.2866
 6164TIP3   OH240126   1.704   3.488   2.545  0.0827 -0.5375  0.4554
 6164TIP3    H140127   1.630   3.473   2.604 -0.3888  0.6703  0.1883
 6164TIP3    H240128   1.678   3.562   2.491  0.8785 -1.0644 -0.6807
 6165TIP3   OH240129   5.127   5.439   7.625 -0.2774 -0.7527  0.6823
 6165TIP3    H140130   5.083   5.427   7.709  0.0883 -1.9153  0.7238
 6165TIP3    H240131   5.112   5.531   7.603 -2.1338 -0.9247  1.0358
 6166TIP3   OH240132   4.127   3.825   7.041  0.2734 -0.2491 -0.0420
 6166TIP3    H140133   4.070   3.772   7.097  0.6160 -1.6743 -0.9887
 6166TIP3    H240134   4.153   3.766   6.970  1.6925  0.8249 -0.4701
 6167TIP3   OH240135   5.560   1.828   1.041 -0.3591 -0.3244 -0.1069
 6167TIP3    H140136   5.607   1.904   1.075  1.2828 -1.7566  1.0177
 6167TIP3    H240137   5.548   1.847   0.948  3.2856 -0.1414 -0.7026
 6168TIP3   OH240138   4.353   3.186   0.359 -0.7184 -0.4864  0.2579
 6168TIP3    H140139   4.359   3.191   0.264  1.0630 -1.9809  0.2234
 6168TIP3    H240140   4.426   3.239   0.391 -1.1262 -0.2362  0.7983
 6169TIP3   OH240141   4.968   6.155   1.424 -0.1332  0.3637 -0.0193
 6169TIP3    H140142   5.024   6.181   1.351  0.3995 -0.0750  0.2243
 6169TIP3    H240143   4.965   6.059   1.419 -2.7018  0.4395 -1.3879
 6170TIP3   OH240144   5.418   5.530   1.110  0.4927 -0.2706  0.1262
 6170TIP3    H140145   5.381   5.610   1.073  0.3246  0.2996  1.4929
 6170TIP3    H240146   5.485   5.560   1.171  1.4008 -1.2185 -0.3629
 6171TIP3   OH240147   4.732   1.059   2.605 -0.0652 -0.3185  0.3780
 6171TIP3    H140148   4.754   1.076   2.513 -0.0544  1.8580  0.7215
 6171TIP3    H240149   4.770   0.973   2.623  1.3648 -0.0897 -1.2176
 6172TIP3   OH240150   3.510   1.632   0.010 -0.0792  0.1821  0.7265
 6172TIP3    H140151   3.603   1.655   0.014 -0.0724  0.4990 -0.5897
 6172TIP3    H240152   3.464   1.716   0.017 -0.2222  0.1182  0.5757
 6173TIP3   OH240153   1.604   1.561   2.623 -0.3911  0.1138  1.2696
 6173TIP3    H140154   1.582   1.654   2.626  0.7878  0.4845 -0.0941
 6173TIP3    H240155   1.521   1.517   2.610 -0.8836  1.0320  1.1959
 6174TIP3   OH240156   0.895   0.674   6.785 -0.3301  0.2642 -0.0845
 6174TIP3    H140157   0.805   0.692   6.812 -0.5909 -0.5828 -0.3808
 6174TIP3    H240158   0.887   0.615   6.710  0.4720  0.0817 -0.0373
 6175TIP3   OH240159   5.771   3.777   8.464  0.0603  0.0853  0.4432
 6175TIP3    H140160   5.850   3.764   8.412 -0.6210 -0.1047 -0.5724
 6175TIP3    H240161   5.753   3.871   8.459 -0.7713 -0.1121 -0.8606
 6176TIP3   OH240162   0.889   5.998   1.176  0.3443 -0.3085 -0.1575
 6176TIP3    H140163   0.861   5.927   1.118 -0.8463  0.6156 -0.7625
 6176TIP3    H240164   0.863   6.078   1.130  0.8707  0.5025  0.9024
 6177TIP3   OH240165   5.002   0.310   0.244 -0.7517  0.2179 -0.1657
 6177TIP3    H140166   5.024   0.366   0.318  0.3142 -1.2083  0.6472
 6177TIP3    H240167   4.969   0.229   0.284 -1.7594  0.0358 -1.2888
 6178TIP3   OH240168   3.140   3.139   0.603  0.6595  0.3426  0.5247
 6178TIP3    H140169   3.093   3.120   0.522 -0.9556  2.3588  0.8991
 6178TIP3    H240170   3.171   3.229   0.593  1.8991  0.0601  1.5123
 6179TIP3   OH240171   0.037   5.597   0.811 -0.4412  0.0203  0.7252
 6179TIP3    H140172  -0.001   5.522   0.765  0.3139 -0.3645  0.7034
 6179TIP3    H240173  -0.017   5.608   0.889 -1.4746  0.4085 -0.0153
 6180TIP3   OH240174   0.836   3.360   8.410  0.0375  0.0984 -0.2903
 6180TIP3    H140175   0.855   3.328   8.498 -1.2340 -1.6396 -0.5923
 6180TIP3    H240176   0.743   3.385   8.413 -0.6237 -1.9515 -1.6281
 6181TIP3   OH240177   0.465   0.518   8.064  0.2265  0.1016  0.2754
 6181TIP3    H140178   0.500   0.596   8.107 -0.2657 -0.3298  1.4855
 6181TIP3    H240179   0.491   0.528   7.972  2.2378  0.5009  0.8499
 6182TIP3   OH240180   2.450   4.495   8.383 -0.5875 -0.3264  0.1886
 6182TIP3    H140181   2.543   4.505   8.360 -0.5273  0.7473  0.8521
 6182TIP3    H240182   2.403   4.503   8.300 -0.1235 -0.3245 -0.0777
 6183TIP3   OH240183   6.331   0.057   8.205 -0.0573  0.5846  0.3104
 6183TIP3    H140184   6.316   0.030   8.296 -1.0648  4.1224  1.3828
 6183TIP3    H240185   6.373   0.143   8.213 -2.1116  2.0079 -2.4423
 6184TIP3   OH240186   3.308   1.490   2.153 -0.4123  0.6260  0.0954
 6184TIP3    H140187   3.310   1.557   2.084 -1.1451  0.3058 -0.2421
 6184TIP3    H240188   3.262   1.531   2.225 -2.2294  0.0074 -0.6518
 6185TIP3   OH240189   6.200   5.233   6.943 -0.3188 -0.3250 -0.4707
 6185TIP3    H140190   6.212   5.212   6.850 -0.2207 -0.3987 -0.4413
 6185TIP3    H240191   6.274   5.190   6.987  2.6936  3.7556 -0.9099
 6186TIP3   OH240192   1.804   3.551   7.452 -0.1770 -0.2389 -0.0350
 6186TIP3    H140193   1.748   3.482   7.416  0.0855 -1.3529  1.5782
 6186TIP3    H240194   1.753   3.631   7.444 -1.4406 -1.0065  0.1454
 6187TIP3   OH240195   4.722   1.875   6.528 -0.0074  0.0180  0.6496
 6187TIP3    H140196   4.662   1.897   6.457  0.8749  1.9744  0.4360
 6187TIP3    H240197   4.668   1.878   6.607 -1.0137 -2.2495  0.1092
 6188TIP3   OH240198   0.968   5.983   7.547 -0.3855 -0.0994  0.1078
 6188TIP3    H140199   1.042   5.923   7.546 -0.0904  0.1873  1.6660
 6188TIP3    H240200   0.915   5.958   7.471  2.2911  1.0162 -2.2866
 6189TIP3   OH240201   0.534   6.441   7.086 -0.0369  0.2067  0.3561
 6189TIP3    H140202   0.609   6.479   7.131 -0.5621 -0.1441  1.5512
 6189TIP3    H240203   0.459   6.459   7.143 -0.8216  0.2864 -0.6668
 6190TIP3   OH240204   5.562   2.487   7.769 -0.1493  0.0142  0.6244
 6190TIP3    H140205   5.566   2.427   7.843  1.3475  1.8741  2.1696
 6190TIP3    H240206   5.636   2.546   7.782  0.0418  0.5815 -2.2658
 6191TIP3   OH240207   1.557   1.754   0.597  0.8909  0.4603  0.0494
 6191TIP3    H140208   1.581   1.697   0.524  0.1165 -1.2340  1.0508
 6191TIP3    H240209   1.489   1.705   0.644 -0.5612  2.6511  0.4056
 6192TIP3   OH240210   6.690   4.846   7.117 -0.1958 -0.0105 -0.2165
 6192TIP3    H140211   6.618   4.874   7.173  0.1996 -0.5259  0.5675
 6192TIP3    H240212   6.752   4.804   7.177  0.1574 -0.7248 -1.0653
 6193TIP3   OH240213   0.484   3.443   8.508  0.2357 -0.1754  0.2505
 6193TIP3    H140214   0.398   3.404   8.493  0.0728  0.4031 -0.3463
 6193TIP3    H240215   0.518   3.463   8.421  0.1725  1.3099  0.5460
 6194TIP3   OH240216   3.747   6.522   2.178 -0.3852 -0.4249 -0.1908
 6194TIP3    H140217   3.659   6.490   2.195 -0.0286 -1.0028  0.6711
 6194TIP3    H240218   3.783   6.540   2.265  0.3410 -0.2052 -0.5306
 6195TIP3   OH240219   6.666   5.391   8.541  0.2120  0.1224 -0.1088
 6195TIP3    H140220   6.590   5.448   8.529  0.6802  1.0212  0.9694
 6195TIP3    H240221   6.647   5.342   8.621  0.4115 -0.2469 -0.2849
 6196TIP3   OH240222   5.085   4.120   1.828 -0.3177  0.1628 -0.1793
 6196TIP3    H140223   5.037   4.053   1.778 -0.1167 -0.8533  0.9276
 6196TIP3    H240224   5.161   4.073   1.863  0.2195  1.1655  0.0301
 6197TIP3   OH240225   6.686   3.699   7.167  0.1972 -0.8272 -0.1591
 6197TIP3    H140226   6.644   3.613   7.167 -0.1589 -0.6854  1.1897
 6197TIP3    H240227   6.684   3.727   7.076 -1.1227 -1.5649 -0.3844
 6198TIP3   OH240228   6.624   3.261   1.548 -0.7531 -0.4324  0.7428
 6198TIP3    H140229   6.714   3.240   1.575  0.8535  2.4636 -1.7545
 6198TIP3    H240230   6.615   3.355   1.566 -2.7971 -0.3562 -0.3990
 6199TIP3   OH240231   2.341   6.522   1.641  0.0529 -0.5176  0.2287
 6199TIP3    H140232   2.400   6.485   1.707  0.3560 -0.3416  0.0565
 6199TIP3    H240233   2.350   6.617   1.652 -0.0136 -0.4898  0.0353
 6200TIP3   OH240234   6.286   5.729   7.570  0.3543  0.1615 -0.1429
 6200TIP3    H140235   6.293   5.639   7.601 -3.0307 -0.6186 -1.2382
 6200TIP3    H240236   6.320   5.726   7.481 -3.3338 -1.1815 -1.7234
 6201TIP3   OH240237   5.118   5.737   2.065  0.2860 -0.2079  0.2504
 6201TIP3    H140238   5.161   5.821   2.081  0.2726 -0.2681  0.6331
 6201TIP3    H240239   5.175   5.691   2.005  0.0670  0.2548 -0.3190
 6202TIP3   OH240240   2.577   0.775   6.842  0.0071  0.6831 -0.0513
 6202TIP3    H140241   2.670   0.774   6.821  0.2959  1.2037  1.1227
 6202TIP3    H240242   2.552   0.683   6.844  0.8678  0.4421  1.0808
 6203TIP3   OH240243   3.671   2.548   7.427  0.0264  0.0333 -0.1347
 6203TIP3    H140244   3.677   2.606   7.503 -0.7945 -0.2918  0.1852
 6203TIP3    H240245   3.639   2.465   7.462  0.1860 -0.2948 -0.7476
 6204TIP3   OH240246   6.799   0.320   1.206  0.6968  0.4053 -0.1580
 6204TIP3    H140247   6.804   0.410   1.239 -1.9141  0.9490 -1.0350
 6204TIP3    H240248   6.779   0.330   1.113 -0.3907 -1.0728 -0.1104
 6205TIP3   OH240249   3.819   2.478   8.232  0.1605 -0.0046  0.1056
 6205TIP3    H140250   3.776   2.536   8.294  0.3441  1.1803 -0.8335
 6205TIP3    H240251   3.800   2.389   8.263  0.5673  0.5534  2.0386
 6206TIP3   OH240252   5.317   2.039   6.446 -0.3957 -0.6493 -0.5716
 6206TIP3    H140253   5.407   2.007   6.454  0.1654  1.1260  1.1709
 6206TIP3    H240254   5.317   2.093   6.367  0.0426 -0.7198 -0.6214
 6207TIP3   OH240255   0.276   6.866   2.412 -0.0167 -0.2065  0.2124
 6207TIP3    H140256   0.209   6.929   2.437 -0.8996  0.4021 -3.2236
 6207TIP3    H240257   0.351   6.919   2.385 -0.5689 -0.5637 -2.1847
 6208TIP3   OH240258   1.359   5.148   8.364  0.1507  0.2219 -0.3486
 6208TIP3    H140259   1.409   5.223   8.395 -0.7971  0.8429 -0.2781
 6208TIP3    H240260   1.289   5.137   8.428 -1.0367  0.6888 -1.5145
 6209TIP3   OH240261   3.850   5.535   0.254  0.8519 -0.3329 -0.1785
 6209TIP3    H140262   3.878   5.496   0.171  1.5091 -0.6855  0.2031
 6209TIP3    H240263   3.872   5.470   0.320 -1.4869 -0.9237  0.0940
 6210TIP3   OH240264   1.816   2.257   6.751 -0.0281  0.2309  0.8167
 6210TIP3    H140265   1.896   2.303   6.727 -0.4273  1.8850  2.4312
 6210TIP3    H240266   1.820   2.250   6.846 -1.7481  0.2566  0.9216
 6211TIP3   OH240267   2.676   3.667   7.383 -0.4270 -0.2713 -0.1601
 6211TIP3    H140268   2.761   3.679   7.340 -0.8352  0.1939 -0.8807
 6211TIP3    H240269   2.691   3.691   7.474  0.0680  0.4688 -0.4250
 6212TIP3   OH240270   1.188   1.343   2.362  0.3441  0.0471  0.7133
 6212TIP3    H140271   1.115   1.373   2.309  1.6316  1.9714 -0.1110
 6212TIP3    H240272   1.149   1.286   2.428 -1.7449  0.3071 -0.2247
 6213TIP3   OH240273   5.696   2.048   1.150 -0.2083  0.0707 -0.6581
 6213TIP3    H140274   5.694   2.136   1.188  2.0447 -0.9379  2.2441
 6213TIP3    H240275   5.755   2.055   1.075 -0.5577  1.1237 -0.8543
 6214TIP3   OH240276   1.142   1.921   1.703 -0.4987 -0.0997 -0.8497
 6214TIP3    H140277   1.176   1.831   1.698 -1.2755 -0.4089 -0.7287
 6214TIP3    H240278   1.055   1.916   1.662 -1.9969 -0.1404  2.0981
 6215TIP3   OH240279   4.021   6.284   1.918 -0.0717  0.0943  0.2414
 6215TIP3    H140280   3.933   6.322   1.919  0.0197  0.4779  3.1011
 6215TIP3    H240281   4.011   6.200   1.965  0.8475 -0.5210 -0.6257
 6216TIP3   OH240282   0.381   4.961   7.445 -0.4017  0.2469  0.2810
 6216TIP3    H140283   0.304   4.942   7.498  0.7520 -1.4960  1.4418
 6216TIP3    H240284   0.451   4.909   7.484  1.2124  1.1830 -1.1856
 6217TIP3   OH240285   4.941   3.262   8.684  0.1594 -0.3707  0.2695
 6217TIP3    H140286   4.985   3.324   8.741 -2.9167  0.0103  2.4741
 6217TIP3    H240287   4.989   3.180   8.696  1.3580  0.4231  1.0703
 6218TIP3   OH240288   1.157   2.792   1.433 -0.0075  0.2486 -0.0172
 6218TIP3    H140289   1.100   2.736   1.381 -0.5094  0.2497  0.5194
 6218TIP3    H240290   1.176   2.867   1.376 -0.8046  0.4036 -0.0937
 6219TIP3   OH240291   1.807   4.898   6.276 -0.0407  0.0165 -0.4060
 6219TIP3    H140292   1.882   4.880   6.334  0.8438  1.7341 -0.9481
 6219TIP3    H240293   1.842   4.885   6.188  0.0621  2.2005 -0.7203
 6220TIP3   OH240294   0.765   3.476   6.510  0.0159  0.1909  0.4090
 6220TIP3    H140295   0.787   3.569   6.509  1.3218 -0.0919  1.0726
 6220TIP3    H240296   0.849   3.431   6.501 -0.7081 -0.9388 -1.1233
 6221TIP3   OH240297   2.265   0.702   0.812  0.2387 -0.8818 -0.5743
 6221TIP3    H140298   2.292   0.782   0.856  0.9840 -0.0979 -2.3390
 6221TIP3    H240299   2.338   0.641   0.824  0.0836 -0.9619 -0.0401
 6222TIP3   OH240300   2.214   1.051   8.239 -0.0435 -0.3998  0.6002
 6222TIP3    H140301   2.148   1.093   8.184 -1.0831 -0.5812  1.6771
 6222TIP3    H240302   2.273   1.122   8.264 -0.7047  0.0728  0.8506
 6223TIP3   OH240303   5.190   0.103   0.179 -0.0775  0.8369  0.0773
 6223TIP3    H140304   5.268   0.106   0.123 -1.3834 -1.3577 -2.1093
 6223TIP3    H240305   5.140   0.180   0.155  0.1540  0.7877 -0.5832
 6224TIP3   OH240306   4.924   0.007   1.810  0.0828  0.3514  0.0895
 6224TIP3    H140307   4.961  -0.038   1.735  1.3142  2.4771 -0.6748
 6224TIP3    H240308   4.919  -0.060   1.878  1.0702 -1.0972 -1.1900
 6225TIP3   OH240309   3.430   1.176   0.457  0.4719  0.1934 -0.3519
 6225TIP3    H140310   3.479   1.165   0.375  1.4003  1.4320  0.0108
 6225TIP3    H240311   3.344   1.208   0.430  0.0168 -1.4179 -0.9536
 6226TIP3   OH240312   2.987   1.222   8.540 -0.2875 -0.2145 -0.1148
 6226TIP3    H140313   3.077   1.244   8.515 -0.1686 -2.5898 -2.1528
 6226TIP3    H240314   2.964   1.148   8.484 -3.1337 -0.4279  1.1705
 6227TIP3   OH240315   2.096   0.053   8.668 -0.2836 -0.5344 -0.5590
 6227TIP3    H140316   2.121   0.119   8.732 -2.2112  0.1239 -0.4250
 6227TIP3    H240317   2.138   0.081   8.587  0.3997 -0.1600 -0.0816
 6228TIP3   OH240318   0.701   1.618   8.159 -0.9299  0.2748 -0.6314
 6228TIP3    H140319   0.751   1.636   8.080 -0.5187 -0.0616 -0.4570
 6228TIP3    H240320   0.767   1.589   8.222 -1.1157  1.4870  0.1442
 6229TIP3   OH240321   2.716   5.540   8.412  0.1783 -0.6008 -0.4451
 6229TIP3    H140322   2.629   5.503   8.399 -0.1262  0.1347 -0.5590
 6229TIP3    H240323   2.711   5.581   8.498 -0.0520  0.6871 -1.0513
 6230TIP3   OH240324   3.427   6.898   7.944 -0.9016 -0.4147  0.2379
 6230TIP3    H140325   3.422   6.851   7.861  1.0244  1.1110 -0.8274
 6230TIP3    H240326   3.453   6.831   8.008 -0.0562 -1.1890 -0.8723
 6231TIP3   OH240327   6.868   3.738   2.293  0.2419 -0.1651  0.9168
 6231TIP3    H140328   6.940   3.710   2.349 -0.3987 -1.4931  1.1198
 6231TIP3    H240329   6.861   3.832   2.307  1.9821  0.0118  0.8234
 6232TIP3   OH240330   1.389   4.999   0.852 -0.5599  0.2063  0.2730
 6232TIP3    H140331   1.311   5.046   0.824 -1.5499 -0.9950  0.9232
 6232TIP3    H240332   1.462   5.050   0.817 -1.6476  0.7647 -1.2966
 6233TIP3   OH240333   4.926   5.193   2.278  0.6647  0.3663  0.1477
 6233TIP3    H140334   5.019   5.170   2.271  0.1998 -1.5863 -0.0481
 6233TIP3    H240335   4.884   5.148   2.205 -0.4817  1.0378  0.3626
 6234TIP3   OH240336   0.963   0.284   8.468 -0.1012 -0.0467 -0.0320
 6234TIP3    H140337   0.938   0.216   8.530 -0.1302 -0.3743 -0.3931
 6234TIP3    H240338   1.052   0.307   8.492  0.5919 -1.5108 -1.0089
 6235TIP3   OH240339   6.646   0.488   8.322  0.2140 -0.5265  0.2986
 6235TIP3    H140340   6.719   0.458   8.377 -0.2471 -1.4303  0.4442
 6235TIP3    H240341   6.624   0.574   8.357  2.3375  0.5632 -0.8764
 6236TIP3   OH240342   5.375   2.888   0.765  0.1295 -0.4766 -0.1602
 6236TIP3    H140343   5.370   2.978   0.734 -0.4696 -0.8269 -1.1564
 6236TIP3    H240344   5.430   2.892   0.843  0.6333  0.6525 -0.5470
 6237TIP3   OH240345   0.070   4.509   7.251  0.7251 -0.3632  0.7338
 6237TIP3    H140346   0.028   4.575   7.306 -0.6192 -1.9619  1.7319
 6237TIP3    H240347   0.162   4.511   7.277  0.1759 -0.9510  3.0472
 6238TIP3   OH240348   1.243   3.817   0.016  0.7136  0.5446  0.0500
 6238TIP3    H140349   1.281   3.793   0.100  1.1480 -0.5106 -0.4405
 6238TIP3    H240350   1.317   3.840  -0.039  0.7804 -2.0387 -1.0757
 6239TIP3   OH240351   0.417   4.977   0.063  0.1800 -0.5498 -0.7762
 6239TIP3    H140352   0.348   4.934   0.112  1.6685 -0.1375  1.8505
 6239TIP3    H240353   0.374   5.051   0.020 -1.1820 -0.8591  0.0024
 6240TIP3   OH240354   0.539   2.258   0.472  0.0144 -0.0134  0.0548
 6240TIP3    H140355   0.468   2.277   0.534 -0.0301  0.6967 -0.2058
 6240TIP3    H240356   0.612   2.230   0.527 -1.2310 -3.4581  0.2259
 6241TIP3   OH240357   5.862   0.003   5.863  0.3066 -0.1709  0.6428
 6241TIP3    H140358   5.855   0.086   5.910  0.1234  0.9629 -1.2777
 6241TIP3    H240359   5.780  -0.043   5.882 -0.2190  0.7223  0.5960
 6242TIP3   OH240360   4.656   2.576   0.379 -0.3982  0.1721  0.2288
 6242TIP3    H140361   4.722   2.567   0.310 -0.2646 -0.0431  0.3865
 6242TIP3    H240362   4.601   2.497   0.370 -0.6980  0.3971  0.0327
 6243TIP3   OH240363   4.963   6.545   1.822 -0.2417  0.0959  0.2685
 6243TIP3    H140364   4.884   6.504   1.789 -0.1825  0.5506 -0.4754
 6243TIP3    H240365   4.971   6.514   1.912 -1.0569 -0.2456  0.2307
 6244TIP3   OH240366   0.125   5.138   1.583  0.5804 -0.4042  0.0273
 6244TIP3    H140367   0.062   5.085   1.631  2.4328 -3.1476 -0.3473
 6244TIP3    H240368   0.207   5.127   1.630  1.2554  1.4599 -0.6227
 6245TIP3   OH240369   6.101   0.676   7.844 -0.3990 -0.5879  0.2513
 6245TIP3    H140370   6.175   0.691   7.902 -0.9040 -2.3043  1.4235
 6245TIP3    H240371   6.103   0.749   7.782  1.8100 -0.1992  0.7071
 6246TIP3   OH240372   0.012   5.370   0.052  0.1629 -0.1309  0.0954
 6246TIP3    H140373   0.075   5.350   0.121  0.4609 -1.1202 -0.4472
 6246TIP3    H240374  -0.062   5.410   0.099  0.5527 -0.3566  0.9275
 6247TIP3   OH240375   0.524   3.663   8.055 -0.8716  0.1047  0.2394
 6247TIP3    H140376   0.542   3.643   7.963 -2.1957  0.0399 -0.0244
 6247TIP3    H240377   0.575   3.742   8.074 -1.0148  0.4324 -0.7138
 6248TIP3   OH240378   4.156   6.275   8.184 -0.1529  0.4248 -0.2347
 6248TIP3    H140379   4.079   6.231   8.221 -0.1793 -0.8247 -1.6723
 6248TIP3    H240380   4.230   6.220   8.208 -0.1058 -0.1041 -1.4815
 6249TIP3   OH240381   0.723   4.601   8.204 -0.1741 -0.5415  0.2777
 6249TIP3    H140382   0.728   4.622   8.111 -1.0373  0.3171  0.4046
 6249TIP3    H240383   0.768   4.674   8.247  0.2319 -0.9424  0.5317
 6250TIP3   OH240384   2.995   3.414   7.999 -0.7672 -0.3874 -0.2821
 6250TIP3    H140385   2.997   3.475   7.925  0.2353 -0.1191 -0.0595
 6250TIP3    H240386   3.020   3.330   7.961  1.0271  0.0068 -0.0579
 6251TIP3   OH240387   6.024   0.942   1.517 -0.3529  1.0677  0.5347
 6251TIP3    H140388   5.944   0.929   1.466 -0.2172  0.1939  0.5197
 6251TIP3    H240389   6.094   0.940   1.451 -0.1560 -0.3031  0.7495
 6252TIP3   OH240390   4.561   2.043   0.145 -0.3888  0.5755  0.2182
 6252TIP3    H140391   4.606   2.119   0.182 -0.0066  0.8793 -0.8424
 6252TIP3    H240392   4.491   2.080   0.092  1.0579  0.3205 -1.9912
 6253TIP3   OH240393   2.147   1.180   0.705  0.1658  0.4083 -0.6551
 6253TIP3    H140394   2.192   1.108   0.747  0.2326  2.0628  2.3948
 6253TIP3    H240395   2.216   1.241   0.680  0.0098  0.0962 -1.9278
 6254TIP3   OH240396   2.690   6.051   8.302  0.1573 -0.4633 -0.0534
 6254TIP3    H140397   2.738   5.969   8.297 -0.3997 -0.7551 -0.9484
 6254TIP3    H240398   2.752   6.113   8.341  1.5436 -0.6478 -1.8004
 6255TIP3   OH240399   2.062   1.006   7.349 -0.3871  0.4558 -0.1463
 6255TIP3    H140400   2.079   1.100   7.353  1.3892  0.1499  0.2973
 6255TIP3    H240401   2.043   0.982   7.439  1.3213  0.0583  0.1440
 6256TIP3   OH240402   1.844   2.787   7.318 -0.0418  0.1607 -0.3124
 6256TIP3    H140403   1.907   2.845   7.275  0.2794 -0.4868 -0.7290
 6256TIP3    H240404   1.898   2.722   7.362 -0.2967  1.5512  2.2275
 6257TIP3   OH240405   1.823   6.074   8.195  0.0646 -0.1287  0.0549
 6257TIP3    H140406   1.817   6.167   8.174 -1.4164 -0.4183 -0.9736
 6257TIP3    H240407   1.884   6.039   8.130 -1.2350 -0.2684 -1.1403
 6258TIP3   OH240408   4.239   1.025   0.885 -0.2328 -0.5854 -0.0425
 6258TIP3    H140409   4.309   0.973   0.845 -1.0525  0.4587 -3.1663
 6258TIP3    H240410   4.160   0.997   0.840 -1.7543 -1.0266  2.7058
 6259TIP3   OH240411   0.925   3.105   7.267  0.3841  0.3136 -0.3764
 6259TIP3    H140412   1.007   3.059   7.281  0.9466  1.5852  0.7965
 6259TIP3    H240413   0.933   3.145   7.181  1.3814  1.1542  0.0934
 6260TIP3   OH240414   0.443   5.528   0.176  0.1064  0.1875  0.4856
 6260TIP3    H140415   0.390   5.608   0.178 -1.4266 -0.8044  0.8609
 6260TIP3    H240416   0.387   5.463   0.134  1.1295 -0.8434  0.6652
 6261TIP3   OH240417   6.035   5.268   7.153 -0.1156  0.2262 -0.3624
 6261TIP3    H140418   6.030   5.346   7.209  1.7064 -1.0654  1.7575
 6261TIP3    H240419   6.112   5.284   7.097  0.8048 -0.3568  0.6890
 6262TIP3   OH240420   2.427   4.262   7.320  0.5982 -0.5430 -0.2398
 6262TIP3    H140421   2.364   4.332   7.341  1.5162  0.2304 -0.0241
 6262TIP3    H240422   2.413   4.196   7.388  0.5877  0.0038  0.2975
 6263TIP3   OH240423   2.808   5.688   6.359  0.3439 -0.0821  0.2450
 6263TIP3    H140424   2.897   5.711   6.332 -0.2887  0.9787 -1.0466
 6263TIP3    H240425   2.804   5.592   6.351  1.2271 -0.0950 -0.1494
 6264TIP3   OH240426   1.198   4.673   1.534  0.1154  0.0230  0.0121
 6264TIP3    H140427   1.248   4.614   1.590 -2.4233 -0.1973  2.2608
 6264TIP3    H240428   1.107   4.661   1.562 -0.6760  4.1592 -0.1949
 6265TIP3   OH240429   1.943   3.438   1.954 -0.0018  0.6258  0.3655
 6265TIP3    H140430   1.940   3.344   1.972 -0.7088  1.1101  3.2306
 6265TIP3    H240431   1.961   3.478   2.039  1.1698  3.0734 -0.9436
 6266TIP3   OH240432   0.159   3.055   0.576 -0.5620 -0.0639  0.2966
 6266TIP3    H140433   0.159   2.959   0.580  0.3959 -0.1567 -1.0668
 6266TIP3    H240434   0.243   3.081   0.614 -1.1327  0.2961  1.3437
 6267TIP3   OH240435   5.917   3.753   0.157  0.3990 -0.4481  0.0024
 6267TIP3    H140436   5.835   3.802   0.153 -0.9235 -2.5602 -0.0832
 6267TIP3    H240437   5.979   3.807   0.108 -0.9512  1.1254 -0.0767
 6268TIP3   OH240438   6.484   5.607   1.074 -0.6130 -0.4412 -0.4124
 6268TIP3    H140439   6.550   5.670   1.045  0.1814 -0.5988  1.0080
 6268TIP3    H240440   6.477   5.545   1.001  1.1441 -0.6787 -0.4124
 6269TIP3   OH240441   1.868   5.458   7.276 -0.2682 -0.1007 -0.4756
 6269TIP3    H140442   1.790   5.414   7.242 -0.3606 -2.3396  2.2126
 6269TIP3    H240443   1.858   5.549   7.249 -2.4714 -0.8172 -2.4398
 6270TIP3   OH240444   1.749   3.683   0.611  0.2600 -0.5856  0.1274
 6270TIP3    H140445   1.814   3.712   0.674  0.7772 -2.2599  0.3959
 6270TIP3    H240446   1.698   3.617   0.657 -1.0710  0.0482 -0.3698
 6271TIP3   OH240447   0.084   0.873   0.102  0.0594 -0.1311  0.1456
 6271TIP3    H140448  -0.006   0.892   0.128 -0.4349 -0.4894 -1.2571
 6271TIP3    H240449   0.076   0.808   0.033  1.3551  0.4094 -0.5432
 6272TIP3   OH240450   4.115   6.062   7.801 -0.5179 -0.5412  0.8995
 6272TIP3    H140451   4.207   6.063   7.826  0.3100  1.7639 -1.6942
 6272TIP3    H240452   4.071   6.014   7.871  2.4882 -0.8772  2.7170
 6273TIP3   OH240453   1.504   4.381   1.071 -0.2120  1.1398  0.4097
 6273TIP3    H140454   1.411   4.402   1.078 -0.6030 -0.2042 -0.3554
 6273TIP3    H240455   1.541   4.450   1.015 -1.7885 -0.8977 -3.5465
 6274TIP3   OH240456   5.047   2.214   0.742 -0.0335  0.6729 -0.1533
 6274TIP3    H140457   4.975   2.203   0.805  0.7213 -0.8927  0.4901
 6274TIP3    H240458   5.126   2.216   0.795  0.5420  0.4040 -0.9697
 6275TIP3   OH240459   2.160   1.428   8.480  0.7350  0.1885  0.2188
 6275TIP3    H140460   2.224   1.427   8.551  1.5158 -0.4182 -0.4704
 6275TIP3    H240461   2.135   1.520   8.471  0.3944  0.2395  1.4641
 6276TIP3   OH240462   6.636   2.831   7.039  0.2736 -0.0890 -0.6617
 6276TIP3    H140463   6.666   2.915   7.075 -0.5623 -0.2828  0.4988
 6276TIP3    H240464   6.591   2.855   6.958  0.3831  0.5500 -0.5383
 6277TIP3   OH240465   2.072   6.121   7.619  0.6514  0.5153 -0.0380
 6277TIP3    H140466   2.136   6.181   7.656  0.0156  0.2034  1.6215
 6277TIP3    H240467   2.011   6.103   7.690 -1.7698  1.4179 -1.7424
 6278TIP3   OH240468   4.127   3.898   7.619  0.3565  0.3698 -0.0672
 6278TIP3    H140469   4.056   3.960   7.634  0.8014  0.4217  2.3054
 6278TIP3    H240470   4.207   3.947   7.636  1.0870  0.4195 -3.0923
 6279TIP3   OH240471   1.365   1.646   7.282 -0.4077 -0.1841  0.6007
 6279TIP3    H140472   1.431   1.634   7.214  0.3969 -2.4897  1.6980
 6279TIP3    H240473   1.409   1.698   7.349 -0.7338  0.8516  0.0369
 6280TIP3   OH240474   2.693   1.274   8.676  0.2899 -0.7275  0.5506
 6280TIP3    H140475   2.626   1.342   8.664 -0.7190 -1.6252  0.9130
 6280TIP3    H240476   2.669   1.207   8.612  2.7484  0.2887 -1.6284
 6281TIP3   OH240477   1.738   3.754   7.730 -0.1554  0.1916 -0.2248
 6281TIP3    H140478   1.811   3.739   7.670  0.6216  1.0468  0.4638
 6281TIP3    H240479   1.715   3.846   7.718  0.1448  0.4263  0.9134
 6282TIP3   OH240480   1.672   6.791   6.397  0.1268 -0.2442  0.3753
 6282TIP3    H140481   1.626   6.869   6.366  0.6260  0.0352  0.3272
 6282TIP3    H240482   1.606   6.722   6.396 -0.4666  0.3072  0.9657
 6283TIP3   OH240483   3.548   3.828   6.886  0.0010 -0.3775  0.1855
 6283TIP3    H140484   3.532   3.750   6.833 -1.0173 -0.8521  1.1353
 6283TIP3    H240485   3.557   3.795   6.975  0.8795  0.4766  0.4326
 6284TIP3   OH240486   1.265   1.398   7.346  0.6357 -0.0318  0.0563
 6284TIP3    H140487   1.215   1.412   7.426 -1.7829  0.7527 -1.4725
 6284TIP3    H240488   1.302   1.484   7.325 -0.3598  0.2449 -0.6419
 6285TIP3   OH240489   1.081   2.077   7.872  0.4884  0.5476 -0.2679
 6285TIP3    H140490   1.020   2.067   7.945  2.6975  1.9256  1.9338
 6285TIP3    H240491   1.096   1.988   7.841  1.0551 -0.3923  2.4053
 6286TIP3   OH240492   0.110   3.859   7.331  0.3339 -0.0263 -1.0770
 6286TIP3    H140493   0.147   3.780   7.372  2.0176  0.5517 -1.4150
 6286TIP3    H240494   0.091   3.833   7.241  0.5100 -0.1560 -1.0766
 6287TIP3   OH240495   2.350   5.998   0.985  0.3033  0.1594  0.0703
 6287TIP3    H140496   2.318   5.939   1.053  0.7107 -2.3880 -1.8003
 6287TIP3    H240497   2.443   6.010   1.006  0.4257 -0.6155  0.0151
 6288TIP3   OH240498   0.642   6.633   6.170 -0.1776  0.0712 -0.1549
 6288TIP3    H140499   0.586   6.641   6.247  0.2723  0.8129  0.1049
 6288TIP3    H240500   0.718   6.688   6.189 -0.4349  0.9386 -1.4578
 6289TIP3   OH240501   2.623   6.001   1.454  0.0467 -0.0989  0.2347
 6289TIP3    H140502   2.646   5.909   1.443 -0.9747 -0.1782 -1.5380
 6289TIP3    H240503   2.698   6.039   1.500 -0.1350 -2.0775  2.3599
 6290TIP3   OH240504   0.208   0.270   7.560  0.0941 -0.0802 -0.3880
 6290TIP3    H140505   0.113   0.260   7.569  0.3894 -1.7561  1.6142
 6290TIP3    H240506   0.236   0.302   7.646  1.1952  2.1601 -1.5004
 6291TIP3   OH240507   6.712   0.018   0.978  0.0220  0.2050  0.1574
 6291TIP3    H140508   6.670   0.082   1.034  0.8739  2.5114 -1.6793
 6291TIP3    H240509   6.757   0.070   0.911  3.1782 -2.1735  0.2002
 6292TIP3   OH240510   4.687   0.761   7.794 -1.0349 -0.4324  0.1461
 6292TIP3    H140511   4.653   0.752   7.883 -3.5492  0.2355 -0.6483
 6292TIP3    H240512   4.781   0.750   7.803 -1.2226 -0.5905  2.8493
 6293TIP3   OH240513   5.357   1.861   6.174 -0.3435  0.4368 -0.4180
 6293TIP3    H140514   5.452   1.865   6.166  0.1012 -3.4937  1.0916
 6293TIP3    H240515   5.340   1.871   6.267 -1.4910  1.1312 -0.6709
 6294TIP3   OH240516   6.773   6.788   7.179  0.4603 -0.0186  0.0563
 6294TIP3    H140517   6.702   6.774   7.240  0.4762  2.0335  0.6315
 6294TIP3    H240518   6.852   6.760   7.226  0.0683 -2.9634 -0.8344
 6295TIP3   OH240519   1.103   3.183   7.016  0.2123  0.0793  0.1435
 6295TIP3    H140520   1.190   3.224   7.023  0.0383  0.4145  0.3709
 6295TIP3    H240521   1.105   3.137   6.932  0.4680  0.4315 -0.0477
 6296TIP3   OH240522   0.963   5.973   1.620  0.3579  0.4431  0.1030
 6296TIP3    H140523   0.900   5.976   1.692  0.2226  0.8689 -0.0340
 6296TIP3    H240524   1.032   6.033   1.646 -0.4454  1.8157 -0.8269
 6297TIP3   OH240525   5.740   3.431   1.943 -0.2856 -0.3984 -0.1404
 6297TIP3    H140526   5.651   3.437   1.909 -0.0636 -1.0196 -0.8550
 6297TIP3    H240527   5.735   3.363   2.010 -0.3300 -0.5208 -0.2661
 6298TIP3   OH240528   2.239   3.307   6.642 -0.5831  0.0930 -0.1197
 6298TIP3    H140529   2.214   3.224   6.682  0.2769  0.2570  0.7968
 6298TIP3    H240530   2.333   3.315   6.658 -0.3363  0.5112 -1.5734
 6299TIP3   OH240531   5.648   0.294   8.105  0.3855 -0.1775  0.3871
 6299TIP3    H140532   5.611   0.206   8.110 -1.2605  0.4805  0.4423
 6299TIP3    H240533   5.638   0.319   8.013  1.8667 -0.4404  0.1302
 6300TIP3   OH240534   4.123   3.137   1.734 -0.0201  0.0434 -0.0467
 6300TIP3    H140535   4.119   3.098   1.821  0.5855  0.1809  0.0532
 6300TIP3    H240536   4.076   3.076   1.677  3.1580 -2.3619 -0.4302
 6301TIP3   OH240537   3.486   1.912   8.140 -0.0971 -0.0068 -0.2120
 6301TIP3    H140538   3.408   1.865   8.168  0.2658 -0.2232  0.4683
 6301TIP3    H240539   3.552   1.891   8.207  0.0034  1.6732  0.2513
 6302TIP3   OH240540   1.767   4.111   7.028 -0.5652  0.4972  0.0866
 6302TIP3    H140541   1.804   4.164   7.099 -1.1115 -0.2384  0.9384
 6302TIP3    H240542   1.797   4.022   7.046 -1.5596  0.1279 -0.0111
 6303TIP3   OH240543   2.402   4.305   6.753  0.3113  0.4551  0.0833
 6303TIP3    H140544   2.411   4.217   6.716  1.7086 -0.6251  2.7353
 6303TIP3    H240545   2.375   4.291   6.843  0.8520  2.7453  0.6780
 6304TIP3   OH240546   3.663   6.643   7.768 -0.0961 -0.1713  0.2074
 6304TIP3    H140547   3.758   6.634   7.754  0.1031  0.9384  0.7768
 6304TIP3    H240548   3.652   6.637   7.863 -0.7790 -1.7439  0.0570
 6305TIP3   OH240549   6.425   1.036   0.276  0.0437  0.1804  0.1005
 6305TIP3    H140550   6.348   1.057   0.223 -0.4321  0.1020  0.7416
 6305TIP3    H240551   6.496   1.087   0.238 -0.3703  0.3902 -0.3925
 6306TIP3   OH240552   0.110   3.141   7.811  0.5651  0.2111 -0.3922
 6306TIP3    H140553   0.032   3.086   7.804  0.4073  0.2416  0.8538
 6306TIP3    H240554   0.104   3.202   7.737 -0.5728  0.1767 -0.3388
 6307TIP3   OH240555   2.840   1.778   0.086 -0.6761  0.3423 -0.4020
 6307TIP3    H140556   2.920   1.831   0.091  0.5582 -1.2878 -1.4513
 6307TIP3    H240557   2.807   1.793  -0.003  1.7329 -3.1751 -2.1487
 6308TIP3   OH240558   4.508   3.747   8.695 -0.2594  0.3007 -0.1839
 6308TIP3    H140559   4.451   3.685   8.650  0.2183 -0.9840  0.8995
 6308TIP3    H240560   4.576   3.692   8.734 -0.3740  1.4041  1.6618
 6309TIP3   OH240561   3.516   5.528   0.382  0.4081 -0.1363 -0.2616
 6309TIP3    H140562   3.526   5.467   0.455  0.9587 -0.1097 -0.3153
 6309TIP3    H240563   3.559   5.608   0.412 -1.0144  0.5136  0.1375
 6310TIP3   OH240564   5.219   3.420   8.334  0.2637 -0.3297 -0.0060
 6310TIP3    H140565   5.310   3.433   8.360  0.1845  2.2235 -0.7097
 6310TIP3    H240566   5.184   3.509   8.323 -2.4392 -1.2245  0.5969
 6311TIP3   OH240567   2.485   4.220   0.400 -0.1795 -0.8589 -0.1689
 6311TIP3    H140568   2.504   4.307   0.436 -0.6202 -1.0933  0.6534
 6311TIP3    H240569   2.513   4.225   0.308  1.3473 -0.3720  0.3021
 6312TIP3   OH240570   1.290   5.405   7.648 -0.1825 -0.5353 -0.2836
 6312TIP3    H140571   1.219   5.353   7.685  0.6211 -1.0989  0.5226
 6312TIP3    H240572   1.260   5.495   7.656 -1.5516 -0.8367 -1.5985
 6313TIP3   OH240573   5.296   3.582   7.037 -0.1517  0.2629 -0.4129
 6313TIP3    H140574   5.276   3.619   7.122 -2.3226 -0.6330 -0.4785
 6313TIP3    H240575   5.223   3.608   6.981  1.0092  0.4619 -1.9220
 6314TIP3   OH240576   2.722   4.298   6.113 -0.2597 -0.3276  0.0119
 6314TIP3    H140577   2.762   4.229   6.061  0.7655 -0.0289  0.3864
 6314TIP3    H240578   2.628   4.285   6.102 -0.1227 -2.3682  0.8172
 6315TIP3   OH240579   6.477   5.454   8.295 -0.3180  0.4466  1.2397
 6315TIP3    H140580   6.551   5.514   8.286 -0.9862  1.1819  0.5284
 6315TIP3    H240581   6.433   5.482   8.375 -0.8235  1.1541  0.7321
 6316TIP3   OH240582   6.600   4.479   0.552  0.4381 -0.0249 -0.4857
 6316TIP3    H140583   6.689   4.507   0.531  0.3203  1.5163  0.8803
 6316TIP3    H240584   6.603   4.383   0.547  2.1464  0.0032 -0.5214
 6317TIP3   OH240585   5.816   1.825   0.146  0.2056  0.2721 -0.1037
 6317TIP3    H140586   5.810   1.784   0.233 -0.0964  1.4584  0.4519
 6317TIP3    H240587   5.726   1.834   0.117  0.0875  2.3874  0.7053
 6318TIP3   OH240588   6.428   3.154   2.207  0.0500 -0.0935  0.5264
 6318TIP3    H140589   6.439   3.239   2.250  1.5960  0.4297 -0.8165
 6318TIP3    H240590   6.415   3.092   2.279 -2.5708  1.4090  1.5129
 6319TIP3   OH240591   4.197   2.826   8.010  0.5344  0.4690 -0.3026
 6319TIP3    H140592   4.196   2.878   7.929  0.4168 -1.2152 -1.4278
 6319TIP3    H240593   4.109   2.788   8.016  0.2832  1.2064  1.0727
 6320TIP3   OH240594   4.452   6.094   6.425  0.3820  0.0875 -0.4208
 6320TIP3    H140595   4.409   6.175   6.454 -0.3894 -0.0572 -1.1178
 6320TIP3    H240596   4.442   6.034   6.499 -0.4359  0.1303 -0.4859
 6321TIP3   OH240597   3.940   3.132   6.990 -0.1117  0.2237 -0.0082
 6321TIP3    H140598   3.854   3.154   6.954 -0.0220  0.1165 -0.2923
 6321TIP3    H240599   3.938   3.165   7.080 -0.6514 -0.2473  0.1658
 6322TIP3   OH240600   1.579   3.729   6.408 -0.0022  1.0373 -0.3589
 6322TIP3    H140601   1.518   3.802   6.411 -0.6548  0.4871  0.0539
 6322TIP3    H240602   1.596   3.716   6.315 -0.0634  1.5686 -0.4447
 6323TIP3   OH240603   5.940   4.150   8.024  0.1571 -0.3683 -0.6454
 6323TIP3    H140604   5.896   4.200   7.954 -0.0338  1.7695  0.9110
 6323TIP3    H240605   5.872   4.139   8.091  0.8771 -0.6930  0.0379
 6324TIP3   OH240606   1.154   5.660   8.565 -0.1952 -0.4128 -0.4810
 6324TIP3    H140607   1.179   5.749   8.589 -0.3705 -0.6375  0.5851
 6324TIP3    H240608   1.196   5.645   8.480 -1.1081  1.0909 -1.2464
 6325TIP3   OH240609   2.680   3.535   0.469 -0.3273  0.1085  0.1187
 6325TIP3    H140610   2.723   3.619   0.485 -0.3772  0.0957  0.3156
 6325TIP3    H240611   2.592   3.545   0.504  0.4951 -0.9424  2.7768
 6326TIP3   OH240612   6.271   3.738   0.238 -0.0676  0.4723 -0.4136
 6326TIP3    H140613   6.349   3.753   0.185  0.6426  1.3185  0.8229
 6326TIP3    H240614   6.233   3.657   0.203  0.3499  1.0070 -2.1992
 6327TIP3   OH240615   6.291   0.030   6.529 -0.2708  0.1374  0.1281
 6327TIP3    H140616   6.270  -0.063   6.537  1.1118 -0.0967  1.5453
 6327TIP3    H240617   6.350   0.035   6.454 -0.8118 -0.0190 -0.3192
 6328TIP3   OH240618   5.137   1.842   1.214 -0.3123 -0.1485 -0.3865
 6328TIP3    H140619   5.222   1.857   1.254  0.4671  1.1376 -2.3998
 6328TIP3    H240620   5.148   1.760   1.165 -0.4130 -0.2449 -0.2519
 6329TIP3   OH240621   3.395   1.363   0.033 -0.1070 -0.0267  0.0975
 6329TIP3    H140622   3.464   1.428   0.024  0.0727 -0.1406  0.6137
 6329TIP3    H240623   3.387   1.324  -0.054  1.4679 -1.0043  0.3405
 6330TIP3   OH240624   0.171   5.969   0.183 -0.2656  0.1133 -0.1551
 6330TIP3    H140625   0.184   6.062   0.204 -0.0517 -0.4354  2.4442
 6330TIP3    H240626   0.117   5.970   0.105 -1.4963  2.4533  0.6322
 6331TIP3   OH240627   0.837   5.665   7.624 -0.7375 -0.3685  0.0196
 6331TIP3    H140628   0.826   5.572   7.645 -0.7474 -0.0743  1.4583
 6331TIP3    H240629   0.778   5.709   7.685  0.2120  0.6425  0.2369
 6332TIP3   OH240630   4.184   0.066   8.692 -0.0517  0.8989 -0.2440
 6332TIP3    H140631   4.166   0.135   8.628  0.5287  0.1800 -1.2357
 6332TIP3    H240632   4.108   0.008   8.687  0.2443  0.5390 -0.7275
 6333TIP3   OH240633   3.516   0.435   8.107 -0.5631  0.0139  0.4084
 6333TIP3    H140634   3.587   0.473   8.158 -1.9979  1.2335  1.6016
 6333TIP3    H240635   3.481   0.365   8.162 -0.5247 -0.3440 -0.0150
 6334TIP3   OH240636   1.041   3.548   5.949 -0.1305 -0.4482  0.2147
 6334TIP3    H140637   1.083   3.630   5.921  0.6845 -1.0023 -0.2598
 6334TIP3    H240638   1.063   3.541   6.042 -0.4074 -0.0123  0.3159
 6335TIP3   OH240639   5.459   0.167   7.781 -0.3809  0.4984  0.1661
 6335TIP3    H140640   5.525   0.232   7.802  0.5044  0.2237 -1.5304
 6335TIP3    H240641   5.448   0.116   7.861  1.1514  0.8408  0.6232
 6336TIP3   OH240642   2.744   5.405   7.671  0.0751  0.3031  0.1816
 6336TIP3    H140643   2.693   5.485   7.679  0.6058  0.7125 -0.4429
 6336TIP3    H240644   2.700   5.355   7.602  1.4236  1.3820 -1.5154
 6337TIP3   OH240645   3.197   5.089   0.270  0.1159  0.0369 -0.0361
 6337TIP3    H140646   3.183   5.028   0.342  0.2375 -1.7493 -1.4548
 6337TIP3    H240647   3.198   5.175   0.311 -2.0326 -0.7189  1.7969
 6338TIP3   OH240648   3.434   6.455   7.950  0.1838 -0.0443  0.5302
 6338TIP3    H140649   3.475   6.393   7.890  0.4949 -0.8784  1.5795
 6338TIP3    H240650   3.349   6.474   7.910  0.1880 -0.9504  0.0623
 6339TIP3   OH240651   6.779   1.576   7.317  0.0221 -0.5303  0.0148
 6339TIP3    H140652   6.873   1.573   7.300 -0.2372 -2.4581 -1.3409
 6339TIP3    H240653   6.741   1.612   7.237 -0.4210  0.3880  0.6141
 6340TIP3   OH240654   2.515   4.063   2.314 -0.8063  0.4061 -0.3717
 6340TIP3    H140655   2.597   4.054   2.265 -0.2239  0.3168  0.5995
 6340TIP3    H240656   2.519   3.995   2.380 -0.1331  2.3824  1.7763
 6341TIP3   OH240657   3.302   5.393   7.935  0.2921  0.4629 -0.2447
 6341TIP3    H140658   3.252   5.453   7.880  0.6465  0.5445 -0.4820
 6341TIP3    H240659   3.266   5.406   8.023  2.3692  3.3173  0.3376
 6342TIP3   OH240660   1.380   5.786   8.174  0.0904  0.2733  0.3182
 6342TIP3    H140661   1.474   5.807   8.167 -0.2366  1.5282 -0.8321
 6342TIP3    H240662   1.349   5.787   8.084 -1.0770  0.0119  0.7014
 6343TIP3   OH240663   1.826   2.287   1.105  0.0643  0.2776 -0.2384
 6343TIP3    H140664   1.893   2.348   1.136 -1.3111  2.3106 -1.0716
 6343TIP3    H240665   1.780   2.335   1.036 -0.3079 -2.1873 -1.8030
 6344TIP3   OH240666   4.246   6.368   0.593 -0.0235  0.9147 -0.3460
 6344TIP3    H140667   4.245   6.347   0.499 -0.5236 -1.6177  0.1338
 6344TIP3    H240668   4.153   6.381   0.614 -0.6699 -3.5170  0.6078
 6345TIP3   OH240669   4.433   5.264   0.515 -0.1885  0.2235 -0.4055
 6345TIP3    H140670   4.451   5.347   0.560 -1.8529 -0.6291  2.0671
 6345TIP3    H240671   4.518   5.233   0.486  0.6845  1.9383  0.2042
 6346TIP3   OH240672   1.794   2.676   0.500 -0.0323 -0.4398 -0.4384
 6346TIP3    H140673   1.811   2.650   0.591 -1.3816  0.4271  0.0931
 6346TIP3    H240674   1.827   2.765   0.494 -0.3483 -0.3382 -0.6704
 6347TIP3   OH240675   5.388   3.739   0.436 -0.5644  0.1557 -0.4332
 6347TIP3    H140676   5.449   3.751   0.363  0.8243  1.1976  0.8187
 6347TIP3    H240677   5.382   3.644   0.447 -0.0045  0.0104 -1.2673
 6348TIP3   OH240678   5.001   4.740   2.194  0.0253  0.0713  0.4501
 6348TIP3    H140679   4.970   4.816   2.242 -1.8967 -0.9038  0.8330
 6348TIP3    H240680   4.958   4.665   2.235 -0.1206 -0.9965 -1.4898
 6349TIP3   OH240681   6.731   2.711   0.393  0.3441 -0.9985 -0.2488
 6349TIP3    H140682   6.671   2.782   0.418  2.3754  0.4426  0.7621
 6349TIP3    H240683   6.714   2.699   0.299 -0.5501  0.3456 -0.2989
 6350TIP3   OH240684   2.896   0.731   1.461  0.6504  0.2458  0.7086
 6350TIP3    H140685   2.988   0.705   1.451  0.8682  0.4479  1.9475
 6350TIP3    H240686   2.851   0.650   1.486  0.7418  0.4023  1.4008
 6351TIP3   OH240687   0.856   0.880   8.302 -0.3979  0.4100  0.3445
 6351TIP3    H140688   0.931   0.822   8.311 -1.9886 -2.5064 -2.9150
 6351TIP3    H240689   0.781   0.827   8.329 -1.6184  2.3615  1.0477
 6352TIP3   OH240690   0.549   0.192   7.935 -0.0470 -0.1890  0.4959
 6352TIP3    H140691   0.519   0.135   7.864 -1.3144  0.8974  0.1108
 6352TIP3    H240692   0.490   0.267   7.932  0.6511  0.4628  1.9269
 6353TIP3   OH240693   2.016   4.964   7.808  0.1061  0.4345  0.2340
 6353TIP3    H140694   1.962   4.889   7.783  0.7431  0.1353 -0.2550
 6353TIP3    H240695   2.014   4.963   7.904 -2.5464  1.7426  0.2886
 6354TIP3   OH240696   3.628   1.519   6.995  0.0216  0.1976  0.4210
 6354TIP3    H140697   3.576   1.457   7.046  0.7293 -1.2043 -0.4934
 6354TIP3    H240698   3.567   1.590   6.973 -1.0265 -0.5668  0.7890
 6355TIP3   OH240699   5.924   2.357   7.988  0.5758 -0.0549 -0.5557
 6355TIP3    H140700   5.836   2.374   8.022  1.2336 -0.7962  1.6917
 6355TIP3    H240701   5.981   2.415   8.040  1.5395 -0.3377 -1.2631
 6356TIP3   OH240702   0.056   1.721   7.000 -0.4147 -0.5976 -0.1261
 6356TIP3    H140703   0.121   1.661   6.963  0.1883  0.8423 -1.5157
 6356TIP3    H240704  -0.028   1.678   6.983  0.0774 -2.3257  1.3993
 6357TIP3   OH240705   3.616   1.074   6.805 -0.4295 -0.0074  0.0505
 6357TIP3    H140706   3.639   1.114   6.721  1.5357 -0.1782  0.4400
 6357TIP3    H240707   3.633   0.980   6.792  0.4760  0.0360  0.7703
 6358TIP3   OH240708   1.645   3.901   8.289 -0.3038  0.4592  0.8135
 6358TIP3    H140709   1.610   3.972   8.236 -1.0624 -0.3523  0.1927
 6358TIP3    H240710   1.605   3.822   8.253  2.5402 -0.6325 -0.2991
 6359TIP3   OH240711   5.063   5.027   1.874  0.8417  0.0394  0.0176
 6359TIP3    H140712   5.135   4.990   1.925  0.9473 -1.8161 -1.3835
 6359TIP3    H240713   5.105   5.060   1.794  0.1264 -1.3297 -0.9429
 6360TIP3   OH240714   3.628   0.729   0.544 -0.1162  0.1615 -0.1448
 6360TIP3    H140715   3.711   0.727   0.497 -0.0590 -2.6177 -0.1032
 6360TIP3    H240716   3.568   0.680   0.487 -1.6948  1.8792 -0.0446
 6361TIP3   OH240717   0.809   4.216   8.611  0.2337 -0.2614 -0.4776
 6361TIP3    H140718   0.727   4.263   8.595  0.1133 -0.8168 -1.5869
 6361TIP3    H240719   0.789   4.154   8.680  0.8297  2.4130  2.3057
 6362TIP3   OH240720   4.422   0.029   1.630 -0.2516 -0.2477  0.2129
 6362TIP3    H140721   4.508  -0.002   1.599 -0.6044 -1.4437  0.3829
 6362TIP3    H240722   4.405  -0.024   1.707  0.7360  2.8360  2.7674
 6363TIP3   OH240723   1.740   0.892   6.548 -0.4726  0.1125 -0.5758
 6363TIP3    H140724   1.685   0.868   6.474 -0.8831 -0.7859 -0.0123
 6363TIP3    H240725   1.811   0.828   6.547  1.0450  1.7562 -1.7685
 6364TIP3   OH240726   5.517   0.978   8.506  0.8209  0.1464  0.0328
 6364TIP3    H140727   5.508   0.910   8.440 -0.5475  0.4258 -0.1151
 6364TIP3    H240728   5.462   0.948   8.579  0.4306  0.9354  0.0763
 6365TIP3   OH240729   5.215   0.686   7.771 -0.1621 -0.1725 -0.2989
 6365TIP3    H140730   5.282   0.748   7.741 -1.7119  1.4041 -0.7408
 6365TIP3    H240731   5.261   0.603   7.781  2.0342  1.0461  0.3521
 6366TIP3   OH240732   2.712   3.141   7.788 -0.5997 -0.1871  0.1554
 6366TIP3    H140733   2.768   3.065   7.807  0.0780  0.7494  2.2587
 6366TIP3    H240734   2.678   3.167   7.874  0.0326  2.4939 -0.3237
 6367TIP3   OH240735   3.920   0.248   8.002  0.3337 -0.5363 -0.1627
 6367TIP3    H140736   3.865   0.320   8.034 -0.4543 -1.1089 -0.1921
 6367TIP3    H240737   3.982   0.290   7.942  0.5746  0.2623  0.6311
 6368TIP3   OH240738   3.040   1.627   8.106  0.8815 -0.3285 -0.5738
 6368TIP3    H140739   3.071   1.552   8.055 -1.5449 -1.4957 -0.4492
 6368TIP3    H240740   2.974   1.669   8.050 -0.1088 -0.2225  0.6311
 6369TIP3   OH240741   5.772   3.309   7.816  0.0264 -0.4527  0.3706
 6369TIP3    H140742   5.808   3.375   7.875  0.4768 -1.3731  1.1628
 6369TIP3    H240743   5.783   3.226   7.863 -0.1492 -1.1484 -0.7646
 6370TIP3   OH240744   0.848   2.623   6.380  0.2779  0.0143  0.2270
 6370TIP3    H140745   0.898   2.705   6.377 -0.1578  0.2530 -0.5892
 6370TIP3    H240746   0.916   2.555   6.384  0.6457  0.3924  0.6199
 6371TIP3   OH240747   0.236   5.087   8.185 -0.3703 -0.2897  0.0659
 6371TIP3    H140748   0.190   5.097   8.102  0.1807  0.1088 -0.1987
 6371TIP3    H240749   0.322   5.052   8.161 -0.3246 -0.4940  0.5013
 6372TIP3   OH240750   5.842   4.582   1.734  0.0519 -0.3234 -0.4568
 6372TIP3    H140751   5.850   4.638   1.811 -1.0753 -0.4222 -0.2528
 6372TIP3    H240752   5.796   4.504   1.765 -0.1444 -0.4967 -1.1632
 6373TIP3   OH240753   3.374   4.342   7.515  0.1799 -0.1553 -0.1135
 6373TIP3    H140754   3.426   4.349   7.595  1.7680  0.8921 -1.1743
 6373TIP3    H240755   3.401   4.260   7.475 -0.5708 -0.6503  0.3769
 6374TIP3   OH240756   1.277   2.939   7.642 -0.3203 -0.4237 -0.0509
 6374TIP3    H140757   1.372   2.947   7.649 -0.2725  0.4215 -1.2893
 6374TIP3    H240758   1.243   3.012   7.694 -0.2506 -0.0415 -0.5348
 6375TIP3   OH240759   1.675   0.182   8.441  0.1408  0.3577  0.0188
 6375TIP3    H140760   1.595   0.178   8.493  0.5282 -0.0485  0.6060
 6375TIP3    H240761   1.733   0.117   8.482  0.6566  0.4329 -0.5802
 6376TIP3   OH240762   3.150   3.504   7.380 -0.6548 -1.2246  0.4064
 6376TIP3    H140763   3.215   3.479   7.314  1.2978  0.1186  1.7184
 6376TIP3    H240764   3.166   3.445   7.454  1.4672  1.1832  2.0514
 6377TIP3   OH240765   0.983   1.710   7.373 -0.2648  0.3379  0.4407
 6377TIP3    H140766   1.050   1.737   7.310 -0.0593 -1.2765 -0.0870
 6377TIP3    H240767   1.033   1.686   7.451 -0.4879  1.9100  1.1153
 6378TIP3   OH240768   4.057   3.552   1.672  0.1611  0.4404 -0.9290
 6378TIP3    H140769   4.057   3.568   1.577 -0.1846  0.4852 -0.9225
 6378TIP3    H240770   4.130   3.603   1.705  0.7581 -0.1791 -1.2723
 6379TIP3   OH240771   5.035   5.204   1.409 -0.4777 -0.2464  0.9638
 6379TIP3    H140772   4.945   5.173   1.402 -0.7267  0.7784 -1.2233
 6379TIP3    H240773   5.027   5.298   1.426  0.1766 -0.2405  1.2503
 6380TIP3   OH240774   5.193   1.883   7.367  0.0718 -0.3242  0.1870
 6380TIP3    H140775   5.168   1.848   7.281  0.6545  0.0275 -0.1368
 6380TIP3    H240776   5.238   1.811   7.411 -2.1408 -1.2210  1.0915
 6381TIP3   OH240777   5.236   0.338   7.798  0.0459 -0.0412 -0.2491
 6381TIP3    H140778   5.203   0.360   7.711 -1.1050  1.9572  0.6140
 6381TIP3    H240779   5.297   0.265   7.784 -1.1778 -0.7003 -2.5141
 6382TIP3   OH240780   5.232   1.748   2.134  0.2130 -0.4249 -0.0108
 6382TIP3    H140781   5.289   1.730   2.209  0.1108 -0.4553  0.0585
 6382TIP3    H240782   5.155   1.791   2.171  0.6993  0.6762 -0.2347
 6383TIP3   OH240783   2.628   3.366   8.231  0.1990 -0.1073 -0.1921
 6383TIP3    H140784   2.679   3.402   8.304  0.7123  1.0555 -1.0880
 6383TIP3    H240785   2.537   3.387   8.253  0.3371  0.0742  0.2103
 6384TIP3   OH240786   3.132   2.313   8.100 -0.8078  0.3626 -0.2284
 6384TIP3    H140787   3.167   2.337   8.186 -1.5387  0.3963  0.0639
 6384TIP3    H240788   3.125   2.218   8.102 -2.0321  0.4547  0.2280
 6385TIP3   OH240789   4.115   0.789   1.354  0.0843  0.1052 -0.1701
 6385TIP3    H140790   4.097   0.858   1.418  0.6076 -2.0571  2.4916
 6385TIP3    H240791   4.205   0.806   1.326  0.1447  0.6132  0.3130
 6386TIP3   OH240792   1.757   1.178   6.555  0.3882  0.0482 -0.7467
 6386TIP3    H140793   1.781   1.086   6.547  1.5618  0.2959 -0.2724
 6386TIP3    H240794   1.664   1.181   6.531  0.6317 -1.0647 -1.9196
 6387TIP3   OH240795   2.790   2.213   2.206 -0.3311  0.3808 -0.6171
 6387TIP3    H140796   2.742   2.292   2.183 -0.8340  0.7821  1.5546
 6387TIP3    H240797   2.881   2.241   2.215 -0.5875  0.8471  0.6405
 6388TIP3   OH240798   0.572   3.121   7.106  0.0439 -0.0009 -0.0897
 6388TIP3    H140799   0.613   3.193   7.153  0.6790  1.1495 -2.2750
 6388TIP3    H240800   0.644   3.063   7.082 -0.0966  0.0518 -0.6566
 6389TIP3   OH240801   1.697   4.828   7.004 -0.2511  0.4935  0.3754
 6389TIP3    H140802   1.610   4.838   6.964 -0.0414  0.7910 -0.0099
 6389TIP3    H240803   1.753   4.887   6.955  0.7373 -1.5472 -1.0880
 6390TIP3   OH240804   3.585   5.268   1.876 -0.1860 -0.7002 -0.5795
 6390TIP3    H140805   3.523   5.319   1.927 -0.5170 -0.0348 -1.6051
 6390TIP3    H240806   3.612   5.197   1.934 -0.3514  0.1677  0.5855
 6391TIP3   OH240807   4.921   1.282   1.243  0.0426 -0.4363  0.2003
 6391TIP3    H140808   4.837   1.295   1.286  1.1158 -1.1260  2.7219
 6391TIP3    H240809   4.946   1.192   1.265  1.8661  0.0678  0.3736
 6392TIP3   OH240810   2.844   4.815   0.629 -0.0048  0.4327 -0.3771
 6392TIP3    H140811   2.791   4.891   0.609 -2.1641 -0.3251  2.0495
 6392TIP3    H240812   2.880   4.832   0.716  0.7022 -0.6947 -0.4251
 6393TIP3   OH240813   0.815   5.912   8.174  0.2182  0.6341  0.6243
 6393TIP3    H140814   0.795   5.832   8.126 -0.5331 -0.5014  2.6742
 6393TIP3    H240815   0.734   5.962   8.171  0.3134  0.7668  0.3176
 6394TIP3   OH240816   2.206   4.473   7.348 -0.0567 -0.2625  0.2284
 6394TIP3    H140817   2.202   4.538   7.278  0.3583  1.2979  1.5893
 6394TIP3    H240818   2.229   4.523   7.426  0.0726 -2.0297  1.3851
 6395TIP3   OH240819   0.037   3.947   0.018 -0.3737 -0.0688  0.2936
 6395TIP3    H140820   0.052   3.873   0.077 -1.7655  0.9230  2.0106
 6395TIP3    H240821  -0.053   3.974   0.037 -0.0913  1.7184 -0.6875
 6396TIP3   OH240822   3.923   4.378   0.251 -0.2551  0.3153 -0.0555
 6396TIP3    H140823   3.847   4.364   0.195  0.3632  0.9546 -1.1025
 6396TIP3    H240824   3.987   4.422   0.194  0.6153  0.4742  0.9997
 6397TIP3   OH240825   1.890   0.809   0.674  0.2100  0.1444 -0.2675
 6397TIP3    H140826   1.927   0.863   0.604  1.4279 -2.1985 -1.5362
 6397TIP3    H240827   1.912   0.855   0.755  0.1093  2.1328 -1.3167
 6398TIP3   OH240828   2.799   3.933   8.324 -0.3856 -0.0782 -0.1102
 6398TIP3    H140829   2.787   3.957   8.416  0.9982  0.2130  0.0166
 6398TIP3    H240830   2.762   3.845   8.318 -1.2113  0.2054  0.5299
 6399TIP3   OH240831   1.813   6.534   6.277  0.3227  0.1816 -0.2867
 6399TIP3    H140832   1.815   6.536   6.373  0.5132 -0.0795 -0.2852
 6399TIP3    H240833   1.720   6.530   6.255  0.2767 -3.1778 -0.0245
 6400TIP3   OH240834   6.824   2.706   0.749 -0.6044 -0.8051  0.7716
 6400TIP3    H140835   6.896   2.749   0.795  0.8540  0.2762 -2.3181
 6400TIP3    H240836   6.862   2.626   0.712 -0.5306  0.3860 -1.9352
 6401TIP3   OH240837   1.657   5.056   0.795 -0.4437 -0.3521 -0.0245
 6401TIP3    H140838   1.715   5.129   0.773  1.3363 -1.9576 -0.9031
 6401TIP3    H240839   1.694   5.019   0.875 -1.3121 -0.3523  0.3953
 6402TIP3   OH240840   0.520   4.531   8.677  0.6607  0.4130  0.2036
 6402TIP3    H140841   0.489   4.551   8.588  2.0823  0.3461 -0.3220
 6402TIP3    H240842   0.466   4.587   8.733 -0.8802 -0.1945 -0.5960
 6403TIP3   OH240843   5.867   1.128   8.128  0.3437  0.1248 -0.3296
 6403TIP3    H140844   5.883   1.099   8.038 -0.2704  1.2479 -0.8128
 6403TIP3    H240845   5.773   1.116   8.141  0.0414  1.9503 -0.5921
 6404TIP3   OH240846   5.670   0.807   0.729 -0.4482  0.5573 -0.3174
 6404TIP3    H140847   5.604   0.838   0.667 -0.6688  0.1825 -0.2710
 6404TIP3    H240848   5.672   0.712   0.716  0.7166  0.6494 -0.9536
 6405TIP3   OH240849   4.984   2.556   8.092 -0.3250  0.2404 -0.2665
 6405TIP3    H140850   4.964   2.637   8.044  1.0483 -0.2226 -1.6856
 6405TIP3    H240851   4.943   2.487   8.041 -0.8512 -0.0653  0.5418
 6406TIP3   OH240852   2.665   1.820   6.763 -0.8801 -0.2665 -0.1637
 6406TIP3    H140853   2.596   1.836   6.828 -0.7479 -2.6571  0.6655
 6406TIP3    H240854   2.619   1.808   6.681 -1.6488 -2.9273  0.5727
 6407TIP3   OH240855   3.265   2.274   8.672 -0.0922 -0.0099 -0.1330
 6407TIP3    H140856   3.251   2.329   8.748 -2.5804 -0.1551 -0.4134
 6407TIP3    H240857   3.283   2.187   8.708 -1.0993 -0.0459  0.3226
 6408TIP3   OH240858   5.547   2.614   7.480 -0.1828 -0.5641  0.1387
 6408TIP3    H140859   5.489   2.557   7.531 -1.0190  1.2569  1.3040
 6408TIP3    H240860   5.488   2.676   7.437  0.7740  0.0476 -0.3394
 6409TIP3   OH240861   6.870   0.159   0.793  0.0796  0.4830  0.3334
 6409TIP3    H140862   6.891   0.114   0.711 -1.0540  1.2055 -0.3840
 6409TIP3    H240863   6.930   0.234   0.795  0.6755  0.0071  0.5905
 6410TIP3   OH240864   3.063   4.040   8.260 -0.7624  0.8253  0.2419
 6410TIP3    H140865   3.109   4.064   8.340  1.1301 -2.5126  0.3463
 6410TIP3    H240866   2.982   4.000   8.289 -1.2406  1.7977  0.3053
 6411TIP3   OH240867   2.263   4.121   0.512 -0.2229  0.1487  0.3394
 6411TIP3    H140868   2.247   4.030   0.487  1.0818 -0.0081  0.0238
 6411TIP3    H240869   2.334   4.150   0.454 -0.4923  1.3112  0.5668
 6412TIP3   OH240870   3.727   2.778   1.729 -0.2608  0.2928 -0.3255
 6412TIP3    H140871   3.772   2.730   1.659  2.2212  1.5062  0.2991
 6412TIP3    H240872   3.733   2.720   1.805  0.7856  0.6477 -0.1178
 6413TIP3   OH240873   6.050   6.090   1.239 -0.1682  0.1668 -0.3880
 6413TIP3    H140874   5.983   6.023   1.246 -1.8995  1.5979 -2.0430
 6413TIP3    H240875   6.015   6.165   1.287  0.5108  0.7552 -0.7800
 6414TIP3   OH240876   6.356   6.621   8.382  0.4334  0.2339 -0.4434
 6414TIP3    H140877   6.376   6.635   8.289 -1.5419 -1.5795 -1.2046
 6414TIP3    H240878   6.417   6.679   8.428  0.8003  1.9466 -2.8775
 6415TIP3   OH240879   5.700   4.741   1.115 -0.3796  0.2345  0.1597
 6415TIP3    H140880   5.652   4.804   1.061 -0.1143  0.1886 -0.1383
 6415TIP3    H240881   5.670   4.656   1.084  1.1788  0.1432 -1.3008
 6416TIP3   OH240882   1.884   6.148   7.842 -0.0247 -0.0682  0.1075
 6416TIP3    H140883   1.830   6.133   7.920 -0.0127  0.2298  0.1773
 6416TIP3    H240884   1.973   6.155   7.875  0.1618 -1.2867 -0.0918
 6417TIP3   OH240885   4.538   0.528   7.589  0.1374  0.1758  0.0450
 6417TIP3    H140886   4.557   0.555   7.679 -1.0943  2.3983 -0.3015
 6417TIP3    H240887   4.624   0.504   7.553  1.1707  2.4255  0.8365
 6418TIP3   OH240888   2.986   4.614   1.281 -0.5402  0.3193 -0.1260
 6418TIP3    H140889   2.895   4.631   1.301 -0.1580 -0.2892  2.4032
 6418TIP3    H240890   2.987   4.523   1.250 -0.9898  0.9346 -2.1094
 6419TIP3   OH240891   0.496   1.632   7.360 -1.3299 -0.2276  0.4033
 6419TIP3    H140892   0.416   1.684   7.356 -1.5214 -0.5703 -0.5387
 6419TIP3    H240893   0.470   1.546   7.325 -0.7296 -0.5775  0.7983
 6420TIP3   OH240894   5.736   2.277   0.892  0.0924  0.4299 -0.4454
 6420TIP3    H140895   5.743   2.290   0.987  0.6301 -0.7129 -0.3198
 6420TIP3    H240896   5.823   2.246   0.866 -1.3194 -4.1584 -0.4953
 6421TIP3   OH240897   5.259   1.091   1.365 -0.1482  0.0350 -0.3209
 6421TIP3    H140898   5.280   1.100   1.458  0.7105 -2.7303 -0.1577
 6421TIP3    H240899   5.326   1.143   1.320  1.3208 -1.0242  0.5462
 6422TIP3   OH240900   1.762   3.445   7.873  0.2045 -0.0912 -0.6993
 6422TIP3    H140901   1.727   3.374   7.928  1.0762 -1.7005 -2.1138
 6422TIP3    H240902   1.706   3.520   7.893  0.7354 -0.4224  2.6949
 6423TIP3   OH240903   2.338   4.050   0.866 -0.0136  0.3217  0.1568
 6423TIP3    H140904   2.314   4.025   0.955  1.0751  1.4157  0.7821
 6423TIP3    H240905   2.432   4.035   0.860 -0.1901 -0.4441 -1.0630
 6424TIP3   OH240906   1.534   0.949   7.563  0.3449  0.3298  0.3381
 6424TIP3    H140907   1.553   0.903   7.645  0.4841 -1.4161 -0.6232
 6424TIP3    H240908   1.589   0.905   7.498 -0.7838  0.7544 -0.9500
 6425TIP3   OH240909   6.728   3.150   2.049  0.0933 -0.0888  0.0281
 6425TIP3    H140910   6.728   3.227   1.991  0.0656 -0.8183 -0.9776
 6425TIP3    H240911   6.714   3.186   2.136 -0.8378  0.9768 -0.5263
 6426TIP3   OH240912   2.185   3.862   6.871 -0.5540 -0.0840 -0.1267
 6426TIP3    H140913   2.183   3.875   6.777 -0.5737 -1.5868 -0.3688
 6426TIP3    H240914   2.133   3.782   6.885  2.1721 -1.8705  0.7629
 6427TIP3   OH240915   1.837   2.927   7.774  0.0859 -0.1482 -0.0328
 6427TIP3    H140916   1.878   2.844   7.799  1.3390  0.3459 -0.3805
 6427TIP3    H240917   1.804   2.963   7.857 -0.7319 -1.1026  0.0846
 6428TIP3   OH240918   0.606   4.724   7.993 -0.2006  0.3807 -0.4009
 6428TIP3    H140919   0.606   4.759   7.903  0.5544  0.3762 -0.4130
 6428TIP3    H240920   0.526   4.672   7.999  1.0252 -1.8924 -1.9907
 6429TIP3   OH240921   0.184   5.431   8.223 -0.4186  0.0519 -0.4647
 6429TIP3    H140922   0.139   5.349   8.242 -1.6764  0.8235  0.0794
 6429TIP3    H240923   0.161   5.452   8.133  1.4980 -1.1293 -1.2853
 6430TIP3   OH240924   0.574   4.817   2.036  0.2916 -0.9630 -0.3623
 6430TIP3    H140925   0.614   4.883   2.091  1.4431 -1.6844 -0.3066
 6430TIP3    H240926   0.522   4.763   2.097 -0.7265 -0.0793 -0.4241
 6431TIP3   OH240927   1.528   4.364   0.583 -0.0597 -0.3139  0.5288
 6431TIP3    H140928   1.463   4.411   0.530 -0.6118 -0.2669  1.2381
 6431TIP3    H240929   1.606   4.420   0.581 -0.8097  0.8208  1.6297
 6432TIP3   OH240930   6.821   5.480   7.729 -0.0821  0.2849 -0.3146
 6432TIP3    H140931   6.872   5.501   7.651  1.6514 -0.4402  0.5567
 6432TIP3    H240932   6.740   5.529   7.719  1.0557  2.0333 -1.4475
 6433TIP3   OH240933   3.375   1.667   6.722 -0.5191 -0.0541 -0.0316
 6433TIP3    H140934   3.304   1.730   6.718 -0.4361 -0.0288 -1.4133
 6433TIP3    H240935   3.367   1.628   6.809  0.4003  2.9358  1.5358
 6434TIP3   OH240936   3.113   1.633   1.514 -0.0664 -0.3075  0.0363
 6434TIP3    H140937   3.057   1.603   1.442  1.1859 -0.1892 -1.0445
 6434TIP3    H240938   3.054   1.648   1.587 -1.5647  0.6923 -1.3217
 6435TIP3   OH240939   6.097   5.813   7.834  0.1922 -0.4376 -0.0238
 6435TIP3    H140940   6.086   5.885   7.772  0.8377  0.3773  0.7838
 6435TIP3    H240941   6.010   5.772   7.838  0.0519 -0.3004 -1.1955
 6436TIP3   OH240942   1.680   0.969   1.754  0.1697  0.0332 -0.6081
 6436TIP3    H140943   1.705   0.948   1.664  1.4964 -0.9440 -0.0437
 6436TIP3    H240944   1.757   1.012   1.791 -0.2229  0.0854  0.1766
 6437TIP3   OH240945   3.454   5.371   0.148 -0.6289 -0.3067 -0.2172
 6437TIP3    H140946   3.469   5.426   0.224 -0.4858 -0.5911 -0.0347
 6437TIP3    H240947   3.446   5.432   0.075 -2.3964  0.0830  0.2506
 6438TIP3   OH240948   3.384   3.503   1.634  0.1119 -0.1824 -0.0049
 6438TIP3    H140949   3.413   3.579   1.684  0.3243 -0.9199  1.0279
 6438TIP3    H240950   3.406   3.428   1.689 -0.6262 -0.9641 -0.7425
 6439TIP3   OH240951   1.107   1.823   7.174  0.2982 -0.2437  0.1381
 6439TIP3    H140952   1.194   1.848   7.206 -0.1707  1.2859  0.3131
 6439TIP3    H240953   1.100   1.865   7.088 -0.5747  0.3453  0.4898
 6440TIP3   OH240954   5.515   6.756   6.326 -0.4531 -0.3621  0.0844
 6440TIP3    H140955   5.480   6.679   6.372 -0.5317 -1.2429 -1.3885
 6440TIP3    H240956   5.577   6.720   6.263  0.0477  0.8658 -0.1554
 6441TIP3   OH240957   0.102   5.161   6.329 -0.0869 -0.4062 -0.2325
 6441TIP3    H140958   0.024   5.180   6.277  0.5920 -0.1316 -1.1740
 6441TIP3    H240959   0.086   5.072   6.363 -1.1824 -0.0202  0.3162
 6442TIP3   OH240960   0.860   1.640   7.722 -0.5515 -0.0911  0.1293
 6442TIP3    H140961   0.941   1.600   7.693 -0.6002 -0.3925  0.4116
 6442TIP3    H240962   0.801   1.633   7.647 -0.1988  0.4614 -0.2022
 6443TIP3   OH240963   6.292   0.178   6.887  0.0622 -0.6281  0.2207
 6443TIP3    H140964   6.202   0.146   6.876 -0.1653  0.1663 -0.3824
 6443TIP3    H240965   6.300   0.195   6.981  0.2163 -2.4679  0.5714
 6444TIP3   OH240966   6.666   6.553   8.094  0.2394  0.1265 -0.8300
 6444TIP3    H140967   6.678   6.507   8.011  1.5986 -0.2735 -0.4365
 6444TIP3    H240968   6.574   6.580   8.093  0.5078  1.2389 -3.0193
 6445TIP3   OH240969   4.651   6.241   5.971  0.2248 -0.2729 -0.5825
 6445TIP3    H140970   4.707   6.172   5.935 -0.0639 -0.3576 -0.8737
 6445TIP3    H240971   4.621   6.206   6.055  0.6848 -0.1846 -0.3757
 6446TIP3   OH240972   5.665   4.312   1.869  0.0192  0.2916 -0.1517
 6446TIP3    H140973   5.699   4.224   1.884  1.5603  0.7955 -0.4451
 6446TIP3    H240974   5.620   4.335   1.950  0.1985 -0.5010  0.1833
 6447TIP3   OH240975   4.558   5.243   7.403  0.1602 -0.6730  0.0840
 6447TIP3    H140976   4.535   5.333   7.427  2.0216 -0.4344  1.1599
 6447TIP3    H240977   4.528   5.234   7.313 -2.0839  0.2541  0.6772
 6448TIP3   OH240978   2.367   4.508   8.120 -0.2626  0.3217 -0.0838
 6448TIP3    H140979   2.327   4.421   8.125 -0.6542  0.4098 -1.3039
 6448TIP3    H240980   2.443   4.495   8.064  0.6362  0.4535  1.0640
 6449TIP3   OH240981   3.211   1.077   7.592 -0.0401  0.3051 -0.4910
 6449TIP3    H140982   3.306   1.065   7.597 -0.0053  0.2661 -1.1202
 6449TIP3    H240983   3.179   0.994   7.556 -0.3870  0.0543  0.3905
 6450TIP3   OH240984   4.178   1.571   8.059  0.0853  0.1264  0.2276
 6450TIP3    H140985   4.192   1.538   7.970 -0.3231  2.0193 -0.5740
 6450TIP3    H240986   4.246   1.637   8.072  0.5645 -0.5822  1.6022
 6451TIP3   OH240987   6.131   0.124   2.161 -0.0459 -0.4582  0.1916
 6451TIP3    H140988   6.094   0.069   2.230  0.8365 -1.0974  0.1724
 6451TIP3    H240989   6.156   0.205   2.206 -2.1372  0.3141  0.0624
 6452TIP3   OH240990   0.400   0.587   6.739 -0.2455 -0.3962 -0.2872
 6452TIP3    H140991   0.305   0.587   6.751 -0.3715  0.3584 -1.1496
 6452TIP3    H240992   0.412   0.550   6.652  0.1897  0.2668 -0.5161
 6453TIP3   OH240993   5.954   2.395   7.056 -0.3907 -0.8527 -0.1044
 6453TIP3    H140994   5.949   2.470   7.116 -2.4268 -0.8724 -0.2048
 6453TIP3    H240995   5.964   2.435   6.969 -1.1675 -0.6906 -0.1252
 6454TIP3   OH240996   0.945   4.987   6.890 -0.3756 -0.5453  0.6293
 6454TIP3    H140997   0.948   4.891   6.892 -1.5344 -0.6567 -0.9520
 6454TIP3    H240998   0.890   5.007   6.814  1.5055  1.4163 -0.2943
 6455TIP3   OH240999   6.434   3.925   7.325 -0.3937 -0.2066 -0.1131
 6455TIP3    H141000   6.416   3.990   7.393 -0.8403 -0.3492 -0.0937
 6455TIP3    H241001   6.501   3.868   7.363  0.4496  0.5938 -0.3525
 6456TIP3   OH241002   2.230   3.231   1.381 -0.3559 -0.0396  0.4095
 6456TIP3    H141003   2.160   3.256   1.441 -0.2406 -0.1938  0.6068
 6456TIP3    H241004   2.213   3.284   1.302 -0.3794  0.3259  0.6550
 6457TIP3   OH241005   1.263   0.669   0.003 -0.1142 -0.2360  0.5477
 6457TIP3    H141006   1.331   0.606   0.027 -1.4437 -2.3947 -1.0443
 6457TIP3    H241007   1.311   0.751  -0.010  2.4254 -1.8794 -1.4732
 6458TIP3   OH241008   4.196   4.033   1.093 -0.0490 -0.3777 -0.0638
 6458TIP3    H141009   4.270   3.978   1.120 -0.4136 -1.1389 -0.5570
 6458TIP3    H241010   4.128   3.970   1.067 -0.4204  0.3042 -0.7984
 6459TIP3   OH241011   5.260   4.593   1.935 -0.6652  0.4236  0.1928
 6459TIP3    H141012   5.292   4.620   1.849 -0.6540 -1.6886 -0.5247
 6459TIP3    H241013   5.221   4.507   1.920 -0.9338  0.1368  2.2571
 6460TIP3   OH241014   5.689   3.953   0.221  0.2224  0.4953  0.3053
 6460TIP3    H141015   5.611   4.008   0.226 -0.2572  0.3775 -3.0694
 6460TIP3    H241016   5.762   4.013   0.234 -0.3637  1.4208 -0.5223
 6461TIP3   OH241017   3.087   1.610   6.857  0.2335 -0.0106 -0.7200
 6461TIP3    H141018   3.174   1.571   6.864 -0.2672 -0.9850  0.5515
 6461TIP3    H241019   3.040   1.578   6.935 -0.4931  2.4800 -0.0574
 6462TIP3   OH241020   3.392   0.847   6.779 -0.2452 -0.6015  0.2169
 6462TIP3    H141021   3.487   0.854   6.784 -0.4324  2.3202  1.4008
 6462TIP3    H241022   3.368   0.899   6.702 -1.0104  1.5778  1.8240
 6463TIP3   OH241023   1.183   2.550   7.897 -0.7529  0.4112 -0.1617
 6463TIP3    H141024   1.182   2.473   7.840  2.1544  0.2347 -0.0999
 6463TIP3    H241025   1.202   2.515   7.984 -0.0002  1.1348 -0.0270
 6464TIP3   OH241026   1.537   6.730   1.171 -0.0133  0.2481 -0.4541
 6464TIP3    H141027   1.471   6.796   1.192  0.6494  0.8927 -0.3714
 6464TIP3    H241028   1.619   6.779   1.166  1.2122 -1.0537  3.4432
 6465TIP3   OH241029   6.688   3.833   7.399 -0.2881 -0.6311 -0.1188
 6465TIP3    H141030   6.689   3.800   7.309 -0.7809 -0.5514 -0.1562
 6465TIP3    H241031   6.673   3.927   7.389 -2.0323 -0.8431  0.0891
 6466TIP3   OH241032   4.381   2.244   7.989 -0.1896  0.2104 -0.0796
 6466TIP3    H141033   4.389   2.283   7.901  2.4692 -0.0027 -0.0169
 6466TIP3    H241034   4.289   2.220   7.996 -0.4458  0.0145 -2.9048
 6467TIP3   OH241035   2.757   2.319   1.657  0.3296 -0.0698  0.3358
 6467TIP3    H141036   2.671   2.317   1.698 -0.2152  0.0013 -0.7729
 6467TIP3    H241037   2.761   2.404   1.613 -0.1113 -1.0812 -1.8045
 6468TIP3   OH241038   2.494   4.448   8.656 -0.0520 -0.5181 -0.5101
 6468TIP3    H141039   2.469   4.450   8.563  2.2894 -1.5443 -1.2269
 6468TIP3    H241040   2.549   4.526   8.667 -2.6031  1.2426  0.8324
 6469TIP3   OH241041   1.861   4.544   1.816 -0.8651 -1.1306  0.2025
 6469TIP3    H141042   1.905   4.459   1.811  0.7649 -0.3509  0.4222
 6469TIP3    H241043   1.930   4.607   1.796 -1.8154  0.2014  0.9758
 6470TIP3   OH241044   0.806   5.189   0.051 -0.2410  0.9970 -0.0874
 6470TIP3    H141045   0.846   5.106   0.025  0.0826  1.0975  0.0909
 6470TIP3    H241046   0.729   5.163   0.101 -0.1395  0.8039 -0.0283
 6471TIP3   OH241047   5.228   0.905   6.673 -0.6332 -0.0389 -0.0442
 6471TIP3    H141048   5.149   0.915   6.619 -0.2242  1.7508 -0.3505
 6471TIP3    H241049   5.258   0.816   6.653 -2.7516 -0.9309  0.3584
 6472TIP3   OH241050   3.620   4.262   2.005 -0.4840  0.5566  0.0954
 6472TIP3    H141051   3.528   4.236   2.013 -0.7147  1.4970  0.6445
 6472TIP3    H241052   3.617   4.356   1.992  0.4317  0.6655  0.6188
 6473TIP3   OH241053   5.508   3.309   1.471 -0.2666  0.0431  0.5632
 6473TIP3    H141054   5.487   3.292   1.379  1.8856 -0.2034  0.0498
 6473TIP3    H241055   5.459   3.388   1.493 -2.0765 -0.7989 -0.2746
 6474TIP3   OH241056   1.193   6.214   6.935  0.3156 -0.0151  0.3025
 6474TIP3    H141057   1.217   6.306   6.923  2.4734 -0.4455  0.8225
 6474TIP3    H241058   1.188   6.203   7.030  3.4979 -1.1076  0.4814
 6475TIP3   OH241059   2.302   6.792   1.634  0.5506  0.2922 -0.0155
 6475TIP3    H141060   2.356   6.843   1.574  0.0793  0.9738  0.1267
 6475TIP3    H241061   2.214   6.827   1.623  0.0754 -0.9682 -0.4255
 6476TIP3   OH241062   2.827   2.072   7.921  0.2602  0.4679 -0.3016
 6476TIP3    H141063   2.763   2.009   7.887 -0.3875  1.0115 -0.1167
 6476TIP3    H241064   2.780   2.118   7.991  1.2885 -0.0273  0.7371
 6477TIP3   OH241065   1.045   1.561   8.618  0.6655 -0.1111 -0.1034
 6477TIP3    H141066   0.999   1.497   8.672  1.3875 -0.1380  0.5081
 6477TIP3    H241067   1.106   1.603   8.679 -0.3968  1.7982 -0.2518
 6478TIP3   OH241068   1.553   6.630   6.687  0.6334 -0.3418 -0.1252
 6478TIP3    H141069   1.510   6.643   6.603  1.4770  0.1335 -0.5021
 6478TIP3    H241070   1.512   6.552   6.724 -0.0798 -0.2702 -0.7585
 6479TIP3   OH241071   5.401   0.977   7.409  0.0722  0.2438  0.3563
 6479TIP3    H141072   5.478   0.967   7.353 -0.1465 -0.0830  0.1118
 6479TIP3    H241073   5.339   1.027   7.356  0.4640  1.3385  0.8993
 6480TIP3   OH241074   4.964   3.838   1.914 -0.4770  0.2402  0.1230
 6480TIP3    H141075   4.914   3.889   1.977 -0.5862  1.2747 -0.7639
 6480TIP3    H241076   5.046   3.817   1.958 -1.2302 -0.5281  1.2015
 6481TIP3   OH241077   5.495   1.225   8.384  0.4030 -0.0952 -0.2675
 6481TIP3    H141078   5.580   1.257   8.416  1.3204 -1.5840 -1.0833
 6481TIP3    H241079   5.473   1.153   8.442 -0.4042  0.3780  0.0283
 6482TIP3   OH241080   1.463   0.339   1.179  0.7635 -0.2191 -0.3468
 6482TIP3    H141081   1.404   0.266   1.158  0.2059  1.0157 -3.5569
 6482TIP3    H241082   1.411   0.395   1.237 -0.3119 -0.4098 -1.0868
 6483TIP3   OH241083   2.191   5.615   7.241 -0.1147 -0.0271 -0.0162
 6483TIP3    H141084   2.265   5.651   7.290 -1.0602 -0.7764  2.0688
 6483TIP3    H241085   2.117   5.669   7.265 -0.5896 -0.3429 -0.7313
 6484TIP3   OH241086   1.359   1.626   0.806  0.1442  0.2679  0.1025
 6484TIP3    H141087   1.365   1.614   0.901 -1.4167 -0.5747  0.1186
 6484TIP3    H241088   1.298   1.699   0.795  3.0888  2.8760 -0.2280
 6485TIP3   OH241089   0.923   0.654   7.575  0.3165  0.2422  0.3076
 6485TIP3    H141090   0.896   0.589   7.510 -1.1261  0.5735  0.5422
 6485TIP3    H241091   0.967   0.722   7.524 -0.2049  0.1774 -0.2356
 6486TIP3   OH241092   0.871   5.765   7.362 -0.1973 -0.3508 -0.1481
 6486TIP3    H141093   0.961   5.765   7.330 -0.6737 -1.1268 -1.5616
 6486TIP3    H241094   0.878   5.735   7.453  1.2816  2.7025  0.8953
 6487TIP3   OH241095   0.569   4.917   7.816  0.2526  0.1972 -0.0693
 6487TIP3    H141096   0.551   5.003   7.777  2.9960 -0.2395 -2.6356
 6487TIP3    H241097   0.648   4.931   7.868 -0.5095 -0.3840  1.3101
 6488TIP3   OH241098   1.110   6.745   6.121  0.4596 -0.1005  1.4390
 6488TIP3    H141099   1.185   6.685   6.122  0.8147  0.3285  0.8345
 6488TIP3    H241100   1.149   6.832   6.135  0.3304  0.3851 -0.8740
 6489TIP3   OH241101   0.050   5.951   7.830  0.7611  0.1922  0.2786
 6489TIP3    H141102   0.124   5.930   7.774  1.2986 -0.6095  1.2664
 6489TIP3    H241103   0.088   5.968   7.916 -0.0947  0.9092  0.5365
 6490TIP3   OH241104   4.159   3.249   7.137 -0.2751 -0.0991  0.2878
 6490TIP3    H141105   4.219   3.321   7.120 -0.6550  0.3581  0.8454
 6490TIP3    H241106   4.107   3.278   7.213 -0.3695 -0.9901  0.5768
 6491TIP3   OH241107   2.385   5.532   7.049 -0.8591  0.2690 -0.0704
 6491TIP3    H141108   2.313   5.573   7.097  0.9866  0.9826  2.2922
 6491TIP3    H241109   2.425   5.473   7.112  0.9590  0.3300 -1.1112
 6492TIP3   OH241110   5.660   1.474   0.332 -0.2886 -0.8087  0.4070
 6492TIP3    H141111   5.666   1.409   0.401 -1.8802 -2.7761 -1.1680
 6492TIP3    H241112   5.699   1.432   0.255  1.7124  1.4210  0.0896
 6493TIP3   OH241113   3.399   5.836   8.585 -0.1400  0.4034  0.4136
 6493TIP3    H141114   3.473   5.855   8.642 -1.1090  3.5816  0.7599
 6493TIP3    H241115   3.433   5.850   8.496  1.1702 -3.8808 -0.0030
 6494TIP3   OH241116   1.784   4.636   7.486  0.2661 -0.4068  0.7205
 6494TIP3    H141117   1.829   4.649   7.402  2.5576  0.1903  1.9714
 6494TIP3    H241118   1.700   4.682   7.475  0.1450 -1.0131 -1.4828
 6495TIP3   OH241119   0.738   2.653   2.409 -0.6191 -0.9295  0.4649
 6495TIP3    H141120   0.771   2.581   2.356 -1.0137 -0.5350 -0.3432
 6495TIP3    H241121   0.655   2.620   2.445 -0.8907 -0.8325 -0.0513
 6496TIP3   OH241122   3.086   3.807   8.107  0.4691 -0.1993  0.2555
 6496TIP3    H141123   3.019   3.760   8.156 -2.1415  1.2186 -1.7610
 6496TIP3    H241124   3.106   3.883   8.161 -1.3145  0.5869 -0.1338
 6497TIP3   OH241125   2.399   2.298   2.010 -0.5150 -0.5568  0.2406
 6497TIP3    H141126   2.346   2.371   2.040  0.3870 -0.2829  1.2275
 6497TIP3    H241127   2.386   2.230   2.075 -0.7656 -1.0159 -0.2778
 6498TIP3   OH241128   5.427   0.487   7.617 -0.2216 -0.1481  0.4241
 6498TIP3    H141129   5.476   0.471   7.698  1.0160  2.6515  0.3617
 6498TIP3    H241130   5.359   0.420   7.616  0.8552 -1.3992  2.8348
 6499TIP3   OH241131   1.554   5.461   7.704 -0.7605 -0.0541 -0.2502
 6499TIP3    H141132   1.605   5.478   7.625 -2.7849  1.1951 -1.3763
 6499TIP3    H241133   1.467   5.439   7.672 -1.4165 -0.3808  1.6246
 6500TIP3   OH241134   1.146   0.967   8.292  0.5411  0.3883  0.1233
 6500TIP3    H141135   1.120   0.997   8.379  0.4702 -1.3259  0.7380
 6500TIP3    H241136   1.094   1.019   8.231 -0.8518  0.2718  1.1719
 6501TIP3   OH241137   6.310   3.397   1.332  0.6536 -0.5286  0.2070
 6501TIP3    H141138   6.309   3.386   1.427  1.3785  2.4141  0.6525
 6501TIP3    H241139   6.393   3.440   1.314  0.2698 -0.5042 -1.7098
 6502TIP3   OH241140   4.348   1.895   0.181  0.3690 -0.6393  0.1957
 6502TIP3    H141141   4.336   1.831   0.252  1.6443 -0.1514  0.8730
 6502TIP3    H241142   4.433   1.935   0.198 -0.3081  1.1279 -0.3101
 6503TIP3   OH241143   0.023   1.339   1.086  0.1279 -0.4423  0.2933
 6503TIP3    H141144   0.010   1.251   1.049 -1.5285 -0.6513  1.2532
 6503TIP3    H241145  -0.060   1.359   1.129  0.7625  1.2714  0.7999
 6504TIP3   OH241146   0.896   5.523   0.762 -0.3384 -0.8944 -0.3857
 6504TIP3    H141147   0.883   5.565   0.848  0.5346 -0.5210 -0.4313
 6504TIP3    H241148   0.821   5.553   0.710 -0.7632 -0.9559  0.1776
 6505TIP3   OH241149   2.857   5.375   6.947 -0.5655 -0.0046  0.4398
 6505TIP3    H141150   2.857   5.327   6.864 -1.9973  0.1865  0.3071
 6505TIP3    H241151   2.869   5.466   6.923  1.4305 -0.1744  0.6423
 6506TIP3   OH241152   6.591   0.390   7.466  0.1037  0.1302 -0.4018
 6506TIP3    H141153   6.622   0.307   7.430 -0.6675  0.3555 -1.6523
 6506TIP3    H241154   6.663   0.422   7.520 -0.3258 -2.3224  1.8152
 6507TIP3   OH241155   1.198   5.760   1.813 -0.3355 -0.5832 -0.0862
 6507TIP3    H141156   1.119   5.746   1.761 -1.2770 -2.5099  1.7133
 6507TIP3    H241157   1.193   5.695   1.882  1.9586  0.4282  1.1467
 6508TIP3   OH241158   4.735   2.710   8.541 -0.2198  0.1173 -0.2296
 6508TIP3    H141159   4.688   2.784   8.502 -0.3557 -0.2612 -0.7879
 6508TIP3    H241160   4.783   2.671   8.468  0.3998  0.0733  0.2015
 6509TIP3   OH241161   5.416   2.375   7.579 -0.6565 -0.1880  0.2537
 6509TIP3    H141162   5.414   2.279   7.582 -1.4285 -0.1777  0.4702
 6509TIP3    H241163   5.477   2.399   7.649 -0.4246 -0.5213  0.1708
 6510TIP3   OH241164   2.986   0.988   0.747 -0.3492  0.1449  0.2129
 6510TIP3    H141165   3.065   0.973   0.695 -1.3187 -1.1653 -0.9713
 6510TIP3    H241166   3.013   0.968   0.837  0.9545  0.9039  0.0214
 6511TIP3   OH241167   5.926   0.242   6.901 -0.6114 -0.4090 -0.0861
 6511TIP3    H141168   5.954   0.150   6.896 -0.5622 -0.6656  2.9849
 6511TIP3    H241169   5.840   0.243   6.860 -0.3337 -1.7016 -0.7585
 6512TIP3   OH241170   0.457   4.254   8.360 -0.0690  0.1941  0.1361
 6512TIP3    H141171   0.467   4.337   8.313  0.8978  0.7838  1.3378
 6512TIP3    H241172   0.507   4.192   8.307 -0.0057  0.5812 -0.2700
 6513TIP3   OH241173   0.099   4.798   1.091  0.0487 -0.2155  0.2482
 6513TIP3    H141174   0.150   4.722   1.062  1.0194  0.6647 -0.4450
 6513TIP3    H241175   0.156   4.873   1.073 -0.6060  0.6294  1.5679
 6514TIP3   OH241176   3.340   3.130   7.803 -0.4646 -0.5701 -0.1351
 6514TIP3    H141177   3.424   3.167   7.775 -0.9757 -0.1917 -1.1919
 6514TIP3    H241178   3.363   3.046   7.843  0.6147  0.3695  1.3599
 6515TIP3   OH241179   6.820   3.236   7.169  0.7501 -0.2855 -0.5219
 6515TIP3    H141180   6.767   3.200   7.098 -0.0508 -1.0611  0.4364
 6515TIP3    H241181   6.890   3.284   7.125 -0.3528  0.1941 -1.8322
 6516TIP3   OH241182   1.074   5.750   0.957  0.1610 -0.2318  1.2609
 6516TIP3    H141183   1.095   5.792   0.873 -1.2602 -1.8996 -0.0014
 6516TIP3    H241184   1.156   5.753   1.007  1.2583  0.1404 -0.4814
 6517TIP3   OH241185   1.123   5.089   0.517  0.0326 -0.1968 -0.4267
 6517TIP3    H141186   1.078   5.173   0.516  0.1652 -0.1250 -0.3943
 6517TIP3    H241187   1.144   5.072   0.425  2.8350  1.3381 -0.1865
 6518TIP3   OH241188   2.712   5.342   1.323 -0.0777  0.1229  0.0623
 6518TIP3    H141189   2.799   5.364   1.290  1.0421 -0.6169  2.3033
 6518TIP3    H241190   2.726   5.267   1.380 -2.2975 -0.3831  0.0339
 6519TIP3   OH241191   6.651   3.419   8.260  0.4731 -0.5953  0.0191
 6519TIP3    H141192   6.639   3.501   8.214  3.7431  0.8482  1.3953
 6519TIP3    H241193   6.675   3.356   8.192  2.3586  0.7601 -0.6488
 6520TIP3   OH241194   5.323   6.301   0.041  0.1909  0.1085 -0.0034
 6520TIP3    H141195   5.263   6.258  -0.020  0.1278  1.5191 -0.9800
 6520TIP3    H241196   5.347   6.383  -0.002  1.2793  0.4862  1.2459
 6521TIP3   OH241197   3.289   5.483   0.635  0.1851  0.2627  0.2867
 6521TIP3    H141198   3.373   5.528   0.646  0.3939  0.1123 -0.5878
 6521TIP3    H241199   3.314   5.391   0.620 -0.1842  0.0442  0.9873
 6522TIP3   OH241200   1.836   1.613   2.445 -0.0908 -0.1534  0.6846
 6522TIP3    H141201   1.796   1.583   2.363 -0.3157  0.3300  0.6135
 6522TIP3    H241202   1.770   1.595   2.511  0.0322 -0.4058  0.7418
 6523TIP3   OH241203   5.183   5.702   0.364  0.5403 -0.0966 -0.5240
 6523TIP3    H141204   5.129   5.656   0.299 -0.6633  0.1517  0.2662
 6523TIP3    H241205   5.208   5.635   0.427 -0.9641  0.2204  0.4642
 6524TIP3   OH241206   3.021   1.797   8.487  0.8314 -0.2954  0.3033
 6524TIP3    H141207   3.051   1.706   8.498  0.0985 -0.3395  2.2609
 6524TIP3    H241208   2.941   1.789   8.435  1.1531 -0.6885 -0.1445
 6525TIP3   OH241209   1.055   4.662   0.926 -0.1485 -0.0648 -0.3823
 6525TIP3    H141210   1.123   4.697   0.869 -1.2409  1.3268 -0.8982
 6525TIP3    H241211   0.987   4.730   0.927 -0.2437 -0.0971  2.4573
 6526TIP3   OH241212   5.395   5.878   7.474 -0.7863 -0.0863  0.1297
 6526TIP3    H141213   5.375   5.860   7.382 -1.0640 -0.1195  0.1947
 6526TIP3    H241214   5.476   5.829   7.491  0.2716  1.3400 -0.5816
 6527TIP3   OH241215   4.277   5.486   0.364  0.4909 -0.5076  0.4070
 6527TIP3    H141216   4.333   5.455   0.293  2.1585  1.0955  0.9348
 6527TIP3    H241217   4.332   5.477   0.442  0.5818  2.2938  0.7793
 6528TIP3   OH241218   0.220   3.643   6.941 -0.5404  0.0216 -0.6700
 6528TIP3    H141219   0.202   3.562   6.988 -0.3625  0.4619  0.1799
 6528TIP3    H241220   0.238   3.615   6.852 -0.8773 -0.8355 -0.4829
 6529TIP3   OH241221   3.196   3.673   6.470 -0.4953  0.0310 -0.4353
 6529TIP3    H141222   3.104   3.689   6.453 -0.2530  0.6127 -1.2707
 6529TIP3    H241223   3.220   3.601   6.411 -0.4653 -0.2711 -0.0582
 6530TIP3   OH241224   1.926   5.612   0.298  0.1088 -0.2964 -0.4110
 6530TIP3    H141225   1.904   5.689   0.351  1.0670 -0.8544  0.8571
 6530TIP3    H241226   1.882   5.539   0.343  1.9347 -0.9625  0.3989
 6531TIP3   OH241227   4.092   1.767   7.434 -0.1938 -0.4431  0.1717
 6531TIP3    H141228   4.014   1.809   7.468  0.1591  0.0374  0.3964
 6531TIP3    H241229   4.116   1.703   7.502 -0.8974 -1.2324 -0.3039
 6532TIP3   OH241230   5.118   0.528   8.467  0.6700 -0.7829  0.6539
 6532TIP3    H141231   5.156   0.592   8.406  0.0711 -0.4569  0.6145
 6532TIP3    H241232   5.102   0.450   8.414 -1.8856  0.2035 -0.1887
 6533TIP3   OH241233   2.669   1.856   7.820 -0.4004  0.9116  0.2457
 6533TIP3    H141234   2.680   1.802   7.741  2.2977  1.2638  0.3023
 6533TIP3    H241235   2.650   1.792   7.889  1.4164  0.1107  0.0600
 6534TIP3   OH241236   6.205   2.793   6.279 -0.7964 -0.5137 -0.5200
 6534TIP3    H141237   6.128   2.740   6.261 -1.0394 -0.6707  0.8741
 6534TIP3    H241238   6.248   2.749   6.352 -2.1005  2.2213  2.0991
 6535TIP3   OH241239   6.115   4.038   8.233  0.1624  0.0005 -0.0340
 6535TIP3    H141240   6.057   3.975   8.275 -0.8165 -0.3367 -1.8179
 6535TIP3    H241241   6.062   4.080   8.166  1.2325  1.6593  0.0780
 6536TIP3   OH241242   1.074   4.418   0.452 -0.2935  0.1482 -0.4200
 6536TIP3    H141243   1.157   4.463   0.435  1.8980 -3.3792 -0.1183
 6536TIP3    H241244   1.057   4.434   0.545  0.1873  0.7462 -0.4299
 6537TIP3   OH241245   0.081   4.973   6.656 -0.1628  0.5403 -0.3411
 6537TIP3    H141246   0.155   5.026   6.626 -0.3560  0.0696 -1.7064
 6537TIP3    H241247   0.093   4.888   6.613 -0.1421 -0.3782  1.4067
 6538TIP3   OH241248   4.283   0.351   1.648  0.4457  0.1680  0.1594
 6538TIP3    H141249   4.249   0.366   1.736 -0.1578  1.5047 -0.2717
 6538TIP3    H241250   4.251   0.426   1.597 -0.7832 -1.4797 -1.6546
 6539TIP3   OH241251   3.642   5.475   6.522 -0.1414  0.2358 -0.1029
 6539TIP3    H141252   3.685   5.431   6.595 -1.9345 -0.9532  0.3034
 6539TIP3    H241253   3.664   5.423   6.445 -0.0272  0.2364 -0.0711
 6540TIP3   OH241254   1.303   1.933   1.406 -0.0531 -0.3419  0.2772
 6540TIP3    H141255   1.358   1.857   1.386  1.4950  0.0257  2.7465
 6540TIP3    H241256   1.221   1.896   1.438 -0.4222 -0.9129 -1.2579
 6541TIP3   OH241257   2.485   4.234   1.835 -0.2908  0.3888 -0.2930
 6541TIP3    H141258   2.407   4.241   1.891  0.3513  2.8373  0.3951
 6541TIP3    H241259   2.521   4.322   1.832  2.3040 -0.5872 -0.8540
 6542TIP3   OH241260   5.914   4.845   0.752  0.5651  0.3925  0.5848
 6542TIP3    H141261   6.000   4.848   0.709 -0.1503  1.2990 -0.8023
 6542TIP3    H241262   5.889   4.936   0.762  0.1876  0.1620  1.9197
 6543TIP3   OH241263   3.009   3.133   0.838  0.0679 -0.5714 -0.3575
 6543TIP3    H141264   3.073   3.137   0.767  0.2509  1.7358 -0.1268
 6543TIP3    H241265   2.925   3.124   0.793  0.3246 -0.9980 -0.7660
 6544TIP3   OH241266   6.448   3.712   8.000 -0.1786 -0.0322 -0.0461
 6544TIP3    H141267   6.543   3.722   8.006  0.0386  0.5267 -2.8619
 6544TIP3    H241268   6.413   3.794   8.035  0.1174 -1.3349  3.6996
 6545TIP3   OH241269   4.035   3.975   1.369 -0.5753 -0.0071 -0.5284
 6545TIP3    H141270   3.982   4.048   1.401  0.4605  0.4713  0.1278
 6545TIP3    H241271   3.986   3.897   1.395 -1.5968  0.4284 -1.0668
 6546TIP3   OH241272   3.309   3.106   0.189 -0.3937 -0.2741  0.4083
 6546TIP3    H141273   3.272   3.033   0.238 -0.1289  0.4049  1.6573
 6546TIP3    H241274   3.234   3.164   0.173 -0.0979  0.6363  2.1018
 6547TIP3   OH241275   3.937   1.503   7.691  0.2743  0.0420 -0.0157
 6547TIP3    H141276   3.848   1.519   7.661  0.7781  1.0669 -1.0851
 6547TIP3    H241277   3.927   1.457   7.774 -1.2330 -0.1813 -0.2925
 6548TIP3   OH241278   2.230   0.521   0.602  0.1561  0.2710 -0.0147
 6548TIP3    H141279   2.214   0.601   0.651 -0.7669  0.7729 -1.0871
 6548TIP3    H241280   2.182   0.453   0.649  1.8817  0.0635  1.5649
 6549TIP3   OH241281   5.325   0.415   8.054  0.3953  0.6394 -0.4490
 6549TIP3    H141282   5.338   0.336   8.106 -0.0247  0.4033 -0.7002
 6549TIP3    H241283   5.267   0.388   7.983  0.1622  1.1966 -0.4753
 6550TIP3   OH241284   2.467   1.165   2.169  0.7449  0.3676 -0.0322
 6550TIP3    H141285   2.534   1.212   2.218  1.3195  0.6981 -1.1027
 6550TIP3    H241286   2.387   1.216   2.181  1.0132  0.7555  0.0901
 6551TIP3   OH241287   6.503   3.150   1.776  0.0876  0.5152 -0.1478
 6551TIP3    H141288   6.525   3.196   1.695  2.2238  1.6230  0.9872
 6551TIP3    H241289   6.445   3.210   1.822  0.2415  0.6239 -0.0975
 6552TIP3   OH241290   5.908   5.887   6.406  0.2472  0.1327  0.3288
 6552TIP3    H141291   5.975   5.946   6.374  2.1672 -1.7312  0.6855
 6552TIP3    H241292   5.838   5.891   6.341  0.7508  2.0156 -0.1361
 6553TIP3   OH241293   1.226   5.972   1.420 -0.5044 -0.3025  0.3151
 6553TIP3    H141294   1.313   6.009   1.403 -0.1113 -0.2644  2.1290
 6553TIP3    H241295   1.204   6.003   1.508 -2.8137  0.5037 -0.4852
 6554TIP3   OH241296   6.041   3.956   8.693  0.3843 -0.5609  0.0799
 6554TIP3    H141297   6.030   4.051   8.699 -1.3792 -0.7848  0.8614
 6554TIP3    H241298   6.049   3.939   8.600  0.0640  0.2909 -0.1154
 6555TIP3   OH241299   4.537   0.017   0.761  0.1561  0.5819  0.2251
 6555TIP3    H141300   4.570  -0.062   0.806  3.0324  1.2544 -0.4841
 6555TIP3    H241301   4.605   0.082   0.775 -0.9123  2.1407 -1.4554
 6556TIP3   OH241302   2.665   0.661   0.680  0.4778 -0.2734 -0.4060
 6556TIP3    H141303   2.619   0.684   0.600 -0.6237 -1.0133 -0.0076
 6556TIP3    H241304   2.639   0.570   0.697  2.3642 -0.8603 -0.3536
 6557TIP3   OH241305   0.676   5.995   7.680  0.3082 -0.3199  0.4482
 6557TIP3    H141306   0.770   5.980   7.682  0.2695 -0.8407 -0.7408
 6557TIP3    H241307   0.639   5.922   7.730  0.5706  0.4617  1.8295
 6558TIP3   OH241308   0.384   3.434   1.645 -0.7873  0.1601 -0.2634
 6558TIP3    H141309   0.383   3.373   1.719 -1.1644 -0.3269 -0.6584
 6558TIP3    H241310   0.306   3.410   1.594 -1.4376  1.5452  0.0322
 6559TIP3   OH241311   4.760   2.612   0.971 -0.1014 -0.0498  0.6622
 6559TIP3    H141312   4.852   2.597   0.949  0.3031 -0.2518  2.3721
 6559TIP3    H241313   4.720   2.638   0.888  1.0083 -2.0855 -0.5998
 6560TIP3   OH241314   1.427   2.460   1.550 -0.2960  0.2361 -0.3354
 6560TIP3    H141315   1.498   2.518   1.524  0.1296  0.3623  1.0075
 6560TIP3    H241316   1.426   2.390   1.485 -0.6001  1.5589 -1.7932
 6561TIP3   OH241317   6.158   4.893   0.622 -0.0664 -0.1769  0.3007
 6561TIP3    H141318   6.197   4.853   0.545 -1.0199  1.0579 -0.8746
 6561TIP3    H241319   6.144   4.984   0.597 -0.4357  0.2458  1.9313
 6562TIP3   OH241320   3.258   6.616   7.026 -0.4632  0.1923 -0.2045
 6562TIP3    H141321   3.173   6.656   7.040 -1.1360 -1.5400  0.9272
 6562TIP3    H241322   3.259   6.595   6.932 -2.3683 -2.0046  0.1871
 6563TIP3   OH241323   1.042   4.744   0.570 -0.7142  0.5597  0.6005
 6563TIP3    H141324   1.090   4.759   0.489 -0.6318 -1.7142  0.1714
 6563TIP3    H241325   1.108   4.752   0.639 -0.2355 -0.0456  0.2213
 6564TIP3   OH241326   1.172   3.037   6.480  0.1826  0.0260  0.0062
 6564TIP3    H141327   1.254   2.989   6.485 -0.1472 -0.5871 -0.2945
 6564TIP3    H241328   1.178   3.086   6.398 -0.5715 -1.6132 -1.0811
 6565TIP3   OH241329   2.006   6.547   0.524 -0.2474  0.3115 -0.8432
 6565TIP3    H141330   2.088   6.546   0.572 -0.6215 -0.4092 -0.1863
 6565TIP3    H241331   1.939   6.538   0.592 -0.8825  1.2259 -1.3373
 6566TIP3   OH241332   4.501   4.744   0.127 -0.1677 -0.2059 -0.9717
 6566TIP3    H141333   4.528   4.656   0.154  0.4639 -0.2386 -1.7006
 6566TIP3    H241334   4.482   4.789   0.210 -1.5944 -1.3523 -0.6193
 6567TIP3   OH241335   6.703   0.014   8.642 -0.6980  0.4598 -0.1416
 6567TIP3    H141336   6.790  -0.023   8.625 -1.0043 -0.1818 -0.3645
 6567TIP3    H241337   6.710   0.105   8.613 -0.0967  0.4239 -0.1359
 6568TIP3   OH241338   6.573   0.775   8.411 -0.4680 -0.4417 -0.0181
 6568TIP3    H141339   6.491   0.823   8.422 -0.0753  0.3683 -0.5314
 6568TIP3    H241340   6.640   0.834   8.446  0.2240  0.1334 -2.1420
 6569TIP3   OH241341   2.821   4.564   6.209  0.1442 -0.1160 -0.3286
 6569TIP3    H141342   2.793   4.613   6.132 -1.5037  1.5617  1.2396
 6569TIP3    H241343   2.798   4.474   6.190 -0.2634  0.2585 -1.7619
 6570TIP3   OH241344   4.624   0.325   0.193  0.1004 -0.5467  0.2275
 6570TIP3    H141345   4.588   0.248   0.237 -0.2958 -0.8740 -0.6562
 6570TIP3    H241346   4.650   0.383   0.265 -0.2123 -1.2125  0.8973
 6571TIP3   OH241347   2.370   6.815   0.352 -0.8002 -0.2512 -0.5912
 6571TIP3    H141348   2.378   6.720   0.358 -0.6662 -0.2046 -0.0338
 6571TIP3    H241349   2.294   6.837   0.407 -0.8920 -0.0415 -0.7950
 6572TIP3   OH241350   3.884   6.292   1.476 -0.3013 -0.2736 -0.2982
 6572TIP3    H141351   3.888   6.377   1.432  2.1886 -0.3637 -0.3583
 6572TIP3    H241352   3.811   6.246   1.433  0.2701  0.6831 -2.4047
 6573TIP3   OH241353   4.105   4.845   8.528 -0.6896  0.0283 -0.3052
 6573TIP3    H141354   4.136   4.775   8.585 -0.2950  0.8823  0.5246
 6573TIP3    H241355   4.177   4.907   8.523 -1.0872  0.4506 -0.9377
 6574TIP3   OH241356   0.955   3.036   0.477  0.0483  0.3220 -0.4504
 6574TIP3    H141357   0.929   2.945   0.459 -0.6603  0.1697  1.1242
 6574TIP3    H241358   0.876   3.087   0.458 -0.4160  0.2614  1.1347
 6575TIP3   OH241359   4.201   0.736   8.100  0.5214 -0.1657 -0.1665
 6575TIP3    H141360   4.153   0.652   8.101 -0.6207  0.2983 -3.3641
 6575TIP3    H241361   4.292   0.711   8.087  0.4311 -0.9302  0.5498
 6576TIP3   OH241362   3.876   0.232   0.853 -0.0933 -0.3706 -0.4928
 6576TIP3    H141363   3.948   0.169   0.844 -0.4819 -1.0180  0.6351
 6576TIP3    H241364   3.918   0.318   0.853  0.7550 -0.7565  0.6066
 6577TIP3   OH241365   2.691   0.621   0.384 -0.5637 -0.0614  0.0838
 6577TIP3    H141366   2.639   0.549   0.421 -0.9358 -0.6676 -1.5378
 6577TIP3    H241367   2.628   0.671   0.332 -0.0400  0.7081  0.1810
 6578TIP3   OH241368   3.799   5.930   6.420 -0.0990  1.0081  0.0457
 6578TIP3    H141369   3.809   6.011   6.470 -1.0576  2.1589 -1.5092
 6578TIP3    H241370   3.754   5.957   6.340 -2.9605 -1.4529  0.6230
 6579TIP3   OH241371   3.888   4.965   7.654  0.3763 -0.0821  0.2496
 6579TIP3    H141372   3.830   5.041   7.658  1.3882  0.7477 -0.5363
 6579TIP3    H241373   3.843   4.898   7.706 -0.8054  0.8567  0.4694
 6580TIP3   OH241374   6.277   1.425   0.479 -0.0309 -0.3637 -0.0904
 6580TIP3    H141375   6.336   1.489   0.437 -0.4687 -0.4148 -0.8038
 6580TIP3    H241376   6.204   1.416   0.417  0.6506 -2.5452 -0.6586
 6581TIP3   OH241377   3.079   2.579   8.017  0.2731 -0.8513  0.1603
 6581TIP3    H141378   3.073   2.494   8.061 -0.7027 -0.0445  1.7037
 6581TIP3    H241379   2.998   2.586   7.967 -0.3106 -0.2850  1.1472
 6582TIP3   OH241380   4.666   0.910   6.742 -0.1504 -0.0453 -0.0862
 6582TIP3    H141381   4.626   0.897   6.828  0.8298  0.6667  0.5091
 6582TIP3    H241382   4.668   0.823   6.703 -0.2171 -0.4586  0.8055
 6583TIP3   OH241383   2.490   2.710   2.141  0.3846 -0.3843  0.5707
 6583TIP3    H141384   2.465   2.723   2.233  0.3368 -4.0409  1.2097
 6583TIP3    H241385   2.579   2.746   2.135  0.2360  0.2686  1.9082
 6584TIP3   OH241386   2.108   0.951   7.030 -0.8603 -0.4158 -0.1875
 6584TIP3    H141387   2.138   0.976   7.118 -1.8679 -0.6009  0.2235
 6584TIP3    H241388   2.189   0.945   6.979 -0.4087  2.1762  0.0536
 6585TIP3   OH241389   6.002   2.471   8.224 -0.4492  0.4457 -0.1401
 6585TIP3    H141390   5.951   2.427   8.292  1.2531  1.4624  1.8701
 6585TIP3    H241391   6.085   2.492   8.265  0.1632  2.2875 -2.1429
 6586TIP3   OH241392   6.050   3.412   8.439 -0.3700 -0.3145 -0.0749
 6586TIP3    H141393   6.022   3.323   8.457 -1.2704 -0.0823 -0.2532
 6586TIP3    H241394   6.112   3.433   8.509  0.0283 -1.1534 -0.1709
 6587TIP3   OH241395   6.046   6.446   7.213  0.8236 -0.0563  0.1563
 6587TIP3    H141396   6.066   6.399   7.294 -0.8751  0.4083  0.8879
 6587TIP3    H241397   6.128   6.490   7.190  1.7140 -1.2842  0.8583
 6588TIP3   OH241398   6.461   1.727   1.828  0.0858  0.3945  0.5594
 6588TIP3    H141399   6.522   1.728   1.902 -1.5258 -1.0390  1.9873
 6588TIP3    H241400   6.385   1.775   1.860 -0.0500  1.1095 -0.7747
 6589TIP3   OH241401   4.579   6.113   1.433 -0.6271  0.0705 -0.5883
 6589TIP3    H141402   4.596   6.142   1.523 -1.1069  0.3949 -0.6021
 6589TIP3    H241403   4.497   6.064   1.439 -1.0906  0.7773 -0.9845
 6590TIP3   OH241404   0.581   4.465   1.194  0.2847  0.2886  0.3897
 6590TIP3    H141405   0.572   4.393   1.131 -0.6533  0.2106  0.5980
 6590TIP3    H241406   0.632   4.531   1.148  1.5164 -0.6575  0.3274
 6591TIP3   OH241407   4.879   3.417   6.664  0.1240 -0.5513  0.0036
 6591TIP3    H141408   4.949   3.441   6.604 -1.0760 -0.3849 -1.3939
 6591TIP3    H241409   4.837   3.341   6.624 -0.4955 -0.6512  0.8096
 6592TIP3   OH241410   1.890   5.304   0.931 -0.5536  0.1118  0.0591
 6592TIP3    H141411   1.947   5.359   0.985  0.1127 -0.6844  0.1867
 6592TIP3    H241412   1.817   5.361   0.907 -0.1578  0.8822  0.6500
 6593TIP3   OH241413   0.010   3.572   7.414  0.6398  0.4303  0.6354
 6593TIP3    H141414  -0.043   3.509   7.463 -1.0897  0.3207 -1.2689
 6593TIP3    H241415  -0.054   3.628   7.371  2.1355  1.7888  0.1088
 6594TIP3   OH241416   3.850   4.216   0.585 -0.5551 -0.1491 -0.6342
 6594TIP3    H141417   3.826   4.132   0.626  1.4327 -0.6684 -0.4056
 6594TIP3    H241418   3.776   4.237   0.529 -1.0234 -2.1950 -0.8858
 6595TIP3   OH241419   6.315   0.804   7.942 -0.9188  0.3083 -0.0867
 6595TIP3    H141420   6.381   0.776   8.005 -1.5457 -1.4691 -0.1619
 6595TIP3    H241421   6.364   0.846   7.872  0.0377 -0.2432  0.2457
 6596TIP3   OH241422   5.194   0.923   0.501  0.5756 -0.1099 -0.4475
 6596TIP3    H141423   5.160   0.948   0.415  0.1365 -0.5472 -0.4041
 6596TIP3    H241424   5.121   0.879   0.544  0.5262  0.8474  0.4793
 6597TIP3   OH241425   5.908   1.723   6.965  0.1347  0.2104 -0.1132
 6597TIP3    H141426   5.841   1.660   6.936 -0.3808  0.0653  1.3184
 6597TIP3    H241427   5.991   1.683   6.938 -0.1502 -1.3654  1.1649
 6598TIP3   OH241428   1.976   3.713   8.632  0.5618 -0.0134  0.3192
 6598TIP3    H141429   1.919   3.755   8.697 -0.0568  0.0018 -0.2184
 6598TIP3    H241430   1.958   3.619   8.642  1.6775 -0.1557  1.2735
 6599TIP3   OH241431   1.763   2.617   7.684  0.7040 -0.0294  0.1476
 6599TIP3    H141432   1.813   2.636   7.763 -0.0297  0.3660  0.5302
 6599TIP3    H241433   1.713   2.538   7.705  1.8051 -0.9280 -0.5362
 6600TIP3   OH241434   2.567   2.347   0.837  0.0942  0.3534  0.0302
 6600TIP3    H141435   2.483   2.309   0.812  1.0085 -0.5524 -1.9111
 6600TIP3    H241436   2.630   2.276   0.823  1.4448  1.6286 -0.5741
 6601TIP3   OH241437   1.308   3.264   7.242  0.2775  0.4453 -0.3192
 6601TIP3    H141438   1.263   3.179   7.245 -0.8311  0.8641 -2.8587
 6601TIP3    H241439   1.349   3.267   7.156  2.4912  1.4771  0.7021
 6602TIP3   OH241440   2.625   0.503   7.198 -0.0841  0.2636 -0.2692
 6602TIP3    H141441   2.689   0.573   7.185  0.8202 -0.4626  0.2142
 6602TIP3    H241442   2.562   0.540   7.261  1.3535  0.0461  1.3479
 6603TIP3   OH241443   4.342   3.252   6.818  0.8293 -0.7402  0.1994
 6603TIP3    H141444   4.320   3.343   6.799  0.8162 -0.9130 -0.6641
 6603TIP3    H241445   4.283   3.227   6.889 -0.0383 -0.4437 -0.3981
 6604TIP3   OH241446   2.302   2.255   0.727 -0.1929  0.5957  0.2425
 6604TIP3    H141447   2.219   2.217   0.757  0.0847 -0.1427  0.0969
 6604TIP3    H241448   2.283   2.290   0.640  0.1684 -1.5740 -0.7798
 6605TIP3   OH241449   1.698   4.665   0.024 -0.4810 -0.7053 -0.0987
 6605TIP3    H141450   1.730   4.590   0.075 -0.9953 -0.8034  0.0890
 6605TIP3    H241451   1.690   4.736   0.088  0.8747 -0.2073 -0.4410
 6606TIP3   OH241452   2.639   6.649   7.845 -0.2108 -0.0790  0.7433
 6606TIP3    H141453   2.566   6.696   7.885 -0.2797 -0.8546  1.5788
 6606TIP3    H241454   2.645   6.684   7.756 -1.4162  0.1905  0.7494
 6607TIP3   OH241455   5.646   4.753   0.799  0.1095  0.1697 -0.3379
 6607TIP3    H141456   5.740   4.736   0.806  0.8133  3.1048 -1.3959
 6607TIP3    H241457   5.632   4.834   0.847 -1.2918  1.4023 -2.6459
 6608TIP3   OH241458   4.505   2.576   7.586 -0.4247 -0.0689  0.0836
 6608TIP3    H141459   4.552   2.660   7.592  0.4461 -0.4931 -0.6060
 6608TIP3    H241460   4.439   2.581   7.655 -0.6662  1.3623 -0.2130
 6609TIP3   OH241461   3.806   4.611   0.026 -0.0363  0.2995 -0.3066
 6609TIP3    H141462   3.853   4.687   0.061  1.6368 -0.3051 -1.1133
 6609TIP3    H241463   3.876   4.553  -0.006 -1.3544 -0.6089 -1.6524
 6610TIP3   OH241464   3.583   3.283   1.411  0.1841 -0.0351 -0.1541
 6610TIP3    H141465   3.573   3.219   1.341  0.2482 -1.5114  1.1131
 6610TIP3    H241466   3.588   3.368   1.367 -1.2215 -0.7712 -1.8150
 6611TIP3   OH241467   4.124   2.342   6.818  0.0406 -0.2836 -0.3432
 6611TIP3    H141468   4.215   2.312   6.825 -0.2805 -2.0363 -2.4962
 6611TIP3    H241469   4.132   2.436   6.798  1.5051 -0.7104 -2.1244
 6612TIP3   OH241470   3.513   5.879   8.355  0.1748 -0.0581  0.3416
 6612TIP3    H141471   3.513   5.784   8.349  1.3473 -0.0527 -0.1351
 6612TIP3    H241472   3.545   5.908   8.269 -2.6394  0.8920 -0.4865
 6613TIP3   OH241473   2.630   3.568   7.795 -0.2000  0.2447  0.1506
 6613TIP3    H141474   2.555   3.582   7.852 -0.6333 -0.9463 -0.0987
 6613TIP3    H241475   2.694   3.523   7.850 -0.2948 -0.1710 -0.0811
 6614TIP3   OH241476   1.811   5.067   7.481 -0.6662  0.5037  0.4533
 6614TIP3    H141477   1.907   5.068   7.487 -0.5972  0.5241 -0.4858
 6614TIP3    H241478   1.792   4.999   7.416 -1.3126  0.2124  0.9427
 6615TIP3   OH241479   6.131   1.773   2.292  0.3081  0.5813  0.0832
 6615TIP3    H141480   6.071   1.809   2.226 -1.0161  1.2214  1.5801
 6615TIP3    H241481   6.100   1.683   2.306 -0.8945  1.1773  1.4672
 6616TIP3   OH241482   3.710   1.799   0.802  0.0320 -0.3709  0.1046
 6616TIP3    H141483   3.631   1.844   0.834 -0.2074  0.4976 -1.5852
 6616TIP3    H241484   3.701   1.709   0.834 -0.9712  0.0437  1.0590
 6617TIP3   OH241485   4.866   2.872   6.744  0.2998 -0.4167 -0.2937
 6617TIP3    H141486   4.927   2.803   6.770 -0.4098 -0.9758 -0.0783
 6617TIP3    H241487   4.861   2.930   6.821  0.2702 -0.5786 -0.1732
 6618TIP3   OH241488   4.892   1.126   7.439 -0.1370 -0.4711 -0.2876
 6618TIP3    H141489   4.807   1.084   7.447 -0.1681 -0.7652 -1.9918
 6618TIP3    H241490   4.893   1.191   7.510 -2.2295  0.3111 -0.9181
 6619TIP3   OH241491   4.368   3.030   1.419 -0.8761 -0.4509  0.3570
 6619TIP3    H141492   4.367   3.012   1.324  2.0431  0.1712  0.1053
 6619TIP3    H241493   4.406   2.950   1.457 -0.6423 -0.1197  0.8166
 6620TIP3   OH241494   3.730   5.872   6.724 -0.1764 -0.3919 -0.2791
 6620TIP3    H141495   3.729   5.778   6.707 -0.0132 -0.1628 -1.6046
 6620TIP3    H241496   3.642   5.891   6.757 -0.2453 -0.9777 -0.1158
 6621TIP3   OH241497   4.454   1.054   1.662  0.4690 -0.1984  0.4357
 6621TIP3    H141498   4.469   1.127   1.722  0.4433 -1.1195  1.6111
 6621TIP3    H241499   4.420   0.984   1.718  1.3059 -1.3953 -0.4943
 6622TIP3   OH241500   3.135   5.529   6.446 -0.2785 -1.1265 -0.7453
 6622TIP3    H141501   3.209   5.468   6.449  0.8278 -0.0501 -3.3212
 6622TIP3    H241502   3.169   5.610   6.483 -1.0783 -1.3952  0.6458
 6623TIP3   OH241503   6.571   5.560   0.589  0.2267  0.4258 -0.1516
 6623TIP3    H141504   6.661   5.574   0.560  0.3502  0.0749  0.0560
 6623TIP3    H241505   6.554   5.633   0.650  0.0515  1.0188 -0.8970
 6624TIP3   OH241506   1.724   1.114   0.945  0.5725  0.1800  0.2346
 6624TIP3    H141507   1.797   1.069   0.988  1.3656  0.9058 -0.3223
 6624TIP3    H241508   1.763   1.159   0.870 -0.5455  0.1136 -0.4207
 6625TIP3   OH241509   0.380   2.133   1.343 -0.5628  0.0271  0.3780
 6625TIP3    H141510   0.389   2.043   1.374  1.2145  0.2352  0.5420
 6625TIP3    H241511   0.314   2.172   1.401 -1.3927 -1.1572  0.2732
 6626TIP3   OH241512   1.069   4.432   0.737  0.4217  0.2125  0.2036
 6626TIP3    H141513   1.106   4.506   0.785  0.9442 -0.7919  1.4089
 6626TIP3    H241514   0.997   4.401   0.791  0.3627 -0.3162 -0.1706
 6627TIP3   OH241515   0.538   5.366   7.111  0.0444 -0.9990  0.2561
 6627TIP3    H141516   0.582   5.282   7.122  0.2327 -0.8710  0.4966
 6627TIP3    H241517   0.454   5.355   7.155 -0.4260 -1.4375 -0.7112
 6628TIP3   OH241518   1.611   6.303   8.107 -0.5267 -0.0786  0.8245
 6628TIP3    H141519   1.557   6.353   8.169 -0.4118  0.3802  0.5627
 6628TIP3    H241520   1.561   6.302   8.026  0.5196  1.7262  0.0949
 6629TIP3   OH241521   5.375   3.246   0.281  0.4075 -0.3374  0.3279
 6629TIP3    H141522   5.416   3.277   0.200 -1.5225  3.0615  0.4645
 6629TIP3    H241523   5.287   3.221   0.254 -0.0700  0.2884  1.2734
 6630TIP3   OH241524   2.964   5.364   1.195  0.6272 -0.0758 -0.2367
 6630TIP3    H141525   3.043   5.336   1.242 -0.1067 -1.1264  0.4249
 6630TIP3    H241526   2.946   5.292   1.134 -1.3585 -1.2609  1.5746
 6631TIP3   OH241527   4.442   2.458   1.414 -0.5607 -0.5861 -0.3840
 6631TIP3    H141528   4.492   2.450   1.333 -3.1029 -1.3779 -2.0083
 6631TIP3    H241529   4.455   2.374   1.459  1.7487  0.2651  0.6744
 6632TIP3   OH241530   5.361   0.857   8.028 -0.0294 -0.3282 -0.2967
 6632TIP3    H141531   5.360   0.932   8.087 -0.8482  0.2369 -1.0133
 6632TIP3    H241532   5.273   0.820   8.034 -0.5465  0.5023 -2.0993
 6633TIP3   OH241533   6.870   4.763   7.600  0.3963  0.1079 -0.2923
 6633TIP3    H141534   6.851   4.676   7.636  0.4837 -0.3554 -1.3181
 6633TIP3    H241535   6.804   4.820   7.640  0.1316 -0.4915  0.1522
 6634TIP3   OH241536   1.824   1.606   0.633  0.5382  0.7751 -0.1862
 6634TIP3    H141537   1.785   1.693   0.624 -2.8012 -0.6644 -1.2908
 6634TIP3    H241538   1.774   1.564   0.703  2.0882 -0.3108  0.3465
 6635TIP3   OH241539   6.520   0.794   6.773 -0.4748  0.1347  0.0800
 6635TIP3    H141540   6.612   0.787   6.748 -0.1962  0.8145  0.8505
 6635TIP3    H241541   6.493   0.705   6.794  0.4556  0.1086  1.3137
 6636TIP3   OH241542   2.894   3.305   6.465 -0.4899  0.3575  0.2640
 6636TIP3    H141543   2.847   3.282   6.384 -0.0979  1.9383 -0.4507
 6636TIP3    H241544   2.835   3.366   6.510 -0.0177  0.7412  0.3694
 6637TIP3   OH241545   2.578   0.713   7.674 -0.2704  0.1523  0.3117
 6637TIP3    H141546   2.660   0.685   7.713  0.3361  0.6649 -0.5714
 6637TIP3    H241547   2.510   0.677   7.732  0.5107 -1.7520  0.1147
 6638TIP3   OH241548   1.568   0.143   6.260  0.5137  0.5207  0.1982
 6638TIP3    H141549   1.589   0.229   6.296  0.9152  0.2406  0.6465
 6638TIP3    H241550   1.630   0.131   6.188  0.4192  0.6302  0.0980
 6639TIP3   OH241551   5.496   3.443   0.436 -0.1563 -0.7296 -0.3184
 6639TIP3    H141552   5.588   3.462   0.418  0.2490 -2.0332  0.2620
 6639TIP3    H241553   5.471   3.379   0.370 -0.3843 -1.0560  0.0827
 6640TIP3   OH241554   2.766   5.319   1.694 -0.0953 -0.2169 -0.3010
 6640TIP3    H141555   2.766   5.386   1.763 -0.6680 -1.3493  0.8485
 6640TIP3    H241556   2.858   5.294   1.685  0.0990  0.5757 -0.6116
 6641TIP3   OH241557   0.030   1.045   0.895 -0.4007 -0.1972  0.0197
 6641TIP3    H141558  -0.047   1.037   0.950 -1.5454  0.3593 -1.4299
 6641TIP3    H241559   0.001   1.015   0.809  1.2412 -0.7805 -0.3686
 6642TIP3   OH241560   1.867   0.506   6.964 -1.0250  0.4631  0.1431
 6642TIP3    H141561   1.871   0.428   7.018 -0.6827 -0.7370 -1.5452
 6642TIP3    H241562   1.788   0.496   6.912 -0.9996  1.2658 -0.0716
 6643TIP3   OH241563   2.770   6.346   7.641  0.2796 -0.0885  0.0174
 6643TIP3    H141564   2.683   6.352   7.601  0.0029 -2.5683  0.1308
 6643TIP3    H241565   2.827   6.392   7.579 -1.0881  1.7737  0.0482
 6644TIP3   OH241566   4.343   4.948   0.753 -0.3869 -0.6335 -0.2804
 6644TIP3    H141567   4.251   4.964   0.733 -0.4214 -1.3859 -0.7563
 6644TIP3    H241568   4.342   4.899   0.836 -0.3527  0.3595  0.3223
 6645TIP3   OH241569   1.600   4.460   1.958 -0.1274 -0.4396  0.1302
 6645TIP3    H141570   1.654   4.390   1.994  0.0157  0.2696  1.3514
 6645TIP3    H241571   1.583   4.434   1.867  1.8003 -0.9445 -0.1164
 6646TIP3   OH241572   0.041   6.346   5.895 -0.1059  0.3392  0.5103
 6646TIP3    H141573  -0.028   6.407   5.920 -0.5213 -0.2616  0.8316
 6646TIP3    H241574   0.002   6.259   5.904  0.0600  0.0456 -1.1703
 6647TIP3   OH241575   1.961   0.177   0.308  0.1494 -0.3385  0.1578
 6647TIP3    H141576   2.009   0.195   0.389 -0.4412 -0.2138  0.4875
 6647TIP3    H241577   1.969   0.083   0.296 -0.0468 -0.4077  0.5456
 6648TIP3   OH241578   5.434   2.892   7.921 -0.2629 -0.3538 -0.1350
 6648TIP3    H141579   5.402   2.803   7.915 -0.5344 -0.2330 -0.4948
 6648TIP3    H241580   5.447   2.907   8.015 -1.1442 -0.4443  0.0093
 6649TIP3   OH241581   2.550   3.164   1.192  0.3199  0.4603 -0.4158
 6649TIP3    H141582   2.617   3.111   1.237 -0.1258  0.4042  0.1916
 6649TIP3    H241583   2.561   3.252   1.228 -0.5864  0.2384  0.4333
 6650TIP3   OH241584   1.941   0.933   7.609  0.3622 -0.3157 -0.5447
 6650TIP3    H141585   1.921   0.858   7.553  1.6499 -0.6677 -0.5688
 6650TIP3    H241586   1.858   0.981   7.615 -0.3047 -1.3482 -1.1075
 6651TIP3   OH241587   1.437   0.227   0.628 -0.4989  0.4047 -0.2089
 6651TIP3    H141588   1.363   0.209   0.687 -0.7780 -1.1576 -0.9673
 6651TIP3    H241589   1.445   0.322   0.628  0.4155  0.4744  3.4244
 6652TIP3   OH241590   1.691   0.225   0.876 -0.6789  0.0019 -0.8635
 6652TIP3    H141591   1.642   0.304   0.900  0.7452  1.3126 -2.0821
 6652TIP3    H241592   1.755   0.215   0.947 -0.4579  0.3054 -1.0185
 6653TIP3   OH241593   1.109   4.216   1.259 -0.1621 -0.0343  0.0207
 6653TIP3    H141594   1.123   4.248   1.348  1.0648 -2.0547  0.6112
 6653TIP3    H241595   1.078   4.292   1.211 -0.6385  1.1705  2.1120
 6654TIP3   OH241596   3.696   4.295   7.635  0.1443  0.2087  0.3574
 6654TIP3    H141597   3.711   4.389   7.640 -2.0526  0.6043  0.2499
 6654TIP3    H241598   3.644   4.274   7.713 -1.6066 -0.4168 -0.9257
 6655TIP3   OH241599   3.068   6.603   0.349  0.0076 -0.4594  0.4326
 6655TIP3    H141600   3.044   6.622   0.258  0.6711 -1.0770  0.1191
 6655TIP3    H241601   3.121   6.678   0.376 -0.2154 -0.2601  0.3215
 6656TIP3   OH241602   1.850   2.066   1.605  0.0008 -0.1002 -0.0025
 6656TIP3    H141603   1.909   2.118   1.549  0.3399  0.3667  0.7700
 6656TIP3    H241604   1.822   2.127   1.673  0.0874 -0.8191  0.6953
 6657TIP3   OH241605   0.245   0.034   0.280 -0.0410  0.2924  0.4721
 6657TIP3    H141606   0.276   0.097   0.216  1.5621 -1.2306 -0.3510
 6657TIP3    H241607   0.310  -0.036   0.279 -1.9348 -1.6123  0.9940
 6658TIP3   OH241608   3.150   3.702   1.033 -0.2617 -0.1509  0.2875
 6658TIP3    H141609   3.129   3.748   0.951  0.5634  0.7406  0.5612
 6658TIP3    H241610   3.192   3.621   1.005 -0.8573 -0.2984 -0.1891
 6659TIP3   OH241611   0.031   0.664   8.346  0.2216 -0.7062 -0.0545
 6659TIP3    H141612   0.103   0.640   8.287 -1.1056 -2.4827 -1.0593
 6659TIP3    H241613  -0.020   0.728   8.296  1.3717  1.0085  0.8926
 6660TIP3   OH241614   1.992   6.818   2.117  0.8289  0.5900  0.0401
 6660TIP3    H141615   1.916   6.773   2.081  0.7444  1.5886 -1.0888
 6660TIP3    H241616   2.028   6.757   2.182  0.4621 -0.9042 -1.1090
 6661TIP3   OH241617   2.184   3.478   0.332  0.5576  0.5118 -0.3968
 6661TIP3    H141618   2.180   3.439   0.245  2.5765  0.8374 -0.6851
 6661TIP3    H241619   2.106   3.532   0.338 -1.0331 -1.6153 -0.9327
 6662TIP3   OH241620   5.946   3.845   7.371  0.5302 -0.3860  0.3763
 6662TIP3    H141621   5.956   3.754   7.341 -1.0541 -1.1582  1.9841
 6662TIP3    H241622   6.034   3.870   7.400  1.4172 -0.6851 -1.8305
 6663TIP3   OH241623   1.542   4.774   1.711  0.2780  0.1116 -0.0949
 6663TIP3    H141624   1.489   4.727   1.776  1.5009 -1.0374  0.1132
 6663TIP3    H241625   1.581   4.705   1.658 -0.5796  1.0260 -2.0121
 6664TIP3   OH241626   1.607   5.901   0.089  0.0822  0.4378  0.0238
 6664TIP3    H141627   1.579   5.842   0.160  1.6515  1.9932  2.0477
 6664TIP3    H241628   1.529   5.910   0.034 -0.6410 -2.3264  0.4401
 6665TIP3   OH241629   4.124   6.176   0.975  0.1924  0.2525 -0.4121
 6665TIP3    H141630   4.033   6.194   0.996 -0.0163 -1.8956  0.8329
 6665TIP3    H241631   4.146   6.238   0.906 -2.7807 -0.4552 -2.1519
 6666TIP3   OH241632   4.201   1.340   0.947 -0.3385 -0.1363 -0.3141
 6666TIP3    H141633   4.236   1.275   1.008  0.6638 -0.8429 -1.5887
 6666TIP3    H241634   4.149   1.290   0.885 -1.8006  0.6401  0.2243
 6667TIP3   OH241635   3.312   1.274   8.133  0.2930 -0.4457  0.4599
 6667TIP3    H141636   3.281   1.184   8.117 -0.9395 -0.1303  0.9114
 6667TIP3    H241637   3.387   1.284   8.076 -1.1859 -0.8580 -1.6690
 6668TIP3   OH241638   6.092   5.169   0.559  0.0894 -0.0865  0.9032
 6668TIP3    H141639   6.044   5.184   0.641 -0.1725  0.1226  0.7109
 6668TIP3    H241640   6.106   5.256   0.523  0.1094 -0.1846  0.6705
 6669TIP3   OH241641   6.255   5.414   7.219  0.2325  0.5788 -0.3821
 6669TIP3    H141642   6.248   5.322   7.246  2.3317  0.5549  0.2113
 6669TIP3    H241643   6.174   5.454   7.250 -1.0795 -1.1962 -1.3149
 6670TIP3   OH241644   2.299   3.595   8.608 -0.7652  0.1541 -0.3053
 6670TIP3    H141645   2.224   3.571   8.554 -1.6649 -0.3502  1.1019
 6670TIP3    H241646   2.290   3.689   8.622 -1.8331 -0.0776  0.7993
 6671TIP3   OH241647   5.317   0.165   6.936 -0.2386  0.3213  0.0801
 6671TIP3    H141648   5.387   0.111   6.900 -0.3770  0.2191 -0.0369
 6671TIP3    H241649   5.270   0.197   6.859 -0.0842  0.7074  0.1441
 6672TIP3   OH241650   1.193   3.817   0.716  0.3545  0.0351  0.0660
 6672TIP3    H141651   1.179   3.910   0.702  1.6266  0.1663 -0.4804
 6672TIP3    H241652   1.187   3.806   0.811  2.3256  1.0766  0.3536
 6673TIP3   OH241653   3.274   2.174   6.756 -0.0438  0.0843 -0.5843
 6673TIP3    H141654   3.285   2.079   6.749 -0.2407  0.0792 -0.8658
 6673TIP3    H241655   3.213   2.196   6.685 -2.7955 -0.0598  1.5575
 6674TIP3   OH241656   0.079   2.099   8.296 -0.0644  0.5885 -0.0227
 6674TIP3    H141657   0.140   2.155   8.344 -0.9776  0.9554  0.7518
 6674TIP3    H241658  -0.008   2.129   8.324 -0.5911 -0.2765 -0.6813
 6675TIP3   OH241659   2.778   2.725   2.045 -0.4016  0.2426  0.1527
 6675TIP3    H141660   2.869   2.703   2.065 -0.2049  0.8070 -0.0943
 6675TIP3    H241661   2.746   2.651   1.994 -0.0654  0.0616  0.2020
 6676TIP3   OH241662   5.144   4.535   0.123  0.4305 -0.0760 -0.1216
 6676TIP3    H141663   5.085   4.610   0.127  0.4914 -0.0421  0.2583
 6676TIP3    H241664   5.201   4.552   0.048 -1.1872 -0.9744 -1.6204
 6677TIP3   OH241665   0.200   1.745   7.858  0.2047 -0.2450  0.3668
 6677TIP3    H141666   0.114   1.707   7.872  0.1539 -0.6385 -0.9378
 6677TIP3    H241667   0.241   1.689   7.792  0.8422  0.8615 -0.2043
 6678TIP3   OH241668   1.033   2.230   1.660  0.1892 -0.4669  0.3267
 6678TIP3    H141669   1.068   2.141   1.667  0.1893 -0.4390  0.7075
 6678TIP3    H241670   0.946   2.219   1.623  0.2423 -0.6163  0.2483
 6679TIP3   OH241671   5.655   2.109   7.424  0.5859  0.3831  0.5695
 6679TIP3    H141672   5.612   2.138   7.344  0.4960  0.2000  0.5487
 6679TIP3    H241673   5.583   2.080   7.480  0.6355  0.6806  0.7878
 6680TIP3   OH241674   6.488   0.465   1.217  0.2463  0.3280  0.1529
 6680TIP3    H141675   6.400   0.496   1.193  0.2227  1.6306  1.7722
 6680TIP3    H241676   6.480   0.435   1.307  0.9954 -1.7025 -0.3922
 6681TIP3   OH241677   2.427   1.820   6.238  0.5053 -0.0309  0.3932
 6681TIP3    H141678   2.514   1.803   6.274  0.5385 -0.9959 -0.1139
 6681TIP3    H241679   2.441   1.889   6.173  0.9497 -0.3923  0.0991
 6682TIP3   OH241680   2.668   1.447   7.793 -0.3576  0.4326  0.3171
 6682TIP3    H141681   2.683   1.526   7.844 -1.1372 -0.2338  1.6537
 6682TIP3    H241682   2.624   1.387   7.854 -1.6682 -0.2888 -1.2443
 6683TIP3   OH241683   6.835   6.503   8.616 -0.2653  0.7369 -0.5840
 6683TIP3    H141684   6.864   6.557   8.690  0.9694 -0.2111 -0.3455
 6683TIP3    H241685   6.875   6.544   8.539  1.2834 -0.2225 -0.3210
 6684TIP3   OH241686   6.693   5.809   0.942  0.2829  0.1949 -0.0654
 6684TIP3    H141687   6.710   5.872   1.012  0.6079 -0.9276  0.9093
 6684TIP3    H241688   6.708   5.723   0.983 -0.8986 -0.5584 -1.1317
 6685TIP3   OH241689   4.949   3.455   6.941  0.0568 -0.2214  0.3505
 6685TIP3    H141690   4.917   3.433   6.854 -2.7521 -0.4196  1.3270
 6685TIP3    H241691   5.007   3.530   6.927 -0.3902 -0.1989 -1.6675
 6686TIP3   OH241692   4.828   3.092   1.229 -0.0172  0.4479 -0.2989
 6686TIP3    H141693   4.921   3.111   1.239  0.2623 -0.8309 -0.3421
 6686TIP3    H241694   4.797   3.080   1.319  0.4088 -1.5266 -0.3785
 6687TIP3   OH241695   4.371   4.344   6.750  0.4882 -0.8150 -0.4252
 6687TIP3    H141696   4.429   4.311   6.682  0.8127  0.3667 -0.7379
 6687TIP3    H241697   4.425   4.401   6.804 -0.5609  1.1686 -1.3518
 6688TIP3   OH241698   2.952   6.776   1.007 -0.1409 -0.6721  0.4734
 6688TIP3    H141699   3.044   6.751   1.001  0.2163  0.7906 -0.7506
 6688TIP3    H241700   2.906   6.695   1.027  1.4229 -1.3994  1.2961
 6689TIP3   OH241701   4.218   3.123   7.594 -0.5740 -0.0980  0.1739
 6689TIP3    H141702   4.221   3.218   7.585  0.9315 -0.1827 -0.5041
 6689TIP3    H241703   4.147   3.107   7.656 -2.4085  1.3339 -1.3904
 6690TIP3   OH241704   4.638   0.023   2.023 -0.1271 -0.2014  0.2337
 6690TIP3    H141705   4.567   0.082   1.997  1.0042  0.7408 -0.8432
 6690TIP3    H241706   4.638   0.026   2.118  0.4419  2.2580  0.2297
 6691TIP3   OH241707   2.507   1.096   1.570 -0.2695 -0.5007 -0.5235
 6691TIP3    H141708   2.567   1.148   1.517  0.2346  0.4268  0.9051
 6691TIP3    H241709   2.563   1.050   1.633 -1.0226  0.6714  1.0777
 6692TIP3   OH241710   4.569   1.313   6.560  0.8186  0.0279 -0.6175
 6692TIP3    H141711   4.542   1.331   6.650 -0.7256  0.6406 -1.1783
 6692TIP3    H241712   4.639   1.376   6.543  1.6532 -0.5957  0.3730
 6693TIP3   OH241713   6.799   3.416   6.785 -0.4659 -0.7007  0.0273
 6693TIP3    H141714   6.812   3.328   6.819 -0.2315 -0.7290 -0.1330
 6693TIP3    H241715   6.876   3.433   6.731 -1.1127 -0.8965 -0.9899
 6694TIP3   OH241716   0.570   6.506   1.490  0.6490  0.0021 -0.5742
 6694TIP3    H141717   0.499   6.566   1.468  1.5567  0.9191 -1.1152
 6694TIP3    H241718   0.630   6.513   1.415 -0.1362 -3.0673 -1.6218
 6695TIP3   OH241719   5.753   6.898   7.029 -0.5514 -0.6525 -0.3231
 6695TIP3    H141720   5.709   6.936   7.105 -0.1502  2.1623 -1.3696
 6695TIP3    H241721   5.684   6.894   6.962 -0.3951 -1.0452 -0.4612
 6696TIP3   OH241722   0.424   2.465   8.437 -0.2186 -0.7309  0.8263
 6696TIP3    H141723   0.442   2.496   8.348  1.8195 -0.1038  1.4200
 6696TIP3    H241724   0.347   2.515   8.464 -0.5040 -0.4908 -0.3466
 6697TIP3   OH241725   3.182   3.411   8.447 -0.1486 -0.0074 -0.4616
 6697TIP3    H141726   3.164   3.491   8.496  0.8651  0.7865 -1.3317
 6697TIP3    H241727   3.219   3.442   8.364  0.8580 -1.3868 -0.5571
 6698TIP3   OH241728   0.052   2.403   1.667 -0.1938  0.5183 -0.3599
 6698TIP3    H141729  -0.029   2.361   1.697  0.2362  0.5666  0.9660
 6698TIP3    H241730   0.027   2.493   1.650 -0.5025  0.4429 -0.3167
 6699TIP3   OH241731   0.725   0.920   0.712  0.2547 -0.2078 -0.4582
 6699TIP3    H141732   0.705   0.993   0.770  1.0403  0.5841 -1.1538
 6699TIP3    H241733   0.789   0.955   0.650  0.8044 -1.5337 -0.6900
 6700TIP3   OH241734   4.092   4.657   7.552  0.3351  0.0522  0.6929
 6700TIP3    H141735   4.054   4.578   7.591 -0.2924 -0.2702 -0.5255
 6700TIP3    H241736   4.019   4.718   7.545  0.0891 -0.3827 -1.1824
 6701TIP3   OH241737   5.370   4.650   1.700 -0.1343 -0.3628 -0.3834
 6701TIP3    H141738   5.337   4.665   1.611 -0.7161 -1.9904 -0.4834
 6701TIP3    H241739   5.452   4.699   1.704  0.8939 -1.7577 -2.4817
 6702TIP3   OH241740   0.401   4.528   1.383 -0.4629  0.0800 -0.1998
 6702TIP3    H141741   0.475   4.563   1.434 -0.5686  1.8216 -1.1529
 6702TIP3    H241742   0.433   4.526   1.293  0.1813 -4.1823 -0.0805
 6703TIP3   OH241743   4.147   6.241   1.365  0.0273  0.2239  0.1941
 6703TIP3    H141744   4.088   6.284   1.426  0.1239 -0.5890  0.8877
 6703TIP3    H241745   4.224   6.298   1.360 -0.5834  1.0293 -0.3194
 6704TIP3   OH241746   2.517   1.002   1.230  0.0100 -1.3155 -0.4096
 6704TIP3    H141747   2.489   0.929   1.176 -2.8546 -1.2971  0.8656
 6704TIP3    H241748   2.508   0.971   1.320  0.8326 -0.0836  0.1362
 6705TIP3   OH241749   5.732   2.710   0.741  0.1116 -0.4078  0.9648
 6705TIP3    H141750   5.773   2.628   0.713 -2.4467 -1.7246  0.7646
 6705TIP3    H241751   5.651   2.715   0.690 -0.4218  1.6165  1.9074
 6706TIP3   OH241752   3.010   5.058   0.059  0.0532 -0.0447  0.4361
 6706TIP3    H141753   3.015   4.981   0.002 -2.2862 -0.9540  1.3011
 6706TIP3    H241754   3.083   5.047   0.120 -0.1855 -1.6106  0.5032
 6707TIP3   OH241755   6.285   1.961   8.152  0.0651 -0.2849  0.2051
 6707TIP3    H141756   6.275   2.052   8.122 -0.0726 -0.1675  0.6077
 6707TIP3    H241757   6.374   1.937   8.127  0.2451  0.1003  0.4798
 6708TIP3   OH241758   4.078   1.312   8.145 -0.2915 -0.4165  0.1102
 6708TIP3    H141759   4.101   1.398   8.109 -1.4121 -0.6462 -1.2258
 6708TIP3    H241760   4.156   1.259   8.134  0.5055  0.4710  1.1831
 6709TIP3   OH241761   3.557   0.226   7.628  0.0345  0.3344  0.5712
 6709TIP3    H141762   3.569   0.270   7.713  0.9061 -0.1557  0.7161
 6709TIP3    H241763   3.569   0.133   7.648  1.6295  0.3143 -0.3063
 6710TIP3   OH241764   3.962   2.419   0.017  0.1051  0.0121 -0.6129
 6710TIP3    H141765   3.892   2.418   0.082  0.4500 -1.9548 -0.1883
 6710TIP3    H241766   3.933   2.481  -0.050 -1.4647  0.1555  0.1568
 6711TIP3   OH241767   4.168   5.352   7.940 -0.0842  0.1450 -0.0928
 6711TIP3    H141768   4.228   5.278   7.930 -1.4674 -0.6903 -3.4080
 6711TIP3    H241769   4.089   5.314   7.977 -0.3769  0.1887 -0.6659
 6712TIP3   OH241770   1.694   5.493   0.913  0.0271 -0.0805  0.6963
 6712TIP3    H141771   1.665   5.499   1.005  0.5059 -0.5367  0.8799
 6712TIP3    H241772   1.687   5.583   0.881 -1.5971 -0.1755  0.7272
 6713TIP3   OH241773   0.945   5.669   1.902 -0.4183  0.2821  0.2998
 6713TIP3    H141774   0.958   5.575   1.913 -1.7620  0.1026  0.5802
 6713TIP3    H241775   0.850   5.680   1.901 -0.3028  1.8148  1.8778
 6714TIP3   OH241776   5.898   6.292   1.621  0.0919  0.0371 -0.1861
 6714TIP3    H141777   5.900   6.319   1.713 -0.9888 -0.6364  0.0517
 6714TIP3    H241778   5.832   6.349   1.581 -2.4925 -2.3213  0.3990
 6715TIP3   OH241779   4.604   3.560   1.126 -0.3913  0.4327 -0.3169
 6715TIP3    H141780   4.582   3.505   1.202  0.0171  0.6506 -0.0354
 6715TIP3    H241781   4.650   3.501   1.066  2.2688  0.9637  1.0334
 6716TIP3   OH241782   2.486   1.170   1.889  0.4519  0.2847 -0.0326
 6716TIP3    H141783   2.501   1.225   1.966  0.3252 -1.2074  1.0872
 6716TIP3    H241784   2.529   1.087   1.909 -1.2815 -0.8303 -0.7181
 6717TIP3   OH241785   5.667   3.279   0.780 -0.4807 -0.5862 -0.2171
 6717TIP3    H141786   5.750   3.306   0.741 -1.0394  1.1860 -0.2467
 6717TIP3    H241787   5.637   3.208   0.722  1.3595 -1.8565  0.2761
 6718TIP3   OH241788   3.765   0.291   0.479 -0.2317 -0.3484 -0.1577
 6718TIP3    H141789   3.684   0.320   0.520 -0.6169 -1.0843 -0.3702
 6718TIP3    H241790   3.753   0.196   0.468  1.0940 -0.6479  0.7792
 6719TIP3   OH241791   2.165   5.719   6.724  0.6750 -0.0329  0.2822
 6719TIP3    H141792   2.084   5.766   6.704  1.1438  0.3095 -0.9014
 6719TIP3    H241793   2.217   5.781   6.774 -0.1115 -0.5583  1.8484
 6720TIP3   OH241794   2.595   5.558   0.943 -0.3595 -0.0173  0.0247
 6720TIP3    H141795   2.645   5.511   0.876 -0.6013  0.3159 -0.4002
 6720TIP3    H241796   2.598   5.649   0.914 -0.8111  0.0680  0.2487
 6721TIP3   OH241797   4.539   1.434   7.890 -0.1971  0.0232 -0.3606
 6721TIP3    H141798   4.615   1.376   7.878 -0.7975 -0.5561 -1.5396
 6721TIP3    H241799   4.577   1.522   7.895  0.6068 -0.3230 -0.2148
 6722TIP3   OH241800   3.614   3.138   0.825 -0.7324  0.5647 -0.3651
 6722TIP3    H141801   3.546   3.194   0.788 -1.8977  0.9856  2.1513
 6722TIP3    H241802   3.590   3.129   0.917  1.6042 -0.8721  0.2045
 6723TIP3   OH241803   0.257   0.263   1.185 -0.0987 -0.3011 -0.0738
 6723TIP3    H141804   0.300   0.347   1.203 -1.3545  0.0923  1.3650
 6723TIP3    H241805   0.318   0.197   1.218  0.0169  0.1653  0.6710
 6724TIP3   OH241806   2.040   2.238   0.849 -0.4132 -0.3096 -0.3095
 6724TIP3    H141807   2.091   2.192   0.916  1.1978  1.7866  0.0367
 6724TIP3    H241808   1.954   2.195   0.850 -0.1446 -1.0024  2.4367
 6725TIP3   OH241809   5.831   0.533   7.765 -0.3480  0.1593 -0.2606
 6725TIP3    H141810   5.880   0.609   7.797 -1.7504  1.2957 -0.7501
 6725TIP3    H241811   5.899   0.472   7.736  0.8322  0.7661  1.1000
 6726TIP3   OH241812   3.397   6.583   1.275  0.3433  0.2773 -0.5252
 6726TIP3    H141813   3.475   6.594   1.221 -0.2802 -1.2350 -1.7940
 6726TIP3    H241814   3.424   6.615   1.361  1.6646  1.8513 -1.4576
 6727TIP3   OH241815   5.924   4.148   0.979  0.7728 -0.2034  0.0946
 6727TIP3    H141816   5.971   4.092   0.917  1.6934 -0.4362  0.9776
 6727TIP3    H241817   5.964   4.235   0.968  0.5669 -0.1246 -0.0240
 6728TIP3   OH241818   5.974   3.394   0.963  0.1044 -0.4044 -0.7327
 6728TIP3    H141819   5.905   3.382   1.028  0.4134  3.7163  0.6380
 6728TIP3    H241820   6.052   3.357   1.003 -0.1050  0.3938  0.4461
 6729TIP3   OH241821   1.266   6.571   8.174  0.4321 -0.2732 -0.1130
 6729TIP3    H141822   1.267   6.573   8.270  1.6887  0.8311 -0.1250
 6729TIP3    H241823   1.182   6.532   8.152  0.4473 -1.2918  1.4487
 6730TIP3   OH241824   2.696   0.275   6.294 -0.4665  0.0755 -0.1585
 6730TIP3    H141825   2.630   0.252   6.229 -1.2389  1.4302  0.1176
 6730TIP3    H241826   2.700   0.197   6.351 -0.6758 -0.6312 -1.0821
 6731TIP3   OH241827   5.617   5.296   1.048 -0.2935  0.4041  0.1190
 6731TIP3    H141828   5.530   5.272   1.080 -0.4013  0.6551  0.0180
 6731TIP3    H241829   5.606   5.384   1.011 -0.0933  0.2653 -0.2821
 6732TIP3   OH241830   2.179   1.587   6.961  0.2714  0.3607 -0.3144
 6732TIP3    H141831   2.183   1.564   6.868  0.6763  1.6310 -0.6453
 6732TIP3    H241832   2.086   1.596   6.980  0.2127  2.8336 -1.3822
 6733TIP3   OH241833   2.589   1.663   0.643  0.2400  0.2392 -0.0215
 6733TIP3    H141834   2.599   1.726   0.572 -0.4077  2.3563  1.6431
 6733TIP3    H241835   2.673   1.666   0.690 -0.3218  1.1488  0.9877
 6734TIP3   OH241836   1.579   3.634   6.649  0.2947 -0.1120  0.3939
 6734TIP3    H141837   1.565   3.669   6.561 -0.8209  0.5849  0.8201
 6734TIP3    H241838   1.664   3.668   6.677 -0.3045  1.4633  0.4006
 6735TIP3   OH241839   1.424   3.252   7.775  0.6206  0.2468 -0.1070
 6735TIP3    H141840   1.477   3.278   7.851 -0.6192 -1.0239  1.2717
 6735TIP3    H241841   1.438   3.158   7.768  0.9213  0.3858 -1.6656
 6736TIP3   OH241842   6.627   4.620   8.139 -0.1439  0.3209  0.2312
 6736TIP3    H141843   6.632   4.712   8.164 -2.9350  1.1259 -1.7760
 6736TIP3    H241844   6.534   4.601   8.133  0.3114 -2.8886  1.1770
 6737TIP3   OH241845   4.338   0.185   7.806  0.1395  0.2884  0.3975
 6737TIP3    H141846   4.350   0.099   7.847 -1.6428 -0.2266 -0.0556
 6737TIP3    H241847   4.407   0.190   7.740  1.6460  0.1773  1.9218
 6738TIP3   OH241848   6.883   0.676   8.602 -0.0156 -0.3885 -0.4253
 6738TIP3    H141849   6.895   0.673   8.507 -3.7289  0.2546 -1.0584
 6738TIP3    H241850   6.808   0.618   8.619  0.9522 -1.0248  2.2455
 6739TIP3   OH241851   1.041   3.427   7.300 -0.0577  0.3863 -0.5149
 6739TIP3    H141852   1.042   3.361   7.371  1.0179  1.3300  0.3922
 6739TIP3    H241853   1.116   3.404   7.246  0.3677  0.8832 -0.1520
 6740TIP3   OH241854   6.802   5.608   0.456  0.3243  0.3193 -0.1883
 6740TIP3    H141855   6.866   5.549   0.495  0.6185 -0.5975 -1.9389
 6740TIP3    H241856   6.853   5.662   0.395 -0.6195 -1.0603 -2.3138
 6741TIP3   OH241857   5.732   6.112   8.131  0.0801  0.6812 -0.3058
 6741TIP3    H141858   5.812   6.077   8.094 -0.5954  0.7114 -1.8722
 6741TIP3    H241859   5.758   6.195   8.172  0.5240  1.7813 -2.6787
 6742TIP3   OH241860   6.624   5.252   0.302 -0.4534 -0.0910  0.1096
 6742TIP3    H141861   6.640   5.242   0.396 -1.1449 -0.8595  0.1594
 6742TIP3    H241862   6.549   5.195   0.284 -0.8150  0.6387 -0.7701
 6743TIP3   OH241863   6.429   6.434   0.195  0.3878  0.2679 -0.6226
 6743TIP3    H141864   6.403   6.346   0.222 -0.3421  0.4398 -0.7416
 6743TIP3    H241865   6.477   6.422   0.113  0.2641 -0.0181 -0.6516
 6744TIP3   OH241866   5.495   2.853   1.333 -0.1258 -0.4807 -0.2492
 6744TIP3    H141867   5.499   2.759   1.315  0.7842 -0.6694  0.8183
 6744TIP3    H241868   5.586   2.880   1.339 -0.3615  0.0721  1.3459
 6745TIP3   OH241869   4.257   4.570   0.718 -0.5766 -0.3031 -0.1253
 6745TIP3    H141870   4.219   4.565   0.806  0.7927 -0.1415  0.5038
 6745TIP3    H241871   4.244   4.483   0.681 -3.2078  0.2316 -0.6951
 6746TIP3   OH241872   1.071   5.454   6.777  0.0212  0.0868 -0.1913
 6746TIP3    H141873   1.107   5.536   6.743 -0.0435  0.5855  0.9218
 6746TIP3    H241874   1.041   5.475   6.865  1.8881 -1.6310  0.9153
 6747TIP3   OH241875   1.709   0.142   7.345 -0.1036 -0.6118  0.3794
 6747TIP3    H141876   1.721   0.049   7.366  0.3642 -0.8952 -1.0338
 6747TIP3    H241877   1.621   0.147   7.308 -0.6200 -0.2485  1.5927
 6748TIP3   OH241878   6.339   5.163   0.962  0.5643  0.5449 -0.3332
 6748TIP3    H141879   6.414   5.143   1.018 -0.2786 -0.9129  0.3321
 6748TIP3    H241880   6.265   5.122   1.006 -0.5762  1.6008 -1.1874
 6749TIP3   OH241881   2.320   2.989   0.699  0.9286  0.2838 -0.6251
 6749TIP3    H141882   2.260   3.049   0.745  2.7120 -0.7118  3.4865
 6749TIP3    H241883   2.282   2.902   0.713  1.2501 -0.0222 -1.5822
 6750TIP3   OH241884   5.458   3.542   7.867  0.0155  0.1882 -0.4040
 6750TIP3    H141885   5.477   3.456   7.829 -1.7203 -0.0082 -0.9147
 6750TIP3    H241886   5.498   3.604   7.806  1.2281 -0.2216 -0.0638
 6751TIP3   OH241887   5.850   4.969   7.756 -0.4532 -0.5230 -0.2890
 6751TIP3    H141888   5.909   4.988   7.828  0.2675  1.1154 -1.2425
 6751TIP3    H241889   5.769   5.014   7.779 -0.0084  0.5604 -0.7694
 6752TIP3   OH241890   3.879   3.758   0.357 -0.2051 -0.6241  0.4457
 6752TIP3    H141891   3.802   3.725   0.311  0.1554 -0.7487 -0.0790
 6752TIP3    H241892   3.880   3.710   0.440  0.2550 -1.8883 -0.2623
 6753TIP3   OH241893   6.737   5.905   7.635 -0.3735 -0.0357 -0.2752
 6753TIP3    H141894   6.809   5.931   7.692 -0.2910  0.5909 -0.6555
 6753TIP3    H241895   6.736   5.972   7.566  2.3586 -2.9245 -3.5650
 6754TIP3   OH241896   0.513   6.719   6.394 -0.1331  0.7974 -0.0861
 6754TIP3    H141897   0.587   6.703   6.453  1.4421 -0.1102 -2.1788
 6754TIP3    H241898   0.499   6.814   6.398  0.2531  0.8159  1.3436
 6755TIP3   OH241899   2.412   4.261   1.194 -0.1584 -0.0264  0.5161
 6755TIP3    H141900   2.320   4.246   1.172  0.3488 -0.0550 -1.7231
 6755TIP3    H241901   2.457   4.184   1.160  0.8410  0.5366  0.5541
 6756TIP3   OH241902   4.363   6.098   8.014  0.2213  0.4058 -0.1021
 6756TIP3    H141903   4.394   6.009   7.995 -1.1113  0.1397 -1.1416
 6756TIP3    H241904   4.414   6.125   8.091  0.8859 -1.1265  0.0297
 6757TIP3   OH241905   5.507   4.378   7.593  0.2740  0.1638  0.1225
 6757TIP3    H141906   5.533   4.358   7.503  1.0405 -0.3249  0.4465
 6757TIP3    H241907   5.464   4.297   7.624 -1.9211  1.0183 -0.4761
 6758TIP3   OH241908   0.520   6.621   1.021  0.2703  0.4549  0.3346
 6758TIP3    H141909   0.515   6.581   0.934 -0.0992 -0.2829  0.6816
 6758TIP3    H241910   0.599   6.675   1.018 -0.1392  1.0129 -0.6850
 6759TIP3   OH241911   6.141   6.521   7.929 -0.2496  0.8260  0.0880
 6759TIP3    H141912   6.125   6.583   7.858  0.3409  1.0915  0.1799
 6759TIP3    H241913   6.078   6.545   7.997  0.5479  1.9023  0.4777
 6760TIP3   OH241914   2.265   3.073   6.842  0.0475 -0.8547  0.6032
 6760TIP3    H141915   2.328   3.008   6.813  0.5261 -0.1137 -0.0600
 6760TIP3    H241916   2.181   3.028   6.839 -0.0480 -0.7033 -2.5340
 6761TIP3   OH241917   4.779   4.622   6.751 -0.5931 -0.1047 -0.0845
 6761TIP3    H141918   4.798   4.682   6.679  0.3871  0.7182  0.8313
 6761TIP3    H241919   4.830   4.656   6.825 -0.4247 -1.7674  0.6025
 6762TIP3   OH241920   3.479   5.961   6.813 -0.7005 -0.3810  0.3552
 6762TIP3    H141921   3.512   5.980   6.901  0.6062 -1.9613  0.2570
 6762TIP3    H241922   3.457   6.046   6.777 -0.0278  0.4210  1.7532
 6763TIP3   OH241923   2.097   3.389   1.161 -0.5746 -0.5683  0.2525
 6763TIP3    H141924   2.153   3.377   1.084 -1.1549  2.0253 -0.6989
 6763TIP3    H241925   2.124   3.474   1.196 -2.7435 -0.0435  0.7761
 6764TIP3   OH241926   0.202   5.961   0.640  0.0041  0.5409  0.4517
 6764TIP3    H141927   0.178   5.976   0.549 -1.3989  1.0719  0.8680
 6764TIP3    H241928   0.121   5.931   0.681  1.3157 -2.7167  0.9255
 6765TIP3   OH241929   6.293   2.922   7.941 -0.0405  0.0903 -0.1898
 6765TIP3    H141930   6.200   2.944   7.932 -0.0722 -0.1498 -0.4470
 6765TIP3    H241931   6.300   2.882   8.028 -0.5173 -1.6473 -0.9259
 6766TIP3   OH241932   5.714   1.075   1.381  0.3088  0.3263  0.0483
 6766TIP3    H141933   5.714   1.142   1.313  2.8924  0.9995  0.6368
 6766TIP3    H241934   5.724   1.124   1.463 -0.4495 -0.6350  0.7461
 6767TIP3   OH241935   6.137   5.099   8.559 -0.1772 -0.0312  0.3110
 6767TIP3    H141936   6.137   5.036   8.487 -0.6449  0.8815 -0.5196
 6767TIP3    H241937   6.081   5.059   8.626  0.0425 -0.7706  0.0637
 6768TIP3   OH241938   2.845   5.285   8.289  0.3446 -0.1238  0.8020
 6768TIP3    H141939   2.917   5.244   8.242 -0.4552 -0.7336  0.0652
 6768TIP3    H241940   2.886   5.355   8.340  1.5867 -1.1129  1.2207
 6769TIP3   OH241941   3.243   0.358   6.815  0.6004  0.3892  0.2082
 6769TIP3    H141942   3.245   0.426   6.748  1.1318  0.5745  0.4103
 6769TIP3    H241943   3.294   0.286   6.778 -2.2581 -1.1043 -1.2515
 6770TIP3   OH241944   5.162   6.333   1.677 -0.4789  0.3008  0.0004
 6770TIP3    H141945   5.164   6.311   1.770  1.1582  1.7008  0.3443
 6770TIP3    H241946   5.069   6.335   1.654 -0.9059 -3.7984  0.6185
 6771TIP3   OH241947   0.273   2.557   2.307 -0.1439  0.6244 -0.5240
 6771TIP3    H141948   0.201   2.612   2.274 -1.8128  0.0533  1.8470
 6771TIP3    H241949   0.244   2.467   2.291  0.2622  0.3955  0.0033
 6772TIP3   OH241950   0.070   6.366   8.028 -0.1401 -0.5377  0.5620
 6772TIP3    H141951   0.151   6.416   8.038  1.1698 -1.9407 -2.1218
 6772TIP3    H241952   0.064   6.314   8.108  2.1106 -1.0441  0.4694
 6773TIP3   OH241953   1.304   3.627   7.416 -0.3292  0.2610 -0.6514
 6773TIP3    H141954   1.276   3.549   7.367 -0.3056 -0.2518  0.1402
 6773TIP3    H241955   1.399   3.616   7.425 -0.5276 -0.4771  0.8919
 6774TIP3   OH241956   5.129   5.048   8.242 -0.6742 -0.0304 -0.1337
 6774TIP3    H141957   5.181   5.025   8.165  1.1584 -1.5378  1.4390
 6774TIP3    H241958   5.057   5.099   8.208 -0.4551 -1.4179 -2.9686
 6775TIP3   OH241959   0.783   3.106   8.056  0.2696 -0.4222  0.6204
 6775TIP3    H141960   0.868   3.115   8.099  0.9008  0.8196 -0.8012
 6775TIP3    H241961   0.777   3.013   8.035  2.0463 -0.3182 -0.6582
 6776TIP3   OH241962   6.884   0.420   8.443 -0.1116  0.7403  0.1037
 6776TIP3    H141963   6.965   0.393   8.486  0.6786  1.9951 -0.5193
 6776TIP3    H241964   6.907   0.501   8.398 -0.9411 -0.4111 -2.5587
 6777TIP3   OH241965   1.557   5.654   2.258 -0.2259 -0.7453  0.1761
 6777TIP3    H141966   1.596   5.741   2.266  0.7202 -1.1924  0.5885
 6777TIP3    H241967   1.468   5.671   2.226 -1.5286  0.6472  3.9370
 6778TIP3   OH241968   1.193   1.621   2.103  0.5134  0.3086 -0.4823
 6778TIP3    H141969   1.260   1.579   2.156 -0.2721 -0.3826 -0.0129
 6778TIP3    H241970   1.146   1.548   2.062  0.5533  0.8035 -1.4386
 6779TIP3   OH241971   2.245   1.697   7.405 -0.0387  0.4595  0.1583
 6779TIP3    H141972   2.306   1.626   7.390 -2.0468 -1.2514 -0.4006
 6779TIP3    H241973   2.236   1.701   7.501  0.4839  0.3477  0.2149
 6780TIP3   OH241974   1.704   1.249   7.326  0.1602 -0.1314 -0.0215
 6780TIP3    H141975   1.695   1.308   7.401  1.4686  0.8050 -0.5580
 6780TIP3    H241976   1.798   1.252   7.305 -0.4487  1.3218 -3.0326
 6781TIP3   OH241977   0.564   5.178   0.184 -0.4303 -0.2039 -0.0258
 6781TIP3    H141978   0.491   5.214   0.134 -1.2743  0.3356  1.5243
 6781TIP3    H241979   0.526   5.105   0.233  0.6841 -1.5987 -1.1373
 6782TIP3   OH241980   0.634   5.177   0.810  0.6975 -0.0741 -0.3876
 6782TIP3    H141981   0.569   5.128   0.861 -0.2269 -0.6210 -2.0432
 6782TIP3    H241982   0.659   5.250   0.867 -1.7375  0.4490  0.1053
 6783TIP3   OH241983   6.030   1.292   7.634 -0.1740 -0.4833 -0.1603
 6783TIP3    H141984   6.051   1.378   7.599 -1.0737  0.7610  2.1320
 6783TIP3    H241985   5.958   1.260   7.579 -0.0800  0.3730 -0.7974
 6784TIP3   OH241986   5.078   5.387   0.754 -1.3245 -0.4271  0.5526
 6784TIP3    H141987   5.171   5.383   0.775 -0.3848 -0.4768 -3.0083
 6784TIP3    H241988   5.050   5.473   0.785 -0.3377 -0.7398  2.3898
 6785TIP3   OH241989   3.685   6.544   7.255 -0.2370 -0.7925  0.1649
 6785TIP3    H141990   3.648   6.480   7.316 -0.3845  0.3139  1.2832
 6785TIP3    H241991   3.619   6.613   7.249  0.8515  0.3702  0.8366
 6786TIP3   OH241992   3.688   3.228   0.175  0.2086 -0.1014 -0.3323
 6786TIP3    H141993   3.728   3.163   0.118 -0.3203 -1.3370  0.6644
 6786TIP3    H241994   3.650   3.177   0.247  1.1230  1.4217  1.2966
 6787TIP3   OH241995   0.083   4.872   6.387  0.2476 -0.5284 -0.4921
 6787TIP3    H141996   0.112   4.888   6.297  0.5176 -0.6436 -0.4272
 6787TIP3    H241997   0.162   4.845   6.433 -0.1939 -2.1529 -0.6218
 6788TIP3   OH241998   1.939   4.650   1.085 -0.1720 -0.3847 -0.0484
 6788TIP3    H141999   1.860   4.685   1.126 -0.3349 -0.0949 -0.5948
 6788TIP3    H242000   1.977   4.592   1.151  0.8442  1.8504  1.4299
 6789TIP3   OH242001   1.390   2.872   1.948 -0.3388  0.3703 -0.4823
 6789TIP3    H142002   1.343   2.804   1.997 -0.6018  0.2424 -0.9112
 6789TIP3    H242003   1.396   2.838   1.859 -0.2339  0.7945 -0.6378
 6790TIP3   OH242004   2.911   1.536   8.447 -0.2684  0.0591 -0.1344
 6790TIP3    H142005   2.972   1.490   8.389 -1.1203  0.2966 -1.2401
 6790TIP3    H242006   2.900   1.476   8.521 -0.5791 -1.0926 -1.0847
 6791TIP3   OH242007   2.493   5.726   6.884 -0.1283 -0.1249 -0.2045
 6791TIP3    H142008   2.554   5.693   6.818  0.5111  0.6536 -0.0138
 6791TIP3    H242009   2.450   5.647   6.918  0.0226 -0.5921 -1.0683
 6792TIP3   OH242010   5.632   1.950   8.451  0.1324 -0.2251 -0.0525
 6792TIP3    H142011   5.604   1.940   8.360  1.0018 -0.3915 -0.3097
 6792TIP3    H242012   5.605   1.868   8.494 -1.5462  0.4061  0.2077
 6793TIP3   OH242013   3.467   4.676   7.719  0.2405 -0.7341 -0.2677
 6793TIP3    H142014   3.437   4.593   7.757 -1.5752  0.2584  0.5994
 6793TIP3    H242015   3.391   4.733   7.723  1.4229  0.9749 -0.9311
 6794TIP3   OH242016   0.853   4.774   8.630  0.3090  0.0022  0.0454
 6794TIP3    H142017   0.897   4.700   8.670 -0.4988  0.7352  2.4466
 6794TIP3    H242018   0.766   4.776   8.671 -1.1118  0.0705 -2.7035
 6795TIP3   OH242019   5.561   4.814   7.914  1.0438 -0.6851  0.4781
 6795TIP3    H142020   5.487   4.816   7.974  1.0323  0.5537  0.4547
 6795TIP3    H242021   5.596   4.725   7.921  0.1774 -0.9761  1.2437
 6796TIP3   OH242022   5.860   5.994   7.815 -0.2822 -0.0291 -0.1678
 6796TIP3    H142023   5.881   6.036   7.731  1.0670  2.1905  1.1602
 6796TIP3    H242024   5.878   6.062   7.880 -1.5900 -1.5722  1.9189
 6797TIP3   OH242025   0.016   0.730   6.933 -0.2312  0.8983  0.1692
 6797TIP3    H142026  -0.077   0.714   6.953  0.3686 -0.1222  2.5273
 6797TIP3    H242027   0.042   0.657   6.878 -0.6707  0.8166  0.0695
 6798TIP3   OH242028   4.478   6.871   6.927 -0.4671 -0.0378 -0.4306
 6798TIP3    H142029   4.434   6.952   6.951 -0.2414 -0.4211  1.3964
 6798TIP3    H242030   4.410   6.804   6.931 -0.0315 -0.4172  1.0930
 6799TIP3   OH242031   5.515   3.336   0.046  0.0812 -0.4046 -0.1016
 6799TIP3    H142032   5.471   3.379  -0.028 -1.3611  2.5510  2.2701
 6799TIP3    H242033   5.573   3.404   0.081  0.5115 -1.6247  1.6438
 6800TIP3   OH242034   3.502   2.152   2.580 -0.1265  0.3638 -0.3359
 6800TIP3    H142035   3.594   2.174   2.592 -0.0232  0.0528 -0.5780
 6800TIP3    H242036   3.502   2.076   2.522 -0.4434 -0.7583  1.0779
 6801TIP3   OH242037   3.621   2.558   8.436 -0.0992 -0.2436  0.7675
 6801TIP3    H142038   3.527   2.573   8.431  0.1521  1.2175  0.0424
 6801TIP3    H242039   3.631   2.494   8.507 -1.5522  0.4103  1.6050
 6802TIP3   OH242040   2.719   3.726   0.849 -0.0014 -0.5629 -0.7715
 6802TIP3    H142041   2.657   3.665   0.808  1.2196 -2.0031 -0.5744
 6802TIP3    H242042   2.743   3.684   0.931  1.2515 -0.0691 -0.8658
 6803TIP3   OH242043   3.929   3.082   7.959 -0.2011 -0.1044 -0.2058
 6803TIP3    H142044   4.019   3.085   7.993 -0.6995 -2.4166  1.5473
 6803TIP3    H242045   3.940   3.082   7.864  1.7448 -1.3747 -0.0487
 6804TIP3   OH242046   1.945   6.698   7.832 -0.7639 -0.1602  0.7198
 6804TIP3    H142047   1.956   6.792   7.818  0.8204 -0.1090  1.9628
 6804TIP3    H242048   1.859   6.689   7.873 -0.2869  0.9393  2.0070
 6805TIP3   OH242049   0.133   4.182   0.243 -0.0809 -0.1999  0.0395
 6805TIP3    H142050   0.086   4.104   0.212  1.6415 -2.1181  1.9861
 6805TIP3    H242051   0.208   4.190   0.185 -0.1427 -0.1140 -0.0290
 6806TIP3   OH242052   2.400   0.686   8.245  0.3154 -0.1924  0.0730
 6806TIP3    H142053   2.384   0.593   8.258  1.4016 -0.4517 -0.3709
 6806TIP3    H242054   2.324   0.729   8.283 -0.2886 -1.2676  0.1075
 6807TIP3   OH242055   0.226   1.135   0.090  0.2518 -0.1556  0.4162
 6807TIP3    H142056   0.161   1.064   0.090  2.6694 -2.7835  4.3179
 6807TIP3    H242057   0.285   1.113   0.017 -1.9907  1.2307 -1.9837
 6808TIP3   OH242058   5.075   1.367   6.610  0.0427  0.3736 -1.0894
 6808TIP3    H142059   5.130   1.444   6.628 -0.7811  0.3541  2.1596
 6808TIP3    H242060   5.135   1.303   6.572  1.4543  1.5765 -0.9818
 6809TIP3   OH242061   4.395   4.626   8.005 -0.0550  0.4906  0.4302
 6809TIP3    H142062   4.406   4.700   7.945  0.2379  0.1927  0.1113
 6809TIP3    H242063   4.364   4.665   8.086  1.7890  1.1747  0.8360
 6810TIP3   OH242064   0.054   6.853   8.603 -0.2732 -0.0392 -0.3008
 6810TIP3    H142065   0.144   6.883   8.603 -0.2474 -0.1192 -0.0187
 6810TIP3    H242066   0.050   6.790   8.530 -0.1688  0.1611 -0.4803
 6811TIP3   OH242067   1.237   3.288   1.286  0.1702  0.4547  0.2272
 6811TIP3    H142068   1.195   3.336   1.357  3.3001  1.2323  1.7478
 6811TIP3    H242069   1.242   3.350   1.214 -0.8263  0.4987  0.1943
 6812TIP3   OH242070   2.296   4.741   7.892  0.3604 -0.2332 -0.4060
 6812TIP3    H142071   2.378   4.709   7.930  0.4128 -0.1671 -0.4629
 6812TIP3    H242072   2.264   4.804   7.956 -0.0193 -0.7958 -0.0344
 6813TIP3   OH242073   2.210   1.844   1.124  0.0650  0.0052  0.2948
 6813TIP3    H142074   2.285   1.822   1.179  1.3327  2.4521 -0.3381
 6813TIP3    H242075   2.141   1.867   1.186 -0.2314 -2.2244  0.8806
 6814TIP3   OH242076   6.603   1.381   8.662  0.0982  0.6814  0.2314
 6814TIP3    H142077   6.566   1.296   8.639 -1.8349  1.6176 -0.3530
 6814TIP3    H242078   6.609   1.428   8.579  2.1278  0.7998  0.3992
 6815TIP3   OH242079   4.361   5.534   8.023 -0.1365 -0.4128  0.3025
 6815TIP3    H142080   4.291   5.471   8.009  3.9538 -5.1998 -1.9129
 6815TIP3    H242081   4.357   5.592   7.947 -0.2817 -2.2950 -1.2098
 6816TIP3   OH242082   3.582   1.030   8.545  0.1489 -0.3012 -0.0756
 6816TIP3    H142083   3.661   1.007   8.496 -0.3783 -1.8854 -0.2392
 6816TIP3    H242084   3.561   0.951   8.595 -0.6290  0.5186  0.9497
 6817TIP3   OH242085   2.585   2.873   8.081  0.1410 -0.1439 -0.3707
 6817TIP3    H142086   2.519   2.903   8.144 -0.7320 -1.8038 -0.4322
 6817TIP3    H242087   2.539   2.870   7.997  1.1677  1.5866 -1.0442
 6818TIP3   OH242088   4.682   3.799   7.388  0.0023 -0.4118 -0.0584
 6818TIP3    H142089   4.748   3.730   7.395  0.0753 -0.2931  0.4355
 6818TIP3    H242090   4.648   3.790   7.299  1.7042  0.4427 -0.8412
 6819TIP3   OH242091   3.637   4.481   1.464  0.3246 -0.3889  0.0887
 6819TIP3    H142092   3.686   4.476   1.546  0.1390 -2.6797  0.1202
 6819TIP3    H242093   3.622   4.390   1.439 -1.3412  0.2484 -1.4735
 6820TIP3   OH242094   4.546   0.148   7.589  0.3317  0.3605  0.1217
 6820TIP3    H142095   4.460   0.113   7.564 -0.6140  2.2656  0.5180
 6820TIP3    H242096   4.595   0.152   7.507 -1.3014  2.6967 -0.8402
 6821TIP3   OH242097   1.468   2.489   7.424 -0.9123  0.0348 -0.5941
 6821TIP3    H142098   1.473   2.400   7.389 -3.3545  0.1134 -1.3337
 6821TIP3    H242099   1.479   2.546   7.348  0.3810  0.3925 -0.1613
 6822TIP3   OH242100   1.586   2.183   0.267  0.1324 -0.5424  0.9255
 6822TIP3    H142101   1.558   2.097   0.295 -1.4285 -0.7735 -1.1494
 6822TIP3    H242102   1.513   2.241   0.288 -0.6388 -0.5391 -1.4829
 6823TIP3   OH242103   6.403   4.658   8.364 -0.1614  0.7155  0.1622
 6823TIP3    H142104   6.451   4.591   8.413  1.8607  1.9981  0.0804
 6823TIP3    H242105   6.385   4.618   8.279  2.3050  0.6815 -0.4217
 6824TIP3   OH242106   2.680   0.214   1.578 -0.4768  0.4013  0.5081
 6824TIP3    H142107   2.623   0.137   1.589 -0.5633  0.3646 -0.1870
 6824TIP3    H242108   2.755   0.181   1.529 -0.9055  0.9360 -0.5264
 6825TIP3   OH242109   1.713   3.065   0.326  0.2680  0.2857 -0.1826
 6825TIP3    H142110   1.789   3.017   0.360  0.4576  1.3586  0.9484
 6825TIP3    H242111   1.714   3.148   0.373 -0.3743  1.1910 -1.7230
 6826TIP3   OH242112   0.700   5.741   8.518 -0.3306  0.1766  0.3845
 6826TIP3    H142113   0.623   5.776   8.563 -0.5674 -1.8435  1.6820
 6826TIP3    H242114   0.663   5.688   8.447 -0.0283  1.1721 -0.5425
 6827TIP3   OH242115   1.674   2.416   0.927  0.1901  0.0131 -0.1313
 6827TIP3    H142116   1.706   2.410   0.837  1.4425 -0.6499  0.3364
 6827TIP3    H242117   1.581   2.395   0.921  0.5532 -1.4272 -1.0910
 6828TIP3   OH242118   0.161   1.867   0.055  0.1572 -0.6073 -0.3561
 6828TIP3    H142119   0.229   1.862  -0.012 -1.7781  0.1367 -2.5073
 6828TIP3    H242120   0.083   1.832   0.012 -1.8717  2.5278  0.4863
 6829TIP3   OH242121   5.391   5.621   6.573  0.3802  0.1692 -0.3823
 6829TIP3    H142122   5.483   5.605   6.594  0.5451  1.0199 -0.4227
 6829TIP3    H242123   5.393   5.659   6.485  0.1473  1.7280  0.2471
 6830TIP3   OH242124   1.791   0.427   0.523 -0.1124  0.5447  0.0820
 6830TIP3    H142125   1.801   0.431   0.618  2.5765  0.6104 -0.1244
 6830TIP3    H242126   1.721   0.363   0.508  0.0870 -0.1910  2.0846
 6831TIP3   OH242127   2.244   0.204   1.493  0.0865  0.3764  0.4415
 6831TIP3    H142128   2.267   0.220   1.585  1.0234 -1.7640  0.6286
 6831TIP3    H242129   2.180   0.133   1.496  1.2141 -0.7337 -0.5971
 6832TIP3   OH242130   0.344   6.159   7.751 -0.6206  0.2823 -0.0534
 6832TIP3    H142131   0.414   6.110   7.795 -1.3477 -0.1237  0.6636
 6832TIP3    H242132   0.323   6.107   7.674 -2.1525 -1.1679  1.2770
 6833TIP3   OH242133   6.706   4.223   1.011 -0.6417 -0.2569  0.0204
 6833TIP3    H142134   6.769   4.268   0.955 -1.0342  1.1071  0.6372
 6833TIP3    H242135   6.760   4.181   1.079 -0.3993  1.5516  1.0055
 6834TIP3   OH242136   2.011   6.084   6.390 -0.0329 -0.3446 -0.1191
 6834TIP3    H142137   2.014   6.087   6.486  0.6182 -1.8645 -0.0606
 6834TIP3    H242138   1.943   6.019   6.370 -0.8507  0.6732 -0.7189
 6835TIP3   OH242139   2.340   0.688   0.411  0.6976 -0.0046  0.2866
 6835TIP3    H142140   2.297   0.758   0.460  1.3306 -0.4559  1.5537
 6835TIP3    H242141   2.333   0.611   0.468 -0.0888 -1.0257 -1.1259
 6836TIP3   OH242142   5.234   0.653   7.428  0.2223 -0.1392  0.3600
 6836TIP3    H142143   5.269   0.671   7.515  0.8113  0.5952 -0.0156
 6836TIP3    H242144   5.237   0.558   7.420  0.5311 -0.1866  1.0006
 6837TIP3   OH242145   2.097   2.065   7.584 -0.6646  0.4873  0.2785
 6837TIP3    H142146   2.025   2.002   7.590 -0.2070 -0.0787 -0.0944
 6837TIP3    H242147   2.076   2.120   7.509 -1.3521  1.1544  0.9445
 6838TIP3   OH242148   6.273   6.603   7.501  0.5792 -0.1658 -0.3015
 6838TIP3    H142149   6.298   6.549   7.576  1.6192 -0.2712 -0.7077
 6838TIP3    H242150   6.181   6.581   7.486  1.0665 -2.1542 -0.6994
 6839TIP3   OH242151   1.959   1.194   0.358  0.1368  0.2228  0.3865
 6839TIP3    H142152   1.983   1.123   0.418 -0.4410 -0.4137 -0.1233
 6839TIP3    H242153   1.954   1.153   0.272 -2.2853  0.3954  0.3780
 6840TIP3   OH242154   5.427   0.378   1.577 -0.4106 -0.0003  0.4088
 6840TIP3    H142155   5.497   0.414   1.522 -1.0055 -2.1129 -1.9347
 6840TIP3    H242156   5.457   0.290   1.599 -1.9834 -0.6794 -0.0360
 6841TIP3   OH242157   4.622   2.563   8.179 -0.4139 -0.9394 -0.2203
 6841TIP3    H142158   4.565   2.488   8.193  0.0519 -1.3186 -0.3045
 6841TIP3    H242159   4.669   2.542   8.098 -2.2264  0.6738 -1.7866
 6842TIP3   OH242160   0.806   3.822   0.190 -0.5429 -0.3367 -0.2530
 6842TIP3    H142161   0.888   3.843   0.146 -0.8555 -0.8277 -1.1108
 6842TIP3    H242162   0.744   3.889   0.161 -0.7813 -0.7303 -0.6888
 6843TIP3   OH242163   5.991   3.771   0.922  0.3056 -0.3102 -0.2174
 6843TIP3    H142164   6.053   3.706   0.887 -0.4796 -1.8147  1.0580
 6843TIP3    H242165   5.986   3.752   1.015  0.4699  2.0109  0.3244
 6844TIP3   OH242166   1.209   2.246   0.340 -0.6533  0.5571 -0.4259
 6844TIP3    H142167   1.224   2.156   0.368 -0.2645  0.8527  0.3683
 6844TIP3    H242168   1.163   2.238   0.257 -0.7287 -0.3714 -0.3105
 6845TIP3   OH242169   2.345   1.965   1.917 -0.5752  0.4220 -0.6892
 6845TIP3    H142170   2.338   2.058   1.941 -0.4620  0.0789  0.7560
 6845TIP3    H242171   2.257   1.930   1.932 -0.4585  0.1593 -0.6157
 6846TIP3   OH242172   2.890   0.628   0.824  0.2264  0.0885  0.5362
 6846TIP3    H142173   2.811   0.678   0.845 -2.2454 -3.2021 -0.1192
 6846TIP3    H242174   2.933   0.616   0.909 -0.1575  1.5421  0.9785
 6847TIP3   OH242175   5.204   3.102   2.176 -0.7893  0.0788 -0.3076
 6847TIP3    H142176   5.155   3.041   2.230  2.1972 -0.5597  1.9354
 6847TIP3    H242177   5.157   3.185   2.184 -1.5399 -0.4834  1.6567
 6848TIP3   OH242178   1.959   1.331   7.550  0.1042 -0.2995  0.2627
 6848TIP3    H142179   1.883   1.278   7.574  0.6482 -0.6441  1.2652
 6848TIP3    H242180   1.968   1.395   7.620  0.2904  0.2309 -0.2367
 6849TIP3   OH242181   2.964   2.954   1.491  1.0461  0.1039  0.0233
 6849TIP3    H142182   3.001   2.870   1.466  0.9551  0.2188 -0.5068
 6849TIP3    H242183   3.039   3.006   1.521  1.5843  0.8153 -2.3309
 6850TIP3   OH242184   2.227   4.828   8.140 -0.0841 -0.4288 -0.1066
 6850TIP3    H142185   2.205   4.744   8.182  0.0763 -0.2126  0.4232
 6850TIP3    H242186   2.150   4.882   8.152  0.1951 -0.1522  0.4835
 6851TIP3   OH242187   1.996   5.593   8.058  0.4763  0.1919  0.7387
 6851TIP3    H142188   2.024   5.683   8.042 -1.3714  0.6668 -0.1970
 6851TIP3    H242189   1.994   5.553   7.972 -1.3912  0.1526  0.7525
 6852TIP3   OH242190   1.408   6.091   7.735  0.1519 -0.0841  0.1659
 6852TIP3    H142191   1.463   6.034   7.787  1.5436  1.0065 -0.0440
 6852TIP3    H242192   1.411   6.176   7.779 -3.1373 -0.4341  1.3690
 6853TIP3   OH242193   3.110   1.154   0.387  0.1771 -0.2069  0.0728
 6853TIP3    H142194   3.125   1.060   0.381  1.1699  0.0040 -1.1990
 6853TIP3    H242195   3.123   1.186   0.298  0.4908  1.2269  0.6055
 6854TIP3   OH242196   3.377   2.774   8.498  0.1836 -0.0119 -0.3040
 6854TIP3    H142197   3.469   2.797   8.509 -0.0587  1.5850 -1.3555
 6854TIP3    H242198   3.367   2.693   8.548  2.6210 -1.3740 -1.8469
 6855TIP3   OH242199   2.786   5.040   1.672 -0.4629  0.3857  0.0026
 6855TIP3    H142200   2.855   5.052   1.608  0.7197 -0.3415  1.0920
 6855TIP3    H242201   2.758   5.128   1.696 -1.9574  0.6879 -2.5200
 6856TIP3   OH242202   2.183   2.595   0.290  0.1398 -0.1803 -0.3922
 6856TIP3    H142203   2.244   2.666   0.269  0.5337 -0.1572  0.7518
 6856TIP3    H242204   2.228   2.544   0.357 -0.9702 -0.3431  0.2553
 6857TIP3   OH242205   2.283   3.054   6.136 -0.2331 -0.1149 -0.0355
 6857TIP3    H142206   2.287   3.040   6.230 -0.2096 -0.6546 -0.1173
 6857TIP3    H242207   2.190   3.055   6.115 -0.2317 -0.2475 -0.0462
 6858TIP3   OH242208   6.797   3.278   0.896  0.5180  0.6057  0.2067
 6858TIP3    H142209   6.831   3.265   0.807  0.5445  0.6248  0.2139
 6858TIP3    H242210   6.874   3.269   0.952  0.1611 -1.7405  0.4314
 6859TIP3   OH242211   1.349   0.694   2.309 -0.3206 -0.8139  0.3748
 6859TIP3    H142212   1.292   0.668   2.382  0.8673 -0.1586  1.5834
 6859TIP3    H242213   1.425   0.636   2.317  0.1925 -0.1769  0.1737
 6860TIP3   OH242214   5.340   2.797   2.335 -0.6174  0.0094  0.0451
 6860TIP3    H142215   5.291   2.734   2.387 -1.1190 -0.9916 -1.5409
 6860TIP3    H242216   5.274   2.857   2.301 -0.6322 -0.6193 -1.1103
 6861TIP3   OH242217   4.950   2.270   7.803 -0.3366  0.1069 -0.1533
 6861TIP3    H142218   4.934   2.288   7.710  0.3105 -0.5200 -0.3923
 6861TIP3    H242219   4.880   2.210   7.828 -0.0787 -0.3155 -0.4352
 6862TIP3   OH242220   5.081   0.313   8.309  0.0649 -0.0665 -0.6275
 6862TIP3    H142221   5.154   0.252   8.314  0.8102  0.8036 -0.5033
 6862TIP3    H242222   5.050   0.308   8.219 -2.4377 -3.4415  0.2160
 6863TIP3   OH242223   0.465   0.409   0.984 -0.3414  0.5345  0.9509
 6863TIP3    H142224   0.462   0.396   0.890  2.0473  1.5814  0.6472
 6863TIP3    H242225   0.426   0.496   0.997 -1.6346 -0.0468  1.0852
 6864TIP3   OH242226   0.475   6.669   6.951  0.1538  0.2380 -0.3033
 6864TIP3    H142227   0.486   6.700   6.861 -1.4068 -1.0603 -1.0076
 6864TIP3    H242228   0.509   6.580   6.950  0.1485  0.2223  0.4117
 6865TIP3   OH242229   6.546   1.755   0.855  0.2613  0.0142 -0.1847
 6865TIP3    H142230   6.503   1.683   0.901  0.2219 -0.7082 -1.3019
 6865TIP3    H242231   6.629   1.718   0.824  0.4565  0.5888 -0.3627
 6866TIP3   OH242232   4.116   0.131   1.653  0.3387 -0.0417 -0.3197
 6866TIP3    H142233   4.187   0.186   1.686  2.1215  0.4911 -4.4478
 6866TIP3    H242234   4.139   0.042   1.680 -0.7084  0.6352  3.3777
 6867TIP3   OH242235   0.908   1.614   8.377 -0.7264  0.1052  0.2556
 6867TIP3    H142236   0.962   1.608   8.456  1.3738 -0.8339 -1.1760
 6867TIP3    H242237   0.820   1.593   8.408  0.0596 -0.4574  2.3213
 6868TIP3   OH242238   3.334   0.066   1.275  0.0385  0.1149  0.4069
 6868TIP3    H142239   3.395   0.012   1.226  1.7219 -1.8854  4.2234
 6868TIP3    H242240   3.371   0.155   1.271  1.5370 -0.4897  0.1839
 6869TIP3   OH242241   2.969   5.525   7.580 -0.1759 -0.2030  0.5544
 6869TIP3    H142242   3.044   5.499   7.526 -1.3375 -1.1732 -0.6736
 6869TIP3    H242243   2.909   5.450   7.575 -0.2075 -0.5123  3.5323
 6870TIP3   OH242244   6.652   2.216   0.634  0.4511 -0.4695 -0.3735
 6870TIP3    H142245   6.678   2.198   0.724  0.8612 -2.1703 -0.7938
 6870TIP3    H242246   6.665   2.310   0.623  2.5388 -0.5918  0.6720
 6871TIP3   OH242247   3.472   0.747   1.573  0.5675 -0.2168  0.2694
 6871TIP3    H142248   3.393   0.790   1.540  1.0133  0.7104  0.3765
 6871TIP3    H242249   3.440   0.681   1.634 -0.1301  0.1200  0.2787
 6872TIP3   OH242250   5.360   5.506   7.171  0.7073  0.3725 -0.7649
 6872TIP3    H142251   5.301   5.437   7.202  0.4874  0.4861 -0.9257
 6872TIP3    H242252   5.330   5.524   7.082 -0.5465  2.0874 -0.0393
 6873TIP3   OH242253   4.686   6.296   8.173  0.1560  0.3110 -0.2222
 6873TIP3    H142254   4.699   6.218   8.119 -0.9845 -0.7592  0.9756
 6873TIP3    H242255   4.774   6.326   8.194  0.6505 -1.4356  0.3536
 6874TIP3   OH242256   6.614   2.877   0.772 -0.2092 -0.1686  0.0447
 6874TIP3    H142257   6.700   2.838   0.755 -0.3659 -1.2540  1.5104
 6874TIP3    H242258   6.557   2.841   0.705  1.0595  3.2829 -3.3012
 6875TIP3   OH242259   0.482   3.641   1.498  0.5759  0.2518  0.3516
 6875TIP3    H142260   0.550   3.663   1.561  0.7460  1.0887 -0.1180
 6875TIP3    H242261   0.429   3.575   1.543  0.1492  1.4748  1.7345
 6876TIP3   OH242262   3.321   2.980   8.334  0.5274  0.1696  0.4549
 6876TIP3    H142263   3.318   2.919   8.261  2.2642 -0.3208  0.7459
 6876TIP3    H242264   3.346   2.927   8.409  1.5698  1.1257  0.8187
 6877TIP3   OH242265   1.183   1.134   5.922 -0.2269 -0.1789 -0.2359
 6877TIP3    H142266   1.107   1.077   5.926  0.4807 -1.0745  2.0579
 6877TIP3    H242267   1.180   1.185   6.003 -0.2041  2.2939 -1.6723
 6878TIP3   OH242268   1.116   2.572   0.553  0.3075  0.0737 -0.0553
 6878TIP3    H142269   1.026   2.542   0.538  0.4862 -0.7568  0.4901
 6878TIP3    H242270   1.135   2.628   0.478 -0.3637 -0.4343 -0.6151
 6879TIP3   OH242271   2.546   6.858   1.535  0.1553  0.4513 -0.1013
 6879TIP3    H142272   2.531   6.860   1.441  1.3697 -0.0129 -0.3192
 6879TIP3    H242273   2.594   6.776   1.550  0.5710  0.8526  0.8257
 6880TIP3   OH242274   3.493   1.137   0.179 -0.4322  0.4184 -0.1476
 6880TIP3    H142275   3.457   1.211   0.130 -0.6179  1.6508  1.7351
 6880TIP3    H242276   3.586   1.157   0.188 -0.1247 -0.4871 -1.1230
 6881TIP3   OH242277   5.328   6.508   0.483 -0.3033  0.1540  0.0229
 6881TIP3    H142278   5.299   6.598   0.498 -0.4913  0.1904 -0.5686
 6881TIP3    H242279   5.309   6.491   0.391  1.8015  0.2833 -0.4927
 6882TIP3   OH242280   1.481   3.289   1.426 -0.0319  0.4487 -0.7593
 6882TIP3    H142281   1.451   3.274   1.516  0.6976 -0.8360 -0.7020
 6882TIP3    H242282   1.401   3.287   1.373 -0.5029  1.5078 -0.1300
 6883TIP3   OH242283   1.529   5.055   0.522 -0.2416 -0.2640  0.2376
 6883TIP3    H142284   1.527   5.142   0.484  1.1046 -0.2777  0.0625
 6883TIP3    H242285   1.543   5.070   0.616 -0.2568 -0.2887  0.2439
 6884TIP3   OH242286   3.533   1.457   6.484  0.5314 -0.7688 -0.6704
 6884TIP3    H142287   3.451   1.409   6.485  0.3661 -0.4874  0.1611
 6884TIP3    H242288   3.507   1.548   6.467  0.8038 -0.8876 -1.8205
 6885TIP3   OH242289   5.014   2.781   7.379 -0.0898 -0.0381 -0.2837
 6885TIP3    H142290   4.998   2.718   7.308 -0.9798  0.7649 -0.8220
 6885TIP3    H242291   4.941   2.843   7.373 -0.5338 -0.2987  1.7586
 6886TIP3   OH242292   2.420   2.536   8.525  0.2143  0.3815  0.6142
 6886TIP3    H142293   2.342   2.568   8.480  0.7010  0.6055 -0.0948
 6886TIP3    H242294   2.406   2.442   8.536 -0.5334  0.5642  1.2822
 6887TIP3   OH242295   0.639   1.143   1.542 -0.6136  0.3437 -0.1101
 6887TIP3    H142296   0.716   1.201   1.542  0.8504 -1.4668  1.2943
 6887TIP3    H242297   0.605   1.148   1.632 -1.3223  0.1034 -0.3592
 6888TIP3   OH242298   6.247   0.958   1.369 -0.0607 -0.0814  0.5357
 6888TIP3    H142299   6.296   1.019   1.424 -0.7367  0.5886  0.4152
 6888TIP3    H242300   6.307   0.885   1.354  0.5123  0.2309  1.2636
 6889TIP3   OH242301   3.924   3.045   8.624  0.6275  0.2879 -0.3753
 6889TIP3    H142302   3.981   3.116   8.653 -0.0442  1.0239 -0.8160
 6889TIP3    H242303   3.940   3.039   8.530  0.3109  0.1964 -0.4220
 6890TIP3   OH242304   2.616   5.131   6.043 -0.4109  0.1930  0.7793
 6890TIP3    H142305   2.550   5.187   6.002 -2.2227 -1.2079  1.6285
 6890TIP3    H242306   2.669   5.190   6.096 -1.0643  1.3378  0.1966
 6891TIP3   OH242307   5.491   6.078   0.137 -0.3542  0.9335 -0.4498
 6891TIP3    H142308   5.440   6.150   0.101 -2.1222 -0.4465 -0.8227
 6891TIP3    H242309   5.431   6.004   0.138  1.5439 -0.6787 -0.5177
 6892TIP3   OH242310   2.165   0.428   8.004  0.1045  0.3749  0.5356
 6892TIP3    H142311   2.183   0.427   8.097  0.2796  0.5267  0.5029
 6892TIP3    H242312   2.090   0.487   7.994  0.5406  0.9261  0.4968
 6893TIP3   OH242313   4.930   6.671   2.161 -0.1556 -0.5082 -0.2420
 6893TIP3    H142314   4.880   6.668   2.243  0.0930  1.8728  0.0660
 6893TIP3    H242315   4.934   6.580   2.132  0.0548 -1.5036  2.5817
 6894TIP3   OH242316   3.775   1.042   0.792  0.6841 -0.0126  0.0462
 6894TIP3    H142317   3.696   1.030   0.739 -0.1430 -2.2125  1.6513
 6894TIP3    H242318   3.742   1.060   0.880  2.0212  0.4906  0.4684
 6895TIP3   OH242319   6.888   4.336   6.352 -0.6361 -0.3383 -0.5837
 6895TIP3    H142320   6.956   4.282   6.392 -0.2250  0.0246 -0.7875
 6895TIP3    H242321   6.817   4.274   6.333 -1.2475 -0.3709  1.5614
 6896TIP3   OH242322   6.186   0.904   7.255  0.3494 -0.3158  0.2659
 6896TIP3    H142323   6.120   0.860   7.308 -0.2255  0.1659 -0.0461
 6896TIP3    H242324   6.219   0.974   7.310 -2.1115  1.8745 -0.8782
 6897TIP3   OH242325   1.378   5.113   8.088  0.0152 -0.2110  0.0932
 6897TIP3    H142326   1.463   5.156   8.076 -0.2059  0.1050 -0.4068
 6897TIP3    H242327   1.358   5.124   8.181  0.3665  0.0174  0.1440
 6898TIP3   OH242328   0.204   2.480   0.191  0.1005  0.2796 -0.1209
 6898TIP3    H142329   0.194   2.385   0.199 -0.7930  0.4376  0.9114
 6898TIP3    H242330   0.115   2.514   0.195  0.3771  1.1442 -0.9535
 6899TIP3   OH242331   4.414   1.908   1.910 -0.4179 -0.0133 -0.0421
 6899TIP3    H142332   4.471   1.889   1.835 -0.4606 -0.8483  0.1197
 6899TIP3    H242333   4.416   1.827   1.961 -2.7633 -0.5540 -0.6995
 6900TIP3   OH242334   0.391   0.883   1.287  0.3521  0.2329  0.1959
 6900TIP3    H142335   0.447   0.844   1.354 -0.1630  0.0127  0.5014
 6900TIP3    H242336   0.426   0.971   1.275  0.9262  0.0091  0.1941
 6901TIP3   OH242337   0.848   1.642   6.853 -0.2703 -0.2352 -0.0786
 6901TIP3    H142338   0.918   1.666   6.792 -0.8109  0.5469 -0.4030
 6901TIP3    H242339   0.789   1.588   6.800 -1.6733  1.8904 -0.8144
 6902TIP3   OH242340   3.027   1.434   7.920  0.3238 -0.0395  0.4290
 6902TIP3    H142341   2.997   1.509   7.868 -1.0861 -1.5072 -0.9787
 6902TIP3    H242342   3.088   1.388   7.863  0.3200 -0.5795  0.8557
 6903TIP3   OH242343   2.958   0.299   1.945 -0.0128 -0.9182  0.4501
 6903TIP3    H142344   2.891   0.359   1.976  1.6395  1.3659 -0.1221
 6903TIP3    H242345   2.949   0.299   1.850  1.6143  0.5799  0.2376
 6904TIP3   OH242346   2.881   2.620   8.339  0.1406  0.0502 -0.0506
 6904TIP3    H142347   2.835   2.648   8.260  0.2642  0.1285 -0.0952
 6904TIP3    H242348   2.840   2.536   8.362 -0.8808  0.7149  0.6242
 6905TIP3   OH242349   6.308   1.321   1.273 -0.0965  0.3605 -0.0542
 6905TIP3    H142350   6.329   1.328   1.180 -0.5620 -0.3450 -0.2136
 6905TIP3    H242351   6.379   1.268   1.310  0.5519  1.3453  0.1668
 6906TIP3   OH242352   3.787   6.248   8.323 -0.4164  0.3252  0.1629
 6906TIP3    H142353   3.842   6.181   8.282 -0.9120  0.1766 -0.2661
 6906TIP3    H242354   3.751   6.203   8.400  1.2198  0.8756  1.3195
 6907TIP3   OH242355   3.489   4.272   6.800  0.3066  0.1660  0.2251
 6907TIP3    H142356   3.427   4.221   6.852  0.3257  0.4371  0.5217
 6907TIP3    H242357   3.472   4.363   6.826 -0.4769  0.4188 -1.0896
 6908TIP3   OH242358   2.298   6.617   6.149 -0.1075  0.1376  0.3980
 6908TIP3    H142359   2.214   6.656   6.123 -0.2978 -1.2585 -1.1773
 6908TIP3    H242360   2.364   6.674   6.110 -0.3181  0.7864  0.9674
 6909TIP3   OH242361   2.775   5.754   1.434  0.1141  0.4871  0.2994
 6909TIP3    H142362   2.837   5.689   1.465  0.4258  1.0519  0.8638
 6909TIP3    H242363   2.720   5.707   1.371 -0.5118 -0.6714  1.6569
 6910TIP3   OH242364   0.688   2.988   0.352 -0.2391  0.0547  0.3790
 6910TIP3    H142365   0.750   2.932   0.307 -0.6238 -0.5604  0.6032
 6910TIP3    H242366   0.602   2.952   0.331 -0.4382 -0.1286  1.4356
 6911TIP3   OH242367   3.851   3.010   0.723 -0.0798 -0.2726  0.5023
 6911TIP3    H142368   3.927   3.033   0.776 -1.4702  1.2996  1.9066
 6911TIP3    H242369   3.778   3.053   0.765 -1.9004 -2.2447 -0.4539
 6912TIP3   OH242370   5.401   6.680   6.799  0.1315 -0.3084 -0.8423
 6912TIP3    H142371   5.446   6.762   6.781 -0.9756  0.2888 -1.0021
 6912TIP3    H242372   5.348   6.664   6.721 -0.4058 -0.6529 -0.4210
 6913TIP3   OH242373   0.082   2.453   7.300 -0.0341  0.3406 -0.0495
 6913TIP3    H142374   0.031   2.385   7.344 -2.1016  1.5643 -0.4157
 6913TIP3    H242375   0.169   2.448   7.341 -0.2174 -2.2047  0.2055
 6914TIP3   OH242376   5.976   3.043   1.725 -0.0255  0.1816 -0.8348
 6914TIP3    H142377   5.985   3.028   1.819 -2.1317  3.6204  0.0697
 6914TIP3    H242378   6.062   3.073   1.697  0.0122  1.5262  0.5902
 6915TIP3   OH242379   5.931   6.710   6.172  0.7534 -0.2384  0.7048
 6915TIP3    H142380   6.027   6.714   6.171  0.7306  0.8258  1.2811
 6915TIP3    H242381   5.904   6.800   6.187 -0.3701 -0.3701 -0.4382
 6916TIP3   OH242382   6.684   5.804   7.233 -0.1753  0.2000 -0.0954
 6916TIP3    H142383   6.747   5.755   7.180  0.7709  1.4096 -0.1637
 6916TIP3    H242384   6.696   5.895   7.205  0.0745  0.8294  1.8976
 6917TIP3   OH242385   4.974   2.283   1.945 -0.0829  0.2493 -0.3988
 6917TIP3    H142386   4.912   2.222   1.985  1.1423 -0.8701 -0.1365
 6917TIP3    H242387   4.975   2.259   1.852  0.0980  0.1376 -0.3686
 6918TIP3   OH242388   3.020   6.815   0.661  0.8099  0.0469  0.4444
 6918TIP3    H142389   3.080   6.872   0.710  1.5000 -0.4787  0.2341
 6918TIP3    H242390   3.054   6.727   0.677  0.8336 -0.1600 -0.6818
 6919TIP3   OH242391   1.795   2.392   8.323 -0.4714  0.1090  0.6283
 6919TIP3    H142392   1.776   2.303   8.354 -0.2777  0.1634  0.9055
 6919TIP3    H242393   1.741   2.448   8.378 -0.7648  0.1455  0.3001
 6920TIP3   OH242394   5.314   1.421   2.237 -0.1373 -0.0823 -0.6794
 6920TIP3    H142395   5.304   1.327   2.251 -0.6270  0.1562  0.6950
 6920TIP3    H242396   5.345   1.428   2.146 -0.5830 -1.5255 -0.9735
 6921TIP3   OH242397   3.940   5.459   7.632 -0.0354  0.5039 -0.2362
 6921TIP3    H142398   4.029   5.456   7.595  0.8553 -1.0568  1.8409
 6921TIP3    H242399   3.916   5.552   7.627  2.4117  1.2911  0.5987
 6922TIP3   OH242400   0.464   2.418   1.237 -0.8145  0.0617  0.2877
 6922TIP3    H142401   0.406   2.423   1.161  0.5366  0.2394 -0.7530
 6922TIP3    H242402   0.419   2.358   1.297 -2.6728  1.1460  0.0670
 6923TIP3   OH242403   1.567   0.963   1.215  0.1149  0.3034  0.0751
 6923TIP3    H142404   1.581   0.870   1.235  0.4030  0.2182 -0.4963
 6923TIP3    H242405   1.655   1.000   1.210 -0.0059  1.0884  2.3953
 6924TIP3   OH242406   6.765   1.347   8.387  0.1046 -0.2879  1.3007
 6924TIP3    H142407   6.692   1.408   8.380  0.7940  0.4294 -0.1295
 6924TIP3    H242408   6.784   1.322   8.297  1.7940 -0.2245  1.5947
 6925TIP3   OH242409   2.363   3.652   2.010 -0.2077 -0.0730  0.3683
 6925TIP3    H142410   2.427   3.627   2.077  1.1983 -0.1264 -0.9339
 6925TIP3    H242411   2.405   3.629   1.927 -1.4926  0.8717 -0.5847
 6926TIP3   OH242412   3.149   2.636   8.402 -0.0895  0.0360  0.3687
 6926TIP3    H142413   3.146   2.698   8.475 -0.5005 -1.0598  1.3025
 6926TIP3    H242414   3.058   2.614   8.384  0.0751 -0.7068  0.4047
 6927TIP3   OH242415   2.655   5.678   1.190  0.0300 -0.0238  0.0178
 6927TIP3    H142416   2.651   5.594   1.146 -0.5439 -1.4339  2.5565
 6927TIP3    H242417   2.708   5.733   1.132 -0.2173 -1.8565 -2.0806
 6928TIP3   OH242418   2.869   1.199   7.705  0.4884 -0.3189 -0.3681
 6928TIP3    H142419   2.906   1.282   7.736  1.5408 -0.5975 -0.8038
 6928TIP3    H242420   2.831   1.158   7.783 -0.4079  0.7448 -0.2307
 6929TIP3   OH242421   0.834   2.477   1.716  0.0210 -0.2001 -0.2061
 6929TIP3    H142422   0.813   2.403   1.658 -0.3319 -0.5253  0.3258
 6929TIP3    H242423   0.785   2.459   1.796 -1.1036  1.2600 -0.5109
 6930TIP3   OH242424   2.317   6.671   6.870 -0.0108  0.7643 -0.4031
 6930TIP3    H142425   2.334   6.708   6.783 -0.4844  1.6081 -0.1394
 6930TIP3    H242426   2.250   6.604   6.854  1.5626 -0.7316 -1.0318
 6931TIP3   OH242427   5.645   5.729   7.074 -0.2616  0.1446  0.3861
 6931TIP3    H142428   5.660   5.637   7.098  0.5128  0.0104 -0.5774
 6931TIP3    H242429   5.684   5.738   6.987  0.4760  1.6147  0.8398
 6932TIP3   OH242430   4.827   3.559   7.862 -0.2486  0.2544  0.2299
 6932TIP3    H142431   4.746   3.517   7.889  0.5007 -1.1367  0.3770
 6932TIP3    H242432   4.888   3.542   7.933 -0.1370  2.3760  0.7091
 6933TIP3   OH242433   4.977   1.998   1.653  0.4728  0.0442 -0.0298
 6933TIP3    H142434   5.057   2.048   1.671 -0.5582  1.5957  0.4033
 6933TIP3    H242435   4.947   2.031   1.568  0.1112 -0.2932 -0.0358
 6934TIP3   OH242436   5.648   4.974   8.109 -0.3329 -0.1024 -0.0310
 6934TIP3    H142437   5.740   4.996   8.101 -0.1812 -0.2601  1.1093
 6934TIP3    H242438   5.614   4.980   8.019  0.5774  0.8034 -0.3334
 6935TIP3   OH242439   2.202   2.439   0.523 -0.0935 -0.5650 -0.2739
 6935TIP3    H142440   2.116   2.442   0.565  0.4320 -0.0043  0.7931
 6935TIP3    H242441   2.210   2.350   0.489 -0.9595 -0.7124 -0.1070
 6936TIP3   OH242442   0.006   5.671   2.257  0.2080 -0.2526  0.1278
 6936TIP3    H142443   0.056   5.715   2.326  1.4960  0.0719 -0.9682
 6936TIP3    H242444  -0.072   5.725   2.247  0.5137  0.2990  0.6204
 6937TIP3   OH242445   5.911   4.122   7.338 -0.0749 -0.5331  0.0801
 6937TIP3    H142446   5.988   4.157   7.381 -0.6615 -0.4970  1.1440
 6937TIP3    H242447   5.908   4.030   7.364 -0.4021 -0.5275  0.0719
 6938TIP3   OH242448   4.612   5.838   0.678  0.5450 -0.5186  0.5720
 6938TIP3    H142449   4.664   5.879   0.609  0.0613 -1.0786 -0.1403
 6938TIP3    H242450   4.662   5.853   0.758  0.9330  0.4708  0.1585
 6939TIP3   OH242451   4.624   1.527   1.195 -0.1363 -0.0750  0.8054
 6939TIP3    H142452   4.549   1.558   1.144 -0.2096 -0.6610  0.5569
 6939TIP3    H242453   4.597   1.538   1.286 -0.1092  0.7177  0.7251
 6940TIP3   OH242454   6.546   1.183   1.335  0.1559 -0.0245 -0.2310
 6940TIP3    H142455   6.577   1.096   1.358 -0.0648  0.1405  0.7120
 6940TIP3    H242456   6.616   1.221   1.283 -0.1787 -1.1461 -1.5744
 6941TIP3   OH242457   5.269   4.505   0.449  0.3002  0.8001 -0.0025
 6941TIP3    H142458   5.237   4.547   0.528 -1.4965  1.6866 -1.1389
 6941TIP3    H242459   5.304   4.577   0.395  1.3714  0.2288 -0.1151
 6942TIP3   OH242460   6.523   1.188   8.210 -0.0757 -0.1383  0.1117
 6942TIP3    H142461   6.602   1.167   8.160 -0.3311 -2.6078  0.6057
 6942TIP3    H242462   6.498   1.276   8.180  2.7724  0.6927 -0.1169
 6943TIP3   OH242463   3.413   3.682   8.032  0.6189 -0.2913  0.2075
 6943TIP3    H142464   3.440   3.748   8.096 -0.3217  1.4828 -1.1500
 6943TIP3    H242465   3.362   3.619   8.083  0.1483  0.9104  1.2657
 6944TIP3   OH242466   0.302   1.573   7.687  0.4842 -0.1883 -0.7604
 6944TIP3    H142467   0.267   1.486   7.672 -0.1781  0.0833 -0.8266
 6944TIP3    H242468   0.396   1.560   7.697  0.7414 -0.6503 -3.1629
 6945TIP3   OH242469   1.279   6.119   0.268 -0.2029  0.0325  0.3083
 6945TIP3    H142470   1.287   6.198   0.215 -0.7254 -0.2610 -0.2236
 6945TIP3    H242471   1.266   6.151   0.357  0.4958  0.5346  0.2363
 6946TIP3   OH242472   4.455   5.917   7.272  0.1083  0.0988  0.4478
 6946TIP3    H142473   4.379   5.974   7.258  1.0821  1.1532 -0.8953
 6946TIP3    H242474   4.481   5.890   7.183  0.9885 -0.6735  0.9214
 6947TIP3   OH242475   1.365   0.727   7.371  0.0693  0.0919  0.2319
 6947TIP3    H142476   1.349   0.816   7.341  1.3355  1.0421  2.1681
 6947TIP3    H242477   1.442   0.698   7.322  0.4162  0.5517  0.5029
 6948TIP3   OH242478   4.571   1.083   1.397 -0.1213 -0.2109  0.0782
 6948TIP3    H142479   4.506   1.074   1.466 -0.1624 -0.3466  0.0225
 6948TIP3    H242480   4.587   1.177   1.391 -1.7085  0.0255 -1.1776
 6949TIP3   OH242481   3.772   3.720   8.545  0.0317 -0.3466 -0.3684
 6949TIP3    H142482   3.866   3.723   8.562 -0.2841  0.1641  1.3812
 6949TIP3    H242483   3.743   3.638   8.585 -0.3557 -0.2606 -0.4718
 6950TIP3   OH242484   1.488   3.711   8.154 -0.2182  0.6531  0.2180
 6950TIP3    H142485   1.533   3.767   8.091  1.3685  0.0554  0.7654
 6950TIP3    H242486   1.398   3.745   8.157  0.3368  2.2723 -0.4681
 6951TIP3   OH242487   4.178   4.843   1.799 -0.2185 -0.1775 -0.3061
 6951TIP3    H142488   4.162   4.852   1.893  2.7104  1.0927  0.1880
 6951TIP3    H242489   4.211   4.754   1.789 -0.8635 -0.4336 -0.2139
 6952TIP3   OH242490   1.656   1.650   5.944  0.3670  0.4295 -0.2397
 6952TIP3    H142491   1.732   1.620   5.994  1.2067 -0.1885 -1.8398
 6952TIP3    H242492   1.629   1.575   5.892 -0.1547  1.2071 -1.1256
 6953TIP3   OH242493   5.197   0.222   6.703  0.4148  0.0795 -0.6575
 6953TIP3    H142494   5.182   0.149   6.643 -0.8411 -0.4848  0.3087
 6953TIP3    H242495   5.180   0.300   6.650 -1.8417 -0.4328 -0.7790
 6954TIP3   OH242496   1.023   1.874   0.609 -0.4066  0.0191  0.1749
 6954TIP3    H142497   1.074   1.864   0.689  1.4947 -0.5526 -1.0525
 6954TIP3    H242498   0.976   1.791   0.600 -1.0840  0.3042  0.9710
 6955TIP3   OH242499   2.694   4.166   8.223 -0.3666  0.2627 -0.0091
 6955TIP3    H142500   2.765   4.224   8.250 -0.3114  0.3812 -0.3937
 6955TIP3    H242501   2.722   4.078   8.250 -0.0199  0.2943 -0.2618
 6956TIP3   OH242502   0.896   6.658   1.694  0.1926 -0.0693 -0.0394
 6956TIP3    H142503   0.866   6.569   1.679  0.2841 -0.5028  2.0460
 6956TIP3    H242504   0.886   6.702   1.609 -0.0920 -1.9709 -1.0336
 6957TIP3   OH242505   6.337   3.508   7.699  0.4794 -0.1242 -0.0751
 6957TIP3    H142506   6.246   3.510   7.671  0.2773  3.8244  0.2258
 6957TIP3    H242507   6.338   3.453   7.777 -2.1589  1.3333  1.1165
 6958TIP3   OH242508   2.673   6.448   1.965 -0.2840 -0.6967  0.1504
 6958TIP3    H142509   2.580   6.436   1.988 -0.7360 -0.8051 -1.6041
 6958TIP3    H242510   2.695   6.534   1.999 -1.4181 -0.1155 -0.5320
 6959TIP3   OH242511   4.630   5.959   0.112  0.6082  0.4377  0.2800
 6959TIP3    H142512   4.680   6.039   0.124  0.6989  0.9439 -2.7244
 6959TIP3    H242513   4.539   5.985   0.125  0.7555  0.5486  1.1789
 6960TIP3   OH242514   3.229   4.113   8.491 -0.0889 -0.2325  0.0657
 6960TIP3    H142515   3.316   4.151   8.500 -0.1113 -0.1676  0.0069
 6960TIP3    H242516   3.174   4.165   8.550 -0.3017  0.4029 -0.6760
 6961TIP3   OH242517   0.343   5.005   6.995 -0.2128  0.3734 -0.1982
 6961TIP3    H142518   0.418   4.949   7.010 -0.9620 -0.2358  1.5225
 6961TIP3    H242519   0.268   4.946   6.991 -0.8280  1.1043  0.0788
 6962TIP3   OH242520   5.861   0.655   0.964  0.2326 -0.1489 -0.4109
 6962TIP3    H142521   5.953   0.662   0.988 -0.0801 -0.3121  0.8973
 6962TIP3    H242522   5.851   0.713   0.889  1.2767  0.3144 -0.2029
 6963TIP3   OH242523   4.708   6.297   8.566 -0.3501  0.3060  0.4331
 6963TIP3    H142524   4.689   6.277   8.657 -0.6313  1.5216  0.6539
 6963TIP3    H242525   4.638   6.356   8.538  0.4970  1.0791 -0.1349
 6964TIP3   OH242526   4.281   0.182   6.992 -0.0953  0.3359 -0.0978
 6964TIP3    H142527   4.255   0.245   7.059 -0.5979  1.1290 -1.0108
 6964TIP3    H242528   4.220   0.109   7.002  1.7613 -1.0587  2.3419
 6965TIP3   OH242529   6.496   2.211   8.646 -0.8739  0.5252 -0.3299
 6965TIP3    H142530   6.574   2.248   8.688 -0.1891 -0.6855 -0.4836
 6965TIP3    H242531   6.442   2.180   8.719 -0.7685  0.5270 -0.2498
 6966TIP3   OH242532   4.365   0.775   0.760 -0.4659  0.0364 -0.7825
 6966TIP3    H142533   4.421   0.741   0.830 -0.1125 -1.2191 -1.6363
 6966TIP3    H242534   4.382   0.717   0.686 -1.6634  0.6592 -1.5734
 6967TIP3   OH242535   4.578   4.620   8.580  0.0476  0.2819  0.4010
 6967TIP3    H142536   4.556   4.547   8.639  0.1116 -0.1598 -0.1193
 6967TIP3    H242537   4.566   4.698   8.634  0.4305 -0.1308  1.1090
 6968TIP3   OH242538   2.162   0.775   8.356  0.2849 -0.0048 -0.4558
 6968TIP3    H142539   2.085   0.740   8.400  0.5633  1.6593  1.4892
 6968TIP3    H242540   2.139   0.865   8.335  0.7524 -0.2905 -2.3603
 6969TIP3   OH242541   2.548   6.049   1.726 -0.3908  0.2068 -0.3967
 6969TIP3    H142542   2.501   5.966   1.721 -0.1793  0.1514 -1.7700
 6969TIP3    H242543   2.582   6.063   1.638  1.6738  0.5551  0.4042
 6970TIP3   OH242544   0.178   1.602   2.040  0.3795  0.2110  0.3390
 6970TIP3    H142545   0.225   1.537   2.093  0.5238  0.5667  0.6496
 6970TIP3    H242546   0.244   1.668   2.019  0.0874  0.5669  0.5332
 6971TIP3   OH242547   6.270   2.856   1.774  0.4456  0.1433  0.0252
 6971TIP3    H142548   6.361   2.861   1.802  0.7998  1.4049 -1.2246
 6971TIP3    H242549   6.248   2.944   1.744 -0.3450 -0.6826 -2.1049
 6972TIP3   OH242550   1.698   3.537   1.856  0.1048  0.4826  0.3045
 6972TIP3    H142551   1.767   3.498   1.910 -1.2923 -0.2008  1.6552
 6972TIP3    H242552   1.686   3.625   1.892  0.3501  0.6497 -0.0168
 6973TIP3   OH242553   3.166   1.332   7.703  0.2649  0.1370  0.0098
 6973TIP3    H142554   3.156   1.242   7.673  2.9015 -0.2607  0.0685
 6973TIP3    H242555   3.260   1.350   7.697 -0.0310  2.5435  0.9901
 6974TIP3   OH242556   1.080   2.019   1.075  0.1380 -0.0076 -1.1528
 6974TIP3    H142557   0.989   1.991   1.087 -0.5631  1.6976 -2.1608
 6974TIP3    H242558   1.130   1.962   1.134 -2.0541  1.9925  3.1735
 6975TIP3   OH242559   3.471   4.637   0.120  0.4888 -0.3165 -0.2884
 6975TIP3    H142560   3.539   4.572   0.141  0.9365  0.2956  0.1965
 6975TIP3    H242561   3.520   4.714   0.092  0.0603  0.6025  1.3670
 6976TIP3   OH242562   5.794   6.595   6.564 -0.2256  0.2259  0.3291
 6976TIP3    H142563   5.739   6.518   6.578 -0.1307 -0.1492 -1.2178
 6976TIP3    H242564   5.871   6.562   6.519 -0.6573  1.3659 -1.3152
 6977TIP3   OH242565   6.233   2.929   0.107 -0.4429 -0.3405  0.1243
 6977TIP3    H142566   6.236   3.011   0.156 -1.1601  0.4178 -1.0514
 6977TIP3    H242567   6.209   2.863   0.172 -0.7295  0.5200  0.9150
 6978TIP3   OH242568   0.839   4.136   8.145 -0.6975 -0.5506  0.0377
 6978TIP3    H142569   0.832   4.157   8.052 -3.3756  0.1623  0.3048
 6978TIP3    H242570   0.889   4.055   8.148  1.3070  0.5167 -1.8130
 6979TIP3   OH242571   6.871   4.759   7.341 -0.0545  0.0825  0.0445
 6979TIP3    H142572   6.933   4.819   7.300 -0.6067 -0.0278 -0.9944
 6979TIP3    H242573   6.861   4.792   7.430 -0.3662  1.5701 -0.5122
 6980TIP3   OH242574   2.864   2.001   2.780  0.0646  0.3350 -0.3893
 6980TIP3    H142575   2.796   1.993   2.847  0.4399 -1.8609 -0.1786
 6980TIP3    H242576   2.946   1.988   2.827  0.7152  2.9147 -0.6522
 6981TIP3   OH242577   4.165   6.166   7.559 -0.4279 -0.1183 -0.0652
 6981TIP3    H142578   4.117   6.128   7.632 -0.2767  1.0937  0.6942
 6981TIP3    H242579   4.112   6.145   7.482 -1.3829 -0.1263  0.5744
 6982TIP3   OH242580   1.501   1.343   1.972 -1.2508  0.1520  0.7011
 6982TIP3    H142581   1.582   1.293   1.965 -1.0533  0.5371  0.1777
 6982TIP3    H242582   1.449   1.296   2.037 -0.3653  0.2264  1.4795
 6983TIP3   OH242583   4.106   2.801   8.283  0.0583  0.0643  0.2812
 6983TIP3    H142584   4.058   2.775   8.205  0.1355  3.1112 -0.9409
 6983TIP3    H242585   4.039   2.808   8.352  0.0635 -3.1132  0.7483
 6984TIP3   OH242586   1.984   3.322   8.074  0.6649  0.0753 -0.4499
 6984TIP3    H142587   1.961   3.272   7.996 -0.3272  0.5657 -0.4844
 6984TIP3    H242588   1.910   3.382   8.087 -1.0260 -2.4523  3.0033
 6985TIP3   OH242589   3.494   3.886   8.202  0.8386 -0.1897 -0.0849
 6985TIP3    H142590   3.470   3.969   8.160 -0.2155  0.2694  1.3613
 6985TIP3    H242591   3.580   3.903   8.241  0.7078  0.1687  0.0505
 6986TIP3   OH242592   4.713   6.474   2.061 -0.2577  0.2378  0.3113
 6986TIP3    H142593   4.705   6.492   2.155 -2.8017  1.8975 -0.1126
 6986TIP3    H242594   4.804   6.449   2.049  0.3735  0.8654  3.0909
 6987TIP3   OH242595   5.907   2.525   2.412  0.5724  0.5819 -0.1371
 6987TIP3    H142596   5.999   2.501   2.400  0.3094  0.1762 -1.4141
 6987TIP3    H242597   5.897   2.607   2.364 -0.1265 -0.2590 -1.4697
 6988TIP3   OH242598   2.399   3.000   8.269  0.5276  0.3029 -0.5480
 6988TIP3    H142599   2.308   2.969   8.262  0.5549  0.0586  0.1400
 6988TIP3    H242600   2.402   3.048   8.351  0.5993  1.7974 -1.3900
 6989TIP3   OH242601   2.490   4.736   8.094  0.5712 -0.1764  0.3841
 6989TIP3    H142602   2.447   4.660   8.133 -1.7246 -0.1337 -1.8265
 6989TIP3    H242603   2.440   4.811   8.128 -0.5342 -0.0513 -1.4303
 6990TIP3   OH242604   3.085   0.893   1.040  0.5760 -0.0631 -0.2113
 6990TIP3    H142605   3.128   0.891   1.126 -0.2863 -0.1568  0.2311
 6990TIP3    H242606   3.013   0.954   1.052  0.9273  0.5402 -1.1124
 6991TIP3   OH242607   1.693   4.491   6.622  0.0921 -0.0089  0.4712
 6991TIP3    H142608   1.644   4.466   6.700  2.1150 -1.0573  1.4822
 6991TIP3    H242609   1.634   4.470   6.549 -0.1476 -3.4641  1.4910
 6992TIP3   OH242610   6.815   0.163   7.686 -0.0484 -0.3684  0.0920
 6992TIP3    H142611   6.746   0.172   7.753  1.5156  1.5324  1.5413
 6992TIP3    H242612   6.869   0.091   7.718 -2.2638 -3.2627 -2.0532
 6993TIP3   OH242613   1.931   2.890   8.517 -0.3868  0.2874  0.2387
 6993TIP3    H142614   1.932   2.804   8.475  0.2701  0.4402 -0.0834
 6993TIP3    H242615   1.918   2.872   8.610 -0.4887 -0.1439  0.1429
 6994TIP3   OH242616   6.792   2.698   8.100 -0.4444 -0.3727 -0.3685
 6994TIP3    H142617   6.776   2.638   8.172  1.2862  1.0141  1.2965
 6994TIP3    H242618   6.752   2.781   8.129  0.1034  0.1521 -1.0719
 6995TIP3   OH242619   0.767   4.247   0.668  0.0800  0.2040 -0.3196
 6995TIP3    H142620   0.735   4.325   0.622 -1.1412 -0.3958 -0.5312
 6995TIP3    H242621   0.826   4.205   0.605  0.7748  0.9623 -0.1917
 6996TIP3   OH242622   4.753   4.200   7.165  0.3247 -0.3038 -0.6517
 6996TIP3    H142623   4.725   4.138   7.233  0.0654  0.4281 -0.0814
 6996TIP3    H242624   4.696   4.181   7.091 -1.3594  0.7846  0.3030
 6997TIP3   OH242625   6.111   6.754   5.801 -0.5623 -0.5476  0.3365
 6997TIP3    H142626   6.023   6.779   5.828 -0.1753  1.4646 -0.0611
 6997TIP3    H242627   6.138   6.687   5.864 -1.4356  0.6178  2.0267
 6998TIP3   OH242628   5.917   3.354   0.648 -0.2714  0.3566 -0.1082
 6998TIP3    H142629   5.926   3.405   0.729 -1.8452 -0.6684  0.7710
 6998TIP3    H242630   6.001   3.311   0.638 -0.7160 -1.3395  2.3571
 6999TIP3   OH242631   2.953   6.610   7.012 -0.2899  0.1201 -0.1315
 6999TIP3    H142632   2.867   6.569   7.004 -0.9640  1.7887 -2.9410
 6999TIP3    H242633   2.936   6.693   7.056  0.0395  0.0373  0.1541
 7000TIP3   OH242634   4.200   5.290   0.092 -0.0979  0.3604 -0.1336
 7000TIP3    H142635   4.286   5.295   0.134 -1.1127  0.0102  2.1336
 7000TIP3    H242636   4.166   5.380   0.095  0.1912  0.5151 -1.0991
 7001TIP3   OH242637   3.098   4.163   0.349 -0.0713  0.5277 -0.2338
 7001TIP3    H142638   3.092   4.216   0.269 -1.8305 -0.7684 -1.0242
 7001TIP3    H242639   3.158   4.212   0.406  0.8667  1.7116 -2.1531
 7002TIP3   OH242640   0.009   1.683   6.680  0.8851 -0.1668 -0.6678
 7002TIP3    H142641   0.053   1.752   6.730 -1.0752  0.3822  0.3982
 7002TIP3    H242642  -0.074   1.723   6.653 -0.2437 -2.0528 -0.1587
 7003TIP3   OH242643   2.782   5.188   0.171  0.0492 -0.1010 -0.2015
 7003TIP3    H142644   2.870   5.158   0.151 -0.6436 -1.8616 -0.8170
 7003TIP3    H242645   2.742   5.117   0.221 -0.5455  1.3200  1.4347
 7004TIP3   OH242646   6.628   6.752   7.408  0.1210  0.9816  0.1551
 7004TIP3    H142647   6.637   6.664   7.444  1.2986  0.3944 -1.4339
 7004TIP3    H242648   6.540   6.780   7.435  0.2811 -0.0685  1.9238
 7005TIP3   OH242649   2.726   5.091   0.842 -0.0867  0.3105  0.5215
 7005TIP3    H142650   2.675   5.092   0.923  0.1251  0.4850  0.6559
 7005TIP3    H242651   2.775   5.009   0.845  0.3176  0.5571  0.8257
 7006TIP3   OH242652   4.516   1.329   8.700 -0.3016  0.4439  0.0398
 7006TIP3    H142653   4.431   1.339   8.658  0.3587  0.8488 -1.2579
 7006TIP3    H242654   4.578   1.323   8.627  0.5394 -2.5792  0.8836
 7007TIP3   OH242655   2.506   2.280   1.746 -0.0045 -0.4424  0.8302
 7007TIP3    H142656   2.464   2.282   1.832  0.2981  1.6138  0.9747
 7007TIP3    H242657   2.454   2.338   1.692  1.3616  0.4255  0.3928
 7008TIP3   OH242658   4.042   0.232   2.088  0.1762 -0.1176 -0.3205
 7008TIP3    H142659   4.119   0.178   2.102  0.2160 -0.2256 -0.9105
 7008TIP3    H242660   3.968   0.176   2.112  0.2507 -0.2278 -0.3511
 7009TIP3   OH242661   6.871   6.095   0.848  0.2826 -0.5184 -0.1904
 7009TIP3    H142662   6.784   6.073   0.815 -0.3891  1.1448  0.3923
 7009TIP3    H242663   6.878   6.048   0.932 -0.8497  0.8308  0.6971
 7010TIP3   OH242664   6.682   6.548   7.031 -0.2846 -0.4263 -0.1147
 7010TIP3    H142665   6.621   6.622   7.032  0.3769  0.1488  1.1647
 7010TIP3    H242666   6.687   6.522   6.939 -1.0599  0.6789 -0.4967
 7011TIP3   OH242667   6.206   4.728   1.427  0.5670  0.1302 -0.5099
 7011TIP3    H142668   6.116   4.750   1.453  0.5608 -0.3426 -0.1270
 7011TIP3    H242669   6.197   4.647   1.376  1.0591 -1.6448  2.0413
 7012TIP3   OH242670   0.184   1.653   1.660  1.2103  0.4444 -0.4669
 7012TIP3    H142671   0.156   1.663   1.569 -0.3957 -0.7613 -0.1639
 7012TIP3    H242672   0.207   1.741   1.688 -0.9313  1.3168 -1.2506
 7013TIP3   OH242673   1.052   5.029   8.314  0.1172 -0.4042 -0.0340
 7013TIP3    H142674   1.084   5.099   8.256 -0.2213 -0.8427 -0.7678
 7013TIP3    H242675   1.062   5.065   8.402  1.0840  0.1022 -0.3322
 7014TIP3   OH242676   3.656   2.302   0.531 -0.1870  0.4229  0.4722
 7014TIP3    H142677   3.708   2.300   0.612 -2.7236 -0.2943  2.2201
 7014TIP3    H242678   3.621   2.391   0.527  1.2295  0.9630 -0.8025
 7015TIP3   OH242679   4.536   5.720   7.061  0.4825  0.0181  0.7829
 7015TIP3    H142680   4.569   5.775   6.989  2.0313 -0.9686  0.7012
 7015TIP3    H242681   4.594   5.644   7.062 -0.0185 -0.3856  2.5692
 7016TIP3   OH242682   0.070   5.409   7.964 -0.6998  0.0762 -0.5786
 7016TIP3    H142683   0.027   5.328   7.991  1.0894 -0.9743 -0.7300
 7016TIP3    H242684   0.032   5.428   7.878 -0.1410 -1.4431 -1.2069
 7017TIP3   OH242685   2.466   6.278   1.160  0.0891 -0.2503 -0.1594
 7017TIP3    H142686   2.410   6.202   1.178 -2.8437  2.0573  1.3892
 7017TIP3    H242687   2.452   6.336   1.235  2.6269  1.6344 -1.0111
 7018TIP3   OH242688   5.336   4.932   0.460 -0.3985  0.0197 -0.8190
 7018TIP3    H142689   5.382   4.852   0.436  0.2482  0.3067 -0.5473
 7018TIP3    H242690   5.243   4.907   0.459 -0.1397 -1.1633  0.8098
 7019TIP3   OH242691   3.461   4.233   6.059  0.0420 -0.1612  0.1122
 7019TIP3    H142692   3.514   4.298   6.106  0.6062 -1.7580  1.8037
 7019TIP3    H242693   3.520   4.158   6.049 -0.6659 -0.5394 -1.6041
 7020TIP3   OH242694   5.208   5.483   6.814 -0.1795 -0.4852 -0.3362
 7020TIP3    H142695   5.240   5.495   6.725  1.0401  0.5846  0.2240
 7020TIP3    H242696   5.183   5.390   6.818 -1.6820 -0.2428 -2.2109
 7021TIP3   OH242697   6.695   0.941   7.944  0.0194  0.0235  0.4138
 7021TIP3    H142698   6.687   1.022   7.894  0.0718 -0.3678 -0.2367
 7021TIP3    H242699   6.652   0.875   7.890  2.6340 -1.0305 -0.5527
 7022TIP3   OH242700   2.643   1.928   7.215 -0.0438 -0.2988 -0.4495
 7022TIP3    H142701   2.629   1.850   7.268 -1.1525 -0.0229 -0.3064
 7022TIP3    H242702   2.725   1.911   7.168 -0.0671 -1.3697 -0.1300
 7023TIP3   OH242703   3.235   3.387   0.532 -0.0159  0.3410  0.1541
 7023TIP3    H142704   3.311   3.397   0.474 -1.4002  2.4345 -1.4355
 7023TIP3    H242705   3.161   3.419   0.481 -2.0178 -1.5423  1.6799
 7024TIP3   OH242706   0.767   2.516   7.707 -0.8102  0.2806 -0.2034
 7024TIP3    H142707   0.733   2.604   7.723  1.8054  0.9310  2.8662
 7024TIP3    H242708   0.813   2.493   7.788  0.5243 -3.0142 -1.7023
 7025TIP3   OH242709   4.819   6.426   7.091 -0.0163 -0.2160  0.9009
 7025TIP3    H142710   4.791   6.492   7.154  1.4867 -0.3042  1.7054
 7025TIP3    H242711   4.738   6.391   7.055 -0.9046  2.5322 -0.0766
 7026TIP3   OH242712   3.569   2.981   7.052 -0.1650  0.1046  0.0770
 7026TIP3    H142713   3.639   3.015   7.108  0.0358  0.4692 -0.3855
 7026TIP3    H242714   3.575   2.886   7.062 -0.3189  0.1753  0.8859
 7027TIP3   OH242715   0.052   2.518   7.833  0.0518 -0.2033  0.5393
 7027TIP3    H142716   0.126   2.497   7.776  0.6175 -0.2387  1.2862
 7027TIP3    H242717   0.088   2.516   7.921 -0.6357  0.6750  0.8490
 7028TIP3   OH242718   2.492   2.792   7.404 -0.5207  0.9074 -0.1369
 7028TIP3    H142719   2.465   2.785   7.312  0.7050  0.3006 -0.4835
 7028TIP3    H242720   2.438   2.729   7.450 -1.8961  1.9580 -0.2300
 7029TIP3   OH242721   3.353   3.473   7.862 -0.0231  0.1729  0.2626
 7029TIP3    H142722   3.384   3.552   7.906  1.1912  0.7336 -1.4943
 7029TIP3    H242723   3.334   3.501   7.773  1.0802 -1.6361 -0.5962
 7030TIP3   OH242724   1.935   2.679   7.877 -0.2629  0.3848  0.1390
 7030TIP3    H142725   2.014   2.662   7.824  0.6320  1.6368  1.0171
 7030TIP3    H242726   1.967   2.687   7.966 -1.7026 -1.2180  0.8426
 7031TIP3   OH242727   0.979   2.280   1.010  0.2702  0.6024 -0.6614
 7031TIP3    H142728   1.053   2.326   1.049 -0.4648  1.5941 -0.3964
 7031TIP3    H242729   0.983   2.192   1.046  1.4768  0.5645 -0.8620
 7032TIP3   OH242730   0.762   2.164   6.445  0.0662 -0.2751 -0.3098
 7032TIP3    H142731   0.732   2.250   6.417 -0.4793 -0.2849  0.2255
 7032TIP3    H242732   0.719   2.103   6.386 -0.2660 -0.2345 -0.1116
 7033TIP3   OH242733   1.945   3.813   7.521  0.2272  0.0472 -0.3698
 7033TIP3    H142734   2.000   3.771   7.455  1.1396  1.5851 -0.6323
 7033TIP3    H242735   1.904   3.886   7.475 -0.4846  0.1033  0.3351
 7034TIP3   OH242736   3.295   4.093   6.890  0.0661 -0.0595  0.2217
 7034TIP3    H142737   3.319   4.010   6.933 -0.1536 -0.1175  0.2309
 7034TIP3    H242738   3.264   4.067   6.803  0.4991  0.0564  0.0294
 7035TIP3   OH242739   5.381   1.642   7.192  0.5142 -0.2357 -0.2344
 7035TIP3    H142740   5.313   1.710   7.187  0.4508 -0.0395  2.3819
 7035TIP3    H242741   5.464   1.691   7.189  0.4728 -0.0619  1.1182
 7036TIP3   OH242742   5.002   3.502   8.074 -0.6970 -0.5833 -0.0164
 7036TIP3    H142743   5.071   3.450   8.034  0.7319  1.8957 -1.0448
 7036TIP3    H242744   5.040   3.535   8.155 -0.8687  0.2907 -0.2775
 7037TIP3   OH242745   6.068   6.324   1.402 -0.1820 -0.5111 -0.2981
 7037TIP3    H142746   6.011   6.308   1.477  1.8607 -0.9972  1.2356
 7037TIP3    H242747   6.050   6.415   1.378  0.7357  0.4572  2.3096
 7038TIP3   OH242748   0.745   1.077   0.364  0.5811  1.0187  0.3182
 7038TIP3    H142749   0.715   1.164   0.388  1.0436  1.0564  0.7910
 7038TIP3    H242750   0.796   1.047   0.440 -1.8066 -0.7825  1.3429
 7039TIP3   OH242751   0.628   0.687   0.547  0.1937 -0.3645 -0.4105
 7039TIP3    H142752   0.665   0.775   0.551 -2.5629  0.9864 -1.4421
 7039TIP3    H242753   0.621   0.668   0.453 -3.1411  0.2895 -0.4461
 7040TIP3   OH242754   3.423   6.164   0.573  0.0975  0.0286 -0.3812
 7040TIP3    H142755   3.432   6.076   0.537 -0.4143  0.1505 -0.8316
 7040TIP3    H242756   3.330   6.170   0.598 -0.1980  0.8970 -1.6032
 7041TIP3   OH242757   0.570   4.084   8.173  0.9726 -0.3207 -0.2997
 7041TIP3    H142758   0.581   3.991   8.151 -0.2750 -0.2419 -1.3866
 7041TIP3    H242759   0.659   4.120   8.170  1.6790 -1.7583  1.6623
 7042TIP3   OH242760   0.344   5.289   0.062  0.3270  0.2467 -0.2878
 7042TIP3    H142761   0.330   5.274  -0.032 -0.3617  0.5454 -0.2410
 7042TIP3    H242762   0.268   5.340   0.089  1.2908  1.5178  0.1057
 7043TIP3   OH242763   4.902   4.709   7.780  0.0074  0.2434 -0.4257
 7043TIP3    H142764   4.994   4.689   7.794 -0.0763  0.0949 -0.0871
 7043TIP3    H242765   4.884   4.676   7.692 -0.0148 -0.7950 -0.0544
 7044TIP3   OH242766   0.335   4.990   1.162  0.0023 -0.3185  1.5130
 7044TIP3    H142767   0.338   4.925   1.232 -2.3702  0.2016  2.1649
 7044TIP3    H242768   0.363   5.072   1.205 -0.9322 -0.1100  1.7444
 7045TIP3   OH242769   0.898   0.637   8.468 -0.4724  0.0850  0.0562
 7045TIP3    H142770   0.989   0.614   8.485 -0.0950 -0.2390 -2.0722
 7045TIP3    H242771   0.861   0.559   8.427 -2.2073 -0.3715  2.2931
 7046TIP3   OH242772   6.465   3.309   1.045  0.0317  0.1369  0.4024
 7046TIP3    H142773   6.509   3.347   0.969 -0.1562  1.3979  0.8958
 7046TIP3    H242774   6.536   3.293   1.108  0.0882 -0.1913  0.2598
 7047TIP3   OH242775   3.685   5.984   7.364  0.0756 -0.3545 -0.3942
 7047TIP3    H142776   3.648   5.896   7.365 -1.2948  0.1545 -2.0250
 7047TIP3    H242777   3.773   5.974   7.329 -0.1712 -1.0326 -0.8198
 7048TIP3   OH242778   0.266   6.588   5.874  0.8423 -0.0458  0.1927
 7048TIP3    H142779   0.228   6.669   5.907  0.7250  0.8830 -2.0542
 7048TIP3    H242780   0.209   6.519   5.907  0.3511  0.8551  1.2872
 7049TIP3   OH242781   1.782   0.809   0.362  0.5589 -1.2432  0.5924
 7049TIP3    H142782   1.840   0.792   0.436 -0.0315 -0.6463  1.2091
 7049TIP3    H242783   1.717   0.739   0.366  0.2355 -0.9232  0.9419
 7050TIP3   OH242784   2.454   4.288   6.096 -0.0260 -0.2044 -0.0230
 7050TIP3    H142785   2.391   4.244   6.039  0.4020  1.1808 -1.6415
 7050TIP3    H242786   2.406   4.362   6.133 -0.0581 -0.6181  0.7872
 7051TIP3   OH242787   1.173   3.011   7.372 -0.2983 -0.1514  0.2240
 7051TIP3    H142788   1.189   2.975   7.460 -1.9032  0.6000  0.8497
 7051TIP3    H242789   1.240   2.969   7.318  1.3148  0.0367  1.9490
 7052TIP3   OH242790   6.289   0.018   8.463 -0.5090 -0.3823 -0.2276
 7052TIP3    H142791   6.243   0.102   8.458  0.4220  0.3551  2.0891
 7052TIP3    H242792   6.296   0.000   8.556  2.0851 -1.4598 -0.5443
 7053TIP3   OH242793   3.201   1.084   2.008 -0.8281  0.0753 -0.3792
 7053TIP3    H142794   3.258   1.011   1.982 -0.5504  0.8126 -1.8956
 7053TIP3    H242795   3.231   1.106   2.097  0.4493 -0.3330 -0.6814
 7054TIP3   OH242796   6.163   4.332   7.966 -0.2433  0.1999 -0.6461
 7054TIP3    H142797   6.100   4.260   7.959 -0.1200  0.0035  0.1634
 7054TIP3    H242798   6.125   4.402   7.912  0.8198 -1.2666 -3.4756
 7055TIP3   OH242799   2.824   1.016   7.527 -1.0850 -0.2081 -0.2853
 7055TIP3    H142800   2.865   1.083   7.581  1.6866 -1.6447 -0.3930
 7055TIP3    H242801   2.732   1.042   7.521 -1.1152  1.1461  3.3456
 7056TIP3   OH242802   4.462   2.353   0.352  0.1401  0.1164 -0.4765
 7056TIP3    H142803   4.435   2.291   0.420 -0.2378  0.7539 -0.0342
 7056TIP3    H242804   4.388   2.357   0.292 -0.9007  2.0019  0.8331
 7057TIP3   OH242805   5.989   0.072   1.230 -0.2129  0.0274 -0.7237
 7057TIP3    H142806   5.894   0.084   1.219 -0.0275  0.2366 -2.2802
 7057TIP3    H242807   6.005  -0.019   1.207 -0.0497 -0.0765 -0.2227
 7058TIP3   OH242808   5.646   1.641   6.862 -0.0242  0.0561  0.1903
 7058TIP3    H142809   5.613   1.552   6.862  0.9918 -0.3541  1.2379
 7058TIP3    H242810   5.631   1.673   6.773 -1.5339 -0.7075  0.1471
 7059TIP3   OH242811   6.114   4.996   1.532  0.2091 -0.1682  0.1121
 7059TIP3    H142812   6.183   4.965   1.590 -1.6074 -0.7498  2.0794
 7059TIP3    H242813   6.066   4.916   1.507  0.7319  0.1142 -1.9334
 7060TIP3   OH242814   1.997   3.209   0.349  0.1850  0.0011  0.3014
 7060TIP3    H142815   2.039   3.123   0.351 -0.7663 -0.4777  0.3217
 7060TIP3    H242816   2.007   3.242   0.439 -0.9123 -0.8309  0.7533
 7061TIP3   OH242817   0.578   2.661   1.310 -0.2686 -0.3117  0.3091
 7061TIP3    H142818   0.663   2.617   1.317  0.8141  1.3892 -1.1913
 7061TIP3    H242819   0.517   2.591   1.286  1.4231 -1.0895 -2.1424
 7062TIP3   OH242820   5.272   1.448   0.413 -0.1329 -0.5796 -0.1808
 7062TIP3    H142821   5.209   1.493   0.469  0.2368 -0.0742 -0.1666
 7062TIP3    H242822   5.275   1.359   0.448 -1.6956 -0.9480 -0.8923
 7063TIP3   OH242823   6.860   6.489   0.524  0.0347 -0.4790 -0.3340
 7063TIP3    H142824   6.851   6.445   0.608  1.4502 -0.3895 -0.1131
 7063TIP3    H242825   6.774   6.479   0.482 -0.9643  0.2236  1.4526
 7064TIP3   OH242826   6.311   6.223   0.372 -0.1555  0.0645  0.5929
 7064TIP3    H142827   6.371   6.149   0.380 -1.8639 -1.5404 -0.5453
 7064TIP3    H242828   6.260   6.223   0.452  0.1383  0.3019  0.7824
 7065TIP3   OH242829   4.859   5.305   0.956  0.3564  0.8804 -0.1496
 7065TIP3    H142830   4.905   5.329   1.037  0.4026  1.7879 -0.4306
 7065TIP3    H242831   4.926   5.310   0.888  0.5127 -0.7050 -0.1368
 7066TIP3   OH242832   5.875   4.459   6.884 -0.1212 -0.1042 -0.7779
 7066TIP3    H142833   5.959   4.488   6.849  0.1110 -1.2109 -1.1661
 7066TIP3    H242834   5.879   4.363   6.881 -1.3970 -0.1742 -0.8079
 7067TIP3   OH242835   4.089   2.595   0.618  0.3194  0.1639 -0.0457
 7067TIP3    H142836   4.143   2.664   0.579  2.2443  0.2848  2.5465
 7067TIP3    H242837   4.137   2.514   0.599  2.0243  0.3274  2.8127
 7068TIP3   OH242838   1.775   4.355   0.847 -0.0965  0.2391  0.5518
 7068TIP3    H142839   1.820   4.437   0.827 -0.4021  0.3080  0.1174
 7068TIP3    H242840   1.685   4.370   0.818 -0.5803  0.3447  2.0374
 7069TIP3   OH242841   6.476   4.669   0.369  0.0536  0.1069  0.3652
 7069TIP3    H142842   6.519   4.594   0.410  3.2239  1.1220 -0.8120
 7069TIP3    H242843   6.491   4.742   0.430 -0.4660  0.4027  0.1482
 7070TIP3   OH242844   6.218   0.607   6.728  0.1233  0.7845 -0.8483
 7070TIP3    H142845   6.184   0.692   6.698  2.0216  1.5221 -1.0599
 7070TIP3    H242846   6.141   0.552   6.738 -1.2203  2.6679 -0.3052
 7071TIP3   OH242847   2.352   4.663   1.878  0.0657  0.5298 -0.1575
 7071TIP3    H142848   2.444   4.685   1.888  0.2527 -0.0552 -0.5442
 7071TIP3    H242849   2.336   4.593   1.942  0.2228 -0.2771 -0.9774
 7072TIP3   OH242850   3.325   1.035   8.007  0.2364  0.4671 -0.7194
 7072TIP3    H142851   3.356   0.947   8.031  0.6158  0.6107 -0.6747
 7072TIP3    H242852   3.404   1.082   7.983  0.3310  1.4827  1.3566
 7073TIP3   OH242853   5.208   0.951   8.627  0.0298 -0.1471 -0.5071
 7073TIP3    H142854   5.158   1.033   8.623 -0.1317 -0.2817 -1.5243
 7073TIP3    H242855   5.146   0.883   8.600  0.8358 -0.2506 -2.2891
 7074TIP3   OH242856   4.461   4.894   0.357 -0.3281 -0.1723  0.0444
 7074TIP3    H142857   4.373   4.933   0.357 -0.8553 -1.2037  2.8643
 7074TIP3    H242858   4.466   4.844   0.438  3.0629  0.2455  0.2389
 7075TIP3   OH242859   2.589   1.875   8.637  0.5652  0.2128  0.6724
 7075TIP3    H142860   2.502   1.911   8.617  0.7172  0.1580 -0.1118
 7075TIP3    H242861   2.570   1.787   8.671  0.3737 -1.1991 -2.5989
 7076TIP3   OH242862   5.305   5.441   1.369 -0.1438 -0.2364 -0.2826
 7076TIP3    H142863   5.223   5.483   1.393 -0.5352 -0.8643 -0.4716
 7076TIP3    H242864   5.303   5.439   1.273  0.0118 -0.3955 -0.2822
 7077TIP3   OH242865   5.891   1.649   0.348  0.2329  0.8978 -0.1908
 7077TIP3    H142866   5.975   1.611   0.322  0.1863  0.8507 -0.2724
 7077TIP3    H242867   5.830   1.575   0.348  0.3549  0.7832  0.6230
 7078TIP3   OH242868   2.530   0.294   2.153 -0.2999  0.2941  0.6396
 7078TIP3    H142869   2.615   0.331   2.127 -0.3061 -0.2363 -0.1505
 7078TIP3    H242870   2.550   0.245   2.234  0.1990 -0.0097  0.3438
 7079TIP3   OH242871   4.939   3.406   1.776  0.2818  0.1887 -0.1307
 7079TIP3    H142872   4.875   3.398   1.847  1.0290  1.6455  0.7428
 7079TIP3    H242873   4.919   3.490   1.735  0.3495 -0.2894 -1.1769
 7080TIP3   OH242874   5.430   2.118   6.978 -0.6032 -0.1016  0.5643
 7080TIP3    H142875   5.440   2.043   6.919 -2.3500 -0.1759  0.3164
 7080TIP3    H242876   5.390   2.186   6.923  1.2610  1.1832  0.6879
 7081TIP3   OH242877   4.436   0.001   8.572 -0.4015 -0.4377 -0.1022
 7081TIP3    H142878   4.377   0.063   8.616  0.0637  0.4395 -0.6741
 7081TIP3    H242879   4.506  -0.015   8.636  0.2834  0.8463 -0.4950
 7082TIP3   OH242880   3.542   2.611   2.230  0.5696  0.2537  0.2597
 7082TIP3    H142881   3.615   2.674   2.234  0.0473  0.9179 -0.2970
 7082TIP3    H242882   3.466   2.660   2.260  0.2867 -0.3443  0.5395
 7083TIP3   OH242883   2.990   3.740   6.754 -0.6535  0.2875 -0.1417
 7083TIP3    H142884   3.074   3.782   6.774 -1.1471  0.1411  2.4945
 7083TIP3    H242885   2.967   3.774   6.667  3.3519 -1.7197 -2.2522
 7084TIP3   OH242886   5.341   1.291   1.013 -0.0267 -0.2706  0.0743
 7084TIP3    H142887   5.263   1.279   0.958  0.0407  0.6126 -0.2320
 7084TIP3    H242888   5.374   1.202   1.027 -1.3132 -0.7001  0.5501
 7085TIP3   OH242889   3.157   0.154   6.985 -0.1992  0.1958 -0.2256
 7085TIP3    H142890   3.195   0.128   6.901 -0.2389 -1.0026  0.1089
 7085TIP3    H242891   3.231   0.183   7.037 -0.4483  3.4155 -1.4875
 7086TIP3   OH242892   2.567   3.315   1.770 -0.5208 -0.5853 -0.4254
 7086TIP3    H142893   2.529   3.279   1.690  0.0582 -0.8400 -0.5949
 7086TIP3    H242894   2.573   3.409   1.753 -2.9682 -0.2093  0.4066
 7087TIP3   OH242895   5.295   1.365   6.828  0.1101 -0.1266 -0.0970
 7087TIP3    H142896   5.296   1.402   6.740 -0.1873 -1.4195 -0.6618
 7087TIP3    H242897   5.208   1.386   6.862  0.3052  0.5735 -0.0095
 7088TIP3   OH242898   5.267   4.230   7.428 -0.0638  0.2608  0.3985
 7088TIP3    H142899   5.291   4.158   7.486  1.2018 -0.6639 -1.1908
 7088TIP3    H242900   5.172   4.235   7.434 -0.0971 -0.9139  1.2390
 7089TIP3   OH242901   1.321   0.720   7.787  0.1517  0.1186  0.2660
 7089TIP3    H142902   1.234   0.681   7.785  0.0848  0.0500  2.1411
 7089TIP3    H242903   1.305   0.814   7.787  0.1192  0.1132 -0.2406
 7090TIP3   OH242904   0.447   6.147   0.042  0.5494  0.4096  0.1503
 7090TIP3    H142905   0.522   6.087   0.039  0.5505  0.4167  0.0330
 7090TIP3    H242906   0.486   6.232   0.064  0.9459  0.9852 -2.3834
 7091TIP3   OH242907   3.969   0.863   8.021  0.0962  0.6925  0.0143
 7091TIP3    H142908   4.050   0.814   8.037  0.3640  0.2310 -2.4423
 7091TIP3    H242909   3.996   0.934   7.963 -0.6236  2.7890  2.1070
 7092TIP3   OH242910   3.255   2.400   7.865  0.0480  0.5587 -0.4813
 7092TIP3    H142911   3.175   2.443   7.892 -0.8975 -1.8070  0.8012
 7092TIP3    H242912   3.296   2.369   7.946  2.1714  1.4816 -1.1139
 7093TIP3   OH242913   2.385   6.063   1.309  0.0569 -0.2770 -0.3239
 7093TIP3    H142914   2.316   6.058   1.375 -0.1783  0.3292 -0.5157
 7093TIP3    H242915   2.465   6.039   1.356  0.0127  0.8976  0.3857
 7094TIP3   OH242916   6.164   4.130   0.205 -0.9110 -0.2112  0.1170
 7094TIP3    H142917   6.246   4.119   0.157 -1.2768  0.1132 -0.5919
 7094TIP3    H242918   6.179   4.207   0.261 -1.3034  0.9312 -1.2896
 7095TIP3   OH242919   4.029   3.125   7.391  0.3840  0.0995  0.2563
 7095TIP3    H142920   4.066   3.118   7.479  1.3096  0.7314 -0.0633
 7095TIP3    H242921   4.015   3.218   7.378 -1.2696 -0.1049  0.3140
 7096TIP3   OH242922   5.861   4.241   8.273 -0.5310  0.1759  0.3636
 7096TIP3    H142923   5.827   4.233   8.362 -1.7835  1.2295 -0.0009
 7096TIP3    H242924   5.896   4.330   8.269 -0.5693  0.1676 -0.2233
 7097TIP3   OH242925   5.618   4.978   0.966  0.1403 -0.3372 -0.0022
 7097TIP3    H142926   5.589   5.040   1.033  0.1595  0.6651 -0.9050
 7097TIP3    H242927   5.702   5.013   0.937 -1.6759  1.6448 -3.4645
 7098TIP3   OH242928   6.559   2.166   1.927 -0.2999 -0.0816 -0.2824
 7098TIP3    H142929   6.491   2.117   1.973  1.2742 -1.5099  0.6718
 7098TIP3    H242930   6.587   2.233   1.989  1.5142 -1.7264  0.7984
 7099TIP3   OH242931   2.956   1.405   7.308 -0.4302  0.2265  0.3409
 7099TIP3    H142932   2.988   1.316   7.323 -1.6505 -0.1406  0.8874
 7099TIP3    H242933   2.897   1.422   7.381 -2.1681  0.5289 -1.0811
 7100TIP3   OH242934   5.379   5.181   1.077  0.0366  0.2486 -0.1731
 7100TIP3    H142935   5.325   5.193   1.155 -0.5941  0.3371 -0.6169
 7100TIP3    H242936   5.342   5.105   1.033  0.7888 -0.1916 -0.0646
 7101TIP3   OH242937   3.949   2.670   8.067 -0.2771 -0.7020  0.4580
 7101TIP3    H142938   3.877   2.708   8.017  1.7716  1.4256 -1.1022
 7101TIP3    H242939   3.911   2.592   8.107 -2.9009 -0.8215 -1.8908
 7102TIP3   OH242940   5.960   6.075   0.789  0.1027  0.5129  0.1936
 7102TIP3    H142941   5.940   6.150   0.846 -1.0835 -0.1798  0.7445
 7102TIP3    H242942   5.977   6.003   0.850 -1.9219 -0.4308 -0.2457
 7103TIP3   OH242943   3.915   3.224   6.192  0.7377  0.0580 -0.5426
 7103TIP3    H142944   3.907   3.129   6.186  1.5249 -0.0643  0.0799
 7103TIP3    H242945   4.007   3.241   6.172  0.6985  0.6493 -0.2382
 7104TIP3   OH242946   0.330   5.558   8.410  0.3947 -0.2189 -0.1357
 7104TIP3    H142947   0.284   5.507   8.343  2.4796 -1.5258 -0.6493
 7104TIP3    H242948   0.306   5.514   8.492 -1.4805  0.8639 -0.0518
 7105TIP3   OH242949   2.561   1.150   0.523 -0.2987  0.0579 -0.0012
 7105TIP3    H142950   2.622   1.174   0.592 -0.6031 -1.2815  0.7641
 7105TIP3    H242951   2.590   1.064   0.493 -1.2665 -0.1894 -0.2618
 7106TIP3   OH242952   4.971   4.052   8.121 -0.5873  0.2172 -0.0274
 7106TIP3    H142953   4.937   3.962   8.128  1.1517 -0.3612  1.9315
 7106TIP3    H242954   5.012   4.055   8.035  0.3998 -1.3055  0.3425
 7107TIP3   OH242955   5.059   3.365   1.014  0.8248 -0.2012 -0.1201
 7107TIP3    H142956   5.097   3.293   1.064  0.6686 -0.9404 -1.0371
 7107TIP3    H242957   5.134   3.419   0.989  0.7846  1.1590  2.2887
 7108TIP3   OH242958   4.788   4.391   0.926  0.2432 -0.1894  0.6029
 7108TIP3    H142959   4.776   4.358   1.015  1.3615  0.9444  1.2086
 7108TIP3    H242960   4.822   4.480   0.937  0.4846 -0.0471 -0.9568
 7109TIP3   OH242961   1.348   6.845   6.807 -0.4212  0.4830 -0.3707
 7109TIP3    H142962   1.352   6.902   6.731 -2.1169 -0.1069 -0.9474
 7109TIP3    H242963   1.289   6.774   6.781  0.8209 -0.9989  0.6709
 7110TIP3   OH242964   2.293   4.042   2.111 -0.5430 -0.0924 -0.3746
 7110TIP3    H142965   2.242   4.106   2.160  0.3993  0.1609  0.3098
 7110TIP3    H242966   2.373   4.030   2.163 -0.7728 -1.9766 -0.3704
 7111TIP3   OH242967   5.816   2.228   1.637  0.1804  0.3813  0.4907
 7111TIP3    H142968   5.753   2.174   1.686 -0.3888  0.3301 -0.2836
 7111TIP3    H242969   5.895   2.175   1.632 -0.9164 -1.1849 -1.7859
 7112TIP3   OH242970   2.366   5.244   0.657 -0.4574 -0.3077 -0.1723
 7112TIP3    H142971   2.281   5.203   0.670  0.2432 -1.8060 -0.1134
 7112TIP3    H242972   2.422   5.205   0.723  0.5254 -0.1029 -0.8576
 7113TIP3   OH242973   0.911   4.734   6.548  0.0934  0.9442  0.2064
 7113TIP3    H142974   0.966   4.655   6.544  0.3542  1.1467 -0.1997
 7113TIP3    H242975   0.883   4.749   6.458 -1.6834  0.1178  0.5899
 7114TIP3   OH242976   0.551   4.869   1.750  0.5319 -0.3357  0.1705
 7114TIP3    H142977   0.572   4.862   1.843 -0.9895  0.9729  0.6597
 7114TIP3    H242978   0.588   4.952   1.723 -0.5099  0.1144  0.0691
 7115TIP3   OH242979   5.278   0.751   7.145 -0.7101 -0.3317 -0.5685
 7115TIP3    H142980   5.286   0.724   7.237 -0.9810  0.6454 -0.2481
 7115TIP3    H242981   5.365   0.781   7.122 -0.7577 -0.1272 -0.4834
 7116TIP3   OH242982   2.951   3.878   1.546 -0.4472 -0.2255  0.0187
 7116TIP3    H142983   2.990   3.809   1.492  0.6023 -0.8253  1.4773
 7116TIP3    H242984   3.012   3.890   1.618 -2.2297 -0.1207  1.6055
 7117TIP3   OH242985   3.103   4.112   1.408  0.5523 -0.4486 -0.4361
 7117TIP3    H142986   3.089   4.119   1.502  0.2473  1.1501 -0.5745
 7117TIP3    H242987   3.084   4.020   1.388 -0.2988 -0.5999  0.9130
 7118TIP3   OH242988   6.576   3.871   0.639  0.1816 -0.6504  0.2420
 7118TIP3    H142989   6.564   3.804   0.706 -1.5986  0.6953  1.3482
 7118TIP3    H242990   6.670   3.890   0.641  0.4549 -1.9635  1.0198
 7119TIP3   OH242991   2.906   3.289   6.980 -0.0286 -0.2859 -0.1114
 7119TIP3    H142992   2.883   3.379   6.958  2.0632 -0.0274 -1.4748
 7119TIP3    H242993   2.931   3.293   7.073  1.0883  0.7928 -0.4282
 7120TIP3   OH242994   1.781   6.584   1.419  0.2442 -0.2743  0.5607
 7120TIP3    H142995   1.876   6.572   1.424  0.0700 -1.3958  1.8269
 7120TIP3    H242996   1.745   6.506   1.461 -1.3018 -0.6753 -1.3758
 7121TIP3   OH242997   6.683   1.178   6.124  0.0498 -0.2537 -0.5270
 7121TIP3    H142998   6.617   1.218   6.068  1.1661 -0.8194 -2.3458
 7121TIP3    H242999   6.740   1.251   6.149  1.0849 -0.3600 -2.4033
 7122TIP3   OH243000   1.574   3.405   7.602  0.0039 -0.5059  0.5105
 7122TIP3    H143001   1.514   3.363   7.663 -0.9718  0.5424  0.3203
 7122TIP3    H243002   1.651   3.349   7.601 -1.9624 -3.4970 -1.2986
 7123TIP3   OH243003   2.041   1.901   1.353  0.5070  0.3566 -0.5408
 7123TIP3    H143004   2.082   1.905   1.440 -0.7037  1.5152  0.0091
 7123TIP3    H243005   2.015   1.809   1.343  2.8666 -0.3491 -0.7754
 7124TIP3   OH243006   5.647   4.984   2.315  0.1393 -0.2501 -0.1007
 7124TIP3    H143007   5.556   4.993   2.285  0.0662  0.8097  0.3940
 7124TIP3    H243008   5.654   5.043   2.390  1.3247 -0.0635 -0.3355
 7125TIP3   OH243009   6.663   5.178   6.801  0.0960 -0.0332 -0.0270
 7125TIP3    H143010   6.758   5.169   6.802  0.3200  1.7924  0.8007
 7125TIP3    H243011   6.646   5.242   6.731 -0.2221  1.6141  1.4688
 7126TIP3   OH243012   4.388   1.237   7.231  0.2381 -0.0749  0.5498
 7126TIP3    H143013   4.331   1.252   7.156  0.6113  1.2645  0.4944
 7126TIP3    H243014   4.477   1.248   7.196  0.4009  0.9960  1.2417
 7127TIP3   OH243015   0.118   0.183   2.495 -0.7296 -0.6090  0.2636
 7127TIP3    H143016   0.112   0.258   2.435  0.1518  0.6605  1.6834
 7127TIP3    H243017   0.052   0.200   2.562 -0.6753 -1.2309  0.4832
 7128TIP3   OH243018   4.434   6.840   7.904  0.4292 -0.1843  0.1581
 7128TIP3    H143019   4.456   6.865   7.994  0.2683  0.2004  0.0953
 7128TIP3    H243020   4.505   6.782   7.877  1.0828  0.6171  0.1347
 7129TIP3   OH243021   6.201   3.292   1.111 -0.4833  0.1092  0.0239
 7129TIP3    H143022   6.279   3.301   1.056 -0.6071 -0.9618 -0.3441
 7129TIP3    H243023   6.231   3.317   1.198  0.1016  0.3629 -0.2433
 7130TIP3   OH243024   6.706   5.569   0.132  0.2540  0.4154 -0.0002
 7130TIP3    H143025   6.678   5.592   0.220  1.8038  1.7845  0.1766
 7130TIP3    H243026   6.644   5.502   0.104  0.3954 -0.8796  2.5344
 7131TIP3   OH243027   3.483   2.199   1.681  0.2903  0.5338 -0.0484
 7131TIP3    H143028   3.419   2.132   1.657 -2.9408  2.8231  1.4565
 7131TIP3    H243029   3.531   2.216   1.600 -1.5705 -0.7696 -1.5166
 7132TIP3   OH243030   6.661   0.043   2.004 -0.2633  0.4542 -0.5718
 7132TIP3    H143031   6.667   0.122   2.058 -0.1450  0.3548 -0.4365
 7132TIP3    H243032   6.576   0.049   1.961  0.3030  1.3447 -1.6426
 7133TIP3   OH243033   6.185   2.179   8.012 -0.0300 -0.2514  0.3717
 7133TIP3    H143034   6.105   2.231   8.005 -1.2500 -2.2525 -2.0486
 7133TIP3    H243035   6.227   2.187   7.927  3.2508  1.8347  1.9519
 7134TIP3   OH243036   0.682   6.868   1.891 -0.2413  0.2156  0.2572
 7134TIP3    H143037   0.748   6.896   1.955  2.6279 -0.1483 -2.2797
 7134TIP3    H243038   0.682   6.772   1.898 -0.6017  0.2185  0.3145
 7135TIP3   OH243039   6.205   0.539   1.781 -0.5644 -0.2166  0.2976
 7135TIP3    H143040   6.133   0.508   1.836 -1.3284  0.9984  0.0317
 7135TIP3    H243041   6.172   0.620   1.741  1.3240  1.0145  1.0484
 7136TIP3   OH243042   2.300   2.678   7.920 -0.2468 -0.3572  0.6170
 7136TIP3    H143043   2.271   2.625   7.845 -2.3223  0.3624  0.8588
 7136TIP3    H243044   2.309   2.766   7.885  1.5219 -0.4960  0.6204
 7137TIP3   OH243045   5.851   4.665   7.197 -0.4957  0.0137 -0.7049
 7137TIP3    H143046   5.839   4.759   7.178  0.5210 -0.1228 -2.2236
 7137TIP3    H243047   5.787   4.621   7.141 -3.4770 -0.1653  2.5318
 7138TIP3   OH243048   3.599   3.037   0.354 -0.5701 -0.8227  0.2599
 7138TIP3    H143049   3.509   3.008   0.374 -0.6541 -1.3076 -0.7845
 7138TIP3    H243050   3.650   2.956   0.352 -0.5741 -0.8219 -1.4868
 7139TIP3   OH243051   4.951   6.649   0.043  0.0476  0.3200 -0.1791
 7139TIP3    H143052   4.869   6.681   0.080 -0.1755  0.6319 -0.9296
 7139TIP3    H243053   5.019   6.680   0.103 -0.4220 -0.5024  0.8143
 7140TIP3   OH243054   2.369   2.743   2.395 -0.3809  0.1356  0.3975
 7140TIP3    H143055   2.366   2.653   2.427 -1.9083 -0.2366 -0.7204
 7140TIP3    H243056   2.281   2.778   2.411  0.1104  1.3578  0.5646
 7141TIP3   OH243057   3.748   4.916   0.324  0.0348  0.0441  0.0916
 7141TIP3    H143058   3.706   4.878   0.246 -1.1789 -0.9839  1.1978
 7141TIP3    H243059   3.728   5.010   0.318  1.0884  0.2156 -1.4770
 7142TIP3   OH243060   1.617   3.012   2.352 -0.4250 -0.1665 -0.2310
 7142TIP3    H143061   1.669   3.015   2.432 -5.0864 -0.2585  3.2319
 7142TIP3    H243062   1.615   2.919   2.328  1.1194 -0.1220 -0.6652
 7143TIP3   OH243063   3.757   5.115   6.379  0.0747 -0.6900  0.5719
 7143TIP3    H143064   3.678   5.063   6.366  0.3144 -0.8575 -0.2782
 7143TIP3    H243065   3.732   5.204   6.354 -0.2030 -0.4796  1.5677
 7144TIP3   OH243066   0.376   0.680   0.643 -0.2626  0.4099 -0.0592
 7144TIP3    H143067   0.324   0.757   0.664  0.1229  0.3137  1.3389
 7144TIP3    H243068   0.466   0.713   0.634 -0.2201  0.2395 -0.2819
 7145TIP3   OH243069   1.501   3.346   6.729 -0.2265 -0.1386  0.4345
 7145TIP3    H143070   1.545   3.293   6.663 -1.3263 -0.3610 -0.1469
 7145TIP3    H243071   1.529   3.435   6.711 -0.0286 -0.2739  0.0600
 7146TIP3   OH243072   0.651   5.363   6.833 -0.6829  0.5494 -0.1875
 7146TIP3    H143073   0.721   5.344   6.894  0.0735  0.1864 -1.1479
 7146TIP3    H243074   0.633   5.280   6.788 -1.5715  0.6870 -0.1136
 7147TIP3   OH243075   4.220   0.532   7.665  0.1339  0.0446  0.3630
 7147TIP3    H143076   4.216   0.606   7.604 -0.6001  0.9353  1.4397
 7147TIP3    H243077   4.272   0.466   7.619 -1.8476 -0.0549 -1.9997
 7148TIP3   OH243078   6.863   6.172   6.454  0.1561 -0.0684 -0.5004
 7148TIP3    H143079   6.936   6.128   6.411  0.3440 -0.3912  0.1300
 7148TIP3    H243080   6.904   6.232   6.516 -0.1040  0.8098 -1.1600
 7149TIP3   OH243081   1.796   0.071   1.631  0.3017  0.1144  0.2008
 7149TIP3    H143082   1.746   0.054   1.551 -0.8608  0.5033  0.8114
 7149TIP3    H243083   1.755   0.015   1.697  0.2297  0.9248  0.8672
 7150TIP3   OH243084   2.346   6.665   1.886 -0.4733  0.1181  0.2372
 7150TIP3    H143085   2.425   6.700   1.927  0.7648 -0.7382 -1.3225
 7150TIP3    H243086   2.326   6.726   1.816 -2.1543  1.1761  1.5674
 7151TIP3   OH243087   5.238   1.713   7.892 -0.3066 -0.6263 -0.1912
 7151TIP3    H143088   5.323   1.668   7.889 -1.1321 -2.2253 -1.3481
 7151TIP3    H243089   5.200   1.686   7.976  0.0515 -0.4239  0.0412
 7152TIP3   OH243090   2.149   0.491   1.573  0.4537 -0.7743 -0.2248
 7152TIP3    H143091   2.235   0.451   1.561 -0.2506 -2.1193 -1.0293
 7152TIP3    H243092   2.140   0.500   1.668  1.0187 -1.6884 -0.0768
 7153TIP3   OH243093   4.194   2.061   2.024  0.1220 -0.3788 -0.5088
 7153TIP3    H143094   4.279   2.100   2.045 -0.5640  2.1722 -2.0282
 7153TIP3    H243095   4.209   2.011   1.944  0.0996  0.7248 -1.2333
 7154TIP3   OH243096   3.442   2.880   7.535  0.2255 -0.0337  0.1040
 7154TIP3    H143097   3.393   2.959   7.514  2.4361  1.2601 -0.5904
 7154TIP3    H243098   3.384   2.830   7.593 -2.2023  0.9228 -1.3408
 7155TIP3   OH243099   6.358   4.795   2.021  0.2074 -0.2551  0.3395
 7155TIP3    H143100   6.307   4.872   2.049  0.4773 -0.0490  0.2722
 7155TIP3    H243101   6.294   4.724   2.017  0.0812 -0.1949  1.0686
 7156TIP3   OH243102   4.259   1.215   0.656  0.5253  0.0752 -0.0042
 7156TIP3    H143103   4.269   1.131   0.611  0.2832  0.0566 -0.0229
 7156TIP3    H243104   4.268   1.193   0.749 -1.5266 -0.3015  0.1575
 7157TIP3   OH243105   1.884   0.573   8.230 -0.0905  0.4155 -0.3912
 7157TIP3    H143106   1.879   0.608   8.319  0.0118  0.9900 -0.6104
 7157TIP3    H243107   1.888   0.478   8.242 -2.5393  0.3032  0.1435
 7158TIP3   OH243108   0.140   5.785   1.515 -0.0864 -0.3192  0.2934
 7158TIP3    H143109   0.187   5.791   1.598 -1.9610  0.1142  1.3772
 7158TIP3    H243110   0.166   5.701   1.479 -0.1519 -1.0809  1.9257
 7159TIP3   OH243111   4.175   6.782   1.719  0.2937  0.3417 -0.0878
 7159TIP3    H143112   4.153   6.771   1.811  1.0024  0.0891  0.0584
 7159TIP3    H243113   4.236   6.710   1.700  0.9199  0.9597 -0.4937
 7160TIP3   OH243114   2.081   4.644   8.281 -0.1052  0.0380 -0.2860
 7160TIP3    H143115   2.050   4.587   8.211 -0.2179  0.9242 -0.9706
 7160TIP3    H243116   2.002   4.676   8.324 -0.0636  0.1578 -0.2970
 7161TIP3   OH243117   3.272   6.447   1.962 -0.0162 -0.1028 -0.5233
 7161TIP3    H143118   3.210   6.499   1.911  0.9159  1.2743 -0.2794
 7161TIP3    H243119   3.357   6.466   1.924  0.4994 -0.4063  0.4434
 7162TIP3   OH243120   1.410   0.991   1.672 -0.6760  0.4972 -0.8964
 7162TIP3    H143121   1.500   1.000   1.703 -0.9842  1.3721 -0.1787
 7162TIP3    H243122   1.412   1.018   1.581  0.3228 -2.4456 -1.8376
 7163TIP3   OH243123   6.786   5.013   0.421 -0.0717  0.4085 -0.5332
 7163TIP3    H143124   6.785   5.060   0.338 -2.0791  2.0661  0.3518
 7163TIP3    H243125   6.700   4.971   0.426 -0.1376  0.6788  0.8936
 7164TIP3   OH243126   3.143   3.744   2.141  0.3836  0.0830  0.2735
 7164TIP3    H143127   3.207   3.746   2.071  1.1505  0.9648  0.9775
 7164TIP3    H243128   3.138   3.651   2.166  1.6603  0.0506  0.4553
 7165TIP3   OH243129   3.948   5.869   8.595 -0.2746 -0.1466  0.0932
 7165TIP3    H143130   3.995   5.940   8.550  0.1066 -0.3444  0.1704
 7165TIP3    H243131   3.918   5.908   8.677 -0.7870  0.1562 -0.2380
 7166TIP3   OH243132   4.605   1.643   8.585 -0.3325 -0.0219  0.2237
 7166TIP3    H143133   4.663   1.608   8.653 -0.4188  0.3275  0.4782
 7166TIP3    H243134   4.638   1.731   8.569  1.3717 -0.9792 -2.1095
 7167TIP3   OH243135   4.247   3.812   0.098  0.3110 -0.3710  0.0551
 7167TIP3    H143136   4.334   3.778   0.120  0.1173 -1.9695 -1.4418
 7167TIP3    H243137   4.262   3.902   0.070  1.1262  0.1927  2.1124
 7168TIP3   OH243138   2.671   5.439   8.690  0.0106  0.0830  0.0079
 7168TIP3    H143139   2.620   5.512   8.726  0.0650  0.1255 -0.0034
 7168TIP3    H243140   2.670   5.373   8.760  0.6456  0.4108  0.3293
 7169TIP3   OH243141   1.062   0.579   7.796  0.1788 -0.0034  0.6035
 7169TIP3    H143142   0.989   0.559   7.854 -0.0062 -1.3453 -0.0234
 7169TIP3    H243143   1.021   0.617   7.718  0.0776 -1.0750  0.1092
 7170TIP3   OH243144   2.668   1.748   1.855  0.2176  0.0917  0.6633
 7170TIP3    H143145   2.651   1.841   1.868 -1.2180 -0.1814  0.9223
 7170TIP3    H243146   2.705   1.719   1.938 -0.0648  0.2764  0.8558
 7171TIP3   OH243147   0.555   5.971   0.684  0.2666 -0.0926 -0.2347
 7171TIP3    H143148   0.519   6.011   0.763  1.8713 -0.7982  0.8879
 7171TIP3    H243149   0.567   5.879   0.707  2.3040  0.0093 -0.7177
 7172TIP3   OH243150   1.344   3.326   2.269  0.0822  0.3314 -0.0782
 7172TIP3    H143151   1.357   3.293   2.359 -1.1327 -0.7004 -0.2575
 7172TIP3    H243152   1.266   3.281   2.238 -0.2377  1.6162 -1.2329
 7173TIP3   OH243153   4.035   0.525   8.067 -0.2893 -0.5537  0.0613
 7173TIP3    H143154   4.086   0.469   8.009  0.9916  0.4420  0.1985
 7173TIP3    H243155   3.952   0.538   8.021  1.1138  1.1953 -2.1682
 7174TIP3   OH243156   4.872   3.834   0.283 -0.5339  0.0527  0.9623
 7174TIP3    H143157   4.950   3.780   0.269  0.7371  1.8006  0.8641
 7174TIP3    H243158   4.829   3.837   0.198  0.5589  0.8700  0.4053
 7175TIP3   OH243159   1.400   0.189   0.936  0.4237  0.1680  0.2686
 7175TIP3    H143160   1.487   0.197   0.898 -0.6772  0.0695 -2.4646
 7175TIP3    H243161   1.405   0.111   0.992  1.9102 -0.1610 -0.2956
 7176TIP3   OH243162   5.561   0.102   6.794  0.1872 -0.2578  0.7231
 7176TIP3    H143163   5.553   0.042   6.720 -1.3276  1.3626 -0.4925
 7176TIP3    H243164   5.624   0.168   6.764  0.3048 -0.1175  1.2711
 7177TIP3   OH243165   1.741   1.954   1.924 -0.5863 -0.2451  0.1279
 7177TIP3    H143166   1.763   1.908   2.005 -0.6032 -1.6812 -0.6662
 7177TIP3    H243167   1.777   2.043   1.937 -1.2215 -0.2188  1.9811
 7178TIP3   OH243168   0.152   6.538   1.530  0.6003 -0.4853 -0.0933
 7178TIP3    H143169   0.233   6.577   1.562 -0.2716  0.0451  1.5599
 7178TIP3    H243170   0.128   6.592   1.455  1.1725  0.0736  0.1149
 7179TIP3   OH243171   6.874   4.870   8.275 -0.2191  0.3053  0.3037
 7179TIP3    H143172   6.780   4.855   8.265 -0.4400  2.0102 -0.6180
 7179TIP3    H243173   6.903   4.897   8.187  1.3717 -1.2917  0.2814
 7180TIP3   OH243174   5.855   3.993   1.183 -0.1456  0.7320  0.0425
 7180TIP3    H143175   5.842   3.906   1.146 -3.2553  0.1880  2.0305
 7180TIP3    H243176   5.874   4.049   1.108 -0.4385 -1.2294 -1.5795
 7181TIP3   OH243177   5.293   6.771   8.367  0.1468 -0.0687  0.3134
 7181TIP3    H143178   5.244   6.789   8.447  1.1605 -0.3350  1.0122
 7181TIP3    H243179   5.295   6.854   8.320 -1.2675 -0.1372  0.0897
 7182TIP3   OH243180   2.753   3.012   1.328  0.7846  0.1677 -0.5663
 7182TIP3    H143181   2.715   2.924   1.319 -0.7511  0.7567 -0.1388
 7182TIP3    H243182   2.821   3.003   1.395 -0.2341 -0.4489  0.4165
 7183LIG      O43183   1.607   3.783   6.147  0.2351 -0.4489  0.6609
 7183LIG     C143184   1.544   3.672   6.077 -0.1646 -0.2142  0.2259
 7183LIG     C243185   1.532   3.720   5.928  0.2151 -0.1988 -0.4390
 7183LIG     C343186   1.630   3.549   6.105  0.0338 -0.0272  0.2865
 7183LIG     H143187   1.442   3.661   6.119 -0.2794 -0.4294 -0.1078
 7183LIG     H243188   1.468   3.810   5.917  1.4725  1.1348  2.1205
 7183LIG     H343189   1.503   3.634   5.865  4.0643 -1.3777 -0.8616
 7183LIG     H443190   1.631   3.740   5.883  0.9744 -0.0302  1.2347
 7183LIG     H543191   1.735   3.563   6.070  0.2350  1.9838  1.4890
 7183LIG     H643192   1.589   3.456   6.061  1.1490 -0.9698  1.1673
 7183LIG     H743193   1.636   3.535   6.215  0.2827  1.6262  0.5193
 7183LIG     H843194   1.575   3.865   6.109  0.8290 -0.5417 -0.0428
   6.89922   6.89922   8.70144
